mobley_7688753_GMX.gro created by acpype (v: 2023.10.27) on Thu May 14 13:47:21 2026
 1845
    1MOL     C1    1   1.194   1.399   1.261
    1MOL     C2    2   1.301   1.338   1.196
    1MOL     C3    3   1.195   1.411   1.401
    1MOL     C4    4   1.408   1.298   1.409
    1MOL     C5    5   1.408   1.287   1.270
    1MOL     C6    6   1.301   1.360   1.474
    1MOL     C7    7   1.519   1.222   1.202
    1MOL     O1    8   1.525   1.210   1.080
    1MOL     O2    9   1.302   1.371   1.610
    1MOL     H1   10   1.111   1.439   1.204
    1MOL     H2   11   1.300   1.329   1.088
    1MOL     H3   12   1.111   1.459   1.451
    1MOL     H4   13   1.491   1.259   1.467
    1MOL     H5   14   1.602   1.184   1.265
    1MOL     H6   15   1.234   1.436   1.637
    2SOL     OW   16   0.230   0.628   0.113
    2SOL    HW1   17   0.137   0.626   0.150
    2SOL    HW2   18   0.231   0.589   0.021
    3SOL     OW   19   0.225   0.275   0.996
    3SOL    HW1   20   0.260   0.258   1.088
    3SOL    HW2   21   0.137   0.230   0.984
    4SOL     OW   22   0.019   0.368   0.647
    4SOL    HW1   23  -0.063   0.411   0.686
    4SOL    HW2   24  -0.009   0.295   0.584
    5SOL     OW   25   0.569   1.275   1.165
    5SOL    HW1   26   0.476   1.268   1.128
    5SOL    HW2   27   0.580   1.364   1.209
    6SOL     OW   28   1.555   1.511   0.703
    6SOL    HW1   29   1.498   1.495   0.784
    6SOL    HW2   30   1.496   1.521   0.623
    7SOL     OW   31   1.135   0.703   0.717
    7SOL    HW1   32   1.192   0.781   0.692
    7SOL    HW2   33   1.075   0.729   0.793
    8SOL     OW   34   1.755   0.607   0.231
    8SOL    HW1   35   1.743   0.594   0.132
    8SOL    HW2   36   1.725   0.526   0.280
    9SOL     OW   37   0.768   1.144   1.023
    9SOL    HW1   38   0.690   1.161   1.083
    9SOL    HW2   39   0.802   1.231   0.987
   10SOL     OW   40   0.850   0.798   1.823
   10SOL    HW1   41   0.846   0.874   1.888
   10SOL    HW2   42   0.872   0.834   1.732
   11SOL     OW   43   0.685   1.012   0.665
   11SOL    HW1   44   0.754   0.996   0.735
   11SOL    HW2   45   0.612   1.069   0.703
   12SOL     OW   46   0.686   1.161   1.803
   12SOL    HW1   47   0.746   1.240   1.817
   12SOL    HW2   48   0.600   1.192   1.762
   13SOL     OW   49   0.335   1.435   1.061
   13SOL    HW1   50   0.257   1.404   1.008
   13SOL    HW2   51   0.393   1.493   1.004
   14SOL     OW   52   0.438   0.392   1.499
   14SOL    HW1   53   0.520   0.336   1.508
   14SOL    HW2   54   0.357   0.334   1.503
   15SOL     OW   55   1.603   0.447   0.737
   15SOL    HW1   56   1.529   0.493   0.687
   15SOL    HW2   57   1.654   0.515   0.790
   16SOL     OW   58   0.231   1.713   0.483
   16SOL    HW1   59   0.265   1.790   0.537
   16SOL    HW2   60   0.275   1.713   0.393
   17SOL     OW   61   0.230   1.434   0.538
   17SOL    HW1   62   0.204   1.530   0.538
   17SOL    HW2   63   0.159   1.380   0.583
   18SOL     OW   64   0.240   1.091   0.886
   18SOL    HW1   65   0.254   1.007   0.938
   18SOL    HW2   66   0.185   1.155   0.941
   19SOL     OW   67   0.620   1.786   1.439
   19SOL    HW1   68   0.528   1.769   1.474
   19SOL    HW2   69   0.648   1.878   1.465
   20SOL     OW   70   0.606   0.964   0.123
   20SOL    HW1   71   0.613   1.048   0.069
   20SOL    HW2   72   0.652   0.977   0.211
   21SOL     OW   73   1.594   0.114   1.480
   21SOL    HW1   74   1.576   0.181   1.408
   21SOL    HW2   75   1.591   0.160   1.569
   22SOL     OW   76   0.122   0.643   0.563
   22SOL    HW1   77   0.077   0.555   0.580
   22SOL    HW2   78   0.121   0.697   0.647
   23SOL     OW   79   1.842   1.767   0.359
   23SOL    HW1   80   1.896   1.738   0.439
   23SOL    HW2   81   1.872   1.857   0.330
   24SOL     OW   82   0.027   1.596   0.117
   24SOL    HW1   83   0.008   1.500   0.138
   24SOL    HW2   84  -0.006   1.654   0.192
   25SOL     OW   85   1.689   0.922   0.612
   25SOL    HW1   86   1.784   0.893   0.620
   25SOL    HW2   87   1.681   0.987   0.537
   26SOL     OW   88   1.641   1.108   0.432
   26SOL    HW1   89   1.727   1.110   0.380
   26SOL    HW2   90   1.655   1.155   0.520
   27SOL     OW   91   0.113   0.737   1.597
   27SOL    HW1   92   0.201   0.724   1.642
   27SOL    HW2   93   0.100   0.834   1.575
   28SOL     OW   94   0.613   1.365   0.726
   28SOL    HW1   95   0.564   1.278   0.735
   28SOL    HW2   96   0.590   1.408   0.639
   29SOL     OW   97   0.809   0.004   0.502
   29SOL    HW1   98   0.849   0.095   0.493
   29SOL    HW2   99   0.709   0.012   0.508
   30SOL     OW  100   0.197   0.976   1.264
   30SOL    HW1  101   0.286   0.931   1.250
   30SOL    HW2  102   0.124   0.911   1.245
   31SOL     OW  103   1.525   0.999   0.190
   31SOL    HW1  104   1.462   0.923   0.203
   31SOL    HW2  105   1.573   1.017   0.276
   32SOL     OW  106   1.187   1.792   1.616
   32SOL    HW1  107   1.211   1.852   1.540
   32SOL    HW2  108   1.194   1.697   1.586
   33SOL     OW  109   0.317   0.251   1.801
   33SOL    HW1  110   0.388   0.322   1.807
   33SOL    HW2  111   0.229   0.290   1.829
   34SOL     OW  112   1.466   1.417   0.953
   34SOL    HW1  113   1.407   1.423   1.033
   34SOL    HW2  114   1.451   1.329   0.907
   35SOL     OW  115   1.667   1.714   0.572
   35SOL    HW1  116   1.626   1.691   0.484
   35SOL    HW2  117   1.649   1.640   0.637
   36SOL     OW  118   0.598   0.729   0.270
   36SOL    HW1  119   0.622   0.798   0.202
   36SOL    HW2  120   0.520   0.762   0.324
   37SOL     OW  121   1.281   0.345   0.944
   37SOL    HW1  122   1.195   0.295   0.931
   37SOL    HW2  123   1.343   0.291   1.000
   38SOL     OW  124   1.576   1.662   0.307
   38SOL    HW1  125   1.665   1.708   0.310
   38SOL    HW2  126   1.555   1.638   0.212
   39SOL     OW  127   0.807   0.605   1.465
   39SOL    HW1  128   0.760   0.602   1.554
   39SOL    HW2  129   0.756   0.550   1.399
   40SOL     OW  130   1.394   0.469   1.674
   40SOL    HW1  131   1.374   0.512   1.762
   40SOL    HW2  132   1.472   0.407   1.683
   41SOL     OW  133   0.973   0.890   1.572
   41SOL    HW1  134   1.019   0.806   1.543
   41SOL    HW2  135   0.917   0.924   1.497
   42SOL     OW  136   0.991   0.410   1.242
   42SOL    HW1  137   0.914   0.444   1.296
   42SOL    HW2  138   0.957   0.359   1.163
   43SOL     OW  139   1.041   0.701   0.429
   43SOL    HW1  140   1.067   0.697   0.525
   43SOL    HW2  141   0.956   0.650   0.415
   44SOL     OW  142   0.076   0.811   0.789
   44SOL    HW1  143   0.175   0.799   0.798
   44SOL    HW2  144   0.052   0.906   0.810
   45SOL     OW  145   0.130   1.821   1.571
   45SOL    HW1  146   0.120   1.806   1.670
   45SOL    HW2  147   0.044   1.857   1.535
   46SOL     OW  148   0.865   0.348   0.195
   46SOL    HW1  149   0.924   0.411   0.146
   46SOL    HW2  150   0.884   0.254   0.166
   47SOL     OW  151   1.719   0.585   1.831
   47SOL    HW1  152   1.693   0.674   1.795
   47SOL    HW2  153   1.717   0.517   1.758
   48SOL     OW  154   1.362   1.144   0.545
   48SOL    HW1  155   1.445   1.115   0.497
   48SOL    HW2  156   1.313   1.211   0.489
   49SOL     OW  157   0.550   0.196   0.885
   49SOL    HW1  158   0.545   0.191   0.985
   49SOL    HW2  159   0.552   0.292   0.856
   50SOL     OW  160   1.008   1.456   0.477
   50SOL    HW1  161   0.962   1.528   0.425
   50SOL    HW2  162   1.004   1.476   0.575
   51SOL     OW  163   0.351   1.801   0.853
   51SOL    HW1  164   0.401   1.715   0.859
   51SOL    HW2  165   0.416   1.878   0.850
   52SOL     OW  166   1.795   1.066   0.873
   52SOL    HW1  167   1.733   1.051   0.797
   52SOL    HW2  168   1.743   1.077   0.958
   53SOL     OW  169   0.321   0.943   0.242
   53SOL    HW1  170   0.403   0.982   0.200
   53SOL    HW2  171   0.294   0.861   0.193
   54SOL     OW  172   1.458   0.735   0.728
   54SOL    HW1  173   1.453   0.670   0.803
   54SOL    HW2  174   1.538   0.794   0.741
   55SOL     OW  175   0.461   1.266   1.727
   55SOL    HW1  176   0.411   1.267   1.641
   55SOL    HW2  177   0.398   1.248   1.803
   56SOL     OW  178   1.111   1.776   0.237
   56SOL    HW1  179   1.051   1.714   0.287
   56SOL    HW2  180   1.142   1.732   0.152
   57SOL     OW  181   0.202   0.285   1.498
   57SOL    HW1  182   0.122   0.345   1.485
   57SOL    HW2  183   0.192   0.236   1.584
   58SOL     OW  184   1.632   1.377   0.081
   58SOL    HW1  185   1.600   1.471   0.071
   58SOL    HW2  186   1.556   1.314   0.069
   59SOL     OW  187   0.464   1.743   0.323
   59SOL    HW1  188   0.497   1.782   0.409
   59SOL    HW2  189   0.540   1.736   0.258
   60SOL     OW  190   1.400   0.107   0.426
   60SOL    HW1  191   1.376   0.070   0.336
   60SOL    HW2  192   1.499   0.123   0.430
   61SOL     OW  193   0.249   1.785   1.241
   61SOL    HW1  194   0.306   1.720   1.291
   61SOL    HW2  195   0.233   1.752   1.148
   62SOL     OW  196   0.940   1.698   0.904
   62SOL    HW1  197   1.020   1.641   0.925
   62SOL    HW2  198   0.891   1.658   0.827
   63SOL     OW  199   0.382   0.700   0.480
   63SOL    HW1  200   0.427   0.610   0.477
   63SOL    HW2  201   0.288   0.689   0.513
   64SOL     OW  202   1.547   0.222   1.729
   64SOL    HW1  203   1.542   0.259   1.821
   64SOL    HW2  204   1.475   0.153   1.717
   65SOL     OW  205   0.614   0.122   0.117
   65SOL    HW1  206   0.712   0.100   0.124
   65SOL    HW2  207   0.583   0.105   0.024
   66SOL     OW  208   0.781   0.264   1.749
   66SOL    HW1  209   0.848   0.203   1.792
   66SOL    HW2  210   0.708   0.283   1.814
   67SOL     OW  211   0.888   1.514   1.195
   67SOL    HW1  212   0.865   1.489   1.101
   67SOL    HW2  213   0.949   1.445   1.234
   68SOL     OW  214   1.351   0.590   1.433
   68SOL    HW1  215   1.379   0.547   1.518
   68SOL    HW2  216   1.376   0.686   1.434
   69SOL     OW  217   0.803   1.402   0.924
   69SOL    HW1  218   0.893   1.416   0.882
   69SOL    HW2  219   0.732   1.404   0.853
   70SOL     OW  220   0.922   0.503   0.899
   70SOL    HW1  221   0.897   0.494   0.803
   70SOL    HW2  222   0.970   0.421   0.930
   71SOL     OW  223   0.539   0.064   0.512
   71SOL    HW1  224   0.458   0.065   0.570
   71SOL    HW2  225   0.542   0.147   0.457
   72SOL     OW  226   1.434   1.188   0.041
   72SOL    HW1  227   1.466   1.112   0.098
   72SOL    HW2  228   1.342   1.215   0.071
   73SOL     OW  229   0.297   0.035   0.171
   73SOL    HW1  230   0.346   0.119   0.150
   73SOL    HW2  231   0.359  -0.030   0.216
   74SOL     OW  232   0.935   0.236   0.480
   74SOL    HW1  233   0.887   0.277   0.402
   74SOL    HW2  234   1.034   0.234   0.461
   75SOL     OW  235   1.076   0.683   1.464
   75SOL    HW1  236   0.996   0.622   1.467
   75SOL    HW2  237   1.157   0.630   1.440
   76SOL     OW  238   1.227   1.570   0.793
   76SOL    HW1  239   1.248   1.644   0.728
   76SOL    HW2  240   1.295   1.570   0.866
   77SOL     OW  241   0.459   1.152   0.741
   77SOL    HW1  242   0.388   1.125   0.806
   77SOL    HW2  243   0.433   1.124   0.648
   78SOL     OW  244   1.271   1.797   0.591
   78SOL    HW1  245   1.315   1.861   0.527
   78SOL    HW2  246   1.221   1.849   0.661
   79SOL     OW  247   1.032   0.549   0.016
   79SOL    HW1  248   0.991   0.631  -0.023
   79SOL    HW2  249   1.096   0.575   0.089
   80SOL     OW  250   0.078   0.556   1.386
   80SOL    HW1  251   0.170   0.555   1.345
   80SOL    HW2  252   0.072   0.630   1.453
   81SOL     OW  253   0.561   0.222   1.147
   81SOL    HW1  254   0.599   0.138   1.184
   81SOL    HW2  255   0.473   0.241   1.191
   82SOL     OW  256   0.866   0.454   0.642
   82SOL    HW1  257   0.834   0.526   0.580
   82SOL    HW2  258   0.890   0.373   0.589
   83SOL     OW  259   1.017   0.039   0.753
   83SOL    HW1  260   0.945   0.044   0.684
   83SOL    HW2  261   0.993  -0.030   0.822
   84SOL     OW  262   1.429   1.173   0.867
   84SOL    HW1  263   1.374   1.089   0.860
   84SOL    HW2  264   1.455   1.202   0.775
   85SOL     OW  265   1.466   0.590   0.992
   85SOL    HW1  266   1.436   0.495   0.999
   85SOL    HW2  267   1.539   0.606   1.058
   86SOL     OW  268   1.857   0.833   0.377
   86SOL    HW1  269   1.899   0.769   0.441
   86SOL    HW2  270   1.819   0.782   0.299
   87SOL     OW  271   0.488   1.385   0.174
   87SOL    HW1  272   0.401   1.370   0.221
   87SOL    HW2  273   0.471   1.411   0.079
   88SOL     OW  274   1.664   1.280   0.657
   88SOL    HW1  275   1.763   1.288   0.671
   88SOL    HW2  276   1.619   1.364   0.688
   89SOL     OW  277   1.390   0.575   0.078
   89SOL    HW1  278   1.336   0.554   0.159
   89SOL    HW2  279   1.481   0.534   0.087
   90SOL     OW  280   0.527   0.256   0.328
   90SOL    HW1  281   0.554   0.197   0.253
   90SOL    HW2  282   0.527   0.351   0.297
   91SOL     OW  283   1.754   1.223   1.588
   91SOL    HW1  284   1.845   1.184   1.575
   91SOL    HW2  285   1.762   1.319   1.612
   92SOL     OW  286   1.592   1.629   1.625
   92SOL    HW1  287   1.619   1.663   1.535
   92SOL    HW2  288   1.671   1.591   1.671
   93SOL     OW  289   1.111   1.195   1.100
   93SOL    HW1  290   1.071   1.239   1.181
   93SOL    HW2  291   1.070   1.232   1.017
   94SOL     OW  292   0.915   0.089   1.402
   94SOL    HW1  293   0.940   0.069   1.307
   94SOL    HW2  294   0.987   0.145   1.444
   95SOL     OW  295   0.980   1.116   1.719
   95SOL    HW1  296   0.881   1.122   1.729
   95SOL    HW2  297   1.003   1.036   1.663
   96SOL     OW  298   0.705   1.050   0.368
   96SOL    HW1  299   0.691   1.057   0.467
   96SOL    HW2  300   0.789   0.999   0.350
   97SOL     OW  301   0.410   0.813   1.251
   97SOL    HW1  302   0.496   0.825   1.301
   97SOL    HW2  303   0.368   0.726   1.278
   98SOL     OW  304   1.274   0.386   1.262
   98SOL    HW1  305   1.295   0.460   1.326
   98SOL    HW2  306   1.185   0.403   1.219
   99SOL     OW  307   0.064   1.564   1.331
   99SOL    HW1  308   0.018   1.646   1.297
   99SOL    HW2  309   0.162   1.583   1.340
  100SOL     OW  310   0.367   1.100   0.501
  100SOL    HW1  311   0.360   1.183   0.445
  100SOL    HW2  312   0.371   1.020   0.441
  101SOL     OW  313   0.566   0.537   0.865
  101SOL    HW1  314   0.578   0.603   0.791
  101SOL    HW2  315   0.612   0.571   0.948
  102SOL     OW  316   1.252   1.348   0.388
  102SOL    HW1  317   1.302   1.425   0.428
  102SOL    HW2  318   1.157   1.350   0.420
  103SOL     OW  319   1.582   0.639   0.472
  103SOL    HW1  320   1.551   0.700   0.545
  103SOL    HW2  321   1.632   0.691   0.403
  104SOL     OW  322   0.354   1.510   1.329
  104SOL    HW1  323   0.333   1.466   1.242
  104SOL    HW2  324   0.451   1.536   1.332
  105SOL     OW  325   0.402   0.751   1.598
  105SOL    HW1  326   0.470   0.806   1.551
  105SOL    HW2  327   0.442   0.663   1.625
  106SOL     OW  328   1.587   0.779   1.670
  106SOL    HW1  329   1.495   0.817   1.665
  106SOL    HW2  330   1.647   0.826   1.605
  107SOL     OW  331   1.013   0.105   1.770
  107SOL    HW1  332   1.019   0.190   1.718
  107SOL    HW2  333   1.045   0.029   1.713
  108SOL     OW  334   0.504   0.050   1.740
  108SOL    HW1  335   0.462  -0.007   1.670
  108SOL    HW2  336   0.438   0.119   1.772
  109SOL     OW  337   0.573   0.870   1.029
  109SOL    HW1  338   0.617   0.959   1.020
  109SOL    HW2  339   0.510   0.870   1.106
  110SOL     OW  340   1.360   0.862   1.045
  110SOL    HW1  341   1.285   0.862   0.979
  110SOL    HW2  342   1.397   0.770   1.054
  111SOL     OW  343   1.209   0.525   0.275
  111SOL    HW1  344   1.222   0.441   0.329
  111SOL    HW2  345   1.180   0.599   0.335
  112SOL     OW  346   0.307   0.213   1.231
  112SOL    HW1  347   0.284   0.250   1.321
  112SOL    HW2  348   0.277   0.118   1.225
  113SOL     OW  349   0.037   1.310   1.282
  113SOL    HW1  350   0.090   1.261   1.350
  113SOL    HW2  351   0.059   1.408   1.287
  114SOL     OW  352   0.732   0.634   1.064
  114SOL    HW1  353   0.791   0.608   0.988
  114SOL    HW2  354   0.704   0.730   1.053
  115SOL     OW  355   1.728   0.935   1.854
  115SOL    HW1  356   1.682   0.928   1.765
  115SOL    HW2  357   1.666   0.979   1.920
  116SOL     OW  358   0.307   0.063   0.618
  116SOL    HW1  359   0.296   0.157   0.651
  116SOL    HW2  360   0.302   0.000   0.695
  117SOL     OW  361   1.622   0.367   0.374
  117SOL    HW1  362   1.624   0.291   0.438
  117SOL    HW2  363   1.574   0.444   0.414
  118SOL     OW  364   1.023   0.766   0.966
  118SOL    HW1  365   1.038   0.787   1.062
  118SOL    HW2  366   0.993   0.671   0.957
  119SOL     OW  367   0.980   1.573   1.700
  119SOL    HW1  368   0.960   1.617   1.612
  119SOL    HW2  369   1.019   1.482   1.684
  120SOL     OW  370   1.859   1.518   1.605
  120SOL    HW1  371   1.873   1.545   1.510
  120SOL    HW2  372   1.942   1.540   1.658
  121SOL     OW  373   0.350   0.898   1.804
  121SOL    HW1  374   0.426   0.942   1.852
  121SOL    HW2  375   0.385   0.851   1.722
  122SOL     OW  376   1.540   0.274   0.125
  122SOL    HW1  377   1.479   0.199   0.148
  122SOL    HW2  378   1.562   0.326   0.208
  123SOL     OW  379   1.303   0.838   0.042
  123SOL    HW1  380   1.337   0.745   0.057
  123SOL    HW2  381   1.321   0.865  -0.053
  124SOL     OW  382   1.068   1.333   0.849
  124SOL    HW1  383   1.075   1.249   0.794
  124SOL    HW2  384   1.130   1.402   0.813
  125SOL     OW  385   0.319   0.810   0.949
  125SOL    HW1  386   0.412   0.846   0.954
  125SOL    HW2  387   0.313   0.725   1.001
  126SOL     OW  388   0.339   0.509   1.006
  126SOL    HW1  389   0.287   0.426   0.989
  126SOL    HW2  390   0.416   0.514   0.942
  127SOL     OW  391   1.138   0.380   1.678
  127SOL    HW1  392   1.093   0.443   1.742
  127SOL    HW2  393   1.231   0.411   1.661
  128SOL     OW  394   1.160   0.207   1.477
  128SOL    HW1  395   1.160   0.271   1.554
  128SOL    HW2  396   1.188   0.255   1.394
  129SOL     OW  397   0.008   1.326   0.200
  129SOL    HW1  398  -0.085   1.347   0.169
  129SOL    HW2  399   0.018   1.227   0.213
  130SOL     OW  400   0.088   1.801   0.927
  130SOL    HW1  401   0.046   1.715   0.900
  130SOL    HW2  402   0.182   1.804   0.893
  131SOL     OW  403   0.504   1.568   0.910
  131SOL    HW1  404   0.570   1.642   0.919
  131SOL    HW2  405   0.548   1.489   0.868
  132SOL     OW  406   1.002   0.796   1.238
  132SOL    HW1  407   1.043   0.764   1.324
  132SOL    HW2  408   0.906   0.769   1.235
  133SOL     OW  409   0.040   0.544   1.114
  133SOL    HW1  410   0.125   0.511   1.073
  133SOL    HW2  411   0.053   0.559   1.212
  134SOL     OW  412   0.189   0.520   1.722
  134SOL    HW1  413   0.248   0.480   1.652
  134SOL    HW2  414   0.131   0.591   1.681
  135SOL     OW  415   1.369   0.950   1.660
  135SOL    HW1  416   1.408   1.039   1.680
  135SOL    HW2  417   1.379   0.930   1.563
  136SOL     OW  418   0.815   0.572   0.325
  136SOL    HW1  419   0.822   0.483   0.279
  136SOL    HW2  420   0.721   0.606   0.317
  137SOL     OW  421   1.657   0.604   1.206
  137SOL    HW1  422   1.619   0.535   1.268
  137SOL    HW2  423   1.739   0.568   1.162
  138SOL     OW  424   0.252   1.564   1.744
  138SOL    HW1  425   0.222   1.621   1.820
  138SOL    HW2  426   0.245   1.467   1.770
  139SOL     OW  427   0.671   0.464   1.269
  139SOL    HW1  428   0.637   0.375   1.239
  139SOL    HW2  429   0.697   0.518   1.189
  140SOL     OW  430   0.930   1.678   1.465
  140SOL    HW1  431   0.906   1.660   1.370
  140SOL    HW2  432   0.960   1.772   1.475
  141SOL     OW  433   0.473   0.500   0.191
  141SOL    HW1  434   0.534   0.580   0.195
  141SOL    HW2  435   0.378   0.531   0.198
  142SOL     OW  436   0.159   1.137   1.466
  142SOL    HW1  437   0.181   1.076   1.542
  142SOL    HW2  438   0.169   1.088   1.380
  143SOL     OW  439   1.347   1.059   1.234
  143SOL    HW1  440   1.371   0.996   1.160
  143SOL    HW2  441   1.257   1.099   1.216
  144SOL     OW  442   1.302   0.855   0.309
  144SOL    HW1  443   1.216   0.824   0.351
  144SOL    HW2  444   1.298   0.841   0.210
  145SOL     OW  445   1.759   1.747   1.154
  145SOL    HW1  446   1.820   1.777   1.081
  145SOL    HW2  447   1.721   1.658   1.132
  146SOL     OW  448   1.252   1.731   1.128
  146SOL    HW1  449   1.336   1.736   1.074
  146SOL    HW2  450   1.229   1.635   1.146
  147SOL     OW  451   0.083   1.258   1.022
  147SOL    HW1  452   0.078   1.257   1.122
  147SOL    HW2  453   0.000   1.217   0.984
  148SOL     OW  454   0.688   1.662   1.716
  148SOL    HW1  455   0.632   1.743   1.725
  148SOL    HW2  456   0.740   1.666   1.630
  149SOL     OW  457   0.903   0.086   0.133
  149SOL    HW1  458   0.954   0.087   0.047
  149SOL    HW2  459   0.959   0.044   0.204
  150SOL     OW  460   1.726   0.135   0.523
  150SOL    HW1  461   1.799   0.118   0.456
  150SOL    HW2  462   1.695   0.048   0.561
  151SOL     OW  463   1.388   1.573   0.477
  151SOL    HW1  464   1.455   1.585   0.403
  151SOL    HW2  465   1.348   1.662   0.500
  152SOL     OW  466   0.130   1.794   1.851
  152SOL    HW1  467   0.089   1.720   1.904
  152SOL    HW2  468   0.194   1.845   1.909
  153SOL     OW  469   1.280   0.927   0.672
  153SOL    HW1  470   1.340   0.846   0.674
  153SOL    HW2  471   1.320   0.996   0.612
  154SOL     OW  472   0.830   1.273   1.422
  154SOL    HW1  473   0.825   1.306   1.517
  154SOL    HW2  474   0.744   1.292   1.376
  155SOL     OW  475   0.672   1.616   0.154
  155SOL    HW1  476   0.681   1.626   0.055
  155SOL    HW2  477   0.632   1.527   0.175
  156SOL     OW  478   1.650   1.720   1.394
  156SOL    HW1  479   1.703   1.730   1.310
  156SOL    HW2  480   1.623   1.810   1.428
  157SOL     OW  481   1.841   0.175   0.963
  157SOL    HW1  482   1.880   0.090   0.927
  157SOL    HW2  483   1.743   0.177   0.944
  158SOL     OW  484   0.263   0.326   0.720
  158SOL    HW1  485   0.184   0.377   0.686
  158SOL    HW2  486   0.254   0.311   0.818
  159SOL     OW  487   1.194   1.612   0.031
  159SOL    HW1  488   1.200   1.519   0.068
  159SOL    HW2  489   1.135   1.612  -0.049
  160SOL     OW  490   0.822   1.002   1.372
  160SOL    HW1  491   0.862   1.001   1.280
  160SOL    HW2  492   0.832   1.094   1.412
  161SOL     OW  493   0.916   0.910   0.291
  161SOL    HW1  494   0.979   0.948   0.223
  161SOL    HW2  495   0.956   0.827   0.330
  162SOL     OW  496   1.504   1.607   0.044
  162SOL    HW1  497   1.412   1.644   0.051
  162SOL    HW2  498   1.542   1.627  -0.046
  163SOL     OW  499   0.372   1.288   1.490
  163SOL    HW1  500   0.359   1.381   1.456
  163SOL    HW2  501   0.288   1.236   1.477
  164SOL     OW  502   1.039   1.098   0.696
  164SOL    HW1  503   0.969   1.051   0.750
  164SOL    HW2  504   1.098   1.030   0.653
  165SOL     OW  505   1.014   0.236   0.971
  165SOL    HW1  506   1.006   0.200   0.878
  165SOL    HW2  507   1.012   0.160   1.036
  166SOL     OW  508   0.590   1.487   0.491
  166SOL    HW1  509   0.632   1.429   0.421
  166SOL    HW2  510   0.546   1.566   0.447
  167SOL     OW  511   1.709   0.385   1.381
  167SOL    HW1  512   1.782   0.454   1.385
  167SOL    HW2  513   1.737   0.310   1.322
  168SOL     OW  514   0.255   1.348   0.290
  168SOL    HW1  515   0.159   1.349   0.263
  168SOL    HW2  516   0.267   1.401   0.374
  169SOL     OW  517   0.105   1.013   1.726
  169SOL    HW1  518   0.028   0.980   1.780
  169SOL    HW2  519   0.190   0.983   1.768
  170SOL     OW  520   0.672   0.203   1.489
  170SOL    HW1  521   0.762   0.187   1.449
  170SOL    HW2  522   0.680   0.208   1.588
  171SOL     OW  523   0.075   0.345   0.033
  171SOL    HW1  524  -0.017   0.317   0.004
  171SOL    HW2  525   0.106   0.422  -0.023
  172SOL     OW  526   1.440   0.856   1.398
  172SOL    HW1  527   1.383   0.908   1.335
  172SOL    HW2  528   1.536   0.868   1.374
  173SOL     OW  529   0.072   0.166   0.318
  173SOL    HW1  530   0.055   0.249   0.264
  173SOL    HW2  531   0.162   0.129   0.296
  174SOL     OW  532   1.183   1.335   0.119
  174SOL    HW1  533   1.084   1.324   0.121
  174SOL    HW2  534   1.217   1.350   0.212
  175SOL     OW  535   0.613   0.842   1.431
  175SOL    HW1  536   0.669   0.923   1.414
  175SOL    HW2  537   0.672   0.762   1.434
  176SOL     OW  538   1.493   1.767   0.959
  176SOL    HW1  539   1.526   1.831   0.890
  176SOL    HW2  540   1.559   1.761   1.034
  177SOL     OW  541   0.716   0.565   1.708
  177SOL    HW1  542   0.735   0.630   1.782
  177SOL    HW2  543   0.776   0.485   1.717
  178SOL     OW  544   1.450   1.220   1.633
  178SOL    HW1  545   1.441   1.210   1.732
  178SOL    HW2  546   1.546   1.213   1.607
  179SOL     OW  547   0.390   1.741   1.560
  179SOL    HW1  548   0.299   1.782   1.558
  179SOL    HW2  549   0.383   1.647   1.592
  180SOL     OW  550   1.674   0.883   1.254
  180SOL    HW1  551   1.647   0.794   1.217
  180SOL    HW2  552   1.675   0.951   1.181
  181SOL     OW  553   1.225   0.325   0.449
  181SOL    HW1  554   1.290   0.251   0.438
  181SOL    HW2  555   1.245   0.375   0.533
  182SOL     OW  556   0.594   0.745   0.652
  182SOL    HW1  557   0.644   0.830   0.633
  182SOL    HW2  558   0.506   0.747   0.604
  183SOL     OW  559   1.777   0.342   1.642
  183SOL    HW1  560   1.760   0.373   1.548
  183SOL    HW2  561   1.693   0.305   1.680
  184SOL     OW  562   1.730   0.934   1.517
  184SOL    HW1  563   1.768   1.025   1.532
  184SOL    HW2  564   1.722   0.917   1.418
  185SOL     OW  565   0.859   1.374   0.016
  185SOL    HW1  566   0.813   1.389   0.104
  185SOL    HW2  567   0.903   1.459  -0.014
  186SOL     OW  568   0.661   1.790   0.953
  186SOL    HW1  569   0.615   1.878   0.940
  186SOL    HW2  570   0.760   1.802   0.946
  187SOL     OW  571   0.859   0.956   0.861
  187SOL    HW1  572   0.913   0.887   0.909
  187SOL    HW2  573   0.827   1.025   0.927
  188SOL     OW  574   1.083   0.984   0.087
  188SOL    HW1  575   1.060   1.037   0.005
  188SOL    HW2  576   1.164   0.928   0.068
  189SOL     OW  577   1.861   1.569   0.851
  189SOL    HW1  578   1.790   1.557   0.781
  189SOL    HW2  579   1.862   1.490   0.911
  190SOL     OW  580   0.221   1.314   1.844
  190SOL    HW1  581   0.156   1.241   1.823
  190SOL    HW2  582   0.225   1.328   1.942
  191SOL     OW  583   0.079   1.240   0.653
  191SOL    HW1  584   0.078   1.193   0.741
  191SOL    HW2  585   0.161   1.212   0.602
  192SOL     OW  586   0.672   1.391   1.624
  192SOL    HW1  587   0.594   1.341   1.662
  192SOL    HW2  588   0.669   1.486   1.655
  193SOL     OW  589   1.824   0.192   1.227
  193SOL    HW1  590   1.820   0.102   1.271
  193SOL    HW2  591   1.827   0.181   1.128
  194SOL     OW  592   0.428   0.424   0.520
  194SOL    HW1  593   0.458   0.352   0.458
  194SOL    HW2  594   0.389   0.384   0.603
  195SOL     OW  595   1.705   1.487   1.104
  195SOL    HW1  596   1.612   1.462   1.077
  195SOL    HW2  597   1.731   1.437   1.186
  196SOL     OW  598   0.317   0.547   1.280
  196SOL    HW1  599   0.355   0.488   1.352
  196SOL    HW2  600   0.357   0.521   1.192
  197SOL     OW  601   0.812   1.586   0.687
  197SOL    HW1  602   0.844   1.596   0.593
  197SOL    HW2  603   0.733   1.524   0.689
  198SOL     OW  604   1.424   0.214   1.112
  198SOL    HW1  605   1.476   0.149   1.167
  198SOL    HW2  606   1.375   0.277   1.173
  199SOL     OW  607   1.001   0.034   1.154
  199SOL    HW1  608   0.938  -0.038   1.123
  199SOL    HW2  609   1.094  -0.002   1.154
  200SOL     OW  610   0.770   1.330   0.301
  200SOL    HW1  611   0.724   1.243   0.318
  200SOL    HW2  612   0.861   1.327   0.342
  201SOL     OW  613   0.618   1.567   1.284
  201SOL    HW1  614   0.613   1.649   1.341
  201SOL    HW2  615   0.707   1.564   1.239
  202SOL     OW  616   1.352   0.052   0.168
  202SOL    HW1  617   1.387   0.011   0.084
  202SOL    HW2  618   1.262   0.014   0.188
  203SOL     OW  619   1.300   0.453   0.691
  203SOL    HW1  620   1.241   0.533   0.695
  203SOL    HW2  621   1.315   0.418   0.784
  204SOL     OW  622   1.593   0.221   0.882
  204SOL    HW1  623   1.509   0.220   0.936
  204SOL    HW2  624   1.595   0.304   0.826
  205SOL     OW  625   0.039   1.077   0.300
  205SOL    HW1  626   0.138   1.066   0.291
  205SOL    HW2  627  -0.001   0.991   0.332
  206SOL     OW  628   0.875   1.646   0.337
  206SOL    HW1  629   0.798   1.611   0.283
  206SOL    HW2  630   0.843   1.717   0.399
  207SOL     OW  631   0.230   0.628   1.975
  207SOL    HW1  632   0.137   0.626   2.012
  207SOL    HW2  633   0.231   0.589   1.883
  208SOL     OW  634   0.019   0.368   2.509
  208SOL    HW1  635  -0.063   0.411   2.548
  208SOL    HW2  636  -0.009   0.295   2.446
  209SOL     OW  637   1.755   0.607   2.093
  209SOL    HW1  638   1.743   0.594   1.994
  209SOL    HW2  639   1.725   0.526   2.142
  210SOL     OW  640   0.685   1.012   2.527
  210SOL    HW1  641   0.754   0.996   2.597
  210SOL    HW2  642   0.612   1.069   2.565
  211SOL     OW  643   1.603   0.447   2.599
  211SOL    HW1  644   1.529   0.493   2.549
  211SOL    HW2  645   1.654   0.515   2.652
  212SOL     OW  646   0.231   1.713   2.345
  212SOL    HW1  647   0.265   1.790   2.399
  212SOL    HW2  648   0.275   1.713   2.255
  213SOL     OW  649   0.230   1.434   2.400
  213SOL    HW1  650   0.204   1.530   2.400
  213SOL    HW2  651   0.159   1.380   2.445
  214SOL     OW  652   0.606   0.964   1.985
  214SOL    HW1  653   0.613   1.048   1.931
  214SOL    HW2  654   0.652   0.977   2.073
  215SOL     OW  655   0.122   0.643   2.425
  215SOL    HW1  656   0.077   0.555   2.442
  215SOL    HW2  657   0.121   0.697   2.509
  216SOL     OW  658   1.842   1.767   2.221
  216SOL    HW1  659   1.896   1.738   2.301
  216SOL    HW2  660   1.872   1.857   2.192
  217SOL     OW  661   0.027   1.596   1.979
  217SOL    HW1  662   0.008   1.500   2.000
  217SOL    HW2  663  -0.006   1.654   2.054
  218SOL     OW  664   1.689   0.922   2.474
  218SOL    HW1  665   1.784   0.893   2.482
  218SOL    HW2  666   1.681   0.987   2.399
  219SOL     OW  667   1.641   1.108   2.294
  219SOL    HW1  668   1.727   1.110   2.242
  219SOL    HW2  669   1.655   1.155   2.382
  220SOL     OW  670   0.613   1.365   2.588
  220SOL    HW1  671   0.564   1.278   2.597
  220SOL    HW2  672   0.590   1.408   2.501
  221SOL     OW  673   0.809   0.004   2.364
  221SOL    HW1  674   0.849   0.095   2.355
  221SOL    HW2  675   0.709   0.012   2.370
  222SOL     OW  676   1.525   0.999   2.052
  222SOL    HW1  677   1.462   0.923   2.065
  222SOL    HW2  678   1.573   1.017   2.138
  223SOL     OW  679   1.667   1.714   2.434
  223SOL    HW1  680   1.626   1.691   2.346
  223SOL    HW2  681   1.649   1.640   2.499
  224SOL     OW  682   0.598   0.729   2.132
  224SOL    HW1  683   0.622   0.798   2.064
  224SOL    HW2  684   0.520   0.762   2.186
  225SOL     OW  685   1.281   0.345   2.806
  225SOL    HW1  686   1.195   0.295   2.793
  225SOL    HW2  687   1.343   0.291   2.862
  226SOL     OW  688   1.576   1.662   2.169
  226SOL    HW1  689   1.665   1.708   2.172
  226SOL    HW2  690   1.555   1.638   2.074
  227SOL     OW  691   1.041   0.701   2.291
  227SOL    HW1  692   1.067   0.697   2.387
  227SOL    HW2  693   0.956   0.650   2.277
  228SOL     OW  694   0.076   0.811   2.651
  228SOL    HW1  695   0.175   0.799   2.660
  228SOL    HW2  696   0.052   0.906   2.672
  229SOL     OW  697   0.865   0.348   2.057
  229SOL    HW1  698   0.924   0.411   2.008
  229SOL    HW2  699   0.884   0.254   2.028
  230SOL     OW  700   1.362   1.144   2.407
  230SOL    HW1  701   1.445   1.115   2.359
  230SOL    HW2  702   1.313   1.211   2.351
  231SOL     OW  703   1.008   1.456   2.339
  231SOL    HW1  704   0.962   1.528   2.287
  231SOL    HW2  705   1.004   1.476   2.437
  232SOL     OW  706   0.351   1.801   2.715
  232SOL    HW1  707   0.401   1.715   2.721
  232SOL    HW2  708   0.416   1.878   2.712
  233SOL     OW  709   1.795   1.066   2.735
  233SOL    HW1  710   1.733   1.051   2.659
  233SOL    HW2  711   1.743   1.077   2.820
  234SOL     OW  712   0.321   0.943   2.104
  234SOL    HW1  713   0.403   0.982   2.062
  234SOL    HW2  714   0.294   0.861   2.055
  235SOL     OW  715   1.111   1.776   2.099
  235SOL    HW1  716   1.051   1.714   2.149
  235SOL    HW2  717   1.142   1.732   2.014
  236SOL     OW  718   1.632   1.377   1.943
  236SOL    HW1  719   1.600   1.471   1.933
  236SOL    HW2  720   1.556   1.314   1.931
  237SOL     OW  721   0.464   1.743   2.185
  237SOL    HW1  722   0.497   1.782   2.271
  237SOL    HW2  723   0.540   1.736   2.120
  238SOL     OW  724   1.400   0.107   2.288
  238SOL    HW1  725   1.376   0.070   2.198
  238SOL    HW2  726   1.499   0.123   2.292
  239SOL     OW  727   0.940   1.698   2.766
  239SOL    HW1  728   1.020   1.641   2.787
  239SOL    HW2  729   0.891   1.658   2.689
  240SOL     OW  730   0.382   0.700   2.342
  240SOL    HW1  731   0.427   0.610   2.339
  240SOL    HW2  732   0.288   0.689   2.375
  241SOL     OW  733   0.614   0.122   1.979
  241SOL    HW1  734   0.712   0.100   1.986
  241SOL    HW2  735   0.583   0.105   1.886
  242SOL     OW  736   0.539   0.064   2.374
  242SOL    HW1  737   0.458   0.065   2.432
  242SOL    HW2  738   0.542   0.147   2.319
  243SOL     OW  739   1.434   1.188   1.903
  243SOL    HW1  740   1.466   1.112   1.960
  243SOL    HW2  741   1.342   1.215   1.933
  244SOL     OW  742   0.297   0.035   2.033
  244SOL    HW1  743   0.346   0.119   2.012
  244SOL    HW2  744   0.359  -0.030   2.078
  245SOL     OW  745   0.935   0.236   2.342
  245SOL    HW1  746   0.887   0.277   2.264
  245SOL    HW2  747   1.034   0.234   2.323
  246SOL     OW  748   0.459   1.152   2.603
  246SOL    HW1  749   0.388   1.125   2.668
  246SOL    HW2  750   0.433   1.124   2.510
  247SOL     OW  751   1.271   1.797   2.453
  247SOL    HW1  752   1.315   1.861   2.389
  247SOL    HW2  753   1.221   1.849   2.523
  248SOL     OW  754   1.032   0.549   1.878
  248SOL    HW1  755   0.991   0.631   1.839
  248SOL    HW2  756   1.096   0.575   1.951
  249SOL     OW  757   0.866   0.454   2.504
  249SOL    HW1  758   0.834   0.526   2.442
  249SOL    HW2  759   0.890   0.373   2.451
  250SOL     OW  760   1.857   0.833   2.239
  250SOL    HW1  761   1.899   0.769   2.303
  250SOL    HW2  762   1.819   0.782   2.161
  251SOL     OW  763   0.488   1.385   2.036
  251SOL    HW1  764   0.401   1.370   2.083
  251SOL    HW2  765   0.471   1.411   1.941
  252SOL     OW  766   1.664   1.280   2.519
  252SOL    HW1  767   1.763   1.288   2.533
  252SOL    HW2  768   1.619   1.364   2.550
  253SOL     OW  769   1.390   0.575   1.940
  253SOL    HW1  770   1.336   0.554   2.021
  253SOL    HW2  771   1.481   0.534   1.949
  254SOL     OW  772   0.527   0.256   2.190
  254SOL    HW1  773   0.554   0.197   2.115
  254SOL    HW2  774   0.527   0.351   2.159
  255SOL     OW  775   0.705   1.050   2.230
  255SOL    HW1  776   0.691   1.057   2.329
  255SOL    HW2  777   0.789   0.999   2.212
  256SOL     OW  778   0.367   1.100   2.363
  256SOL    HW1  779   0.360   1.183   2.307
  256SOL    HW2  780   0.371   1.020   2.303
  257SOL     OW  781   1.252   1.348   2.250
  257SOL    HW1  782   1.302   1.425   2.290
  257SOL    HW2  783   1.157   1.350   2.282
  258SOL     OW  784   1.582   0.639   2.334
  258SOL    HW1  785   1.551   0.700   2.407
  258SOL    HW2  786   1.632   0.691   2.265
  259SOL     OW  787   1.209   0.525   2.137
  259SOL    HW1  788   1.222   0.441   2.191
  259SOL    HW2  789   1.180   0.599   2.197
  260SOL     OW  790   0.307   0.063   2.480
  260SOL    HW1  791   0.296   0.157   2.513
  260SOL    HW2  792   0.302   0.000   2.557
  261SOL     OW  793   1.622   0.367   2.236
  261SOL    HW1  794   1.624   0.291   2.300
  261SOL    HW2  795   1.574   0.444   2.276
  262SOL     OW  796   1.540   0.274   1.987
  262SOL    HW1  797   1.479   0.199   2.010
  262SOL    HW2  798   1.562   0.326   2.070
  263SOL     OW  799   1.303   0.838   1.904
  263SOL    HW1  800   1.337   0.745   1.919
  263SOL    HW2  801   1.321   0.865   1.809
  264SOL     OW  802   0.008   1.326   2.062
  264SOL    HW1  803  -0.085   1.347   2.031
  264SOL    HW2  804   0.018   1.227   2.075
  265SOL     OW  805   0.815   0.572   2.187
  265SOL    HW1  806   0.822   0.483   2.141
  265SOL    HW2  807   0.721   0.606   2.179
  266SOL     OW  808   0.473   0.500   2.053
  266SOL    HW1  809   0.534   0.580   2.057
  266SOL    HW2  810   0.378   0.531   2.060
  267SOL     OW  811   1.302   0.855   2.171
  267SOL    HW1  812   1.216   0.824   2.213
  267SOL    HW2  813   1.298   0.841   2.072
  268SOL     OW  814   1.726   0.135   2.385
  268SOL    HW1  815   1.799   0.118   2.318
  268SOL    HW2  816   1.695   0.048   2.423
  269SOL     OW  817   1.388   1.573   2.339
  269SOL    HW1  818   1.455   1.585   2.265
  269SOL    HW2  819   1.348   1.662   2.362
  270SOL     OW  820   0.672   1.616   2.016
  270SOL    HW1  821   0.681   1.626   1.917
  270SOL    HW2  822   0.632   1.527   2.037
  271SOL     OW  823   1.194   1.612   1.893
  271SOL    HW1  824   1.200   1.519   1.930
  271SOL    HW2  825   1.135   1.612   1.813
  272SOL     OW  826   0.916   0.910   2.153
  272SOL    HW1  827   0.979   0.948   2.085
  272SOL    HW2  828   0.956   0.827   2.192
  273SOL     OW  829   1.504   1.607   1.906
  273SOL    HW1  830   1.412   1.644   1.913
  273SOL    HW2  831   1.542   1.627   1.816
  274SOL     OW  832   0.590   1.487   2.353
  274SOL    HW1  833   0.632   1.429   2.283
  274SOL    HW2  834   0.546   1.566   2.309
  275SOL     OW  835   0.255   1.348   2.152
  275SOL    HW1  836   0.159   1.349   2.125
  275SOL    HW2  837   0.267   1.401   2.236
  276SOL     OW  838   0.075   0.345   1.895
  276SOL    HW1  839  -0.017   0.317   1.866
  276SOL    HW2  840   0.106   0.422   1.839
  277SOL     OW  841   0.072   0.166   2.180
  277SOL    HW1  842   0.055   0.249   2.126
  277SOL    HW2  843   0.162   0.129   2.158
  278SOL     OW  844   1.183   1.335   1.981
  278SOL    HW1  845   1.084   1.324   1.983
  278SOL    HW2  846   1.217   1.350   2.074
  279SOL     OW  847   1.225   0.325   2.311
  279SOL    HW1  848   1.290   0.251   2.300
  279SOL    HW2  849   1.245   0.375   2.395
  280SOL     OW  850   0.594   0.745   2.514
  280SOL    HW1  851   0.644   0.830   2.495
  280SOL    HW2  852   0.506   0.747   2.466
  281SOL     OW  853   0.859   1.374   1.878
  281SOL    HW1  854   0.813   1.389   1.966
  281SOL    HW2  855   0.903   1.459   1.848
  282SOL     OW  856   0.661   1.790   2.815
  282SOL    HW1  857   0.615   1.878   2.802
  282SOL    HW2  858   0.760   1.802   2.808
  283SOL     OW  859   0.859   0.956   2.723
  283SOL    HW1  860   0.913   0.887   2.771
  283SOL    HW2  861   0.827   1.025   2.789
  284SOL     OW  862   1.083   0.984   1.949
  284SOL    HW1  863   1.060   1.037   1.867
  284SOL    HW2  864   1.164   0.928   1.930
  285SOL     OW  865   0.079   1.240   2.515
  285SOL    HW1  866   0.078   1.193   2.603
  285SOL    HW2  867   0.161   1.212   2.464
  286SOL     OW  868   0.428   0.424   2.382
  286SOL    HW1  869   0.458   0.352   2.320
  286SOL    HW2  870   0.389   0.384   2.465
  287SOL     OW  871   0.812   1.586   2.549
  287SOL    HW1  872   0.844   1.596   2.455
  287SOL    HW2  873   0.733   1.524   2.551
  288SOL     OW  874   0.770   1.330   2.163
  288SOL    HW1  875   0.724   1.243   2.180
  288SOL    HW2  876   0.861   1.327   2.204
  289SOL     OW  877   1.352   0.052   2.030
  289SOL    HW1  878   1.387   0.011   1.946
  289SOL    HW2  879   1.262   0.014   2.050
  290SOL     OW  880   1.300   0.453   2.553
  290SOL    HW1  881   1.241   0.533   2.557
  290SOL    HW2  882   1.315   0.418   2.646
  291SOL     OW  883   0.039   1.077   2.162
  291SOL    HW1  884   0.138   1.066   2.153
  291SOL    HW2  885  -0.001   0.991   2.194
  292SOL     OW  886   0.875   1.646   2.199
  292SOL    HW1  887   0.798   1.611   2.145
  292SOL    HW2  888   0.843   1.717   2.261
  293SOL     OW  889   0.230   2.490   0.113
  293SOL    HW1  890   0.137   2.488   0.150
  293SOL    HW2  891   0.231   2.451   0.021
  294SOL     OW  892   0.225   2.137   0.996
  294SOL    HW1  893   0.260   2.120   1.088
  294SOL    HW2  894   0.137   2.092   0.984
  295SOL     OW  895   0.019   2.230   0.647
  295SOL    HW1  896  -0.063   2.273   0.686
  295SOL    HW2  897  -0.009   2.157   0.584
  296SOL     OW  898   1.755   2.469   0.231
  296SOL    HW1  899   1.743   2.456   0.132
  296SOL    HW2  900   1.725   2.388   0.280
  297SOL     OW  901   0.850   2.660   1.823
  297SOL    HW1  902   0.846   2.736   1.888
  297SOL    HW2  903   0.872   2.696   1.732
  298SOL     OW  904   0.685   2.874   0.665
  298SOL    HW1  905   0.754   2.858   0.735
  298SOL    HW2  906   0.612   2.931   0.703
  299SOL     OW  907   0.438   2.254   1.499
  299SOL    HW1  908   0.520   2.198   1.508
  299SOL    HW2  909   0.357   2.196   1.503
  300SOL     OW  910   1.603   2.309   0.737
  300SOL    HW1  911   1.529   2.355   0.687
  300SOL    HW2  912   1.654   2.377   0.790
  301SOL     OW  913   1.594   1.976   1.480
  301SOL    HW1  914   1.576   2.043   1.408
  301SOL    HW2  915   1.591   2.022   1.569
  302SOL     OW  916   0.122   2.505   0.563
  302SOL    HW1  917   0.077   2.417   0.580
  302SOL    HW2  918   0.121   2.559   0.647
  303SOL     OW  919   0.113   2.599   1.597
  303SOL    HW1  920   0.201   2.586   1.642
  303SOL    HW2  921   0.100   2.696   1.575
  304SOL     OW  922   0.809   1.866   0.502
  304SOL    HW1  923   0.849   1.957   0.493
  304SOL    HW2  924   0.709   1.874   0.508
  305SOL     OW  925   0.317   2.113   1.801
  305SOL    HW1  926   0.388   2.184   1.807
  305SOL    HW2  927   0.229   2.152   1.829
  306SOL     OW  928   0.598   2.591   0.270
  306SOL    HW1  929   0.622   2.660   0.202
  306SOL    HW2  930   0.520   2.624   0.324
  307SOL     OW  931   1.281   2.207   0.944
  307SOL    HW1  932   1.195   2.157   0.931
  307SOL    HW2  933   1.343   2.153   1.000
  308SOL     OW  934   0.807   2.467   1.465
  308SOL    HW1  935   0.760   2.464   1.554
  308SOL    HW2  936   0.756   2.412   1.399
  309SOL     OW  937   1.394   2.331   1.674
  309SOL    HW1  938   1.374   2.374   1.762
  309SOL    HW2  939   1.472   2.269   1.683
  310SOL     OW  940   0.991   2.272   1.242
  310SOL    HW1  941   0.914   2.306   1.296
  310SOL    HW2  942   0.957   2.221   1.163
  311SOL     OW  943   1.041   2.563   0.429
  311SOL    HW1  944   1.067   2.559   0.525
  311SOL    HW2  945   0.956   2.512   0.415
  312SOL     OW  946   0.076   2.673   0.789
  312SOL    HW1  947   0.175   2.661   0.798
  312SOL    HW2  948   0.052   2.768   0.810
  313SOL     OW  949   0.865   2.210   0.195
  313SOL    HW1  950   0.924   2.273   0.146
  313SOL    HW2  951   0.884   2.116   0.166
  314SOL     OW  952   1.719   2.447   1.831
  314SOL    HW1  953   1.693   2.536   1.795
  314SOL    HW2  954   1.717   2.379   1.758
  315SOL     OW  955   0.550   2.058   0.885
  315SOL    HW1  956   0.545   2.053   0.985
  315SOL    HW2  957   0.552   2.154   0.856
  316SOL     OW  958   1.458   2.597   0.728
  316SOL    HW1  959   1.453   2.532   0.803
  316SOL    HW2  960   1.538   2.656   0.741
  317SOL     OW  961   0.202   2.147   1.498
  317SOL    HW1  962   0.122   2.207   1.485
  317SOL    HW2  963   0.192   2.098   1.584
  318SOL     OW  964   1.400   1.969   0.426
  318SOL    HW1  965   1.376   1.932   0.336
  318SOL    HW2  966   1.499   1.985   0.430
  319SOL     OW  967   0.382   2.562   0.480
  319SOL    HW1  968   0.427   2.472   0.477
  319SOL    HW2  969   0.288   2.551   0.513
  320SOL     OW  970   1.547   2.084   1.729
  320SOL    HW1  971   1.542   2.121   1.821
  320SOL    HW2  972   1.475   2.015   1.717
  321SOL     OW  973   0.781   2.126   1.749
  321SOL    HW1  974   0.848   2.065   1.792
  321SOL    HW2  975   0.708   2.145   1.814
  322SOL     OW  976   1.351   2.452   1.433
  322SOL    HW1  977   1.379   2.409   1.518
  322SOL    HW2  978   1.376   2.548   1.434
  323SOL     OW  979   0.922   2.365   0.899
  323SOL    HW1  980   0.897   2.356   0.803
  323SOL    HW2  981   0.970   2.283   0.930
  324SOL     OW  982   0.539   1.926   0.512
  324SOL    HW1  983   0.458   1.927   0.570
  324SOL    HW2  984   0.542   2.009   0.457
  325SOL     OW  985   0.935   2.098   0.480
  325SOL    HW1  986   0.887   2.139   0.402
  325SOL    HW2  987   1.034   2.096   0.461
  326SOL     OW  988   1.076   2.545   1.464
  326SOL    HW1  989   0.996   2.484   1.467
  326SOL    HW2  990   1.157   2.492   1.440
  327SOL     OW  991   1.032   2.411   0.016
  327SOL    HW1  992   0.991   2.493  -0.023
  327SOL    HW2  993   1.096   2.437   0.089
  328SOL     OW  994   0.078   2.418   1.386
  328SOL    HW1  995   0.170   2.417   1.345
  328SOL    HW2  996   0.072   2.492   1.453
  329SOL     OW  997   0.561   2.084   1.147
  329SOL    HW1  998   0.599   2.000   1.184
  329SOL    HW2  999   0.473   2.103   1.191
  330SOL     OW 1000   0.866   2.316   0.642
  330SOL    HW1 1001   0.834   2.388   0.580
  330SOL    HW2 1002   0.890   2.235   0.589
  331SOL     OW 1003   1.017   1.901   0.753
  331SOL    HW1 1004   0.945   1.906   0.684
  331SOL    HW2 1005   0.993   1.832   0.822
  332SOL     OW 1006   1.466   2.452   0.992
  332SOL    HW1 1007   1.436   2.357   0.999
  332SOL    HW2 1008   1.539   2.468   1.058
  333SOL     OW 1009   1.390   2.437   0.078
  333SOL    HW1 1010   1.336   2.416   0.159
  333SOL    HW2 1011   1.481   2.396   0.087
  334SOL     OW 1012   0.527   2.118   0.328
  334SOL    HW1 1013   0.554   2.059   0.253
  334SOL    HW2 1014   0.527   2.213   0.297
  335SOL     OW 1015   0.915   1.951   1.402
  335SOL    HW1 1016   0.940   1.931   1.307
  335SOL    HW2 1017   0.987   2.007   1.444
  336SOL     OW 1018   0.705   2.912   0.368
  336SOL    HW1 1019   0.691   2.919   0.467
  336SOL    HW2 1020   0.789   2.861   0.350
  337SOL     OW 1021   0.410   2.675   1.251
  337SOL    HW1 1022   0.496   2.687   1.301
  337SOL    HW2 1023   0.368   2.588   1.278
  338SOL     OW 1024   1.274   2.248   1.262
  338SOL    HW1 1025   1.295   2.322   1.326
  338SOL    HW2 1026   1.185   2.265   1.219
  339SOL     OW 1027   0.566   2.399   0.865
  339SOL    HW1 1028   0.578   2.465   0.791
  339SOL    HW2 1029   0.612   2.433   0.948
  340SOL     OW 1030   1.582   2.501   0.472
  340SOL    HW1 1031   1.551   2.562   0.545
  340SOL    HW2 1032   1.632   2.553   0.403
  341SOL     OW 1033   1.587   2.641   1.670
  341SOL    HW1 1034   1.495   2.679   1.665
  341SOL    HW2 1035   1.647   2.688   1.605
  342SOL     OW 1036   1.013   1.967   1.770
  342SOL    HW1 1037   1.019   2.052   1.718
  342SOL    HW2 1038   1.045   1.891   1.713
  343SOL     OW 1039   0.504   1.912   1.740
  343SOL    HW1 1040   0.462   1.855   1.670
  343SOL    HW2 1041   0.438   1.981   1.772
  344SOL     OW 1042   1.360   2.724   1.045
  344SOL    HW1 1043   1.285   2.724   0.979
  344SOL    HW2 1044   1.397   2.632   1.054
  345SOL     OW 1045   1.209   2.387   0.275
  345SOL    HW1 1046   1.222   2.303   0.329
  345SOL    HW2 1047   1.180   2.461   0.335
  346SOL     OW 1048   0.307   2.075   1.231
  346SOL    HW1 1049   0.284   2.112   1.321
  346SOL    HW2 1050   0.277   1.980   1.225
  347SOL     OW 1051   0.732   2.496   1.064
  347SOL    HW1 1052   0.791   2.470   0.988
  347SOL    HW2 1053   0.704   2.592   1.053
  348SOL     OW 1054   1.728   2.797   1.854
  348SOL    HW1 1055   1.682   2.790   1.765
  348SOL    HW2 1056   1.666   2.841   1.920
  349SOL     OW 1057   0.307   1.925   0.618
  349SOL    HW1 1058   0.296   2.019   0.651
  349SOL    HW2 1059   0.302   1.862   0.695
  350SOL     OW 1060   1.622   2.229   0.374
  350SOL    HW1 1061   1.624   2.153   0.438
  350SOL    HW2 1062   1.574   2.306   0.414
  351SOL     OW 1063   1.540   2.136   0.125
  351SOL    HW1 1064   1.479   2.061   0.148
  351SOL    HW2 1065   1.562   2.188   0.208
  352SOL     OW 1066   0.319   2.672   0.949
  352SOL    HW1 1067   0.412   2.708   0.954
  352SOL    HW2 1068   0.313   2.587   1.001
  353SOL     OW 1069   0.339   2.371   1.006
  353SOL    HW1 1070   0.287   2.288   0.989
  353SOL    HW2 1071   0.416   2.376   0.942
  354SOL     OW 1072   1.138   2.242   1.678
  354SOL    HW1 1073   1.093   2.305   1.742
  354SOL    HW2 1074   1.231   2.273   1.661
  355SOL     OW 1075   1.160   2.069   1.477
  355SOL    HW1 1076   1.160   2.133   1.554
  355SOL    HW2 1077   1.188   2.117   1.394
  356SOL     OW 1078   0.040   2.406   1.114
  356SOL    HW1 1079   0.125   2.373   1.073
  356SOL    HW2 1080   0.053   2.421   1.212
  357SOL     OW 1081   0.189   2.382   1.722
  357SOL    HW1 1082   0.248   2.342   1.652
  357SOL    HW2 1083   0.131   2.453   1.681
  358SOL     OW 1084   0.815   2.434   0.325
  358SOL    HW1 1085   0.822   2.345   0.279
  358SOL    HW2 1086   0.721   2.468   0.317
  359SOL     OW 1087   1.657   2.466   1.206
  359SOL    HW1 1088   1.619   2.397   1.268
  359SOL    HW2 1089   1.739   2.430   1.162
  360SOL     OW 1090   0.671   2.326   1.269
  360SOL    HW1 1091   0.637   2.237   1.239
  360SOL    HW2 1092   0.697   2.380   1.189
  361SOL     OW 1093   0.473   2.362   0.191
  361SOL    HW1 1094   0.534   2.442   0.195
  361SOL    HW2 1095   0.378   2.393   0.198
  362SOL     OW 1096   0.903   1.948   0.133
  362SOL    HW1 1097   0.954   1.949   0.047
  362SOL    HW2 1098   0.959   1.906   0.204
  363SOL     OW 1099   1.726   1.997   0.523
  363SOL    HW1 1100   1.799   1.980   0.456
  363SOL    HW2 1101   1.695   1.910   0.561
  364SOL     OW 1102   1.280   2.789   0.672
  364SOL    HW1 1103   1.340   2.708   0.674
  364SOL    HW2 1104   1.320   2.858   0.612
  365SOL     OW 1105   1.841   2.037   0.963
  365SOL    HW1 1106   1.880   1.952   0.927
  365SOL    HW2 1107   1.743   2.039   0.944
  366SOL     OW 1108   0.263   2.188   0.720
  366SOL    HW1 1109   0.184   2.239   0.686
  366SOL    HW2 1110   0.254   2.173   0.818
  367SOL     OW 1111   1.039   2.960   0.696
  367SOL    HW1 1112   0.969   2.913   0.750
  367SOL    HW2 1113   1.098   2.892   0.653
  368SOL     OW 1114   1.014   2.098   0.971
  368SOL    HW1 1115   1.006   2.062   0.878
  368SOL    HW2 1116   1.012   2.022   1.036
  369SOL     OW 1117   1.709   2.247   1.381
  369SOL    HW1 1118   1.782   2.316   1.385
  369SOL    HW2 1119   1.737   2.172   1.322
  370SOL     OW 1120   0.672   2.065   1.489
  370SOL    HW1 1121   0.762   2.049   1.449
  370SOL    HW2 1122   0.680   2.070   1.588
  371SOL     OW 1123   0.075   2.207   0.033
  371SOL    HW1 1124  -0.017   2.179   0.004
  371SOL    HW2 1125   0.106   2.284  -0.023
  372SOL     OW 1126   0.072   2.028   0.318
  372SOL    HW1 1127   0.055   2.111   0.264
  372SOL    HW2 1128   0.162   1.991   0.296
  373SOL     OW 1129   0.716   2.427   1.708
  373SOL    HW1 1130   0.735   2.492   1.782
  373SOL    HW2 1131   0.776   2.347   1.717
  374SOL     OW 1132   1.225   2.187   0.449
  374SOL    HW1 1133   1.290   2.113   0.438
  374SOL    HW2 1134   1.245   2.237   0.533
  375SOL     OW 1135   0.594   2.607   0.652
  375SOL    HW1 1136   0.644   2.692   0.633
  375SOL    HW2 1137   0.506   2.609   0.604
  376SOL     OW 1138   1.777   2.204   1.642
  376SOL    HW1 1139   1.760   2.235   1.548
  376SOL    HW2 1140   1.693   2.167   1.680
  377SOL     OW 1141   0.859   2.818   0.861
  377SOL    HW1 1142   0.913   2.749   0.909
  377SOL    HW2 1143   0.827   2.887   0.927
  378SOL     OW 1144   1.083   2.846   0.087
  378SOL    HW1 1145   1.060   2.899   0.005
  378SOL    HW2 1146   1.164   2.790   0.068
  379SOL     OW 1147   1.824   2.054   1.227
  379SOL    HW1 1148   1.820   1.964   1.271
  379SOL    HW2 1149   1.827   2.043   1.128
  380SOL     OW 1150   0.428   2.286   0.520
  380SOL    HW1 1151   0.458   2.214   0.458
  380SOL    HW2 1152   0.389   2.246   0.603
  381SOL     OW 1153   0.317   2.409   1.280
  381SOL    HW1 1154   0.355   2.350   1.352
  381SOL    HW2 1155   0.357   2.383   1.192
  382SOL     OW 1156   1.424   2.076   1.112
  382SOL    HW1 1157   1.476   2.011   1.167
  382SOL    HW2 1158   1.375   2.139   1.173
  383SOL     OW 1159   1.001   1.896   1.154
  383SOL    HW1 1160   0.938   1.824   1.123
  383SOL    HW2 1161   1.094   1.860   1.154
  384SOL     OW 1162   1.352   1.914   0.168
  384SOL    HW1 1163   1.387   1.873   0.084
  384SOL    HW2 1164   1.262   1.876   0.188
  385SOL     OW 1165   1.300   2.315   0.691
  385SOL    HW1 1166   1.241   2.395   0.695
  385SOL    HW2 1167   1.315   2.280   0.784
  386SOL     OW 1168   1.593   2.083   0.882
  386SOL    HW1 1169   1.509   2.082   0.936
  386SOL    HW2 1170   1.595   2.166   0.826
  387SOL     OW 1171   0.230   2.490   1.975
  387SOL    HW1 1172   0.137   2.488   2.012
  387SOL    HW2 1173   0.231   2.451   1.883
  388SOL     OW 1174   0.019   2.230   2.509
  388SOL    HW1 1175  -0.063   2.273   2.548
  388SOL    HW2 1176  -0.009   2.157   2.446
  389SOL     OW 1177   1.755   2.469   2.093
  389SOL    HW1 1178   1.743   2.456   1.994
  389SOL    HW2 1179   1.725   2.388   2.142
  390SOL     OW 1180   0.685   2.874   2.527
  390SOL    HW1 1181   0.754   2.858   2.597
  390SOL    HW2 1182   0.612   2.931   2.565
  391SOL     OW 1183   1.603   2.309   2.599
  391SOL    HW1 1184   1.529   2.355   2.549
  391SOL    HW2 1185   1.654   2.377   2.652
  392SOL     OW 1186   0.122   2.505   2.425
  392SOL    HW1 1187   0.077   2.417   2.442
  392SOL    HW2 1188   0.121   2.559   2.509
  393SOL     OW 1189   0.809   1.866   2.364
  393SOL    HW1 1190   0.849   1.957   2.355
  393SOL    HW2 1191   0.709   1.874   2.370
  394SOL     OW 1192   0.598   2.591   2.132
  394SOL    HW1 1193   0.622   2.660   2.064
  394SOL    HW2 1194   0.520   2.624   2.186
  395SOL     OW 1195   1.281   2.207   2.806
  395SOL    HW1 1196   1.195   2.157   2.793
  395SOL    HW2 1197   1.343   2.153   2.862
  396SOL     OW 1198   1.041   2.563   2.291
  396SOL    HW1 1199   1.067   2.559   2.387
  396SOL    HW2 1200   0.956   2.512   2.277
  397SOL     OW 1201   0.076   2.673   2.651
  397SOL    HW1 1202   0.175   2.661   2.660
  397SOL    HW2 1203   0.052   2.768   2.672
  398SOL     OW 1204   0.865   2.210   2.057
  398SOL    HW1 1205   0.924   2.273   2.008
  398SOL    HW2 1206   0.884   2.116   2.028
  399SOL     OW 1207   1.400   1.969   2.288
  399SOL    HW1 1208   1.376   1.932   2.198
  399SOL    HW2 1209   1.499   1.985   2.292
  400SOL     OW 1210   0.382   2.562   2.342
  400SOL    HW1 1211   0.427   2.472   2.339
  400SOL    HW2 1212   0.288   2.551   2.375
  401SOL     OW 1213   0.614   1.984   1.979
  401SOL    HW1 1214   0.712   1.962   1.986
  401SOL    HW2 1215   0.583   1.967   1.886
  402SOL     OW 1216   0.539   1.926   2.374
  402SOL    HW1 1217   0.458   1.927   2.432
  402SOL    HW2 1218   0.542   2.009   2.319
  403SOL     OW 1219   0.297   1.897   2.033
  403SOL    HW1 1220   0.346   1.981   2.012
  403SOL    HW2 1221   0.359   1.832   2.078
  404SOL     OW 1222   0.935   2.098   2.342
  404SOL    HW1 1223   0.887   2.139   2.264
  404SOL    HW2 1224   1.034   2.096   2.323
  405SOL     OW 1225   1.032   2.411   1.878
  405SOL    HW1 1226   0.991   2.493   1.839
  405SOL    HW2 1227   1.096   2.437   1.951
  406SOL     OW 1228   0.866   2.316   2.504
  406SOL    HW1 1229   0.834   2.388   2.442
  406SOL    HW2 1230   0.890   2.235   2.451
  407SOL     OW 1231   1.390   2.437   1.940
  407SOL    HW1 1232   1.336   2.416   2.021
  407SOL    HW2 1233   1.481   2.396   1.949
  408SOL     OW 1234   0.527   2.118   2.190
  408SOL    HW1 1235   0.554   2.059   2.115
  408SOL    HW2 1236   0.527   2.213   2.159
  409SOL     OW 1237   0.705   2.912   2.230
  409SOL    HW1 1238   0.691   2.919   2.329
  409SOL    HW2 1239   0.789   2.861   2.212
  410SOL     OW 1240   1.582   2.501   2.334
  410SOL    HW1 1241   1.551   2.562   2.407
  410SOL    HW2 1242   1.632   2.553   2.265
  411SOL     OW 1243   1.209   2.387   2.137
  411SOL    HW1 1244   1.222   2.303   2.191
  411SOL    HW2 1245   1.180   2.461   2.197
  412SOL     OW 1246   0.307   1.925   2.480
  412SOL    HW1 1247   0.296   2.019   2.513
  412SOL    HW2 1248   0.302   1.862   2.557
  413SOL     OW 1249   1.622   2.229   2.236
  413SOL    HW1 1250   1.624   2.153   2.300
  413SOL    HW2 1251   1.574   2.306   2.276
  414SOL     OW 1252   1.540   2.136   1.987
  414SOL    HW1 1253   1.479   2.061   2.010
  414SOL    HW2 1254   1.562   2.188   2.070
  415SOL     OW 1255   0.815   2.434   2.187
  415SOL    HW1 1256   0.822   2.345   2.141
  415SOL    HW2 1257   0.721   2.468   2.179
  416SOL     OW 1258   0.473   2.362   2.053
  416SOL    HW1 1259   0.534   2.442   2.057
  416SOL    HW2 1260   0.378   2.393   2.060
  417SOL     OW 1261   1.726   1.997   2.385
  417SOL    HW1 1262   1.799   1.980   2.318
  417SOL    HW2 1263   1.695   1.910   2.423
  418SOL     OW 1264   1.280   2.789   2.534
  418SOL    HW1 1265   1.340   2.708   2.536
  418SOL    HW2 1266   1.320   2.858   2.474
  419SOL     OW 1267   0.916   2.772   2.153
  419SOL    HW1 1268   0.979   2.810   2.085
  419SOL    HW2 1269   0.956   2.689   2.192
  420SOL     OW 1270   0.075   2.207   1.895
  420SOL    HW1 1271  -0.017   2.179   1.866
  420SOL    HW2 1272   0.106   2.284   1.839
  421SOL     OW 1273   0.072   2.028   2.180
  421SOL    HW1 1274   0.055   2.111   2.126
  421SOL    HW2 1275   0.162   1.991   2.158
  422SOL     OW 1276   1.225   2.187   2.311
  422SOL    HW1 1277   1.290   2.113   2.300
  422SOL    HW2 1278   1.245   2.237   2.395
  423SOL     OW 1279   0.594   2.607   2.514
  423SOL    HW1 1280   0.644   2.692   2.495
  423SOL    HW2 1281   0.506   2.609   2.466
  424SOL     OW 1282   1.083   2.846   1.949
  424SOL    HW1 1283   1.060   2.899   1.867
  424SOL    HW2 1284   1.164   2.790   1.930
  425SOL     OW 1285   0.428   2.286   2.382
  425SOL    HW1 1286   0.458   2.214   2.320
  425SOL    HW2 1287   0.389   2.246   2.465
  426SOL     OW 1288   1.352   1.914   2.030
  426SOL    HW1 1289   1.387   1.873   1.946
  426SOL    HW2 1290   1.262   1.876   2.050
  427SOL     OW 1291   1.300   2.315   2.553
  427SOL    HW1 1292   1.241   2.395   2.557
  427SOL    HW2 1293   1.315   2.280   2.646
  428SOL     OW 1294   2.092   0.628   0.113
  428SOL    HW1 1295   1.999   0.626   0.150
  428SOL    HW2 1296   2.093   0.589   0.021
  429SOL     OW 1297   2.087   0.275   0.996
  429SOL    HW1 1298   2.122   0.258   1.088
  429SOL    HW2 1299   1.999   0.230   0.984
  430SOL     OW 1300   1.881   0.368   0.647
  430SOL    HW1 1301   1.799   0.411   0.686
  430SOL    HW2 1302   1.853   0.295   0.584
  431SOL     OW 1303   2.431   1.275   1.165
  431SOL    HW1 1304   2.338   1.268   1.128
  431SOL    HW2 1305   2.442   1.364   1.209
  432SOL     OW 1306   2.712   0.798   1.823
  432SOL    HW1 1307   2.708   0.874   1.888
  432SOL    HW2 1308   2.734   0.834   1.732
  433SOL     OW 1309   2.547   1.012   0.665
  433SOL    HW1 1310   2.616   0.996   0.735
  433SOL    HW2 1311   2.474   1.069   0.703
  434SOL     OW 1312   2.548   1.161   1.803
  434SOL    HW1 1313   2.608   1.240   1.817
  434SOL    HW2 1314   2.462   1.192   1.762
  435SOL     OW 1315   2.197   1.435   1.061
  435SOL    HW1 1316   2.119   1.404   1.008
  435SOL    HW2 1317   2.255   1.493   1.004
  436SOL     OW 1318   2.300   0.392   1.499
  436SOL    HW1 1319   2.382   0.336   1.508
  436SOL    HW2 1320   2.219   0.334   1.503
  437SOL     OW 1321   2.093   1.713   0.483
  437SOL    HW1 1322   2.127   1.790   0.537
  437SOL    HW2 1323   2.137   1.713   0.393
  438SOL     OW 1324   2.092   1.434   0.538
  438SOL    HW1 1325   2.066   1.530   0.538
  438SOL    HW2 1326   2.021   1.380   0.583
  439SOL     OW 1327   2.102   1.091   0.886
  439SOL    HW1 1328   2.116   1.007   0.938
  439SOL    HW2 1329   2.047   1.155   0.941
  440SOL     OW 1330   2.482   1.786   1.439
  440SOL    HW1 1331   2.390   1.769   1.474
  440SOL    HW2 1332   2.510   1.878   1.465
  441SOL     OW 1333   2.468   0.964   0.123
  441SOL    HW1 1334   2.475   1.048   0.069
  441SOL    HW2 1335   2.514   0.977   0.211
  442SOL     OW 1336   1.984   0.643   0.563
  442SOL    HW1 1337   1.939   0.555   0.580
  442SOL    HW2 1338   1.983   0.697   0.647
  443SOL     OW 1339   1.889   1.596   0.117
  443SOL    HW1 1340   1.870   1.500   0.138
  443SOL    HW2 1341   1.856   1.654   0.192
  444SOL     OW 1342   1.975   0.737   1.597
  444SOL    HW1 1343   2.063   0.724   1.642
  444SOL    HW2 1344   1.962   0.834   1.575
  445SOL     OW 1345   2.475   1.365   0.726
  445SOL    HW1 1346   2.426   1.278   0.735
  445SOL    HW2 1347   2.452   1.408   0.639
  446SOL     OW 1348   2.671   0.004   0.502
  446SOL    HW1 1349   2.711   0.095   0.493
  446SOL    HW2 1350   2.571   0.012   0.508
  447SOL     OW 1351   2.059   0.976   1.264
  447SOL    HW1 1352   2.148   0.931   1.250
  447SOL    HW2 1353   1.986   0.911   1.245
  448SOL     OW 1354   2.179   0.251   1.801
  448SOL    HW1 1355   2.250   0.322   1.807
  448SOL    HW2 1356   2.091   0.290   1.829
  449SOL     OW 1357   2.460   0.729   0.270
  449SOL    HW1 1358   2.484   0.798   0.202
  449SOL    HW2 1359   2.382   0.762   0.324
  450SOL     OW 1360   1.938   0.811   0.789
  450SOL    HW1 1361   2.037   0.799   0.798
  450SOL    HW2 1362   1.914   0.906   0.810
  451SOL     OW 1363   1.992   1.821   1.571
  451SOL    HW1 1364   1.982   1.806   1.670
  451SOL    HW2 1365   1.906   1.857   1.535
  452SOL     OW 1366   2.412   0.196   0.885
  452SOL    HW1 1367   2.407   0.191   0.985
  452SOL    HW2 1368   2.414   0.292   0.856
  453SOL     OW 1369   2.213   1.801   0.853
  453SOL    HW1 1370   2.263   1.715   0.859
  453SOL    HW2 1371   2.278   1.878   0.850
  454SOL     OW 1372   2.183   0.943   0.242
  454SOL    HW1 1373   2.265   0.982   0.200
  454SOL    HW2 1374   2.156   0.861   0.193
  455SOL     OW 1375   2.323   1.266   1.727
  455SOL    HW1 1376   2.273   1.267   1.641
  455SOL    HW2 1377   2.260   1.248   1.803
  456SOL     OW 1378   2.064   0.285   1.498
  456SOL    HW1 1379   1.984   0.345   1.485
  456SOL    HW2 1380   2.054   0.236   1.584
  457SOL     OW 1381   2.326   1.743   0.323
  457SOL    HW1 1382   2.359   1.782   0.409
  457SOL    HW2 1383   2.402   1.736   0.258
  458SOL     OW 1384   2.111   1.785   1.241
  458SOL    HW1 1385   2.168   1.720   1.291
  458SOL    HW2 1386   2.095   1.752   1.148
  459SOL     OW 1387   2.244   0.700   0.480
  459SOL    HW1 1388   2.289   0.610   0.477
  459SOL    HW2 1389   2.150   0.689   0.513
  460SOL     OW 1390   2.476   0.122   0.117
  460SOL    HW1 1391   2.574   0.100   0.124
  460SOL    HW2 1392   2.445   0.105   0.024
  461SOL     OW 1393   2.665   1.402   0.924
  461SOL    HW1 1394   2.755   1.416   0.882
  461SOL    HW2 1395   2.594   1.404   0.853
  462SOL     OW 1396   2.401   0.064   0.512
  462SOL    HW1 1397   2.320   0.065   0.570
  462SOL    HW2 1398   2.404   0.147   0.457
  463SOL     OW 1399   2.159   0.035   0.171
  463SOL    HW1 1400   2.208   0.119   0.150
  463SOL    HW2 1401   2.221  -0.030   0.216
  464SOL     OW 1402   2.321   1.152   0.741
  464SOL    HW1 1403   2.250   1.125   0.806
  464SOL    HW2 1404   2.295   1.124   0.648
  465SOL     OW 1405   1.940   0.556   1.386
  465SOL    HW1 1406   2.032   0.555   1.345
  465SOL    HW2 1407   1.934   0.630   1.453
  466SOL     OW 1408   2.423   0.222   1.147
  466SOL    HW1 1409   2.461   0.138   1.184
  466SOL    HW2 1410   2.335   0.241   1.191
  467SOL     OW 1411   2.350   1.385   0.174
  467SOL    HW1 1412   2.263   1.370   0.221
  467SOL    HW2 1413   2.333   1.411   0.079
  468SOL     OW 1414   2.389   0.256   0.328
  468SOL    HW1 1415   2.416   0.197   0.253
  468SOL    HW2 1416   2.389   0.351   0.297
  469SOL     OW 1417   2.272   0.813   1.251
  469SOL    HW1 1418   2.358   0.825   1.301
  469SOL    HW2 1419   2.230   0.726   1.278
  470SOL     OW 1420   1.926   1.564   1.331
  470SOL    HW1 1421   1.880   1.646   1.297
  470SOL    HW2 1422   2.024   1.583   1.340
  471SOL     OW 1423   2.229   1.100   0.501
  471SOL    HW1 1424   2.222   1.183   0.445
  471SOL    HW2 1425   2.233   1.020   0.441
  472SOL     OW 1426   2.428   0.537   0.865
  472SOL    HW1 1427   2.440   0.603   0.791
  472SOL    HW2 1428   2.474   0.571   0.948
  473SOL     OW 1429   2.216   1.510   1.329
  473SOL    HW1 1430   2.195   1.466   1.242
  473SOL    HW2 1431   2.313   1.536   1.332
  474SOL     OW 1432   2.264   0.751   1.598
  474SOL    HW1 1433   2.332   0.806   1.551
  474SOL    HW2 1434   2.304   0.663   1.625
  475SOL     OW 1435   2.366   0.050   1.740
  475SOL    HW1 1436   2.324  -0.007   1.670
  475SOL    HW2 1437   2.300   0.119   1.772
  476SOL     OW 1438   2.435   0.870   1.029
  476SOL    HW1 1439   2.479   0.959   1.020
  476SOL    HW2 1440   2.372   0.870   1.106
  477SOL     OW 1441   2.169   0.213   1.231
  477SOL    HW1 1442   2.146   0.250   1.321
  477SOL    HW2 1443   2.139   0.118   1.225
  478SOL     OW 1444   1.899   1.310   1.282
  478SOL    HW1 1445   1.952   1.261   1.350
  478SOL    HW2 1446   1.921   1.408   1.287
  479SOL     OW 1447   2.169   0.063   0.618
  479SOL    HW1 1448   2.158   0.157   0.651
  479SOL    HW2 1449   2.164   0.000   0.695
  480SOL     OW 1450   2.212   0.898   1.804
  480SOL    HW1 1451   2.288   0.942   1.852
  480SOL    HW2 1452   2.247   0.851   1.722
  481SOL     OW 1453   2.181   0.810   0.949
  481SOL    HW1 1454   2.274   0.846   0.954
  481SOL    HW2 1455   2.175   0.725   1.001
  482SOL     OW 1456   2.201   0.509   1.006
  482SOL    HW1 1457   2.149   0.426   0.989
  482SOL    HW2 1458   2.278   0.514   0.942
  483SOL     OW 1459   1.870   1.326   0.200
  483SOL    HW1 1460   1.777   1.347   0.169
  483SOL    HW2 1461   1.880   1.227   0.213
  484SOL     OW 1462   1.950   1.801   0.927
  484SOL    HW1 1463   1.908   1.715   0.900
  484SOL    HW2 1464   2.044   1.804   0.893
  485SOL     OW 1465   2.366   1.568   0.910
  485SOL    HW1 1466   2.432   1.642   0.919
  485SOL    HW2 1467   2.410   1.489   0.868
  486SOL     OW 1468   1.902   0.544   1.114
  486SOL    HW1 1469   1.987   0.511   1.073
  486SOL    HW2 1470   1.915   0.559   1.212
  487SOL     OW 1471   2.051   0.520   1.722
  487SOL    HW1 1472   2.110   0.480   1.652
  487SOL    HW2 1473   1.993   0.591   1.681
  488SOL     OW 1474   2.677   0.572   0.325
  488SOL    HW1 1475   2.684   0.483   0.279
  488SOL    HW2 1476   2.583   0.606   0.317
  489SOL     OW 1477   2.114   1.564   1.744
  489SOL    HW1 1478   2.084   1.621   1.820
  489SOL    HW2 1479   2.107   1.467   1.770
  490SOL     OW 1480   2.533   0.464   1.269
  490SOL    HW1 1481   2.499   0.375   1.239
  490SOL    HW2 1482   2.559   0.518   1.189
  491SOL     OW 1483   2.335   0.500   0.191
  491SOL    HW1 1484   2.396   0.580   0.195
  491SOL    HW2 1485   2.240   0.531   0.198
  492SOL     OW 1486   2.021   1.137   1.466
  492SOL    HW1 1487   2.043   1.076   1.542
  492SOL    HW2 1488   2.031   1.088   1.380
  493SOL     OW 1489   1.945   1.258   1.022
  493SOL    HW1 1490   1.940   1.257   1.122
  493SOL    HW2 1491   1.862   1.217   0.984
  494SOL     OW 1492   2.550   1.662   1.716
  494SOL    HW1 1493   2.494   1.743   1.725
  494SOL    HW2 1494   2.602   1.666   1.630
  495SOL     OW 1495   1.992   1.794   1.851
  495SOL    HW1 1496   1.951   1.720   1.904
  495SOL    HW2 1497   2.056   1.845   1.909
  496SOL     OW 1498   2.125   0.326   0.720
  496SOL    HW1 1499   2.046   0.377   0.686
  496SOL    HW2 1500   2.116   0.311   0.818
  497SOL     OW 1501   2.234   1.288   1.490
  497SOL    HW1 1502   2.221   1.381   1.456
  497SOL    HW2 1503   2.150   1.236   1.477
  498SOL     OW 1504   2.901   1.098   0.696
  498SOL    HW1 1505   2.831   1.051   0.750
  498SOL    HW2 1506   2.960   1.030   0.653
  499SOL     OW 1507   2.452   1.487   0.491
  499SOL    HW1 1508   2.494   1.429   0.421
  499SOL    HW2 1509   2.408   1.566   0.447
  500SOL     OW 1510   2.117   1.348   0.290
  500SOL    HW1 1511   2.021   1.349   0.263
  500SOL    HW2 1512   2.129   1.401   0.374
  501SOL     OW 1513   1.967   1.013   1.726
  501SOL    HW1 1514   1.890   0.980   1.780
  501SOL    HW2 1515   2.052   0.983   1.768
  502SOL     OW 1516   2.534   0.203   1.489
  502SOL    HW1 1517   2.624   0.187   1.449
  502SOL    HW2 1518   2.542   0.208   1.588
  503SOL     OW 1519   1.937   0.345   0.033
  503SOL    HW1 1520   1.845   0.317   0.004
  503SOL    HW2 1521   1.968   0.422  -0.023
  504SOL     OW 1522   1.934   0.166   0.318
  504SOL    HW1 1523   1.917   0.249   0.264
  504SOL    HW2 1524   2.024   0.129   0.296
  505SOL     OW 1525   2.475   0.842   1.431
  505SOL    HW1 1526   2.531   0.923   1.414
  505SOL    HW2 1527   2.534   0.762   1.434
  506SOL     OW 1528   2.578   0.565   1.708
  506SOL    HW1 1529   2.597   0.630   1.782
  506SOL    HW2 1530   2.638   0.485   1.717
  507SOL     OW 1531   2.252   1.741   1.560
  507SOL    HW1 1532   2.161   1.782   1.558
  507SOL    HW2 1533   2.245   1.647   1.592
  508SOL     OW 1534   2.456   0.745   0.652
  508SOL    HW1 1535   2.506   0.830   0.633
  508SOL    HW2 1536   2.368   0.747   0.604
  509SOL     OW 1537   2.083   1.314   1.844
  509SOL    HW1 1538   2.018   1.241   1.823
  509SOL    HW2 1539   2.087   1.328   1.942
  510SOL     OW 1540   1.941   1.240   0.653
  510SOL    HW1 1541   1.940   1.193   0.741
  510SOL    HW2 1542   2.023   1.212   0.602
  511SOL     OW 1543   2.534   1.391   1.624
  511SOL    HW1 1544   2.456   1.341   1.662
  511SOL    HW2 1545   2.531   1.486   1.655
  512SOL     OW 1546   2.290   0.424   0.520
  512SOL    HW1 1547   2.320   0.352   0.458
  512SOL    HW2 1548   2.251   0.384   0.603
  513SOL     OW 1549   2.179   0.547   1.280
  513SOL    HW1 1550   2.217   0.488   1.352
  513SOL    HW2 1551   2.219   0.521   1.192
  514SOL     OW 1552   2.674   1.586   0.687
  514SOL    HW1 1553   2.706   1.596   0.593
  514SOL    HW2 1554   2.595   1.524   0.689
  515SOL     OW 1555   2.480   1.567   1.284
  515SOL    HW1 1556   2.475   1.649   1.341
  515SOL    HW2 1557   2.569   1.564   1.239
  516SOL     OW 1558   1.901   1.077   0.300
  516SOL    HW1 1559   2.000   1.066   0.291
  516SOL    HW2 1560   1.861   0.991   0.332
  517SOL     OW 1561   2.092   0.628   1.975
  517SOL    HW1 1562   1.999   0.626   2.012
  517SOL    HW2 1563   2.093   0.589   1.883
  518SOL     OW 1564   1.881   0.368   2.509
  518SOL    HW1 1565   1.799   0.411   2.548
  518SOL    HW2 1566   1.853   0.295   2.446
  519SOL     OW 1567   2.547   1.012   2.527
  519SOL    HW1 1568   2.616   0.996   2.597
  519SOL    HW2 1569   2.474   1.069   2.565
  520SOL     OW 1570   2.093   1.713   2.345
  520SOL    HW1 1571   2.127   1.790   2.399
  520SOL    HW2 1572   2.137   1.713   2.255
  521SOL     OW 1573   2.092   1.434   2.400
  521SOL    HW1 1574   2.066   1.530   2.400
  521SOL    HW2 1575   2.021   1.380   2.445
  522SOL     OW 1576   2.468   0.964   1.985
  522SOL    HW1 1577   2.475   1.048   1.931
  522SOL    HW2 1578   2.514   0.977   2.073
  523SOL     OW 1579   1.984   0.643   2.425
  523SOL    HW1 1580   1.939   0.555   2.442
  523SOL    HW2 1581   1.983   0.697   2.509
  524SOL     OW 1582   1.889   1.596   1.979
  524SOL    HW1 1583   1.870   1.500   2.000
  524SOL    HW2 1584   1.856   1.654   2.054
  525SOL     OW 1585   2.475   1.365   2.588
  525SOL    HW1 1586   2.426   1.278   2.597
  525SOL    HW2 1587   2.452   1.408   2.501
  526SOL     OW 1588   2.671   0.004   2.364
  526SOL    HW1 1589   2.711   0.095   2.355
  526SOL    HW2 1590   2.571   0.012   2.370
  527SOL     OW 1591   2.460   0.729   2.132
  527SOL    HW1 1592   2.484   0.798   2.064
  527SOL    HW2 1593   2.382   0.762   2.186
  528SOL     OW 1594   1.938   0.811   2.651
  528SOL    HW1 1595   2.037   0.799   2.660
  528SOL    HW2 1596   1.914   0.906   2.672
  529SOL     OW 1597   2.213   1.801   2.715
  529SOL    HW1 1598   2.263   1.715   2.721
  529SOL    HW2 1599   2.278   1.878   2.712
  530SOL     OW 1600   2.183   0.943   2.104
  530SOL    HW1 1601   2.265   0.982   2.062
  530SOL    HW2 1602   2.156   0.861   2.055
  531SOL     OW 1603   2.326   1.743   2.185
  531SOL    HW1 1604   2.359   1.782   2.271
  531SOL    HW2 1605   2.402   1.736   2.120
  532SOL     OW 1606   2.244   0.700   2.342
  532SOL    HW1 1607   2.289   0.610   2.339
  532SOL    HW2 1608   2.150   0.689   2.375
  533SOL     OW 1609   2.476   0.122   1.979
  533SOL    HW1 1610   2.574   0.100   1.986
  533SOL    HW2 1611   2.445   0.105   1.886
  534SOL     OW 1612   2.401   0.064   2.374
  534SOL    HW1 1613   2.320   0.065   2.432
  534SOL    HW2 1614   2.404   0.147   2.319
  535SOL     OW 1615   2.159   0.035   2.033
  535SOL    HW1 1616   2.208   0.119   2.012
  535SOL    HW2 1617   2.221  -0.030   2.078
  536SOL     OW 1618   2.321   1.152   2.603
  536SOL    HW1 1619   2.250   1.125   2.668
  536SOL    HW2 1620   2.295   1.124   2.510
  537SOL     OW 1621   2.350   1.385   2.036
  537SOL    HW1 1622   2.263   1.370   2.083
  537SOL    HW2 1623   2.333   1.411   1.941
  538SOL     OW 1624   2.389   0.256   2.190
  538SOL    HW1 1625   2.416   0.197   2.115
  538SOL    HW2 1626   2.389   0.351   2.159
  539SOL     OW 1627   2.229   1.100   2.363
  539SOL    HW1 1628   2.222   1.183   2.307
  539SOL    HW2 1629   2.233   1.020   2.303
  540SOL     OW 1630   2.169   0.063   2.480
  540SOL    HW1 1631   2.158   0.157   2.513
  540SOL    HW2 1632   2.164   0.000   2.557
  541SOL     OW 1633   1.870   1.326   2.062
  541SOL    HW1 1634   1.777   1.347   2.031
  541SOL    HW2 1635   1.880   1.227   2.075
  542SOL     OW 1636   2.677   0.572   2.187
  542SOL    HW1 1637   2.684   0.483   2.141
  542SOL    HW2 1638   2.583   0.606   2.179
  543SOL     OW 1639   2.335   0.500   2.053
  543SOL    HW1 1640   2.396   0.580   2.057
  543SOL    HW2 1641   2.240   0.531   2.060
  544SOL     OW 1642   2.901   1.098   2.558
  544SOL    HW1 1643   2.831   1.051   2.612
  544SOL    HW2 1644   2.960   1.030   2.515
  545SOL     OW 1645   2.452   1.487   2.353
  545SOL    HW1 1646   2.494   1.429   2.283
  545SOL    HW2 1647   2.408   1.566   2.309
  546SOL     OW 1648   2.117   1.348   2.152
  546SOL    HW1 1649   2.021   1.349   2.125
  546SOL    HW2 1650   2.129   1.401   2.236
  547SOL     OW 1651   1.937   0.345   1.895
  547SOL    HW1 1652   1.845   0.317   1.866
  547SOL    HW2 1653   1.968   0.422   1.839
  548SOL     OW 1654   1.934   0.166   2.180
  548SOL    HW1 1655   1.917   0.249   2.126
  548SOL    HW2 1656   2.024   0.129   2.158
  549SOL     OW 1657   2.456   0.745   2.514
  549SOL    HW1 1658   2.506   0.830   2.495
  549SOL    HW2 1659   2.368   0.747   2.466
  550SOL     OW 1660   2.523   1.790   2.815
  550SOL    HW1 1661   2.477   1.878   2.802
  550SOL    HW2 1662   2.622   1.802   2.808
  551SOL     OW 1663   1.941   1.240   2.515
  551SOL    HW1 1664   1.940   1.193   2.603
  551SOL    HW2 1665   2.023   1.212   2.464
  552SOL     OW 1666   2.290   0.424   2.382
  552SOL    HW1 1667   2.320   0.352   2.320
  552SOL    HW2 1668   2.251   0.384   2.465
  553SOL     OW 1669   2.674   1.586   2.549
  553SOL    HW1 1670   2.706   1.596   2.455
  553SOL    HW2 1671   2.595   1.524   2.551
  554SOL     OW 1672   1.901   1.077   2.162
  554SOL    HW1 1673   2.000   1.066   2.153
  554SOL    HW2 1674   1.861   0.991   2.194
  555SOL     OW 1675   2.092   2.490   0.113
  555SOL    HW1 1676   1.999   2.488   0.150
  555SOL    HW2 1677   2.093   2.451   0.021
  556SOL     OW 1678   2.087   2.137   0.996
  556SOL    HW1 1679   2.122   2.120   1.088
  556SOL    HW2 1680   1.999   2.092   0.984
  557SOL     OW 1681   1.881   2.230   0.647
  557SOL    HW1 1682   1.799   2.273   0.686
  557SOL    HW2 1683   1.853   2.157   0.584
  558SOL     OW 1684   2.712   2.660   1.823
  558SOL    HW1 1685   2.708   2.736   1.888
  558SOL    HW2 1686   2.734   2.696   1.732
  559SOL     OW 1687   2.547   2.874   0.665
  559SOL    HW1 1688   2.616   2.858   0.735
  559SOL    HW2 1689   2.474   2.931   0.703
  560SOL     OW 1690   2.300   2.254   1.499
  560SOL    HW1 1691   2.382   2.198   1.508
  560SOL    HW2 1692   2.219   2.196   1.503
  561SOL     OW 1693   1.984   2.505   0.563
  561SOL    HW1 1694   1.939   2.417   0.580
  561SOL    HW2 1695   1.983   2.559   0.647
  562SOL     OW 1696   1.975   2.599   1.597
  562SOL    HW1 1697   2.063   2.586   1.642
  562SOL    HW2 1698   1.962   2.696   1.575
  563SOL     OW 1699   2.671   1.866   0.502
  563SOL    HW1 1700   2.711   1.957   0.493
  563SOL    HW2 1701   2.571   1.874   0.508
  564SOL     OW 1702   2.179   2.113   1.801
  564SOL    HW1 1703   2.250   2.184   1.807
  564SOL    HW2 1704   2.091   2.152   1.829
  565SOL     OW 1705   2.460   2.591   0.270
  565SOL    HW1 1706   2.484   2.660   0.202
  565SOL    HW2 1707   2.382   2.624   0.324
  566SOL     OW 1708   2.412   2.058   0.885
  566SOL    HW1 1709   2.407   2.053   0.985
  566SOL    HW2 1710   2.414   2.154   0.856
  567SOL     OW 1711   2.064   2.147   1.498
  567SOL    HW1 1712   1.984   2.207   1.485
  567SOL    HW2 1713   2.054   2.098   1.584
  568SOL     OW 1714   2.244   2.562   0.480
  568SOL    HW1 1715   2.289   2.472   0.477
  568SOL    HW2 1716   2.150   2.551   0.513
  569SOL     OW 1717   2.401   1.926   0.512
  569SOL    HW1 1718   2.320   1.927   0.570
  569SOL    HW2 1719   2.404   2.009   0.457
  570SOL     OW 1720   1.940   2.418   1.386
  570SOL    HW1 1721   2.032   2.417   1.345
  570SOL    HW2 1722   1.934   2.492   1.453
  571SOL     OW 1723   2.423   2.084   1.147
  571SOL    HW1 1724   2.461   2.000   1.184
  571SOL    HW2 1725   2.335   2.103   1.191
  572SOL     OW 1726   2.389   2.118   0.328
  572SOL    HW1 1727   2.416   2.059   0.253
  572SOL    HW2 1728   2.389   2.213   0.297
  573SOL     OW 1729   2.272   2.675   1.251
  573SOL    HW1 1730   2.358   2.687   1.301
  573SOL    HW2 1731   2.230   2.588   1.278
  574SOL     OW 1732   2.428   2.399   0.865
  574SOL    HW1 1733   2.440   2.465   0.791
  574SOL    HW2 1734   2.474   2.433   0.948
  575SOL     OW 1735   2.366   1.912   1.740
  575SOL    HW1 1736   2.324   1.855   1.670
  575SOL    HW2 1737   2.300   1.981   1.772
  576SOL     OW 1738   2.169   2.075   1.231
  576SOL    HW1 1739   2.146   2.112   1.321
  576SOL    HW2 1740   2.139   1.980   1.225
  577SOL     OW 1741   2.169   1.925   0.618
  577SOL    HW1 1742   2.158   2.019   0.651
  577SOL    HW2 1743   2.164   1.862   0.695
  578SOL     OW 1744   2.181   2.672   0.949
  578SOL    HW1 1745   2.274   2.708   0.954
  578SOL    HW2 1746   2.175   2.587   1.001
  579SOL     OW 1747   2.201   2.371   1.006
  579SOL    HW1 1748   2.149   2.288   0.989
  579SOL    HW2 1749   2.278   2.376   0.942
  580SOL     OW 1750   1.902   2.406   1.114
  580SOL    HW1 1751   1.987   2.373   1.073
  580SOL    HW2 1752   1.915   2.421   1.212
  581SOL     OW 1753   2.051   2.382   1.722
  581SOL    HW1 1754   2.110   2.342   1.652
  581SOL    HW2 1755   1.993   2.453   1.681
  582SOL     OW 1756   2.677   2.434   0.325
  582SOL    HW1 1757   2.684   2.345   0.279
  582SOL    HW2 1758   2.583   2.468   0.317
  583SOL     OW 1759   2.533   2.326   1.269
  583SOL    HW1 1760   2.499   2.237   1.239
  583SOL    HW2 1761   2.559   2.380   1.189
  584SOL     OW 1762   2.335   2.362   0.191
  584SOL    HW1 1763   2.396   2.442   0.195
  584SOL    HW2 1764   2.240   2.393   0.198
  585SOL     OW 1765   2.125   2.188   0.720
  585SOL    HW1 1766   2.046   2.239   0.686
  585SOL    HW2 1767   2.116   2.173   0.818
  586SOL     OW 1768   2.534   2.065   1.489
  586SOL    HW1 1769   2.624   2.049   1.449
  586SOL    HW2 1770   2.542   2.070   1.588
  587SOL     OW 1771   1.937   2.207   0.033
  587SOL    HW1 1772   1.845   2.179   0.004
  587SOL    HW2 1773   1.968   2.284  -0.023
  588SOL     OW 1774   1.934   2.028   0.318
  588SOL    HW1 1775   1.917   2.111   0.264
  588SOL    HW2 1776   2.024   1.991   0.296
  589SOL     OW 1777   2.578   2.427   1.708
  589SOL    HW1 1778   2.597   2.492   1.782
  589SOL    HW2 1779   2.638   2.347   1.717
  590SOL     OW 1780   2.456   2.607   0.652
  590SOL    HW1 1781   2.506   2.692   0.633
  590SOL    HW2 1782   2.368   2.609   0.604
  591SOL     OW 1783   2.290   2.286   0.520
  591SOL    HW1 1784   2.320   2.214   0.458
  591SOL    HW2 1785   2.251   2.246   0.603
  592SOL     OW 1786   2.179   2.409   1.280
  592SOL    HW1 1787   2.217   2.350   1.352
  592SOL    HW2 1788   2.219   2.383   1.192
  593SOL     OW 1789   2.092   2.490   1.975
  593SOL    HW1 1790   1.999   2.488   2.012
  593SOL    HW2 1791   2.093   2.451   1.883
  594SOL     OW 1792   1.881   2.230   2.509
  594SOL    HW1 1793   1.799   2.273   2.548
  594SOL    HW2 1794   1.853   2.157   2.446
  595SOL     OW 1795   2.547   2.874   2.527
  595SOL    HW1 1796   2.616   2.858   2.597
  595SOL    HW2 1797   2.474   2.931   2.565
  596SOL     OW 1798   1.984   2.505   2.425
  596SOL    HW1 1799   1.939   2.417   2.442
  596SOL    HW2 1800   1.983   2.559   2.509
  597SOL     OW 1801   2.671   1.866   2.364
  597SOL    HW1 1802   2.711   1.957   2.355
  597SOL    HW2 1803   2.571   1.874   2.370
  598SOL     OW 1804   2.460   2.591   2.132
  598SOL    HW1 1805   2.484   2.660   2.064
  598SOL    HW2 1806   2.382   2.624   2.186
  599SOL     OW 1807   1.938   2.673   2.651
  599SOL    HW1 1808   2.037   2.661   2.660
  599SOL    HW2 1809   1.914   2.768   2.672
  600SOL     OW 1810   2.244   2.562   2.342
  600SOL    HW1 1811   2.289   2.472   2.339
  600SOL    HW2 1812   2.150   2.551   2.375
  601SOL     OW 1813   2.476   1.984   1.979
  601SOL    HW1 1814   2.574   1.962   1.986
  601SOL    HW2 1815   2.445   1.967   1.886
  602SOL     OW 1816   2.401   1.926   2.374
  602SOL    HW1 1817   2.320   1.927   2.432
  602SOL    HW2 1818   2.404   2.009   2.319
  603SOL     OW 1819   2.159   1.897   2.033
  603SOL    HW1 1820   2.208   1.981   2.012
  603SOL    HW2 1821   2.221   1.832   2.078
  604SOL     OW 1822   2.389   2.118   2.190
  604SOL    HW1 1823   2.416   2.059   2.115
  604SOL    HW2 1824   2.389   2.213   2.159
  605SOL     OW 1825   2.169   1.925   2.480
  605SOL    HW1 1826   2.158   2.019   2.513
  605SOL    HW2 1827   2.164   1.862   2.557
  606SOL     OW 1828   2.677   2.434   2.187
  606SOL    HW1 1829   2.684   2.345   2.141
  606SOL    HW2 1830   2.583   2.468   2.179
  607SOL     OW 1831   2.335   2.362   2.053
  607SOL    HW1 1832   2.396   2.442   2.057
  607SOL    HW2 1833   2.240   2.393   2.060
  608SOL     OW 1834   1.937   2.207   1.895
  608SOL    HW1 1835   1.845   2.179   1.866
  608SOL    HW2 1836   1.968   2.284   1.839
  609SOL     OW 1837   1.934   2.028   2.180
  609SOL    HW1 1838   1.917   2.111   2.126
  609SOL    HW2 1839   2.024   1.991   2.158
  610SOL     OW 1840   2.456   2.607   2.514
  610SOL    HW1 1841   2.506   2.692   2.495
  610SOL    HW2 1842   2.368   2.609   2.466
  611SOL     OW 1843   2.290   2.286   2.382
  611SOL    HW1 1844   2.320   2.214   2.320
  611SOL    HW2 1845   2.251   2.246   2.465
   2.66784   2.66784   2.66784
