; mobley_4983965_GMX.top created by acpype (v: 2023.10.27) on Thu May 14 13:40:14 2026

[ defaults ]
; nbfunc        comb-rule       gen-pairs       fudgeLJ fudgeQQ
1               2               yes             0.5     0.8333333333

; Include mobley_4983965_GMX.itp topology
#include "mobley_4983965_GMX.itp"

; Ligand position restraints
#ifdef POSRES_LIG
#include "posre_mobley_4983965.itp"
#endif

#include "../common/SOL.TIP3P.itp"

[ system ]
mobley_4983965 in water

[ molecules ]
; Compound        nmols
 mobley_4983965   1     
SOL               645
