; mobley_8118832_GMX.itp created by acpype (v: 2023.10.27) on Thu May 14 13:19:57 2026

[ atomtypes ]
;name   bond_type     mass     charge   ptype   sigma         epsilon       Amb
 c2       c2          0.00000  0.00000   A     3.31521e-01   4.13379e-01 ; 1.86  0.0988
 c3       c3          0.00000  0.00000   A     3.39771e-01   4.51035e-01 ; 1.91  0.1078
 oh       oh          0.00000  0.00000   A     3.24287e-01   3.89112e-01 ; 1.82  0.0930
 ha       ha          0.00000  0.00000   A     2.62548e-01   6.73624e-02 ; 1.47  0.0161
 h1       h1          0.00000  0.00000   A     2.42200e-01   8.70272e-02 ; 1.36  0.0208
 ho       ho          0.00000  0.00000   A     5.37925e-02   1.96648e-02 ; 0.30  0.0047

[ moleculetype ]
;name            nrexcl
 mobley_8118832   3

[ atoms ]
;   nr  type  resi  res  atom  cgnr     charge      mass       ; qtot   bond_type
     1   c2     1   MOL    C1    1    -0.210000     12.01000 ; qtot -0.210
     2   c2     1   MOL    C2    2    -0.212200     12.01000 ; qtot -0.422
     3   c3     1   MOL    C3    3     0.155600     12.01000 ; qtot -0.267
     4   oh     1   MOL    O1    4    -0.598800     16.00000 ; qtot -0.865
     5   ha     1   MOL    H1    5     0.114000      1.00800 ; qtot -0.751
     6   ha     1   MOL    H2    6     0.114000      1.00800 ; qtot -0.637
     7   ha     1   MOL    H3    7     0.133000      1.00800 ; qtot -0.504
     8   h1     1   MOL    H4    8     0.052700      1.00800 ; qtot -0.452
     9   h1     1   MOL    H5    9     0.052700      1.00800 ; qtot -0.399
    10   ho     1   MOL    H6   10     0.399000      1.00800 ; qtot -0.000

[ bonds ]
;   ai     aj funct   r             k
     1      2   1    1.3379e-01    3.6484e+05 ;     C1 - C2    
     1      5   1    1.0882e-01    2.9898e+05 ;     C1 - H1    
     1      6   1    1.0882e-01    2.9898e+05 ;     C1 - H2    
     2      3   1    1.5088e-01    2.0786e+05 ;     C2 - C3    
     2      7   1    1.0882e-01    2.9898e+05 ;     C2 - H3    
     3      4   1    1.4242e-01    2.3861e+05 ;     C3 - O1    
     3      8   1    1.0969e-01    2.8804e+05 ;     C3 - H4    
     3      9   1    1.0969e-01    2.8804e+05 ;     C3 - H5    
     4     10   1    9.7250e-02    4.4811e+05 ;     O1 - H6    

[ pairs ]
;   ai     aj    funct
     1      4      1 ;     C1 - O1    
     1      8      1 ;     C1 - H4    
     1      9      1 ;     C1 - H5    
     2     10      1 ;     C2 - H6    
     4      7      1 ;     O1 - H3    
     5      3      1 ;     H1 - C3    
     5      7      1 ;     H1 - H3    
     6      3      1 ;     H2 - C3    
     6      7      1 ;     H2 - H3    
     7      8      1 ;     H3 - H4    
     7      9      1 ;     H3 - H5    
     8     10      1 ;     H4 - H6    
     9     10      1 ;     H5 - H6    

[ angles ]
;   ai     aj     ak    funct   theta         cth
     1      2      3      1    1.2495e+02    5.0944e+02 ;     C1 - C2     - C3    
     1      2      7      1    1.2039e+02    3.8802e+02 ;     C1 - C2     - H3    
     2      1      5      1    1.2039e+02    3.8802e+02 ;     C2 - C1     - H1    
     2      1      6      1    1.2039e+02    3.8802e+02 ;     C2 - C1     - H2    
     2      3      4      1    1.1033e+02    6.4718e+02 ;     C2 - C3     - O1    
     2      3      8      1    1.0996e+02    3.6727e+02 ;     C2 - C3     - H4    
     2      3      9      1    1.0996e+02    3.6727e+02 ;     C2 - C3     - H5    
     3      2      7      1    1.1505e+02    3.5941e+02 ;     C3 - C2     - H3    
     3      4     10      1    1.0739e+02    5.4501e+02 ;     C3 - O1     - H6    
     4      3      8      1    1.1038e+02    4.7103e+02 ;     O1 - C3     - H4    
     4      3      9      1    1.1038e+02    4.7103e+02 ;     O1 - C3     - H5    
     5      1      6      1    1.1666e+02    2.9003e+02 ;     H1 - C1     - H2    
     8      3      9      1    1.0855e+02    2.9824e+02 ;     H4 - C3     - H5    

[ dihedrals ] ; propers
; for gromacs 4.5 or higher, using funct 9
;    i      j      k      l   func   phase     kd      pn
     1      2      3      4      9     0.00   0.00000   0 ;     C1-    C2-    C3-    O1
     1      2      3      8      9     0.00   0.00000   0 ;     C1-    C2-    C3-    H4
     1      2      3      9      9     0.00   0.00000   0 ;     C1-    C2-    C3-    H5
     2      3      4     10      9     0.00   0.69733   3 ;     C2-    C3-    O1-    H6
     4      3      2      7      9     0.00   0.00000   0 ;     O1-    C3-    C2-    H3
     5      1      2      3      9   180.00  27.82360   2 ;     H1-    C1-    C2-    C3
     5      1      2      7      9   180.00  27.82360   2 ;     H1-    C1-    C2-    H3
     6      1      2      3      9   180.00  27.82360   2 ;     H2-    C1-    C2-    C3
     6      1      2      7      9   180.00  27.82360   2 ;     H2-    C1-    C2-    H3
     7      2      3      8      9     0.00   0.00000   0 ;     H3-    C2-    C3-    H4
     7      2      3      9      9     0.00   0.00000   0 ;     H3-    C2-    C3-    H5
     8      3      4     10      9     0.00   0.51463   3 ;     H4-    C3-    O1-    H6
     9      3      4     10      9     0.00   0.51463   3 ;     H5-    C3-    O1-    H6

[ dihedrals ] ; impropers
; treated as propers in GROMACS to use correct AMBER analytical function
;    i      j      k      l   func   phase     kd      pn
     1      3      2      7      4   180.00   4.60240   2 ;     C1-    C3-    C2-    H3
     6      1      5      2      4   180.00   4.60240   2 ;     H2-    C1-    H1-    C2
