mobley_9407874_GMX.gro created by acpype (v: 2023.10.27) on Thu May 14 13:50:33 2026
 2851
    1MOL     C1    1   1.727   1.332   1.354
    1MOL     C2    2   1.866   1.316   1.298
    1MOL     C3    3   1.207   1.725   1.741
    1MOL     C4    4   1.698   1.456   1.436
    1MOL     C5    5   1.351   1.722   1.692
    1MOL     C6    6   1.556   1.460   1.491
    1MOL     C7    7   1.382   1.591   1.619
    1MOL     C8    8   1.526   1.589   1.568
    1MOL     O1    9   1.639   1.248   1.333
    1MOL     H1   10   1.879   1.213   1.262
    1MOL     H2   11   1.881   1.385   1.216
    1MOL     H3   12   1.939   1.334   1.377
    1MOL     H4   13   1.186   1.643   1.810
    1MOL     H5   14   1.137   1.717   1.657
    1MOL     H6   15   1.186   1.819   1.792
    1MOL     H7   16   1.716   1.543   1.372
    1MOL     H8   17   1.771   1.462   1.518
    1MOL     H9   18   1.368   1.807   1.626
    1MOL    H10   19   1.418   1.733   1.778
    1MOL    H11   20   1.538   1.374   1.556
    1MOL    H12   21   1.486   1.452   1.407
    1MOL    H13   22   1.366   1.506   1.686
    1MOL    H14   23   1.313   1.579   1.535
    1MOL    H15   24   1.595   1.599   1.652
    1MOL    H16   25   1.543   1.676   1.502
    2SOL     OW   26   0.230   0.628   0.113
    2SOL    HW1   27   0.137   0.626   0.150
    2SOL    HW2   28   0.231   0.589   0.021
    3SOL     OW   29   0.225   0.275   0.996
    3SOL    HW1   30   0.260   0.258   1.088
    3SOL    HW2   31   0.137   0.230   0.984
    4SOL     OW   32   0.019   0.368   0.647
    4SOL    HW1   33  -0.063   0.411   0.686
    4SOL    HW2   34  -0.009   0.295   0.584
    5SOL     OW   35   0.569   1.275   1.165
    5SOL    HW1   36   0.476   1.268   1.128
    5SOL    HW2   37   0.580   1.364   1.209
    6SOL     OW   38   1.555   1.511   0.703
    6SOL    HW1   39   1.498   1.495   0.784
    6SOL    HW2   40   1.496   1.521   0.623
    7SOL     OW   41   1.135   0.703   0.717
    7SOL    HW1   42   1.192   0.781   0.692
    7SOL    HW2   43   1.075   0.729   0.793
    8SOL     OW   44   1.755   0.607   0.231
    8SOL    HW1   45   1.743   0.594   0.132
    8SOL    HW2   46   1.725   0.526   0.280
    9SOL     OW   47   0.768   1.144   1.023
    9SOL    HW1   48   0.690   1.161   1.083
    9SOL    HW2   49   0.802   1.231   0.987
   10SOL     OW   50   0.850   0.798   1.823
   10SOL    HW1   51   0.846   0.874   1.888
   10SOL    HW2   52   0.872   0.834   1.732
   11SOL     OW   53   0.685   1.012   0.665
   11SOL    HW1   54   0.754   0.996   0.735
   11SOL    HW2   55   0.612   1.069   0.703
   12SOL     OW   56   0.686   1.161   1.803
   12SOL    HW1   57   0.746   1.240   1.817
   12SOL    HW2   58   0.600   1.192   1.762
   13SOL     OW   59   0.335   1.435   1.061
   13SOL    HW1   60   0.257   1.404   1.008
   13SOL    HW2   61   0.393   1.493   1.004
   14SOL     OW   62   0.438   0.392   1.499
   14SOL    HW1   63   0.520   0.336   1.508
   14SOL    HW2   64   0.357   0.334   1.503
   15SOL     OW   65   1.603   0.447   0.737
   15SOL    HW1   66   1.529   0.493   0.687
   15SOL    HW2   67   1.654   0.515   0.790
   16SOL     OW   68   0.231   1.713   0.483
   16SOL    HW1   69   0.265   1.790   0.537
   16SOL    HW2   70   0.275   1.713   0.393
   17SOL     OW   71   1.127   1.341   1.690
   17SOL    HW1   72   1.174   1.341   1.778
   17SOL    HW2   73   1.079   1.254   1.679
   18SOL     OW   74   0.230   1.434   0.538
   18SOL    HW1   75   0.204   1.530   0.538
   18SOL    HW2   76   0.159   1.380   0.583
   19SOL     OW   77   0.240   1.091   0.886
   19SOL    HW1   78   0.254   1.007   0.938
   19SOL    HW2   79   0.185   1.155   0.941
   20SOL     OW   80   0.620   1.786   1.439
   20SOL    HW1   81   0.528   1.769   1.474
   20SOL    HW2   82   0.648   1.878   1.465
   21SOL     OW   83   0.606   0.964   0.123
   21SOL    HW1   84   0.613   1.048   0.069
   21SOL    HW2   85   0.652   0.977   0.211
   22SOL     OW   86   1.594   0.114   1.480
   22SOL    HW1   87   1.576   0.181   1.408
   22SOL    HW2   88   1.591   0.160   1.569
   23SOL     OW   89   0.122   0.643   0.563
   23SOL    HW1   90   0.077   0.555   0.580
   23SOL    HW2   91   0.121   0.697   0.647
   24SOL     OW   92   1.842   1.767   0.359
   24SOL    HW1   93   1.896   1.738   0.439
   24SOL    HW2   94   1.872   1.857   0.330
   25SOL     OW   95   0.027   1.596   0.117
   25SOL    HW1   96   0.008   1.500   0.138
   25SOL    HW2   97  -0.006   1.654   0.192
   26SOL     OW   98   1.689   0.922   0.612
   26SOL    HW1   99   1.784   0.893   0.620
   26SOL    HW2  100   1.681   0.987   0.537
   27SOL     OW  101   1.641   1.108   0.432
   27SOL    HW1  102   1.727   1.110   0.380
   27SOL    HW2  103   1.655   1.155   0.520
   28SOL     OW  104   0.113   0.737   1.597
   28SOL    HW1  105   0.201   0.724   1.642
   28SOL    HW2  106   0.100   0.834   1.575
   29SOL     OW  107   0.613   1.365   0.726
   29SOL    HW1  108   0.564   1.278   0.735
   29SOL    HW2  109   0.590   1.408   0.639
   30SOL     OW  110   1.293   1.228   1.423
   30SOL    HW1  111   1.330   1.155   1.365
   30SOL    HW2  112   1.345   1.233   1.508
   31SOL     OW  113   0.809   0.004   0.502
   31SOL    HW1  114   0.849   0.095   0.493
   31SOL    HW2  115   0.709   0.012   0.508
   32SOL     OW  116   0.197   0.976   1.264
   32SOL    HW1  117   0.286   0.931   1.250
   32SOL    HW2  118   0.124   0.911   1.245
   33SOL     OW  119   1.525   0.999   0.190
   33SOL    HW1  120   1.462   0.923   0.203
   33SOL    HW2  121   1.573   1.017   0.276
   34SOL     OW  122   0.317   0.251   1.801
   34SOL    HW1  123   0.388   0.322   1.807
   34SOL    HW2  124   0.229   0.290   1.829
   35SOL     OW  125   1.466   1.417   0.953
   35SOL    HW1  126   1.407   1.423   1.033
   35SOL    HW2  127   1.451   1.329   0.907
   36SOL     OW  128   1.667   1.714   0.572
   36SOL    HW1  129   1.626   1.691   0.484
   36SOL    HW2  130   1.649   1.640   0.637
   37SOL     OW  131   0.598   0.729   0.270
   37SOL    HW1  132   0.622   0.798   0.202
   37SOL    HW2  133   0.520   0.762   0.324
   38SOL     OW  134   1.281   0.345   0.944
   38SOL    HW1  135   1.195   0.295   0.931
   38SOL    HW2  136   1.343   0.291   1.000
   39SOL     OW  137   1.576   1.662   0.307
   39SOL    HW1  138   1.665   1.708   0.310
   39SOL    HW2  139   1.555   1.638   0.212
   40SOL     OW  140   0.807   0.605   1.465
   40SOL    HW1  141   0.760   0.602   1.554
   40SOL    HW2  142   0.756   0.550   1.399
   41SOL     OW  143   1.394   0.469   1.674
   41SOL    HW1  144   1.374   0.512   1.762
   41SOL    HW2  145   1.472   0.407   1.683
   42SOL     OW  146   0.973   0.890   1.572
   42SOL    HW1  147   1.019   0.806   1.543
   42SOL    HW2  148   0.917   0.924   1.497
   43SOL     OW  149   0.991   0.410   1.242
   43SOL    HW1  150   0.914   0.444   1.296
   43SOL    HW2  151   0.957   0.359   1.163
   44SOL     OW  152   1.041   0.701   0.429
   44SOL    HW1  153   1.067   0.697   0.525
   44SOL    HW2  154   0.956   0.650   0.415
   45SOL     OW  155   0.076   0.811   0.789
   45SOL    HW1  156   0.175   0.799   0.798
   45SOL    HW2  157   0.052   0.906   0.810
   46SOL     OW  158   0.130   1.821   1.571
   46SOL    HW1  159   0.120   1.806   1.670
   46SOL    HW2  160   0.044   1.857   1.535
   47SOL     OW  161   0.865   0.348   0.195
   47SOL    HW1  162   0.924   0.411   0.146
   47SOL    HW2  163   0.884   0.254   0.166
   48SOL     OW  164   1.719   0.585   1.831
   48SOL    HW1  165   1.693   0.674   1.795
   48SOL    HW2  166   1.717   0.517   1.758
   49SOL     OW  167   1.362   1.144   0.545
   49SOL    HW1  168   1.445   1.115   0.497
   49SOL    HW2  169   1.313   1.211   0.489
   50SOL     OW  170   0.550   0.196   0.885
   50SOL    HW1  171   0.545   0.191   0.985
   50SOL    HW2  172   0.552   0.292   0.856
   51SOL     OW  173   1.008   1.456   0.477
   51SOL    HW1  174   0.962   1.528   0.425
   51SOL    HW2  175   1.004   1.476   0.575
   52SOL     OW  176   0.351   1.801   0.853
   52SOL    HW1  177   0.401   1.715   0.859
   52SOL    HW2  178   0.416   1.878   0.850
   53SOL     OW  179   1.795   1.066   0.873
   53SOL    HW1  180   1.733   1.051   0.797
   53SOL    HW2  181   1.743   1.077   0.958
   54SOL     OW  182   0.321   0.943   0.242
   54SOL    HW1  183   0.403   0.982   0.200
   54SOL    HW2  184   0.294   0.861   0.193
   55SOL     OW  185   1.458   0.735   0.728
   55SOL    HW1  186   1.453   0.670   0.803
   55SOL    HW2  187   1.538   0.794   0.741
   56SOL     OW  188   0.461   1.266   1.727
   56SOL    HW1  189   0.411   1.267   1.641
   56SOL    HW2  190   0.398   1.248   1.803
   57SOL     OW  191   1.111   1.776   0.237
   57SOL    HW1  192   1.051   1.714   0.287
   57SOL    HW2  193   1.142   1.732   0.152
   58SOL     OW  194   0.202   0.285   1.498
   58SOL    HW1  195   0.122   0.345   1.485
   58SOL    HW2  196   0.192   0.236   1.584
   59SOL     OW  197   1.632   1.377   0.081
   59SOL    HW1  198   1.600   1.471   0.071
   59SOL    HW2  199   1.556   1.314   0.069
   60SOL     OW  200   0.464   1.743   0.323
   60SOL    HW1  201   0.497   1.782   0.409
   60SOL    HW2  202   0.540   1.736   0.258
   61SOL     OW  203   1.400   0.107   0.426
   61SOL    HW1  204   1.376   0.070   0.336
   61SOL    HW2  205   1.499   0.123   0.430
   62SOL     OW  206   0.249   1.785   1.241
   62SOL    HW1  207   0.306   1.720   1.291
   62SOL    HW2  208   0.233   1.752   1.148
   63SOL     OW  209   0.940   1.698   0.904
   63SOL    HW1  210   1.020   1.641   0.925
   63SOL    HW2  211   0.891   1.658   0.827
   64SOL     OW  212   0.382   0.700   0.480
   64SOL    HW1  213   0.427   0.610   0.477
   64SOL    HW2  214   0.288   0.689   0.513
   65SOL     OW  215   1.547   0.222   1.729
   65SOL    HW1  216   1.542   0.259   1.821
   65SOL    HW2  217   1.475   0.153   1.717
   66SOL     OW  218   0.614   0.122   0.117
   66SOL    HW1  219   0.712   0.100   0.124
   66SOL    HW2  220   0.583   0.105   0.024
   67SOL     OW  221   0.781   0.264   1.749
   67SOL    HW1  222   0.848   0.203   1.792
   67SOL    HW2  223   0.708   0.283   1.814
   68SOL     OW  224   0.888   1.514   1.195
   68SOL    HW1  225   0.865   1.489   1.101
   68SOL    HW2  226   0.949   1.445   1.234
   69SOL     OW  227   1.351   0.590   1.433
   69SOL    HW1  228   1.379   0.547   1.518
   69SOL    HW2  229   1.376   0.686   1.434
   70SOL     OW  230   0.803   1.402   0.924
   70SOL    HW1  231   0.893   1.416   0.882
   70SOL    HW2  232   0.732   1.404   0.853
   71SOL     OW  233   0.922   0.503   0.899
   71SOL    HW1  234   0.897   0.494   0.803
   71SOL    HW2  235   0.970   0.421   0.930
   72SOL     OW  236   0.539   0.064   0.512
   72SOL    HW1  237   0.458   0.065   0.570
   72SOL    HW2  238   0.542   0.147   0.457
   73SOL     OW  239   1.434   1.188   0.041
   73SOL    HW1  240   1.466   1.112   0.098
   73SOL    HW2  241   1.342   1.215   0.071
   74SOL     OW  242   0.297   0.035   0.171
   74SOL    HW1  243   0.346   0.119   0.150
   74SOL    HW2  244   0.359  -0.030   0.216
   75SOL     OW  245   0.935   0.236   0.480
   75SOL    HW1  246   0.887   0.277   0.402
   75SOL    HW2  247   1.034   0.234   0.461
   76SOL     OW  248   1.076   0.683   1.464
   76SOL    HW1  249   0.996   0.622   1.467
   76SOL    HW2  250   1.157   0.630   1.440
   77SOL     OW  251   1.227   1.570   0.793
   77SOL    HW1  252   1.248   1.644   0.728
   77SOL    HW2  253   1.295   1.570   0.866
   78SOL     OW  254   0.459   1.152   0.741
   78SOL    HW1  255   0.388   1.125   0.806
   78SOL    HW2  256   0.433   1.124   0.648
   79SOL     OW  257   1.271   1.797   0.591
   79SOL    HW1  258   1.315   1.861   0.527
   79SOL    HW2  259   1.221   1.849   0.661
   80SOL     OW  260   1.032   0.549   0.016
   80SOL    HW1  261   0.991   0.631  -0.023
   80SOL    HW2  262   1.096   0.575   0.089
   81SOL     OW  263   0.078   0.556   1.386
   81SOL    HW1  264   0.170   0.555   1.345
   81SOL    HW2  265   0.072   0.630   1.453
   82SOL     OW  266   0.561   0.222   1.147
   82SOL    HW1  267   0.599   0.138   1.184
   82SOL    HW2  268   0.473   0.241   1.191
   83SOL     OW  269   0.866   0.454   0.642
   83SOL    HW1  270   0.834   0.526   0.580
   83SOL    HW2  271   0.890   0.373   0.589
   84SOL     OW  272   1.017   0.039   0.753
   84SOL    HW1  273   0.945   0.044   0.684
   84SOL    HW2  274   0.993  -0.030   0.822
   85SOL     OW  275   1.429   1.173   0.867
   85SOL    HW1  276   1.374   1.089   0.860
   85SOL    HW2  277   1.455   1.202   0.775
   86SOL     OW  278   1.466   0.590   0.992
   86SOL    HW1  279   1.436   0.495   0.999
   86SOL    HW2  280   1.539   0.606   1.058
   87SOL     OW  281   1.857   0.833   0.377
   87SOL    HW1  282   1.899   0.769   0.441
   87SOL    HW2  283   1.819   0.782   0.299
   88SOL     OW  284   0.488   1.385   0.174
   88SOL    HW1  285   0.401   1.370   0.221
   88SOL    HW2  286   0.471   1.411   0.079
   89SOL     OW  287   1.664   1.280   0.657
   89SOL    HW1  288   1.763   1.288   0.671
   89SOL    HW2  289   1.619   1.364   0.688
   90SOL     OW  290   1.390   0.575   0.078
   90SOL    HW1  291   1.336   0.554   0.159
   90SOL    HW2  292   1.481   0.534   0.087
   91SOL     OW  293   0.527   0.256   0.328
   91SOL    HW1  294   0.554   0.197   0.253
   91SOL    HW2  295   0.527   0.351   0.297
   92SOL     OW  296   1.754   1.223   1.588
   92SOL    HW1  297   1.845   1.184   1.575
   92SOL    HW2  298   1.762   1.319   1.612
   93SOL     OW  299   1.064   1.347   1.340
   93SOL    HW1  300   0.984   1.324   1.395
   93SOL    HW2  301   1.147   1.321   1.389
   94SOL     OW  302   1.111   1.195   1.100
   94SOL    HW1  303   1.071   1.239   1.181
   94SOL    HW2  304   1.070   1.232   1.017
   95SOL     OW  305   1.638   1.099   1.079
   95SOL    HW1  306   1.643   1.180   1.138
   95SOL    HW2  307   1.552   1.101   1.028
   96SOL     OW  308   0.915   0.089   1.402
   96SOL    HW1  309   0.940   0.069   1.307
   96SOL    HW2  310   0.987   0.145   1.444
   97SOL     OW  311   0.980   1.116   1.719
   97SOL    HW1  312   0.881   1.122   1.729
   97SOL    HW2  313   1.003   1.036   1.663
   98SOL     OW  314   0.705   1.050   0.368
   98SOL    HW1  315   0.691   1.057   0.467
   98SOL    HW2  316   0.789   0.999   0.350
   99SOL     OW  317   0.410   0.813   1.251
   99SOL    HW1  318   0.496   0.825   1.301
   99SOL    HW2  319   0.368   0.726   1.278
  100SOL     OW  320   1.274   0.386   1.262
  100SOL    HW1  321   1.295   0.460   1.326
  100SOL    HW2  322   1.185   0.403   1.219
  101SOL     OW  323   0.064   1.564   1.331
  101SOL    HW1  324   0.018   1.646   1.297
  101SOL    HW2  325   0.162   1.583   1.340
  102SOL     OW  326   0.367   1.100   0.501
  102SOL    HW1  327   0.360   1.183   0.445
  102SOL    HW2  328   0.371   1.020   0.441
  103SOL     OW  329   0.566   0.537   0.865
  103SOL    HW1  330   0.578   0.603   0.791
  103SOL    HW2  331   0.612   0.571   0.948
  104SOL     OW  332   1.252   1.348   0.388
  104SOL    HW1  333   1.302   1.425   0.428
  104SOL    HW2  334   1.157   1.350   0.420
  105SOL     OW  335   1.272   1.445   1.142
  105SOL    HW1  336   1.319   1.458   1.229
  105SOL    HW2  337   1.206   1.371   1.151
  106SOL     OW  338   1.582   0.639   0.472
  106SOL    HW1  339   1.551   0.700   0.545
  106SOL    HW2  340   1.632   0.691   0.403
  107SOL     OW  341   0.354   1.510   1.329
  107SOL    HW1  342   0.333   1.466   1.242
  107SOL    HW2  343   0.451   1.536   1.332
  108SOL     OW  344   0.402   0.751   1.598
  108SOL    HW1  345   0.470   0.806   1.551
  108SOL    HW2  346   0.442   0.663   1.625
  109SOL     OW  347   1.587   0.779   1.670
  109SOL    HW1  348   1.495   0.817   1.665
  109SOL    HW2  349   1.647   0.826   1.605
  110SOL     OW  350   1.013   0.105   1.770
  110SOL    HW1  351   1.019   0.190   1.718
  110SOL    HW2  352   1.045   0.029   1.713
  111SOL     OW  353   0.504   0.050   1.740
  111SOL    HW1  354   0.462  -0.007   1.670
  111SOL    HW2  355   0.438   0.119   1.772
  112SOL     OW  356   0.573   0.870   1.029
  112SOL    HW1  357   0.617   0.959   1.020
  112SOL    HW2  358   0.510   0.870   1.106
  113SOL     OW  359   1.360   0.862   1.045
  113SOL    HW1  360   1.285   0.862   0.979
  113SOL    HW2  361   1.397   0.770   1.054
  114SOL     OW  362   1.209   0.525   0.275
  114SOL    HW1  363   1.222   0.441   0.329
  114SOL    HW2  364   1.180   0.599   0.335
  115SOL     OW  365   0.307   0.213   1.231
  115SOL    HW1  366   0.284   0.250   1.321
  115SOL    HW2  367   0.277   0.118   1.225
  116SOL     OW  368   0.037   1.310   1.282
  116SOL    HW1  369   0.090   1.261   1.350
  116SOL    HW2  370   0.059   1.408   1.287
  117SOL     OW  371   0.732   0.634   1.064
  117SOL    HW1  372   0.791   0.608   0.988
  117SOL    HW2  373   0.704   0.730   1.053
  118SOL     OW  374   1.728   0.935   1.854
  118SOL    HW1  375   1.682   0.928   1.765
  118SOL    HW2  376   1.666   0.979   1.920
  119SOL     OW  377   0.307   0.063   0.618
  119SOL    HW1  378   0.296   0.157   0.651
  119SOL    HW2  379   0.302   0.000   0.695
  120SOL     OW  380   1.622   0.367   0.374
  120SOL    HW1  381   1.624   0.291   0.438
  120SOL    HW2  382   1.574   0.444   0.414
  121SOL     OW  383   1.023   0.766   0.966
  121SOL    HW1  384   1.038   0.787   1.062
  121SOL    HW2  385   0.993   0.671   0.957
  122SOL     OW  386   0.980   1.573   1.700
  122SOL    HW1  387   0.960   1.617   1.612
  122SOL    HW2  388   1.019   1.482   1.684
  123SOL     OW  389   0.350   0.898   1.804
  123SOL    HW1  390   0.426   0.942   1.852
  123SOL    HW2  391   0.385   0.851   1.722
  124SOL     OW  392   1.540   0.274   0.125
  124SOL    HW1  393   1.479   0.199   0.148
  124SOL    HW2  394   1.562   0.326   0.208
  125SOL     OW  395   1.303   0.838   0.042
  125SOL    HW1  396   1.337   0.745   0.057
  125SOL    HW2  397   1.321   0.865  -0.053
  126SOL     OW  398   1.068   1.333   0.849
  126SOL    HW1  399   1.075   1.249   0.794
  126SOL    HW2  400   1.130   1.402   0.813
  127SOL     OW  401   0.319   0.810   0.949
  127SOL    HW1  402   0.412   0.846   0.954
  127SOL    HW2  403   0.313   0.725   1.001
  128SOL     OW  404   0.339   0.509   1.006
  128SOL    HW1  405   0.287   0.426   0.989
  128SOL    HW2  406   0.416   0.514   0.942
  129SOL     OW  407   1.138   0.380   1.678
  129SOL    HW1  408   1.093   0.443   1.742
  129SOL    HW2  409   1.231   0.411   1.661
  130SOL     OW  410   1.160   0.207   1.477
  130SOL    HW1  411   1.160   0.271   1.554
  130SOL    HW2  412   1.188   0.255   1.394
  131SOL     OW  413   0.008   1.326   0.200
  131SOL    HW1  414  -0.085   1.347   0.169
  131SOL    HW2  415   0.018   1.227   0.213
  132SOL     OW  416   0.088   1.801   0.927
  132SOL    HW1  417   0.046   1.715   0.900
  132SOL    HW2  418   0.182   1.804   0.893
  133SOL     OW  419   0.504   1.568   0.910
  133SOL    HW1  420   0.570   1.642   0.919
  133SOL    HW2  421   0.548   1.489   0.868
  134SOL     OW  422   1.002   0.796   1.238
  134SOL    HW1  423   1.043   0.764   1.324
  134SOL    HW2  424   0.906   0.769   1.235
  135SOL     OW  425   0.040   0.544   1.114
  135SOL    HW1  426   0.125   0.511   1.073
  135SOL    HW2  427   0.053   0.559   1.212
  136SOL     OW  428   0.189   0.520   1.722
  136SOL    HW1  429   0.248   0.480   1.652
  136SOL    HW2  430   0.131   0.591   1.681
  137SOL     OW  431   1.369   0.950   1.660
  137SOL    HW1  432   1.408   1.039   1.680
  137SOL    HW2  433   1.379   0.930   1.563
  138SOL     OW  434   0.815   0.572   0.325
  138SOL    HW1  435   0.822   0.483   0.279
  138SOL    HW2  436   0.721   0.606   0.317
  139SOL     OW  437   1.657   0.604   1.206
  139SOL    HW1  438   1.619   0.535   1.268
  139SOL    HW2  439   1.739   0.568   1.162
  140SOL     OW  440   0.252   1.564   1.744
  140SOL    HW1  441   0.222   1.621   1.820
  140SOL    HW2  442   0.245   1.467   1.770
  141SOL     OW  443   0.671   0.464   1.269
  141SOL    HW1  444   0.637   0.375   1.239
  141SOL    HW2  445   0.697   0.518   1.189
  142SOL     OW  446   0.930   1.678   1.465
  142SOL    HW1  447   0.906   1.660   1.370
  142SOL    HW2  448   0.960   1.772   1.475
  143SOL     OW  449   0.473   0.500   0.191
  143SOL    HW1  450   0.534   0.580   0.195
  143SOL    HW2  451   0.378   0.531   0.198
  144SOL     OW  452   0.159   1.137   1.466
  144SOL    HW1  453   0.181   1.076   1.542
  144SOL    HW2  454   0.169   1.088   1.380
  145SOL     OW  455   1.347   1.059   1.234
  145SOL    HW1  456   1.371   0.996   1.160
  145SOL    HW2  457   1.257   1.099   1.216
  146SOL     OW  458   1.302   0.855   0.309
  146SOL    HW1  459   1.216   0.824   0.351
  146SOL    HW2  460   1.298   0.841   0.210
  147SOL     OW  461   1.759   1.747   1.154
  147SOL    HW1  462   1.820   1.777   1.081
  147SOL    HW2  463   1.721   1.658   1.132
  148SOL     OW  464   1.252   1.731   1.128
  148SOL    HW1  465   1.336   1.736   1.074
  148SOL    HW2  466   1.229   1.635   1.146
  149SOL     OW  467   0.083   1.258   1.022
  149SOL    HW1  468   0.078   1.257   1.122
  149SOL    HW2  469   0.000   1.217   0.984
  150SOL     OW  470   0.688   1.662   1.716
  150SOL    HW1  471   0.632   1.743   1.725
  150SOL    HW2  472   0.740   1.666   1.630
  151SOL     OW  473   0.903   0.086   0.133
  151SOL    HW1  474   0.954   0.087   0.047
  151SOL    HW2  475   0.959   0.044   0.204
  152SOL     OW  476   1.726   0.135   0.523
  152SOL    HW1  477   1.799   0.118   0.456
  152SOL    HW2  478   1.695   0.048   0.561
  153SOL     OW  479   1.388   1.573   0.477
  153SOL    HW1  480   1.455   1.585   0.403
  153SOL    HW2  481   1.348   1.662   0.500
  154SOL     OW  482   0.130   1.794   1.851
  154SOL    HW1  483   0.089   1.720   1.904
  154SOL    HW2  484   0.194   1.845   1.909
  155SOL     OW  485   1.280   0.927   0.672
  155SOL    HW1  486   1.340   0.846   0.674
  155SOL    HW2  487   1.320   0.996   0.612
  156SOL     OW  488   0.830   1.273   1.422
  156SOL    HW1  489   0.825   1.306   1.517
  156SOL    HW2  490   0.744   1.292   1.376
  157SOL     OW  491   0.672   1.616   0.154
  157SOL    HW1  492   0.681   1.626   0.055
  157SOL    HW2  493   0.632   1.527   0.175
  158SOL     OW  494   1.650   1.720   1.394
  158SOL    HW1  495   1.703   1.730   1.310
  158SOL    HW2  496   1.623   1.810   1.428
  159SOL     OW  497   1.841   0.175   0.963
  159SOL    HW1  498   1.880   0.090   0.927
  159SOL    HW2  499   1.743   0.177   0.944
  160SOL     OW  500   0.263   0.326   0.720
  160SOL    HW1  501   0.184   0.377   0.686
  160SOL    HW2  502   0.254   0.311   0.818
  161SOL     OW  503   1.194   1.612   0.031
  161SOL    HW1  504   1.200   1.519   0.068
  161SOL    HW2  505   1.135   1.612  -0.049
  162SOL     OW  506   0.822   1.002   1.372
  162SOL    HW1  507   0.862   1.001   1.280
  162SOL    HW2  508   0.832   1.094   1.412
  163SOL     OW  509   0.916   0.910   0.291
  163SOL    HW1  510   0.979   0.948   0.223
  163SOL    HW2  511   0.956   0.827   0.330
  164SOL     OW  512   1.504   1.607   0.044
  164SOL    HW1  513   1.412   1.644   0.051
  164SOL    HW2  514   1.542   1.627  -0.046
  165SOL     OW  515   0.372   1.288   1.490
  165SOL    HW1  516   0.359   1.381   1.456
  165SOL    HW2  517   0.288   1.236   1.477
  166SOL     OW  518   1.039   1.098   0.696
  166SOL    HW1  519   0.969   1.051   0.750
  166SOL    HW2  520   1.098   1.030   0.653
  167SOL     OW  521   1.014   0.236   0.971
  167SOL    HW1  522   1.006   0.200   0.878
  167SOL    HW2  523   1.012   0.160   1.036
  168SOL     OW  524   0.590   1.487   0.491
  168SOL    HW1  525   0.632   1.429   0.421
  168SOL    HW2  526   0.546   1.566   0.447
  169SOL     OW  527   1.709   0.385   1.381
  169SOL    HW1  528   1.782   0.454   1.385
  169SOL    HW2  529   1.737   0.310   1.322
  170SOL     OW  530   0.255   1.348   0.290
  170SOL    HW1  531   0.159   1.349   0.263
  170SOL    HW2  532   0.267   1.401   0.374
  171SOL     OW  533   0.105   1.013   1.726
  171SOL    HW1  534   0.028   0.980   1.780
  171SOL    HW2  535   0.190   0.983   1.768
  172SOL     OW  536   0.672   0.203   1.489
  172SOL    HW1  537   0.762   0.187   1.449
  172SOL    HW2  538   0.680   0.208   1.588
  173SOL     OW  539   0.075   0.345   0.033
  173SOL    HW1  540  -0.017   0.317   0.004
  173SOL    HW2  541   0.106   0.422  -0.023
  174SOL     OW  542   1.440   0.856   1.398
  174SOL    HW1  543   1.383   0.908   1.335
  174SOL    HW2  544   1.536   0.868   1.374
  175SOL     OW  545   0.072   0.166   0.318
  175SOL    HW1  546   0.055   0.249   0.264
  175SOL    HW2  547   0.162   0.129   0.296
  176SOL     OW  548   1.183   1.335   0.119
  176SOL    HW1  549   1.084   1.324   0.121
  176SOL    HW2  550   1.217   1.350   0.212
  177SOL     OW  551   0.613   0.842   1.431
  177SOL    HW1  552   0.669   0.923   1.414
  177SOL    HW2  553   0.672   0.762   1.434
  178SOL     OW  554   1.493   1.767   0.959
  178SOL    HW1  555   1.526   1.831   0.890
  178SOL    HW2  556   1.559   1.761   1.034
  179SOL     OW  557   0.716   0.565   1.708
  179SOL    HW1  558   0.735   0.630   1.782
  179SOL    HW2  559   0.776   0.485   1.717
  180SOL     OW  560   1.450   1.220   1.633
  180SOL    HW1  561   1.441   1.210   1.732
  180SOL    HW2  562   1.546   1.213   1.607
  181SOL     OW  563   0.390   1.741   1.560
  181SOL    HW1  564   0.299   1.782   1.558
  181SOL    HW2  565   0.383   1.647   1.592
  182SOL     OW  566   1.674   0.883   1.254
  182SOL    HW1  567   1.647   0.794   1.217
  182SOL    HW2  568   1.675   0.951   1.181
  183SOL     OW  569   1.225   0.325   0.449
  183SOL    HW1  570   1.290   0.251   0.438
  183SOL    HW2  571   1.245   0.375   0.533
  184SOL     OW  572   0.594   0.745   0.652
  184SOL    HW1  573   0.644   0.830   0.633
  184SOL    HW2  574   0.506   0.747   0.604
  185SOL     OW  575   1.777   0.342   1.642
  185SOL    HW1  576   1.760   0.373   1.548
  185SOL    HW2  577   1.693   0.305   1.680
  186SOL     OW  578   1.730   0.934   1.517
  186SOL    HW1  579   1.768   1.025   1.532
  186SOL    HW2  580   1.722   0.917   1.418
  187SOL     OW  581   0.859   1.374   0.016
  187SOL    HW1  582   0.813   1.389   0.104
  187SOL    HW2  583   0.903   1.459  -0.014
  188SOL     OW  584   0.661   1.790   0.953
  188SOL    HW1  585   0.615   1.878   0.940
  188SOL    HW2  586   0.760   1.802   0.946
  189SOL     OW  587   0.859   0.956   0.861
  189SOL    HW1  588   0.913   0.887   0.909
  189SOL    HW2  589   0.827   1.025   0.927
  190SOL     OW  590   1.083   0.984   0.087
  190SOL    HW1  591   1.060   1.037   0.005
  190SOL    HW2  592   1.164   0.928   0.068
  191SOL     OW  593   1.861   1.569   0.851
  191SOL    HW1  594   1.790   1.557   0.781
  191SOL    HW2  595   1.862   1.490   0.911
  192SOL     OW  596   0.221   1.314   1.844
  192SOL    HW1  597   0.156   1.241   1.823
  192SOL    HW2  598   0.225   1.328   1.942
  193SOL     OW  599   0.079   1.240   0.653
  193SOL    HW1  600   0.078   1.193   0.741
  193SOL    HW2  601   0.161   1.212   0.602
  194SOL     OW  602   0.672   1.391   1.624
  194SOL    HW1  603   0.594   1.341   1.662
  194SOL    HW2  604   0.669   1.486   1.655
  195SOL     OW  605   1.824   0.192   1.227
  195SOL    HW1  606   1.820   0.102   1.271
  195SOL    HW2  607   1.827   0.181   1.128
  196SOL     OW  608   0.428   0.424   0.520
  196SOL    HW1  609   0.458   0.352   0.458
  196SOL    HW2  610   0.389   0.384   0.603
  197SOL     OW  611   1.705   1.487   1.104
  197SOL    HW1  612   1.612   1.462   1.077
  197SOL    HW2  613   1.731   1.437   1.186
  198SOL     OW  614   0.317   0.547   1.280
  198SOL    HW1  615   0.355   0.488   1.352
  198SOL    HW2  616   0.357   0.521   1.192
  199SOL     OW  617   0.812   1.586   0.687
  199SOL    HW1  618   0.844   1.596   0.593
  199SOL    HW2  619   0.733   1.524   0.689
  200SOL     OW  620   1.424   0.214   1.112
  200SOL    HW1  621   1.476   0.149   1.167
  200SOL    HW2  622   1.375   0.277   1.173
  201SOL     OW  623   1.001   0.034   1.154
  201SOL    HW1  624   0.938  -0.038   1.123
  201SOL    HW2  625   1.094  -0.002   1.154
  202SOL     OW  626   0.770   1.330   0.301
  202SOL    HW1  627   0.724   1.243   0.318
  202SOL    HW2  628   0.861   1.327   0.342
  203SOL     OW  629   0.618   1.567   1.284
  203SOL    HW1  630   0.613   1.649   1.341
  203SOL    HW2  631   0.707   1.564   1.239
  204SOL     OW  632   1.352   0.052   0.168
  204SOL    HW1  633   1.387   0.011   0.084
  204SOL    HW2  634   1.262   0.014   0.188
  205SOL     OW  635   1.300   0.453   0.691
  205SOL    HW1  636   1.241   0.533   0.695
  205SOL    HW2  637   1.315   0.418   0.784
  206SOL     OW  638   1.593   0.221   0.882
  206SOL    HW1  639   1.509   0.220   0.936
  206SOL    HW2  640   1.595   0.304   0.826
  207SOL     OW  641   0.039   1.077   0.300
  207SOL    HW1  642   0.138   1.066   0.291
  207SOL    HW2  643  -0.001   0.991   0.332
  208SOL     OW  644   0.875   1.646   0.337
  208SOL    HW1  645   0.798   1.611   0.283
  208SOL    HW2  646   0.843   1.717   0.399
  209SOL     OW  647   0.230   0.628   1.975
  209SOL    HW1  648   0.137   0.626   2.012
  209SOL    HW2  649   0.231   0.589   1.883
  210SOL     OW  650   0.225   0.275   2.858
  210SOL    HW1  651   0.260   0.258   2.950
  210SOL    HW2  652   0.137   0.230   2.846
  211SOL     OW  653   0.019   0.368   2.509
  211SOL    HW1  654  -0.063   0.411   2.548
  211SOL    HW2  655  -0.009   0.295   2.446
  212SOL     OW  656   0.569   1.275   3.027
  212SOL    HW1  657   0.476   1.268   2.990
  212SOL    HW2  658   0.580   1.364   3.071
  213SOL     OW  659   1.555   1.511   2.565
  213SOL    HW1  660   1.498   1.495   2.646
  213SOL    HW2  661   1.496   1.521   2.485
  214SOL     OW  662   1.135   0.703   2.579
  214SOL    HW1  663   1.192   0.781   2.554
  214SOL    HW2  664   1.075   0.729   2.655
  215SOL     OW  665   1.755   0.607   2.093
  215SOL    HW1  666   1.743   0.594   1.994
  215SOL    HW2  667   1.725   0.526   2.142
  216SOL     OW  668   0.768   1.144   2.885
  216SOL    HW1  669   0.690   1.161   2.945
  216SOL    HW2  670   0.802   1.231   2.849
  217SOL     OW  671   0.685   1.012   2.527
  217SOL    HW1  672   0.754   0.996   2.597
  217SOL    HW2  673   0.612   1.069   2.565
  218SOL     OW  674   0.335   1.435   2.923
  218SOL    HW1  675   0.257   1.404   2.870
  218SOL    HW2  676   0.393   1.493   2.866
  219SOL     OW  677   1.603   0.447   2.599
  219SOL    HW1  678   1.529   0.493   2.549
  219SOL    HW2  679   1.654   0.515   2.652
  220SOL     OW  680   0.231   1.713   2.345
  220SOL    HW1  681   0.265   1.790   2.399
  220SOL    HW2  682   0.275   1.713   2.255
  221SOL     OW  683   0.230   1.434   2.400
  221SOL    HW1  684   0.204   1.530   2.400
  221SOL    HW2  685   0.159   1.380   2.445
  222SOL     OW  686   0.240   1.091   2.748
  222SOL    HW1  687   0.254   1.007   2.800
  222SOL    HW2  688   0.185   1.155   2.803
  223SOL     OW  689   0.606   0.964   1.985
  223SOL    HW1  690   0.613   1.048   1.931
  223SOL    HW2  691   0.652   0.977   2.073
  224SOL     OW  692   0.122   0.643   2.425
  224SOL    HW1  693   0.077   0.555   2.442
  224SOL    HW2  694   0.121   0.697   2.509
  225SOL     OW  695   1.842   1.767   2.221
  225SOL    HW1  696   1.896   1.738   2.301
  225SOL    HW2  697   1.872   1.857   2.192
  226SOL     OW  698   0.027   1.596   1.979
  226SOL    HW1  699   0.008   1.500   2.000
  226SOL    HW2  700  -0.006   1.654   2.054
  227SOL     OW  701   1.689   0.922   2.474
  227SOL    HW1  702   1.784   0.893   2.482
  227SOL    HW2  703   1.681   0.987   2.399
  228SOL     OW  704   1.641   1.108   2.294
  228SOL    HW1  705   1.727   1.110   2.242
  228SOL    HW2  706   1.655   1.155   2.382
  229SOL     OW  707   0.613   1.365   2.588
  229SOL    HW1  708   0.564   1.278   2.597
  229SOL    HW2  709   0.590   1.408   2.501
  230SOL     OW  710   0.809   0.004   2.364
  230SOL    HW1  711   0.849   0.095   2.355
  230SOL    HW2  712   0.709   0.012   2.370
  231SOL     OW  713   0.197   0.976   3.126
  231SOL    HW1  714   0.286   0.931   3.112
  231SOL    HW2  715   0.124   0.911   3.107
  232SOL     OW  716   1.525   0.999   2.052
  232SOL    HW1  717   1.462   0.923   2.065
  232SOL    HW2  718   1.573   1.017   2.138
  233SOL     OW  719   1.466   1.417   2.815
  233SOL    HW1  720   1.407   1.423   2.895
  233SOL    HW2  721   1.451   1.329   2.769
  234SOL     OW  722   1.667   1.714   2.434
  234SOL    HW1  723   1.626   1.691   2.346
  234SOL    HW2  724   1.649   1.640   2.499
  235SOL     OW  725   0.598   0.729   2.132
  235SOL    HW1  726   0.622   0.798   2.064
  235SOL    HW2  727   0.520   0.762   2.186
  236SOL     OW  728   1.281   0.345   2.806
  236SOL    HW1  729   1.195   0.295   2.793
  236SOL    HW2  730   1.343   0.291   2.862
  237SOL     OW  731   1.576   1.662   2.169
  237SOL    HW1  732   1.665   1.708   2.172
  237SOL    HW2  733   1.555   1.638   2.074
  238SOL     OW  734   1.041   0.701   2.291
  238SOL    HW1  735   1.067   0.697   2.387
  238SOL    HW2  736   0.956   0.650   2.277
  239SOL     OW  737   0.076   0.811   2.651
  239SOL    HW1  738   0.175   0.799   2.660
  239SOL    HW2  739   0.052   0.906   2.672
  240SOL     OW  740   0.865   0.348   2.057
  240SOL    HW1  741   0.924   0.411   2.008
  240SOL    HW2  742   0.884   0.254   2.028
  241SOL     OW  743   1.362   1.144   2.407
  241SOL    HW1  744   1.445   1.115   2.359
  241SOL    HW2  745   1.313   1.211   2.351
  242SOL     OW  746   0.550   0.196   2.747
  242SOL    HW1  747   0.545   0.191   2.847
  242SOL    HW2  748   0.552   0.292   2.718
  243SOL     OW  749   1.008   1.456   2.339
  243SOL    HW1  750   0.962   1.528   2.287
  243SOL    HW2  751   1.004   1.476   2.437
  244SOL     OW  752   0.351   1.801   2.715
  244SOL    HW1  753   0.401   1.715   2.721
  244SOL    HW2  754   0.416   1.878   2.712
  245SOL     OW  755   1.795   1.066   2.735
  245SOL    HW1  756   1.733   1.051   2.659
  245SOL    HW2  757   1.743   1.077   2.820
  246SOL     OW  758   0.321   0.943   2.104
  246SOL    HW1  759   0.403   0.982   2.062
  246SOL    HW2  760   0.294   0.861   2.055
  247SOL     OW  761   1.458   0.735   2.590
  247SOL    HW1  762   1.453   0.670   2.665
  247SOL    HW2  763   1.538   0.794   2.603
  248SOL     OW  764   1.111   1.776   2.099
  248SOL    HW1  765   1.051   1.714   2.149
  248SOL    HW2  766   1.142   1.732   2.014
  249SOL     OW  767   1.632   1.377   1.943
  249SOL    HW1  768   1.600   1.471   1.933
  249SOL    HW2  769   1.556   1.314   1.931
  250SOL     OW  770   0.464   1.743   2.185
  250SOL    HW1  771   0.497   1.782   2.271
  250SOL    HW2  772   0.540   1.736   2.120
  251SOL     OW  773   1.400   0.107   2.288
  251SOL    HW1  774   1.376   0.070   2.198
  251SOL    HW2  775   1.499   0.123   2.292
  252SOL     OW  776   0.249   1.785   3.103
  252SOL    HW1  777   0.306   1.720   3.153
  252SOL    HW2  778   0.233   1.752   3.010
  253SOL     OW  779   0.940   1.698   2.766
  253SOL    HW1  780   1.020   1.641   2.787
  253SOL    HW2  781   0.891   1.658   2.689
  254SOL     OW  782   0.382   0.700   2.342
  254SOL    HW1  783   0.427   0.610   2.339
  254SOL    HW2  784   0.288   0.689   2.375
  255SOL     OW  785   0.614   0.122   1.979
  255SOL    HW1  786   0.712   0.100   1.986
  255SOL    HW2  787   0.583   0.105   1.886
  256SOL     OW  788   0.803   1.402   2.786
  256SOL    HW1  789   0.893   1.416   2.744
  256SOL    HW2  790   0.732   1.404   2.715
  257SOL     OW  791   0.922   0.503   2.761
  257SOL    HW1  792   0.897   0.494   2.665
  257SOL    HW2  793   0.970   0.421   2.792
  258SOL     OW  794   0.539   0.064   2.374
  258SOL    HW1  795   0.458   0.065   2.432
  258SOL    HW2  796   0.542   0.147   2.319
  259SOL     OW  797   1.434   1.188   1.903
  259SOL    HW1  798   1.466   1.112   1.960
  259SOL    HW2  799   1.342   1.215   1.933
  260SOL     OW  800   0.297   0.035   2.033
  260SOL    HW1  801   0.346   0.119   2.012
  260SOL    HW2  802   0.359  -0.030   2.078
  261SOL     OW  803   0.935   0.236   2.342
  261SOL    HW1  804   0.887   0.277   2.264
  261SOL    HW2  805   1.034   0.234   2.323
  262SOL     OW  806   1.227   1.570   2.655
  262SOL    HW1  807   1.248   1.644   2.590
  262SOL    HW2  808   1.295   1.570   2.728
  263SOL     OW  809   0.459   1.152   2.603
  263SOL    HW1  810   0.388   1.125   2.668
  263SOL    HW2  811   0.433   1.124   2.510
  264SOL     OW  812   1.271   1.797   2.453
  264SOL    HW1  813   1.315   1.861   2.389
  264SOL    HW2  814   1.221   1.849   2.523
  265SOL     OW  815   1.032   0.549   1.878
  265SOL    HW1  816   0.991   0.631   1.839
  265SOL    HW2  817   1.096   0.575   1.951
  266SOL     OW  818   0.866   0.454   2.504
  266SOL    HW1  819   0.834   0.526   2.442
  266SOL    HW2  820   0.890   0.373   2.451
  267SOL     OW  821   1.017   0.039   2.615
  267SOL    HW1  822   0.945   0.044   2.546
  267SOL    HW2  823   0.993  -0.030   2.684
  268SOL     OW  824   1.429   1.173   2.729
  268SOL    HW1  825   1.374   1.089   2.722
  268SOL    HW2  826   1.455   1.202   2.637
  269SOL     OW  827   1.466   0.590   2.854
  269SOL    HW1  828   1.436   0.495   2.861
  269SOL    HW2  829   1.539   0.606   2.920
  270SOL     OW  830   1.857   0.833   2.239
  270SOL    HW1  831   1.899   0.769   2.303
  270SOL    HW2  832   1.819   0.782   2.161
  271SOL     OW  833   0.488   1.385   2.036
  271SOL    HW1  834   0.401   1.370   2.083
  271SOL    HW2  835   0.471   1.411   1.941
  272SOL     OW  836   1.664   1.280   2.519
  272SOL    HW1  837   1.763   1.288   2.533
  272SOL    HW2  838   1.619   1.364   2.550
  273SOL     OW  839   1.390   0.575   1.940
  273SOL    HW1  840   1.336   0.554   2.021
  273SOL    HW2  841   1.481   0.534   1.949
  274SOL     OW  842   0.527   0.256   2.190
  274SOL    HW1  843   0.554   0.197   2.115
  274SOL    HW2  844   0.527   0.351   2.159
  275SOL     OW  845   1.111   1.195   2.962
  275SOL    HW1  846   1.071   1.239   3.043
  275SOL    HW2  847   1.070   1.232   2.879
  276SOL     OW  848   1.638   1.099   2.941
  276SOL    HW1  849   1.643   1.180   3.000
  276SOL    HW2  850   1.552   1.101   2.890
  277SOL     OW  851   0.705   1.050   2.230
  277SOL    HW1  852   0.691   1.057   2.329
  277SOL    HW2  853   0.789   0.999   2.212
  278SOL     OW  854   0.410   0.813   3.113
  278SOL    HW1  855   0.496   0.825   3.163
  278SOL    HW2  856   0.368   0.726   3.140
  279SOL     OW  857   0.367   1.100   2.363
  279SOL    HW1  858   0.360   1.183   2.307
  279SOL    HW2  859   0.371   1.020   2.303
  280SOL     OW  860   0.566   0.537   2.727
  280SOL    HW1  861   0.578   0.603   2.653
  280SOL    HW2  862   0.612   0.571   2.810
  281SOL     OW  863   1.252   1.348   2.250
  281SOL    HW1  864   1.302   1.425   2.290
  281SOL    HW2  865   1.157   1.350   2.282
  282SOL     OW  866   1.272   1.445   3.004
  282SOL    HW1  867   1.319   1.458   3.091
  282SOL    HW2  868   1.206   1.371   3.013
  283SOL     OW  869   1.582   0.639   2.334
  283SOL    HW1  870   1.551   0.700   2.407
  283SOL    HW2  871   1.632   0.691   2.265
  284SOL     OW  872   0.354   1.510   3.191
  284SOL    HW1  873   0.333   1.466   3.104
  284SOL    HW2  874   0.451   1.536   3.194
  285SOL     OW  875   0.573   0.870   2.891
  285SOL    HW1  876   0.617   0.959   2.882
  285SOL    HW2  877   0.510   0.870   2.968
  286SOL     OW  878   1.209   0.525   2.137
  286SOL    HW1  879   1.222   0.441   2.191
  286SOL    HW2  880   1.180   0.599   2.197
  287SOL     OW  881   0.307   0.213   3.093
  287SOL    HW1  882   0.284   0.250   3.183
  287SOL    HW2  883   0.277   0.118   3.087
  288SOL     OW  884   0.732   0.634   2.926
  288SOL    HW1  885   0.791   0.608   2.850
  288SOL    HW2  886   0.704   0.730   2.915
  289SOL     OW  887   0.307   0.063   2.480
  289SOL    HW1  888   0.296   0.157   2.513
  289SOL    HW2  889   0.302   0.000   2.557
  290SOL     OW  890   1.622   0.367   2.236
  290SOL    HW1  891   1.624   0.291   2.300
  290SOL    HW2  892   1.574   0.444   2.276
  291SOL     OW  893   1.023   0.766   2.828
  291SOL    HW1  894   1.038   0.787   2.924
  291SOL    HW2  895   0.993   0.671   2.819
  292SOL     OW  896   1.540   0.274   1.987
  292SOL    HW1  897   1.479   0.199   2.010
  292SOL    HW2  898   1.562   0.326   2.070
  293SOL     OW  899   1.303   0.838   1.904
  293SOL    HW1  900   1.337   0.745   1.919
  293SOL    HW2  901   1.321   0.865   1.809
  294SOL     OW  902   1.068   1.333   2.711
  294SOL    HW1  903   1.075   1.249   2.656
  294SOL    HW2  904   1.130   1.402   2.675
  295SOL     OW  905   0.319   0.810   2.811
  295SOL    HW1  906   0.412   0.846   2.816
  295SOL    HW2  907   0.313   0.725   2.863
  296SOL     OW  908   0.339   0.509   2.868
  296SOL    HW1  909   0.287   0.426   2.851
  296SOL    HW2  910   0.416   0.514   2.804
  297SOL     OW  911   0.008   1.326   2.062
  297SOL    HW1  912  -0.085   1.347   2.031
  297SOL    HW2  913   0.018   1.227   2.075
  298SOL     OW  914   0.088   1.801   2.789
  298SOL    HW1  915   0.046   1.715   2.762
  298SOL    HW2  916   0.182   1.804   2.755
  299SOL     OW  917   0.504   1.568   2.772
  299SOL    HW1  918   0.570   1.642   2.781
  299SOL    HW2  919   0.548   1.489   2.730
  300SOL     OW  920   1.002   0.796   3.100
  300SOL    HW1  921   1.043   0.764   3.186
  300SOL    HW2  922   0.906   0.769   3.097
  301SOL     OW  923   0.815   0.572   2.187
  301SOL    HW1  924   0.822   0.483   2.141
  301SOL    HW2  925   0.721   0.606   2.179
  302SOL     OW  926   0.671   0.464   3.131
  302SOL    HW1  927   0.637   0.375   3.101
  302SOL    HW2  928   0.697   0.518   3.051
  303SOL     OW  929   0.473   0.500   2.053
  303SOL    HW1  930   0.534   0.580   2.057
  303SOL    HW2  931   0.378   0.531   2.060
  304SOL     OW  932   1.302   0.855   2.171
  304SOL    HW1  933   1.216   0.824   2.213
  304SOL    HW2  934   1.298   0.841   2.072
  305SOL     OW  935   1.759   1.747   3.016
  305SOL    HW1  936   1.820   1.777   2.943
  305SOL    HW2  937   1.721   1.658   2.994
  306SOL     OW  938   0.083   1.258   2.884
  306SOL    HW1  939   0.078   1.257   2.984
  306SOL    HW2  940   0.000   1.217   2.846
  307SOL     OW  941   1.726   0.135   2.385
  307SOL    HW1  942   1.799   0.118   2.318
  307SOL    HW2  943   1.695   0.048   2.423
  308SOL     OW  944   1.388   1.573   2.339
  308SOL    HW1  945   1.455   1.585   2.265
  308SOL    HW2  946   1.348   1.662   2.362
  309SOL     OW  947   1.280   0.927   2.534
  309SOL    HW1  948   1.340   0.846   2.536
  309SOL    HW2  949   1.320   0.996   2.474
  310SOL     OW  950   0.672   1.616   2.016
  310SOL    HW1  951   0.681   1.626   1.917
  310SOL    HW2  952   0.632   1.527   2.037
  311SOL     OW  953   1.841   0.175   2.825
  311SOL    HW1  954   1.880   0.090   2.789
  311SOL    HW2  955   1.743   0.177   2.806
  312SOL     OW  956   0.263   0.326   2.582
  312SOL    HW1  957   0.184   0.377   2.548
  312SOL    HW2  958   0.254   0.311   2.680
  313SOL     OW  959   0.822   1.002   3.234
  313SOL    HW1  960   0.862   1.001   3.142
  313SOL    HW2  961   0.832   1.094   3.274
  314SOL     OW  962   0.916   0.910   2.153
  314SOL    HW1  963   0.979   0.948   2.085
  314SOL    HW2  964   0.956   0.827   2.192
  315SOL     OW  965   1.504   1.607   1.906
  315SOL    HW1  966   1.412   1.644   1.913
  315SOL    HW2  967   1.542   1.627   1.816
  316SOL     OW  968   1.039   1.098   2.558
  316SOL    HW1  969   0.969   1.051   2.612
  316SOL    HW2  970   1.098   1.030   2.515
  317SOL     OW  971   1.014   0.236   2.833
  317SOL    HW1  972   1.006   0.200   2.740
  317SOL    HW2  973   1.012   0.160   2.898
  318SOL     OW  974   0.590   1.487   2.353
  318SOL    HW1  975   0.632   1.429   2.283
  318SOL    HW2  976   0.546   1.566   2.309
  319SOL     OW  977   0.255   1.348   2.152
  319SOL    HW1  978   0.159   1.349   2.125
  319SOL    HW2  979   0.267   1.401   2.236
  320SOL     OW  980   0.075   0.345   1.895
  320SOL    HW1  981  -0.017   0.317   1.866
  320SOL    HW2  982   0.106   0.422   1.839
  321SOL     OW  983   0.072   0.166   2.180
  321SOL    HW1  984   0.055   0.249   2.126
  321SOL    HW2  985   0.162   0.129   2.158
  322SOL     OW  986   1.183   1.335   1.981
  322SOL    HW1  987   1.084   1.324   1.983
  322SOL    HW2  988   1.217   1.350   2.074
  323SOL     OW  989   1.493   1.767   2.821
  323SOL    HW1  990   1.526   1.831   2.752
  323SOL    HW2  991   1.559   1.761   2.896
  324SOL     OW  992   1.674   0.883   3.116
  324SOL    HW1  993   1.647   0.794   3.079
  324SOL    HW2  994   1.675   0.951   3.043
  325SOL     OW  995   1.225   0.325   2.311
  325SOL    HW1  996   1.290   0.251   2.300
  325SOL    HW2  997   1.245   0.375   2.395
  326SOL     OW  998   0.594   0.745   2.514
  326SOL    HW1  999   0.644   0.830   2.495
  326SOL    HW2 1000   0.506   0.747   2.466
  327SOL     OW 1001   0.859   1.374   1.878
  327SOL    HW1 1002   0.813   1.389   1.966
  327SOL    HW2 1003   0.903   1.459   1.848
  328SOL     OW 1004   0.661   1.790   2.815
  328SOL    HW1 1005   0.615   1.878   2.802
  328SOL    HW2 1006   0.760   1.802   2.808
  329SOL     OW 1007   0.859   0.956   2.723
  329SOL    HW1 1008   0.913   0.887   2.771
  329SOL    HW2 1009   0.827   1.025   2.789
  330SOL     OW 1010   1.083   0.984   1.949
  330SOL    HW1 1011   1.060   1.037   1.867
  330SOL    HW2 1012   1.164   0.928   1.930
  331SOL     OW 1013   1.861   1.569   2.713
  331SOL    HW1 1014   1.790   1.557   2.643
  331SOL    HW2 1015   1.862   1.490   2.773
  332SOL     OW 1016   0.079   1.240   2.515
  332SOL    HW1 1017   0.078   1.193   2.603
  332SOL    HW2 1018   0.161   1.212   2.464
  333SOL     OW 1019   1.824   0.192   3.089
  333SOL    HW1 1020   1.820   0.102   3.133
  333SOL    HW2 1021   1.827   0.181   2.990
  334SOL     OW 1022   0.428   0.424   2.382
  334SOL    HW1 1023   0.458   0.352   2.320
  334SOL    HW2 1024   0.389   0.384   2.465
  335SOL     OW 1025   0.812   1.586   2.549
  335SOL    HW1 1026   0.844   1.596   2.455
  335SOL    HW2 1027   0.733   1.524   2.551
  336SOL     OW 1028   1.424   0.214   2.974
  336SOL    HW1 1029   1.476   0.149   3.029
  336SOL    HW2 1030   1.375   0.277   3.035
  337SOL     OW 1031   0.770   1.330   2.163
  337SOL    HW1 1032   0.724   1.243   2.180
  337SOL    HW2 1033   0.861   1.327   2.204
  338SOL     OW 1034   1.352   0.052   2.030
  338SOL    HW1 1035   1.387   0.011   1.946
  338SOL    HW2 1036   1.262   0.014   2.050
  339SOL     OW 1037   1.300   0.453   2.553
  339SOL    HW1 1038   1.241   0.533   2.557
  339SOL    HW2 1039   1.315   0.418   2.646
  340SOL     OW 1040   1.593   0.221   2.744
  340SOL    HW1 1041   1.509   0.220   2.798
  340SOL    HW2 1042   1.595   0.304   2.688
  341SOL     OW 1043   0.039   1.077   2.162
  341SOL    HW1 1044   0.138   1.066   2.153
  341SOL    HW2 1045  -0.001   0.991   2.194
  342SOL     OW 1046   0.875   1.646   2.199
  342SOL    HW1 1047   0.798   1.611   2.145
  342SOL    HW2 1048   0.843   1.717   2.261
  343SOL     OW 1049   0.230   2.490   0.113
  343SOL    HW1 1050   0.137   2.488   0.150
  343SOL    HW2 1051   0.231   2.451   0.021
  344SOL     OW 1052   0.225   2.137   0.996
  344SOL    HW1 1053   0.260   2.120   1.088
  344SOL    HW2 1054   0.137   2.092   0.984
  345SOL     OW 1055   0.019   2.230   0.647
  345SOL    HW1 1056  -0.063   2.273   0.686
  345SOL    HW2 1057  -0.009   2.157   0.584
  346SOL     OW 1058   1.135   2.565   0.717
  346SOL    HW1 1059   1.192   2.643   0.692
  346SOL    HW2 1060   1.075   2.591   0.793
  347SOL     OW 1061   1.755   2.469   0.231
  347SOL    HW1 1062   1.743   2.456   0.132
  347SOL    HW2 1063   1.725   2.388   0.280
  348SOL     OW 1064   0.768   3.006   1.023
  348SOL    HW1 1065   0.690   3.023   1.083
  348SOL    HW2 1066   0.802   3.093   0.987
  349SOL     OW 1067   0.850   2.660   1.823
  349SOL    HW1 1068   0.846   2.736   1.888
  349SOL    HW2 1069   0.872   2.696   1.732
  350SOL     OW 1070   0.685   2.874   0.665
  350SOL    HW1 1071   0.754   2.858   0.735
  350SOL    HW2 1072   0.612   2.931   0.703
  351SOL     OW 1073   1.460   3.367   1.339
  351SOL    HW1 1074   1.484   3.461   1.365
  351SOL    HW2 1075   1.444   3.313   1.421
  352SOL     OW 1076   0.438   2.254   1.499
  352SOL    HW1 1077   0.520   2.198   1.508
  352SOL    HW2 1078   0.357   2.196   1.503
  353SOL     OW 1079   1.603   2.309   0.737
  353SOL    HW1 1080   1.529   2.355   0.687
  353SOL    HW2 1081   1.654   2.377   0.790
  354SOL     OW 1082   0.240   2.953   0.886
  354SOL    HW1 1083   0.254   2.869   0.938
  354SOL    HW2 1084   0.185   3.017   0.941
  355SOL     OW 1085   0.606   2.826   0.123
  355SOL    HW1 1086   0.613   2.910   0.069
  355SOL    HW2 1087   0.652   2.839   0.211
  356SOL     OW 1088   1.594   1.976   1.480
  356SOL    HW1 1089   1.576   2.043   1.408
  356SOL    HW2 1090   1.591   2.022   1.569
  357SOL     OW 1091   0.122   2.505   0.563
  357SOL    HW1 1092   0.077   2.417   0.580
  357SOL    HW2 1093   0.121   2.559   0.647
  358SOL     OW 1094   1.689   2.784   0.612
  358SOL    HW1 1095   1.784   2.755   0.620
  358SOL    HW2 1096   1.681   2.849   0.537
  359SOL     OW 1097   0.113   2.599   1.597
  359SOL    HW1 1098   0.201   2.586   1.642
  359SOL    HW2 1099   0.100   2.696   1.575
  360SOL     OW 1100   0.613   3.227   0.726
  360SOL    HW1 1101   0.564   3.140   0.735
  360SOL    HW2 1102   0.590   3.270   0.639
  361SOL     OW 1103   1.293   3.090   1.423
  361SOL    HW1 1104   1.330   3.017   1.365
  361SOL    HW2 1105   1.345   3.095   1.508
  362SOL     OW 1106   0.809   1.866   0.502
  362SOL    HW1 1107   0.849   1.957   0.493
  362SOL    HW2 1108   0.709   1.874   0.508
  363SOL     OW 1109   0.197   2.838   1.264
  363SOL    HW1 1110   0.286   2.793   1.250
  363SOL    HW2 1111   0.124   2.773   1.245
  364SOL     OW 1112   1.525   2.861   0.190
  364SOL    HW1 1113   1.462   2.785   0.203
  364SOL    HW2 1114   1.573   2.879   0.276
  365SOL     OW 1115   0.317   2.113   1.801
  365SOL    HW1 1116   0.388   2.184   1.807
  365SOL    HW2 1117   0.229   2.152   1.829
  366SOL     OW 1118   0.598   2.591   0.270
  366SOL    HW1 1119   0.622   2.660   0.202
  366SOL    HW2 1120   0.520   2.624   0.324
  367SOL     OW 1121   1.281   2.207   0.944
  367SOL    HW1 1122   1.195   2.157   0.931
  367SOL    HW2 1123   1.343   2.153   1.000
  368SOL     OW 1124   0.807   2.467   1.465
  368SOL    HW1 1125   0.760   2.464   1.554
  368SOL    HW2 1126   0.756   2.412   1.399
  369SOL     OW 1127   1.394   2.331   1.674
  369SOL    HW1 1128   1.374   2.374   1.762
  369SOL    HW2 1129   1.472   2.269   1.683
  370SOL     OW 1130   0.973   2.752   1.572
  370SOL    HW1 1131   1.019   2.668   1.543
  370SOL    HW2 1132   0.917   2.786   1.497
  371SOL     OW 1133   0.991   2.272   1.242
  371SOL    HW1 1134   0.914   2.306   1.296
  371SOL    HW2 1135   0.957   2.221   1.163
  372SOL     OW 1136   1.041   2.563   0.429
  372SOL    HW1 1137   1.067   2.559   0.525
  372SOL    HW2 1138   0.956   2.512   0.415
  373SOL     OW 1139   0.076   2.673   0.789
  373SOL    HW1 1140   0.175   2.661   0.798
  373SOL    HW2 1141   0.052   2.768   0.810
  374SOL     OW 1142   0.865   2.210   0.195
  374SOL    HW1 1143   0.924   2.273   0.146
  374SOL    HW2 1144   0.884   2.116   0.166
  375SOL     OW 1145   1.719   2.447   1.831
  375SOL    HW1 1146   1.693   2.536   1.795
  375SOL    HW2 1147   1.717   2.379   1.758
  376SOL     OW 1148   0.550   2.058   0.885
  376SOL    HW1 1149   0.545   2.053   0.985
  376SOL    HW2 1150   0.552   2.154   0.856
  377SOL     OW 1151   1.795   2.928   0.873
  377SOL    HW1 1152   1.733   2.913   0.797
  377SOL    HW2 1153   1.743   2.939   0.958
  378SOL     OW 1154   0.321   2.805   0.242
  378SOL    HW1 1155   0.403   2.844   0.200
  378SOL    HW2 1156   0.294   2.723   0.193
  379SOL     OW 1157   1.458   2.597   0.728
  379SOL    HW1 1158   1.453   2.532   0.803
  379SOL    HW2 1159   1.538   2.656   0.741
  380SOL     OW 1160   0.202   2.147   1.498
  380SOL    HW1 1161   0.122   2.207   1.485
  380SOL    HW2 1162   0.192   2.098   1.584
  381SOL     OW 1163   1.400   1.969   0.426
  381SOL    HW1 1164   1.376   1.932   0.336
  381SOL    HW2 1165   1.499   1.985   0.430
  382SOL     OW 1166   0.382   2.562   0.480
  382SOL    HW1 1167   0.427   2.472   0.477
  382SOL    HW2 1168   0.288   2.551   0.513
  383SOL     OW 1169   1.547   2.084   1.729
  383SOL    HW1 1170   1.542   2.121   1.821
  383SOL    HW2 1171   1.475   2.015   1.717
  384SOL     OW 1172   0.614   1.984   0.117
  384SOL    HW1 1173   0.712   1.962   0.124
  384SOL    HW2 1174   0.583   1.967   0.024
  385SOL     OW 1175   0.781   2.126   1.749
  385SOL    HW1 1176   0.848   2.065   1.792
  385SOL    HW2 1177   0.708   2.145   1.814
  386SOL     OW 1178   1.351   2.452   1.433
  386SOL    HW1 1179   1.379   2.409   1.518
  386SOL    HW2 1180   1.376   2.548   1.434
  387SOL     OW 1181   0.922   2.365   0.899
  387SOL    HW1 1182   0.897   2.356   0.803
  387SOL    HW2 1183   0.970   2.283   0.930
  388SOL     OW 1184   0.539   1.926   0.512
  388SOL    HW1 1185   0.458   1.927   0.570
  388SOL    HW2 1186   0.542   2.009   0.457
  389SOL     OW 1187   0.297   1.897   0.171
  389SOL    HW1 1188   0.346   1.981   0.150
  389SOL    HW2 1189   0.359   1.832   0.216
  390SOL     OW 1190   0.935   2.098   0.480
  390SOL    HW1 1191   0.887   2.139   0.402
  390SOL    HW2 1192   1.034   2.096   0.461
  391SOL     OW 1193   1.076   2.545   1.464
  391SOL    HW1 1194   0.996   2.484   1.467
  391SOL    HW2 1195   1.157   2.492   1.440
  392SOL     OW 1196   0.459   3.014   0.741
  392SOL    HW1 1197   0.388   2.987   0.806
  392SOL    HW2 1198   0.433   2.986   0.648
  393SOL     OW 1199   1.032   2.411   0.016
  393SOL    HW1 1200   0.991   2.493  -0.023
  393SOL    HW2 1201   1.096   2.437   0.089
  394SOL     OW 1202   0.078   2.418   1.386
  394SOL    HW1 1203   0.170   2.417   1.345
  394SOL    HW2 1204   0.072   2.492   1.453
  395SOL     OW 1205   0.561   2.084   1.147
  395SOL    HW1 1206   0.599   2.000   1.184
  395SOL    HW2 1207   0.473   2.103   1.191
  396SOL     OW 1208   0.866   2.316   0.642
  396SOL    HW1 1209   0.834   2.388   0.580
  396SOL    HW2 1210   0.890   2.235   0.589
  397SOL     OW 1211   1.017   1.901   0.753
  397SOL    HW1 1212   0.945   1.906   0.684
  397SOL    HW2 1213   0.993   1.832   0.822
  398SOL     OW 1214   1.429   3.035   0.867
  398SOL    HW1 1215   1.374   2.951   0.860
  398SOL    HW2 1216   1.455   3.064   0.775
  399SOL     OW 1217   1.466   2.452   0.992
  399SOL    HW1 1218   1.436   2.357   0.999
  399SOL    HW2 1219   1.539   2.468   1.058
  400SOL     OW 1220   1.857   2.695   0.377
  400SOL    HW1 1221   1.899   2.631   0.441
  400SOL    HW2 1222   1.819   2.644   0.299
  401SOL     OW 1223   1.390   2.437   0.078
  401SOL    HW1 1224   1.336   2.416   0.159
  401SOL    HW2 1225   1.481   2.396   0.087
  402SOL     OW 1226   0.527   2.118   0.328
  402SOL    HW1 1227   0.554   2.059   0.253
  402SOL    HW2 1228   0.527   2.213   0.297
  403SOL     OW 1229   1.754   3.085   1.588
  403SOL    HW1 1230   1.845   3.046   1.575
  403SOL    HW2 1231   1.762   3.181   1.612
  404SOL     OW 1232   1.638   2.961   1.079
  404SOL    HW1 1233   1.643   3.042   1.138
  404SOL    HW2 1234   1.552   2.963   1.028
  405SOL     OW 1235   0.915   1.951   1.402
  405SOL    HW1 1236   0.940   1.931   1.307
  405SOL    HW2 1237   0.987   2.007   1.444
  406SOL     OW 1238   0.705   2.912   0.368
  406SOL    HW1 1239   0.691   2.919   0.467
  406SOL    HW2 1240   0.789   2.861   0.350
  407SOL     OW 1241   0.410   2.675   1.251
  407SOL    HW1 1242   0.496   2.687   1.301
  407SOL    HW2 1243   0.368   2.588   1.278
  408SOL     OW 1244   1.274   2.248   1.262
  408SOL    HW1 1245   1.295   2.322   1.326
  408SOL    HW2 1246   1.185   2.265   1.219
  409SOL     OW 1247   0.367   2.962   0.501
  409SOL    HW1 1248   0.360   3.045   0.445
  409SOL    HW2 1249   0.371   2.882   0.441
  410SOL     OW 1250   0.566   2.399   0.865
  410SOL    HW1 1251   0.578   2.465   0.791
  410SOL    HW2 1252   0.612   2.433   0.948
  411SOL     OW 1253   1.582   2.501   0.472
  411SOL    HW1 1254   1.551   2.562   0.545
  411SOL    HW2 1255   1.632   2.553   0.403
  412SOL     OW 1256   0.402   2.613   1.598
  412SOL    HW1 1257   0.470   2.668   1.551
  412SOL    HW2 1258   0.442   2.525   1.625
  413SOL     OW 1259   1.587   2.641   1.670
  413SOL    HW1 1260   1.495   2.679   1.665
  413SOL    HW2 1261   1.647   2.688   1.605
  414SOL     OW 1262   1.013   1.967   1.770
  414SOL    HW1 1263   1.019   2.052   1.718
  414SOL    HW2 1264   1.045   1.891   1.713
  415SOL     OW 1265   0.504   1.912   1.740
  415SOL    HW1 1266   0.462   1.855   1.670
  415SOL    HW2 1267   0.438   1.981   1.772
  416SOL     OW 1268   0.573   2.732   1.029
  416SOL    HW1 1269   0.617   2.821   1.020
  416SOL    HW2 1270   0.510   2.732   1.106
  417SOL     OW 1271   1.360   2.724   1.045
  417SOL    HW1 1272   1.285   2.724   0.979
  417SOL    HW2 1273   1.397   2.632   1.054
  418SOL     OW 1274   1.209   2.387   0.275
  418SOL    HW1 1275   1.222   2.303   0.329
  418SOL    HW2 1276   1.180   2.461   0.335
  419SOL     OW 1277   0.307   2.075   1.231
  419SOL    HW1 1278   0.284   2.112   1.321
  419SOL    HW2 1279   0.277   1.980   1.225
  420SOL     OW 1280   0.037   3.172   1.282
  420SOL    HW1 1281   0.090   3.123   1.350
  420SOL    HW2 1282   0.059   3.270   1.287
  421SOL     OW 1283   0.732   2.496   1.064
  421SOL    HW1 1284   0.791   2.470   0.988
  421SOL    HW2 1285   0.704   2.592   1.053
  422SOL     OW 1286   1.728   2.797   1.854
  422SOL    HW1 1287   1.682   2.790   1.765
  422SOL    HW2 1288   1.666   2.841   1.920
  423SOL     OW 1289   0.307   1.925   0.618
  423SOL    HW1 1290   0.296   2.019   0.651
  423SOL    HW2 1291   0.302   1.862   0.695
  424SOL     OW 1292   1.622   2.229   0.374
  424SOL    HW1 1293   1.624   2.153   0.438
  424SOL    HW2 1294   1.574   2.306   0.414
  425SOL     OW 1295   1.023   2.628   0.966
  425SOL    HW1 1296   1.038   2.649   1.062
  425SOL    HW2 1297   0.993   2.533   0.957
  426SOL     OW 1298   0.350   2.760   1.804
  426SOL    HW1 1299   0.426   2.804   1.852
  426SOL    HW2 1300   0.385   2.713   1.722
  427SOL     OW 1301   1.540   2.136   0.125
  427SOL    HW1 1302   1.479   2.061   0.148
  427SOL    HW2 1303   1.562   2.188   0.208
  428SOL     OW 1304   1.303   2.700   0.042
  428SOL    HW1 1305   1.337   2.607   0.057
  428SOL    HW2 1306   1.321   2.727  -0.053
  429SOL     OW 1307   0.319   2.672   0.949
  429SOL    HW1 1308   0.412   2.708   0.954
  429SOL    HW2 1309   0.313   2.587   1.001
  430SOL     OW 1310   0.339   2.371   1.006
  430SOL    HW1 1311   0.287   2.288   0.989
  430SOL    HW2 1312   0.416   2.376   0.942
  431SOL     OW 1313   1.138   2.242   1.678
  431SOL    HW1 1314   1.093   2.305   1.742
  431SOL    HW2 1315   1.231   2.273   1.661
  432SOL     OW 1316   1.160   2.069   1.477
  432SOL    HW1 1317   1.160   2.133   1.554
  432SOL    HW2 1318   1.188   2.117   1.394
  433SOL     OW 1319   1.002   2.658   1.238
  433SOL    HW1 1320   1.043   2.626   1.324
  433SOL    HW2 1321   0.906   2.631   1.235
  434SOL     OW 1322   0.040   2.406   1.114
  434SOL    HW1 1323   0.125   2.373   1.073
  434SOL    HW2 1324   0.053   2.421   1.212
  435SOL     OW 1325   0.189   2.382   1.722
  435SOL    HW1 1326   0.248   2.342   1.652
  435SOL    HW2 1327   0.131   2.453   1.681
  436SOL     OW 1328   1.369   2.812   1.660
  436SOL    HW1 1329   1.408   2.901   1.680
  436SOL    HW2 1330   1.379   2.792   1.563
  437SOL     OW 1331   0.815   2.434   0.325
  437SOL    HW1 1332   0.822   2.345   0.279
  437SOL    HW2 1333   0.721   2.468   0.317
  438SOL     OW 1334   1.657   2.466   1.206
  438SOL    HW1 1335   1.619   2.397   1.268
  438SOL    HW2 1336   1.739   2.430   1.162
  439SOL     OW 1337   0.671   2.326   1.269
  439SOL    HW1 1338   0.637   2.237   1.239
  439SOL    HW2 1339   0.697   2.380   1.189
  440SOL     OW 1340   0.473   2.362   0.191
  440SOL    HW1 1341   0.534   2.442   0.195
  440SOL    HW2 1342   0.378   2.393   0.198
  441SOL     OW 1343   0.159   2.999   1.466
  441SOL    HW1 1344   0.181   2.938   1.542
  441SOL    HW2 1345   0.169   2.950   1.380
  442SOL     OW 1346   1.347   2.921   1.234
  442SOL    HW1 1347   1.371   2.858   1.160
  442SOL    HW2 1348   1.257   2.961   1.216
  443SOL     OW 1349   1.302   2.717   0.309
  443SOL    HW1 1350   1.216   2.686   0.351
  443SOL    HW2 1351   1.298   2.703   0.210
  444SOL     OW 1352   0.083   3.120   1.022
  444SOL    HW1 1353   0.078   3.119   1.122
  444SOL    HW2 1354   0.000   3.079   0.984
  445SOL     OW 1355   0.903   1.948   0.133
  445SOL    HW1 1356   0.954   1.949   0.047
  445SOL    HW2 1357   0.959   1.906   0.204
  446SOL     OW 1358   1.726   1.997   0.523
  446SOL    HW1 1359   1.799   1.980   0.456
  446SOL    HW2 1360   1.695   1.910   0.561
  447SOL     OW 1361   1.280   2.789   0.672
  447SOL    HW1 1362   1.340   2.708   0.674
  447SOL    HW2 1363   1.320   2.858   0.612
  448SOL     OW 1364   1.841   2.037   0.963
  448SOL    HW1 1365   1.880   1.952   0.927
  448SOL    HW2 1366   1.743   2.039   0.944
  449SOL     OW 1367   0.263   2.188   0.720
  449SOL    HW1 1368   0.184   2.239   0.686
  449SOL    HW2 1369   0.254   2.173   0.818
  450SOL     OW 1370   0.822   2.864   1.372
  450SOL    HW1 1371   0.862   2.863   1.280
  450SOL    HW2 1372   0.832   2.956   1.412
  451SOL     OW 1373   0.916   2.772   0.291
  451SOL    HW1 1374   0.979   2.810   0.223
  451SOL    HW2 1375   0.956   2.689   0.330
  452SOL     OW 1376   0.372   3.150   1.490
  452SOL    HW1 1377   0.359   3.243   1.456
  452SOL    HW2 1378   0.288   3.098   1.477
  453SOL     OW 1379   1.014   2.098   0.971
  453SOL    HW1 1380   1.006   2.062   0.878
  453SOL    HW2 1381   1.012   2.022   1.036
  454SOL     OW 1382   1.709   2.247   1.381
  454SOL    HW1 1383   1.782   2.316   1.385
  454SOL    HW2 1384   1.737   2.172   1.322
  455SOL     OW 1385   0.105   2.875   1.726
  455SOL    HW1 1386   0.028   2.842   1.780
  455SOL    HW2 1387   0.190   2.845   1.768
  456SOL     OW 1388   0.672   2.065   1.489
  456SOL    HW1 1389   0.762   2.049   1.449
  456SOL    HW2 1390   0.680   2.070   1.588
  457SOL     OW 1391   0.075   2.207   0.033
  457SOL    HW1 1392  -0.017   2.179   0.004
  457SOL    HW2 1393   0.106   2.284  -0.023
  458SOL     OW 1394   1.440   2.718   1.398
  458SOL    HW1 1395   1.383   2.770   1.335
  458SOL    HW2 1396   1.536   2.730   1.374
  459SOL     OW 1397   0.072   2.028   0.318
  459SOL    HW1 1398   0.055   2.111   0.264
  459SOL    HW2 1399   0.162   1.991   0.296
  460SOL     OW 1400   1.183   3.197   0.119
  460SOL    HW1 1401   1.084   3.186   0.121
  460SOL    HW2 1402   1.217   3.212   0.212
  461SOL     OW 1403   0.613   2.704   1.431
  461SOL    HW1 1404   0.669   2.785   1.414
  461SOL    HW2 1405   0.672   2.624   1.434
  462SOL     OW 1406   0.716   2.427   1.708
  462SOL    HW1 1407   0.735   2.492   1.782
  462SOL    HW2 1408   0.776   2.347   1.717
  463SOL     OW 1409   1.450   3.082   1.633
  463SOL    HW1 1410   1.441   3.072   1.732
  463SOL    HW2 1411   1.546   3.075   1.607
  464SOL     OW 1412   1.674   2.745   1.254
  464SOL    HW1 1413   1.647   2.656   1.217
  464SOL    HW2 1414   1.675   2.813   1.181
  465SOL     OW 1415   1.225   2.187   0.449
  465SOL    HW1 1416   1.290   2.113   0.438
  465SOL    HW2 1417   1.245   2.237   0.533
  466SOL     OW 1418   0.594   2.607   0.652
  466SOL    HW1 1419   0.644   2.692   0.633
  466SOL    HW2 1420   0.506   2.609   0.604
  467SOL     OW 1421   1.777   2.204   1.642
  467SOL    HW1 1422   1.760   2.235   1.548
  467SOL    HW2 1423   1.693   2.167   1.680
  468SOL     OW 1424   1.730   2.796   1.517
  468SOL    HW1 1425   1.768   2.887   1.532
  468SOL    HW2 1426   1.722   2.779   1.418
  469SOL     OW 1427   0.859   2.818   0.861
  469SOL    HW1 1428   0.913   2.749   0.909
  469SOL    HW2 1429   0.827   2.887   0.927
  470SOL     OW 1430   1.083   2.846   0.087
  470SOL    HW1 1431   1.060   2.899   0.005
  470SOL    HW2 1432   1.164   2.790   0.068
  471SOL     OW 1433   0.079   3.102   0.653
  471SOL    HW1 1434   0.078   3.055   0.741
  471SOL    HW2 1435   0.161   3.074   0.602
  472SOL     OW 1436   1.824   2.054   1.227
  472SOL    HW1 1437   1.820   1.964   1.271
  472SOL    HW2 1438   1.827   2.043   1.128
  473SOL     OW 1439   0.428   2.286   0.520
  473SOL    HW1 1440   0.458   2.214   0.458
  473SOL    HW2 1441   0.389   2.246   0.603
  474SOL     OW 1442   0.317   2.409   1.280
  474SOL    HW1 1443   0.355   2.350   1.352
  474SOL    HW2 1444   0.357   2.383   1.192
  475SOL     OW 1445   1.424   2.076   1.112
  475SOL    HW1 1446   1.476   2.011   1.167
  475SOL    HW2 1447   1.375   2.139   1.173
  476SOL     OW 1448   1.001   1.896   1.154
  476SOL    HW1 1449   0.938   1.824   1.123
  476SOL    HW2 1450   1.094   1.860   1.154
  477SOL     OW 1451   0.770   3.192   0.301
  477SOL    HW1 1452   0.724   3.105   0.318
  477SOL    HW2 1453   0.861   3.189   0.342
  478SOL     OW 1454   1.352   1.914   0.168
  478SOL    HW1 1455   1.387   1.873   0.084
  478SOL    HW2 1456   1.262   1.876   0.188
  479SOL     OW 1457   1.300   2.315   0.691
  479SOL    HW1 1458   1.241   2.395   0.695
  479SOL    HW2 1459   1.315   2.280   0.784
  480SOL     OW 1460   1.593   2.083   0.882
  480SOL    HW1 1461   1.509   2.082   0.936
  480SOL    HW2 1462   1.595   2.166   0.826
  481SOL     OW 1463   0.039   2.939   0.300
  481SOL    HW1 1464   0.138   2.928   0.291
  481SOL    HW2 1465  -0.001   2.853   0.332
  482SOL     OW 1466   0.230   2.490   1.975
  482SOL    HW1 1467   0.137   2.488   2.012
  482SOL    HW2 1468   0.231   2.451   1.883
  483SOL     OW 1469   0.225   2.137   2.858
  483SOL    HW1 1470   0.260   2.120   2.950
  483SOL    HW2 1471   0.137   2.092   2.846
  484SOL     OW 1472   0.019   2.230   2.509
  484SOL    HW1 1473  -0.063   2.273   2.548
  484SOL    HW2 1474  -0.009   2.157   2.446
  485SOL     OW 1475   1.135   2.565   2.579
  485SOL    HW1 1476   1.192   2.643   2.554
  485SOL    HW2 1477   1.075   2.591   2.655
  486SOL     OW 1478   1.755   2.469   2.093
  486SOL    HW1 1479   1.743   2.456   1.994
  486SOL    HW2 1480   1.725   2.388   2.142
  487SOL     OW 1481   0.768   3.006   2.885
  487SOL    HW1 1482   0.690   3.023   2.945
  487SOL    HW2 1483   0.802   3.093   2.849
  488SOL     OW 1484   0.685   2.874   2.527
  488SOL    HW1 1485   0.754   2.858   2.597
  488SOL    HW2 1486   0.612   2.931   2.565
  489SOL     OW 1487   1.603   2.309   2.599
  489SOL    HW1 1488   1.529   2.355   2.549
  489SOL    HW2 1489   1.654   2.377   2.652
  490SOL     OW 1490   0.240   2.953   2.748
  490SOL    HW1 1491   0.254   2.869   2.800
  490SOL    HW2 1492   0.185   3.017   2.803
  491SOL     OW 1493   0.606   2.826   1.985
  491SOL    HW1 1494   0.613   2.910   1.931
  491SOL    HW2 1495   0.652   2.839   2.073
  492SOL     OW 1496   0.122   2.505   2.425
  492SOL    HW1 1497   0.077   2.417   2.442
  492SOL    HW2 1498   0.121   2.559   2.509
  493SOL     OW 1499   1.689   2.784   2.474
  493SOL    HW1 1500   1.784   2.755   2.482
  493SOL    HW2 1501   1.681   2.849   2.399
  494SOL     OW 1502   0.613   3.227   2.588
  494SOL    HW1 1503   0.564   3.140   2.597
  494SOL    HW2 1504   0.590   3.270   2.501
  495SOL     OW 1505   0.809   1.866   2.364
  495SOL    HW1 1506   0.849   1.957   2.355
  495SOL    HW2 1507   0.709   1.874   2.370
  496SOL     OW 1508   0.197   2.838   3.126
  496SOL    HW1 1509   0.286   2.793   3.112
  496SOL    HW2 1510   0.124   2.773   3.107
  497SOL     OW 1511   1.525   2.861   2.052
  497SOL    HW1 1512   1.462   2.785   2.065
  497SOL    HW2 1513   1.573   2.879   2.138
  498SOL     OW 1514   0.598   2.591   2.132
  498SOL    HW1 1515   0.622   2.660   2.064
  498SOL    HW2 1516   0.520   2.624   2.186
  499SOL     OW 1517   1.281   2.207   2.806
  499SOL    HW1 1518   1.195   2.157   2.793
  499SOL    HW2 1519   1.343   2.153   2.862
  500SOL     OW 1520   1.041   2.563   2.291
  500SOL    HW1 1521   1.067   2.559   2.387
  500SOL    HW2 1522   0.956   2.512   2.277
  501SOL     OW 1523   0.076   2.673   2.651
  501SOL    HW1 1524   0.175   2.661   2.660
  501SOL    HW2 1525   0.052   2.768   2.672
  502SOL     OW 1526   0.865   2.210   2.057
  502SOL    HW1 1527   0.924   2.273   2.008
  502SOL    HW2 1528   0.884   2.116   2.028
  503SOL     OW 1529   0.550   2.058   2.747
  503SOL    HW1 1530   0.545   2.053   2.847
  503SOL    HW2 1531   0.552   2.154   2.718
  504SOL     OW 1532   1.795   2.928   2.735
  504SOL    HW1 1533   1.733   2.913   2.659
  504SOL    HW2 1534   1.743   2.939   2.820
  505SOL     OW 1535   0.321   2.805   2.104
  505SOL    HW1 1536   0.403   2.844   2.062
  505SOL    HW2 1537   0.294   2.723   2.055
  506SOL     OW 1538   1.458   2.597   2.590
  506SOL    HW1 1539   1.453   2.532   2.665
  506SOL    HW2 1540   1.538   2.656   2.603
  507SOL     OW 1541   1.400   1.969   2.288
  507SOL    HW1 1542   1.376   1.932   2.198
  507SOL    HW2 1543   1.499   1.985   2.292
  508SOL     OW 1544   0.382   2.562   2.342
  508SOL    HW1 1545   0.427   2.472   2.339
  508SOL    HW2 1546   0.288   2.551   2.375
  509SOL     OW 1547   0.614   1.984   1.979
  509SOL    HW1 1548   0.712   1.962   1.986
  509SOL    HW2 1549   0.583   1.967   1.886
  510SOL     OW 1550   0.888   3.376   3.057
  510SOL    HW1 1551   0.865   3.351   2.963
  510SOL    HW2 1552   0.949   3.307   3.096
  511SOL     OW 1553   0.922   2.365   2.761
  511SOL    HW1 1554   0.897   2.356   2.665
  511SOL    HW2 1555   0.970   2.283   2.792
  512SOL     OW 1556   0.539   1.926   2.374
  512SOL    HW1 1557   0.458   1.927   2.432
  512SOL    HW2 1558   0.542   2.009   2.319
  513SOL     OW 1559   0.297   1.897   2.033
  513SOL    HW1 1560   0.346   1.981   2.012
  513SOL    HW2 1561   0.359   1.832   2.078
  514SOL     OW 1562   0.935   2.098   2.342
  514SOL    HW1 1563   0.887   2.139   2.264
  514SOL    HW2 1564   1.034   2.096   2.323
  515SOL     OW 1565   0.459   3.014   2.603
  515SOL    HW1 1566   0.388   2.987   2.668
  515SOL    HW2 1567   0.433   2.986   2.510
  516SOL     OW 1568   1.032   2.411   1.878
  516SOL    HW1 1569   0.991   2.493   1.839
  516SOL    HW2 1570   1.096   2.437   1.951
  517SOL     OW 1571   0.866   2.316   2.504
  517SOL    HW1 1572   0.834   2.388   2.442
  517SOL    HW2 1573   0.890   2.235   2.451
  518SOL     OW 1574   1.017   1.901   2.615
  518SOL    HW1 1575   0.945   1.906   2.546
  518SOL    HW2 1576   0.993   1.832   2.684
  519SOL     OW 1577   1.429   3.035   2.729
  519SOL    HW1 1578   1.374   2.951   2.722
  519SOL    HW2 1579   1.455   3.064   2.637
  520SOL     OW 1580   1.466   2.452   2.854
  520SOL    HW1 1581   1.436   2.357   2.861
  520SOL    HW2 1582   1.539   2.468   2.920
  521SOL     OW 1583   1.857   2.695   2.239
  521SOL    HW1 1584   1.899   2.631   2.303
  521SOL    HW2 1585   1.819   2.644   2.161
  522SOL     OW 1586   1.390   2.437   1.940
  522SOL    HW1 1587   1.336   2.416   2.021
  522SOL    HW2 1588   1.481   2.396   1.949
  523SOL     OW 1589   0.527   2.118   2.190
  523SOL    HW1 1590   0.554   2.059   2.115
  523SOL    HW2 1591   0.527   2.213   2.159
  524SOL     OW 1592   1.111   3.057   2.962
  524SOL    HW1 1593   1.071   3.101   3.043
  524SOL    HW2 1594   1.070   3.094   2.879
  525SOL     OW 1595   1.638   2.961   2.941
  525SOL    HW1 1596   1.643   3.042   3.000
  525SOL    HW2 1597   1.552   2.963   2.890
  526SOL     OW 1598   0.705   2.912   2.230
  526SOL    HW1 1599   0.691   2.919   2.329
  526SOL    HW2 1600   0.789   2.861   2.212
  527SOL     OW 1601   0.410   2.675   3.113
  527SOL    HW1 1602   0.496   2.687   3.163
  527SOL    HW2 1603   0.368   2.588   3.140
  528SOL     OW 1604   0.367   2.962   2.363
  528SOL    HW1 1605   0.360   3.045   2.307
  528SOL    HW2 1606   0.371   2.882   2.303
  529SOL     OW 1607   0.566   2.399   2.727
  529SOL    HW1 1608   0.578   2.465   2.653
  529SOL    HW2 1609   0.612   2.433   2.810
  530SOL     OW 1610   1.582   2.501   2.334
  530SOL    HW1 1611   1.551   2.562   2.407
  530SOL    HW2 1612   1.632   2.553   2.265
  531SOL     OW 1613   0.573   2.732   2.891
  531SOL    HW1 1614   0.617   2.821   2.882
  531SOL    HW2 1615   0.510   2.732   2.968
  532SOL     OW 1616   1.209   2.387   2.137
  532SOL    HW1 1617   1.222   2.303   2.191
  532SOL    HW2 1618   1.180   2.461   2.197
  533SOL     OW 1619   0.307   2.075   3.093
  533SOL    HW1 1620   0.284   2.112   3.183
  533SOL    HW2 1621   0.277   1.980   3.087
  534SOL     OW 1622   0.732   2.496   2.926
  534SOL    HW1 1623   0.791   2.470   2.850
  534SOL    HW2 1624   0.704   2.592   2.915
  535SOL     OW 1625   0.307   1.925   2.480
  535SOL    HW1 1626   0.296   2.019   2.513
  535SOL    HW2 1627   0.302   1.862   2.557
  536SOL     OW 1628   1.622   2.229   2.236
  536SOL    HW1 1629   1.624   2.153   2.300
  536SOL    HW2 1630   1.574   2.306   2.276
  537SOL     OW 1631   1.023   2.628   2.828
  537SOL    HW1 1632   1.038   2.649   2.924
  537SOL    HW2 1633   0.993   2.533   2.819
  538SOL     OW 1634   1.540   2.136   1.987
  538SOL    HW1 1635   1.479   2.061   2.010
  538SOL    HW2 1636   1.562   2.188   2.070
  539SOL     OW 1637   1.303   2.700   1.904
  539SOL    HW1 1638   1.337   2.607   1.919
  539SOL    HW2 1639   1.321   2.727   1.809
  540SOL     OW 1640   0.319   2.672   2.811
  540SOL    HW1 1641   0.412   2.708   2.816
  540SOL    HW2 1642   0.313   2.587   2.863
  541SOL     OW 1643   0.339   2.371   2.868
  541SOL    HW1 1644   0.287   2.288   2.851
  541SOL    HW2 1645   0.416   2.376   2.804
  542SOL     OW 1646   1.002   2.658   3.100
  542SOL    HW1 1647   1.043   2.626   3.186
  542SOL    HW2 1648   0.906   2.631   3.097
  543SOL     OW 1649   0.815   2.434   2.187
  543SOL    HW1 1650   0.822   2.345   2.141
  543SOL    HW2 1651   0.721   2.468   2.179
  544SOL     OW 1652   0.671   2.326   3.131
  544SOL    HW1 1653   0.637   2.237   3.101
  544SOL    HW2 1654   0.697   2.380   3.051
  545SOL     OW 1655   0.473   2.362   2.053
  545SOL    HW1 1656   0.534   2.442   2.057
  545SOL    HW2 1657   0.378   2.393   2.060
  546SOL     OW 1658   1.347   2.921   3.096
  546SOL    HW1 1659   1.371   2.858   3.022
  546SOL    HW2 1660   1.257   2.961   3.078
  547SOL     OW 1661   1.302   2.717   2.171
  547SOL    HW1 1662   1.216   2.686   2.213
  547SOL    HW2 1663   1.298   2.703   2.072
  548SOL     OW 1664   0.083   3.120   2.884
  548SOL    HW1 1665   0.078   3.119   2.984
  548SOL    HW2 1666   0.000   3.079   2.846
  549SOL     OW 1667   1.726   1.997   2.385
  549SOL    HW1 1668   1.799   1.980   2.318
  549SOL    HW2 1669   1.695   1.910   2.423
  550SOL     OW 1670   1.280   2.789   2.534
  550SOL    HW1 1671   1.340   2.708   2.536
  550SOL    HW2 1672   1.320   2.858   2.474
  551SOL     OW 1673   1.841   2.037   2.825
  551SOL    HW1 1674   1.880   1.952   2.789
  551SOL    HW2 1675   1.743   2.039   2.806
  552SOL     OW 1676   0.263   2.188   2.582
  552SOL    HW1 1677   0.184   2.239   2.548
  552SOL    HW2 1678   0.254   2.173   2.680
  553SOL     OW 1679   0.822   2.864   3.234
  553SOL    HW1 1680   0.862   2.863   3.142
  553SOL    HW2 1681   0.832   2.956   3.274
  554SOL     OW 1682   0.916   2.772   2.153
  554SOL    HW1 1683   0.979   2.810   2.085
  554SOL    HW2 1684   0.956   2.689   2.192
  555SOL     OW 1685   1.014   2.098   2.833
  555SOL    HW1 1686   1.006   2.062   2.740
  555SOL    HW2 1687   1.012   2.022   2.898
  556SOL     OW 1688   0.075   2.207   1.895
  556SOL    HW1 1689  -0.017   2.179   1.866
  556SOL    HW2 1690   0.106   2.284   1.839
  557SOL     OW 1691   0.072   2.028   2.180
  557SOL    HW1 1692   0.055   2.111   2.126
  557SOL    HW2 1693   0.162   1.991   2.158
  558SOL     OW 1694   1.183   3.197   1.981
  558SOL    HW1 1695   1.084   3.186   1.983
  558SOL    HW2 1696   1.217   3.212   2.074
  559SOL     OW 1697   1.674   2.745   3.116
  559SOL    HW1 1698   1.647   2.656   3.079
  559SOL    HW2 1699   1.675   2.813   3.043
  560SOL     OW 1700   1.225   2.187   2.311
  560SOL    HW1 1701   1.290   2.113   2.300
  560SOL    HW2 1702   1.245   2.237   2.395
  561SOL     OW 1703   0.594   2.607   2.514
  561SOL    HW1 1704   0.644   2.692   2.495
  561SOL    HW2 1705   0.506   2.609   2.466
  562SOL     OW 1706   0.859   2.818   2.723
  562SOL    HW1 1707   0.913   2.749   2.771
  562SOL    HW2 1708   0.827   2.887   2.789
  563SOL     OW 1709   1.083   2.846   1.949
  563SOL    HW1 1710   1.060   2.899   1.867
  563SOL    HW2 1711   1.164   2.790   1.930
  564SOL     OW 1712   0.079   3.102   2.515
  564SOL    HW1 1713   0.078   3.055   2.603
  564SOL    HW2 1714   0.161   3.074   2.464
  565SOL     OW 1715   1.824   2.054   3.089
  565SOL    HW1 1716   1.820   1.964   3.133
  565SOL    HW2 1717   1.827   2.043   2.990
  566SOL     OW 1718   0.428   2.286   2.382
  566SOL    HW1 1719   0.458   2.214   2.320
  566SOL    HW2 1720   0.389   2.246   2.465
  567SOL     OW 1721   1.424   2.076   2.974
  567SOL    HW1 1722   1.476   2.011   3.029
  567SOL    HW2 1723   1.375   2.139   3.035
  568SOL     OW 1724   0.770   3.192   2.163
  568SOL    HW1 1725   0.724   3.105   2.180
  568SOL    HW2 1726   0.861   3.189   2.204
  569SOL     OW 1727   1.352   1.914   2.030
  569SOL    HW1 1728   1.387   1.873   1.946
  569SOL    HW2 1729   1.262   1.876   2.050
  570SOL     OW 1730   1.300   2.315   2.553
  570SOL    HW1 1731   1.241   2.395   2.557
  570SOL    HW2 1732   1.315   2.280   2.646
  571SOL     OW 1733   1.593   2.083   2.744
  571SOL    HW1 1734   1.509   2.082   2.798
  571SOL    HW2 1735   1.595   2.166   2.688
  572SOL     OW 1736   0.039   2.939   2.162
  572SOL    HW1 1737   0.138   2.928   2.153
  572SOL    HW2 1738  -0.001   2.853   2.194
  573SOL     OW 1739   2.092   0.628   0.113
  573SOL    HW1 1740   1.999   0.626   0.150
  573SOL    HW2 1741   2.093   0.589   0.021
  574SOL     OW 1742   2.087   0.275   0.996
  574SOL    HW1 1743   2.122   0.258   1.088
  574SOL    HW2 1744   1.999   0.230   0.984
  575SOL     OW 1745   1.881   0.368   0.647
  575SOL    HW1 1746   1.799   0.411   0.686
  575SOL    HW2 1747   1.853   0.295   0.584
  576SOL     OW 1748   2.431   1.275   1.165
  576SOL    HW1 1749   2.338   1.268   1.128
  576SOL    HW2 1750   2.442   1.364   1.209
  577SOL     OW 1751   2.630   1.144   1.023
  577SOL    HW1 1752   2.552   1.161   1.083
  577SOL    HW2 1753   2.664   1.231   0.987
  578SOL     OW 1754   2.712   0.798   1.823
  578SOL    HW1 1755   2.708   0.874   1.888
  578SOL    HW2 1756   2.734   0.834   1.732
  579SOL     OW 1757   2.547   1.012   0.665
  579SOL    HW1 1758   2.616   0.996   0.735
  579SOL    HW2 1759   2.474   1.069   0.703
  580SOL     OW 1760   2.548   1.161   1.803
  580SOL    HW1 1761   2.608   1.240   1.817
  580SOL    HW2 1762   2.462   1.192   1.762
  581SOL     OW 1763   2.197   1.435   1.061
  581SOL    HW1 1764   2.119   1.404   1.008
  581SOL    HW2 1765   2.255   1.493   1.004
  582SOL     OW 1766   2.300   0.392   1.499
  582SOL    HW1 1767   2.382   0.336   1.508
  582SOL    HW2 1768   2.219   0.334   1.503
  583SOL     OW 1769   2.093   1.713   0.483
  583SOL    HW1 1770   2.127   1.790   0.537
  583SOL    HW2 1771   2.137   1.713   0.393
  584SOL     OW 1772   2.989   1.341   1.690
  584SOL    HW1 1773   3.036   1.341   1.778
  584SOL    HW2 1774   2.941   1.254   1.679
  585SOL     OW 1775   2.092   1.434   0.538
  585SOL    HW1 1776   2.066   1.530   0.538
  585SOL    HW2 1777   2.021   1.380   0.583
  586SOL     OW 1778   2.102   1.091   0.886
  586SOL    HW1 1779   2.116   1.007   0.938
  586SOL    HW2 1780   2.047   1.155   0.941
  587SOL     OW 1781   2.482   1.786   1.439
  587SOL    HW1 1782   2.390   1.769   1.474
  587SOL    HW2 1783   2.510   1.878   1.465
  588SOL     OW 1784   2.468   0.964   0.123
  588SOL    HW1 1785   2.475   1.048   0.069
  588SOL    HW2 1786   2.514   0.977   0.211
  589SOL     OW 1787   1.984   0.643   0.563
  589SOL    HW1 1788   1.939   0.555   0.580
  589SOL    HW2 1789   1.983   0.697   0.647
  590SOL     OW 1790   1.889   1.596   0.117
  590SOL    HW1 1791   1.870   1.500   0.138
  590SOL    HW2 1792   1.856   1.654   0.192
  591SOL     OW 1793   1.975   0.737   1.597
  591SOL    HW1 1794   2.063   0.724   1.642
  591SOL    HW2 1795   1.962   0.834   1.575
  592SOL     OW 1796   2.475   1.365   0.726
  592SOL    HW1 1797   2.426   1.278   0.735
  592SOL    HW2 1798   2.452   1.408   0.639
  593SOL     OW 1799   2.671   0.004   0.502
  593SOL    HW1 1800   2.711   0.095   0.493
  593SOL    HW2 1801   2.571   0.012   0.508
  594SOL     OW 1802   2.059   0.976   1.264
  594SOL    HW1 1803   2.148   0.931   1.250
  594SOL    HW2 1804   1.986   0.911   1.245
  595SOL     OW 1805   2.179   0.251   1.801
  595SOL    HW1 1806   2.250   0.322   1.807
  595SOL    HW2 1807   2.091   0.290   1.829
  596SOL     OW 1808   2.460   0.729   0.270
  596SOL    HW1 1809   2.484   0.798   0.202
  596SOL    HW2 1810   2.382   0.762   0.324
  597SOL     OW 1811   2.669   0.605   1.465
  597SOL    HW1 1812   2.622   0.602   1.554
  597SOL    HW2 1813   2.618   0.550   1.399
  598SOL     OW 1814   2.835   0.890   1.572
  598SOL    HW1 1815   2.881   0.806   1.543
  598SOL    HW2 1816   2.779   0.924   1.497
  599SOL     OW 1817   2.853   0.410   1.242
  599SOL    HW1 1818   2.776   0.444   1.296
  599SOL    HW2 1819   2.819   0.359   1.163
  600SOL     OW 1820   2.903   0.701   0.429
  600SOL    HW1 1821   2.929   0.697   0.525
  600SOL    HW2 1822   2.818   0.650   0.415
  601SOL     OW 1823   1.938   0.811   0.789
  601SOL    HW1 1824   2.037   0.799   0.798
  601SOL    HW2 1825   1.914   0.906   0.810
  602SOL     OW 1826   1.992   1.821   1.571
  602SOL    HW1 1827   1.982   1.806   1.670
  602SOL    HW2 1828   1.906   1.857   1.535
  603SOL     OW 1829   2.727   0.348   0.195
  603SOL    HW1 1830   2.786   0.411   0.146
  603SOL    HW2 1831   2.746   0.254   0.166
  604SOL     OW 1832   2.412   0.196   0.885
  604SOL    HW1 1833   2.407   0.191   0.985
  604SOL    HW2 1834   2.414   0.292   0.856
  605SOL     OW 1835   2.870   1.456   0.477
  605SOL    HW1 1836   2.824   1.528   0.425
  605SOL    HW2 1837   2.866   1.476   0.575
  606SOL     OW 1838   2.213   1.801   0.853
  606SOL    HW1 1839   2.263   1.715   0.859
  606SOL    HW2 1840   2.278   1.878   0.850
  607SOL     OW 1841   2.183   0.943   0.242
  607SOL    HW1 1842   2.265   0.982   0.200
  607SOL    HW2 1843   2.156   0.861   0.193
  608SOL     OW 1844   2.323   1.266   1.727
  608SOL    HW1 1845   2.273   1.267   1.641
  608SOL    HW2 1846   2.260   1.248   1.803
  609SOL     OW 1847   2.064   0.285   1.498
  609SOL    HW1 1848   1.984   0.345   1.485
  609SOL    HW2 1849   2.054   0.236   1.584
  610SOL     OW 1850   2.326   1.743   0.323
  610SOL    HW1 1851   2.359   1.782   0.409
  610SOL    HW2 1852   2.402   1.736   0.258
  611SOL     OW 1853   2.111   1.785   1.241
  611SOL    HW1 1854   2.168   1.720   1.291
  611SOL    HW2 1855   2.095   1.752   1.148
  612SOL     OW 1856   2.802   1.698   0.904
  612SOL    HW1 1857   2.882   1.641   0.925
  612SOL    HW2 1858   2.753   1.658   0.827
  613SOL     OW 1859   2.244   0.700   0.480
  613SOL    HW1 1860   2.289   0.610   0.477
  613SOL    HW2 1861   2.150   0.689   0.513
  614SOL     OW 1862   2.476   0.122   0.117
  614SOL    HW1 1863   2.574   0.100   0.124
  614SOL    HW2 1864   2.445   0.105   0.024
  615SOL     OW 1865   2.643   0.264   1.749
  615SOL    HW1 1866   2.710   0.203   1.792
  615SOL    HW2 1867   2.570   0.283   1.814
  616SOL     OW 1868   2.750   1.514   1.195
  616SOL    HW1 1869   2.727   1.489   1.101
  616SOL    HW2 1870   2.811   1.445   1.234
  617SOL     OW 1871   2.665   1.402   0.924
  617SOL    HW1 1872   2.755   1.416   0.882
  617SOL    HW2 1873   2.594   1.404   0.853
  618SOL     OW 1874   2.784   0.503   0.899
  618SOL    HW1 1875   2.759   0.494   0.803
  618SOL    HW2 1876   2.832   0.421   0.930
  619SOL     OW 1877   2.401   0.064   0.512
  619SOL    HW1 1878   2.320   0.065   0.570
  619SOL    HW2 1879   2.404   0.147   0.457
  620SOL     OW 1880   3.296   1.188   0.041
  620SOL    HW1 1881   3.328   1.112   0.098
  620SOL    HW2 1882   3.204   1.215   0.071
  621SOL     OW 1883   2.159   0.035   0.171
  621SOL    HW1 1884   2.208   0.119   0.150
  621SOL    HW2 1885   2.221  -0.030   0.216
  622SOL     OW 1886   2.797   0.236   0.480
  622SOL    HW1 1887   2.749   0.277   0.402
  622SOL    HW2 1888   2.896   0.234   0.461
  623SOL     OW 1889   3.089   1.570   0.793
  623SOL    HW1 1890   3.110   1.644   0.728
  623SOL    HW2 1891   3.157   1.570   0.866
  624SOL     OW 1892   2.321   1.152   0.741
  624SOL    HW1 1893   2.250   1.125   0.806
  624SOL    HW2 1894   2.295   1.124   0.648
  625SOL     OW 1895   3.133   1.797   0.591
  625SOL    HW1 1896   3.177   1.861   0.527
  625SOL    HW2 1897   3.083   1.849   0.661
  626SOL     OW 1898   2.894   0.549   0.016
  626SOL    HW1 1899   2.853   0.631  -0.023
  626SOL    HW2 1900   2.958   0.575   0.089
  627SOL     OW 1901   1.940   0.556   1.386
  627SOL    HW1 1902   2.032   0.555   1.345
  627SOL    HW2 1903   1.934   0.630   1.453
  628SOL     OW 1904   2.423   0.222   1.147
  628SOL    HW1 1905   2.461   0.138   1.184
  628SOL    HW2 1906   2.335   0.241   1.191
  629SOL     OW 1907   2.728   0.454   0.642
  629SOL    HW1 1908   2.696   0.526   0.580
  629SOL    HW2 1909   2.752   0.373   0.589
  630SOL     OW 1910   2.879   0.039   0.753
  630SOL    HW1 1911   2.807   0.044   0.684
  630SOL    HW2 1912   2.855  -0.030   0.822
  631SOL     OW 1913   2.350   1.385   0.174
  631SOL    HW1 1914   2.263   1.370   0.221
  631SOL    HW2 1915   2.333   1.411   0.079
  632SOL     OW 1916   2.389   0.256   0.328
  632SOL    HW1 1917   2.416   0.197   0.253
  632SOL    HW2 1918   2.389   0.351   0.297
  633SOL     OW 1919   2.777   0.089   1.402
  633SOL    HW1 1920   2.802   0.069   1.307
  633SOL    HW2 1921   2.849   0.145   1.444
  634SOL     OW 1922   2.842   1.116   1.719
  634SOL    HW1 1923   2.743   1.122   1.729
  634SOL    HW2 1924   2.865   1.036   1.663
  635SOL     OW 1925   2.567   1.050   0.368
  635SOL    HW1 1926   2.553   1.057   0.467
  635SOL    HW2 1927   2.651   0.999   0.350
  636SOL     OW 1928   2.272   0.813   1.251
  636SOL    HW1 1929   2.358   0.825   1.301
  636SOL    HW2 1930   2.230   0.726   1.278
  637SOL     OW 1931   1.926   1.564   1.331
  637SOL    HW1 1932   1.880   1.646   1.297
  637SOL    HW2 1933   2.024   1.583   1.340
  638SOL     OW 1934   2.229   1.100   0.501
  638SOL    HW1 1935   2.222   1.183   0.445
  638SOL    HW2 1936   2.233   1.020   0.441
  639SOL     OW 1937   2.428   0.537   0.865
  639SOL    HW1 1938   2.440   0.603   0.791
  639SOL    HW2 1939   2.474   0.571   0.948
  640SOL     OW 1940   3.114   1.348   0.388
  640SOL    HW1 1941   3.164   1.425   0.428
  640SOL    HW2 1942   3.019   1.350   0.420
  641SOL     OW 1943   2.216   1.510   1.329
  641SOL    HW1 1944   2.195   1.466   1.242
  641SOL    HW2 1945   2.313   1.536   1.332
  642SOL     OW 1946   2.264   0.751   1.598
  642SOL    HW1 1947   2.332   0.806   1.551
  642SOL    HW2 1948   2.304   0.663   1.625
  643SOL     OW 1949   2.875   0.105   1.770
  643SOL    HW1 1950   2.881   0.190   1.718
  643SOL    HW2 1951   2.907   0.029   1.713
  644SOL     OW 1952   2.366   0.050   1.740
  644SOL    HW1 1953   2.324  -0.007   1.670
  644SOL    HW2 1954   2.300   0.119   1.772
  645SOL     OW 1955   2.435   0.870   1.029
  645SOL    HW1 1956   2.479   0.959   1.020
  645SOL    HW2 1957   2.372   0.870   1.106
  646SOL     OW 1958   3.071   0.525   0.275
  646SOL    HW1 1959   3.084   0.441   0.329
  646SOL    HW2 1960   3.042   0.599   0.335
  647SOL     OW 1961   2.169   0.213   1.231
  647SOL    HW1 1962   2.146   0.250   1.321
  647SOL    HW2 1963   2.139   0.118   1.225
  648SOL     OW 1964   2.594   0.634   1.064
  648SOL    HW1 1965   2.653   0.608   0.988
  648SOL    HW2 1966   2.566   0.730   1.053
  649SOL     OW 1967   2.169   0.063   0.618
  649SOL    HW1 1968   2.158   0.157   0.651
  649SOL    HW2 1969   2.164   0.000   0.695
  650SOL     OW 1970   2.885   0.766   0.966
  650SOL    HW1 1971   2.900   0.787   1.062
  650SOL    HW2 1972   2.855   0.671   0.957
  651SOL     OW 1973   2.842   1.573   1.700
  651SOL    HW1 1974   2.822   1.617   1.612
  651SOL    HW2 1975   2.881   1.482   1.684
  652SOL     OW 1976   2.212   0.898   1.804
  652SOL    HW1 1977   2.288   0.942   1.852
  652SOL    HW2 1978   2.247   0.851   1.722
  653SOL     OW 1979   2.930   1.333   0.849
  653SOL    HW1 1980   2.937   1.249   0.794
  653SOL    HW2 1981   2.992   1.402   0.813
  654SOL     OW 1982   2.181   0.810   0.949
  654SOL    HW1 1983   2.274   0.846   0.954
  654SOL    HW2 1984   2.175   0.725   1.001
  655SOL     OW 1985   2.201   0.509   1.006
  655SOL    HW1 1986   2.149   0.426   0.989
  655SOL    HW2 1987   2.278   0.514   0.942
  656SOL     OW 1988   3.000   0.380   1.678
  656SOL    HW1 1989   2.955   0.443   1.742
  656SOL    HW2 1990   3.093   0.411   1.661
  657SOL     OW 1991   3.022   0.207   1.477
  657SOL    HW1 1992   3.022   0.271   1.554
  657SOL    HW2 1993   3.050   0.255   1.394
  658SOL     OW 1994   1.870   1.326   0.200
  658SOL    HW1 1995   1.777   1.347   0.169
  658SOL    HW2 1996   1.880   1.227   0.213
  659SOL     OW 1997   1.950   1.801   0.927
  659SOL    HW1 1998   1.908   1.715   0.900
  659SOL    HW2 1999   2.044   1.804   0.893
  660SOL     OW 2000   2.366   1.568   0.910
  660SOL    HW1 2001   2.432   1.642   0.919
  660SOL    HW2 2002   2.410   1.489   0.868
  661SOL     OW 2003   2.864   0.796   1.238
  661SOL    HW1 2004   2.905   0.764   1.324
  661SOL    HW2 2005   2.768   0.769   1.235
  662SOL     OW 2006   1.902   0.544   1.114
  662SOL    HW1 2007   1.987   0.511   1.073
  662SOL    HW2 2008   1.915   0.559   1.212
  663SOL     OW 2009   2.051   0.520   1.722
  663SOL    HW1 2010   2.110   0.480   1.652
  663SOL    HW2 2011   1.993   0.591   1.681
  664SOL     OW 2012   2.677   0.572   0.325
  664SOL    HW1 2013   2.684   0.483   0.279
  664SOL    HW2 2014   2.583   0.606   0.317
  665SOL     OW 2015   2.114   1.564   1.744
  665SOL    HW1 2016   2.084   1.621   1.820
  665SOL    HW2 2017   2.107   1.467   1.770
  666SOL     OW 2018   2.533   0.464   1.269
  666SOL    HW1 2019   2.499   0.375   1.239
  666SOL    HW2 2020   2.559   0.518   1.189
  667SOL     OW 2021   2.792   1.678   1.465
  667SOL    HW1 2022   2.768   1.660   1.370
  667SOL    HW2 2023   2.822   1.772   1.475
  668SOL     OW 2024   2.335   0.500   0.191
  668SOL    HW1 2025   2.396   0.580   0.195
  668SOL    HW2 2026   2.240   0.531   0.198
  669SOL     OW 2027   2.021   1.137   1.466
  669SOL    HW1 2028   2.043   1.076   1.542
  669SOL    HW2 2029   2.031   1.088   1.380
  670SOL     OW 2030   3.164   0.855   0.309
  670SOL    HW1 2031   3.078   0.824   0.351
  670SOL    HW2 2032   3.160   0.841   0.210
  671SOL     OW 2033   1.945   1.258   1.022
  671SOL    HW1 2034   1.940   1.257   1.122
  671SOL    HW2 2035   1.862   1.217   0.984
  672SOL     OW 2036   2.550   1.662   1.716
  672SOL    HW1 2037   2.494   1.743   1.725
  672SOL    HW2 2038   2.602   1.666   1.630
  673SOL     OW 2039   2.765   0.086   0.133
  673SOL    HW1 2040   2.816   0.087   0.047
  673SOL    HW2 2041   2.821   0.044   0.204
  674SOL     OW 2042   1.992   1.794   1.851
  674SOL    HW1 2043   1.951   1.720   1.904
  674SOL    HW2 2044   2.056   1.845   1.909
  675SOL     OW 2045   2.692   1.273   1.422
  675SOL    HW1 2046   2.687   1.306   1.517
  675SOL    HW2 2047   2.606   1.292   1.376
  676SOL     OW 2048   2.534   1.616   0.154
  676SOL    HW1 2049   2.543   1.626   0.055
  676SOL    HW2 2050   2.494   1.527   0.175
  677SOL     OW 2051   2.125   0.326   0.720
  677SOL    HW1 2052   2.046   0.377   0.686
  677SOL    HW2 2053   2.116   0.311   0.818
  678SOL     OW 2054   2.684   1.002   1.372
  678SOL    HW1 2055   2.724   1.001   1.280
  678SOL    HW2 2056   2.694   1.094   1.412
  679SOL     OW 2057   2.778   0.910   0.291
  679SOL    HW1 2058   2.841   0.948   0.223
  679SOL    HW2 2059   2.818   0.827   0.330
  680SOL     OW 2060   2.234   1.288   1.490
  680SOL    HW1 2061   2.221   1.381   1.456
  680SOL    HW2 2062   2.150   1.236   1.477
  681SOL     OW 2063   2.901   1.098   0.696
  681SOL    HW1 2064   2.831   1.051   0.750
  681SOL    HW2 2065   2.960   1.030   0.653
  682SOL     OW 2066   2.876   0.236   0.971
  682SOL    HW1 2067   2.868   0.200   0.878
  682SOL    HW2 2068   2.874   0.160   1.036
  683SOL     OW 2069   2.452   1.487   0.491
  683SOL    HW1 2070   2.494   1.429   0.421
  683SOL    HW2 2071   2.408   1.566   0.447
  684SOL     OW 2072   2.117   1.348   0.290
  684SOL    HW1 2073   2.021   1.349   0.263
  684SOL    HW2 2074   2.129   1.401   0.374
  685SOL     OW 2075   1.967   1.013   1.726
  685SOL    HW1 2076   1.890   0.980   1.780
  685SOL    HW2 2077   2.052   0.983   1.768
  686SOL     OW 2078   2.534   0.203   1.489
  686SOL    HW1 2079   2.624   0.187   1.449
  686SOL    HW2 2080   2.542   0.208   1.588
  687SOL     OW 2081   1.934   0.166   0.318
  687SOL    HW1 2082   1.917   0.249   0.264
  687SOL    HW2 2083   2.024   0.129   0.296
  688SOL     OW 2084   2.475   0.842   1.431
  688SOL    HW1 2085   2.531   0.923   1.414
  688SOL    HW2 2086   2.534   0.762   1.434
  689SOL     OW 2087   2.578   0.565   1.708
  689SOL    HW1 2088   2.597   0.630   1.782
  689SOL    HW2 2089   2.638   0.485   1.717
  690SOL     OW 2090   2.252   1.741   1.560
  690SOL    HW1 2091   2.161   1.782   1.558
  690SOL    HW2 2092   2.245   1.647   1.592
  691SOL     OW 2093   2.456   0.745   0.652
  691SOL    HW1 2094   2.506   0.830   0.633
  691SOL    HW2 2095   2.368   0.747   0.604
  692SOL     OW 2096   2.721   1.374   0.016
  692SOL    HW1 2097   2.675   1.389   0.104
  692SOL    HW2 2098   2.765   1.459  -0.014
  693SOL     OW 2099   2.523   1.790   0.953
  693SOL    HW1 2100   2.477   1.878   0.940
  693SOL    HW2 2101   2.622   1.802   0.946
  694SOL     OW 2102   2.721   0.956   0.861
  694SOL    HW1 2103   2.775   0.887   0.909
  694SOL    HW2 2104   2.689   1.025   0.927
  695SOL     OW 2105   2.945   0.984   0.087
  695SOL    HW1 2106   2.922   1.037   0.005
  695SOL    HW2 2107   3.026   0.928   0.068
  696SOL     OW 2108   2.083   1.314   1.844
  696SOL    HW1 2109   2.018   1.241   1.823
  696SOL    HW2 2110   2.087   1.328   1.942
  697SOL     OW 2111   1.941   1.240   0.653
  697SOL    HW1 2112   1.940   1.193   0.741
  697SOL    HW2 2113   2.023   1.212   0.602
  698SOL     OW 2114   2.534   1.391   1.624
  698SOL    HW1 2115   2.456   1.341   1.662
  698SOL    HW2 2116   2.531   1.486   1.655
  699SOL     OW 2117   2.290   0.424   0.520
  699SOL    HW1 2118   2.320   0.352   0.458
  699SOL    HW2 2119   2.251   0.384   0.603
  700SOL     OW 2120   2.179   0.547   1.280
  700SOL    HW1 2121   2.217   0.488   1.352
  700SOL    HW2 2122   2.219   0.521   1.192
  701SOL     OW 2123   2.674   1.586   0.687
  701SOL    HW1 2124   2.706   1.596   0.593
  701SOL    HW2 2125   2.595   1.524   0.689
  702SOL     OW 2126   2.863   0.034   1.154
  702SOL    HW1 2127   2.800  -0.038   1.123
  702SOL    HW2 2128   2.956  -0.002   1.154
  703SOL     OW 2129   2.632   1.330   0.301
  703SOL    HW1 2130   2.586   1.243   0.318
  703SOL    HW2 2131   2.723   1.327   0.342
  704SOL     OW 2132   2.480   1.567   1.284
  704SOL    HW1 2133   2.475   1.649   1.341
  704SOL    HW2 2134   2.569   1.564   1.239
  705SOL     OW 2135   1.901   1.077   0.300
  705SOL    HW1 2136   2.000   1.066   0.291
  705SOL    HW2 2137   1.861   0.991   0.332
  706SOL     OW 2138   2.737   1.646   0.337
  706SOL    HW1 2139   2.660   1.611   0.283
  706SOL    HW2 2140   2.705   1.717   0.399
  707SOL     OW 2141   2.092   0.628   1.975
  707SOL    HW1 2142   1.999   0.626   2.012
  707SOL    HW2 2143   2.093   0.589   1.883
  708SOL     OW 2144   2.087   0.275   2.858
  708SOL    HW1 2145   2.122   0.258   2.950
  708SOL    HW2 2146   1.999   0.230   2.846
  709SOL     OW 2147   1.881   0.368   2.509
  709SOL    HW1 2148   1.799   0.411   2.548
  709SOL    HW2 2149   1.853   0.295   2.446
  710SOL     OW 2150   2.431   1.275   3.027
  710SOL    HW1 2151   2.338   1.268   2.990
  710SOL    HW2 2152   2.442   1.364   3.071
  711SOL     OW 2153   2.630   1.144   2.885
  711SOL    HW1 2154   2.552   1.161   2.945
  711SOL    HW2 2155   2.664   1.231   2.849
  712SOL     OW 2156   2.547   1.012   2.527
  712SOL    HW1 2157   2.616   0.996   2.597
  712SOL    HW2 2158   2.474   1.069   2.565
  713SOL     OW 2159   2.197   1.435   2.923
  713SOL    HW1 2160   2.119   1.404   2.870
  713SOL    HW2 2161   2.255   1.493   2.866
  714SOL     OW 2162   2.093   1.713   2.345
  714SOL    HW1 2163   2.127   1.790   2.399
  714SOL    HW2 2164   2.137   1.713   2.255
  715SOL     OW 2165   2.092   1.434   2.400
  715SOL    HW1 2166   2.066   1.530   2.400
  715SOL    HW2 2167   2.021   1.380   2.445
  716SOL     OW 2168   2.102   1.091   2.748
  716SOL    HW1 2169   2.116   1.007   2.800
  716SOL    HW2 2170   2.047   1.155   2.803
  717SOL     OW 2171   2.468   0.964   1.985
  717SOL    HW1 2172   2.475   1.048   1.931
  717SOL    HW2 2173   2.514   0.977   2.073
  718SOL     OW 2174   1.984   0.643   2.425
  718SOL    HW1 2175   1.939   0.555   2.442
  718SOL    HW2 2176   1.983   0.697   2.509
  719SOL     OW 2177   1.889   1.596   1.979
  719SOL    HW1 2178   1.870   1.500   2.000
  719SOL    HW2 2179   1.856   1.654   2.054
  720SOL     OW 2180   2.475   1.365   2.588
  720SOL    HW1 2181   2.426   1.278   2.597
  720SOL    HW2 2182   2.452   1.408   2.501
  721SOL     OW 2183   2.671   0.004   2.364
  721SOL    HW1 2184   2.711   0.095   2.355
  721SOL    HW2 2185   2.571   0.012   2.370
  722SOL     OW 2186   2.059   0.976   3.126
  722SOL    HW1 2187   2.148   0.931   3.112
  722SOL    HW2 2188   1.986   0.911   3.107
  723SOL     OW 2189   2.460   0.729   2.132
  723SOL    HW1 2190   2.484   0.798   2.064
  723SOL    HW2 2191   2.382   0.762   2.186
  724SOL     OW 2192   2.903   0.701   2.291
  724SOL    HW1 2193   2.929   0.697   2.387
  724SOL    HW2 2194   2.818   0.650   2.277
  725SOL     OW 2195   1.938   0.811   2.651
  725SOL    HW1 2196   2.037   0.799   2.660
  725SOL    HW2 2197   1.914   0.906   2.672
  726SOL     OW 2198   2.727   0.348   2.057
  726SOL    HW1 2199   2.786   0.411   2.008
  726SOL    HW2 2200   2.746   0.254   2.028
  727SOL     OW 2201   2.412   0.196   2.747
  727SOL    HW1 2202   2.407   0.191   2.847
  727SOL    HW2 2203   2.414   0.292   2.718
  728SOL     OW 2204   2.870   1.456   2.339
  728SOL    HW1 2205   2.824   1.528   2.287
  728SOL    HW2 2206   2.866   1.476   2.437
  729SOL     OW 2207   2.213   1.801   2.715
  729SOL    HW1 2208   2.263   1.715   2.721
  729SOL    HW2 2209   2.278   1.878   2.712
  730SOL     OW 2210   2.183   0.943   2.104
  730SOL    HW1 2211   2.265   0.982   2.062
  730SOL    HW2 2212   2.156   0.861   2.055
  731SOL     OW 2213   2.326   1.743   2.185
  731SOL    HW1 2214   2.359   1.782   2.271
  731SOL    HW2 2215   2.402   1.736   2.120
  732SOL     OW 2216   2.111   1.785   3.103
  732SOL    HW1 2217   2.168   1.720   3.153
  732SOL    HW2 2218   2.095   1.752   3.010
  733SOL     OW 2219   2.802   1.698   2.766
  733SOL    HW1 2220   2.882   1.641   2.787
  733SOL    HW2 2221   2.753   1.658   2.689
  734SOL     OW 2222   2.244   0.700   2.342
  734SOL    HW1 2223   2.289   0.610   2.339
  734SOL    HW2 2224   2.150   0.689   2.375
  735SOL     OW 2225   2.476   0.122   1.979
  735SOL    HW1 2226   2.574   0.100   1.986
  735SOL    HW2 2227   2.445   0.105   1.886
  736SOL     OW 2228   2.665   1.402   2.786
  736SOL    HW1 2229   2.755   1.416   2.744
  736SOL    HW2 2230   2.594   1.404   2.715
  737SOL     OW 2231   2.784   0.503   2.761
  737SOL    HW1 2232   2.759   0.494   2.665
  737SOL    HW2 2233   2.832   0.421   2.792
  738SOL     OW 2234   2.401   0.064   2.374
  738SOL    HW1 2235   2.320   0.065   2.432
  738SOL    HW2 2236   2.404   0.147   2.319
  739SOL     OW 2237   2.159   0.035   2.033
  739SOL    HW1 2238   2.208   0.119   2.012
  739SOL    HW2 2239   2.221  -0.030   2.078
  740SOL     OW 2240   2.797   0.236   2.342
  740SOL    HW1 2241   2.749   0.277   2.264
  740SOL    HW2 2242   2.896   0.234   2.323
  741SOL     OW 2243   3.089   1.570   2.655
  741SOL    HW1 2244   3.110   1.644   2.590
  741SOL    HW2 2245   3.157   1.570   2.728
  742SOL     OW 2246   2.321   1.152   2.603
  742SOL    HW1 2247   2.250   1.125   2.668
  742SOL    HW2 2248   2.295   1.124   2.510
  743SOL     OW 2249   3.133   1.797   2.453
  743SOL    HW1 2250   3.177   1.861   2.389
  743SOL    HW2 2251   3.083   1.849   2.523
  744SOL     OW 2252   2.894   0.549   1.878
  744SOL    HW1 2253   2.853   0.631   1.839
  744SOL    HW2 2254   2.958   0.575   1.951
  745SOL     OW 2255   2.728   0.454   2.504
  745SOL    HW1 2256   2.696   0.526   2.442
  745SOL    HW2 2257   2.752   0.373   2.451
  746SOL     OW 2258   2.879   0.039   2.615
  746SOL    HW1 2259   2.807   0.044   2.546
  746SOL    HW2 2260   2.855  -0.030   2.684
  747SOL     OW 2261   2.350   1.385   2.036
  747SOL    HW1 2262   2.263   1.370   2.083
  747SOL    HW2 2263   2.333   1.411   1.941
  748SOL     OW 2264   2.389   0.256   2.190
  748SOL    HW1 2265   2.416   0.197   2.115
  748SOL    HW2 2266   2.389   0.351   2.159
  749SOL     OW 2267   2.567   1.050   2.230
  749SOL    HW1 2268   2.553   1.057   2.329
  749SOL    HW2 2269   2.651   0.999   2.212
  750SOL     OW 2270   2.272   0.813   3.113
  750SOL    HW1 2271   2.358   0.825   3.163
  750SOL    HW2 2272   2.230   0.726   3.140
  751SOL     OW 2273   2.229   1.100   2.363
  751SOL    HW1 2274   2.222   1.183   2.307
  751SOL    HW2 2275   2.233   1.020   2.303
  752SOL     OW 2276   2.428   0.537   2.727
  752SOL    HW1 2277   2.440   0.603   2.653
  752SOL    HW2 2278   2.474   0.571   2.810
  753SOL     OW 2279   3.114   1.348   2.250
  753SOL    HW1 2280   3.164   1.425   2.290
  753SOL    HW2 2281   3.019   1.350   2.282
  754SOL     OW 2282   3.134   1.445   3.004
  754SOL    HW1 2283   3.181   1.458   3.091
  754SOL    HW2 2284   3.068   1.371   3.013
  755SOL     OW 2285   2.216   1.510   3.191
  755SOL    HW1 2286   2.195   1.466   3.104
  755SOL    HW2 2287   2.313   1.536   3.194
  756SOL     OW 2288   2.435   0.870   2.891
  756SOL    HW1 2289   2.479   0.959   2.882
  756SOL    HW2 2290   2.372   0.870   2.968
  757SOL     OW 2291   3.071   0.525   2.137
  757SOL    HW1 2292   3.084   0.441   2.191
  757SOL    HW2 2293   3.042   0.599   2.197
  758SOL     OW 2294   2.169   0.213   3.093
  758SOL    HW1 2295   2.146   0.250   3.183
  758SOL    HW2 2296   2.139   0.118   3.087
  759SOL     OW 2297   2.594   0.634   2.926
  759SOL    HW1 2298   2.653   0.608   2.850
  759SOL    HW2 2299   2.566   0.730   2.915
  760SOL     OW 2300   2.169   0.063   2.480
  760SOL    HW1 2301   2.158   0.157   2.513
  760SOL    HW2 2302   2.164   0.000   2.557
  761SOL     OW 2303   2.885   0.766   2.828
  761SOL    HW1 2304   2.900   0.787   2.924
  761SOL    HW2 2305   2.855   0.671   2.819
  762SOL     OW 2306   3.165   0.838   1.904
  762SOL    HW1 2307   3.199   0.745   1.919
  762SOL    HW2 2308   3.183   0.865   1.809
  763SOL     OW 2309   2.930   1.333   2.711
  763SOL    HW1 2310   2.937   1.249   2.656
  763SOL    HW2 2311   2.992   1.402   2.675
  764SOL     OW 2312   2.181   0.810   2.811
  764SOL    HW1 2313   2.274   0.846   2.816
  764SOL    HW2 2314   2.175   0.725   2.863
  765SOL     OW 2315   2.201   0.509   2.868
  765SOL    HW1 2316   2.149   0.426   2.851
  765SOL    HW2 2317   2.278   0.514   2.804
  766SOL     OW 2318   1.870   1.326   2.062
  766SOL    HW1 2319   1.777   1.347   2.031
  766SOL    HW2 2320   1.880   1.227   2.075
  767SOL     OW 2321   1.950   1.801   2.789
  767SOL    HW1 2322   1.908   1.715   2.762
  767SOL    HW2 2323   2.044   1.804   2.755
  768SOL     OW 2324   2.366   1.568   2.772
  768SOL    HW1 2325   2.432   1.642   2.781
  768SOL    HW2 2326   2.410   1.489   2.730
  769SOL     OW 2327   2.864   0.796   3.100
  769SOL    HW1 2328   2.905   0.764   3.186
  769SOL    HW2 2329   2.768   0.769   3.097
  770SOL     OW 2330   1.902   0.544   2.976
  770SOL    HW1 2331   1.987   0.511   2.935
  770SOL    HW2 2332   1.915   0.559   3.074
  771SOL     OW 2333   2.677   0.572   2.187
  771SOL    HW1 2334   2.684   0.483   2.141
  771SOL    HW2 2335   2.583   0.606   2.179
  772SOL     OW 2336   2.533   0.464   3.131
  772SOL    HW1 2337   2.499   0.375   3.101
  772SOL    HW2 2338   2.559   0.518   3.051
  773SOL     OW 2339   2.335   0.500   2.053
  773SOL    HW1 2340   2.396   0.580   2.057
  773SOL    HW2 2341   2.240   0.531   2.060
  774SOL     OW 2342   3.164   0.855   2.171
  774SOL    HW1 2343   3.078   0.824   2.213
  774SOL    HW2 2344   3.160   0.841   2.072
  775SOL     OW 2345   1.945   1.258   2.884
  775SOL    HW1 2346   1.940   1.257   2.984
  775SOL    HW2 2347   1.862   1.217   2.846
  776SOL     OW 2348   2.534   1.616   2.016
  776SOL    HW1 2349   2.543   1.626   1.917
  776SOL    HW2 2350   2.494   1.527   2.037
  777SOL     OW 2351   2.125   0.326   2.582
  777SOL    HW1 2352   2.046   0.377   2.548
  777SOL    HW2 2353   2.116   0.311   2.680
  778SOL     OW 2354   2.684   1.002   3.234
  778SOL    HW1 2355   2.724   1.001   3.142
  778SOL    HW2 2356   2.694   1.094   3.274
  779SOL     OW 2357   2.778   0.910   2.153
  779SOL    HW1 2358   2.841   0.948   2.085
  779SOL    HW2 2359   2.818   0.827   2.192
  780SOL     OW 2360   2.901   1.098   2.558
  780SOL    HW1 2361   2.831   1.051   2.612
  780SOL    HW2 2362   2.960   1.030   2.515
  781SOL     OW 2363   2.876   0.236   2.833
  781SOL    HW1 2364   2.868   0.200   2.740
  781SOL    HW2 2365   2.874   0.160   2.898
  782SOL     OW 2366   2.452   1.487   2.353
  782SOL    HW1 2367   2.494   1.429   2.283
  782SOL    HW2 2368   2.408   1.566   2.309
  783SOL     OW 2369   2.117   1.348   2.152
  783SOL    HW1 2370   2.021   1.349   2.125
  783SOL    HW2 2371   2.129   1.401   2.236
  784SOL     OW 2372   1.937   0.345   1.895
  784SOL    HW1 2373   1.845   0.317   1.866
  784SOL    HW2 2374   1.968   0.422   1.839
  785SOL     OW 2375   1.934   0.166   2.180
  785SOL    HW1 2376   1.917   0.249   2.126
  785SOL    HW2 2377   2.024   0.129   2.158
  786SOL     OW 2378   2.456   0.745   2.514
  786SOL    HW1 2379   2.506   0.830   2.495
  786SOL    HW2 2380   2.368   0.747   2.466
  787SOL     OW 2381   2.721   1.374   1.878
  787SOL    HW1 2382   2.675   1.389   1.966
  787SOL    HW2 2383   2.765   1.459   1.848
  788SOL     OW 2384   2.523   1.790   2.815
  788SOL    HW1 2385   2.477   1.878   2.802
  788SOL    HW2 2386   2.622   1.802   2.808
  789SOL     OW 2387   2.721   0.956   2.723
  789SOL    HW1 2388   2.775   0.887   2.771
  789SOL    HW2 2389   2.689   1.025   2.789
  790SOL     OW 2390   2.945   0.984   1.949
  790SOL    HW1 2391   2.922   1.037   1.867
  790SOL    HW2 2392   3.026   0.928   1.930
  791SOL     OW 2393   1.941   1.240   2.515
  791SOL    HW1 2394   1.940   1.193   2.603
  791SOL    HW2 2395   2.023   1.212   2.464
  792SOL     OW 2396   2.290   0.424   2.382
  792SOL    HW1 2397   2.320   0.352   2.320
  792SOL    HW2 2398   2.251   0.384   2.465
  793SOL     OW 2399   2.674   1.586   2.549
  793SOL    HW1 2400   2.706   1.596   2.455
  793SOL    HW2 2401   2.595   1.524   2.551
  794SOL     OW 2402   2.632   1.330   2.163
  794SOL    HW1 2403   2.586   1.243   2.180
  794SOL    HW2 2404   2.723   1.327   2.204
  795SOL     OW 2405   1.901   1.077   2.162
  795SOL    HW1 2406   2.000   1.066   2.153
  795SOL    HW2 2407   1.861   0.991   2.194
  796SOL     OW 2408   2.737   1.646   2.199
  796SOL    HW1 2409   2.660   1.611   2.145
  796SOL    HW2 2410   2.705   1.717   2.261
  797SOL     OW 2411   2.092   2.490   0.113
  797SOL    HW1 2412   1.999   2.488   0.150
  797SOL    HW2 2413   2.093   2.451   0.021
  798SOL     OW 2414   2.087   2.137   0.996
  798SOL    HW1 2415   2.122   2.120   1.088
  798SOL    HW2 2416   1.999   2.092   0.984
  799SOL     OW 2417   1.881   2.230   0.647
  799SOL    HW1 2418   1.799   2.273   0.686
  799SOL    HW2 2419   1.853   2.157   0.584
  800SOL     OW 2420   2.630   3.006   1.023
  800SOL    HW1 2421   2.552   3.023   1.083
  800SOL    HW2 2422   2.664   3.093   0.987
  801SOL     OW 2423   2.712   2.660   1.823
  801SOL    HW1 2424   2.708   2.736   1.888
  801SOL    HW2 2425   2.734   2.696   1.732
  802SOL     OW 2426   2.547   2.874   0.665
  802SOL    HW1 2427   2.616   2.858   0.735
  802SOL    HW2 2428   2.474   2.931   0.703
  803SOL     OW 2429   2.300   2.254   1.499
  803SOL    HW1 2430   2.382   2.198   1.508
  803SOL    HW2 2431   2.219   2.196   1.503
  804SOL     OW 2432   2.102   2.953   0.886
  804SOL    HW1 2433   2.116   2.869   0.938
  804SOL    HW2 2434   2.047   3.017   0.941
  805SOL     OW 2435   2.468   2.826   0.123
  805SOL    HW1 2436   2.475   2.910   0.069
  805SOL    HW2 2437   2.514   2.839   0.211
  806SOL     OW 2438   1.984   2.505   0.563
  806SOL    HW1 2439   1.939   2.417   0.580
  806SOL    HW2 2440   1.983   2.559   0.647
  807SOL     OW 2441   1.975   2.599   1.597
  807SOL    HW1 2442   2.063   2.586   1.642
  807SOL    HW2 2443   1.962   2.696   1.575
  808SOL     OW 2444   2.475   3.227   0.726
  808SOL    HW1 2445   2.426   3.140   0.735
  808SOL    HW2 2446   2.452   3.270   0.639
  809SOL     OW 2447   2.671   1.866   0.502
  809SOL    HW1 2448   2.711   1.957   0.493
  809SOL    HW2 2449   2.571   1.874   0.508
  810SOL     OW 2450   2.059   2.838   1.264
  810SOL    HW1 2451   2.148   2.793   1.250
  810SOL    HW2 2452   1.986   2.773   1.245
  811SOL     OW 2453   2.179   2.113   1.801
  811SOL    HW1 2454   2.250   2.184   1.807
  811SOL    HW2 2455   2.091   2.152   1.829
  812SOL     OW 2456   2.460   2.591   0.270
  812SOL    HW1 2457   2.484   2.660   0.202
  812SOL    HW2 2458   2.382   2.624   0.324
  813SOL     OW 2459   2.669   2.467   1.465
  813SOL    HW1 2460   2.622   2.464   1.554
  813SOL    HW2 2461   2.618   2.412   1.399
  814SOL     OW 2462   2.835   2.752   1.572
  814SOL    HW1 2463   2.881   2.668   1.543
  814SOL    HW2 2464   2.779   2.786   1.497
  815SOL     OW 2465   2.853   2.272   1.242
  815SOL    HW1 2466   2.776   2.306   1.296
  815SOL    HW2 2467   2.819   2.221   1.163
  816SOL     OW 2468   2.903   2.563   0.429
  816SOL    HW1 2469   2.929   2.559   0.525
  816SOL    HW2 2470   2.818   2.512   0.415
  817SOL     OW 2471   1.938   2.673   0.789
  817SOL    HW1 2472   2.037   2.661   0.798
  817SOL    HW2 2473   1.914   2.768   0.810
  818SOL     OW 2474   2.727   2.210   0.195
  818SOL    HW1 2475   2.786   2.273   0.146
  818SOL    HW2 2476   2.746   2.116   0.166
  819SOL     OW 2477   2.412   2.058   0.885
  819SOL    HW1 2478   2.407   2.053   0.985
  819SOL    HW2 2479   2.414   2.154   0.856
  820SOL     OW 2480   2.183   2.805   0.242
  820SOL    HW1 2481   2.265   2.844   0.200
  820SOL    HW2 2482   2.156   2.723   0.193
  821SOL     OW 2483   2.064   2.147   1.498
  821SOL    HW1 2484   1.984   2.207   1.485
  821SOL    HW2 2485   2.054   2.098   1.584
  822SOL     OW 2486   2.244   2.562   0.480
  822SOL    HW1 2487   2.289   2.472   0.477
  822SOL    HW2 2488   2.150   2.551   0.513
  823SOL     OW 2489   2.476   1.984   0.117
  823SOL    HW1 2490   2.574   1.962   0.124
  823SOL    HW2 2491   2.445   1.967   0.024
  824SOL     OW 2492   2.643   2.126   1.749
  824SOL    HW1 2493   2.710   2.065   1.792
  824SOL    HW2 2494   2.570   2.145   1.814
  825SOL     OW 2495   2.784   2.365   0.899
  825SOL    HW1 2496   2.759   2.356   0.803
  825SOL    HW2 2497   2.832   2.283   0.930
  826SOL     OW 2498   2.401   1.926   0.512
  826SOL    HW1 2499   2.320   1.927   0.570
  826SOL    HW2 2500   2.404   2.009   0.457
  827SOL     OW 2501   2.159   1.897   0.171
  827SOL    HW1 2502   2.208   1.981   0.150
  827SOL    HW2 2503   2.221   1.832   0.216
  828SOL     OW 2504   2.797   2.098   0.480
  828SOL    HW1 2505   2.749   2.139   0.402
  828SOL    HW2 2506   2.896   2.096   0.461
  829SOL     OW 2507   2.321   3.014   0.741
  829SOL    HW1 2508   2.250   2.987   0.806
  829SOL    HW2 2509   2.295   2.986   0.648
  830SOL     OW 2510   2.894   2.411   0.016
  830SOL    HW1 2511   2.853   2.493  -0.023
  830SOL    HW2 2512   2.958   2.437   0.089
  831SOL     OW 2513   1.940   2.418   1.386
  831SOL    HW1 2514   2.032   2.417   1.345
  831SOL    HW2 2515   1.934   2.492   1.453
  832SOL     OW 2516   2.423   2.084   1.147
  832SOL    HW1 2517   2.461   2.000   1.184
  832SOL    HW2 2518   2.335   2.103   1.191
  833SOL     OW 2519   2.728   2.316   0.642
  833SOL    HW1 2520   2.696   2.388   0.580
  833SOL    HW2 2521   2.752   2.235   0.589
  834SOL     OW 2522   2.879   1.901   0.753
  834SOL    HW1 2523   2.807   1.906   0.684
  834SOL    HW2 2524   2.855   1.832   0.822
  835SOL     OW 2525   2.389   2.118   0.328
  835SOL    HW1 2526   2.416   2.059   0.253
  835SOL    HW2 2527   2.389   2.213   0.297
  836SOL     OW 2528   2.777   1.951   1.402
  836SOL    HW1 2529   2.802   1.931   1.307
  836SOL    HW2 2530   2.849   2.007   1.444
  837SOL     OW 2531   2.567   2.912   0.368
  837SOL    HW1 2532   2.553   2.919   0.467
  837SOL    HW2 2533   2.651   2.861   0.350
  838SOL     OW 2534   2.272   2.675   1.251
  838SOL    HW1 2535   2.358   2.687   1.301
  838SOL    HW2 2536   2.230   2.588   1.278
  839SOL     OW 2537   2.229   2.962   0.501
  839SOL    HW1 2538   2.222   3.045   0.445
  839SOL    HW2 2539   2.233   2.882   0.441
  840SOL     OW 2540   2.428   2.399   0.865
  840SOL    HW1 2541   2.440   2.465   0.791
  840SOL    HW2 2542   2.474   2.433   0.948
  841SOL     OW 2543   2.264   2.613   1.598
  841SOL    HW1 2544   2.332   2.668   1.551
  841SOL    HW2 2545   2.304   2.525   1.625
  842SOL     OW 2546   2.875   1.967   1.770
  842SOL    HW1 2547   2.881   2.052   1.718
  842SOL    HW2 2548   2.907   1.891   1.713
  843SOL     OW 2549   2.366   1.912   1.740
  843SOL    HW1 2550   2.324   1.855   1.670
  843SOL    HW2 2551   2.300   1.981   1.772
  844SOL     OW 2552   2.435   2.732   1.029
  844SOL    HW1 2553   2.479   2.821   1.020
  844SOL    HW2 2554   2.372   2.732   1.106
  845SOL     OW 2555   3.071   2.387   0.275
  845SOL    HW1 2556   3.084   2.303   0.329
  845SOL    HW2 2557   3.042   2.461   0.335
  846SOL     OW 2558   2.169   2.075   1.231
  846SOL    HW1 2559   2.146   2.112   1.321
  846SOL    HW2 2560   2.139   1.980   1.225
  847SOL     OW 2561   2.594   2.496   1.064
  847SOL    HW1 2562   2.653   2.470   0.988
  847SOL    HW2 2563   2.566   2.592   1.053
  848SOL     OW 2564   2.169   1.925   0.618
  848SOL    HW1 2565   2.158   2.019   0.651
  848SOL    HW2 2566   2.164   1.862   0.695
  849SOL     OW 2567   2.885   2.628   0.966
  849SOL    HW1 2568   2.900   2.649   1.062
  849SOL    HW2 2569   2.855   2.533   0.957
  850SOL     OW 2570   2.212   2.760   1.804
  850SOL    HW1 2571   2.288   2.804   1.852
  850SOL    HW2 2572   2.247   2.713   1.722
  851SOL     OW 2573   2.181   2.672   0.949
  851SOL    HW1 2574   2.274   2.708   0.954
  851SOL    HW2 2575   2.175   2.587   1.001
  852SOL     OW 2576   2.201   2.371   1.006
  852SOL    HW1 2577   2.149   2.288   0.989
  852SOL    HW2 2578   2.278   2.376   0.942
  853SOL     OW 2579   3.000   2.242   1.678
  853SOL    HW1 2580   2.955   2.305   1.742
  853SOL    HW2 2581   3.093   2.273   1.661
  854SOL     OW 2582   3.022   2.069   1.477
  854SOL    HW1 2583   3.022   2.133   1.554
  854SOL    HW2 2584   3.050   2.117   1.394
  855SOL     OW 2585   2.864   2.658   1.238
  855SOL    HW1 2586   2.905   2.626   1.324
  855SOL    HW2 2587   2.768   2.631   1.235
  856SOL     OW 2588   1.902   2.406   1.114
  856SOL    HW1 2589   1.987   2.373   1.073
  856SOL    HW2 2590   1.915   2.421   1.212
  857SOL     OW 2591   2.051   2.382   1.722
  857SOL    HW1 2592   2.110   2.342   1.652
  857SOL    HW2 2593   1.993   2.453   1.681
  858SOL     OW 2594   2.677   2.434   0.325
  858SOL    HW1 2595   2.684   2.345   0.279
  858SOL    HW2 2596   2.583   2.468   0.317
  859SOL     OW 2597   2.533   2.326   1.269
  859SOL    HW1 2598   2.499   2.237   1.239
  859SOL    HW2 2599   2.559   2.380   1.189
  860SOL     OW 2600   2.335   2.362   0.191
  860SOL    HW1 2601   2.396   2.442   0.195
  860SOL    HW2 2602   2.240   2.393   0.198
  861SOL     OW 2603   2.021   2.999   1.466
  861SOL    HW1 2604   2.043   2.938   1.542
  861SOL    HW2 2605   2.031   2.950   1.380
  862SOL     OW 2606   3.164   2.717   0.309
  862SOL    HW1 2607   3.078   2.686   0.351
  862SOL    HW2 2608   3.160   2.703   0.210
  863SOL     OW 2609   2.765   1.948   0.133
  863SOL    HW1 2610   2.816   1.949   0.047
  863SOL    HW2 2611   2.821   1.906   0.204
  864SOL     OW 2612   2.125   2.188   0.720
  864SOL    HW1 2613   2.046   2.239   0.686
  864SOL    HW2 2614   2.116   2.173   0.818
  865SOL     OW 2615   2.684   2.864   1.372
  865SOL    HW1 2616   2.724   2.863   1.280
  865SOL    HW2 2617   2.694   2.956   1.412
  866SOL     OW 2618   2.778   2.772   0.291
  866SOL    HW1 2619   2.841   2.810   0.223
  866SOL    HW2 2620   2.818   2.689   0.330
  867SOL     OW 2621   2.234   3.150   1.490
  867SOL    HW1 2622   2.221   3.243   1.456
  867SOL    HW2 2623   2.150   3.098   1.477
  868SOL     OW 2624   2.876   2.098   0.971
  868SOL    HW1 2625   2.868   2.062   0.878
  868SOL    HW2 2626   2.874   2.022   1.036
  869SOL     OW 2627   1.967   2.875   1.726
  869SOL    HW1 2628   1.890   2.842   1.780
  869SOL    HW2 2629   2.052   2.845   1.768
  870SOL     OW 2630   2.534   2.065   1.489
  870SOL    HW1 2631   2.624   2.049   1.449
  870SOL    HW2 2632   2.542   2.070   1.588
  871SOL     OW 2633   1.934   2.028   0.318
  871SOL    HW1 2634   1.917   2.111   0.264
  871SOL    HW2 2635   2.024   1.991   0.296
  872SOL     OW 2636   2.475   2.704   1.431
  872SOL    HW1 2637   2.531   2.785   1.414
  872SOL    HW2 2638   2.534   2.624   1.434
  873SOL     OW 2639   2.578   2.427   1.708
  873SOL    HW1 2640   2.597   2.492   1.782
  873SOL    HW2 2641   2.638   2.347   1.717
  874SOL     OW 2642   2.456   2.607   0.652
  874SOL    HW1 2643   2.506   2.692   0.633
  874SOL    HW2 2644   2.368   2.609   0.604
  875SOL     OW 2645   2.721   2.818   0.861
  875SOL    HW1 2646   2.775   2.749   0.909
  875SOL    HW2 2647   2.689   2.887   0.927
  876SOL     OW 2648   2.945   2.846   0.087
  876SOL    HW1 2649   2.922   2.899   0.005
  876SOL    HW2 2650   3.026   2.790   0.068
  877SOL     OW 2651   1.941   3.102   0.653
  877SOL    HW1 2652   1.940   3.055   0.741
  877SOL    HW2 2653   2.023   3.074   0.602
  878SOL     OW 2654   2.290   2.286   0.520
  878SOL    HW1 2655   2.320   2.214   0.458
  878SOL    HW2 2656   2.251   2.246   0.603
  879SOL     OW 2657   2.179   2.409   1.280
  879SOL    HW1 2658   2.217   2.350   1.352
  879SOL    HW2 2659   2.219   2.383   1.192
  880SOL     OW 2660   2.863   1.896   1.154
  880SOL    HW1 2661   2.800   1.824   1.123
  880SOL    HW2 2662   2.956   1.860   1.154
  881SOL     OW 2663   2.632   3.192   0.301
  881SOL    HW1 2664   2.586   3.105   0.318
  881SOL    HW2 2665   2.723   3.189   0.342
  882SOL     OW 2666   1.901   2.939   0.300
  882SOL    HW1 2667   2.000   2.928   0.291
  882SOL    HW2 2668   1.861   2.853   0.332
  883SOL     OW 2669   2.092   2.490   1.975
  883SOL    HW1 2670   1.999   2.488   2.012
  883SOL    HW2 2671   2.093   2.451   1.883
  884SOL     OW 2672   2.087   2.137   2.858
  884SOL    HW1 2673   2.122   2.120   2.950
  884SOL    HW2 2674   1.999   2.092   2.846
  885SOL     OW 2675   1.881   2.230   2.509
  885SOL    HW1 2676   1.799   2.273   2.548
  885SOL    HW2 2677   1.853   2.157   2.446
  886SOL     OW 2678   2.630   3.006   2.885
  886SOL    HW1 2679   2.552   3.023   2.945
  886SOL    HW2 2680   2.664   3.093   2.849
  887SOL     OW 2681   2.547   2.874   2.527
  887SOL    HW1 2682   2.616   2.858   2.597
  887SOL    HW2 2683   2.474   2.931   2.565
  888SOL     OW 2684   2.102   2.953   2.748
  888SOL    HW1 2685   2.116   2.869   2.800
  888SOL    HW2 2686   2.047   3.017   2.803
  889SOL     OW 2687   2.468   2.826   1.985
  889SOL    HW1 2688   2.475   2.910   1.931
  889SOL    HW2 2689   2.514   2.839   2.073
  890SOL     OW 2690   1.984   2.505   2.425
  890SOL    HW1 2691   1.939   2.417   2.442
  890SOL    HW2 2692   1.983   2.559   2.509
  891SOL     OW 2693   2.475   3.227   2.588
  891SOL    HW1 2694   2.426   3.140   2.597
  891SOL    HW2 2695   2.452   3.270   2.501
  892SOL     OW 2696   2.671   1.866   2.364
  892SOL    HW1 2697   2.711   1.957   2.355
  892SOL    HW2 2698   2.571   1.874   2.370
  893SOL     OW 2699   2.059   2.838   3.126
  893SOL    HW1 2700   2.148   2.793   3.112
  893SOL    HW2 2701   1.986   2.773   3.107
  894SOL     OW 2702   2.460   2.591   2.132
  894SOL    HW1 2703   2.484   2.660   2.064
  894SOL    HW2 2704   2.382   2.624   2.186
  895SOL     OW 2705   2.903   2.563   2.291
  895SOL    HW1 2706   2.929   2.559   2.387
  895SOL    HW2 2707   2.818   2.512   2.277
  896SOL     OW 2708   1.938   2.673   2.651
  896SOL    HW1 2709   2.037   2.661   2.660
  896SOL    HW2 2710   1.914   2.768   2.672
  897SOL     OW 2711   2.727   2.210   2.057
  897SOL    HW1 2712   2.786   2.273   2.008
  897SOL    HW2 2713   2.746   2.116   2.028
  898SOL     OW 2714   2.412   2.058   2.747
  898SOL    HW1 2715   2.407   2.053   2.847
  898SOL    HW2 2716   2.414   2.154   2.718
  899SOL     OW 2717   2.183   2.805   2.104
  899SOL    HW1 2718   2.265   2.844   2.062
  899SOL    HW2 2719   2.156   2.723   2.055
  900SOL     OW 2720   2.244   2.562   2.342
  900SOL    HW1 2721   2.289   2.472   2.339
  900SOL    HW2 2722   2.150   2.551   2.375
  901SOL     OW 2723   2.476   1.984   1.979
  901SOL    HW1 2724   2.574   1.962   1.986
  901SOL    HW2 2725   2.445   1.967   1.886
  902SOL     OW 2726   2.750   3.376   3.057
  902SOL    HW1 2727   2.727   3.351   2.963
  902SOL    HW2 2728   2.811   3.307   3.096
  903SOL     OW 2729   2.784   2.365   2.761
  903SOL    HW1 2730   2.759   2.356   2.665
  903SOL    HW2 2731   2.832   2.283   2.792
  904SOL     OW 2732   2.401   1.926   2.374
  904SOL    HW1 2733   2.320   1.927   2.432
  904SOL    HW2 2734   2.404   2.009   2.319
  905SOL     OW 2735   2.159   1.897   2.033
  905SOL    HW1 2736   2.208   1.981   2.012
  905SOL    HW2 2737   2.221   1.832   2.078
  906SOL     OW 2738   2.797   2.098   2.342
  906SOL    HW1 2739   2.749   2.139   2.264
  906SOL    HW2 2740   2.896   2.096   2.323
  907SOL     OW 2741   2.321   3.014   2.603
  907SOL    HW1 2742   2.250   2.987   2.668
  907SOL    HW2 2743   2.295   2.986   2.510
  908SOL     OW 2744   2.894   2.411   1.878
  908SOL    HW1 2745   2.853   2.493   1.839
  908SOL    HW2 2746   2.958   2.437   1.951
  909SOL     OW 2747   2.728   2.316   2.504
  909SOL    HW1 2748   2.696   2.388   2.442
  909SOL    HW2 2749   2.752   2.235   2.451
  910SOL     OW 2750   2.879   1.901   2.615
  910SOL    HW1 2751   2.807   1.906   2.546
  910SOL    HW2 2752   2.855   1.832   2.684
  911SOL     OW 2753   2.389   2.118   2.190
  911SOL    HW1 2754   2.416   2.059   2.115
  911SOL    HW2 2755   2.389   2.213   2.159
  912SOL     OW 2756   2.567   2.912   2.230
  912SOL    HW1 2757   2.553   2.919   2.329
  912SOL    HW2 2758   2.651   2.861   2.212
  913SOL     OW 2759   2.272   2.675   3.113
  913SOL    HW1 2760   2.358   2.687   3.163
  913SOL    HW2 2761   2.230   2.588   3.140
  914SOL     OW 2762   2.229   2.962   2.363
  914SOL    HW1 2763   2.222   3.045   2.307
  914SOL    HW2 2764   2.233   2.882   2.303
  915SOL     OW 2765   2.428   2.399   2.727
  915SOL    HW1 2766   2.440   2.465   2.653
  915SOL    HW2 2767   2.474   2.433   2.810
  916SOL     OW 2768   2.435   2.732   2.891
  916SOL    HW1 2769   2.479   2.821   2.882
  916SOL    HW2 2770   2.372   2.732   2.968
  917SOL     OW 2771   3.071   2.387   2.137
  917SOL    HW1 2772   3.084   2.303   2.191
  917SOL    HW2 2773   3.042   2.461   2.197
  918SOL     OW 2774   2.169   2.075   3.093
  918SOL    HW1 2775   2.146   2.112   3.183
  918SOL    HW2 2776   2.139   1.980   3.087
  919SOL     OW 2777   2.594   2.496   2.926
  919SOL    HW1 2778   2.653   2.470   2.850
  919SOL    HW2 2779   2.566   2.592   2.915
  920SOL     OW 2780   2.169   1.925   2.480
  920SOL    HW1 2781   2.158   2.019   2.513
  920SOL    HW2 2782   2.164   1.862   2.557
  921SOL     OW 2783   2.885   2.628   2.828
  921SOL    HW1 2784   2.900   2.649   2.924
  921SOL    HW2 2785   2.855   2.533   2.819
  922SOL     OW 2786   3.165   2.700   1.904
  922SOL    HW1 2787   3.199   2.607   1.919
  922SOL    HW2 2788   3.183   2.727   1.809
  923SOL     OW 2789   2.181   2.672   2.811
  923SOL    HW1 2790   2.274   2.708   2.816
  923SOL    HW2 2791   2.175   2.587   2.863
  924SOL     OW 2792   2.201   2.371   2.868
  924SOL    HW1 2793   2.149   2.288   2.851
  924SOL    HW2 2794   2.278   2.376   2.804
  925SOL     OW 2795   2.864   2.658   3.100
  925SOL    HW1 2796   2.905   2.626   3.186
  925SOL    HW2 2797   2.768   2.631   3.097
  926SOL     OW 2798   1.902   2.406   2.976
  926SOL    HW1 2799   1.987   2.373   2.935
  926SOL    HW2 2800   1.915   2.421   3.074
  927SOL     OW 2801   2.677   2.434   2.187
  927SOL    HW1 2802   2.684   2.345   2.141
  927SOL    HW2 2803   2.583   2.468   2.179
  928SOL     OW 2804   2.533   2.326   3.131
  928SOL    HW1 2805   2.499   2.237   3.101
  928SOL    HW2 2806   2.559   2.380   3.051
  929SOL     OW 2807   2.335   2.362   2.053
  929SOL    HW1 2808   2.396   2.442   2.057
  929SOL    HW2 2809   2.240   2.393   2.060
  930SOL     OW 2810   3.164   2.717   2.171
  930SOL    HW1 2811   3.078   2.686   2.213
  930SOL    HW2 2812   3.160   2.703   2.072
  931SOL     OW 2813   2.125   2.188   2.582
  931SOL    HW1 2814   2.046   2.239   2.548
  931SOL    HW2 2815   2.116   2.173   2.680
  932SOL     OW 2816   2.684   2.864   3.234
  932SOL    HW1 2817   2.724   2.863   3.142
  932SOL    HW2 2818   2.694   2.956   3.274
  933SOL     OW 2819   2.778   2.772   2.153
  933SOL    HW1 2820   2.841   2.810   2.085
  933SOL    HW2 2821   2.818   2.689   2.192
  934SOL     OW 2822   2.876   2.098   2.833
  934SOL    HW1 2823   2.868   2.062   2.740
  934SOL    HW2 2824   2.874   2.022   2.898
  935SOL     OW 2825   1.937   2.207   1.895
  935SOL    HW1 2826   1.845   2.179   1.866
  935SOL    HW2 2827   1.968   2.284   1.839
  936SOL     OW 2828   1.934   2.028   2.180
  936SOL    HW1 2829   1.917   2.111   2.126
  936SOL    HW2 2830   2.024   1.991   2.158
  937SOL     OW 2831   2.456   2.607   2.514
  937SOL    HW1 2832   2.506   2.692   2.495
  937SOL    HW2 2833   2.368   2.609   2.466
  938SOL     OW 2834   2.721   2.818   2.723
  938SOL    HW1 2835   2.775   2.749   2.771
  938SOL    HW2 2836   2.689   2.887   2.789
  939SOL     OW 2837   2.945   2.846   1.949
  939SOL    HW1 2838   2.922   2.899   1.867
  939SOL    HW2 2839   3.026   2.790   1.930
  940SOL     OW 2840   1.941   3.102   2.515
  940SOL    HW1 2841   1.940   3.055   2.603
  940SOL    HW2 2842   2.023   3.074   2.464
  941SOL     OW 2843   2.290   2.286   2.382
  941SOL    HW1 2844   2.320   2.214   2.320
  941SOL    HW2 2845   2.251   2.246   2.465
  942SOL     OW 2846   2.632   3.192   2.163
  942SOL    HW1 2847   2.586   3.105   2.180
  942SOL    HW2 2848   2.723   3.189   2.204
  943SOL     OW 2849   1.901   2.939   2.162
  943SOL    HW1 2850   2.000   2.928   2.153
  943SOL    HW2 2851   1.861   2.853   2.194
   3.06225   3.06225   3.06225
