; mobley_3968043_GMX.itp created by acpype (v: 2023.10.27) on Thu May 14 13:44:34 2026

[ atomtypes ]
;name   bond_type     mass     charge   ptype   sigma         epsilon       Amb
 c        c           0.00000  0.00000   A     3.31521e-01   4.13379e-01 ; 1.86  0.0988
 c5       c5          0.00000  0.00000   A     3.39771e-01   4.51035e-01 ; 1.91  0.1078
 o        o           0.00000  0.00000   A     3.04812e-01   6.12119e-01 ; 1.71  0.1463
 hc       hc          0.00000  0.00000   A     2.60018e-01   8.70272e-02 ; 1.46  0.0208

[ moleculetype ]
;name            nrexcl
 mobley_3968043   3

[ atoms ]
;   nr  type  resi  res  atom  cgnr     charge      mass       ; qtot   bond_type
     1    c     1   MOL    C1    1     0.575100     12.01000 ; qtot 0.575
     2   c5     1   MOL    C2    2    -0.190400     12.01000 ; qtot 0.385
     3   c5     1   MOL    C3    3    -0.190400     12.01000 ; qtot 0.194
     4   c5     1   MOL    C4    4    -0.079400     12.01000 ; qtot 0.115
     5   c5     1   MOL    C5    5    -0.079400     12.01000 ; qtot 0.036
     6    o     1   MOL    O1    6    -0.529100     16.00000 ; qtot -0.494
     7   hc     1   MOL    H1    7     0.076200      1.00800 ; qtot -0.417
     8   hc     1   MOL    H2    8     0.076200      1.00800 ; qtot -0.341
     9   hc     1   MOL    H3    9     0.076200      1.00800 ; qtot -0.265
    10   hc     1   MOL    H4   10     0.076200      1.00800 ; qtot -0.189
    11   hc     1   MOL    H5   11     0.047200      1.00800 ; qtot -0.142
    12   hc     1   MOL    H6   12     0.047200      1.00800 ; qtot -0.094
    13   hc     1   MOL    H7   13     0.047200      1.00800 ; qtot -0.047
    14   hc     1   MOL    H8   14     0.047200      1.00800 ; qtot -0.000

[ bonds ]
;   ai     aj funct   r             k
     1      2   1    1.5346e-01    1.9200e+05 ;     C1 - C2    
     1      3   1    1.5346e-01    1.9200e+05 ;     C1 - C3    
     1      6   1    1.2190e-01    4.9421e+05 ;     C1 - O1    
     2      4   1    1.5483e-01    1.8418e+05 ;     C2 - C4    
     2      7   1    1.0954e-01    2.8989e+05 ;     C2 - H1    
     2      8   1    1.0954e-01    2.8989e+05 ;     C2 - H2    
     3      5   1    1.5483e-01    1.8418e+05 ;     C3 - C5    
     3      9   1    1.0954e-01    2.8989e+05 ;     C3 - H3    
     3     10   1    1.0954e-01    2.8989e+05 ;     C3 - H4    
     4      5   1    1.5483e-01    1.8418e+05 ;     C4 - C5    
     4     11   1    1.0954e-01    2.8989e+05 ;     C4 - H5    
     4     12   1    1.0954e-01    2.8989e+05 ;     C4 - H6    
     5     13   1    1.0954e-01    2.8989e+05 ;     C5 - H7    
     5     14   1    1.0954e-01    2.8989e+05 ;     C5 - H8    

[ pairs ]
;   ai     aj    funct
     1     11      1 ;     C1 - H5    
     1     12      1 ;     C1 - H6    
     1     13      1 ;     C1 - H7    
     1     14      1 ;     C1 - H8    
     2      9      1 ;     C2 - H3    
     2     10      1 ;     C2 - H4    
     2     13      1 ;     C2 - H7    
     2     14      1 ;     C2 - H8    
     3      7      1 ;     C3 - H1    
     3      8      1 ;     C3 - H2    
     3     11      1 ;     C3 - H5    
     3     12      1 ;     C3 - H6    
     4      9      1 ;     C4 - H3    
     4     10      1 ;     C4 - H4    
     5      7      1 ;     C5 - H1    
     5      8      1 ;     C5 - H2    
     6      4      1 ;     O1 - C4    
     6      5      1 ;     O1 - C5    
     6      7      1 ;     O1 - H1    
     6      8      1 ;     O1 - H2    
     6      9      1 ;     O1 - H3    
     6     10      1 ;     O1 - H4    
     7     11      1 ;     H1 - H5    
     7     12      1 ;     H1 - H6    
     8     11      1 ;     H2 - H5    
     8     12      1 ;     H2 - H6    
     9     13      1 ;     H3 - H7    
     9     14      1 ;     H3 - H8    
    10     13      1 ;     H4 - H7    
    10     14      1 ;     H4 - H8    
    11     13      1 ;     H5 - H7    
    11     14      1 ;     H5 - H8    
    12     13      1 ;     H6 - H7    
    12     14      1 ;     H6 - H8    

[ angles ]
;   ai     aj     ak    funct   theta         cth
     1      2      4      1    1.0786e+02    5.0995e+02 ;     C1 - C2     - C4    
     1      2      7      1    1.0864e+02    3.6401e+02 ;     C1 - C2     - H1    
     1      2      8      1    1.0864e+02    3.6401e+02 ;     C1 - C2     - H2    
     1      3      5      1    1.0786e+02    5.0995e+02 ;     C1 - C3     - C5    
     1      3      9      1    1.0864e+02    3.6401e+02 ;     C1 - C3     - H3    
     1      3     10      1    1.0864e+02    3.6401e+02 ;     C1 - C3     - H4    
     2      1      3      1    1.0837e+02    5.1103e+02 ;     C2 - C1     - C3    
     2      1      6      1    1.2567e+02    6.3019e+02 ;     C2 - C1     - O1    
     2      4      5      1    1.0383e+02    5.1748e+02 ;     C2 - C4     - C5    
     2      4     11      1    1.1117e+02    3.5690e+02 ;     C2 - C4     - H5    
     2      4     12      1    1.1117e+02    3.5690e+02 ;     C2 - C4     - H6    
     3      1      6      1    1.2567e+02    6.3019e+02 ;     C3 - C1     - O1    
     3      5      4      1    1.0383e+02    5.1748e+02 ;     C3 - C5     - C4    
     3      5     13      1    1.1117e+02    3.5690e+02 ;     C3 - C5     - H7    
     3      5     14      1    1.1117e+02    3.5690e+02 ;     C3 - C5     - H8    
     4      2      7      1    1.1117e+02    3.5690e+02 ;     C4 - C2     - H1    
     4      2      8      1    1.1117e+02    3.5690e+02 ;     C4 - C2     - H2    
     4      5     13      1    1.1117e+02    3.5690e+02 ;     C4 - C5     - H7    
     4      5     14      1    1.1117e+02    3.5690e+02 ;     C4 - C5     - H8    
     5      3      9      1    1.1117e+02    3.5690e+02 ;     C5 - C3     - H3    
     5      3     10      1    1.1117e+02    3.5690e+02 ;     C5 - C3     - H4    
     5      4     11      1    1.1117e+02    3.5690e+02 ;     C5 - C4     - H5    
     5      4     12      1    1.1117e+02    3.5690e+02 ;     C5 - C4     - H6    
     7      2      8      1    1.0722e+02    3.0049e+02 ;     H1 - C2     - H2    
     9      3     10      1    1.0722e+02    3.0049e+02 ;     H3 - C3     - H4    
    11      4     12      1    1.0722e+02    3.0049e+02 ;     H5 - C4     - H6    
    13      5     14      1    1.0722e+02    3.0049e+02 ;     H7 - C5     - H8    

[ dihedrals ] ; propers
; for gromacs 4.5 or higher, using funct 9
;    i      j      k      l   func   phase     kd      pn
     1      2      4      5      9     0.00   0.00000   0 ;     C1-    C2-    C4-    C5
     1      2      4      5      9     0.00   0.16736   2 ;     C1-    C2-    C4-    C5
     1      2      4      5      9   180.00   1.92464   1 ;     C1-    C2-    C4-    C5
     1      2      4     11      9     0.00   0.65084   3 ;     C1-    C2-    C4-    H5
     1      2      4     12      9     0.00   0.65084   3 ;     C1-    C2-    C4-    H6
     1      3      5      4      9     0.00   0.00000   0 ;     C1-    C3-    C5-    C4
     1      3      5      4      9     0.00   0.16736   2 ;     C1-    C3-    C5-    C4
     1      3      5      4      9   180.00   1.92464   1 ;     C1-    C3-    C5-    C4
     1      3      5     13      9     0.00   0.65084   3 ;     C1-    C3-    C5-    H7
     1      3      5     14      9     0.00   0.65084   3 ;     C1-    C3-    C5-    H8
     2      1      3      5      9   180.00   1.09621   2 ;     C2-    C1-    C3-    C5
     2      1      3      9      9   180.00   0.00000   3 ;     C2-    C1-    C3-    H3
     2      1      3     10      9   180.00   0.00000   3 ;     C2-    C1-    C3-    H4
     2      4      5      3      9     0.00   2.17568   3 ;     C2-    C4-    C5-    C3
     2      4      5     13      9     0.00   0.54392   3 ;     C2-    C4-    C5-    H7
     2      4      5     14      9     0.00   0.54392   3 ;     C2-    C4-    C5-    H8
     3      1      2      4      9   180.00   1.09621   2 ;     C3-    C1-    C2-    C4
     3      1      2      7      9   180.00   0.00000   3 ;     C3-    C1-    C2-    H1
     3      1      2      8      9   180.00   0.00000   3 ;     C3-    C1-    C2-    H2
     3      5      4     11      9     0.00   0.54392   3 ;     C3-    C5-    C4-    H5
     3      5      4     12      9     0.00   0.54392   3 ;     C3-    C5-    C4-    H6
     4      5      3      9      9     0.00   0.54392   3 ;     C4-    C5-    C3-    H3
     4      5      3     10      9     0.00   0.54392   3 ;     C4-    C5-    C3-    H4
     5      4      2      7      9     0.00   0.54392   3 ;     C5-    C4-    C2-    H1
     5      4      2      8      9     0.00   0.54392   3 ;     C5-    C4-    C2-    H2
     6      1      2      4      9     0.00   2.84512   1 ;     O1-    C1-    C2-    C4
     6      1      2      4      9   180.00   0.83680   2 ;     O1-    C1-    C2-    C4
     6      1      2      4      9   180.00   1.84096   3 ;     O1-    C1-    C2-    C4
     6      1      2      7      9     0.00  16.86152   1 ;     O1-    C1-    C2-    H1
     6      1      2      7      9   180.00  15.31344   2 ;     O1-    C1-    C2-    H1
     6      1      2      8      9     0.00  16.86152   1 ;     O1-    C1-    C2-    H2
     6      1      2      8      9   180.00  15.31344   2 ;     O1-    C1-    C2-    H2
     6      1      3      5      9     0.00   2.84512   1 ;     O1-    C1-    C3-    C5
     6      1      3      5      9   180.00   0.83680   2 ;     O1-    C1-    C3-    C5
     6      1      3      5      9   180.00   1.84096   3 ;     O1-    C1-    C3-    C5
     6      1      3      9      9     0.00  16.86152   1 ;     O1-    C1-    C3-    H3
     6      1      3      9      9   180.00  15.31344   2 ;     O1-    C1-    C3-    H3
     6      1      3     10      9     0.00  16.86152   1 ;     O1-    C1-    C3-    H4
     6      1      3     10      9   180.00  15.31344   2 ;     O1-    C1-    C3-    H4
     7      2      4     11      9     0.00   0.50208   3 ;     H1-    C2-    C4-    H5
     7      2      4     12      9     0.00   0.50208   3 ;     H1-    C2-    C4-    H6
     8      2      4     11      9     0.00   0.50208   3 ;     H2-    C2-    C4-    H5
     8      2      4     12      9     0.00   0.50208   3 ;     H2-    C2-    C4-    H6
     9      3      5     13      9     0.00   0.50208   3 ;     H3-    C3-    C5-    H7
     9      3      5     14      9     0.00   0.50208   3 ;     H3-    C3-    C5-    H8
    10      3      5     13      9     0.00   0.50208   3 ;     H4-    C3-    C5-    H7
    10      3      5     14      9     0.00   0.50208   3 ;     H4-    C3-    C5-    H8
    11      4      5     13      9     0.00   0.50208   3 ;     H5-    C4-    C5-    H7
    11      4      5     14      9     0.00   0.50208   3 ;     H5-    C4-    C5-    H8
    12      4      5     13      9     0.00   0.50208   3 ;     H6-    C4-    C5-    H7
    12      4      5     14      9     0.00   0.50208   3 ;     H6-    C4-    C5-    H8

[ dihedrals ] ; impropers
; treated as propers in GROMACS to use correct AMBER analytical function
;    i      j      k      l   func   phase     kd      pn
     6      1      3      2      4   180.00   4.60240   2 ;     O1-    C1-    C3-    C2
