mobley_667278_GMX.gro created by acpype (v: 2023.10.27) on Thu May 14 13:43:52 2026
 2752
    1MOL     C1    1   1.365   1.613   1.490
    1MOL     C2    2   1.257   1.671   1.557
    1MOL     C3    3   1.687   1.578   1.456
    1MOL     C4    4   1.468   1.554   1.562
    1MOL     C5    5   1.578   1.496   1.487
    1MOL     C6    6   1.252   1.669   1.697
    1MOL     C7    7   1.795   1.527   1.384
    1MOL     C8    8   1.464   1.552   1.701
    1MOL     C9    9   1.577   1.363   1.445
    1MOL    C10   10   1.356   1.609   1.769
    1MOL    C11   11   1.794   1.394   1.343
    1MOL    C12   12   1.685   1.312   1.373
    1MOL    CL1   13   1.115   1.742   1.773
    1MOL    CL2   14   1.926   1.635   1.351
    1MOL    CL3   15   1.594   1.477   1.789
    1MOL    CL4   16   1.441   1.262   1.484
    1MOL    CL5   17   1.350   1.607   1.943
    1MOL    CL6   18   1.929   1.332   1.253
    1MOL    CL7   19   1.684   1.145   1.321
    1MOL     H1   20   1.366   1.616   1.381
    1MOL     H2   21   1.177   1.717   1.499
    1MOL     H3   22   1.687   1.682   1.489
    2SOL     OW   23   0.230   0.628   0.113
    2SOL    HW1   24   0.137   0.626   0.150
    2SOL    HW2   25   0.231   0.589   0.021
    3SOL     OW   26   0.225   0.275   0.996
    3SOL    HW1   27   0.260   0.258   1.088
    3SOL    HW2   28   0.137   0.230   0.984
    4SOL     OW   29   0.019   0.368   0.647
    4SOL    HW1   30  -0.063   0.411   0.686
    4SOL    HW2   31  -0.009   0.295   0.584
    5SOL     OW   32   0.569   1.275   1.165
    5SOL    HW1   33   0.476   1.268   1.128
    5SOL    HW2   34   0.580   1.364   1.209
    6SOL     OW   35   1.555   1.511   0.703
    6SOL    HW1   36   1.498   1.495   0.784
    6SOL    HW2   37   1.496   1.521   0.623
    7SOL     OW   38   1.135   0.703   0.717
    7SOL    HW1   39   1.192   0.781   0.692
    7SOL    HW2   40   1.075   0.729   0.793
    8SOL     OW   41   1.755   0.607   0.231
    8SOL    HW1   42   1.743   0.594   0.132
    8SOL    HW2   43   1.725   0.526   0.280
    9SOL     OW   44   0.768   1.144   1.023
    9SOL    HW1   45   0.690   1.161   1.083
    9SOL    HW2   46   0.802   1.231   0.987
   10SOL     OW   47   0.850   0.798   1.823
   10SOL    HW1   48   0.846   0.874   1.888
   10SOL    HW2   49   0.872   0.834   1.732
   11SOL     OW   50   0.685   1.012   0.665
   11SOL    HW1   51   0.754   0.996   0.735
   11SOL    HW2   52   0.612   1.069   0.703
   12SOL     OW   53   0.686   1.161   1.803
   12SOL    HW1   54   0.746   1.240   1.817
   12SOL    HW2   55   0.600   1.192   1.762
   13SOL     OW   56   0.335   1.435   1.061
   13SOL    HW1   57   0.257   1.404   1.008
   13SOL    HW2   58   0.393   1.493   1.004
   14SOL     OW   59   0.438   0.392   1.499
   14SOL    HW1   60   0.520   0.336   1.508
   14SOL    HW2   61   0.357   0.334   1.503
   15SOL     OW   62   1.603   0.447   0.737
   15SOL    HW1   63   1.529   0.493   0.687
   15SOL    HW2   64   1.654   0.515   0.790
   16SOL     OW   65   0.231   1.713   0.483
   16SOL    HW1   66   0.265   1.790   0.537
   16SOL    HW2   67   0.275   1.713   0.393
   17SOL     OW   68   1.127   1.341   1.690
   17SOL    HW1   69   1.174   1.341   1.778
   17SOL    HW2   70   1.079   1.254   1.679
   18SOL     OW   71   0.230   1.434   0.538
   18SOL    HW1   72   0.204   1.530   0.538
   18SOL    HW2   73   0.159   1.380   0.583
   19SOL     OW   74   0.240   1.091   0.886
   19SOL    HW1   75   0.254   1.007   0.938
   19SOL    HW2   76   0.185   1.155   0.941
   20SOL     OW   77   0.620   1.786   1.439
   20SOL    HW1   78   0.528   1.769   1.474
   20SOL    HW2   79   0.648   1.878   1.465
   21SOL     OW   80   0.606   0.964   0.123
   21SOL    HW1   81   0.613   1.048   0.069
   21SOL    HW2   82   0.652   0.977   0.211
   22SOL     OW   83   1.594   0.114   1.480
   22SOL    HW1   84   1.576   0.181   1.408
   22SOL    HW2   85   1.591   0.160   1.569
   23SOL     OW   86   0.122   0.643   0.563
   23SOL    HW1   87   0.077   0.555   0.580
   23SOL    HW2   88   0.121   0.697   0.647
   24SOL     OW   89   1.842   1.767   0.359
   24SOL    HW1   90   1.896   1.738   0.439
   24SOL    HW2   91   1.872   1.857   0.330
   25SOL     OW   92   0.027   1.596   0.117
   25SOL    HW1   93   0.008   1.500   0.138
   25SOL    HW2   94  -0.006   1.654   0.192
   26SOL     OW   95   1.689   0.922   0.612
   26SOL    HW1   96   1.784   0.893   0.620
   26SOL    HW2   97   1.681   0.987   0.537
   27SOL     OW   98   1.641   1.108   0.432
   27SOL    HW1   99   1.727   1.110   0.380
   27SOL    HW2  100   1.655   1.155   0.520
   28SOL     OW  101   0.113   0.737   1.597
   28SOL    HW1  102   0.201   0.724   1.642
   28SOL    HW2  103   0.100   0.834   1.575
   29SOL     OW  104   0.613   1.365   0.726
   29SOL    HW1  105   0.564   1.278   0.735
   29SOL    HW2  106   0.590   1.408   0.639
   30SOL     OW  107   0.809   0.004   0.502
   30SOL    HW1  108   0.849   0.095   0.493
   30SOL    HW2  109   0.709   0.012   0.508
   31SOL     OW  110   0.197   0.976   1.264
   31SOL    HW1  111   0.286   0.931   1.250
   31SOL    HW2  112   0.124   0.911   1.245
   32SOL     OW  113   1.525   0.999   0.190
   32SOL    HW1  114   1.462   0.923   0.203
   32SOL    HW2  115   1.573   1.017   0.276
   33SOL     OW  116   0.317   0.251   1.801
   33SOL    HW1  117   0.388   0.322   1.807
   33SOL    HW2  118   0.229   0.290   1.829
   34SOL     OW  119   1.466   1.417   0.953
   34SOL    HW1  120   1.407   1.423   1.033
   34SOL    HW2  121   1.451   1.329   0.907
   35SOL     OW  122   1.667   1.714   0.572
   35SOL    HW1  123   1.626   1.691   0.484
   35SOL    HW2  124   1.649   1.640   0.637
   36SOL     OW  125   0.598   0.729   0.270
   36SOL    HW1  126   0.622   0.798   0.202
   36SOL    HW2  127   0.520   0.762   0.324
   37SOL     OW  128   1.281   0.345   0.944
   37SOL    HW1  129   1.195   0.295   0.931
   37SOL    HW2  130   1.343   0.291   1.000
   38SOL     OW  131   1.576   1.662   0.307
   38SOL    HW1  132   1.665   1.708   0.310
   38SOL    HW2  133   1.555   1.638   0.212
   39SOL     OW  134   0.807   0.605   1.465
   39SOL    HW1  135   0.760   0.602   1.554
   39SOL    HW2  136   0.756   0.550   1.399
   40SOL     OW  137   1.394   0.469   1.674
   40SOL    HW1  138   1.374   0.512   1.762
   40SOL    HW2  139   1.472   0.407   1.683
   41SOL     OW  140   0.973   0.890   1.572
   41SOL    HW1  141   1.019   0.806   1.543
   41SOL    HW2  142   0.917   0.924   1.497
   42SOL     OW  143   0.991   0.410   1.242
   42SOL    HW1  144   0.914   0.444   1.296
   42SOL    HW2  145   0.957   0.359   1.163
   43SOL     OW  146   1.041   0.701   0.429
   43SOL    HW1  147   1.067   0.697   0.525
   43SOL    HW2  148   0.956   0.650   0.415
   44SOL     OW  149   0.076   0.811   0.789
   44SOL    HW1  150   0.175   0.799   0.798
   44SOL    HW2  151   0.052   0.906   0.810
   45SOL     OW  152   0.130   1.821   1.571
   45SOL    HW1  153   0.120   1.806   1.670
   45SOL    HW2  154   0.044   1.857   1.535
   46SOL     OW  155   0.865   0.348   0.195
   46SOL    HW1  156   0.924   0.411   0.146
   46SOL    HW2  157   0.884   0.254   0.166
   47SOL     OW  158   1.719   0.585   1.831
   47SOL    HW1  159   1.693   0.674   1.795
   47SOL    HW2  160   1.717   0.517   1.758
   48SOL     OW  161   1.362   1.144   0.545
   48SOL    HW1  162   1.445   1.115   0.497
   48SOL    HW2  163   1.313   1.211   0.489
   49SOL     OW  164   0.550   0.196   0.885
   49SOL    HW1  165   0.545   0.191   0.985
   49SOL    HW2  166   0.552   0.292   0.856
   50SOL     OW  167   1.008   1.456   0.477
   50SOL    HW1  168   0.962   1.528   0.425
   50SOL    HW2  169   1.004   1.476   0.575
   51SOL     OW  170   0.351   1.801   0.853
   51SOL    HW1  171   0.401   1.715   0.859
   51SOL    HW2  172   0.416   1.878   0.850
   52SOL     OW  173   1.795   1.066   0.873
   52SOL    HW1  174   1.733   1.051   0.797
   52SOL    HW2  175   1.743   1.077   0.958
   53SOL     OW  176   0.321   0.943   0.242
   53SOL    HW1  177   0.403   0.982   0.200
   53SOL    HW2  178   0.294   0.861   0.193
   54SOL     OW  179   1.458   0.735   0.728
   54SOL    HW1  180   1.453   0.670   0.803
   54SOL    HW2  181   1.538   0.794   0.741
   55SOL     OW  182   0.461   1.266   1.727
   55SOL    HW1  183   0.411   1.267   1.641
   55SOL    HW2  184   0.398   1.248   1.803
   56SOL     OW  185   1.111   1.776   0.237
   56SOL    HW1  186   1.051   1.714   0.287
   56SOL    HW2  187   1.142   1.732   0.152
   57SOL     OW  188   0.202   0.285   1.498
   57SOL    HW1  189   0.122   0.345   1.485
   57SOL    HW2  190   0.192   0.236   1.584
   58SOL     OW  191   1.632   1.377   0.081
   58SOL    HW1  192   1.600   1.471   0.071
   58SOL    HW2  193   1.556   1.314   0.069
   59SOL     OW  194   0.464   1.743   0.323
   59SOL    HW1  195   0.497   1.782   0.409
   59SOL    HW2  196   0.540   1.736   0.258
   60SOL     OW  197   1.400   0.107   0.426
   60SOL    HW1  198   1.376   0.070   0.336
   60SOL    HW2  199   1.499   0.123   0.430
   61SOL     OW  200   0.249   1.785   1.241
   61SOL    HW1  201   0.306   1.720   1.291
   61SOL    HW2  202   0.233   1.752   1.148
   62SOL     OW  203   0.940   1.698   0.904
   62SOL    HW1  204   1.020   1.641   0.925
   62SOL    HW2  205   0.891   1.658   0.827
   63SOL     OW  206   0.382   0.700   0.480
   63SOL    HW1  207   0.427   0.610   0.477
   63SOL    HW2  208   0.288   0.689   0.513
   64SOL     OW  209   1.547   0.222   1.729
   64SOL    HW1  210   1.542   0.259   1.821
   64SOL    HW2  211   1.475   0.153   1.717
   65SOL     OW  212   0.614   0.122   0.117
   65SOL    HW1  213   0.712   0.100   0.124
   65SOL    HW2  214   0.583   0.105   0.024
   66SOL     OW  215   0.781   0.264   1.749
   66SOL    HW1  216   0.848   0.203   1.792
   66SOL    HW2  217   0.708   0.283   1.814
   67SOL     OW  218   0.888   1.514   1.195
   67SOL    HW1  219   0.865   1.489   1.101
   67SOL    HW2  220   0.949   1.445   1.234
   68SOL     OW  221   1.351   0.590   1.433
   68SOL    HW1  222   1.379   0.547   1.518
   68SOL    HW2  223   1.376   0.686   1.434
   69SOL     OW  224   0.803   1.402   0.924
   69SOL    HW1  225   0.893   1.416   0.882
   69SOL    HW2  226   0.732   1.404   0.853
   70SOL     OW  227   0.922   0.503   0.899
   70SOL    HW1  228   0.897   0.494   0.803
   70SOL    HW2  229   0.970   0.421   0.930
   71SOL     OW  230   0.539   0.064   0.512
   71SOL    HW1  231   0.458   0.065   0.570
   71SOL    HW2  232   0.542   0.147   0.457
   72SOL     OW  233   1.434   1.188   0.041
   72SOL    HW1  234   1.466   1.112   0.098
   72SOL    HW2  235   1.342   1.215   0.071
   73SOL     OW  236   0.297   0.035   0.171
   73SOL    HW1  237   0.346   0.119   0.150
   73SOL    HW2  238   0.359  -0.030   0.216
   74SOL     OW  239   0.935   0.236   0.480
   74SOL    HW1  240   0.887   0.277   0.402
   74SOL    HW2  241   1.034   0.234   0.461
   75SOL     OW  242   1.076   0.683   1.464
   75SOL    HW1  243   0.996   0.622   1.467
   75SOL    HW2  244   1.157   0.630   1.440
   76SOL     OW  245   1.227   1.570   0.793
   76SOL    HW1  246   1.248   1.644   0.728
   76SOL    HW2  247   1.295   1.570   0.866
   77SOL     OW  248   0.459   1.152   0.741
   77SOL    HW1  249   0.388   1.125   0.806
   77SOL    HW2  250   0.433   1.124   0.648
   78SOL     OW  251   1.271   1.797   0.591
   78SOL    HW1  252   1.315   1.861   0.527
   78SOL    HW2  253   1.221   1.849   0.661
   79SOL     OW  254   1.032   0.549   0.016
   79SOL    HW1  255   0.991   0.631  -0.023
   79SOL    HW2  256   1.096   0.575   0.089
   80SOL     OW  257   0.078   0.556   1.386
   80SOL    HW1  258   0.170   0.555   1.345
   80SOL    HW2  259   0.072   0.630   1.453
   81SOL     OW  260   0.561   0.222   1.147
   81SOL    HW1  261   0.599   0.138   1.184
   81SOL    HW2  262   0.473   0.241   1.191
   82SOL     OW  263   0.866   0.454   0.642
   82SOL    HW1  264   0.834   0.526   0.580
   82SOL    HW2  265   0.890   0.373   0.589
   83SOL     OW  266   1.017   0.039   0.753
   83SOL    HW1  267   0.945   0.044   0.684
   83SOL    HW2  268   0.993  -0.030   0.822
   84SOL     OW  269   1.429   1.173   0.867
   84SOL    HW1  270   1.374   1.089   0.860
   84SOL    HW2  271   1.455   1.202   0.775
   85SOL     OW  272   1.466   0.590   0.992
   85SOL    HW1  273   1.436   0.495   0.999
   85SOL    HW2  274   1.539   0.606   1.058
   86SOL     OW  275   1.857   0.833   0.377
   86SOL    HW1  276   1.899   0.769   0.441
   86SOL    HW2  277   1.819   0.782   0.299
   87SOL     OW  278   0.488   1.385   0.174
   87SOL    HW1  279   0.401   1.370   0.221
   87SOL    HW2  280   0.471   1.411   0.079
   88SOL     OW  281   1.664   1.280   0.657
   88SOL    HW1  282   1.763   1.288   0.671
   88SOL    HW2  283   1.619   1.364   0.688
   89SOL     OW  284   1.390   0.575   0.078
   89SOL    HW1  285   1.336   0.554   0.159
   89SOL    HW2  286   1.481   0.534   0.087
   90SOL     OW  287   0.527   0.256   0.328
   90SOL    HW1  288   0.554   0.197   0.253
   90SOL    HW2  289   0.527   0.351   0.297
   91SOL     OW  290   1.754   1.223   1.588
   91SOL    HW1  291   1.845   1.184   1.575
   91SOL    HW2  292   1.762   1.319   1.612
   92SOL     OW  293   1.064   1.347   1.340
   92SOL    HW1  294   0.984   1.324   1.395
   92SOL    HW2  295   1.147   1.321   1.389
   93SOL     OW  296   1.111   1.195   1.100
   93SOL    HW1  297   1.071   1.239   1.181
   93SOL    HW2  298   1.070   1.232   1.017
   94SOL     OW  299   1.638   1.099   1.079
   94SOL    HW1  300   1.643   1.180   1.138
   94SOL    HW2  301   1.552   1.101   1.028
   95SOL     OW  302   0.915   0.089   1.402
   95SOL    HW1  303   0.940   0.069   1.307
   95SOL    HW2  304   0.987   0.145   1.444
   96SOL     OW  305   0.980   1.116   1.719
   96SOL    HW1  306   0.881   1.122   1.729
   96SOL    HW2  307   1.003   1.036   1.663
   97SOL     OW  308   0.705   1.050   0.368
   97SOL    HW1  309   0.691   1.057   0.467
   97SOL    HW2  310   0.789   0.999   0.350
   98SOL     OW  311   0.410   0.813   1.251
   98SOL    HW1  312   0.496   0.825   1.301
   98SOL    HW2  313   0.368   0.726   1.278
   99SOL     OW  314   1.274   0.386   1.262
   99SOL    HW1  315   1.295   0.460   1.326
   99SOL    HW2  316   1.185   0.403   1.219
  100SOL     OW  317   0.064   1.564   1.331
  100SOL    HW1  318   0.018   1.646   1.297
  100SOL    HW2  319   0.162   1.583   1.340
  101SOL     OW  320   0.367   1.100   0.501
  101SOL    HW1  321   0.360   1.183   0.445
  101SOL    HW2  322   0.371   1.020   0.441
  102SOL     OW  323   0.566   0.537   0.865
  102SOL    HW1  324   0.578   0.603   0.791
  102SOL    HW2  325   0.612   0.571   0.948
  103SOL     OW  326   1.252   1.348   0.388
  103SOL    HW1  327   1.302   1.425   0.428
  103SOL    HW2  328   1.157   1.350   0.420
  104SOL     OW  329   1.272   1.445   1.142
  104SOL    HW1  330   1.319   1.458   1.229
  104SOL    HW2  331   1.206   1.371   1.151
  105SOL     OW  332   1.582   0.639   0.472
  105SOL    HW1  333   1.551   0.700   0.545
  105SOL    HW2  334   1.632   0.691   0.403
  106SOL     OW  335   0.354   1.510   1.329
  106SOL    HW1  336   0.333   1.466   1.242
  106SOL    HW2  337   0.451   1.536   1.332
  107SOL     OW  338   0.402   0.751   1.598
  107SOL    HW1  339   0.470   0.806   1.551
  107SOL    HW2  340   0.442   0.663   1.625
  108SOL     OW  341   1.587   0.779   1.670
  108SOL    HW1  342   1.495   0.817   1.665
  108SOL    HW2  343   1.647   0.826   1.605
  109SOL     OW  344   1.013   0.105   1.770
  109SOL    HW1  345   1.019   0.190   1.718
  109SOL    HW2  346   1.045   0.029   1.713
  110SOL     OW  347   0.504   0.050   1.740
  110SOL    HW1  348   0.462  -0.007   1.670
  110SOL    HW2  349   0.438   0.119   1.772
  111SOL     OW  350   0.573   0.870   1.029
  111SOL    HW1  351   0.617   0.959   1.020
  111SOL    HW2  352   0.510   0.870   1.106
  112SOL     OW  353   1.360   0.862   1.045
  112SOL    HW1  354   1.285   0.862   0.979
  112SOL    HW2  355   1.397   0.770   1.054
  113SOL     OW  356   1.209   0.525   0.275
  113SOL    HW1  357   1.222   0.441   0.329
  113SOL    HW2  358   1.180   0.599   0.335
  114SOL     OW  359   0.307   0.213   1.231
  114SOL    HW1  360   0.284   0.250   1.321
  114SOL    HW2  361   0.277   0.118   1.225
  115SOL     OW  362   0.037   1.310   1.282
  115SOL    HW1  363   0.090   1.261   1.350
  115SOL    HW2  364   0.059   1.408   1.287
  116SOL     OW  365   0.732   0.634   1.064
  116SOL    HW1  366   0.791   0.608   0.988
  116SOL    HW2  367   0.704   0.730   1.053
  117SOL     OW  368   1.728   0.935   1.854
  117SOL    HW1  369   1.682   0.928   1.765
  117SOL    HW2  370   1.666   0.979   1.920
  118SOL     OW  371   0.307   0.063   0.618
  118SOL    HW1  372   0.296   0.157   0.651
  118SOL    HW2  373   0.302   0.000   0.695
  119SOL     OW  374   1.622   0.367   0.374
  119SOL    HW1  375   1.624   0.291   0.438
  119SOL    HW2  376   1.574   0.444   0.414
  120SOL     OW  377   1.023   0.766   0.966
  120SOL    HW1  378   1.038   0.787   1.062
  120SOL    HW2  379   0.993   0.671   0.957
  121SOL     OW  380   0.980   1.573   1.700
  121SOL    HW1  381   0.960   1.617   1.612
  121SOL    HW2  382   1.019   1.482   1.684
  122SOL     OW  383   0.350   0.898   1.804
  122SOL    HW1  384   0.426   0.942   1.852
  122SOL    HW2  385   0.385   0.851   1.722
  123SOL     OW  386   1.540   0.274   0.125
  123SOL    HW1  387   1.479   0.199   0.148
  123SOL    HW2  388   1.562   0.326   0.208
  124SOL     OW  389   1.303   0.838   0.042
  124SOL    HW1  390   1.337   0.745   0.057
  124SOL    HW2  391   1.321   0.865  -0.053
  125SOL     OW  392   1.068   1.333   0.849
  125SOL    HW1  393   1.075   1.249   0.794
  125SOL    HW2  394   1.130   1.402   0.813
  126SOL     OW  395   0.319   0.810   0.949
  126SOL    HW1  396   0.412   0.846   0.954
  126SOL    HW2  397   0.313   0.725   1.001
  127SOL     OW  398   0.339   0.509   1.006
  127SOL    HW1  399   0.287   0.426   0.989
  127SOL    HW2  400   0.416   0.514   0.942
  128SOL     OW  401   1.138   0.380   1.678
  128SOL    HW1  402   1.093   0.443   1.742
  128SOL    HW2  403   1.231   0.411   1.661
  129SOL     OW  404   1.160   0.207   1.477
  129SOL    HW1  405   1.160   0.271   1.554
  129SOL    HW2  406   1.188   0.255   1.394
  130SOL     OW  407   0.008   1.326   0.200
  130SOL    HW1  408  -0.085   1.347   0.169
  130SOL    HW2  409   0.018   1.227   0.213
  131SOL     OW  410   0.088   1.801   0.927
  131SOL    HW1  411   0.046   1.715   0.900
  131SOL    HW2  412   0.182   1.804   0.893
  132SOL     OW  413   0.504   1.568   0.910
  132SOL    HW1  414   0.570   1.642   0.919
  132SOL    HW2  415   0.548   1.489   0.868
  133SOL     OW  416   1.002   0.796   1.238
  133SOL    HW1  417   1.043   0.764   1.324
  133SOL    HW2  418   0.906   0.769   1.235
  134SOL     OW  419   0.040   0.544   1.114
  134SOL    HW1  420   0.125   0.511   1.073
  134SOL    HW2  421   0.053   0.559   1.212
  135SOL     OW  422   0.189   0.520   1.722
  135SOL    HW1  423   0.248   0.480   1.652
  135SOL    HW2  424   0.131   0.591   1.681
  136SOL     OW  425   1.369   0.950   1.660
  136SOL    HW1  426   1.408   1.039   1.680
  136SOL    HW2  427   1.379   0.930   1.563
  137SOL     OW  428   0.815   0.572   0.325
  137SOL    HW1  429   0.822   0.483   0.279
  137SOL    HW2  430   0.721   0.606   0.317
  138SOL     OW  431   1.657   0.604   1.206
  138SOL    HW1  432   1.619   0.535   1.268
  138SOL    HW2  433   1.739   0.568   1.162
  139SOL     OW  434   0.252   1.564   1.744
  139SOL    HW1  435   0.222   1.621   1.820
  139SOL    HW2  436   0.245   1.467   1.770
  140SOL     OW  437   0.671   0.464   1.269
  140SOL    HW1  438   0.637   0.375   1.239
  140SOL    HW2  439   0.697   0.518   1.189
  141SOL     OW  440   0.930   1.678   1.465
  141SOL    HW1  441   0.906   1.660   1.370
  141SOL    HW2  442   0.960   1.772   1.475
  142SOL     OW  443   0.473   0.500   0.191
  142SOL    HW1  444   0.534   0.580   0.195
  142SOL    HW2  445   0.378   0.531   0.198
  143SOL     OW  446   0.159   1.137   1.466
  143SOL    HW1  447   0.181   1.076   1.542
  143SOL    HW2  448   0.169   1.088   1.380
  144SOL     OW  449   1.347   1.059   1.234
  144SOL    HW1  450   1.371   0.996   1.160
  144SOL    HW2  451   1.257   1.099   1.216
  145SOL     OW  452   1.302   0.855   0.309
  145SOL    HW1  453   1.216   0.824   0.351
  145SOL    HW2  454   1.298   0.841   0.210
  146SOL     OW  455   1.759   1.747   1.154
  146SOL    HW1  456   1.820   1.777   1.081
  146SOL    HW2  457   1.721   1.658   1.132
  147SOL     OW  458   1.252   1.731   1.128
  147SOL    HW1  459   1.336   1.736   1.074
  147SOL    HW2  460   1.229   1.635   1.146
  148SOL     OW  461   0.083   1.258   1.022
  148SOL    HW1  462   0.078   1.257   1.122
  148SOL    HW2  463   0.000   1.217   0.984
  149SOL     OW  464   0.688   1.662   1.716
  149SOL    HW1  465   0.632   1.743   1.725
  149SOL    HW2  466   0.740   1.666   1.630
  150SOL     OW  467   0.903   0.086   0.133
  150SOL    HW1  468   0.954   0.087   0.047
  150SOL    HW2  469   0.959   0.044   0.204
  151SOL     OW  470   1.726   0.135   0.523
  151SOL    HW1  471   1.799   0.118   0.456
  151SOL    HW2  472   1.695   0.048   0.561
  152SOL     OW  473   1.388   1.573   0.477
  152SOL    HW1  474   1.455   1.585   0.403
  152SOL    HW2  475   1.348   1.662   0.500
  153SOL     OW  476   0.130   1.794   1.851
  153SOL    HW1  477   0.089   1.720   1.904
  153SOL    HW2  478   0.194   1.845   1.909
  154SOL     OW  479   1.280   0.927   0.672
  154SOL    HW1  480   1.340   0.846   0.674
  154SOL    HW2  481   1.320   0.996   0.612
  155SOL     OW  482   0.830   1.273   1.422
  155SOL    HW1  483   0.825   1.306   1.517
  155SOL    HW2  484   0.744   1.292   1.376
  156SOL     OW  485   0.672   1.616   0.154
  156SOL    HW1  486   0.681   1.626   0.055
  156SOL    HW2  487   0.632   1.527   0.175
  157SOL     OW  488   1.841   0.175   0.963
  157SOL    HW1  489   1.880   0.090   0.927
  157SOL    HW2  490   1.743   0.177   0.944
  158SOL     OW  491   0.263   0.326   0.720
  158SOL    HW1  492   0.184   0.377   0.686
  158SOL    HW2  493   0.254   0.311   0.818
  159SOL     OW  494   1.194   1.612   0.031
  159SOL    HW1  495   1.200   1.519   0.068
  159SOL    HW2  496   1.135   1.612  -0.049
  160SOL     OW  497   0.822   1.002   1.372
  160SOL    HW1  498   0.862   1.001   1.280
  160SOL    HW2  499   0.832   1.094   1.412
  161SOL     OW  500   0.916   0.910   0.291
  161SOL    HW1  501   0.979   0.948   0.223
  161SOL    HW2  502   0.956   0.827   0.330
  162SOL     OW  503   1.504   1.607   0.044
  162SOL    HW1  504   1.412   1.644   0.051
  162SOL    HW2  505   1.542   1.627  -0.046
  163SOL     OW  506   0.372   1.288   1.490
  163SOL    HW1  507   0.359   1.381   1.456
  163SOL    HW2  508   0.288   1.236   1.477
  164SOL     OW  509   1.039   1.098   0.696
  164SOL    HW1  510   0.969   1.051   0.750
  164SOL    HW2  511   1.098   1.030   0.653
  165SOL     OW  512   1.014   0.236   0.971
  165SOL    HW1  513   1.006   0.200   0.878
  165SOL    HW2  514   1.012   0.160   1.036
  166SOL     OW  515   0.590   1.487   0.491
  166SOL    HW1  516   0.632   1.429   0.421
  166SOL    HW2  517   0.546   1.566   0.447
  167SOL     OW  518   1.709   0.385   1.381
  167SOL    HW1  519   1.782   0.454   1.385
  167SOL    HW2  520   1.737   0.310   1.322
  168SOL     OW  521   0.255   1.348   0.290
  168SOL    HW1  522   0.159   1.349   0.263
  168SOL    HW2  523   0.267   1.401   0.374
  169SOL     OW  524   0.105   1.013   1.726
  169SOL    HW1  525   0.028   0.980   1.780
  169SOL    HW2  526   0.190   0.983   1.768
  170SOL     OW  527   0.672   0.203   1.489
  170SOL    HW1  528   0.762   0.187   1.449
  170SOL    HW2  529   0.680   0.208   1.588
  171SOL     OW  530   0.075   0.345   0.033
  171SOL    HW1  531  -0.017   0.317   0.004
  171SOL    HW2  532   0.106   0.422  -0.023
  172SOL     OW  533   1.440   0.856   1.398
  172SOL    HW1  534   1.383   0.908   1.335
  172SOL    HW2  535   1.536   0.868   1.374
  173SOL     OW  536   0.072   0.166   0.318
  173SOL    HW1  537   0.055   0.249   0.264
  173SOL    HW2  538   0.162   0.129   0.296
  174SOL     OW  539   1.183   1.335   0.119
  174SOL    HW1  540   1.084   1.324   0.121
  174SOL    HW2  541   1.217   1.350   0.212
  175SOL     OW  542   0.613   0.842   1.431
  175SOL    HW1  543   0.669   0.923   1.414
  175SOL    HW2  544   0.672   0.762   1.434
  176SOL     OW  545   1.493   1.767   0.959
  176SOL    HW1  546   1.526   1.831   0.890
  176SOL    HW2  547   1.559   1.761   1.034
  177SOL     OW  548   0.716   0.565   1.708
  177SOL    HW1  549   0.735   0.630   1.782
  177SOL    HW2  550   0.776   0.485   1.717
  178SOL     OW  551   0.390   1.741   1.560
  178SOL    HW1  552   0.299   1.782   1.558
  178SOL    HW2  553   0.383   1.647   1.592
  179SOL     OW  554   1.674   0.883   1.254
  179SOL    HW1  555   1.647   0.794   1.217
  179SOL    HW2  556   1.675   0.951   1.181
  180SOL     OW  557   1.225   0.325   0.449
  180SOL    HW1  558   1.290   0.251   0.438
  180SOL    HW2  559   1.245   0.375   0.533
  181SOL     OW  560   0.594   0.745   0.652
  181SOL    HW1  561   0.644   0.830   0.633
  181SOL    HW2  562   0.506   0.747   0.604
  182SOL     OW  563   1.777   0.342   1.642
  182SOL    HW1  564   1.760   0.373   1.548
  182SOL    HW2  565   1.693   0.305   1.680
  183SOL     OW  566   1.730   0.934   1.517
  183SOL    HW1  567   1.768   1.025   1.532
  183SOL    HW2  568   1.722   0.917   1.418
  184SOL     OW  569   0.859   1.374   0.016
  184SOL    HW1  570   0.813   1.389   0.104
  184SOL    HW2  571   0.903   1.459  -0.014
  185SOL     OW  572   0.661   1.790   0.953
  185SOL    HW1  573   0.615   1.878   0.940
  185SOL    HW2  574   0.760   1.802   0.946
  186SOL     OW  575   0.859   0.956   0.861
  186SOL    HW1  576   0.913   0.887   0.909
  186SOL    HW2  577   0.827   1.025   0.927
  187SOL     OW  578   1.083   0.984   0.087
  187SOL    HW1  579   1.060   1.037   0.005
  187SOL    HW2  580   1.164   0.928   0.068
  188SOL     OW  581   1.861   1.569   0.851
  188SOL    HW1  582   1.790   1.557   0.781
  188SOL    HW2  583   1.862   1.490   0.911
  189SOL     OW  584   0.221   1.314   1.844
  189SOL    HW1  585   0.156   1.241   1.823
  189SOL    HW2  586   0.225   1.328   1.942
  190SOL     OW  587   0.079   1.240   0.653
  190SOL    HW1  588   0.078   1.193   0.741
  190SOL    HW2  589   0.161   1.212   0.602
  191SOL     OW  590   0.672   1.391   1.624
  191SOL    HW1  591   0.594   1.341   1.662
  191SOL    HW2  592   0.669   1.486   1.655
  192SOL     OW  593   1.824   0.192   1.227
  192SOL    HW1  594   1.820   0.102   1.271
  192SOL    HW2  595   1.827   0.181   1.128
  193SOL     OW  596   0.428   0.424   0.520
  193SOL    HW1  597   0.458   0.352   0.458
  193SOL    HW2  598   0.389   0.384   0.603
  194SOL     OW  599   1.705   1.487   1.104
  194SOL    HW1  600   1.612   1.462   1.077
  194SOL    HW2  601   1.731   1.437   1.186
  195SOL     OW  602   0.317   0.547   1.280
  195SOL    HW1  603   0.355   0.488   1.352
  195SOL    HW2  604   0.357   0.521   1.192
  196SOL     OW  605   0.812   1.586   0.687
  196SOL    HW1  606   0.844   1.596   0.593
  196SOL    HW2  607   0.733   1.524   0.689
  197SOL     OW  608   1.424   0.214   1.112
  197SOL    HW1  609   1.476   0.149   1.167
  197SOL    HW2  610   1.375   0.277   1.173
  198SOL     OW  611   1.001   0.034   1.154
  198SOL    HW1  612   0.938  -0.038   1.123
  198SOL    HW2  613   1.094  -0.002   1.154
  199SOL     OW  614   0.770   1.330   0.301
  199SOL    HW1  615   0.724   1.243   0.318
  199SOL    HW2  616   0.861   1.327   0.342
  200SOL     OW  617   0.618   1.567   1.284
  200SOL    HW1  618   0.613   1.649   1.341
  200SOL    HW2  619   0.707   1.564   1.239
  201SOL     OW  620   1.352   0.052   0.168
  201SOL    HW1  621   1.387   0.011   0.084
  201SOL    HW2  622   1.262   0.014   0.188
  202SOL     OW  623   1.300   0.453   0.691
  202SOL    HW1  624   1.241   0.533   0.695
  202SOL    HW2  625   1.315   0.418   0.784
  203SOL     OW  626   1.593   0.221   0.882
  203SOL    HW1  627   1.509   0.220   0.936
  203SOL    HW2  628   1.595   0.304   0.826
  204SOL     OW  629   0.039   1.077   0.300
  204SOL    HW1  630   0.138   1.066   0.291
  204SOL    HW2  631  -0.001   0.991   0.332
  205SOL     OW  632   0.875   1.646   0.337
  205SOL    HW1  633   0.798   1.611   0.283
  205SOL    HW2  634   0.843   1.717   0.399
  206SOL     OW  635   0.230   0.628   1.975
  206SOL    HW1  636   0.137   0.626   2.012
  206SOL    HW2  637   0.231   0.589   1.883
  207SOL     OW  638   0.225   0.275   2.858
  207SOL    HW1  639   0.260   0.258   2.950
  207SOL    HW2  640   0.137   0.230   2.846
  208SOL     OW  641   0.019   0.368   2.509
  208SOL    HW1  642  -0.063   0.411   2.548
  208SOL    HW2  643  -0.009   0.295   2.446
  209SOL     OW  644   1.555   1.511   2.565
  209SOL    HW1  645   1.498   1.495   2.646
  209SOL    HW2  646   1.496   1.521   2.485
  210SOL     OW  647   1.135   0.703   2.579
  210SOL    HW1  648   1.192   0.781   2.554
  210SOL    HW2  649   1.075   0.729   2.655
  211SOL     OW  650   1.755   0.607   2.093
  211SOL    HW1  651   1.743   0.594   1.994
  211SOL    HW2  652   1.725   0.526   2.142
  212SOL     OW  653   0.768   1.144   2.885
  212SOL    HW1  654   0.690   1.161   2.945
  212SOL    HW2  655   0.802   1.231   2.849
  213SOL     OW  656   0.685   1.012   2.527
  213SOL    HW1  657   0.754   0.996   2.597
  213SOL    HW2  658   0.612   1.069   2.565
  214SOL     OW  659   0.335   1.435   2.923
  214SOL    HW1  660   0.257   1.404   2.870
  214SOL    HW2  661   0.393   1.493   2.866
  215SOL     OW  662   1.603   0.447   2.599
  215SOL    HW1  663   1.529   0.493   2.549
  215SOL    HW2  664   1.654   0.515   2.652
  216SOL     OW  665   0.231   1.713   2.345
  216SOL    HW1  666   0.265   1.790   2.399
  216SOL    HW2  667   0.275   1.713   2.255
  217SOL     OW  668   0.230   1.434   2.400
  217SOL    HW1  669   0.204   1.530   2.400
  217SOL    HW2  670   0.159   1.380   2.445
  218SOL     OW  671   0.240   1.091   2.748
  218SOL    HW1  672   0.254   1.007   2.800
  218SOL    HW2  673   0.185   1.155   2.803
  219SOL     OW  674   0.606   0.964   1.985
  219SOL    HW1  675   0.613   1.048   1.931
  219SOL    HW2  676   0.652   0.977   2.073
  220SOL     OW  677   0.122   0.643   2.425
  220SOL    HW1  678   0.077   0.555   2.442
  220SOL    HW2  679   0.121   0.697   2.509
  221SOL     OW  680   1.842   1.767   2.221
  221SOL    HW1  681   1.896   1.738   2.301
  221SOL    HW2  682   1.872   1.857   2.192
  222SOL     OW  683   0.027   1.596   1.979
  222SOL    HW1  684   0.008   1.500   2.000
  222SOL    HW2  685  -0.006   1.654   2.054
  223SOL     OW  686   1.689   0.922   2.474
  223SOL    HW1  687   1.784   0.893   2.482
  223SOL    HW2  688   1.681   0.987   2.399
  224SOL     OW  689   1.641   1.108   2.294
  224SOL    HW1  690   1.727   1.110   2.242
  224SOL    HW2  691   1.655   1.155   2.382
  225SOL     OW  692   0.613   1.365   2.588
  225SOL    HW1  693   0.564   1.278   2.597
  225SOL    HW2  694   0.590   1.408   2.501
  226SOL     OW  695   0.809   0.004   2.364
  226SOL    HW1  696   0.849   0.095   2.355
  226SOL    HW2  697   0.709   0.012   2.370
  227SOL     OW  698   0.197   0.976   3.126
  227SOL    HW1  699   0.286   0.931   3.112
  227SOL    HW2  700   0.124   0.911   3.107
  228SOL     OW  701   1.525   0.999   2.052
  228SOL    HW1  702   1.462   0.923   2.065
  228SOL    HW2  703   1.573   1.017   2.138
  229SOL     OW  704   1.466   1.417   2.815
  229SOL    HW1  705   1.407   1.423   2.895
  229SOL    HW2  706   1.451   1.329   2.769
  230SOL     OW  707   1.667   1.714   2.434
  230SOL    HW1  708   1.626   1.691   2.346
  230SOL    HW2  709   1.649   1.640   2.499
  231SOL     OW  710   0.598   0.729   2.132
  231SOL    HW1  711   0.622   0.798   2.064
  231SOL    HW2  712   0.520   0.762   2.186
  232SOL     OW  713   1.281   0.345   2.806
  232SOL    HW1  714   1.195   0.295   2.793
  232SOL    HW2  715   1.343   0.291   2.862
  233SOL     OW  716   1.576   1.662   2.169
  233SOL    HW1  717   1.665   1.708   2.172
  233SOL    HW2  718   1.555   1.638   2.074
  234SOL     OW  719   1.041   0.701   2.291
  234SOL    HW1  720   1.067   0.697   2.387
  234SOL    HW2  721   0.956   0.650   2.277
  235SOL     OW  722   0.076   0.811   2.651
  235SOL    HW1  723   0.175   0.799   2.660
  235SOL    HW2  724   0.052   0.906   2.672
  236SOL     OW  725   0.865   0.348   2.057
  236SOL    HW1  726   0.924   0.411   2.008
  236SOL    HW2  727   0.884   0.254   2.028
  237SOL     OW  728   1.362   1.144   2.407
  237SOL    HW1  729   1.445   1.115   2.359
  237SOL    HW2  730   1.313   1.211   2.351
  238SOL     OW  731   0.550   0.196   2.747
  238SOL    HW1  732   0.545   0.191   2.847
  238SOL    HW2  733   0.552   0.292   2.718
  239SOL     OW  734   1.008   1.456   2.339
  239SOL    HW1  735   0.962   1.528   2.287
  239SOL    HW2  736   1.004   1.476   2.437
  240SOL     OW  737   0.351   1.801   2.715
  240SOL    HW1  738   0.401   1.715   2.721
  240SOL    HW2  739   0.416   1.878   2.712
  241SOL     OW  740   1.795   1.066   2.735
  241SOL    HW1  741   1.733   1.051   2.659
  241SOL    HW2  742   1.743   1.077   2.820
  242SOL     OW  743   0.321   0.943   2.104
  242SOL    HW1  744   0.403   0.982   2.062
  242SOL    HW2  745   0.294   0.861   2.055
  243SOL     OW  746   1.458   0.735   2.590
  243SOL    HW1  747   1.453   0.670   2.665
  243SOL    HW2  748   1.538   0.794   2.603
  244SOL     OW  749   1.111   1.776   2.099
  244SOL    HW1  750   1.051   1.714   2.149
  244SOL    HW2  751   1.142   1.732   2.014
  245SOL     OW  752   0.464   1.743   2.185
  245SOL    HW1  753   0.497   1.782   2.271
  245SOL    HW2  754   0.540   1.736   2.120
  246SOL     OW  755   1.400   0.107   2.288
  246SOL    HW1  756   1.376   0.070   2.198
  246SOL    HW2  757   1.499   0.123   2.292
  247SOL     OW  758   0.249   1.785   3.103
  247SOL    HW1  759   0.306   1.720   3.153
  247SOL    HW2  760   0.233   1.752   3.010
  248SOL     OW  761   0.940   1.698   2.766
  248SOL    HW1  762   1.020   1.641   2.787
  248SOL    HW2  763   0.891   1.658   2.689
  249SOL     OW  764   0.382   0.700   2.342
  249SOL    HW1  765   0.427   0.610   2.339
  249SOL    HW2  766   0.288   0.689   2.375
  250SOL     OW  767   0.614   0.122   1.979
  250SOL    HW1  768   0.712   0.100   1.986
  250SOL    HW2  769   0.583   0.105   1.886
  251SOL     OW  770   0.803   1.402   2.786
  251SOL    HW1  771   0.893   1.416   2.744
  251SOL    HW2  772   0.732   1.404   2.715
  252SOL     OW  773   0.922   0.503   2.761
  252SOL    HW1  774   0.897   0.494   2.665
  252SOL    HW2  775   0.970   0.421   2.792
  253SOL     OW  776   0.539   0.064   2.374
  253SOL    HW1  777   0.458   0.065   2.432
  253SOL    HW2  778   0.542   0.147   2.319
  254SOL     OW  779   1.434   1.188   1.903
  254SOL    HW1  780   1.466   1.112   1.960
  254SOL    HW2  781   1.342   1.215   1.933
  255SOL     OW  782   0.297   0.035   2.033
  255SOL    HW1  783   0.346   0.119   2.012
  255SOL    HW2  784   0.359  -0.030   2.078
  256SOL     OW  785   0.935   0.236   2.342
  256SOL    HW1  786   0.887   0.277   2.264
  256SOL    HW2  787   1.034   0.234   2.323
  257SOL     OW  788   1.227   1.570   2.655
  257SOL    HW1  789   1.248   1.644   2.590
  257SOL    HW2  790   1.295   1.570   2.728
  258SOL     OW  791   0.459   1.152   2.603
  258SOL    HW1  792   0.388   1.125   2.668
  258SOL    HW2  793   0.433   1.124   2.510
  259SOL     OW  794   1.271   1.797   2.453
  259SOL    HW1  795   1.315   1.861   2.389
  259SOL    HW2  796   1.221   1.849   2.523
  260SOL     OW  797   1.032   0.549   1.878
  260SOL    HW1  798   0.991   0.631   1.839
  260SOL    HW2  799   1.096   0.575   1.951
  261SOL     OW  800   0.866   0.454   2.504
  261SOL    HW1  801   0.834   0.526   2.442
  261SOL    HW2  802   0.890   0.373   2.451
  262SOL     OW  803   1.017   0.039   2.615
  262SOL    HW1  804   0.945   0.044   2.546
  262SOL    HW2  805   0.993  -0.030   2.684
  263SOL     OW  806   1.429   1.173   2.729
  263SOL    HW1  807   1.374   1.089   2.722
  263SOL    HW2  808   1.455   1.202   2.637
  264SOL     OW  809   1.466   0.590   2.854
  264SOL    HW1  810   1.436   0.495   2.861
  264SOL    HW2  811   1.539   0.606   2.920
  265SOL     OW  812   1.857   0.833   2.239
  265SOL    HW1  813   1.899   0.769   2.303
  265SOL    HW2  814   1.819   0.782   2.161
  266SOL     OW  815   0.488   1.385   2.036
  266SOL    HW1  816   0.401   1.370   2.083
  266SOL    HW2  817   0.471   1.411   1.941
  267SOL     OW  818   1.664   1.280   2.519
  267SOL    HW1  819   1.763   1.288   2.533
  267SOL    HW2  820   1.619   1.364   2.550
  268SOL     OW  821   1.390   0.575   1.940
  268SOL    HW1  822   1.336   0.554   2.021
  268SOL    HW2  823   1.481   0.534   1.949
  269SOL     OW  824   0.527   0.256   2.190
  269SOL    HW1  825   0.554   0.197   2.115
  269SOL    HW2  826   0.527   0.351   2.159
  270SOL     OW  827   1.111   1.195   2.962
  270SOL    HW1  828   1.071   1.239   3.043
  270SOL    HW2  829   1.070   1.232   2.879
  271SOL     OW  830   1.638   1.099   2.941
  271SOL    HW1  831   1.643   1.180   3.000
  271SOL    HW2  832   1.552   1.101   2.890
  272SOL     OW  833   0.705   1.050   2.230
  272SOL    HW1  834   0.691   1.057   2.329
  272SOL    HW2  835   0.789   0.999   2.212
  273SOL     OW  836   0.410   0.813   3.113
  273SOL    HW1  837   0.496   0.825   3.163
  273SOL    HW2  838   0.368   0.726   3.140
  274SOL     OW  839   0.367   1.100   2.363
  274SOL    HW1  840   0.360   1.183   2.307
  274SOL    HW2  841   0.371   1.020   2.303
  275SOL     OW  842   0.566   0.537   2.727
  275SOL    HW1  843   0.578   0.603   2.653
  275SOL    HW2  844   0.612   0.571   2.810
  276SOL     OW  845   1.252   1.348   2.250
  276SOL    HW1  846   1.302   1.425   2.290
  276SOL    HW2  847   1.157   1.350   2.282
  277SOL     OW  848   1.582   0.639   2.334
  277SOL    HW1  849   1.551   0.700   2.407
  277SOL    HW2  850   1.632   0.691   2.265
  278SOL     OW  851   0.354   1.510   3.191
  278SOL    HW1  852   0.333   1.466   3.104
  278SOL    HW2  853   0.451   1.536   3.194
  279SOL     OW  854   0.573   0.870   2.891
  279SOL    HW1  855   0.617   0.959   2.882
  279SOL    HW2  856   0.510   0.870   2.968
  280SOL     OW  857   1.209   0.525   2.137
  280SOL    HW1  858   1.222   0.441   2.191
  280SOL    HW2  859   1.180   0.599   2.197
  281SOL     OW  860   0.732   0.634   2.926
  281SOL    HW1  861   0.791   0.608   2.850
  281SOL    HW2  862   0.704   0.730   2.915
  282SOL     OW  863   0.307   0.063   2.480
  282SOL    HW1  864   0.296   0.157   2.513
  282SOL    HW2  865   0.302   0.000   2.557
  283SOL     OW  866   1.622   0.367   2.236
  283SOL    HW1  867   1.624   0.291   2.300
  283SOL    HW2  868   1.574   0.444   2.276
  284SOL     OW  869   1.023   0.766   2.828
  284SOL    HW1  870   1.038   0.787   2.924
  284SOL    HW2  871   0.993   0.671   2.819
  285SOL     OW  872   1.540   0.274   1.987
  285SOL    HW1  873   1.479   0.199   2.010
  285SOL    HW2  874   1.562   0.326   2.070
  286SOL     OW  875   1.303   0.838   1.904
  286SOL    HW1  876   1.337   0.745   1.919
  286SOL    HW2  877   1.321   0.865   1.809
  287SOL     OW  878   1.068   1.333   2.711
  287SOL    HW1  879   1.075   1.249   2.656
  287SOL    HW2  880   1.130   1.402   2.675
  288SOL     OW  881   0.319   0.810   2.811
  288SOL    HW1  882   0.412   0.846   2.816
  288SOL    HW2  883   0.313   0.725   2.863
  289SOL     OW  884   0.339   0.509   2.868
  289SOL    HW1  885   0.287   0.426   2.851
  289SOL    HW2  886   0.416   0.514   2.804
  290SOL     OW  887   0.008   1.326   2.062
  290SOL    HW1  888  -0.085   1.347   2.031
  290SOL    HW2  889   0.018   1.227   2.075
  291SOL     OW  890   0.088   1.801   2.789
  291SOL    HW1  891   0.046   1.715   2.762
  291SOL    HW2  892   0.182   1.804   2.755
  292SOL     OW  893   0.504   1.568   2.772
  292SOL    HW1  894   0.570   1.642   2.781
  292SOL    HW2  895   0.548   1.489   2.730
  293SOL     OW  896   1.002   0.796   3.100
  293SOL    HW1  897   1.043   0.764   3.186
  293SOL    HW2  898   0.906   0.769   3.097
  294SOL     OW  899   0.815   0.572   2.187
  294SOL    HW1  900   0.822   0.483   2.141
  294SOL    HW2  901   0.721   0.606   2.179
  295SOL     OW  902   0.671   0.464   3.131
  295SOL    HW1  903   0.637   0.375   3.101
  295SOL    HW2  904   0.697   0.518   3.051
  296SOL     OW  905   0.473   0.500   2.053
  296SOL    HW1  906   0.534   0.580   2.057
  296SOL    HW2  907   0.378   0.531   2.060
  297SOL     OW  908   1.302   0.855   2.171
  297SOL    HW1  909   1.216   0.824   2.213
  297SOL    HW2  910   1.298   0.841   2.072
  298SOL     OW  911   1.759   1.747   3.016
  298SOL    HW1  912   1.820   1.777   2.943
  298SOL    HW2  913   1.721   1.658   2.994
  299SOL     OW  914   0.083   1.258   2.884
  299SOL    HW1  915   0.078   1.257   2.984
  299SOL    HW2  916   0.000   1.217   2.846
  300SOL     OW  917   1.726   0.135   2.385
  300SOL    HW1  918   1.799   0.118   2.318
  300SOL    HW2  919   1.695   0.048   2.423
  301SOL     OW  920   1.388   1.573   2.339
  301SOL    HW1  921   1.455   1.585   2.265
  301SOL    HW2  922   1.348   1.662   2.362
  302SOL     OW  923   1.280   0.927   2.534
  302SOL    HW1  924   1.340   0.846   2.536
  302SOL    HW2  925   1.320   0.996   2.474
  303SOL     OW  926   0.672   1.616   2.016
  303SOL    HW1  927   0.681   1.626   1.917
  303SOL    HW2  928   0.632   1.527   2.037
  304SOL     OW  929   1.841   0.175   2.825
  304SOL    HW1  930   1.880   0.090   2.789
  304SOL    HW2  931   1.743   0.177   2.806
  305SOL     OW  932   0.263   0.326   2.582
  305SOL    HW1  933   0.184   0.377   2.548
  305SOL    HW2  934   0.254   0.311   2.680
  306SOL     OW  935   0.916   0.910   2.153
  306SOL    HW1  936   0.979   0.948   2.085
  306SOL    HW2  937   0.956   0.827   2.192
  307SOL     OW  938   1.039   1.098   2.558
  307SOL    HW1  939   0.969   1.051   2.612
  307SOL    HW2  940   1.098   1.030   2.515
  308SOL     OW  941   1.014   0.236   2.833
  308SOL    HW1  942   1.006   0.200   2.740
  308SOL    HW2  943   1.012   0.160   2.898
  309SOL     OW  944   0.590   1.487   2.353
  309SOL    HW1  945   0.632   1.429   2.283
  309SOL    HW2  946   0.546   1.566   2.309
  310SOL     OW  947   0.255   1.348   2.152
  310SOL    HW1  948   0.159   1.349   2.125
  310SOL    HW2  949   0.267   1.401   2.236
  311SOL     OW  950   0.075   0.345   1.895
  311SOL    HW1  951  -0.017   0.317   1.866
  311SOL    HW2  952   0.106   0.422   1.839
  312SOL     OW  953   0.072   0.166   2.180
  312SOL    HW1  954   0.055   0.249   2.126
  312SOL    HW2  955   0.162   0.129   2.158
  313SOL     OW  956   1.183   1.335   1.981
  313SOL    HW1  957   1.084   1.324   1.983
  313SOL    HW2  958   1.217   1.350   2.074
  314SOL     OW  959   1.493   1.767   2.821
  314SOL    HW1  960   1.526   1.831   2.752
  314SOL    HW2  961   1.559   1.761   2.896
  315SOL     OW  962   1.674   0.883   3.116
  315SOL    HW1  963   1.647   0.794   3.079
  315SOL    HW2  964   1.675   0.951   3.043
  316SOL     OW  965   1.225   0.325   2.311
  316SOL    HW1  966   1.290   0.251   2.300
  316SOL    HW2  967   1.245   0.375   2.395
  317SOL     OW  968   0.594   0.745   2.514
  317SOL    HW1  969   0.644   0.830   2.495
  317SOL    HW2  970   0.506   0.747   2.466
  318SOL     OW  971   0.859   1.374   1.878
  318SOL    HW1  972   0.813   1.389   1.966
  318SOL    HW2  973   0.903   1.459   1.848
  319SOL     OW  974   0.661   1.790   2.815
  319SOL    HW1  975   0.615   1.878   2.802
  319SOL    HW2  976   0.760   1.802   2.808
  320SOL     OW  977   0.859   0.956   2.723
  320SOL    HW1  978   0.913   0.887   2.771
  320SOL    HW2  979   0.827   1.025   2.789
  321SOL     OW  980   1.083   0.984   1.949
  321SOL    HW1  981   1.060   1.037   1.867
  321SOL    HW2  982   1.164   0.928   1.930
  322SOL     OW  983   1.861   1.569   2.713
  322SOL    HW1  984   1.790   1.557   2.643
  322SOL    HW2  985   1.862   1.490   2.773
  323SOL     OW  986   0.079   1.240   2.515
  323SOL    HW1  987   0.078   1.193   2.603
  323SOL    HW2  988   0.161   1.212   2.464
  324SOL     OW  989   1.824   0.192   3.089
  324SOL    HW1  990   1.820   0.102   3.133
  324SOL    HW2  991   1.827   0.181   2.990
  325SOL     OW  992   0.428   0.424   2.382
  325SOL    HW1  993   0.458   0.352   2.320
  325SOL    HW2  994   0.389   0.384   2.465
  326SOL     OW  995   0.812   1.586   2.549
  326SOL    HW1  996   0.844   1.596   2.455
  326SOL    HW2  997   0.733   1.524   2.551
  327SOL     OW  998   1.424   0.214   2.974
  327SOL    HW1  999   1.476   0.149   3.029
  327SOL    HW2 1000   1.375   0.277   3.035
  328SOL     OW 1001   0.770   1.330   2.163
  328SOL    HW1 1002   0.724   1.243   2.180
  328SOL    HW2 1003   0.861   1.327   2.204
  329SOL     OW 1004   1.352   0.052   2.030
  329SOL    HW1 1005   1.387   0.011   1.946
  329SOL    HW2 1006   1.262   0.014   2.050
  330SOL     OW 1007   1.300   0.453   2.553
  330SOL    HW1 1008   1.241   0.533   2.557
  330SOL    HW2 1009   1.315   0.418   2.646
  331SOL     OW 1010   1.593   0.221   2.744
  331SOL    HW1 1011   1.509   0.220   2.798
  331SOL    HW2 1012   1.595   0.304   2.688
  332SOL     OW 1013   0.039   1.077   2.162
  332SOL    HW1 1014   0.138   1.066   2.153
  332SOL    HW2 1015  -0.001   0.991   2.194
  333SOL     OW 1016   0.875   1.646   2.199
  333SOL    HW1 1017   0.798   1.611   2.145
  333SOL    HW2 1018   0.843   1.717   2.261
  334SOL     OW 1019   0.230   2.490   0.113
  334SOL    HW1 1020   0.137   2.488   0.150
  334SOL    HW2 1021   0.231   2.451   0.021
  335SOL     OW 1022   0.225   2.137   0.996
  335SOL    HW1 1023   0.260   2.120   1.088
  335SOL    HW2 1024   0.137   2.092   0.984
  336SOL     OW 1025   0.019   2.230   0.647
  336SOL    HW1 1026  -0.063   2.273   0.686
  336SOL    HW2 1027  -0.009   2.157   0.584
  337SOL     OW 1028   1.135   2.565   0.717
  337SOL    HW1 1029   1.192   2.643   0.692
  337SOL    HW2 1030   1.075   2.591   0.793
  338SOL     OW 1031   1.755   2.469   0.231
  338SOL    HW1 1032   1.743   2.456   0.132
  338SOL    HW2 1033   1.725   2.388   0.280
  339SOL     OW 1034   0.768   3.006   1.023
  339SOL    HW1 1035   0.690   3.023   1.083
  339SOL    HW2 1036   0.802   3.093   0.987
  340SOL     OW 1037   0.850   2.660   1.823
  340SOL    HW1 1038   0.846   2.736   1.888
  340SOL    HW2 1039   0.872   2.696   1.732
  341SOL     OW 1040   0.685   2.874   0.665
  341SOL    HW1 1041   0.754   2.858   0.735
  341SOL    HW2 1042   0.612   2.931   0.703
  342SOL     OW 1043   0.438   2.254   1.499
  342SOL    HW1 1044   0.520   2.198   1.508
  342SOL    HW2 1045   0.357   2.196   1.503
  343SOL     OW 1046   1.603   2.309   0.737
  343SOL    HW1 1047   1.529   2.355   0.687
  343SOL    HW2 1048   1.654   2.377   0.790
  344SOL     OW 1049   0.230   3.296   0.538
  344SOL    HW1 1050   0.204   3.392   0.538
  344SOL    HW2 1051   0.159   3.242   0.583
  345SOL     OW 1052   0.240   2.953   0.886
  345SOL    HW1 1053   0.254   2.869   0.938
  345SOL    HW2 1054   0.185   3.017   0.941
  346SOL     OW 1055   0.606   2.826   0.123
  346SOL    HW1 1056   0.613   2.910   0.069
  346SOL    HW2 1057   0.652   2.839   0.211
  347SOL     OW 1058   1.594   1.976   1.480
  347SOL    HW1 1059   1.576   2.043   1.408
  347SOL    HW2 1060   1.591   2.022   1.569
  348SOL     OW 1061   0.122   2.505   0.563
  348SOL    HW1 1062   0.077   2.417   0.580
  348SOL    HW2 1063   0.121   2.559   0.647
  349SOL     OW 1064   1.689   2.784   0.612
  349SOL    HW1 1065   1.784   2.755   0.620
  349SOL    HW2 1066   1.681   2.849   0.537
  350SOL     OW 1067   0.113   2.599   1.597
  350SOL    HW1 1068   0.201   2.586   1.642
  350SOL    HW2 1069   0.100   2.696   1.575
  351SOL     OW 1070   1.293   3.090   1.423
  351SOL    HW1 1071   1.330   3.017   1.365
  351SOL    HW2 1072   1.345   3.095   1.508
  352SOL     OW 1073   0.809   1.866   0.502
  352SOL    HW1 1074   0.849   1.957   0.493
  352SOL    HW2 1075   0.709   1.874   0.508
  353SOL     OW 1076   0.197   2.838   1.264
  353SOL    HW1 1077   0.286   2.793   1.250
  353SOL    HW2 1078   0.124   2.773   1.245
  354SOL     OW 1079   1.525   2.861   0.190
  354SOL    HW1 1080   1.462   2.785   0.203
  354SOL    HW2 1081   1.573   2.879   0.276
  355SOL     OW 1082   0.317   2.113   1.801
  355SOL    HW1 1083   0.388   2.184   1.807
  355SOL    HW2 1084   0.229   2.152   1.829
  356SOL     OW 1085   0.598   2.591   0.270
  356SOL    HW1 1086   0.622   2.660   0.202
  356SOL    HW2 1087   0.520   2.624   0.324
  357SOL     OW 1088   1.281   2.207   0.944
  357SOL    HW1 1089   1.195   2.157   0.931
  357SOL    HW2 1090   1.343   2.153   1.000
  358SOL     OW 1091   0.807   2.467   1.465
  358SOL    HW1 1092   0.760   2.464   1.554
  358SOL    HW2 1093   0.756   2.412   1.399
  359SOL     OW 1094   1.394   2.331   1.674
  359SOL    HW1 1095   1.374   2.374   1.762
  359SOL    HW2 1096   1.472   2.269   1.683
  360SOL     OW 1097   0.973   2.752   1.572
  360SOL    HW1 1098   1.019   2.668   1.543
  360SOL    HW2 1099   0.917   2.786   1.497
  361SOL     OW 1100   0.991   2.272   1.242
  361SOL    HW1 1101   0.914   2.306   1.296
  361SOL    HW2 1102   0.957   2.221   1.163
  362SOL     OW 1103   1.041   2.563   0.429
  362SOL    HW1 1104   1.067   2.559   0.525
  362SOL    HW2 1105   0.956   2.512   0.415
  363SOL     OW 1106   0.076   2.673   0.789
  363SOL    HW1 1107   0.175   2.661   0.798
  363SOL    HW2 1108   0.052   2.768   0.810
  364SOL     OW 1109   0.865   2.210   0.195
  364SOL    HW1 1110   0.924   2.273   0.146
  364SOL    HW2 1111   0.884   2.116   0.166
  365SOL     OW 1112   1.719   2.447   1.831
  365SOL    HW1 1113   1.693   2.536   1.795
  365SOL    HW2 1114   1.717   2.379   1.758
  366SOL     OW 1115   0.550   2.058   0.885
  366SOL    HW1 1116   0.545   2.053   0.985
  366SOL    HW2 1117   0.552   2.154   0.856
  367SOL     OW 1118   1.795   2.928   0.873
  367SOL    HW1 1119   1.733   2.913   0.797
  367SOL    HW2 1120   1.743   2.939   0.958
  368SOL     OW 1121   0.321   2.805   0.242
  368SOL    HW1 1122   0.403   2.844   0.200
  368SOL    HW2 1123   0.294   2.723   0.193
  369SOL     OW 1124   1.458   2.597   0.728
  369SOL    HW1 1125   1.453   2.532   0.803
  369SOL    HW2 1126   1.538   2.656   0.741
  370SOL     OW 1127   0.202   2.147   1.498
  370SOL    HW1 1128   0.122   2.207   1.485
  370SOL    HW2 1129   0.192   2.098   1.584
  371SOL     OW 1130   1.400   1.969   0.426
  371SOL    HW1 1131   1.376   1.932   0.336
  371SOL    HW2 1132   1.499   1.985   0.430
  372SOL     OW 1133   0.382   2.562   0.480
  372SOL    HW1 1134   0.427   2.472   0.477
  372SOL    HW2 1135   0.288   2.551   0.513
  373SOL     OW 1136   1.547   2.084   1.729
  373SOL    HW1 1137   1.542   2.121   1.821
  373SOL    HW2 1138   1.475   2.015   1.717
  374SOL     OW 1139   0.614   1.984   0.117
  374SOL    HW1 1140   0.712   1.962   0.124
  374SOL    HW2 1141   0.583   1.967   0.024
  375SOL     OW 1142   0.781   2.126   1.749
  375SOL    HW1 1143   0.848   2.065   1.792
  375SOL    HW2 1144   0.708   2.145   1.814
  376SOL     OW 1145   1.351   2.452   1.433
  376SOL    HW1 1146   1.379   2.409   1.518
  376SOL    HW2 1147   1.376   2.548   1.434
  377SOL     OW 1148   0.922   2.365   0.899
  377SOL    HW1 1149   0.897   2.356   0.803
  377SOL    HW2 1150   0.970   2.283   0.930
  378SOL     OW 1151   0.539   1.926   0.512
  378SOL    HW1 1152   0.458   1.927   0.570
  378SOL    HW2 1153   0.542   2.009   0.457
  379SOL     OW 1154   0.935   2.098   0.480
  379SOL    HW1 1155   0.887   2.139   0.402
  379SOL    HW2 1156   1.034   2.096   0.461
  380SOL     OW 1157   1.076   2.545   1.464
  380SOL    HW1 1158   0.996   2.484   1.467
  380SOL    HW2 1159   1.157   2.492   1.440
  381SOL     OW 1160   0.459   3.014   0.741
  381SOL    HW1 1161   0.388   2.987   0.806
  381SOL    HW2 1162   0.433   2.986   0.648
  382SOL     OW 1163   1.032   2.411   0.016
  382SOL    HW1 1164   0.991   2.493  -0.023
  382SOL    HW2 1165   1.096   2.437   0.089
  383SOL     OW 1166   0.078   2.418   1.386
  383SOL    HW1 1167   0.170   2.417   1.345
  383SOL    HW2 1168   0.072   2.492   1.453
  384SOL     OW 1169   0.561   2.084   1.147
  384SOL    HW1 1170   0.599   2.000   1.184
  384SOL    HW2 1171   0.473   2.103   1.191
  385SOL     OW 1172   0.866   2.316   0.642
  385SOL    HW1 1173   0.834   2.388   0.580
  385SOL    HW2 1174   0.890   2.235   0.589
  386SOL     OW 1175   1.017   1.901   0.753
  386SOL    HW1 1176   0.945   1.906   0.684
  386SOL    HW2 1177   0.993   1.832   0.822
  387SOL     OW 1178   1.429   3.035   0.867
  387SOL    HW1 1179   1.374   2.951   0.860
  387SOL    HW2 1180   1.455   3.064   0.775
  388SOL     OW 1181   1.466   2.452   0.992
  388SOL    HW1 1182   1.436   2.357   0.999
  388SOL    HW2 1183   1.539   2.468   1.058
  389SOL     OW 1184   1.857   2.695   0.377
  389SOL    HW1 1185   1.899   2.631   0.441
  389SOL    HW2 1186   1.819   2.644   0.299
  390SOL     OW 1187   1.390   2.437   0.078
  390SOL    HW1 1188   1.336   2.416   0.159
  390SOL    HW2 1189   1.481   2.396   0.087
  391SOL     OW 1190   0.527   2.118   0.328
  391SOL    HW1 1191   0.554   2.059   0.253
  391SOL    HW2 1192   0.527   2.213   0.297
  392SOL     OW 1193   1.754   3.085   1.588
  392SOL    HW1 1194   1.845   3.046   1.575
  392SOL    HW2 1195   1.762   3.181   1.612
  393SOL     OW 1196   1.638   2.961   1.079
  393SOL    HW1 1197   1.643   3.042   1.138
  393SOL    HW2 1198   1.552   2.963   1.028
  394SOL     OW 1199   0.915   1.951   1.402
  394SOL    HW1 1200   0.940   1.931   1.307
  394SOL    HW2 1201   0.987   2.007   1.444
  395SOL     OW 1202   0.705   2.912   0.368
  395SOL    HW1 1203   0.691   2.919   0.467
  395SOL    HW2 1204   0.789   2.861   0.350
  396SOL     OW 1205   0.410   2.675   1.251
  396SOL    HW1 1206   0.496   2.687   1.301
  396SOL    HW2 1207   0.368   2.588   1.278
  397SOL     OW 1208   1.274   2.248   1.262
  397SOL    HW1 1209   1.295   2.322   1.326
  397SOL    HW2 1210   1.185   2.265   1.219
  398SOL     OW 1211   0.367   2.962   0.501
  398SOL    HW1 1212   0.360   3.045   0.445
  398SOL    HW2 1213   0.371   2.882   0.441
  399SOL     OW 1214   0.566   2.399   0.865
  399SOL    HW1 1215   0.578   2.465   0.791
  399SOL    HW2 1216   0.612   2.433   0.948
  400SOL     OW 1217   1.582   2.501   0.472
  400SOL    HW1 1218   1.551   2.562   0.545
  400SOL    HW2 1219   1.632   2.553   0.403
  401SOL     OW 1220   0.402   2.613   1.598
  401SOL    HW1 1221   0.470   2.668   1.551
  401SOL    HW2 1222   0.442   2.525   1.625
  402SOL     OW 1223   1.587   2.641   1.670
  402SOL    HW1 1224   1.495   2.679   1.665
  402SOL    HW2 1225   1.647   2.688   1.605
  403SOL     OW 1226   1.013   1.967   1.770
  403SOL    HW1 1227   1.019   2.052   1.718
  403SOL    HW2 1228   1.045   1.891   1.713
  404SOL     OW 1229   0.504   1.912   1.740
  404SOL    HW1 1230   0.462   1.855   1.670
  404SOL    HW2 1231   0.438   1.981   1.772
  405SOL     OW 1232   0.573   2.732   1.029
  405SOL    HW1 1233   0.617   2.821   1.020
  405SOL    HW2 1234   0.510   2.732   1.106
  406SOL     OW 1235   1.360   2.724   1.045
  406SOL    HW1 1236   1.285   2.724   0.979
  406SOL    HW2 1237   1.397   2.632   1.054
  407SOL     OW 1238   1.209   2.387   0.275
  407SOL    HW1 1239   1.222   2.303   0.329
  407SOL    HW2 1240   1.180   2.461   0.335
  408SOL     OW 1241   0.307   2.075   1.231
  408SOL    HW1 1242   0.284   2.112   1.321
  408SOL    HW2 1243   0.277   1.980   1.225
  409SOL     OW 1244   0.037   3.172   1.282
  409SOL    HW1 1245   0.090   3.123   1.350
  409SOL    HW2 1246   0.059   3.270   1.287
  410SOL     OW 1247   0.732   2.496   1.064
  410SOL    HW1 1248   0.791   2.470   0.988
  410SOL    HW2 1249   0.704   2.592   1.053
  411SOL     OW 1250   1.728   2.797   1.854
  411SOL    HW1 1251   1.682   2.790   1.765
  411SOL    HW2 1252   1.666   2.841   1.920
  412SOL     OW 1253   0.307   1.925   0.618
  412SOL    HW1 1254   0.296   2.019   0.651
  412SOL    HW2 1255   0.302   1.862   0.695
  413SOL     OW 1256   1.622   2.229   0.374
  413SOL    HW1 1257   1.624   2.153   0.438
  413SOL    HW2 1258   1.574   2.306   0.414
  414SOL     OW 1259   1.023   2.628   0.966
  414SOL    HW1 1260   1.038   2.649   1.062
  414SOL    HW2 1261   0.993   2.533   0.957
  415SOL     OW 1262   0.350   2.760   1.804
  415SOL    HW1 1263   0.426   2.804   1.852
  415SOL    HW2 1264   0.385   2.713   1.722
  416SOL     OW 1265   1.540   2.136   0.125
  416SOL    HW1 1266   1.479   2.061   0.148
  416SOL    HW2 1267   1.562   2.188   0.208
  417SOL     OW 1268   1.303   2.700   0.042
  417SOL    HW1 1269   1.337   2.607   0.057
  417SOL    HW2 1270   1.321   2.727  -0.053
  418SOL     OW 1271   0.319   2.672   0.949
  418SOL    HW1 1272   0.412   2.708   0.954
  418SOL    HW2 1273   0.313   2.587   1.001
  419SOL     OW 1274   0.339   2.371   1.006
  419SOL    HW1 1275   0.287   2.288   0.989
  419SOL    HW2 1276   0.416   2.376   0.942
  420SOL     OW 1277   1.138   2.242   1.678
  420SOL    HW1 1278   1.093   2.305   1.742
  420SOL    HW2 1279   1.231   2.273   1.661
  421SOL     OW 1280   1.160   2.069   1.477
  421SOL    HW1 1281   1.160   2.133   1.554
  421SOL    HW2 1282   1.188   2.117   1.394
  422SOL     OW 1283   1.002   2.658   1.238
  422SOL    HW1 1284   1.043   2.626   1.324
  422SOL    HW2 1285   0.906   2.631   1.235
  423SOL     OW 1286   0.040   2.406   1.114
  423SOL    HW1 1287   0.125   2.373   1.073
  423SOL    HW2 1288   0.053   2.421   1.212
  424SOL     OW 1289   0.189   2.382   1.722
  424SOL    HW1 1290   0.248   2.342   1.652
  424SOL    HW2 1291   0.131   2.453   1.681
  425SOL     OW 1292   1.369   2.812   1.660
  425SOL    HW1 1293   1.408   2.901   1.680
  425SOL    HW2 1294   1.379   2.792   1.563
  426SOL     OW 1295   0.815   2.434   0.325
  426SOL    HW1 1296   0.822   2.345   0.279
  426SOL    HW2 1297   0.721   2.468   0.317
  427SOL     OW 1298   1.657   2.466   1.206
  427SOL    HW1 1299   1.619   2.397   1.268
  427SOL    HW2 1300   1.739   2.430   1.162
  428SOL     OW 1301   0.671   2.326   1.269
  428SOL    HW1 1302   0.637   2.237   1.239
  428SOL    HW2 1303   0.697   2.380   1.189
  429SOL     OW 1304   0.473   2.362   0.191
  429SOL    HW1 1305   0.534   2.442   0.195
  429SOL    HW2 1306   0.378   2.393   0.198
  430SOL     OW 1307   0.159   2.999   1.466
  430SOL    HW1 1308   0.181   2.938   1.542
  430SOL    HW2 1309   0.169   2.950   1.380
  431SOL     OW 1310   1.347   2.921   1.234
  431SOL    HW1 1311   1.371   2.858   1.160
  431SOL    HW2 1312   1.257   2.961   1.216
  432SOL     OW 1313   1.302   2.717   0.309
  432SOL    HW1 1314   1.216   2.686   0.351
  432SOL    HW2 1315   1.298   2.703   0.210
  433SOL     OW 1316   0.083   3.120   1.022
  433SOL    HW1 1317   0.078   3.119   1.122
  433SOL    HW2 1318   0.000   3.079   0.984
  434SOL     OW 1319   0.903   1.948   0.133
  434SOL    HW1 1320   0.954   1.949   0.047
  434SOL    HW2 1321   0.959   1.906   0.204
  435SOL     OW 1322   1.726   1.997   0.523
  435SOL    HW1 1323   1.799   1.980   0.456
  435SOL    HW2 1324   1.695   1.910   0.561
  436SOL     OW 1325   1.280   2.789   0.672
  436SOL    HW1 1326   1.340   2.708   0.674
  436SOL    HW2 1327   1.320   2.858   0.612
  437SOL     OW 1328   1.841   2.037   0.963
  437SOL    HW1 1329   1.880   1.952   0.927
  437SOL    HW2 1330   1.743   2.039   0.944
  438SOL     OW 1331   0.263   2.188   0.720
  438SOL    HW1 1332   0.184   2.239   0.686
  438SOL    HW2 1333   0.254   2.173   0.818
  439SOL     OW 1334   0.822   2.864   1.372
  439SOL    HW1 1335   0.862   2.863   1.280
  439SOL    HW2 1336   0.832   2.956   1.412
  440SOL     OW 1337   0.916   2.772   0.291
  440SOL    HW1 1338   0.979   2.810   0.223
  440SOL    HW2 1339   0.956   2.689   0.330
  441SOL     OW 1340   0.372   3.150   1.490
  441SOL    HW1 1341   0.359   3.243   1.456
  441SOL    HW2 1342   0.288   3.098   1.477
  442SOL     OW 1343   1.014   2.098   0.971
  442SOL    HW1 1344   1.006   2.062   0.878
  442SOL    HW2 1345   1.012   2.022   1.036
  443SOL     OW 1346   1.709   2.247   1.381
  443SOL    HW1 1347   1.782   2.316   1.385
  443SOL    HW2 1348   1.737   2.172   1.322
  444SOL     OW 1349   0.105   2.875   1.726
  444SOL    HW1 1350   0.028   2.842   1.780
  444SOL    HW2 1351   0.190   2.845   1.768
  445SOL     OW 1352   0.672   2.065   1.489
  445SOL    HW1 1353   0.762   2.049   1.449
  445SOL    HW2 1354   0.680   2.070   1.588
  446SOL     OW 1355   0.075   2.207   0.033
  446SOL    HW1 1356  -0.017   2.179   0.004
  446SOL    HW2 1357   0.106   2.284  -0.023
  447SOL     OW 1358   1.440   2.718   1.398
  447SOL    HW1 1359   1.383   2.770   1.335
  447SOL    HW2 1360   1.536   2.730   1.374
  448SOL     OW 1361   0.072   2.028   0.318
  448SOL    HW1 1362   0.055   2.111   0.264
  448SOL    HW2 1363   0.162   1.991   0.296
  449SOL     OW 1364   1.183   3.197   0.119
  449SOL    HW1 1365   1.084   3.186   0.121
  449SOL    HW2 1366   1.217   3.212   0.212
  450SOL     OW 1367   0.613   2.704   1.431
  450SOL    HW1 1368   0.669   2.785   1.414
  450SOL    HW2 1369   0.672   2.624   1.434
  451SOL     OW 1370   0.716   2.427   1.708
  451SOL    HW1 1371   0.735   2.492   1.782
  451SOL    HW2 1372   0.776   2.347   1.717
  452SOL     OW 1373   1.674   2.745   1.254
  452SOL    HW1 1374   1.647   2.656   1.217
  452SOL    HW2 1375   1.675   2.813   1.181
  453SOL     OW 1376   1.225   2.187   0.449
  453SOL    HW1 1377   1.290   2.113   0.438
  453SOL    HW2 1378   1.245   2.237   0.533
  454SOL     OW 1379   0.594   2.607   0.652
  454SOL    HW1 1380   0.644   2.692   0.633
  454SOL    HW2 1381   0.506   2.609   0.604
  455SOL     OW 1382   1.777   2.204   1.642
  455SOL    HW1 1383   1.760   2.235   1.548
  455SOL    HW2 1384   1.693   2.167   1.680
  456SOL     OW 1385   1.730   2.796   1.517
  456SOL    HW1 1386   1.768   2.887   1.532
  456SOL    HW2 1387   1.722   2.779   1.418
  457SOL     OW 1388   0.859   2.818   0.861
  457SOL    HW1 1389   0.913   2.749   0.909
  457SOL    HW2 1390   0.827   2.887   0.927
  458SOL     OW 1391   1.083   2.846   0.087
  458SOL    HW1 1392   1.060   2.899   0.005
  458SOL    HW2 1393   1.164   2.790   0.068
  459SOL     OW 1394   1.824   2.054   1.227
  459SOL    HW1 1395   1.820   1.964   1.271
  459SOL    HW2 1396   1.827   2.043   1.128
  460SOL     OW 1397   0.428   2.286   0.520
  460SOL    HW1 1398   0.458   2.214   0.458
  460SOL    HW2 1399   0.389   2.246   0.603
  461SOL     OW 1400   0.317   2.409   1.280
  461SOL    HW1 1401   0.355   2.350   1.352
  461SOL    HW2 1402   0.357   2.383   1.192
  462SOL     OW 1403   1.424   2.076   1.112
  462SOL    HW1 1404   1.476   2.011   1.167
  462SOL    HW2 1405   1.375   2.139   1.173
  463SOL     OW 1406   1.001   1.896   1.154
  463SOL    HW1 1407   0.938   1.824   1.123
  463SOL    HW2 1408   1.094   1.860   1.154
  464SOL     OW 1409   0.770   3.192   0.301
  464SOL    HW1 1410   0.724   3.105   0.318
  464SOL    HW2 1411   0.861   3.189   0.342
  465SOL     OW 1412   1.352   1.914   0.168
  465SOL    HW1 1413   1.387   1.873   0.084
  465SOL    HW2 1414   1.262   1.876   0.188
  466SOL     OW 1415   1.300   2.315   0.691
  466SOL    HW1 1416   1.241   2.395   0.695
  466SOL    HW2 1417   1.315   2.280   0.784
  467SOL     OW 1418   1.593   2.083   0.882
  467SOL    HW1 1419   1.509   2.082   0.936
  467SOL    HW2 1420   1.595   2.166   0.826
  468SOL     OW 1421   0.039   2.939   0.300
  468SOL    HW1 1422   0.138   2.928   0.291
  468SOL    HW2 1423  -0.001   2.853   0.332
  469SOL     OW 1424   0.230   2.490   1.975
  469SOL    HW1 1425   0.137   2.488   2.012
  469SOL    HW2 1426   0.231   2.451   1.883
  470SOL     OW 1427   0.225   2.137   2.858
  470SOL    HW1 1428   0.260   2.120   2.950
  470SOL    HW2 1429   0.137   2.092   2.846
  471SOL     OW 1430   0.019   2.230   2.509
  471SOL    HW1 1431  -0.063   2.273   2.548
  471SOL    HW2 1432  -0.009   2.157   2.446
  472SOL     OW 1433   1.135   2.565   2.579
  472SOL    HW1 1434   1.192   2.643   2.554
  472SOL    HW2 1435   1.075   2.591   2.655
  473SOL     OW 1436   1.755   2.469   2.093
  473SOL    HW1 1437   1.743   2.456   1.994
  473SOL    HW2 1438   1.725   2.388   2.142
  474SOL     OW 1439   0.768   3.006   2.885
  474SOL    HW1 1440   0.690   3.023   2.945
  474SOL    HW2 1441   0.802   3.093   2.849
  475SOL     OW 1442   0.685   2.874   2.527
  475SOL    HW1 1443   0.754   2.858   2.597
  475SOL    HW2 1444   0.612   2.931   2.565
  476SOL     OW 1445   1.603   2.309   2.599
  476SOL    HW1 1446   1.529   2.355   2.549
  476SOL    HW2 1447   1.654   2.377   2.652
  477SOL     OW 1448   0.230   3.296   2.400
  477SOL    HW1 1449   0.204   3.392   2.400
  477SOL    HW2 1450   0.159   3.242   2.445
  478SOL     OW 1451   0.240   2.953   2.748
  478SOL    HW1 1452   0.254   2.869   2.800
  478SOL    HW2 1453   0.185   3.017   2.803
  479SOL     OW 1454   0.606   2.826   1.985
  479SOL    HW1 1455   0.613   2.910   1.931
  479SOL    HW2 1456   0.652   2.839   2.073
  480SOL     OW 1457   0.122   2.505   2.425
  480SOL    HW1 1458   0.077   2.417   2.442
  480SOL    HW2 1459   0.121   2.559   2.509
  481SOL     OW 1460   1.689   2.784   2.474
  481SOL    HW1 1461   1.784   2.755   2.482
  481SOL    HW2 1462   1.681   2.849   2.399
  482SOL     OW 1463   0.809   1.866   2.364
  482SOL    HW1 1464   0.849   1.957   2.355
  482SOL    HW2 1465   0.709   1.874   2.370
  483SOL     OW 1466   0.197   2.838   3.126
  483SOL    HW1 1467   0.286   2.793   3.112
  483SOL    HW2 1468   0.124   2.773   3.107
  484SOL     OW 1469   1.525   2.861   2.052
  484SOL    HW1 1470   1.462   2.785   2.065
  484SOL    HW2 1471   1.573   2.879   2.138
  485SOL     OW 1472   0.598   2.591   2.132
  485SOL    HW1 1473   0.622   2.660   2.064
  485SOL    HW2 1474   0.520   2.624   2.186
  486SOL     OW 1475   1.281   2.207   2.806
  486SOL    HW1 1476   1.195   2.157   2.793
  486SOL    HW2 1477   1.343   2.153   2.862
  487SOL     OW 1478   1.041   2.563   2.291
  487SOL    HW1 1479   1.067   2.559   2.387
  487SOL    HW2 1480   0.956   2.512   2.277
  488SOL     OW 1481   0.076   2.673   2.651
  488SOL    HW1 1482   0.175   2.661   2.660
  488SOL    HW2 1483   0.052   2.768   2.672
  489SOL     OW 1484   0.865   2.210   2.057
  489SOL    HW1 1485   0.924   2.273   2.008
  489SOL    HW2 1486   0.884   2.116   2.028
  490SOL     OW 1487   0.550   2.058   2.747
  490SOL    HW1 1488   0.545   2.053   2.847
  490SOL    HW2 1489   0.552   2.154   2.718
  491SOL     OW 1490   1.795   2.928   2.735
  491SOL    HW1 1491   1.733   2.913   2.659
  491SOL    HW2 1492   1.743   2.939   2.820
  492SOL     OW 1493   0.321   2.805   2.104
  492SOL    HW1 1494   0.403   2.844   2.062
  492SOL    HW2 1495   0.294   2.723   2.055
  493SOL     OW 1496   1.458   2.597   2.590
  493SOL    HW1 1497   1.453   2.532   2.665
  493SOL    HW2 1498   1.538   2.656   2.603
  494SOL     OW 1499   1.400   1.969   2.288
  494SOL    HW1 1500   1.376   1.932   2.198
  494SOL    HW2 1501   1.499   1.985   2.292
  495SOL     OW 1502   0.382   2.562   2.342
  495SOL    HW1 1503   0.427   2.472   2.339
  495SOL    HW2 1504   0.288   2.551   2.375
  496SOL     OW 1505   0.614   1.984   1.979
  496SOL    HW1 1506   0.712   1.962   1.986
  496SOL    HW2 1507   0.583   1.967   1.886
  497SOL     OW 1508   0.922   2.365   2.761
  497SOL    HW1 1509   0.897   2.356   2.665
  497SOL    HW2 1510   0.970   2.283   2.792
  498SOL     OW 1511   0.539   1.926   2.374
  498SOL    HW1 1512   0.458   1.927   2.432
  498SOL    HW2 1513   0.542   2.009   2.319
  499SOL     OW 1514   0.297   1.897   2.033
  499SOL    HW1 1515   0.346   1.981   2.012
  499SOL    HW2 1516   0.359   1.832   2.078
  500SOL     OW 1517   0.935   2.098   2.342
  500SOL    HW1 1518   0.887   2.139   2.264
  500SOL    HW2 1519   1.034   2.096   2.323
  501SOL     OW 1520   0.459   3.014   2.603
  501SOL    HW1 1521   0.388   2.987   2.668
  501SOL    HW2 1522   0.433   2.986   2.510
  502SOL     OW 1523   1.032   2.411   1.878
  502SOL    HW1 1524   0.991   2.493   1.839
  502SOL    HW2 1525   1.096   2.437   1.951
  503SOL     OW 1526   0.866   2.316   2.504
  503SOL    HW1 1527   0.834   2.388   2.442
  503SOL    HW2 1528   0.890   2.235   2.451
  504SOL     OW 1529   1.017   1.901   2.615
  504SOL    HW1 1530   0.945   1.906   2.546
  504SOL    HW2 1531   0.993   1.832   2.684
  505SOL     OW 1532   1.429   3.035   2.729
  505SOL    HW1 1533   1.374   2.951   2.722
  505SOL    HW2 1534   1.455   3.064   2.637
  506SOL     OW 1535   1.466   2.452   2.854
  506SOL    HW1 1536   1.436   2.357   2.861
  506SOL    HW2 1537   1.539   2.468   2.920
  507SOL     OW 1538   1.857   2.695   2.239
  507SOL    HW1 1539   1.899   2.631   2.303
  507SOL    HW2 1540   1.819   2.644   2.161
  508SOL     OW 1541   1.390   2.437   1.940
  508SOL    HW1 1542   1.336   2.416   2.021
  508SOL    HW2 1543   1.481   2.396   1.949
  509SOL     OW 1544   0.527   2.118   2.190
  509SOL    HW1 1545   0.554   2.059   2.115
  509SOL    HW2 1546   0.527   2.213   2.159
  510SOL     OW 1547   1.638   2.961   2.941
  510SOL    HW1 1548   1.643   3.042   3.000
  510SOL    HW2 1549   1.552   2.963   2.890
  511SOL     OW 1550   0.705   2.912   2.230
  511SOL    HW1 1551   0.691   2.919   2.329
  511SOL    HW2 1552   0.789   2.861   2.212
  512SOL     OW 1553   0.410   2.675   3.113
  512SOL    HW1 1554   0.496   2.687   3.163
  512SOL    HW2 1555   0.368   2.588   3.140
  513SOL     OW 1556   0.367   2.962   2.363
  513SOL    HW1 1557   0.360   3.045   2.307
  513SOL    HW2 1558   0.371   2.882   2.303
  514SOL     OW 1559   0.566   2.399   2.727
  514SOL    HW1 1560   0.578   2.465   2.653
  514SOL    HW2 1561   0.612   2.433   2.810
  515SOL     OW 1562   1.582   2.501   2.334
  515SOL    HW1 1563   1.551   2.562   2.407
  515SOL    HW2 1564   1.632   2.553   2.265
  516SOL     OW 1565   0.573   2.732   2.891
  516SOL    HW1 1566   0.617   2.821   2.882
  516SOL    HW2 1567   0.510   2.732   2.968
  517SOL     OW 1568   1.209   2.387   2.137
  517SOL    HW1 1569   1.222   2.303   2.191
  517SOL    HW2 1570   1.180   2.461   2.197
  518SOL     OW 1571   0.307   2.075   3.093
  518SOL    HW1 1572   0.284   2.112   3.183
  518SOL    HW2 1573   0.277   1.980   3.087
  519SOL     OW 1574   0.732   2.496   2.926
  519SOL    HW1 1575   0.791   2.470   2.850
  519SOL    HW2 1576   0.704   2.592   2.915
  520SOL     OW 1577   0.307   1.925   2.480
  520SOL    HW1 1578   0.296   2.019   2.513
  520SOL    HW2 1579   0.302   1.862   2.557
  521SOL     OW 1580   1.622   2.229   2.236
  521SOL    HW1 1581   1.624   2.153   2.300
  521SOL    HW2 1582   1.574   2.306   2.276
  522SOL     OW 1583   1.023   2.628   2.828
  522SOL    HW1 1584   1.038   2.649   2.924
  522SOL    HW2 1585   0.993   2.533   2.819
  523SOL     OW 1586   1.540   2.136   1.987
  523SOL    HW1 1587   1.479   2.061   2.010
  523SOL    HW2 1588   1.562   2.188   2.070
  524SOL     OW 1589   1.303   2.700   1.904
  524SOL    HW1 1590   1.337   2.607   1.919
  524SOL    HW2 1591   1.321   2.727   1.809
  525SOL     OW 1592   0.319   2.672   2.811
  525SOL    HW1 1593   0.412   2.708   2.816
  525SOL    HW2 1594   0.313   2.587   2.863
  526SOL     OW 1595   0.339   2.371   2.868
  526SOL    HW1 1596   0.287   2.288   2.851
  526SOL    HW2 1597   0.416   2.376   2.804
  527SOL     OW 1598   1.002   2.658   3.100
  527SOL    HW1 1599   1.043   2.626   3.186
  527SOL    HW2 1600   0.906   2.631   3.097
  528SOL     OW 1601   0.815   2.434   2.187
  528SOL    HW1 1602   0.822   2.345   2.141
  528SOL    HW2 1603   0.721   2.468   2.179
  529SOL     OW 1604   0.671   2.326   3.131
  529SOL    HW1 1605   0.637   2.237   3.101
  529SOL    HW2 1606   0.697   2.380   3.051
  530SOL     OW 1607   0.473   2.362   2.053
  530SOL    HW1 1608   0.534   2.442   2.057
  530SOL    HW2 1609   0.378   2.393   2.060
  531SOL     OW 1610   1.302   2.717   2.171
  531SOL    HW1 1611   1.216   2.686   2.213
  531SOL    HW2 1612   1.298   2.703   2.072
  532SOL     OW 1613   0.083   3.120   2.884
  532SOL    HW1 1614   0.078   3.119   2.984
  532SOL    HW2 1615   0.000   3.079   2.846
  533SOL     OW 1616   1.726   1.997   2.385
  533SOL    HW1 1617   1.799   1.980   2.318
  533SOL    HW2 1618   1.695   1.910   2.423
  534SOL     OW 1619   1.280   2.789   2.534
  534SOL    HW1 1620   1.340   2.708   2.536
  534SOL    HW2 1621   1.320   2.858   2.474
  535SOL     OW 1622   1.841   2.037   2.825
  535SOL    HW1 1623   1.880   1.952   2.789
  535SOL    HW2 1624   1.743   2.039   2.806
  536SOL     OW 1625   0.263   2.188   2.582
  536SOL    HW1 1626   0.184   2.239   2.548
  536SOL    HW2 1627   0.254   2.173   2.680
  537SOL     OW 1628   0.916   2.772   2.153
  537SOL    HW1 1629   0.979   2.810   2.085
  537SOL    HW2 1630   0.956   2.689   2.192
  538SOL     OW 1631   1.014   2.098   2.833
  538SOL    HW1 1632   1.006   2.062   2.740
  538SOL    HW2 1633   1.012   2.022   2.898
  539SOL     OW 1634   0.075   2.207   1.895
  539SOL    HW1 1635  -0.017   2.179   1.866
  539SOL    HW2 1636   0.106   2.284   1.839
  540SOL     OW 1637   0.072   2.028   2.180
  540SOL    HW1 1638   0.055   2.111   2.126
  540SOL    HW2 1639   0.162   1.991   2.158
  541SOL     OW 1640   1.183   3.197   1.981
  541SOL    HW1 1641   1.084   3.186   1.983
  541SOL    HW2 1642   1.217   3.212   2.074
  542SOL     OW 1643   1.674   2.745   3.116
  542SOL    HW1 1644   1.647   2.656   3.079
  542SOL    HW2 1645   1.675   2.813   3.043
  543SOL     OW 1646   1.225   2.187   2.311
  543SOL    HW1 1647   1.290   2.113   2.300
  543SOL    HW2 1648   1.245   2.237   2.395
  544SOL     OW 1649   0.594   2.607   2.514
  544SOL    HW1 1650   0.644   2.692   2.495
  544SOL    HW2 1651   0.506   2.609   2.466
  545SOL     OW 1652   0.859   2.818   2.723
  545SOL    HW1 1653   0.913   2.749   2.771
  545SOL    HW2 1654   0.827   2.887   2.789
  546SOL     OW 1655   1.083   2.846   1.949
  546SOL    HW1 1656   1.060   2.899   1.867
  546SOL    HW2 1657   1.164   2.790   1.930
  547SOL     OW 1658   1.824   2.054   3.089
  547SOL    HW1 1659   1.820   1.964   3.133
  547SOL    HW2 1660   1.827   2.043   2.990
  548SOL     OW 1661   0.428   2.286   2.382
  548SOL    HW1 1662   0.458   2.214   2.320
  548SOL    HW2 1663   0.389   2.246   2.465
  549SOL     OW 1664   1.424   2.076   2.974
  549SOL    HW1 1665   1.476   2.011   3.029
  549SOL    HW2 1666   1.375   2.139   3.035
  550SOL     OW 1667   0.770   3.192   2.163
  550SOL    HW1 1668   0.724   3.105   2.180
  550SOL    HW2 1669   0.861   3.189   2.204
  551SOL     OW 1670   1.352   1.914   2.030
  551SOL    HW1 1671   1.387   1.873   1.946
  551SOL    HW2 1672   1.262   1.876   2.050
  552SOL     OW 1673   1.300   2.315   2.553
  552SOL    HW1 1674   1.241   2.395   2.557
  552SOL    HW2 1675   1.315   2.280   2.646
  553SOL     OW 1676   1.593   2.083   2.744
  553SOL    HW1 1677   1.509   2.082   2.798
  553SOL    HW2 1678   1.595   2.166   2.688
  554SOL     OW 1679   0.039   2.939   2.162
  554SOL    HW1 1680   0.138   2.928   2.153
  554SOL    HW2 1681  -0.001   2.853   2.194
  555SOL     OW 1682   2.092   0.628   0.113
  555SOL    HW1 1683   1.999   0.626   0.150
  555SOL    HW2 1684   2.093   0.589   0.021
  556SOL     OW 1685   2.087   0.275   0.996
  556SOL    HW1 1686   2.122   0.258   1.088
  556SOL    HW2 1687   1.999   0.230   0.984
  557SOL     OW 1688   1.881   0.368   0.647
  557SOL    HW1 1689   1.799   0.411   0.686
  557SOL    HW2 1690   1.853   0.295   0.584
  558SOL     OW 1691   2.431   1.275   1.165
  558SOL    HW1 1692   2.338   1.268   1.128
  558SOL    HW2 1693   2.442   1.364   1.209
  559SOL     OW 1694   2.630   1.144   1.023
  559SOL    HW1 1695   2.552   1.161   1.083
  559SOL    HW2 1696   2.664   1.231   0.987
  560SOL     OW 1697   2.712   0.798   1.823
  560SOL    HW1 1698   2.708   0.874   1.888
  560SOL    HW2 1699   2.734   0.834   1.732
  561SOL     OW 1700   2.547   1.012   0.665
  561SOL    HW1 1701   2.616   0.996   0.735
  561SOL    HW2 1702   2.474   1.069   0.703
  562SOL     OW 1703   2.548   1.161   1.803
  562SOL    HW1 1704   2.608   1.240   1.817
  562SOL    HW2 1705   2.462   1.192   1.762
  563SOL     OW 1706   2.197   1.435   1.061
  563SOL    HW1 1707   2.119   1.404   1.008
  563SOL    HW2 1708   2.255   1.493   1.004
  564SOL     OW 1709   2.300   0.392   1.499
  564SOL    HW1 1710   2.382   0.336   1.508
  564SOL    HW2 1711   2.219   0.334   1.503
  565SOL     OW 1712   2.093   1.713   0.483
  565SOL    HW1 1713   2.127   1.790   0.537
  565SOL    HW2 1714   2.137   1.713   0.393
  566SOL     OW 1715   2.989   1.341   1.690
  566SOL    HW1 1716   3.036   1.341   1.778
  566SOL    HW2 1717   2.941   1.254   1.679
  567SOL     OW 1718   2.092   1.434   0.538
  567SOL    HW1 1719   2.066   1.530   0.538
  567SOL    HW2 1720   2.021   1.380   0.583
  568SOL     OW 1721   2.102   1.091   0.886
  568SOL    HW1 1722   2.116   1.007   0.938
  568SOL    HW2 1723   2.047   1.155   0.941
  569SOL     OW 1724   2.482   1.786   1.439
  569SOL    HW1 1725   2.390   1.769   1.474
  569SOL    HW2 1726   2.510   1.878   1.465
  570SOL     OW 1727   2.468   0.964   0.123
  570SOL    HW1 1728   2.475   1.048   0.069
  570SOL    HW2 1729   2.514   0.977   0.211
  571SOL     OW 1730   1.984   0.643   0.563
  571SOL    HW1 1731   1.939   0.555   0.580
  571SOL    HW2 1732   1.983   0.697   0.647
  572SOL     OW 1733   1.889   1.596   0.117
  572SOL    HW1 1734   1.870   1.500   0.138
  572SOL    HW2 1735   1.856   1.654   0.192
  573SOL     OW 1736   1.975   0.737   1.597
  573SOL    HW1 1737   2.063   0.724   1.642
  573SOL    HW2 1738   1.962   0.834   1.575
  574SOL     OW 1739   2.475   1.365   0.726
  574SOL    HW1 1740   2.426   1.278   0.735
  574SOL    HW2 1741   2.452   1.408   0.639
  575SOL     OW 1742   2.671   0.004   0.502
  575SOL    HW1 1743   2.711   0.095   0.493
  575SOL    HW2 1744   2.571   0.012   0.508
  576SOL     OW 1745   2.059   0.976   1.264
  576SOL    HW1 1746   2.148   0.931   1.250
  576SOL    HW2 1747   1.986   0.911   1.245
  577SOL     OW 1748   2.179   0.251   1.801
  577SOL    HW1 1749   2.250   0.322   1.807
  577SOL    HW2 1750   2.091   0.290   1.829
  578SOL     OW 1751   2.460   0.729   0.270
  578SOL    HW1 1752   2.484   0.798   0.202
  578SOL    HW2 1753   2.382   0.762   0.324
  579SOL     OW 1754   2.669   0.605   1.465
  579SOL    HW1 1755   2.622   0.602   1.554
  579SOL    HW2 1756   2.618   0.550   1.399
  580SOL     OW 1757   2.835   0.890   1.572
  580SOL    HW1 1758   2.881   0.806   1.543
  580SOL    HW2 1759   2.779   0.924   1.497
  581SOL     OW 1760   2.853   0.410   1.242
  581SOL    HW1 1761   2.776   0.444   1.296
  581SOL    HW2 1762   2.819   0.359   1.163
  582SOL     OW 1763   2.903   0.701   0.429
  582SOL    HW1 1764   2.929   0.697   0.525
  582SOL    HW2 1765   2.818   0.650   0.415
  583SOL     OW 1766   1.938   0.811   0.789
  583SOL    HW1 1767   2.037   0.799   0.798
  583SOL    HW2 1768   1.914   0.906   0.810
  584SOL     OW 1769   1.992   1.821   1.571
  584SOL    HW1 1770   1.982   1.806   1.670
  584SOL    HW2 1771   1.906   1.857   1.535
  585SOL     OW 1772   2.727   0.348   0.195
  585SOL    HW1 1773   2.786   0.411   0.146
  585SOL    HW2 1774   2.746   0.254   0.166
  586SOL     OW 1775   2.412   0.196   0.885
  586SOL    HW1 1776   2.407   0.191   0.985
  586SOL    HW2 1777   2.414   0.292   0.856
  587SOL     OW 1778   2.870   1.456   0.477
  587SOL    HW1 1779   2.824   1.528   0.425
  587SOL    HW2 1780   2.866   1.476   0.575
  588SOL     OW 1781   2.213   1.801   0.853
  588SOL    HW1 1782   2.263   1.715   0.859
  588SOL    HW2 1783   2.278   1.878   0.850
  589SOL     OW 1784   2.183   0.943   0.242
  589SOL    HW1 1785   2.265   0.982   0.200
  589SOL    HW2 1786   2.156   0.861   0.193
  590SOL     OW 1787   2.323   1.266   1.727
  590SOL    HW1 1788   2.273   1.267   1.641
  590SOL    HW2 1789   2.260   1.248   1.803
  591SOL     OW 1790   2.064   0.285   1.498
  591SOL    HW1 1791   1.984   0.345   1.485
  591SOL    HW2 1792   2.054   0.236   1.584
  592SOL     OW 1793   2.326   1.743   0.323
  592SOL    HW1 1794   2.359   1.782   0.409
  592SOL    HW2 1795   2.402   1.736   0.258
  593SOL     OW 1796   2.111   1.785   1.241
  593SOL    HW1 1797   2.168   1.720   1.291
  593SOL    HW2 1798   2.095   1.752   1.148
  594SOL     OW 1799   2.802   1.698   0.904
  594SOL    HW1 1800   2.882   1.641   0.925
  594SOL    HW2 1801   2.753   1.658   0.827
  595SOL     OW 1802   2.244   0.700   0.480
  595SOL    HW1 1803   2.289   0.610   0.477
  595SOL    HW2 1804   2.150   0.689   0.513
  596SOL     OW 1805   2.476   0.122   0.117
  596SOL    HW1 1806   2.574   0.100   0.124
  596SOL    HW2 1807   2.445   0.105   0.024
  597SOL     OW 1808   2.643   0.264   1.749
  597SOL    HW1 1809   2.710   0.203   1.792
  597SOL    HW2 1810   2.570   0.283   1.814
  598SOL     OW 1811   2.750   1.514   1.195
  598SOL    HW1 1812   2.727   1.489   1.101
  598SOL    HW2 1813   2.811   1.445   1.234
  599SOL     OW 1814   2.665   1.402   0.924
  599SOL    HW1 1815   2.755   1.416   0.882
  599SOL    HW2 1816   2.594   1.404   0.853
  600SOL     OW 1817   2.784   0.503   0.899
  600SOL    HW1 1818   2.759   0.494   0.803
  600SOL    HW2 1819   2.832   0.421   0.930
  601SOL     OW 1820   2.401   0.064   0.512
  601SOL    HW1 1821   2.320   0.065   0.570
  601SOL    HW2 1822   2.404   0.147   0.457
  602SOL     OW 1823   3.296   1.188   0.041
  602SOL    HW1 1824   3.328   1.112   0.098
  602SOL    HW2 1825   3.204   1.215   0.071
  603SOL     OW 1826   2.159   0.035   0.171
  603SOL    HW1 1827   2.208   0.119   0.150
  603SOL    HW2 1828   2.221  -0.030   0.216
  604SOL     OW 1829   2.797   0.236   0.480
  604SOL    HW1 1830   2.749   0.277   0.402
  604SOL    HW2 1831   2.896   0.234   0.461
  605SOL     OW 1832   3.089   1.570   0.793
  605SOL    HW1 1833   3.110   1.644   0.728
  605SOL    HW2 1834   3.157   1.570   0.866
  606SOL     OW 1835   2.321   1.152   0.741
  606SOL    HW1 1836   2.250   1.125   0.806
  606SOL    HW2 1837   2.295   1.124   0.648
  607SOL     OW 1838   3.133   1.797   0.591
  607SOL    HW1 1839   3.177   1.861   0.527
  607SOL    HW2 1840   3.083   1.849   0.661
  608SOL     OW 1841   2.894   0.549   0.016
  608SOL    HW1 1842   2.853   0.631  -0.023
  608SOL    HW2 1843   2.958   0.575   0.089
  609SOL     OW 1844   1.940   0.556   1.386
  609SOL    HW1 1845   2.032   0.555   1.345
  609SOL    HW2 1846   1.934   0.630   1.453
  610SOL     OW 1847   2.423   0.222   1.147
  610SOL    HW1 1848   2.461   0.138   1.184
  610SOL    HW2 1849   2.335   0.241   1.191
  611SOL     OW 1850   2.728   0.454   0.642
  611SOL    HW1 1851   2.696   0.526   0.580
  611SOL    HW2 1852   2.752   0.373   0.589
  612SOL     OW 1853   2.879   0.039   0.753
  612SOL    HW1 1854   2.807   0.044   0.684
  612SOL    HW2 1855   2.855  -0.030   0.822
  613SOL     OW 1856   2.350   1.385   0.174
  613SOL    HW1 1857   2.263   1.370   0.221
  613SOL    HW2 1858   2.333   1.411   0.079
  614SOL     OW 1859   2.389   0.256   0.328
  614SOL    HW1 1860   2.416   0.197   0.253
  614SOL    HW2 1861   2.389   0.351   0.297
  615SOL     OW 1862   2.777   0.089   1.402
  615SOL    HW1 1863   2.802   0.069   1.307
  615SOL    HW2 1864   2.849   0.145   1.444
  616SOL     OW 1865   2.842   1.116   1.719
  616SOL    HW1 1866   2.743   1.122   1.729
  616SOL    HW2 1867   2.865   1.036   1.663
  617SOL     OW 1868   2.567   1.050   0.368
  617SOL    HW1 1869   2.553   1.057   0.467
  617SOL    HW2 1870   2.651   0.999   0.350
  618SOL     OW 1871   2.272   0.813   1.251
  618SOL    HW1 1872   2.358   0.825   1.301
  618SOL    HW2 1873   2.230   0.726   1.278
  619SOL     OW 1874   2.229   1.100   0.501
  619SOL    HW1 1875   2.222   1.183   0.445
  619SOL    HW2 1876   2.233   1.020   0.441
  620SOL     OW 1877   2.428   0.537   0.865
  620SOL    HW1 1878   2.440   0.603   0.791
  620SOL    HW2 1879   2.474   0.571   0.948
  621SOL     OW 1880   3.114   1.348   0.388
  621SOL    HW1 1881   3.164   1.425   0.428
  621SOL    HW2 1882   3.019   1.350   0.420
  622SOL     OW 1883   2.216   1.510   1.329
  622SOL    HW1 1884   2.195   1.466   1.242
  622SOL    HW2 1885   2.313   1.536   1.332
  623SOL     OW 1886   2.264   0.751   1.598
  623SOL    HW1 1887   2.332   0.806   1.551
  623SOL    HW2 1888   2.304   0.663   1.625
  624SOL     OW 1889   2.875   0.105   1.770
  624SOL    HW1 1890   2.881   0.190   1.718
  624SOL    HW2 1891   2.907   0.029   1.713
  625SOL     OW 1892   2.366   0.050   1.740
  625SOL    HW1 1893   2.324  -0.007   1.670
  625SOL    HW2 1894   2.300   0.119   1.772
  626SOL     OW 1895   2.435   0.870   1.029
  626SOL    HW1 1896   2.479   0.959   1.020
  626SOL    HW2 1897   2.372   0.870   1.106
  627SOL     OW 1898   3.071   0.525   0.275
  627SOL    HW1 1899   3.084   0.441   0.329
  627SOL    HW2 1900   3.042   0.599   0.335
  628SOL     OW 1901   2.169   0.213   1.231
  628SOL    HW1 1902   2.146   0.250   1.321
  628SOL    HW2 1903   2.139   0.118   1.225
  629SOL     OW 1904   2.594   0.634   1.064
  629SOL    HW1 1905   2.653   0.608   0.988
  629SOL    HW2 1906   2.566   0.730   1.053
  630SOL     OW 1907   2.169   0.063   0.618
  630SOL    HW1 1908   2.158   0.157   0.651
  630SOL    HW2 1909   2.164   0.000   0.695
  631SOL     OW 1910   2.885   0.766   0.966
  631SOL    HW1 1911   2.900   0.787   1.062
  631SOL    HW2 1912   2.855   0.671   0.957
  632SOL     OW 1913   2.842   1.573   1.700
  632SOL    HW1 1914   2.822   1.617   1.612
  632SOL    HW2 1915   2.881   1.482   1.684
  633SOL     OW 1916   2.212   0.898   1.804
  633SOL    HW1 1917   2.288   0.942   1.852
  633SOL    HW2 1918   2.247   0.851   1.722
  634SOL     OW 1919   2.930   1.333   0.849
  634SOL    HW1 1920   2.937   1.249   0.794
  634SOL    HW2 1921   2.992   1.402   0.813
  635SOL     OW 1922   2.181   0.810   0.949
  635SOL    HW1 1923   2.274   0.846   0.954
  635SOL    HW2 1924   2.175   0.725   1.001
  636SOL     OW 1925   2.201   0.509   1.006
  636SOL    HW1 1926   2.149   0.426   0.989
  636SOL    HW2 1927   2.278   0.514   0.942
  637SOL     OW 1928   3.000   0.380   1.678
  637SOL    HW1 1929   2.955   0.443   1.742
  637SOL    HW2 1930   3.093   0.411   1.661
  638SOL     OW 1931   1.870   1.326   0.200
  638SOL    HW1 1932   1.777   1.347   0.169
  638SOL    HW2 1933   1.880   1.227   0.213
  639SOL     OW 1934   1.950   1.801   0.927
  639SOL    HW1 1935   1.908   1.715   0.900
  639SOL    HW2 1936   2.044   1.804   0.893
  640SOL     OW 1937   2.366   1.568   0.910
  640SOL    HW1 1938   2.432   1.642   0.919
  640SOL    HW2 1939   2.410   1.489   0.868
  641SOL     OW 1940   2.864   0.796   1.238
  641SOL    HW1 1941   2.905   0.764   1.324
  641SOL    HW2 1942   2.768   0.769   1.235
  642SOL     OW 1943   1.902   0.544   1.114
  642SOL    HW1 1944   1.987   0.511   1.073
  642SOL    HW2 1945   1.915   0.559   1.212
  643SOL     OW 1946   2.051   0.520   1.722
  643SOL    HW1 1947   2.110   0.480   1.652
  643SOL    HW2 1948   1.993   0.591   1.681
  644SOL     OW 1949   2.677   0.572   0.325
  644SOL    HW1 1950   2.684   0.483   0.279
  644SOL    HW2 1951   2.583   0.606   0.317
  645SOL     OW 1952   2.114   1.564   1.744
  645SOL    HW1 1953   2.084   1.621   1.820
  645SOL    HW2 1954   2.107   1.467   1.770
  646SOL     OW 1955   2.533   0.464   1.269
  646SOL    HW1 1956   2.499   0.375   1.239
  646SOL    HW2 1957   2.559   0.518   1.189
  647SOL     OW 1958   2.792   1.678   1.465
  647SOL    HW1 1959   2.768   1.660   1.370
  647SOL    HW2 1960   2.822   1.772   1.475
  648SOL     OW 1961   2.335   0.500   0.191
  648SOL    HW1 1962   2.396   0.580   0.195
  648SOL    HW2 1963   2.240   0.531   0.198
  649SOL     OW 1964   2.021   1.137   1.466
  649SOL    HW1 1965   2.043   1.076   1.542
  649SOL    HW2 1966   2.031   1.088   1.380
  650SOL     OW 1967   3.164   0.855   0.309
  650SOL    HW1 1968   3.078   0.824   0.351
  650SOL    HW2 1969   3.160   0.841   0.210
  651SOL     OW 1970   2.550   1.662   1.716
  651SOL    HW1 1971   2.494   1.743   1.725
  651SOL    HW2 1972   2.602   1.666   1.630
  652SOL     OW 1973   2.765   0.086   0.133
  652SOL    HW1 1974   2.816   0.087   0.047
  652SOL    HW2 1975   2.821   0.044   0.204
  653SOL     OW 1976   1.992   1.794   1.851
  653SOL    HW1 1977   1.951   1.720   1.904
  653SOL    HW2 1978   2.056   1.845   1.909
  654SOL     OW 1979   2.692   1.273   1.422
  654SOL    HW1 1980   2.687   1.306   1.517
  654SOL    HW2 1981   2.606   1.292   1.376
  655SOL     OW 1982   2.534   1.616   0.154
  655SOL    HW1 1983   2.543   1.626   0.055
  655SOL    HW2 1984   2.494   1.527   0.175
  656SOL     OW 1985   2.125   0.326   0.720
  656SOL    HW1 1986   2.046   0.377   0.686
  656SOL    HW2 1987   2.116   0.311   0.818
  657SOL     OW 1988   2.684   1.002   1.372
  657SOL    HW1 1989   2.724   1.001   1.280
  657SOL    HW2 1990   2.694   1.094   1.412
  658SOL     OW 1991   2.778   0.910   0.291
  658SOL    HW1 1992   2.841   0.948   0.223
  658SOL    HW2 1993   2.818   0.827   0.330
  659SOL     OW 1994   2.234   1.288   1.490
  659SOL    HW1 1995   2.221   1.381   1.456
  659SOL    HW2 1996   2.150   1.236   1.477
  660SOL     OW 1997   2.901   1.098   0.696
  660SOL    HW1 1998   2.831   1.051   0.750
  660SOL    HW2 1999   2.960   1.030   0.653
  661SOL     OW 2000   2.876   0.236   0.971
  661SOL    HW1 2001   2.868   0.200   0.878
  661SOL    HW2 2002   2.874   0.160   1.036
  662SOL     OW 2003   2.452   1.487   0.491
  662SOL    HW1 2004   2.494   1.429   0.421
  662SOL    HW2 2005   2.408   1.566   0.447
  663SOL     OW 2006   2.117   1.348   0.290
  663SOL    HW1 2007   2.021   1.349   0.263
  663SOL    HW2 2008   2.129   1.401   0.374
  664SOL     OW 2009   1.967   1.013   1.726
  664SOL    HW1 2010   1.890   0.980   1.780
  664SOL    HW2 2011   2.052   0.983   1.768
  665SOL     OW 2012   2.534   0.203   1.489
  665SOL    HW1 2013   2.624   0.187   1.449
  665SOL    HW2 2014   2.542   0.208   1.588
  666SOL     OW 2015   1.934   0.166   0.318
  666SOL    HW1 2016   1.917   0.249   0.264
  666SOL    HW2 2017   2.024   0.129   0.296
  667SOL     OW 2018   2.475   0.842   1.431
  667SOL    HW1 2019   2.531   0.923   1.414
  667SOL    HW2 2020   2.534   0.762   1.434
  668SOL     OW 2021   2.578   0.565   1.708
  668SOL    HW1 2022   2.597   0.630   1.782
  668SOL    HW2 2023   2.638   0.485   1.717
  669SOL     OW 2024   2.252   1.741   1.560
  669SOL    HW1 2025   2.161   1.782   1.558
  669SOL    HW2 2026   2.245   1.647   1.592
  670SOL     OW 2027   2.456   0.745   0.652
  670SOL    HW1 2028   2.506   0.830   0.633
  670SOL    HW2 2029   2.368   0.747   0.604
  671SOL     OW 2030   2.721   1.374   0.016
  671SOL    HW1 2031   2.675   1.389   0.104
  671SOL    HW2 2032   2.765   1.459  -0.014
  672SOL     OW 2033   2.523   1.790   0.953
  672SOL    HW1 2034   2.477   1.878   0.940
  672SOL    HW2 2035   2.622   1.802   0.946
  673SOL     OW 2036   2.721   0.956   0.861
  673SOL    HW1 2037   2.775   0.887   0.909
  673SOL    HW2 2038   2.689   1.025   0.927
  674SOL     OW 2039   2.945   0.984   0.087
  674SOL    HW1 2040   2.922   1.037   0.005
  674SOL    HW2 2041   3.026   0.928   0.068
  675SOL     OW 2042   2.083   1.314   1.844
  675SOL    HW1 2043   2.018   1.241   1.823
  675SOL    HW2 2044   2.087   1.328   1.942
  676SOL     OW 2045   1.941   1.240   0.653
  676SOL    HW1 2046   1.940   1.193   0.741
  676SOL    HW2 2047   2.023   1.212   0.602
  677SOL     OW 2048   2.534   1.391   1.624
  677SOL    HW1 2049   2.456   1.341   1.662
  677SOL    HW2 2050   2.531   1.486   1.655
  678SOL     OW 2051   2.290   0.424   0.520
  678SOL    HW1 2052   2.320   0.352   0.458
  678SOL    HW2 2053   2.251   0.384   0.603
  679SOL     OW 2054   2.179   0.547   1.280
  679SOL    HW1 2055   2.217   0.488   1.352
  679SOL    HW2 2056   2.219   0.521   1.192
  680SOL     OW 2057   2.674   1.586   0.687
  680SOL    HW1 2058   2.706   1.596   0.593
  680SOL    HW2 2059   2.595   1.524   0.689
  681SOL     OW 2060   2.863   0.034   1.154
  681SOL    HW1 2061   2.800  -0.038   1.123
  681SOL    HW2 2062   2.956  -0.002   1.154
  682SOL     OW 2063   2.632   1.330   0.301
  682SOL    HW1 2064   2.586   1.243   0.318
  682SOL    HW2 2065   2.723   1.327   0.342
  683SOL     OW 2066   2.480   1.567   1.284
  683SOL    HW1 2067   2.475   1.649   1.341
  683SOL    HW2 2068   2.569   1.564   1.239
  684SOL     OW 2069   1.901   1.077   0.300
  684SOL    HW1 2070   2.000   1.066   0.291
  684SOL    HW2 2071   1.861   0.991   0.332
  685SOL     OW 2072   2.737   1.646   0.337
  685SOL    HW1 2073   2.660   1.611   0.283
  685SOL    HW2 2074   2.705   1.717   0.399
  686SOL     OW 2075   2.092   0.628   1.975
  686SOL    HW1 2076   1.999   0.626   2.012
  686SOL    HW2 2077   2.093   0.589   1.883
  687SOL     OW 2078   2.087   0.275   2.858
  687SOL    HW1 2079   2.122   0.258   2.950
  687SOL    HW2 2080   1.999   0.230   2.846
  688SOL     OW 2081   1.881   0.368   2.509
  688SOL    HW1 2082   1.799   0.411   2.548
  688SOL    HW2 2083   1.853   0.295   2.446
  689SOL     OW 2084   2.630   1.144   2.885
  689SOL    HW1 2085   2.552   1.161   2.945
  689SOL    HW2 2086   2.664   1.231   2.849
  690SOL     OW 2087   2.547   1.012   2.527
  690SOL    HW1 2088   2.616   0.996   2.597
  690SOL    HW2 2089   2.474   1.069   2.565
  691SOL     OW 2090   2.197   1.435   2.923
  691SOL    HW1 2091   2.119   1.404   2.870
  691SOL    HW2 2092   2.255   1.493   2.866
  692SOL     OW 2093   2.093   1.713   2.345
  692SOL    HW1 2094   2.127   1.790   2.399
  692SOL    HW2 2095   2.137   1.713   2.255
  693SOL     OW 2096   2.092   1.434   2.400
  693SOL    HW1 2097   2.066   1.530   2.400
  693SOL    HW2 2098   2.021   1.380   2.445
  694SOL     OW 2099   2.102   1.091   2.748
  694SOL    HW1 2100   2.116   1.007   2.800
  694SOL    HW2 2101   2.047   1.155   2.803
  695SOL     OW 2102   2.468   0.964   1.985
  695SOL    HW1 2103   2.475   1.048   1.931
  695SOL    HW2 2104   2.514   0.977   2.073
  696SOL     OW 2105   1.984   0.643   2.425
  696SOL    HW1 2106   1.939   0.555   2.442
  696SOL    HW2 2107   1.983   0.697   2.509
  697SOL     OW 2108   1.889   1.596   1.979
  697SOL    HW1 2109   1.870   1.500   2.000
  697SOL    HW2 2110   1.856   1.654   2.054
  698SOL     OW 2111   2.475   1.365   2.588
  698SOL    HW1 2112   2.426   1.278   2.597
  698SOL    HW2 2113   2.452   1.408   2.501
  699SOL     OW 2114   2.671   0.004   2.364
  699SOL    HW1 2115   2.711   0.095   2.355
  699SOL    HW2 2116   2.571   0.012   2.370
  700SOL     OW 2117   2.059   0.976   3.126
  700SOL    HW1 2118   2.148   0.931   3.112
  700SOL    HW2 2119   1.986   0.911   3.107
  701SOL     OW 2120   2.460   0.729   2.132
  701SOL    HW1 2121   2.484   0.798   2.064
  701SOL    HW2 2122   2.382   0.762   2.186
  702SOL     OW 2123   2.903   0.701   2.291
  702SOL    HW1 2124   2.929   0.697   2.387
  702SOL    HW2 2125   2.818   0.650   2.277
  703SOL     OW 2126   1.938   0.811   2.651
  703SOL    HW1 2127   2.037   0.799   2.660
  703SOL    HW2 2128   1.914   0.906   2.672
  704SOL     OW 2129   2.727   0.348   2.057
  704SOL    HW1 2130   2.786   0.411   2.008
  704SOL    HW2 2131   2.746   0.254   2.028
  705SOL     OW 2132   2.412   0.196   2.747
  705SOL    HW1 2133   2.407   0.191   2.847
  705SOL    HW2 2134   2.414   0.292   2.718
  706SOL     OW 2135   2.870   1.456   2.339
  706SOL    HW1 2136   2.824   1.528   2.287
  706SOL    HW2 2137   2.866   1.476   2.437
  707SOL     OW 2138   2.213   1.801   2.715
  707SOL    HW1 2139   2.263   1.715   2.721
  707SOL    HW2 2140   2.278   1.878   2.712
  708SOL     OW 2141   2.183   0.943   2.104
  708SOL    HW1 2142   2.265   0.982   2.062
  708SOL    HW2 2143   2.156   0.861   2.055
  709SOL     OW 2144   2.326   1.743   2.185
  709SOL    HW1 2145   2.359   1.782   2.271
  709SOL    HW2 2146   2.402   1.736   2.120
  710SOL     OW 2147   2.111   1.785   3.103
  710SOL    HW1 2148   2.168   1.720   3.153
  710SOL    HW2 2149   2.095   1.752   3.010
  711SOL     OW 2150   2.802   1.698   2.766
  711SOL    HW1 2151   2.882   1.641   2.787
  711SOL    HW2 2152   2.753   1.658   2.689
  712SOL     OW 2153   2.244   0.700   2.342
  712SOL    HW1 2154   2.289   0.610   2.339
  712SOL    HW2 2155   2.150   0.689   2.375
  713SOL     OW 2156   2.476   0.122   1.979
  713SOL    HW1 2157   2.574   0.100   1.986
  713SOL    HW2 2158   2.445   0.105   1.886
  714SOL     OW 2159   2.665   1.402   2.786
  714SOL    HW1 2160   2.755   1.416   2.744
  714SOL    HW2 2161   2.594   1.404   2.715
  715SOL     OW 2162   2.784   0.503   2.761
  715SOL    HW1 2163   2.759   0.494   2.665
  715SOL    HW2 2164   2.832   0.421   2.792
  716SOL     OW 2165   2.401   0.064   2.374
  716SOL    HW1 2166   2.320   0.065   2.432
  716SOL    HW2 2167   2.404   0.147   2.319
  717SOL     OW 2168   2.159   0.035   2.033
  717SOL    HW1 2169   2.208   0.119   2.012
  717SOL    HW2 2170   2.221  -0.030   2.078
  718SOL     OW 2171   2.797   0.236   2.342
  718SOL    HW1 2172   2.749   0.277   2.264
  718SOL    HW2 2173   2.896   0.234   2.323
  719SOL     OW 2174   3.089   1.570   2.655
  719SOL    HW1 2175   3.110   1.644   2.590
  719SOL    HW2 2176   3.157   1.570   2.728
  720SOL     OW 2177   2.321   1.152   2.603
  720SOL    HW1 2178   2.250   1.125   2.668
  720SOL    HW2 2179   2.295   1.124   2.510
  721SOL     OW 2180   3.133   1.797   2.453
  721SOL    HW1 2181   3.177   1.861   2.389
  721SOL    HW2 2182   3.083   1.849   2.523
  722SOL     OW 2183   2.894   0.549   1.878
  722SOL    HW1 2184   2.853   0.631   1.839
  722SOL    HW2 2185   2.958   0.575   1.951
  723SOL     OW 2186   2.728   0.454   2.504
  723SOL    HW1 2187   2.696   0.526   2.442
  723SOL    HW2 2188   2.752   0.373   2.451
  724SOL     OW 2189   2.879   0.039   2.615
  724SOL    HW1 2190   2.807   0.044   2.546
  724SOL    HW2 2191   2.855  -0.030   2.684
  725SOL     OW 2192   2.350   1.385   2.036
  725SOL    HW1 2193   2.263   1.370   2.083
  725SOL    HW2 2194   2.333   1.411   1.941
  726SOL     OW 2195   2.389   0.256   2.190
  726SOL    HW1 2196   2.416   0.197   2.115
  726SOL    HW2 2197   2.389   0.351   2.159
  727SOL     OW 2198   2.567   1.050   2.230
  727SOL    HW1 2199   2.553   1.057   2.329
  727SOL    HW2 2200   2.651   0.999   2.212
  728SOL     OW 2201   2.272   0.813   3.113
  728SOL    HW1 2202   2.358   0.825   3.163
  728SOL    HW2 2203   2.230   0.726   3.140
  729SOL     OW 2204   2.229   1.100   2.363
  729SOL    HW1 2205   2.222   1.183   2.307
  729SOL    HW2 2206   2.233   1.020   2.303
  730SOL     OW 2207   2.428   0.537   2.727
  730SOL    HW1 2208   2.440   0.603   2.653
  730SOL    HW2 2209   2.474   0.571   2.810
  731SOL     OW 2210   3.114   1.348   2.250
  731SOL    HW1 2211   3.164   1.425   2.290
  731SOL    HW2 2212   3.019   1.350   2.282
  732SOL     OW 2213   2.216   1.510   3.191
  732SOL    HW1 2214   2.195   1.466   3.104
  732SOL    HW2 2215   2.313   1.536   3.194
  733SOL     OW 2216   2.435   0.870   2.891
  733SOL    HW1 2217   2.479   0.959   2.882
  733SOL    HW2 2218   2.372   0.870   2.968
  734SOL     OW 2219   3.071   0.525   2.137
  734SOL    HW1 2220   3.084   0.441   2.191
  734SOL    HW2 2221   3.042   0.599   2.197
  735SOL     OW 2222   2.594   0.634   2.926
  735SOL    HW1 2223   2.653   0.608   2.850
  735SOL    HW2 2224   2.566   0.730   2.915
  736SOL     OW 2225   2.169   0.063   2.480
  736SOL    HW1 2226   2.158   0.157   2.513
  736SOL    HW2 2227   2.164   0.000   2.557
  737SOL     OW 2228   2.885   0.766   2.828
  737SOL    HW1 2229   2.900   0.787   2.924
  737SOL    HW2 2230   2.855   0.671   2.819
  738SOL     OW 2231   2.930   1.333   2.711
  738SOL    HW1 2232   2.937   1.249   2.656
  738SOL    HW2 2233   2.992   1.402   2.675
  739SOL     OW 2234   2.181   0.810   2.811
  739SOL    HW1 2235   2.274   0.846   2.816
  739SOL    HW2 2236   2.175   0.725   2.863
  740SOL     OW 2237   2.201   0.509   2.868
  740SOL    HW1 2238   2.149   0.426   2.851
  740SOL    HW2 2239   2.278   0.514   2.804
  741SOL     OW 2240   1.870   1.326   2.062
  741SOL    HW1 2241   1.777   1.347   2.031
  741SOL    HW2 2242   1.880   1.227   2.075
  742SOL     OW 2243   1.950   1.801   2.789
  742SOL    HW1 2244   1.908   1.715   2.762
  742SOL    HW2 2245   2.044   1.804   2.755
  743SOL     OW 2246   2.366   1.568   2.772
  743SOL    HW1 2247   2.432   1.642   2.781
  743SOL    HW2 2248   2.410   1.489   2.730
  744SOL     OW 2249   2.864   0.796   3.100
  744SOL    HW1 2250   2.905   0.764   3.186
  744SOL    HW2 2251   2.768   0.769   3.097
  745SOL     OW 2252   1.902   0.544   2.976
  745SOL    HW1 2253   1.987   0.511   2.935
  745SOL    HW2 2254   1.915   0.559   3.074
  746SOL     OW 2255   2.677   0.572   2.187
  746SOL    HW1 2256   2.684   0.483   2.141
  746SOL    HW2 2257   2.583   0.606   2.179
  747SOL     OW 2258   2.533   0.464   3.131
  747SOL    HW1 2259   2.499   0.375   3.101
  747SOL    HW2 2260   2.559   0.518   3.051
  748SOL     OW 2261   2.335   0.500   2.053
  748SOL    HW1 2262   2.396   0.580   2.057
  748SOL    HW2 2263   2.240   0.531   2.060
  749SOL     OW 2264   3.164   0.855   2.171
  749SOL    HW1 2265   3.078   0.824   2.213
  749SOL    HW2 2266   3.160   0.841   2.072
  750SOL     OW 2267   1.945   1.258   2.884
  750SOL    HW1 2268   1.940   1.257   2.984
  750SOL    HW2 2269   1.862   1.217   2.846
  751SOL     OW 2270   2.534   1.616   2.016
  751SOL    HW1 2271   2.543   1.626   1.917
  751SOL    HW2 2272   2.494   1.527   2.037
  752SOL     OW 2273   2.125   0.326   2.582
  752SOL    HW1 2274   2.046   0.377   2.548
  752SOL    HW2 2275   2.116   0.311   2.680
  753SOL     OW 2276   2.778   0.910   2.153
  753SOL    HW1 2277   2.841   0.948   2.085
  753SOL    HW2 2278   2.818   0.827   2.192
  754SOL     OW 2279   2.901   1.098   2.558
  754SOL    HW1 2280   2.831   1.051   2.612
  754SOL    HW2 2281   2.960   1.030   2.515
  755SOL     OW 2282   2.876   0.236   2.833
  755SOL    HW1 2283   2.868   0.200   2.740
  755SOL    HW2 2284   2.874   0.160   2.898
  756SOL     OW 2285   2.452   1.487   2.353
  756SOL    HW1 2286   2.494   1.429   2.283
  756SOL    HW2 2287   2.408   1.566   2.309
  757SOL     OW 2288   2.117   1.348   2.152
  757SOL    HW1 2289   2.021   1.349   2.125
  757SOL    HW2 2290   2.129   1.401   2.236
  758SOL     OW 2291   1.937   0.345   1.895
  758SOL    HW1 2292   1.845   0.317   1.866
  758SOL    HW2 2293   1.968   0.422   1.839
  759SOL     OW 2294   1.934   0.166   2.180
  759SOL    HW1 2295   1.917   0.249   2.126
  759SOL    HW2 2296   2.024   0.129   2.158
  760SOL     OW 2297   2.456   0.745   2.514
  760SOL    HW1 2298   2.506   0.830   2.495
  760SOL    HW2 2299   2.368   0.747   2.466
  761SOL     OW 2300   2.721   1.374   1.878
  761SOL    HW1 2301   2.675   1.389   1.966
  761SOL    HW2 2302   2.765   1.459   1.848
  762SOL     OW 2303   2.523   1.790   2.815
  762SOL    HW1 2304   2.477   1.878   2.802
  762SOL    HW2 2305   2.622   1.802   2.808
  763SOL     OW 2306   2.721   0.956   2.723
  763SOL    HW1 2307   2.775   0.887   2.771
  763SOL    HW2 2308   2.689   1.025   2.789
  764SOL     OW 2309   2.945   0.984   1.949
  764SOL    HW1 2310   2.922   1.037   1.867
  764SOL    HW2 2311   3.026   0.928   1.930
  765SOL     OW 2312   1.941   1.240   2.515
  765SOL    HW1 2313   1.940   1.193   2.603
  765SOL    HW2 2314   2.023   1.212   2.464
  766SOL     OW 2315   2.290   0.424   2.382
  766SOL    HW1 2316   2.320   0.352   2.320
  766SOL    HW2 2317   2.251   0.384   2.465
  767SOL     OW 2318   2.674   1.586   2.549
  767SOL    HW1 2319   2.706   1.596   2.455
  767SOL    HW2 2320   2.595   1.524   2.551
  768SOL     OW 2321   2.632   1.330   2.163
  768SOL    HW1 2322   2.586   1.243   2.180
  768SOL    HW2 2323   2.723   1.327   2.204
  769SOL     OW 2324   1.901   1.077   2.162
  769SOL    HW1 2325   2.000   1.066   2.153
  769SOL    HW2 2326   1.861   0.991   2.194
  770SOL     OW 2327   2.737   1.646   2.199
  770SOL    HW1 2328   2.660   1.611   2.145
  770SOL    HW2 2329   2.705   1.717   2.261
  771SOL     OW 2330   2.092   2.490   0.113
  771SOL    HW1 2331   1.999   2.488   0.150
  771SOL    HW2 2332   2.093   2.451   0.021
  772SOL     OW 2333   2.087   2.137   0.996
  772SOL    HW1 2334   2.122   2.120   1.088
  772SOL    HW2 2335   1.999   2.092   0.984
  773SOL     OW 2336   1.881   2.230   0.647
  773SOL    HW1 2337   1.799   2.273   0.686
  773SOL    HW2 2338   1.853   2.157   0.584
  774SOL     OW 2339   2.630   3.006   1.023
  774SOL    HW1 2340   2.552   3.023   1.083
  774SOL    HW2 2341   2.664   3.093   0.987
  775SOL     OW 2342   2.712   2.660   1.823
  775SOL    HW1 2343   2.708   2.736   1.888
  775SOL    HW2 2344   2.734   2.696   1.732
  776SOL     OW 2345   2.547   2.874   0.665
  776SOL    HW1 2346   2.616   2.858   0.735
  776SOL    HW2 2347   2.474   2.931   0.703
  777SOL     OW 2348   2.300   2.254   1.499
  777SOL    HW1 2349   2.382   2.198   1.508
  777SOL    HW2 2350   2.219   2.196   1.503
  778SOL     OW 2351   2.092   3.296   0.538
  778SOL    HW1 2352   2.066   3.392   0.538
  778SOL    HW2 2353   2.021   3.242   0.583
  779SOL     OW 2354   2.102   2.953   0.886
  779SOL    HW1 2355   2.116   2.869   0.938
  779SOL    HW2 2356   2.047   3.017   0.941
  780SOL     OW 2357   2.468   2.826   0.123
  780SOL    HW1 2358   2.475   2.910   0.069
  780SOL    HW2 2359   2.514   2.839   0.211
  781SOL     OW 2360   1.984   2.505   0.563
  781SOL    HW1 2361   1.939   2.417   0.580
  781SOL    HW2 2362   1.983   2.559   0.647
  782SOL     OW 2363   1.975   2.599   1.597
  782SOL    HW1 2364   2.063   2.586   1.642
  782SOL    HW2 2365   1.962   2.696   1.575
  783SOL     OW 2366   2.671   1.866   0.502
  783SOL    HW1 2367   2.711   1.957   0.493
  783SOL    HW2 2368   2.571   1.874   0.508
  784SOL     OW 2369   2.059   2.838   1.264
  784SOL    HW1 2370   2.148   2.793   1.250
  784SOL    HW2 2371   1.986   2.773   1.245
  785SOL     OW 2372   2.179   2.113   1.801
  785SOL    HW1 2373   2.250   2.184   1.807
  785SOL    HW2 2374   2.091   2.152   1.829
  786SOL     OW 2375   2.460   2.591   0.270
  786SOL    HW1 2376   2.484   2.660   0.202
  786SOL    HW2 2377   2.382   2.624   0.324
  787SOL     OW 2378   2.669   2.467   1.465
  787SOL    HW1 2379   2.622   2.464   1.554
  787SOL    HW2 2380   2.618   2.412   1.399
  788SOL     OW 2381   2.835   2.752   1.572
  788SOL    HW1 2382   2.881   2.668   1.543
  788SOL    HW2 2383   2.779   2.786   1.497
  789SOL     OW 2384   2.853   2.272   1.242
  789SOL    HW1 2385   2.776   2.306   1.296
  789SOL    HW2 2386   2.819   2.221   1.163
  790SOL     OW 2387   2.903   2.563   0.429
  790SOL    HW1 2388   2.929   2.559   0.525
  790SOL    HW2 2389   2.818   2.512   0.415
  791SOL     OW 2390   1.938   2.673   0.789
  791SOL    HW1 2391   2.037   2.661   0.798
  791SOL    HW2 2392   1.914   2.768   0.810
  792SOL     OW 2393   2.727   2.210   0.195
  792SOL    HW1 2394   2.786   2.273   0.146
  792SOL    HW2 2395   2.746   2.116   0.166
  793SOL     OW 2396   2.412   2.058   0.885
  793SOL    HW1 2397   2.407   2.053   0.985
  793SOL    HW2 2398   2.414   2.154   0.856
  794SOL     OW 2399   2.183   2.805   0.242
  794SOL    HW1 2400   2.265   2.844   0.200
  794SOL    HW2 2401   2.156   2.723   0.193
  795SOL     OW 2402   2.064   2.147   1.498
  795SOL    HW1 2403   1.984   2.207   1.485
  795SOL    HW2 2404   2.054   2.098   1.584
  796SOL     OW 2405   2.244   2.562   0.480
  796SOL    HW1 2406   2.289   2.472   0.477
  796SOL    HW2 2407   2.150   2.551   0.513
  797SOL     OW 2408   2.476   1.984   0.117
  797SOL    HW1 2409   2.574   1.962   0.124
  797SOL    HW2 2410   2.445   1.967   0.024
  798SOL     OW 2411   2.643   2.126   1.749
  798SOL    HW1 2412   2.710   2.065   1.792
  798SOL    HW2 2413   2.570   2.145   1.814
  799SOL     OW 2414   2.784   2.365   0.899
  799SOL    HW1 2415   2.759   2.356   0.803
  799SOL    HW2 2416   2.832   2.283   0.930
  800SOL     OW 2417   2.401   1.926   0.512
  800SOL    HW1 2418   2.320   1.927   0.570
  800SOL    HW2 2419   2.404   2.009   0.457
  801SOL     OW 2420   2.797   2.098   0.480
  801SOL    HW1 2421   2.749   2.139   0.402
  801SOL    HW2 2422   2.896   2.096   0.461
  802SOL     OW 2423   2.321   3.014   0.741
  802SOL    HW1 2424   2.250   2.987   0.806
  802SOL    HW2 2425   2.295   2.986   0.648
  803SOL     OW 2426   2.894   2.411   0.016
  803SOL    HW1 2427   2.853   2.493  -0.023
  803SOL    HW2 2428   2.958   2.437   0.089
  804SOL     OW 2429   1.940   2.418   1.386
  804SOL    HW1 2430   2.032   2.417   1.345
  804SOL    HW2 2431   1.934   2.492   1.453
  805SOL     OW 2432   2.423   2.084   1.147
  805SOL    HW1 2433   2.461   2.000   1.184
  805SOL    HW2 2434   2.335   2.103   1.191
  806SOL     OW 2435   2.728   2.316   0.642
  806SOL    HW1 2436   2.696   2.388   0.580
  806SOL    HW2 2437   2.752   2.235   0.589
  807SOL     OW 2438   2.879   1.901   0.753
  807SOL    HW1 2439   2.807   1.906   0.684
  807SOL    HW2 2440   2.855   1.832   0.822
  808SOL     OW 2441   2.389   2.118   0.328
  808SOL    HW1 2442   2.416   2.059   0.253
  808SOL    HW2 2443   2.389   2.213   0.297
  809SOL     OW 2444   2.777   1.951   1.402
  809SOL    HW1 2445   2.802   1.931   1.307
  809SOL    HW2 2446   2.849   2.007   1.444
  810SOL     OW 2447   2.567   2.912   0.368
  810SOL    HW1 2448   2.553   2.919   0.467
  810SOL    HW2 2449   2.651   2.861   0.350
  811SOL     OW 2450   2.272   2.675   1.251
  811SOL    HW1 2451   2.358   2.687   1.301
  811SOL    HW2 2452   2.230   2.588   1.278
  812SOL     OW 2453   2.229   2.962   0.501
  812SOL    HW1 2454   2.222   3.045   0.445
  812SOL    HW2 2455   2.233   2.882   0.441
  813SOL     OW 2456   2.428   2.399   0.865
  813SOL    HW1 2457   2.440   2.465   0.791
  813SOL    HW2 2458   2.474   2.433   0.948
  814SOL     OW 2459   2.264   2.613   1.598
  814SOL    HW1 2460   2.332   2.668   1.551
  814SOL    HW2 2461   2.304   2.525   1.625
  815SOL     OW 2462   2.875   1.967   1.770
  815SOL    HW1 2463   2.881   2.052   1.718
  815SOL    HW2 2464   2.907   1.891   1.713
  816SOL     OW 2465   2.366   1.912   1.740
  816SOL    HW1 2466   2.324   1.855   1.670
  816SOL    HW2 2467   2.300   1.981   1.772
  817SOL     OW 2468   2.435   2.732   1.029
  817SOL    HW1 2469   2.479   2.821   1.020
  817SOL    HW2 2470   2.372   2.732   1.106
  818SOL     OW 2471   3.071   2.387   0.275
  818SOL    HW1 2472   3.084   2.303   0.329
  818SOL    HW2 2473   3.042   2.461   0.335
  819SOL     OW 2474   2.169   2.075   1.231
  819SOL    HW1 2475   2.146   2.112   1.321
  819SOL    HW2 2476   2.139   1.980   1.225
  820SOL     OW 2477   2.594   2.496   1.064
  820SOL    HW1 2478   2.653   2.470   0.988
  820SOL    HW2 2479   2.566   2.592   1.053
  821SOL     OW 2480   2.169   1.925   0.618
  821SOL    HW1 2481   2.158   2.019   0.651
  821SOL    HW2 2482   2.164   1.862   0.695
  822SOL     OW 2483   2.885   2.628   0.966
  822SOL    HW1 2484   2.900   2.649   1.062
  822SOL    HW2 2485   2.855   2.533   0.957
  823SOL     OW 2486   2.212   2.760   1.804
  823SOL    HW1 2487   2.288   2.804   1.852
  823SOL    HW2 2488   2.247   2.713   1.722
  824SOL     OW 2489   2.181   2.672   0.949
  824SOL    HW1 2490   2.274   2.708   0.954
  824SOL    HW2 2491   2.175   2.587   1.001
  825SOL     OW 2492   2.201   2.371   1.006
  825SOL    HW1 2493   2.149   2.288   0.989
  825SOL    HW2 2494   2.278   2.376   0.942
  826SOL     OW 2495   3.000   2.242   1.678
  826SOL    HW1 2496   2.955   2.305   1.742
  826SOL    HW2 2497   3.093   2.273   1.661
  827SOL     OW 2498   3.022   2.069   1.477
  827SOL    HW1 2499   3.022   2.133   1.554
  827SOL    HW2 2500   3.050   2.117   1.394
  828SOL     OW 2501   2.864   2.658   1.238
  828SOL    HW1 2502   2.905   2.626   1.324
  828SOL    HW2 2503   2.768   2.631   1.235
  829SOL     OW 2504   1.902   2.406   1.114
  829SOL    HW1 2505   1.987   2.373   1.073
  829SOL    HW2 2506   1.915   2.421   1.212
  830SOL     OW 2507   2.051   2.382   1.722
  830SOL    HW1 2508   2.110   2.342   1.652
  830SOL    HW2 2509   1.993   2.453   1.681
  831SOL     OW 2510   2.677   2.434   0.325
  831SOL    HW1 2511   2.684   2.345   0.279
  831SOL    HW2 2512   2.583   2.468   0.317
  832SOL     OW 2513   2.533   2.326   1.269
  832SOL    HW1 2514   2.499   2.237   1.239
  832SOL    HW2 2515   2.559   2.380   1.189
  833SOL     OW 2516   2.335   2.362   0.191
  833SOL    HW1 2517   2.396   2.442   0.195
  833SOL    HW2 2518   2.240   2.393   0.198
  834SOL     OW 2519   2.021   2.999   1.466
  834SOL    HW1 2520   2.043   2.938   1.542
  834SOL    HW2 2521   2.031   2.950   1.380
  835SOL     OW 2522   3.164   2.717   0.309
  835SOL    HW1 2523   3.078   2.686   0.351
  835SOL    HW2 2524   3.160   2.703   0.210
  836SOL     OW 2525   2.765   1.948   0.133
  836SOL    HW1 2526   2.816   1.949   0.047
  836SOL    HW2 2527   2.821   1.906   0.204
  837SOL     OW 2528   2.125   2.188   0.720
  837SOL    HW1 2529   2.046   2.239   0.686
  837SOL    HW2 2530   2.116   2.173   0.818
  838SOL     OW 2531   2.684   2.864   1.372
  838SOL    HW1 2532   2.724   2.863   1.280
  838SOL    HW2 2533   2.694   2.956   1.412
  839SOL     OW 2534   2.778   2.772   0.291
  839SOL    HW1 2535   2.841   2.810   0.223
  839SOL    HW2 2536   2.818   2.689   0.330
  840SOL     OW 2537   2.234   3.150   1.490
  840SOL    HW1 2538   2.221   3.243   1.456
  840SOL    HW2 2539   2.150   3.098   1.477
  841SOL     OW 2540   2.876   2.098   0.971
  841SOL    HW1 2541   2.868   2.062   0.878
  841SOL    HW2 2542   2.874   2.022   1.036
  842SOL     OW 2543   1.967   2.875   1.726
  842SOL    HW1 2544   1.890   2.842   1.780
  842SOL    HW2 2545   2.052   2.845   1.768
  843SOL     OW 2546   2.534   2.065   1.489
  843SOL    HW1 2547   2.624   2.049   1.449
  843SOL    HW2 2548   2.542   2.070   1.588
  844SOL     OW 2549   1.934   2.028   0.318
  844SOL    HW1 2550   1.917   2.111   0.264
  844SOL    HW2 2551   2.024   1.991   0.296
  845SOL     OW 2552   2.475   2.704   1.431
  845SOL    HW1 2553   2.531   2.785   1.414
  845SOL    HW2 2554   2.534   2.624   1.434
  846SOL     OW 2555   2.578   2.427   1.708
  846SOL    HW1 2556   2.597   2.492   1.782
  846SOL    HW2 2557   2.638   2.347   1.717
  847SOL     OW 2558   2.456   2.607   0.652
  847SOL    HW1 2559   2.506   2.692   0.633
  847SOL    HW2 2560   2.368   2.609   0.604
  848SOL     OW 2561   2.721   2.818   0.861
  848SOL    HW1 2562   2.775   2.749   0.909
  848SOL    HW2 2563   2.689   2.887   0.927
  849SOL     OW 2564   2.945   2.846   0.087
  849SOL    HW1 2565   2.922   2.899   0.005
  849SOL    HW2 2566   3.026   2.790   0.068
  850SOL     OW 2567   2.290   2.286   0.520
  850SOL    HW1 2568   2.320   2.214   0.458
  850SOL    HW2 2569   2.251   2.246   0.603
  851SOL     OW 2570   2.179   2.409   1.280
  851SOL    HW1 2571   2.217   2.350   1.352
  851SOL    HW2 2572   2.219   2.383   1.192
  852SOL     OW 2573   2.863   1.896   1.154
  852SOL    HW1 2574   2.800   1.824   1.123
  852SOL    HW2 2575   2.956   1.860   1.154
  853SOL     OW 2576   2.632   3.192   0.301
  853SOL    HW1 2577   2.586   3.105   0.318
  853SOL    HW2 2578   2.723   3.189   0.342
  854SOL     OW 2579   1.901   2.939   0.300
  854SOL    HW1 2580   2.000   2.928   0.291
  854SOL    HW2 2581   1.861   2.853   0.332
  855SOL     OW 2582   2.092   2.490   1.975
  855SOL    HW1 2583   1.999   2.488   2.012
  855SOL    HW2 2584   2.093   2.451   1.883
  856SOL     OW 2585   2.087   2.137   2.858
  856SOL    HW1 2586   2.122   2.120   2.950
  856SOL    HW2 2587   1.999   2.092   2.846
  857SOL     OW 2588   1.881   2.230   2.509
  857SOL    HW1 2589   1.799   2.273   2.548
  857SOL    HW2 2590   1.853   2.157   2.446
  858SOL     OW 2591   2.630   3.006   2.885
  858SOL    HW1 2592   2.552   3.023   2.945
  858SOL    HW2 2593   2.664   3.093   2.849
  859SOL     OW 2594   2.547   2.874   2.527
  859SOL    HW1 2595   2.616   2.858   2.597
  859SOL    HW2 2596   2.474   2.931   2.565
  860SOL     OW 2597   2.092   3.296   2.400
  860SOL    HW1 2598   2.066   3.392   2.400
  860SOL    HW2 2599   2.021   3.242   2.445
  861SOL     OW 2600   2.102   2.953   2.748
  861SOL    HW1 2601   2.116   2.869   2.800
  861SOL    HW2 2602   2.047   3.017   2.803
  862SOL     OW 2603   2.468   2.826   1.985
  862SOL    HW1 2604   2.475   2.910   1.931
  862SOL    HW2 2605   2.514   2.839   2.073
  863SOL     OW 2606   1.984   2.505   2.425
  863SOL    HW1 2607   1.939   2.417   2.442
  863SOL    HW2 2608   1.983   2.559   2.509
  864SOL     OW 2609   2.671   1.866   2.364
  864SOL    HW1 2610   2.711   1.957   2.355
  864SOL    HW2 2611   2.571   1.874   2.370
  865SOL     OW 2612   2.059   2.838   3.126
  865SOL    HW1 2613   2.148   2.793   3.112
  865SOL    HW2 2614   1.986   2.773   3.107
  866SOL     OW 2615   2.460   2.591   2.132
  866SOL    HW1 2616   2.484   2.660   2.064
  866SOL    HW2 2617   2.382   2.624   2.186
  867SOL     OW 2618   2.903   2.563   2.291
  867SOL    HW1 2619   2.929   2.559   2.387
  867SOL    HW2 2620   2.818   2.512   2.277
  868SOL     OW 2621   1.938   2.673   2.651
  868SOL    HW1 2622   2.037   2.661   2.660
  868SOL    HW2 2623   1.914   2.768   2.672
  869SOL     OW 2624   2.727   2.210   2.057
  869SOL    HW1 2625   2.786   2.273   2.008
  869SOL    HW2 2626   2.746   2.116   2.028
  870SOL     OW 2627   2.412   2.058   2.747
  870SOL    HW1 2628   2.407   2.053   2.847
  870SOL    HW2 2629   2.414   2.154   2.718
  871SOL     OW 2630   2.183   2.805   2.104
  871SOL    HW1 2631   2.265   2.844   2.062
  871SOL    HW2 2632   2.156   2.723   2.055
  872SOL     OW 2633   2.244   2.562   2.342
  872SOL    HW1 2634   2.289   2.472   2.339
  872SOL    HW2 2635   2.150   2.551   2.375
  873SOL     OW 2636   2.476   1.984   1.979
  873SOL    HW1 2637   2.574   1.962   1.986
  873SOL    HW2 2638   2.445   1.967   1.886
  874SOL     OW 2639   2.784   2.365   2.761
  874SOL    HW1 2640   2.759   2.356   2.665
  874SOL    HW2 2641   2.832   2.283   2.792
  875SOL     OW 2642   2.401   1.926   2.374
  875SOL    HW1 2643   2.320   1.927   2.432
  875SOL    HW2 2644   2.404   2.009   2.319
  876SOL     OW 2645   2.159   1.897   2.033
  876SOL    HW1 2646   2.208   1.981   2.012
  876SOL    HW2 2647   2.221   1.832   2.078
  877SOL     OW 2648   2.797   2.098   2.342
  877SOL    HW1 2649   2.749   2.139   2.264
  877SOL    HW2 2650   2.896   2.096   2.323
  878SOL     OW 2651   2.321   3.014   2.603
  878SOL    HW1 2652   2.250   2.987   2.668
  878SOL    HW2 2653   2.295   2.986   2.510
  879SOL     OW 2654   2.894   2.411   1.878
  879SOL    HW1 2655   2.853   2.493   1.839
  879SOL    HW2 2656   2.958   2.437   1.951
  880SOL     OW 2657   2.728   2.316   2.504
  880SOL    HW1 2658   2.696   2.388   2.442
  880SOL    HW2 2659   2.752   2.235   2.451
  881SOL     OW 2660   2.879   1.901   2.615
  881SOL    HW1 2661   2.807   1.906   2.546
  881SOL    HW2 2662   2.855   1.832   2.684
  882SOL     OW 2663   2.389   2.118   2.190
  882SOL    HW1 2664   2.416   2.059   2.115
  882SOL    HW2 2665   2.389   2.213   2.159
  883SOL     OW 2666   2.567   2.912   2.230
  883SOL    HW1 2667   2.553   2.919   2.329
  883SOL    HW2 2668   2.651   2.861   2.212
  884SOL     OW 2669   2.272   2.675   3.113
  884SOL    HW1 2670   2.358   2.687   3.163
  884SOL    HW2 2671   2.230   2.588   3.140
  885SOL     OW 2672   2.229   2.962   2.363
  885SOL    HW1 2673   2.222   3.045   2.307
  885SOL    HW2 2674   2.233   2.882   2.303
  886SOL     OW 2675   2.428   2.399   2.727
  886SOL    HW1 2676   2.440   2.465   2.653
  886SOL    HW2 2677   2.474   2.433   2.810
  887SOL     OW 2678   2.435   2.732   2.891
  887SOL    HW1 2679   2.479   2.821   2.882
  887SOL    HW2 2680   2.372   2.732   2.968
  888SOL     OW 2681   3.071   2.387   2.137
  888SOL    HW1 2682   3.084   2.303   2.191
  888SOL    HW2 2683   3.042   2.461   2.197
  889SOL     OW 2684   2.169   2.075   3.093
  889SOL    HW1 2685   2.146   2.112   3.183
  889SOL    HW2 2686   2.139   1.980   3.087
  890SOL     OW 2687   2.594   2.496   2.926
  890SOL    HW1 2688   2.653   2.470   2.850
  890SOL    HW2 2689   2.566   2.592   2.915
  891SOL     OW 2690   2.169   1.925   2.480
  891SOL    HW1 2691   2.158   2.019   2.513
  891SOL    HW2 2692   2.164   1.862   2.557
  892SOL     OW 2693   2.885   2.628   2.828
  892SOL    HW1 2694   2.900   2.649   2.924
  892SOL    HW2 2695   2.855   2.533   2.819
  893SOL     OW 2696   2.181   2.672   2.811
  893SOL    HW1 2697   2.274   2.708   2.816
  893SOL    HW2 2698   2.175   2.587   2.863
  894SOL     OW 2699   2.201   2.371   2.868
  894SOL    HW1 2700   2.149   2.288   2.851
  894SOL    HW2 2701   2.278   2.376   2.804
  895SOL     OW 2702   2.864   2.658   3.100
  895SOL    HW1 2703   2.905   2.626   3.186
  895SOL    HW2 2704   2.768   2.631   3.097
  896SOL     OW 2705   1.902   2.406   2.976
  896SOL    HW1 2706   1.987   2.373   2.935
  896SOL    HW2 2707   1.915   2.421   3.074
  897SOL     OW 2708   2.677   2.434   2.187
  897SOL    HW1 2709   2.684   2.345   2.141
  897SOL    HW2 2710   2.583   2.468   2.179
  898SOL     OW 2711   2.533   2.326   3.131
  898SOL    HW1 2712   2.499   2.237   3.101
  898SOL    HW2 2713   2.559   2.380   3.051
  899SOL     OW 2714   2.335   2.362   2.053
  899SOL    HW1 2715   2.396   2.442   2.057
  899SOL    HW2 2716   2.240   2.393   2.060
  900SOL     OW 2717   3.164   2.717   2.171
  900SOL    HW1 2718   3.078   2.686   2.213
  900SOL    HW2 2719   3.160   2.703   2.072
  901SOL     OW 2720   2.125   2.188   2.582
  901SOL    HW1 2721   2.046   2.239   2.548
  901SOL    HW2 2722   2.116   2.173   2.680
  902SOL     OW 2723   2.778   2.772   2.153
  902SOL    HW1 2724   2.841   2.810   2.085
  902SOL    HW2 2725   2.818   2.689   2.192
  903SOL     OW 2726   2.876   2.098   2.833
  903SOL    HW1 2727   2.868   2.062   2.740
  903SOL    HW2 2728   2.874   2.022   2.898
  904SOL     OW 2729   1.937   2.207   1.895
  904SOL    HW1 2730   1.845   2.179   1.866
  904SOL    HW2 2731   1.968   2.284   1.839
  905SOL     OW 2732   1.934   2.028   2.180
  905SOL    HW1 2733   1.917   2.111   2.126
  905SOL    HW2 2734   2.024   1.991   2.158
  906SOL     OW 2735   2.456   2.607   2.514
  906SOL    HW1 2736   2.506   2.692   2.495
  906SOL    HW2 2737   2.368   2.609   2.466
  907SOL     OW 2738   2.721   2.818   2.723
  907SOL    HW1 2739   2.775   2.749   2.771
  907SOL    HW2 2740   2.689   2.887   2.789
  908SOL     OW 2741   2.945   2.846   1.949
  908SOL    HW1 2742   2.922   2.899   1.867
  908SOL    HW2 2743   3.026   2.790   1.930
  909SOL     OW 2744   2.290   2.286   2.382
  909SOL    HW1 2745   2.320   2.214   2.320
  909SOL    HW2 2746   2.251   2.246   2.465
  910SOL     OW 2747   2.632   3.192   2.163
  910SOL    HW1 2748   2.586   3.105   2.180
  910SOL    HW2 2749   2.723   3.189   2.204
  911SOL     OW 2750   1.901   2.939   2.162
  911SOL    HW1 2751   2.000   2.928   2.153
  911SOL    HW2 2752   1.861   2.853   2.194
   3.04933   3.04933   3.04933
