mobley_4609460_GMX.gro created by acpype (v: 2023.10.27) on Thu May 14 13:43:50 2026
 2596
    1MOL     C1    1   1.310   1.573   1.358
    1MOL     C2    2   1.409   1.512   1.569
    1MOL     C3    3   1.202   1.631   1.425
    1MOL     C4    4   1.301   1.569   1.637
    1MOL     C5    5   1.413   1.514   1.430
    1MOL     C6    6   1.197   1.629   1.565
    1MOL     C7    7   1.526   1.454   1.360
    1MOL     C8    8   1.821   1.287   1.501
    1MOL     C9    9   1.733   1.339   1.390
    1MOL     O1   10   1.538   1.451   1.236
    1MOL     O2   11   1.092   1.684   1.630
    1MOL     O3   12   1.617   1.401   1.447
    1MOL     H1   13   1.312   1.576   1.249
    1MOL     H2   14   1.489   1.466   1.626
    1MOL     H3   15   1.121   1.677   1.368
    1MOL     H4   16   1.298   1.567   1.745
    1MOL     H5   17   1.853   1.369   1.566
    1MOL     H6   18   1.767   1.213   1.561
    1MOL     H7   19   1.909   1.237   1.460
    1MOL     H8   20   1.700   1.257   1.325
    1MOL     H9   21   1.786   1.414   1.330
    1MOL    H10   22   1.104   1.675   1.726
    2SOL     OW   23   0.230   0.628   0.113
    2SOL    HW1   24   0.137   0.626   0.150
    2SOL    HW2   25   0.231   0.589   0.021
    3SOL     OW   26   0.225   0.275   0.996
    3SOL    HW1   27   0.260   0.258   1.088
    3SOL    HW2   28   0.137   0.230   0.984
    4SOL     OW   29   0.019   0.368   0.647
    4SOL    HW1   30  -0.063   0.411   0.686
    4SOL    HW2   31  -0.009   0.295   0.584
    5SOL     OW   32   0.569   1.275   1.165
    5SOL    HW1   33   0.476   1.268   1.128
    5SOL    HW2   34   0.580   1.364   1.209
    6SOL     OW   35   1.555   1.511   0.703
    6SOL    HW1   36   1.498   1.495   0.784
    6SOL    HW2   37   1.496   1.521   0.623
    7SOL     OW   38   1.135   0.703   0.717
    7SOL    HW1   39   1.192   0.781   0.692
    7SOL    HW2   40   1.075   0.729   0.793
    8SOL     OW   41   1.755   0.607   0.231
    8SOL    HW1   42   1.743   0.594   0.132
    8SOL    HW2   43   1.725   0.526   0.280
    9SOL     OW   44   0.768   1.144   1.023
    9SOL    HW1   45   0.690   1.161   1.083
    9SOL    HW2   46   0.802   1.231   0.987
   10SOL     OW   47   0.850   0.798   1.823
   10SOL    HW1   48   0.846   0.874   1.888
   10SOL    HW2   49   0.872   0.834   1.732
   11SOL     OW   50   0.685   1.012   0.665
   11SOL    HW1   51   0.754   0.996   0.735
   11SOL    HW2   52   0.612   1.069   0.703
   12SOL     OW   53   0.686   1.161   1.803
   12SOL    HW1   54   0.746   1.240   1.817
   12SOL    HW2   55   0.600   1.192   1.762
   13SOL     OW   56   0.335   1.435   1.061
   13SOL    HW1   57   0.257   1.404   1.008
   13SOL    HW2   58   0.393   1.493   1.004
   14SOL     OW   59   0.438   0.392   1.499
   14SOL    HW1   60   0.520   0.336   1.508
   14SOL    HW2   61   0.357   0.334   1.503
   15SOL     OW   62   1.603   0.447   0.737
   15SOL    HW1   63   1.529   0.493   0.687
   15SOL    HW2   64   1.654   0.515   0.790
   16SOL     OW   65   0.231   1.713   0.483
   16SOL    HW1   66   0.265   1.790   0.537
   16SOL    HW2   67   0.275   1.713   0.393
   17SOL     OW   68   1.127   1.341   1.690
   17SOL    HW1   69   1.174   1.341   1.778
   17SOL    HW2   70   1.079   1.254   1.679
   18SOL     OW   71   0.230   1.434   0.538
   18SOL    HW1   72   0.204   1.530   0.538
   18SOL    HW2   73   0.159   1.380   0.583
   19SOL     OW   74   0.240   1.091   0.886
   19SOL    HW1   75   0.254   1.007   0.938
   19SOL    HW2   76   0.185   1.155   0.941
   20SOL     OW   77   0.620   1.786   1.439
   20SOL    HW1   78   0.528   1.769   1.474
   20SOL    HW2   79   0.648   1.878   1.465
   21SOL     OW   80   0.606   0.964   0.123
   21SOL    HW1   81   0.613   1.048   0.069
   21SOL    HW2   82   0.652   0.977   0.211
   22SOL     OW   83   1.594   0.114   1.480
   22SOL    HW1   84   1.576   0.181   1.408
   22SOL    HW2   85   1.591   0.160   1.569
   23SOL     OW   86   0.122   0.643   0.563
   23SOL    HW1   87   0.077   0.555   0.580
   23SOL    HW2   88   0.121   0.697   0.647
   24SOL     OW   89   1.842   1.767   0.359
   24SOL    HW1   90   1.896   1.738   0.439
   24SOL    HW2   91   1.872   1.857   0.330
   25SOL     OW   92   0.027   1.596   0.117
   25SOL    HW1   93   0.008   1.500   0.138
   25SOL    HW2   94  -0.006   1.654   0.192
   26SOL     OW   95   1.689   0.922   0.612
   26SOL    HW1   96   1.784   0.893   0.620
   26SOL    HW2   97   1.681   0.987   0.537
   27SOL     OW   98   1.641   1.108   0.432
   27SOL    HW1   99   1.727   1.110   0.380
   27SOL    HW2  100   1.655   1.155   0.520
   28SOL     OW  101   0.113   0.737   1.597
   28SOL    HW1  102   0.201   0.724   1.642
   28SOL    HW2  103   0.100   0.834   1.575
   29SOL     OW  104   0.613   1.365   0.726
   29SOL    HW1  105   0.564   1.278   0.735
   29SOL    HW2  106   0.590   1.408   0.639
   30SOL     OW  107   1.293   1.228   1.423
   30SOL    HW1  108   1.330   1.155   1.365
   30SOL    HW2  109   1.345   1.233   1.508
   31SOL     OW  110   0.809   0.004   0.502
   31SOL    HW1  111   0.849   0.095   0.493
   31SOL    HW2  112   0.709   0.012   0.508
   32SOL     OW  113   0.197   0.976   1.264
   32SOL    HW1  114   0.286   0.931   1.250
   32SOL    HW2  115   0.124   0.911   1.245
   33SOL     OW  116   1.525   0.999   0.190
   33SOL    HW1  117   1.462   0.923   0.203
   33SOL    HW2  118   1.573   1.017   0.276
   34SOL     OW  119   0.317   0.251   1.801
   34SOL    HW1  120   0.388   0.322   1.807
   34SOL    HW2  121   0.229   0.290   1.829
   35SOL     OW  122   1.466   1.417   0.953
   35SOL    HW1  123   1.407   1.423   1.033
   35SOL    HW2  124   1.451   1.329   0.907
   36SOL     OW  125   1.667   1.714   0.572
   36SOL    HW1  126   1.626   1.691   0.484
   36SOL    HW2  127   1.649   1.640   0.637
   37SOL     OW  128   0.598   0.729   0.270
   37SOL    HW1  129   0.622   0.798   0.202
   37SOL    HW2  130   0.520   0.762   0.324
   38SOL     OW  131   1.281   0.345   0.944
   38SOL    HW1  132   1.195   0.295   0.931
   38SOL    HW2  133   1.343   0.291   1.000
   39SOL     OW  134   1.576   1.662   0.307
   39SOL    HW1  135   1.665   1.708   0.310
   39SOL    HW2  136   1.555   1.638   0.212
   40SOL     OW  137   0.807   0.605   1.465
   40SOL    HW1  138   0.760   0.602   1.554
   40SOL    HW2  139   0.756   0.550   1.399
   41SOL     OW  140   1.394   0.469   1.674
   41SOL    HW1  141   1.374   0.512   1.762
   41SOL    HW2  142   1.472   0.407   1.683
   42SOL     OW  143   0.973   0.890   1.572
   42SOL    HW1  144   1.019   0.806   1.543
   42SOL    HW2  145   0.917   0.924   1.497
   43SOL     OW  146   0.991   0.410   1.242
   43SOL    HW1  147   0.914   0.444   1.296
   43SOL    HW2  148   0.957   0.359   1.163
   44SOL     OW  149   1.041   0.701   0.429
   44SOL    HW1  150   1.067   0.697   0.525
   44SOL    HW2  151   0.956   0.650   0.415
   45SOL     OW  152   0.076   0.811   0.789
   45SOL    HW1  153   0.175   0.799   0.798
   45SOL    HW2  154   0.052   0.906   0.810
   46SOL     OW  155   0.130   1.821   1.571
   46SOL    HW1  156   0.120   1.806   1.670
   46SOL    HW2  157   0.044   1.857   1.535
   47SOL     OW  158   0.865   0.348   0.195
   47SOL    HW1  159   0.924   0.411   0.146
   47SOL    HW2  160   0.884   0.254   0.166
   48SOL     OW  161   1.719   0.585   1.831
   48SOL    HW1  162   1.693   0.674   1.795
   48SOL    HW2  163   1.717   0.517   1.758
   49SOL     OW  164   1.362   1.144   0.545
   49SOL    HW1  165   1.445   1.115   0.497
   49SOL    HW2  166   1.313   1.211   0.489
   50SOL     OW  167   0.550   0.196   0.885
   50SOL    HW1  168   0.545   0.191   0.985
   50SOL    HW2  169   0.552   0.292   0.856
   51SOL     OW  170   1.008   1.456   0.477
   51SOL    HW1  171   0.962   1.528   0.425
   51SOL    HW2  172   1.004   1.476   0.575
   52SOL     OW  173   0.351   1.801   0.853
   52SOL    HW1  174   0.401   1.715   0.859
   52SOL    HW2  175   0.416   1.878   0.850
   53SOL     OW  176   1.795   1.066   0.873
   53SOL    HW1  177   1.733   1.051   0.797
   53SOL    HW2  178   1.743   1.077   0.958
   54SOL     OW  179   0.321   0.943   0.242
   54SOL    HW1  180   0.403   0.982   0.200
   54SOL    HW2  181   0.294   0.861   0.193
   55SOL     OW  182   1.458   0.735   0.728
   55SOL    HW1  183   1.453   0.670   0.803
   55SOL    HW2  184   1.538   0.794   0.741
   56SOL     OW  185   0.461   1.266   1.727
   56SOL    HW1  186   0.411   1.267   1.641
   56SOL    HW2  187   0.398   1.248   1.803
   57SOL     OW  188   1.111   1.776   0.237
   57SOL    HW1  189   1.051   1.714   0.287
   57SOL    HW2  190   1.142   1.732   0.152
   58SOL     OW  191   0.202   0.285   1.498
   58SOL    HW1  192   0.122   0.345   1.485
   58SOL    HW2  193   0.192   0.236   1.584
   59SOL     OW  194   1.632   1.377   0.081
   59SOL    HW1  195   1.600   1.471   0.071
   59SOL    HW2  196   1.556   1.314   0.069
   60SOL     OW  197   0.464   1.743   0.323
   60SOL    HW1  198   0.497   1.782   0.409
   60SOL    HW2  199   0.540   1.736   0.258
   61SOL     OW  200   1.400   0.107   0.426
   61SOL    HW1  201   1.376   0.070   0.336
   61SOL    HW2  202   1.499   0.123   0.430
   62SOL     OW  203   0.249   1.785   1.241
   62SOL    HW1  204   0.306   1.720   1.291
   62SOL    HW2  205   0.233   1.752   1.148
   63SOL     OW  206   0.940   1.698   0.904
   63SOL    HW1  207   1.020   1.641   0.925
   63SOL    HW2  208   0.891   1.658   0.827
   64SOL     OW  209   0.382   0.700   0.480
   64SOL    HW1  210   0.427   0.610   0.477
   64SOL    HW2  211   0.288   0.689   0.513
   65SOL     OW  212   1.547   0.222   1.729
   65SOL    HW1  213   1.542   0.259   1.821
   65SOL    HW2  214   1.475   0.153   1.717
   66SOL     OW  215   0.614   0.122   0.117
   66SOL    HW1  216   0.712   0.100   0.124
   66SOL    HW2  217   0.583   0.105   0.024
   67SOL     OW  218   0.781   0.264   1.749
   67SOL    HW1  219   0.848   0.203   1.792
   67SOL    HW2  220   0.708   0.283   1.814
   68SOL     OW  221   0.888   1.514   1.195
   68SOL    HW1  222   0.865   1.489   1.101
   68SOL    HW2  223   0.949   1.445   1.234
   69SOL     OW  224   1.351   0.590   1.433
   69SOL    HW1  225   1.379   0.547   1.518
   69SOL    HW2  226   1.376   0.686   1.434
   70SOL     OW  227   0.803   1.402   0.924
   70SOL    HW1  228   0.893   1.416   0.882
   70SOL    HW2  229   0.732   1.404   0.853
   71SOL     OW  230   0.922   0.503   0.899
   71SOL    HW1  231   0.897   0.494   0.803
   71SOL    HW2  232   0.970   0.421   0.930
   72SOL     OW  233   0.539   0.064   0.512
   72SOL    HW1  234   0.458   0.065   0.570
   72SOL    HW2  235   0.542   0.147   0.457
   73SOL     OW  236   1.434   1.188   0.041
   73SOL    HW1  237   1.466   1.112   0.098
   73SOL    HW2  238   1.342   1.215   0.071
   74SOL     OW  239   0.297   0.035   0.171
   74SOL    HW1  240   0.346   0.119   0.150
   74SOL    HW2  241   0.359  -0.030   0.216
   75SOL     OW  242   0.935   0.236   0.480
   75SOL    HW1  243   0.887   0.277   0.402
   75SOL    HW2  244   1.034   0.234   0.461
   76SOL     OW  245   1.076   0.683   1.464
   76SOL    HW1  246   0.996   0.622   1.467
   76SOL    HW2  247   1.157   0.630   1.440
   77SOL     OW  248   1.227   1.570   0.793
   77SOL    HW1  249   1.248   1.644   0.728
   77SOL    HW2  250   1.295   1.570   0.866
   78SOL     OW  251   0.459   1.152   0.741
   78SOL    HW1  252   0.388   1.125   0.806
   78SOL    HW2  253   0.433   1.124   0.648
   79SOL     OW  254   1.271   1.797   0.591
   79SOL    HW1  255   1.315   1.861   0.527
   79SOL    HW2  256   1.221   1.849   0.661
   80SOL     OW  257   1.032   0.549   0.016
   80SOL    HW1  258   0.991   0.631  -0.023
   80SOL    HW2  259   1.096   0.575   0.089
   81SOL     OW  260   0.078   0.556   1.386
   81SOL    HW1  261   0.170   0.555   1.345
   81SOL    HW2  262   0.072   0.630   1.453
   82SOL     OW  263   0.561   0.222   1.147
   82SOL    HW1  264   0.599   0.138   1.184
   82SOL    HW2  265   0.473   0.241   1.191
   83SOL     OW  266   0.866   0.454   0.642
   83SOL    HW1  267   0.834   0.526   0.580
   83SOL    HW2  268   0.890   0.373   0.589
   84SOL     OW  269   1.017   0.039   0.753
   84SOL    HW1  270   0.945   0.044   0.684
   84SOL    HW2  271   0.993  -0.030   0.822
   85SOL     OW  272   1.429   1.173   0.867
   85SOL    HW1  273   1.374   1.089   0.860
   85SOL    HW2  274   1.455   1.202   0.775
   86SOL     OW  275   1.466   0.590   0.992
   86SOL    HW1  276   1.436   0.495   0.999
   86SOL    HW2  277   1.539   0.606   1.058
   87SOL     OW  278   1.857   0.833   0.377
   87SOL    HW1  279   1.899   0.769   0.441
   87SOL    HW2  280   1.819   0.782   0.299
   88SOL     OW  281   0.488   1.385   0.174
   88SOL    HW1  282   0.401   1.370   0.221
   88SOL    HW2  283   0.471   1.411   0.079
   89SOL     OW  284   1.664   1.280   0.657
   89SOL    HW1  285   1.763   1.288   0.671
   89SOL    HW2  286   1.619   1.364   0.688
   90SOL     OW  287   1.390   0.575   0.078
   90SOL    HW1  288   1.336   0.554   0.159
   90SOL    HW2  289   1.481   0.534   0.087
   91SOL     OW  290   0.527   0.256   0.328
   91SOL    HW1  291   0.554   0.197   0.253
   91SOL    HW2  292   0.527   0.351   0.297
   92SOL     OW  293   1.064   1.347   1.340
   92SOL    HW1  294   0.984   1.324   1.395
   92SOL    HW2  295   1.147   1.321   1.389
   93SOL     OW  296   1.592   1.629   1.625
   93SOL    HW1  297   1.619   1.663   1.535
   93SOL    HW2  298   1.671   1.591   1.671
   94SOL     OW  299   1.111   1.195   1.100
   94SOL    HW1  300   1.071   1.239   1.181
   94SOL    HW2  301   1.070   1.232   1.017
   95SOL     OW  302   1.638   1.099   1.079
   95SOL    HW1  303   1.643   1.180   1.138
   95SOL    HW2  304   1.552   1.101   1.028
   96SOL     OW  305   0.915   0.089   1.402
   96SOL    HW1  306   0.940   0.069   1.307
   96SOL    HW2  307   0.987   0.145   1.444
   97SOL     OW  308   0.980   1.116   1.719
   97SOL    HW1  309   0.881   1.122   1.729
   97SOL    HW2  310   1.003   1.036   1.663
   98SOL     OW  311   0.705   1.050   0.368
   98SOL    HW1  312   0.691   1.057   0.467
   98SOL    HW2  313   0.789   0.999   0.350
   99SOL     OW  314   0.410   0.813   1.251
   99SOL    HW1  315   0.496   0.825   1.301
   99SOL    HW2  316   0.368   0.726   1.278
  100SOL     OW  317   1.274   0.386   1.262
  100SOL    HW1  318   1.295   0.460   1.326
  100SOL    HW2  319   1.185   0.403   1.219
  101SOL     OW  320   0.064   1.564   1.331
  101SOL    HW1  321   0.018   1.646   1.297
  101SOL    HW2  322   0.162   1.583   1.340
  102SOL     OW  323   0.367   1.100   0.501
  102SOL    HW1  324   0.360   1.183   0.445
  102SOL    HW2  325   0.371   1.020   0.441
  103SOL     OW  326   0.566   0.537   0.865
  103SOL    HW1  327   0.578   0.603   0.791
  103SOL    HW2  328   0.612   0.571   0.948
  104SOL     OW  329   1.252   1.348   0.388
  104SOL    HW1  330   1.302   1.425   0.428
  104SOL    HW2  331   1.157   1.350   0.420
  105SOL     OW  332   1.582   0.639   0.472
  105SOL    HW1  333   1.551   0.700   0.545
  105SOL    HW2  334   1.632   0.691   0.403
  106SOL     OW  335   0.354   1.510   1.329
  106SOL    HW1  336   0.333   1.466   1.242
  106SOL    HW2  337   0.451   1.536   1.332
  107SOL     OW  338   0.402   0.751   1.598
  107SOL    HW1  339   0.470   0.806   1.551
  107SOL    HW2  340   0.442   0.663   1.625
  108SOL     OW  341   1.587   0.779   1.670
  108SOL    HW1  342   1.495   0.817   1.665
  108SOL    HW2  343   1.647   0.826   1.605
  109SOL     OW  344   1.013   0.105   1.770
  109SOL    HW1  345   1.019   0.190   1.718
  109SOL    HW2  346   1.045   0.029   1.713
  110SOL     OW  347   0.504   0.050   1.740
  110SOL    HW1  348   0.462  -0.007   1.670
  110SOL    HW2  349   0.438   0.119   1.772
  111SOL     OW  350   0.573   0.870   1.029
  111SOL    HW1  351   0.617   0.959   1.020
  111SOL    HW2  352   0.510   0.870   1.106
  112SOL     OW  353   1.360   0.862   1.045
  112SOL    HW1  354   1.285   0.862   0.979
  112SOL    HW2  355   1.397   0.770   1.054
  113SOL     OW  356   1.209   0.525   0.275
  113SOL    HW1  357   1.222   0.441   0.329
  113SOL    HW2  358   1.180   0.599   0.335
  114SOL     OW  359   0.307   0.213   1.231
  114SOL    HW1  360   0.284   0.250   1.321
  114SOL    HW2  361   0.277   0.118   1.225
  115SOL     OW  362   0.037   1.310   1.282
  115SOL    HW1  363   0.090   1.261   1.350
  115SOL    HW2  364   0.059   1.408   1.287
  116SOL     OW  365   0.732   0.634   1.064
  116SOL    HW1  366   0.791   0.608   0.988
  116SOL    HW2  367   0.704   0.730   1.053
  117SOL     OW  368   1.728   0.935   1.854
  117SOL    HW1  369   1.682   0.928   1.765
  117SOL    HW2  370   1.666   0.979   1.920
  118SOL     OW  371   0.307   0.063   0.618
  118SOL    HW1  372   0.296   0.157   0.651
  118SOL    HW2  373   0.302   0.000   0.695
  119SOL     OW  374   1.622   0.367   0.374
  119SOL    HW1  375   1.624   0.291   0.438
  119SOL    HW2  376   1.574   0.444   0.414
  120SOL     OW  377   1.023   0.766   0.966
  120SOL    HW1  378   1.038   0.787   1.062
  120SOL    HW2  379   0.993   0.671   0.957
  121SOL     OW  380   0.350   0.898   1.804
  121SOL    HW1  381   0.426   0.942   1.852
  121SOL    HW2  382   0.385   0.851   1.722
  122SOL     OW  383   1.540   0.274   0.125
  122SOL    HW1  384   1.479   0.199   0.148
  122SOL    HW2  385   1.562   0.326   0.208
  123SOL     OW  386   1.303   0.838   0.042
  123SOL    HW1  387   1.337   0.745   0.057
  123SOL    HW2  388   1.321   0.865  -0.053
  124SOL     OW  389   1.068   1.333   0.849
  124SOL    HW1  390   1.075   1.249   0.794
  124SOL    HW2  391   1.130   1.402   0.813
  125SOL     OW  392   0.319   0.810   0.949
  125SOL    HW1  393   0.412   0.846   0.954
  125SOL    HW2  394   0.313   0.725   1.001
  126SOL     OW  395   0.339   0.509   1.006
  126SOL    HW1  396   0.287   0.426   0.989
  126SOL    HW2  397   0.416   0.514   0.942
  127SOL     OW  398   1.138   0.380   1.678
  127SOL    HW1  399   1.093   0.443   1.742
  127SOL    HW2  400   1.231   0.411   1.661
  128SOL     OW  401   1.160   0.207   1.477
  128SOL    HW1  402   1.160   0.271   1.554
  128SOL    HW2  403   1.188   0.255   1.394
  129SOL     OW  404   0.008   1.326   0.200
  129SOL    HW1  405  -0.085   1.347   0.169
  129SOL    HW2  406   0.018   1.227   0.213
  130SOL     OW  407   0.088   1.801   0.927
  130SOL    HW1  408   0.046   1.715   0.900
  130SOL    HW2  409   0.182   1.804   0.893
  131SOL     OW  410   0.504   1.568   0.910
  131SOL    HW1  411   0.570   1.642   0.919
  131SOL    HW2  412   0.548   1.489   0.868
  132SOL     OW  413   1.002   0.796   1.238
  132SOL    HW1  414   1.043   0.764   1.324
  132SOL    HW2  415   0.906   0.769   1.235
  133SOL     OW  416   0.040   0.544   1.114
  133SOL    HW1  417   0.125   0.511   1.073
  133SOL    HW2  418   0.053   0.559   1.212
  134SOL     OW  419   0.189   0.520   1.722
  134SOL    HW1  420   0.248   0.480   1.652
  134SOL    HW2  421   0.131   0.591   1.681
  135SOL     OW  422   1.369   0.950   1.660
  135SOL    HW1  423   1.408   1.039   1.680
  135SOL    HW2  424   1.379   0.930   1.563
  136SOL     OW  425   0.815   0.572   0.325
  136SOL    HW1  426   0.822   0.483   0.279
  136SOL    HW2  427   0.721   0.606   0.317
  137SOL     OW  428   1.657   0.604   1.206
  137SOL    HW1  429   1.619   0.535   1.268
  137SOL    HW2  430   1.739   0.568   1.162
  138SOL     OW  431   0.252   1.564   1.744
  138SOL    HW1  432   0.222   1.621   1.820
  138SOL    HW2  433   0.245   1.467   1.770
  139SOL     OW  434   0.671   0.464   1.269
  139SOL    HW1  435   0.637   0.375   1.239
  139SOL    HW2  436   0.697   0.518   1.189
  140SOL     OW  437   0.930   1.678   1.465
  140SOL    HW1  438   0.906   1.660   1.370
  140SOL    HW2  439   0.960   1.772   1.475
  141SOL     OW  440   0.473   0.500   0.191
  141SOL    HW1  441   0.534   0.580   0.195
  141SOL    HW2  442   0.378   0.531   0.198
  142SOL     OW  443   0.159   1.137   1.466
  142SOL    HW1  444   0.181   1.076   1.542
  142SOL    HW2  445   0.169   1.088   1.380
  143SOL     OW  446   1.347   1.059   1.234
  143SOL    HW1  447   1.371   0.996   1.160
  143SOL    HW2  448   1.257   1.099   1.216
  144SOL     OW  449   1.302   0.855   0.309
  144SOL    HW1  450   1.216   0.824   0.351
  144SOL    HW2  451   1.298   0.841   0.210
  145SOL     OW  452   1.759   1.747   1.154
  145SOL    HW1  453   1.820   1.777   1.081
  145SOL    HW2  454   1.721   1.658   1.132
  146SOL     OW  455   1.252   1.731   1.128
  146SOL    HW1  456   1.336   1.736   1.074
  146SOL    HW2  457   1.229   1.635   1.146
  147SOL     OW  458   0.083   1.258   1.022
  147SOL    HW1  459   0.078   1.257   1.122
  147SOL    HW2  460   0.000   1.217   0.984
  148SOL     OW  461   0.688   1.662   1.716
  148SOL    HW1  462   0.632   1.743   1.725
  148SOL    HW2  463   0.740   1.666   1.630
  149SOL     OW  464   0.903   0.086   0.133
  149SOL    HW1  465   0.954   0.087   0.047
  149SOL    HW2  466   0.959   0.044   0.204
  150SOL     OW  467   1.726   0.135   0.523
  150SOL    HW1  468   1.799   0.118   0.456
  150SOL    HW2  469   1.695   0.048   0.561
  151SOL     OW  470   1.388   1.573   0.477
  151SOL    HW1  471   1.455   1.585   0.403
  151SOL    HW2  472   1.348   1.662   0.500
  152SOL     OW  473   0.130   1.794   1.851
  152SOL    HW1  474   0.089   1.720   1.904
  152SOL    HW2  475   0.194   1.845   1.909
  153SOL     OW  476   1.280   0.927   0.672
  153SOL    HW1  477   1.340   0.846   0.674
  153SOL    HW2  478   1.320   0.996   0.612
  154SOL     OW  479   0.830   1.273   1.422
  154SOL    HW1  480   0.825   1.306   1.517
  154SOL    HW2  481   0.744   1.292   1.376
  155SOL     OW  482   0.672   1.616   0.154
  155SOL    HW1  483   0.681   1.626   0.055
  155SOL    HW2  484   0.632   1.527   0.175
  156SOL     OW  485   1.650   1.720   1.394
  156SOL    HW1  486   1.703   1.730   1.310
  156SOL    HW2  487   1.623   1.810   1.428
  157SOL     OW  488   1.841   0.175   0.963
  157SOL    HW1  489   1.880   0.090   0.927
  157SOL    HW2  490   1.743   0.177   0.944
  158SOL     OW  491   0.263   0.326   0.720
  158SOL    HW1  492   0.184   0.377   0.686
  158SOL    HW2  493   0.254   0.311   0.818
  159SOL     OW  494   1.194   1.612   0.031
  159SOL    HW1  495   1.200   1.519   0.068
  159SOL    HW2  496   1.135   1.612  -0.049
  160SOL     OW  497   0.822   1.002   1.372
  160SOL    HW1  498   0.862   1.001   1.280
  160SOL    HW2  499   0.832   1.094   1.412
  161SOL     OW  500   0.916   0.910   0.291
  161SOL    HW1  501   0.979   0.948   0.223
  161SOL    HW2  502   0.956   0.827   0.330
  162SOL     OW  503   1.504   1.607   0.044
  162SOL    HW1  504   1.412   1.644   0.051
  162SOL    HW2  505   1.542   1.627  -0.046
  163SOL     OW  506   0.372   1.288   1.490
  163SOL    HW1  507   0.359   1.381   1.456
  163SOL    HW2  508   0.288   1.236   1.477
  164SOL     OW  509   1.039   1.098   0.696
  164SOL    HW1  510   0.969   1.051   0.750
  164SOL    HW2  511   1.098   1.030   0.653
  165SOL     OW  512   1.014   0.236   0.971
  165SOL    HW1  513   1.006   0.200   0.878
  165SOL    HW2  514   1.012   0.160   1.036
  166SOL     OW  515   0.590   1.487   0.491
  166SOL    HW1  516   0.632   1.429   0.421
  166SOL    HW2  517   0.546   1.566   0.447
  167SOL     OW  518   1.709   0.385   1.381
  167SOL    HW1  519   1.782   0.454   1.385
  167SOL    HW2  520   1.737   0.310   1.322
  168SOL     OW  521   0.255   1.348   0.290
  168SOL    HW1  522   0.159   1.349   0.263
  168SOL    HW2  523   0.267   1.401   0.374
  169SOL     OW  524   0.105   1.013   1.726
  169SOL    HW1  525   0.028   0.980   1.780
  169SOL    HW2  526   0.190   0.983   1.768
  170SOL     OW  527   0.672   0.203   1.489
  170SOL    HW1  528   0.762   0.187   1.449
  170SOL    HW2  529   0.680   0.208   1.588
  171SOL     OW  530   0.075   0.345   0.033
  171SOL    HW1  531  -0.017   0.317   0.004
  171SOL    HW2  532   0.106   0.422  -0.023
  172SOL     OW  533   1.440   0.856   1.398
  172SOL    HW1  534   1.383   0.908   1.335
  172SOL    HW2  535   1.536   0.868   1.374
  173SOL     OW  536   0.072   0.166   0.318
  173SOL    HW1  537   0.055   0.249   0.264
  173SOL    HW2  538   0.162   0.129   0.296
  174SOL     OW  539   1.183   1.335   0.119
  174SOL    HW1  540   1.084   1.324   0.121
  174SOL    HW2  541   1.217   1.350   0.212
  175SOL     OW  542   0.613   0.842   1.431
  175SOL    HW1  543   0.669   0.923   1.414
  175SOL    HW2  544   0.672   0.762   1.434
  176SOL     OW  545   1.493   1.767   0.959
  176SOL    HW1  546   1.526   1.831   0.890
  176SOL    HW2  547   1.559   1.761   1.034
  177SOL     OW  548   0.716   0.565   1.708
  177SOL    HW1  549   0.735   0.630   1.782
  177SOL    HW2  550   0.776   0.485   1.717
  178SOL     OW  551   1.450   1.220   1.633
  178SOL    HW1  552   1.441   1.210   1.732
  178SOL    HW2  553   1.546   1.213   1.607
  179SOL     OW  554   0.390   1.741   1.560
  179SOL    HW1  555   0.299   1.782   1.558
  179SOL    HW2  556   0.383   1.647   1.592
  180SOL     OW  557   1.674   0.883   1.254
  180SOL    HW1  558   1.647   0.794   1.217
  180SOL    HW2  559   1.675   0.951   1.181
  181SOL     OW  560   1.225   0.325   0.449
  181SOL    HW1  561   1.290   0.251   0.438
  181SOL    HW2  562   1.245   0.375   0.533
  182SOL     OW  563   0.594   0.745   0.652
  182SOL    HW1  564   0.644   0.830   0.633
  182SOL    HW2  565   0.506   0.747   0.604
  183SOL     OW  566   1.777   0.342   1.642
  183SOL    HW1  567   1.760   0.373   1.548
  183SOL    HW2  568   1.693   0.305   1.680
  184SOL     OW  569   1.730   0.934   1.517
  184SOL    HW1  570   1.768   1.025   1.532
  184SOL    HW2  571   1.722   0.917   1.418
  185SOL     OW  572   0.859   1.374   0.016
  185SOL    HW1  573   0.813   1.389   0.104
  185SOL    HW2  574   0.903   1.459  -0.014
  186SOL     OW  575   0.661   1.790   0.953
  186SOL    HW1  576   0.615   1.878   0.940
  186SOL    HW2  577   0.760   1.802   0.946
  187SOL     OW  578   0.859   0.956   0.861
  187SOL    HW1  579   0.913   0.887   0.909
  187SOL    HW2  580   0.827   1.025   0.927
  188SOL     OW  581   1.083   0.984   0.087
  188SOL    HW1  582   1.060   1.037   0.005
  188SOL    HW2  583   1.164   0.928   0.068
  189SOL     OW  584   1.861   1.569   0.851
  189SOL    HW1  585   1.790   1.557   0.781
  189SOL    HW2  586   1.862   1.490   0.911
  190SOL     OW  587   0.221   1.314   1.844
  190SOL    HW1  588   0.156   1.241   1.823
  190SOL    HW2  589   0.225   1.328   1.942
  191SOL     OW  590   0.079   1.240   0.653
  191SOL    HW1  591   0.078   1.193   0.741
  191SOL    HW2  592   0.161   1.212   0.602
  192SOL     OW  593   0.672   1.391   1.624
  192SOL    HW1  594   0.594   1.341   1.662
  192SOL    HW2  595   0.669   1.486   1.655
  193SOL     OW  596   1.824   0.192   1.227
  193SOL    HW1  597   1.820   0.102   1.271
  193SOL    HW2  598   1.827   0.181   1.128
  194SOL     OW  599   0.428   0.424   0.520
  194SOL    HW1  600   0.458   0.352   0.458
  194SOL    HW2  601   0.389   0.384   0.603
  195SOL     OW  602   1.705   1.487   1.104
  195SOL    HW1  603   1.612   1.462   1.077
  195SOL    HW2  604   1.731   1.437   1.186
  196SOL     OW  605   0.317   0.547   1.280
  196SOL    HW1  606   0.355   0.488   1.352
  196SOL    HW2  607   0.357   0.521   1.192
  197SOL     OW  608   0.812   1.586   0.687
  197SOL    HW1  609   0.844   1.596   0.593
  197SOL    HW2  610   0.733   1.524   0.689
  198SOL     OW  611   1.424   0.214   1.112
  198SOL    HW1  612   1.476   0.149   1.167
  198SOL    HW2  613   1.375   0.277   1.173
  199SOL     OW  614   1.001   0.034   1.154
  199SOL    HW1  615   0.938  -0.038   1.123
  199SOL    HW2  616   1.094  -0.002   1.154
  200SOL     OW  617   0.770   1.330   0.301
  200SOL    HW1  618   0.724   1.243   0.318
  200SOL    HW2  619   0.861   1.327   0.342
  201SOL     OW  620   0.618   1.567   1.284
  201SOL    HW1  621   0.613   1.649   1.341
  201SOL    HW2  622   0.707   1.564   1.239
  202SOL     OW  623   1.352   0.052   0.168
  202SOL    HW1  624   1.387   0.011   0.084
  202SOL    HW2  625   1.262   0.014   0.188
  203SOL     OW  626   1.300   0.453   0.691
  203SOL    HW1  627   1.241   0.533   0.695
  203SOL    HW2  628   1.315   0.418   0.784
  204SOL     OW  629   1.593   0.221   0.882
  204SOL    HW1  630   1.509   0.220   0.936
  204SOL    HW2  631   1.595   0.304   0.826
  205SOL     OW  632   0.039   1.077   0.300
  205SOL    HW1  633   0.138   1.066   0.291
  205SOL    HW2  634  -0.001   0.991   0.332
  206SOL     OW  635   0.875   1.646   0.337
  206SOL    HW1  636   0.798   1.611   0.283
  206SOL    HW2  637   0.843   1.717   0.399
  207SOL     OW  638   0.230   0.628   1.975
  207SOL    HW1  639   0.137   0.626   2.012
  207SOL    HW2  640   0.231   0.589   1.883
  208SOL     OW  641   0.225   0.275   2.858
  208SOL    HW1  642   0.260   0.258   2.950
  208SOL    HW2  643   0.137   0.230   2.846
  209SOL     OW  644   0.019   0.368   2.509
  209SOL    HW1  645  -0.063   0.411   2.548
  209SOL    HW2  646  -0.009   0.295   2.446
  210SOL     OW  647   1.555   1.511   2.565
  210SOL    HW1  648   1.498   1.495   2.646
  210SOL    HW2  649   1.496   1.521   2.485
  211SOL     OW  650   1.135   0.703   2.579
  211SOL    HW1  651   1.192   0.781   2.554
  211SOL    HW2  652   1.075   0.729   2.655
  212SOL     OW  653   1.755   0.607   2.093
  212SOL    HW1  654   1.743   0.594   1.994
  212SOL    HW2  655   1.725   0.526   2.142
  213SOL     OW  656   0.768   1.144   2.885
  213SOL    HW1  657   0.690   1.161   2.945
  213SOL    HW2  658   0.802   1.231   2.849
  214SOL     OW  659   0.685   1.012   2.527
  214SOL    HW1  660   0.754   0.996   2.597
  214SOL    HW2  661   0.612   1.069   2.565
  215SOL     OW  662   0.335   1.435   2.923
  215SOL    HW1  663   0.257   1.404   2.870
  215SOL    HW2  664   0.393   1.493   2.866
  216SOL     OW  665   1.603   0.447   2.599
  216SOL    HW1  666   1.529   0.493   2.549
  216SOL    HW2  667   1.654   0.515   2.652
  217SOL     OW  668   0.231   1.713   2.345
  217SOL    HW1  669   0.265   1.790   2.399
  217SOL    HW2  670   0.275   1.713   2.255
  218SOL     OW  671   0.230   1.434   2.400
  218SOL    HW1  672   0.204   1.530   2.400
  218SOL    HW2  673   0.159   1.380   2.445
  219SOL     OW  674   0.240   1.091   2.748
  219SOL    HW1  675   0.254   1.007   2.800
  219SOL    HW2  676   0.185   1.155   2.803
  220SOL     OW  677   0.606   0.964   1.985
  220SOL    HW1  678   0.613   1.048   1.931
  220SOL    HW2  679   0.652   0.977   2.073
  221SOL     OW  680   0.122   0.643   2.425
  221SOL    HW1  681   0.077   0.555   2.442
  221SOL    HW2  682   0.121   0.697   2.509
  222SOL     OW  683   1.842   1.767   2.221
  222SOL    HW1  684   1.896   1.738   2.301
  222SOL    HW2  685   1.872   1.857   2.192
  223SOL     OW  686   0.027   1.596   1.979
  223SOL    HW1  687   0.008   1.500   2.000
  223SOL    HW2  688  -0.006   1.654   2.054
  224SOL     OW  689   1.689   0.922   2.474
  224SOL    HW1  690   1.784   0.893   2.482
  224SOL    HW2  691   1.681   0.987   2.399
  225SOL     OW  692   1.641   1.108   2.294
  225SOL    HW1  693   1.727   1.110   2.242
  225SOL    HW2  694   1.655   1.155   2.382
  226SOL     OW  695   0.613   1.365   2.588
  226SOL    HW1  696   0.564   1.278   2.597
  226SOL    HW2  697   0.590   1.408   2.501
  227SOL     OW  698   0.809   0.004   2.364
  227SOL    HW1  699   0.849   0.095   2.355
  227SOL    HW2  700   0.709   0.012   2.370
  228SOL     OW  701   1.525   0.999   2.052
  228SOL    HW1  702   1.462   0.923   2.065
  228SOL    HW2  703   1.573   1.017   2.138
  229SOL     OW  704   1.466   1.417   2.815
  229SOL    HW1  705   1.407   1.423   2.895
  229SOL    HW2  706   1.451   1.329   2.769
  230SOL     OW  707   1.667   1.714   2.434
  230SOL    HW1  708   1.626   1.691   2.346
  230SOL    HW2  709   1.649   1.640   2.499
  231SOL     OW  710   0.598   0.729   2.132
  231SOL    HW1  711   0.622   0.798   2.064
  231SOL    HW2  712   0.520   0.762   2.186
  232SOL     OW  713   1.281   0.345   2.806
  232SOL    HW1  714   1.195   0.295   2.793
  232SOL    HW2  715   1.343   0.291   2.862
  233SOL     OW  716   1.576   1.662   2.169
  233SOL    HW1  717   1.665   1.708   2.172
  233SOL    HW2  718   1.555   1.638   2.074
  234SOL     OW  719   1.041   0.701   2.291
  234SOL    HW1  720   1.067   0.697   2.387
  234SOL    HW2  721   0.956   0.650   2.277
  235SOL     OW  722   0.076   0.811   2.651
  235SOL    HW1  723   0.175   0.799   2.660
  235SOL    HW2  724   0.052   0.906   2.672
  236SOL     OW  725   0.865   0.348   2.057
  236SOL    HW1  726   0.924   0.411   2.008
  236SOL    HW2  727   0.884   0.254   2.028
  237SOL     OW  728   1.362   1.144   2.407
  237SOL    HW1  729   1.445   1.115   2.359
  237SOL    HW2  730   1.313   1.211   2.351
  238SOL     OW  731   0.550   0.196   2.747
  238SOL    HW1  732   0.545   0.191   2.847
  238SOL    HW2  733   0.552   0.292   2.718
  239SOL     OW  734   1.008   1.456   2.339
  239SOL    HW1  735   0.962   1.528   2.287
  239SOL    HW2  736   1.004   1.476   2.437
  240SOL     OW  737   0.351   1.801   2.715
  240SOL    HW1  738   0.401   1.715   2.721
  240SOL    HW2  739   0.416   1.878   2.712
  241SOL     OW  740   1.795   1.066   2.735
  241SOL    HW1  741   1.733   1.051   2.659
  241SOL    HW2  742   1.743   1.077   2.820
  242SOL     OW  743   0.321   0.943   2.104
  242SOL    HW1  744   0.403   0.982   2.062
  242SOL    HW2  745   0.294   0.861   2.055
  243SOL     OW  746   1.458   0.735   2.590
  243SOL    HW1  747   1.453   0.670   2.665
  243SOL    HW2  748   1.538   0.794   2.603
  244SOL     OW  749   1.111   1.776   2.099
  244SOL    HW1  750   1.051   1.714   2.149
  244SOL    HW2  751   1.142   1.732   2.014
  245SOL     OW  752   1.632   1.377   1.943
  245SOL    HW1  753   1.600   1.471   1.933
  245SOL    HW2  754   1.556   1.314   1.931
  246SOL     OW  755   0.464   1.743   2.185
  246SOL    HW1  756   0.497   1.782   2.271
  246SOL    HW2  757   0.540   1.736   2.120
  247SOL     OW  758   1.400   0.107   2.288
  247SOL    HW1  759   1.376   0.070   2.198
  247SOL    HW2  760   1.499   0.123   2.292
  248SOL     OW  761   0.249   1.785   3.103
  248SOL    HW1  762   0.306   1.720   3.153
  248SOL    HW2  763   0.233   1.752   3.010
  249SOL     OW  764   0.940   1.698   2.766
  249SOL    HW1  765   1.020   1.641   2.787
  249SOL    HW2  766   0.891   1.658   2.689
  250SOL     OW  767   0.382   0.700   2.342
  250SOL    HW1  768   0.427   0.610   2.339
  250SOL    HW2  769   0.288   0.689   2.375
  251SOL     OW  770   0.614   0.122   1.979
  251SOL    HW1  771   0.712   0.100   1.986
  251SOL    HW2  772   0.583   0.105   1.886
  252SOL     OW  773   0.803   1.402   2.786
  252SOL    HW1  774   0.893   1.416   2.744
  252SOL    HW2  775   0.732   1.404   2.715
  253SOL     OW  776   0.922   0.503   2.761
  253SOL    HW1  777   0.897   0.494   2.665
  253SOL    HW2  778   0.970   0.421   2.792
  254SOL     OW  779   0.539   0.064   2.374
  254SOL    HW1  780   0.458   0.065   2.432
  254SOL    HW2  781   0.542   0.147   2.319
  255SOL     OW  782   1.434   1.188   1.903
  255SOL    HW1  783   1.466   1.112   1.960
  255SOL    HW2  784   1.342   1.215   1.933
  256SOL     OW  785   0.297   0.035   2.033
  256SOL    HW1  786   0.346   0.119   2.012
  256SOL    HW2  787   0.359  -0.030   2.078
  257SOL     OW  788   0.935   0.236   2.342
  257SOL    HW1  789   0.887   0.277   2.264
  257SOL    HW2  790   1.034   0.234   2.323
  258SOL     OW  791   1.227   1.570   2.655
  258SOL    HW1  792   1.248   1.644   2.590
  258SOL    HW2  793   1.295   1.570   2.728
  259SOL     OW  794   0.459   1.152   2.603
  259SOL    HW1  795   0.388   1.125   2.668
  259SOL    HW2  796   0.433   1.124   2.510
  260SOL     OW  797   1.271   1.797   2.453
  260SOL    HW1  798   1.315   1.861   2.389
  260SOL    HW2  799   1.221   1.849   2.523
  261SOL     OW  800   1.032   0.549   1.878
  261SOL    HW1  801   0.991   0.631   1.839
  261SOL    HW2  802   1.096   0.575   1.951
  262SOL     OW  803   0.866   0.454   2.504
  262SOL    HW1  804   0.834   0.526   2.442
  262SOL    HW2  805   0.890   0.373   2.451
  263SOL     OW  806   1.017   0.039   2.615
  263SOL    HW1  807   0.945   0.044   2.546
  263SOL    HW2  808   0.993  -0.030   2.684
  264SOL     OW  809   1.429   1.173   2.729
  264SOL    HW1  810   1.374   1.089   2.722
  264SOL    HW2  811   1.455   1.202   2.637
  265SOL     OW  812   1.466   0.590   2.854
  265SOL    HW1  813   1.436   0.495   2.861
  265SOL    HW2  814   1.539   0.606   2.920
  266SOL     OW  815   1.857   0.833   2.239
  266SOL    HW1  816   1.899   0.769   2.303
  266SOL    HW2  817   1.819   0.782   2.161
  267SOL     OW  818   0.488   1.385   2.036
  267SOL    HW1  819   0.401   1.370   2.083
  267SOL    HW2  820   0.471   1.411   1.941
  268SOL     OW  821   1.664   1.280   2.519
  268SOL    HW1  822   1.763   1.288   2.533
  268SOL    HW2  823   1.619   1.364   2.550
  269SOL     OW  824   1.390   0.575   1.940
  269SOL    HW1  825   1.336   0.554   2.021
  269SOL    HW2  826   1.481   0.534   1.949
  270SOL     OW  827   0.527   0.256   2.190
  270SOL    HW1  828   0.554   0.197   2.115
  270SOL    HW2  829   0.527   0.351   2.159
  271SOL     OW  830   1.638   1.099   2.941
  271SOL    HW1  831   1.643   1.180   3.000
  271SOL    HW2  832   1.552   1.101   2.890
  272SOL     OW  833   0.705   1.050   2.230
  272SOL    HW1  834   0.691   1.057   2.329
  272SOL    HW2  835   0.789   0.999   2.212
  273SOL     OW  836   0.367   1.100   2.363
  273SOL    HW1  837   0.360   1.183   2.307
  273SOL    HW2  838   0.371   1.020   2.303
  274SOL     OW  839   0.566   0.537   2.727
  274SOL    HW1  840   0.578   0.603   2.653
  274SOL    HW2  841   0.612   0.571   2.810
  275SOL     OW  842   1.252   1.348   2.250
  275SOL    HW1  843   1.302   1.425   2.290
  275SOL    HW2  844   1.157   1.350   2.282
  276SOL     OW  845   1.582   0.639   2.334
  276SOL    HW1  846   1.551   0.700   2.407
  276SOL    HW2  847   1.632   0.691   2.265
  277SOL     OW  848   0.573   0.870   2.891
  277SOL    HW1  849   0.617   0.959   2.882
  277SOL    HW2  850   0.510   0.870   2.968
  278SOL     OW  851   1.209   0.525   2.137
  278SOL    HW1  852   1.222   0.441   2.191
  278SOL    HW2  853   1.180   0.599   2.197
  279SOL     OW  854   0.732   0.634   2.926
  279SOL    HW1  855   0.791   0.608   2.850
  279SOL    HW2  856   0.704   0.730   2.915
  280SOL     OW  857   0.307   0.063   2.480
  280SOL    HW1  858   0.296   0.157   2.513
  280SOL    HW2  859   0.302   0.000   2.557
  281SOL     OW  860   1.622   0.367   2.236
  281SOL    HW1  861   1.624   0.291   2.300
  281SOL    HW2  862   1.574   0.444   2.276
  282SOL     OW  863   1.540   0.274   1.987
  282SOL    HW1  864   1.479   0.199   2.010
  282SOL    HW2  865   1.562   0.326   2.070
  283SOL     OW  866   1.303   0.838   1.904
  283SOL    HW1  867   1.337   0.745   1.919
  283SOL    HW2  868   1.321   0.865   1.809
  284SOL     OW  869   1.068   1.333   2.711
  284SOL    HW1  870   1.075   1.249   2.656
  284SOL    HW2  871   1.130   1.402   2.675
  285SOL     OW  872   0.319   0.810   2.811
  285SOL    HW1  873   0.412   0.846   2.816
  285SOL    HW2  874   0.313   0.725   2.863
  286SOL     OW  875   0.339   0.509   2.868
  286SOL    HW1  876   0.287   0.426   2.851
  286SOL    HW2  877   0.416   0.514   2.804
  287SOL     OW  878   0.008   1.326   2.062
  287SOL    HW1  879  -0.085   1.347   2.031
  287SOL    HW2  880   0.018   1.227   2.075
  288SOL     OW  881   0.088   1.801   2.789
  288SOL    HW1  882   0.046   1.715   2.762
  288SOL    HW2  883   0.182   1.804   2.755
  289SOL     OW  884   0.504   1.568   2.772
  289SOL    HW1  885   0.570   1.642   2.781
  289SOL    HW2  886   0.548   1.489   2.730
  290SOL     OW  887   1.002   0.796   3.100
  290SOL    HW1  888   1.043   0.764   3.186
  290SOL    HW2  889   0.906   0.769   3.097
  291SOL     OW  890   0.815   0.572   2.187
  291SOL    HW1  891   0.822   0.483   2.141
  291SOL    HW2  892   0.721   0.606   2.179
  292SOL     OW  893   0.671   0.464   3.131
  292SOL    HW1  894   0.637   0.375   3.101
  292SOL    HW2  895   0.697   0.518   3.051
  293SOL     OW  896   0.473   0.500   2.053
  293SOL    HW1  897   0.534   0.580   2.057
  293SOL    HW2  898   0.378   0.531   2.060
  294SOL     OW  899   1.302   0.855   2.171
  294SOL    HW1  900   1.216   0.824   2.213
  294SOL    HW2  901   1.298   0.841   2.072
  295SOL     OW  902   1.759   1.747   3.016
  295SOL    HW1  903   1.820   1.777   2.943
  295SOL    HW2  904   1.721   1.658   2.994
  296SOL     OW  905   0.083   1.258   2.884
  296SOL    HW1  906   0.078   1.257   2.984
  296SOL    HW2  907   0.000   1.217   2.846
  297SOL     OW  908   1.726   0.135   2.385
  297SOL    HW1  909   1.799   0.118   2.318
  297SOL    HW2  910   1.695   0.048   2.423
  298SOL     OW  911   1.388   1.573   2.339
  298SOL    HW1  912   1.455   1.585   2.265
  298SOL    HW2  913   1.348   1.662   2.362
  299SOL     OW  914   1.280   0.927   2.534
  299SOL    HW1  915   1.340   0.846   2.536
  299SOL    HW2  916   1.320   0.996   2.474
  300SOL     OW  917   0.672   1.616   2.016
  300SOL    HW1  918   0.681   1.626   1.917
  300SOL    HW2  919   0.632   1.527   2.037
  301SOL     OW  920   1.841   0.175   2.825
  301SOL    HW1  921   1.880   0.090   2.789
  301SOL    HW2  922   1.743   0.177   2.806
  302SOL     OW  923   0.263   0.326   2.582
  302SOL    HW1  924   0.184   0.377   2.548
  302SOL    HW2  925   0.254   0.311   2.680
  303SOL     OW  926   0.916   0.910   2.153
  303SOL    HW1  927   0.979   0.948   2.085
  303SOL    HW2  928   0.956   0.827   2.192
  304SOL     OW  929   1.504   1.607   1.906
  304SOL    HW1  930   1.412   1.644   1.913
  304SOL    HW2  931   1.542   1.627   1.816
  305SOL     OW  932   1.039   1.098   2.558
  305SOL    HW1  933   0.969   1.051   2.612
  305SOL    HW2  934   1.098   1.030   2.515
  306SOL     OW  935   1.014   0.236   2.833
  306SOL    HW1  936   1.006   0.200   2.740
  306SOL    HW2  937   1.012   0.160   2.898
  307SOL     OW  938   0.590   1.487   2.353
  307SOL    HW1  939   0.632   1.429   2.283
  307SOL    HW2  940   0.546   1.566   2.309
  308SOL     OW  941   0.255   1.348   2.152
  308SOL    HW1  942   0.159   1.349   2.125
  308SOL    HW2  943   0.267   1.401   2.236
  309SOL     OW  944   0.075   0.345   1.895
  309SOL    HW1  945  -0.017   0.317   1.866
  309SOL    HW2  946   0.106   0.422   1.839
  310SOL     OW  947   0.072   0.166   2.180
  310SOL    HW1  948   0.055   0.249   2.126
  310SOL    HW2  949   0.162   0.129   2.158
  311SOL     OW  950   1.183   1.335   1.981
  311SOL    HW1  951   1.084   1.324   1.983
  311SOL    HW2  952   1.217   1.350   2.074
  312SOL     OW  953   1.674   0.883   3.116
  312SOL    HW1  954   1.647   0.794   3.079
  312SOL    HW2  955   1.675   0.951   3.043
  313SOL     OW  956   1.225   0.325   2.311
  313SOL    HW1  957   1.290   0.251   2.300
  313SOL    HW2  958   1.245   0.375   2.395
  314SOL     OW  959   0.594   0.745   2.514
  314SOL    HW1  960   0.644   0.830   2.495
  314SOL    HW2  961   0.506   0.747   2.466
  315SOL     OW  962   0.859   1.374   1.878
  315SOL    HW1  963   0.813   1.389   1.966
  315SOL    HW2  964   0.903   1.459   1.848
  316SOL     OW  965   0.661   1.790   2.815
  316SOL    HW1  966   0.615   1.878   2.802
  316SOL    HW2  967   0.760   1.802   2.808
  317SOL     OW  968   0.859   0.956   2.723
  317SOL    HW1  969   0.913   0.887   2.771
  317SOL    HW2  970   0.827   1.025   2.789
  318SOL     OW  971   1.083   0.984   1.949
  318SOL    HW1  972   1.060   1.037   1.867
  318SOL    HW2  973   1.164   0.928   1.930
  319SOL     OW  974   1.861   1.569   2.713
  319SOL    HW1  975   1.790   1.557   2.643
  319SOL    HW2  976   1.862   1.490   2.773
  320SOL     OW  977   0.079   1.240   2.515
  320SOL    HW1  978   0.078   1.193   2.603
  320SOL    HW2  979   0.161   1.212   2.464
  321SOL     OW  980   1.824   0.192   3.089
  321SOL    HW1  981   1.820   0.102   3.133
  321SOL    HW2  982   1.827   0.181   2.990
  322SOL     OW  983   0.428   0.424   2.382
  322SOL    HW1  984   0.458   0.352   2.320
  322SOL    HW2  985   0.389   0.384   2.465
  323SOL     OW  986   0.812   1.586   2.549
  323SOL    HW1  987   0.844   1.596   2.455
  323SOL    HW2  988   0.733   1.524   2.551
  324SOL     OW  989   0.770   1.330   2.163
  324SOL    HW1  990   0.724   1.243   2.180
  324SOL    HW2  991   0.861   1.327   2.204
  325SOL     OW  992   1.352   0.052   2.030
  325SOL    HW1  993   1.387   0.011   1.946
  325SOL    HW2  994   1.262   0.014   2.050
  326SOL     OW  995   1.300   0.453   2.553
  326SOL    HW1  996   1.241   0.533   2.557
  326SOL    HW2  997   1.315   0.418   2.646
  327SOL     OW  998   1.593   0.221   2.744
  327SOL    HW1  999   1.509   0.220   2.798
  327SOL    HW2 1000   1.595   0.304   2.688
  328SOL     OW 1001   0.039   1.077   2.162
  328SOL    HW1 1002   0.138   1.066   2.153
  328SOL    HW2 1003  -0.001   0.991   2.194
  329SOL     OW 1004   0.875   1.646   2.199
  329SOL    HW1 1005   0.798   1.611   2.145
  329SOL    HW2 1006   0.843   1.717   2.261
  330SOL     OW 1007   0.230   2.490   0.113
  330SOL    HW1 1008   0.137   2.488   0.150
  330SOL    HW2 1009   0.231   2.451   0.021
  331SOL     OW 1010   0.225   2.137   0.996
  331SOL    HW1 1011   0.260   2.120   1.088
  331SOL    HW2 1012   0.137   2.092   0.984
  332SOL     OW 1013   0.019   2.230   0.647
  332SOL    HW1 1014  -0.063   2.273   0.686
  332SOL    HW2 1015  -0.009   2.157   0.584
  333SOL     OW 1016   1.135   2.565   0.717
  333SOL    HW1 1017   1.192   2.643   0.692
  333SOL    HW2 1018   1.075   2.591   0.793
  334SOL     OW 1019   1.755   2.469   0.231
  334SOL    HW1 1020   1.743   2.456   0.132
  334SOL    HW2 1021   1.725   2.388   0.280
  335SOL     OW 1022   0.768   3.006   1.023
  335SOL    HW1 1023   0.690   3.023   1.083
  335SOL    HW2 1024   0.802   3.093   0.987
  336SOL     OW 1025   0.850   2.660   1.823
  336SOL    HW1 1026   0.846   2.736   1.888
  336SOL    HW2 1027   0.872   2.696   1.732
  337SOL     OW 1028   0.685   2.874   0.665
  337SOL    HW1 1029   0.754   2.858   0.735
  337SOL    HW2 1030   0.612   2.931   0.703
  338SOL     OW 1031   0.438   2.254   1.499
  338SOL    HW1 1032   0.520   2.198   1.508
  338SOL    HW2 1033   0.357   2.196   1.503
  339SOL     OW 1034   1.603   2.309   0.737
  339SOL    HW1 1035   1.529   2.355   0.687
  339SOL    HW2 1036   1.654   2.377   0.790
  340SOL     OW 1037   0.240   2.953   0.886
  340SOL    HW1 1038   0.254   2.869   0.938
  340SOL    HW2 1039   0.185   3.017   0.941
  341SOL     OW 1040   0.606   2.826   0.123
  341SOL    HW1 1041   0.613   2.910   0.069
  341SOL    HW2 1042   0.652   2.839   0.211
  342SOL     OW 1043   1.594   1.976   1.480
  342SOL    HW1 1044   1.576   2.043   1.408
  342SOL    HW2 1045   1.591   2.022   1.569
  343SOL     OW 1046   0.122   2.505   0.563
  343SOL    HW1 1047   0.077   2.417   0.580
  343SOL    HW2 1048   0.121   2.559   0.647
  344SOL     OW 1049   1.689   2.784   0.612
  344SOL    HW1 1050   1.784   2.755   0.620
  344SOL    HW2 1051   1.681   2.849   0.537
  345SOL     OW 1052   0.113   2.599   1.597
  345SOL    HW1 1053   0.201   2.586   1.642
  345SOL    HW2 1054   0.100   2.696   1.575
  346SOL     OW 1055   0.809   1.866   0.502
  346SOL    HW1 1056   0.849   1.957   0.493
  346SOL    HW2 1057   0.709   1.874   0.508
  347SOL     OW 1058   0.197   2.838   1.264
  347SOL    HW1 1059   0.286   2.793   1.250
  347SOL    HW2 1060   0.124   2.773   1.245
  348SOL     OW 1061   1.525   2.861   0.190
  348SOL    HW1 1062   1.462   2.785   0.203
  348SOL    HW2 1063   1.573   2.879   0.276
  349SOL     OW 1064   0.317   2.113   1.801
  349SOL    HW1 1065   0.388   2.184   1.807
  349SOL    HW2 1066   0.229   2.152   1.829
  350SOL     OW 1067   0.598   2.591   0.270
  350SOL    HW1 1068   0.622   2.660   0.202
  350SOL    HW2 1069   0.520   2.624   0.324
  351SOL     OW 1070   1.281   2.207   0.944
  351SOL    HW1 1071   1.195   2.157   0.931
  351SOL    HW2 1072   1.343   2.153   1.000
  352SOL     OW 1073   0.807   2.467   1.465
  352SOL    HW1 1074   0.760   2.464   1.554
  352SOL    HW2 1075   0.756   2.412   1.399
  353SOL     OW 1076   1.394   2.331   1.674
  353SOL    HW1 1077   1.374   2.374   1.762
  353SOL    HW2 1078   1.472   2.269   1.683
  354SOL     OW 1079   0.973   2.752   1.572
  354SOL    HW1 1080   1.019   2.668   1.543
  354SOL    HW2 1081   0.917   2.786   1.497
  355SOL     OW 1082   0.991   2.272   1.242
  355SOL    HW1 1083   0.914   2.306   1.296
  355SOL    HW2 1084   0.957   2.221   1.163
  356SOL     OW 1085   1.041   2.563   0.429
  356SOL    HW1 1086   1.067   2.559   0.525
  356SOL    HW2 1087   0.956   2.512   0.415
  357SOL     OW 1088   0.076   2.673   0.789
  357SOL    HW1 1089   0.175   2.661   0.798
  357SOL    HW2 1090   0.052   2.768   0.810
  358SOL     OW 1091   0.865   2.210   0.195
  358SOL    HW1 1092   0.924   2.273   0.146
  358SOL    HW2 1093   0.884   2.116   0.166
  359SOL     OW 1094   1.719   2.447   1.831
  359SOL    HW1 1095   1.693   2.536   1.795
  359SOL    HW2 1096   1.717   2.379   1.758
  360SOL     OW 1097   0.550   2.058   0.885
  360SOL    HW1 1098   0.545   2.053   0.985
  360SOL    HW2 1099   0.552   2.154   0.856
  361SOL     OW 1100   1.458   2.597   0.728
  361SOL    HW1 1101   1.453   2.532   0.803
  361SOL    HW2 1102   1.538   2.656   0.741
  362SOL     OW 1103   0.202   2.147   1.498
  362SOL    HW1 1104   0.122   2.207   1.485
  362SOL    HW2 1105   0.192   2.098   1.584
  363SOL     OW 1106   1.400   1.969   0.426
  363SOL    HW1 1107   1.376   1.932   0.336
  363SOL    HW2 1108   1.499   1.985   0.430
  364SOL     OW 1109   0.382   2.562   0.480
  364SOL    HW1 1110   0.427   2.472   0.477
  364SOL    HW2 1111   0.288   2.551   0.513
  365SOL     OW 1112   1.547   2.084   1.729
  365SOL    HW1 1113   1.542   2.121   1.821
  365SOL    HW2 1114   1.475   2.015   1.717
  366SOL     OW 1115   0.614   1.984   0.117
  366SOL    HW1 1116   0.712   1.962   0.124
  366SOL    HW2 1117   0.583   1.967   0.024
  367SOL     OW 1118   0.781   2.126   1.749
  367SOL    HW1 1119   0.848   2.065   1.792
  367SOL    HW2 1120   0.708   2.145   1.814
  368SOL     OW 1121   1.351   2.452   1.433
  368SOL    HW1 1122   1.379   2.409   1.518
  368SOL    HW2 1123   1.376   2.548   1.434
  369SOL     OW 1124   0.922   2.365   0.899
  369SOL    HW1 1125   0.897   2.356   0.803
  369SOL    HW2 1126   0.970   2.283   0.930
  370SOL     OW 1127   0.539   1.926   0.512
  370SOL    HW1 1128   0.458   1.927   0.570
  370SOL    HW2 1129   0.542   2.009   0.457
  371SOL     OW 1130   0.935   2.098   0.480
  371SOL    HW1 1131   0.887   2.139   0.402
  371SOL    HW2 1132   1.034   2.096   0.461
  372SOL     OW 1133   1.076   2.545   1.464
  372SOL    HW1 1134   0.996   2.484   1.467
  372SOL    HW2 1135   1.157   2.492   1.440
  373SOL     OW 1136   1.032   2.411   0.016
  373SOL    HW1 1137   0.991   2.493  -0.023
  373SOL    HW2 1138   1.096   2.437   0.089
  374SOL     OW 1139   0.078   2.418   1.386
  374SOL    HW1 1140   0.170   2.417   1.345
  374SOL    HW2 1141   0.072   2.492   1.453
  375SOL     OW 1142   0.561   2.084   1.147
  375SOL    HW1 1143   0.599   2.000   1.184
  375SOL    HW2 1144   0.473   2.103   1.191
  376SOL     OW 1145   0.866   2.316   0.642
  376SOL    HW1 1146   0.834   2.388   0.580
  376SOL    HW2 1147   0.890   2.235   0.589
  377SOL     OW 1148   1.017   1.901   0.753
  377SOL    HW1 1149   0.945   1.906   0.684
  377SOL    HW2 1150   0.993   1.832   0.822
  378SOL     OW 1151   1.429   3.035   0.867
  378SOL    HW1 1152   1.374   2.951   0.860
  378SOL    HW2 1153   1.455   3.064   0.775
  379SOL     OW 1154   1.466   2.452   0.992
  379SOL    HW1 1155   1.436   2.357   0.999
  379SOL    HW2 1156   1.539   2.468   1.058
  380SOL     OW 1157   1.857   2.695   0.377
  380SOL    HW1 1158   1.899   2.631   0.441
  380SOL    HW2 1159   1.819   2.644   0.299
  381SOL     OW 1160   1.390   2.437   0.078
  381SOL    HW1 1161   1.336   2.416   0.159
  381SOL    HW2 1162   1.481   2.396   0.087
  382SOL     OW 1163   0.527   2.118   0.328
  382SOL    HW1 1164   0.554   2.059   0.253
  382SOL    HW2 1165   0.527   2.213   0.297
  383SOL     OW 1166   1.638   2.961   1.079
  383SOL    HW1 1167   1.643   3.042   1.138
  383SOL    HW2 1168   1.552   2.963   1.028
  384SOL     OW 1169   0.915   1.951   1.402
  384SOL    HW1 1170   0.940   1.931   1.307
  384SOL    HW2 1171   0.987   2.007   1.444
  385SOL     OW 1172   0.410   2.675   1.251
  385SOL    HW1 1173   0.496   2.687   1.301
  385SOL    HW2 1174   0.368   2.588   1.278
  386SOL     OW 1175   1.274   2.248   1.262
  386SOL    HW1 1176   1.295   2.322   1.326
  386SOL    HW2 1177   1.185   2.265   1.219
  387SOL     OW 1178   0.566   2.399   0.865
  387SOL    HW1 1179   0.578   2.465   0.791
  387SOL    HW2 1180   0.612   2.433   0.948
  388SOL     OW 1181   1.582   2.501   0.472
  388SOL    HW1 1182   1.551   2.562   0.545
  388SOL    HW2 1183   1.632   2.553   0.403
  389SOL     OW 1184   0.402   2.613   1.598
  389SOL    HW1 1185   0.470   2.668   1.551
  389SOL    HW2 1186   0.442   2.525   1.625
  390SOL     OW 1187   1.587   2.641   1.670
  390SOL    HW1 1188   1.495   2.679   1.665
  390SOL    HW2 1189   1.647   2.688   1.605
  391SOL     OW 1190   1.013   1.967   1.770
  391SOL    HW1 1191   1.019   2.052   1.718
  391SOL    HW2 1192   1.045   1.891   1.713
  392SOL     OW 1193   0.504   1.912   1.740
  392SOL    HW1 1194   0.462   1.855   1.670
  392SOL    HW2 1195   0.438   1.981   1.772
  393SOL     OW 1196   0.573   2.732   1.029
  393SOL    HW1 1197   0.617   2.821   1.020
  393SOL    HW2 1198   0.510   2.732   1.106
  394SOL     OW 1199   1.360   2.724   1.045
  394SOL    HW1 1200   1.285   2.724   0.979
  394SOL    HW2 1201   1.397   2.632   1.054
  395SOL     OW 1202   1.209   2.387   0.275
  395SOL    HW1 1203   1.222   2.303   0.329
  395SOL    HW2 1204   1.180   2.461   0.335
  396SOL     OW 1205   0.307   2.075   1.231
  396SOL    HW1 1206   0.284   2.112   1.321
  396SOL    HW2 1207   0.277   1.980   1.225
  397SOL     OW 1208   0.037   3.172   1.282
  397SOL    HW1 1209   0.090   3.123   1.350
  397SOL    HW2 1210   0.059   3.270   1.287
  398SOL     OW 1211   0.732   2.496   1.064
  398SOL    HW1 1212   0.791   2.470   0.988
  398SOL    HW2 1213   0.704   2.592   1.053
  399SOL     OW 1214   1.728   2.797   1.854
  399SOL    HW1 1215   1.682   2.790   1.765
  399SOL    HW2 1216   1.666   2.841   1.920
  400SOL     OW 1217   0.307   1.925   0.618
  400SOL    HW1 1218   0.296   2.019   0.651
  400SOL    HW2 1219   0.302   1.862   0.695
  401SOL     OW 1220   1.622   2.229   0.374
  401SOL    HW1 1221   1.624   2.153   0.438
  401SOL    HW2 1222   1.574   2.306   0.414
  402SOL     OW 1223   1.023   2.628   0.966
  402SOL    HW1 1224   1.038   2.649   1.062
  402SOL    HW2 1225   0.993   2.533   0.957
  403SOL     OW 1226   0.350   2.760   1.804
  403SOL    HW1 1227   0.426   2.804   1.852
  403SOL    HW2 1228   0.385   2.713   1.722
  404SOL     OW 1229   1.540   2.136   0.125
  404SOL    HW1 1230   1.479   2.061   0.148
  404SOL    HW2 1231   1.562   2.188   0.208
  405SOL     OW 1232   1.303   2.700   0.042
  405SOL    HW1 1233   1.337   2.607   0.057
  405SOL    HW2 1234   1.321   2.727  -0.053
  406SOL     OW 1235   0.319   2.672   0.949
  406SOL    HW1 1236   0.412   2.708   0.954
  406SOL    HW2 1237   0.313   2.587   1.001
  407SOL     OW 1238   0.339   2.371   1.006
  407SOL    HW1 1239   0.287   2.288   0.989
  407SOL    HW2 1240   0.416   2.376   0.942
  408SOL     OW 1241   1.138   2.242   1.678
  408SOL    HW1 1242   1.093   2.305   1.742
  408SOL    HW2 1243   1.231   2.273   1.661
  409SOL     OW 1244   1.160   2.069   1.477
  409SOL    HW1 1245   1.160   2.133   1.554
  409SOL    HW2 1246   1.188   2.117   1.394
  410SOL     OW 1247   1.002   2.658   1.238
  410SOL    HW1 1248   1.043   2.626   1.324
  410SOL    HW2 1249   0.906   2.631   1.235
  411SOL     OW 1250   0.040   2.406   1.114
  411SOL    HW1 1251   0.125   2.373   1.073
  411SOL    HW2 1252   0.053   2.421   1.212
  412SOL     OW 1253   0.189   2.382   1.722
  412SOL    HW1 1254   0.248   2.342   1.652
  412SOL    HW2 1255   0.131   2.453   1.681
  413SOL     OW 1256   1.369   2.812   1.660
  413SOL    HW1 1257   1.408   2.901   1.680
  413SOL    HW2 1258   1.379   2.792   1.563
  414SOL     OW 1259   0.815   2.434   0.325
  414SOL    HW1 1260   0.822   2.345   0.279
  414SOL    HW2 1261   0.721   2.468   0.317
  415SOL     OW 1262   1.657   2.466   1.206
  415SOL    HW1 1263   1.619   2.397   1.268
  415SOL    HW2 1264   1.739   2.430   1.162
  416SOL     OW 1265   0.671   2.326   1.269
  416SOL    HW1 1266   0.637   2.237   1.239
  416SOL    HW2 1267   0.697   2.380   1.189
  417SOL     OW 1268   0.473   2.362   0.191
  417SOL    HW1 1269   0.534   2.442   0.195
  417SOL    HW2 1270   0.378   2.393   0.198
  418SOL     OW 1271   0.159   2.999   1.466
  418SOL    HW1 1272   0.181   2.938   1.542
  418SOL    HW2 1273   0.169   2.950   1.380
  419SOL     OW 1274   1.347   2.921   1.234
  419SOL    HW1 1275   1.371   2.858   1.160
  419SOL    HW2 1276   1.257   2.961   1.216
  420SOL     OW 1277   1.302   2.717   0.309
  420SOL    HW1 1278   1.216   2.686   0.351
  420SOL    HW2 1279   1.298   2.703   0.210
  421SOL     OW 1280   0.903   1.948   0.133
  421SOL    HW1 1281   0.954   1.949   0.047
  421SOL    HW2 1282   0.959   1.906   0.204
  422SOL     OW 1283   1.726   1.997   0.523
  422SOL    HW1 1284   1.799   1.980   0.456
  422SOL    HW2 1285   1.695   1.910   0.561
  423SOL     OW 1286   1.280   2.789   0.672
  423SOL    HW1 1287   1.340   2.708   0.674
  423SOL    HW2 1288   1.320   2.858   0.612
  424SOL     OW 1289   1.841   2.037   0.963
  424SOL    HW1 1290   1.880   1.952   0.927
  424SOL    HW2 1291   1.743   2.039   0.944
  425SOL     OW 1292   0.263   2.188   0.720
  425SOL    HW1 1293   0.184   2.239   0.686
  425SOL    HW2 1294   0.254   2.173   0.818
  426SOL     OW 1295   0.916   2.772   0.291
  426SOL    HW1 1296   0.979   2.810   0.223
  426SOL    HW2 1297   0.956   2.689   0.330
  427SOL     OW 1298   1.014   2.098   0.971
  427SOL    HW1 1299   1.006   2.062   0.878
  427SOL    HW2 1300   1.012   2.022   1.036
  428SOL     OW 1301   1.709   2.247   1.381
  428SOL    HW1 1302   1.782   2.316   1.385
  428SOL    HW2 1303   1.737   2.172   1.322
  429SOL     OW 1304   0.105   2.875   1.726
  429SOL    HW1 1305   0.028   2.842   1.780
  429SOL    HW2 1306   0.190   2.845   1.768
  430SOL     OW 1307   0.672   2.065   1.489
  430SOL    HW1 1308   0.762   2.049   1.449
  430SOL    HW2 1309   0.680   2.070   1.588
  431SOL     OW 1310   0.075   2.207   0.033
  431SOL    HW1 1311  -0.017   2.179   0.004
  431SOL    HW2 1312   0.106   2.284  -0.023
  432SOL     OW 1313   1.440   2.718   1.398
  432SOL    HW1 1314   1.383   2.770   1.335
  432SOL    HW2 1315   1.536   2.730   1.374
  433SOL     OW 1316   0.072   2.028   0.318
  433SOL    HW1 1317   0.055   2.111   0.264
  433SOL    HW2 1318   0.162   1.991   0.296
  434SOL     OW 1319   1.183   3.197   0.119
  434SOL    HW1 1320   1.084   3.186   0.121
  434SOL    HW2 1321   1.217   3.212   0.212
  435SOL     OW 1322   0.613   2.704   1.431
  435SOL    HW1 1323   0.669   2.785   1.414
  435SOL    HW2 1324   0.672   2.624   1.434
  436SOL     OW 1325   0.716   2.427   1.708
  436SOL    HW1 1326   0.735   2.492   1.782
  436SOL    HW2 1327   0.776   2.347   1.717
  437SOL     OW 1328   1.674   2.745   1.254
  437SOL    HW1 1329   1.647   2.656   1.217
  437SOL    HW2 1330   1.675   2.813   1.181
  438SOL     OW 1331   1.225   2.187   0.449
  438SOL    HW1 1332   1.290   2.113   0.438
  438SOL    HW2 1333   1.245   2.237   0.533
  439SOL     OW 1334   0.594   2.607   0.652
  439SOL    HW1 1335   0.644   2.692   0.633
  439SOL    HW2 1336   0.506   2.609   0.604
  440SOL     OW 1337   1.777   2.204   1.642
  440SOL    HW1 1338   1.760   2.235   1.548
  440SOL    HW2 1339   1.693   2.167   1.680
  441SOL     OW 1340   1.730   2.796   1.517
  441SOL    HW1 1341   1.768   2.887   1.532
  441SOL    HW2 1342   1.722   2.779   1.418
  442SOL     OW 1343   0.859   2.818   0.861
  442SOL    HW1 1344   0.913   2.749   0.909
  442SOL    HW2 1345   0.827   2.887   0.927
  443SOL     OW 1346   1.083   2.846   0.087
  443SOL    HW1 1347   1.060   2.899   0.005
  443SOL    HW2 1348   1.164   2.790   0.068
  444SOL     OW 1349   0.079   3.102   0.653
  444SOL    HW1 1350   0.078   3.055   0.741
  444SOL    HW2 1351   0.161   3.074   0.602
  445SOL     OW 1352   1.824   2.054   1.227
  445SOL    HW1 1353   1.820   1.964   1.271
  445SOL    HW2 1354   1.827   2.043   1.128
  446SOL     OW 1355   0.428   2.286   0.520
  446SOL    HW1 1356   0.458   2.214   0.458
  446SOL    HW2 1357   0.389   2.246   0.603
  447SOL     OW 1358   0.317   2.409   1.280
  447SOL    HW1 1359   0.355   2.350   1.352
  447SOL    HW2 1360   0.357   2.383   1.192
  448SOL     OW 1361   1.424   2.076   1.112
  448SOL    HW1 1362   1.476   2.011   1.167
  448SOL    HW2 1363   1.375   2.139   1.173
  449SOL     OW 1364   1.001   1.896   1.154
  449SOL    HW1 1365   0.938   1.824   1.123
  449SOL    HW2 1366   1.094   1.860   1.154
  450SOL     OW 1367   1.352   1.914   0.168
  450SOL    HW1 1368   1.387   1.873   0.084
  450SOL    HW2 1369   1.262   1.876   0.188
  451SOL     OW 1370   1.300   2.315   0.691
  451SOL    HW1 1371   1.241   2.395   0.695
  451SOL    HW2 1372   1.315   2.280   0.784
  452SOL     OW 1373   1.593   2.083   0.882
  452SOL    HW1 1374   1.509   2.082   0.936
  452SOL    HW2 1375   1.595   2.166   0.826
  453SOL     OW 1376   0.039   2.939   0.300
  453SOL    HW1 1377   0.138   2.928   0.291
  453SOL    HW2 1378  -0.001   2.853   0.332
  454SOL     OW 1379   0.230   2.490   1.975
  454SOL    HW1 1380   0.137   2.488   2.012
  454SOL    HW2 1381   0.231   2.451   1.883
  455SOL     OW 1382   0.225   2.137   2.858
  455SOL    HW1 1383   0.260   2.120   2.950
  455SOL    HW2 1384   0.137   2.092   2.846
  456SOL     OW 1385   0.019   2.230   2.509
  456SOL    HW1 1386  -0.063   2.273   2.548
  456SOL    HW2 1387  -0.009   2.157   2.446
  457SOL     OW 1388   1.135   2.565   2.579
  457SOL    HW1 1389   1.192   2.643   2.554
  457SOL    HW2 1390   1.075   2.591   2.655
  458SOL     OW 1391   1.755   2.469   2.093
  458SOL    HW1 1392   1.743   2.456   1.994
  458SOL    HW2 1393   1.725   2.388   2.142
  459SOL     OW 1394   0.685   2.874   2.527
  459SOL    HW1 1395   0.754   2.858   2.597
  459SOL    HW2 1396   0.612   2.931   2.565
  460SOL     OW 1397   1.603   2.309   2.599
  460SOL    HW1 1398   1.529   2.355   2.549
  460SOL    HW2 1399   1.654   2.377   2.652
  461SOL     OW 1400   0.240   2.953   2.748
  461SOL    HW1 1401   0.254   2.869   2.800
  461SOL    HW2 1402   0.185   3.017   2.803
  462SOL     OW 1403   0.606   2.826   1.985
  462SOL    HW1 1404   0.613   2.910   1.931
  462SOL    HW2 1405   0.652   2.839   2.073
  463SOL     OW 1406   0.122   2.505   2.425
  463SOL    HW1 1407   0.077   2.417   2.442
  463SOL    HW2 1408   0.121   2.559   2.509
  464SOL     OW 1409   1.689   2.784   2.474
  464SOL    HW1 1410   1.784   2.755   2.482
  464SOL    HW2 1411   1.681   2.849   2.399
  465SOL     OW 1412   0.809   1.866   2.364
  465SOL    HW1 1413   0.849   1.957   2.355
  465SOL    HW2 1414   0.709   1.874   2.370
  466SOL     OW 1415   0.197   2.838   3.126
  466SOL    HW1 1416   0.286   2.793   3.112
  466SOL    HW2 1417   0.124   2.773   3.107
  467SOL     OW 1418   1.525   2.861   2.052
  467SOL    HW1 1419   1.462   2.785   2.065
  467SOL    HW2 1420   1.573   2.879   2.138
  468SOL     OW 1421   0.598   2.591   2.132
  468SOL    HW1 1422   0.622   2.660   2.064
  468SOL    HW2 1423   0.520   2.624   2.186
  469SOL     OW 1424   1.281   2.207   2.806
  469SOL    HW1 1425   1.195   2.157   2.793
  469SOL    HW2 1426   1.343   2.153   2.862
  470SOL     OW 1427   1.041   2.563   2.291
  470SOL    HW1 1428   1.067   2.559   2.387
  470SOL    HW2 1429   0.956   2.512   2.277
  471SOL     OW 1430   0.076   2.673   2.651
  471SOL    HW1 1431   0.175   2.661   2.660
  471SOL    HW2 1432   0.052   2.768   2.672
  472SOL     OW 1433   0.865   2.210   2.057
  472SOL    HW1 1434   0.924   2.273   2.008
  472SOL    HW2 1435   0.884   2.116   2.028
  473SOL     OW 1436   0.550   2.058   2.747
  473SOL    HW1 1437   0.545   2.053   2.847
  473SOL    HW2 1438   0.552   2.154   2.718
  474SOL     OW 1439   1.458   2.597   2.590
  474SOL    HW1 1440   1.453   2.532   2.665
  474SOL    HW2 1441   1.538   2.656   2.603
  475SOL     OW 1442   1.400   1.969   2.288
  475SOL    HW1 1443   1.376   1.932   2.198
  475SOL    HW2 1444   1.499   1.985   2.292
  476SOL     OW 1445   0.382   2.562   2.342
  476SOL    HW1 1446   0.427   2.472   2.339
  476SOL    HW2 1447   0.288   2.551   2.375
  477SOL     OW 1448   0.614   1.984   1.979
  477SOL    HW1 1449   0.712   1.962   1.986
  477SOL    HW2 1450   0.583   1.967   1.886
  478SOL     OW 1451   0.922   2.365   2.761
  478SOL    HW1 1452   0.897   2.356   2.665
  478SOL    HW2 1453   0.970   2.283   2.792
  479SOL     OW 1454   0.539   1.926   2.374
  479SOL    HW1 1455   0.458   1.927   2.432
  479SOL    HW2 1456   0.542   2.009   2.319
  480SOL     OW 1457   0.297   1.897   2.033
  480SOL    HW1 1458   0.346   1.981   2.012
  480SOL    HW2 1459   0.359   1.832   2.078
  481SOL     OW 1460   0.935   2.098   2.342
  481SOL    HW1 1461   0.887   2.139   2.264
  481SOL    HW2 1462   1.034   2.096   2.323
  482SOL     OW 1463   1.032   2.411   1.878
  482SOL    HW1 1464   0.991   2.493   1.839
  482SOL    HW2 1465   1.096   2.437   1.951
  483SOL     OW 1466   0.866   2.316   2.504
  483SOL    HW1 1467   0.834   2.388   2.442
  483SOL    HW2 1468   0.890   2.235   2.451
  484SOL     OW 1469   1.017   1.901   2.615
  484SOL    HW1 1470   0.945   1.906   2.546
  484SOL    HW2 1471   0.993   1.832   2.684
  485SOL     OW 1472   1.429   3.035   2.729
  485SOL    HW1 1473   1.374   2.951   2.722
  485SOL    HW2 1474   1.455   3.064   2.637
  486SOL     OW 1475   1.466   2.452   2.854
  486SOL    HW1 1476   1.436   2.357   2.861
  486SOL    HW2 1477   1.539   2.468   2.920
  487SOL     OW 1478   1.857   2.695   2.239
  487SOL    HW1 1479   1.899   2.631   2.303
  487SOL    HW2 1480   1.819   2.644   2.161
  488SOL     OW 1481   1.390   2.437   1.940
  488SOL    HW1 1482   1.336   2.416   2.021
  488SOL    HW2 1483   1.481   2.396   1.949
  489SOL     OW 1484   0.527   2.118   2.190
  489SOL    HW1 1485   0.554   2.059   2.115
  489SOL    HW2 1486   0.527   2.213   2.159
  490SOL     OW 1487   1.638   2.961   2.941
  490SOL    HW1 1488   1.643   3.042   3.000
  490SOL    HW2 1489   1.552   2.963   2.890
  491SOL     OW 1490   0.566   2.399   2.727
  491SOL    HW1 1491   0.578   2.465   2.653
  491SOL    HW2 1492   0.612   2.433   2.810
  492SOL     OW 1493   1.582   2.501   2.334
  492SOL    HW1 1494   1.551   2.562   2.407
  492SOL    HW2 1495   1.632   2.553   2.265
  493SOL     OW 1496   0.573   2.732   2.891
  493SOL    HW1 1497   0.617   2.821   2.882
  493SOL    HW2 1498   0.510   2.732   2.968
  494SOL     OW 1499   1.209   2.387   2.137
  494SOL    HW1 1500   1.222   2.303   2.191
  494SOL    HW2 1501   1.180   2.461   2.197
  495SOL     OW 1502   0.307   2.075   3.093
  495SOL    HW1 1503   0.284   2.112   3.183
  495SOL    HW2 1504   0.277   1.980   3.087
  496SOL     OW 1505   0.732   2.496   2.926
  496SOL    HW1 1506   0.791   2.470   2.850
  496SOL    HW2 1507   0.704   2.592   2.915
  497SOL     OW 1508   0.307   1.925   2.480
  497SOL    HW1 1509   0.296   2.019   2.513
  497SOL    HW2 1510   0.302   1.862   2.557
  498SOL     OW 1511   1.622   2.229   2.236
  498SOL    HW1 1512   1.624   2.153   2.300
  498SOL    HW2 1513   1.574   2.306   2.276
  499SOL     OW 1514   1.540   2.136   1.987
  499SOL    HW1 1515   1.479   2.061   2.010
  499SOL    HW2 1516   1.562   2.188   2.070
  500SOL     OW 1517   1.303   2.700   1.904
  500SOL    HW1 1518   1.337   2.607   1.919
  500SOL    HW2 1519   1.321   2.727   1.809
  501SOL     OW 1520   0.319   2.672   2.811
  501SOL    HW1 1521   0.412   2.708   2.816
  501SOL    HW2 1522   0.313   2.587   2.863
  502SOL     OW 1523   0.339   2.371   2.868
  502SOL    HW1 1524   0.287   2.288   2.851
  502SOL    HW2 1525   0.416   2.376   2.804
  503SOL     OW 1526   1.002   2.658   3.100
  503SOL    HW1 1527   1.043   2.626   3.186
  503SOL    HW2 1528   0.906   2.631   3.097
  504SOL     OW 1529   0.815   2.434   2.187
  504SOL    HW1 1530   0.822   2.345   2.141
  504SOL    HW2 1531   0.721   2.468   2.179
  505SOL     OW 1532   0.671   2.326   3.131
  505SOL    HW1 1533   0.637   2.237   3.101
  505SOL    HW2 1534   0.697   2.380   3.051
  506SOL     OW 1535   0.473   2.362   2.053
  506SOL    HW1 1536   0.534   2.442   2.057
  506SOL    HW2 1537   0.378   2.393   2.060
  507SOL     OW 1538   1.302   2.717   2.171
  507SOL    HW1 1539   1.216   2.686   2.213
  507SOL    HW2 1540   1.298   2.703   2.072
  508SOL     OW 1541   1.726   1.997   2.385
  508SOL    HW1 1542   1.799   1.980   2.318
  508SOL    HW2 1543   1.695   1.910   2.423
  509SOL     OW 1544   1.280   2.789   2.534
  509SOL    HW1 1545   1.340   2.708   2.536
  509SOL    HW2 1546   1.320   2.858   2.474
  510SOL     OW 1547   1.841   2.037   2.825
  510SOL    HW1 1548   1.880   1.952   2.789
  510SOL    HW2 1549   1.743   2.039   2.806
  511SOL     OW 1550   0.263   2.188   2.582
  511SOL    HW1 1551   0.184   2.239   2.548
  511SOL    HW2 1552   0.254   2.173   2.680
  512SOL     OW 1553   0.916   2.772   2.153
  512SOL    HW1 1554   0.979   2.810   2.085
  512SOL    HW2 1555   0.956   2.689   2.192
  513SOL     OW 1556   1.014   2.098   2.833
  513SOL    HW1 1557   1.006   2.062   2.740
  513SOL    HW2 1558   1.012   2.022   2.898
  514SOL     OW 1559   0.075   2.207   1.895
  514SOL    HW1 1560  -0.017   2.179   1.866
  514SOL    HW2 1561   0.106   2.284   1.839
  515SOL     OW 1562   0.072   2.028   2.180
  515SOL    HW1 1563   0.055   2.111   2.126
  515SOL    HW2 1564   0.162   1.991   2.158
  516SOL     OW 1565   1.183   3.197   1.981
  516SOL    HW1 1566   1.084   3.186   1.983
  516SOL    HW2 1567   1.217   3.212   2.074
  517SOL     OW 1568   1.674   2.745   3.116
  517SOL    HW1 1569   1.647   2.656   3.079
  517SOL    HW2 1570   1.675   2.813   3.043
  518SOL     OW 1571   1.225   2.187   2.311
  518SOL    HW1 1572   1.290   2.113   2.300
  518SOL    HW2 1573   1.245   2.237   2.395
  519SOL     OW 1574   0.594   2.607   2.514
  519SOL    HW1 1575   0.644   2.692   2.495
  519SOL    HW2 1576   0.506   2.609   2.466
  520SOL     OW 1577   0.859   2.818   2.723
  520SOL    HW1 1578   0.913   2.749   2.771
  520SOL    HW2 1579   0.827   2.887   2.789
  521SOL     OW 1580   1.083   2.846   1.949
  521SOL    HW1 1581   1.060   2.899   1.867
  521SOL    HW2 1582   1.164   2.790   1.930
  522SOL     OW 1583   0.079   3.102   2.515
  522SOL    HW1 1584   0.078   3.055   2.603
  522SOL    HW2 1585   0.161   3.074   2.464
  523SOL     OW 1586   1.824   2.054   3.089
  523SOL    HW1 1587   1.820   1.964   3.133
  523SOL    HW2 1588   1.827   2.043   2.990
  524SOL     OW 1589   0.428   2.286   2.382
  524SOL    HW1 1590   0.458   2.214   2.320
  524SOL    HW2 1591   0.389   2.246   2.465
  525SOL     OW 1592   1.352   1.914   2.030
  525SOL    HW1 1593   1.387   1.873   1.946
  525SOL    HW2 1594   1.262   1.876   2.050
  526SOL     OW 1595   1.300   2.315   2.553
  526SOL    HW1 1596   1.241   2.395   2.557
  526SOL    HW2 1597   1.315   2.280   2.646
  527SOL     OW 1598   1.593   2.083   2.744
  527SOL    HW1 1599   1.509   2.082   2.798
  527SOL    HW2 1600   1.595   2.166   2.688
  528SOL     OW 1601   0.039   2.939   2.162
  528SOL    HW1 1602   0.138   2.928   2.153
  528SOL    HW2 1603  -0.001   2.853   2.194
  529SOL     OW 1604   2.092   0.628   0.113
  529SOL    HW1 1605   1.999   0.626   0.150
  529SOL    HW2 1606   2.093   0.589   0.021
  530SOL     OW 1607   2.087   0.275   0.996
  530SOL    HW1 1608   2.122   0.258   1.088
  530SOL    HW2 1609   1.999   0.230   0.984
  531SOL     OW 1610   1.881   0.368   0.647
  531SOL    HW1 1611   1.799   0.411   0.686
  531SOL    HW2 1612   1.853   0.295   0.584
  532SOL     OW 1613   2.431   1.275   1.165
  532SOL    HW1 1614   2.338   1.268   1.128
  532SOL    HW2 1615   2.442   1.364   1.209
  533SOL     OW 1616   2.630   1.144   1.023
  533SOL    HW1 1617   2.552   1.161   1.083
  533SOL    HW2 1618   2.664   1.231   0.987
  534SOL     OW 1619   2.712   0.798   1.823
  534SOL    HW1 1620   2.708   0.874   1.888
  534SOL    HW2 1621   2.734   0.834   1.732
  535SOL     OW 1622   2.547   1.012   0.665
  535SOL    HW1 1623   2.616   0.996   0.735
  535SOL    HW2 1624   2.474   1.069   0.703
  536SOL     OW 1625   2.548   1.161   1.803
  536SOL    HW1 1626   2.608   1.240   1.817
  536SOL    HW2 1627   2.462   1.192   1.762
  537SOL     OW 1628   2.197   1.435   1.061
  537SOL    HW1 1629   2.119   1.404   1.008
  537SOL    HW2 1630   2.255   1.493   1.004
  538SOL     OW 1631   2.300   0.392   1.499
  538SOL    HW1 1632   2.382   0.336   1.508
  538SOL    HW2 1633   2.219   0.334   1.503
  539SOL     OW 1634   2.093   1.713   0.483
  539SOL    HW1 1635   2.127   1.790   0.537
  539SOL    HW2 1636   2.137   1.713   0.393
  540SOL     OW 1637   2.092   1.434   0.538
  540SOL    HW1 1638   2.066   1.530   0.538
  540SOL    HW2 1639   2.021   1.380   0.583
  541SOL     OW 1640   2.102   1.091   0.886
  541SOL    HW1 1641   2.116   1.007   0.938
  541SOL    HW2 1642   2.047   1.155   0.941
  542SOL     OW 1643   2.482   1.786   1.439
  542SOL    HW1 1644   2.390   1.769   1.474
  542SOL    HW2 1645   2.510   1.878   1.465
  543SOL     OW 1646   2.468   0.964   0.123
  543SOL    HW1 1647   2.475   1.048   0.069
  543SOL    HW2 1648   2.514   0.977   0.211
  544SOL     OW 1649   1.984   0.643   0.563
  544SOL    HW1 1650   1.939   0.555   0.580
  544SOL    HW2 1651   1.983   0.697   0.647
  545SOL     OW 1652   1.889   1.596   0.117
  545SOL    HW1 1653   1.870   1.500   0.138
  545SOL    HW2 1654   1.856   1.654   0.192
  546SOL     OW 1655   1.975   0.737   1.597
  546SOL    HW1 1656   2.063   0.724   1.642
  546SOL    HW2 1657   1.962   0.834   1.575
  547SOL     OW 1658   2.475   1.365   0.726
  547SOL    HW1 1659   2.426   1.278   0.735
  547SOL    HW2 1660   2.452   1.408   0.639
  548SOL     OW 1661   2.671   0.004   0.502
  548SOL    HW1 1662   2.711   0.095   0.493
  548SOL    HW2 1663   2.571   0.012   0.508
  549SOL     OW 1664   2.059   0.976   1.264
  549SOL    HW1 1665   2.148   0.931   1.250
  549SOL    HW2 1666   1.986   0.911   1.245
  550SOL     OW 1667   2.179   0.251   1.801
  550SOL    HW1 1668   2.250   0.322   1.807
  550SOL    HW2 1669   2.091   0.290   1.829
  551SOL     OW 1670   2.460   0.729   0.270
  551SOL    HW1 1671   2.484   0.798   0.202
  551SOL    HW2 1672   2.382   0.762   0.324
  552SOL     OW 1673   2.669   0.605   1.465
  552SOL    HW1 1674   2.622   0.602   1.554
  552SOL    HW2 1675   2.618   0.550   1.399
  553SOL     OW 1676   2.835   0.890   1.572
  553SOL    HW1 1677   2.881   0.806   1.543
  553SOL    HW2 1678   2.779   0.924   1.497
  554SOL     OW 1679   2.853   0.410   1.242
  554SOL    HW1 1680   2.776   0.444   1.296
  554SOL    HW2 1681   2.819   0.359   1.163
  555SOL     OW 1682   2.903   0.701   0.429
  555SOL    HW1 1683   2.929   0.697   0.525
  555SOL    HW2 1684   2.818   0.650   0.415
  556SOL     OW 1685   1.938   0.811   0.789
  556SOL    HW1 1686   2.037   0.799   0.798
  556SOL    HW2 1687   1.914   0.906   0.810
  557SOL     OW 1688   1.992   1.821   1.571
  557SOL    HW1 1689   1.982   1.806   1.670
  557SOL    HW2 1690   1.906   1.857   1.535
  558SOL     OW 1691   2.727   0.348   0.195
  558SOL    HW1 1692   2.786   0.411   0.146
  558SOL    HW2 1693   2.746   0.254   0.166
  559SOL     OW 1694   2.412   0.196   0.885
  559SOL    HW1 1695   2.407   0.191   0.985
  559SOL    HW2 1696   2.414   0.292   0.856
  560SOL     OW 1697   2.870   1.456   0.477
  560SOL    HW1 1698   2.824   1.528   0.425
  560SOL    HW2 1699   2.866   1.476   0.575
  561SOL     OW 1700   2.213   1.801   0.853
  561SOL    HW1 1701   2.263   1.715   0.859
  561SOL    HW2 1702   2.278   1.878   0.850
  562SOL     OW 1703   2.183   0.943   0.242
  562SOL    HW1 1704   2.265   0.982   0.200
  562SOL    HW2 1705   2.156   0.861   0.193
  563SOL     OW 1706   2.323   1.266   1.727
  563SOL    HW1 1707   2.273   1.267   1.641
  563SOL    HW2 1708   2.260   1.248   1.803
  564SOL     OW 1709   2.064   0.285   1.498
  564SOL    HW1 1710   1.984   0.345   1.485
  564SOL    HW2 1711   2.054   0.236   1.584
  565SOL     OW 1712   2.326   1.743   0.323
  565SOL    HW1 1713   2.359   1.782   0.409
  565SOL    HW2 1714   2.402   1.736   0.258
  566SOL     OW 1715   2.111   1.785   1.241
  566SOL    HW1 1716   2.168   1.720   1.291
  566SOL    HW2 1717   2.095   1.752   1.148
  567SOL     OW 1718   2.802   1.698   0.904
  567SOL    HW1 1719   2.882   1.641   0.925
  567SOL    HW2 1720   2.753   1.658   0.827
  568SOL     OW 1721   2.244   0.700   0.480
  568SOL    HW1 1722   2.289   0.610   0.477
  568SOL    HW2 1723   2.150   0.689   0.513
  569SOL     OW 1724   2.476   0.122   0.117
  569SOL    HW1 1725   2.574   0.100   0.124
  569SOL    HW2 1726   2.445   0.105   0.024
  570SOL     OW 1727   2.643   0.264   1.749
  570SOL    HW1 1728   2.710   0.203   1.792
  570SOL    HW2 1729   2.570   0.283   1.814
  571SOL     OW 1730   2.750   1.514   1.195
  571SOL    HW1 1731   2.727   1.489   1.101
  571SOL    HW2 1732   2.811   1.445   1.234
  572SOL     OW 1733   2.665   1.402   0.924
  572SOL    HW1 1734   2.755   1.416   0.882
  572SOL    HW2 1735   2.594   1.404   0.853
  573SOL     OW 1736   2.784   0.503   0.899
  573SOL    HW1 1737   2.759   0.494   0.803
  573SOL    HW2 1738   2.832   0.421   0.930
  574SOL     OW 1739   2.401   0.064   0.512
  574SOL    HW1 1740   2.320   0.065   0.570
  574SOL    HW2 1741   2.404   0.147   0.457
  575SOL     OW 1742   3.296   1.188   0.041
  575SOL    HW1 1743   3.328   1.112   0.098
  575SOL    HW2 1744   3.204   1.215   0.071
  576SOL     OW 1745   2.159   0.035   0.171
  576SOL    HW1 1746   2.208   0.119   0.150
  576SOL    HW2 1747   2.221  -0.030   0.216
  577SOL     OW 1748   2.797   0.236   0.480
  577SOL    HW1 1749   2.749   0.277   0.402
  577SOL    HW2 1750   2.896   0.234   0.461
  578SOL     OW 1751   3.089   1.570   0.793
  578SOL    HW1 1752   3.110   1.644   0.728
  578SOL    HW2 1753   3.157   1.570   0.866
  579SOL     OW 1754   2.321   1.152   0.741
  579SOL    HW1 1755   2.250   1.125   0.806
  579SOL    HW2 1756   2.295   1.124   0.648
  580SOL     OW 1757   2.894   0.549   0.016
  580SOL    HW1 1758   2.853   0.631  -0.023
  580SOL    HW2 1759   2.958   0.575   0.089
  581SOL     OW 1760   1.940   0.556   1.386
  581SOL    HW1 1761   2.032   0.555   1.345
  581SOL    HW2 1762   1.934   0.630   1.453
  582SOL     OW 1763   2.423   0.222   1.147
  582SOL    HW1 1764   2.461   0.138   1.184
  582SOL    HW2 1765   2.335   0.241   1.191
  583SOL     OW 1766   2.728   0.454   0.642
  583SOL    HW1 1767   2.696   0.526   0.580
  583SOL    HW2 1768   2.752   0.373   0.589
  584SOL     OW 1769   2.879   0.039   0.753
  584SOL    HW1 1770   2.807   0.044   0.684
  584SOL    HW2 1771   2.855  -0.030   0.822
  585SOL     OW 1772   2.350   1.385   0.174
  585SOL    HW1 1773   2.263   1.370   0.221
  585SOL    HW2 1774   2.333   1.411   0.079
  586SOL     OW 1775   2.389   0.256   0.328
  586SOL    HW1 1776   2.416   0.197   0.253
  586SOL    HW2 1777   2.389   0.351   0.297
  587SOL     OW 1778   2.777   0.089   1.402
  587SOL    HW1 1779   2.802   0.069   1.307
  587SOL    HW2 1780   2.849   0.145   1.444
  588SOL     OW 1781   2.842   1.116   1.719
  588SOL    HW1 1782   2.743   1.122   1.729
  588SOL    HW2 1783   2.865   1.036   1.663
  589SOL     OW 1784   2.567   1.050   0.368
  589SOL    HW1 1785   2.553   1.057   0.467
  589SOL    HW2 1786   2.651   0.999   0.350
  590SOL     OW 1787   2.272   0.813   1.251
  590SOL    HW1 1788   2.358   0.825   1.301
  590SOL    HW2 1789   2.230   0.726   1.278
  591SOL     OW 1790   1.926   1.564   1.331
  591SOL    HW1 1791   1.880   1.646   1.297
  591SOL    HW2 1792   2.024   1.583   1.340
  592SOL     OW 1793   2.229   1.100   0.501
  592SOL    HW1 1794   2.222   1.183   0.445
  592SOL    HW2 1795   2.233   1.020   0.441
  593SOL     OW 1796   2.428   0.537   0.865
  593SOL    HW1 1797   2.440   0.603   0.791
  593SOL    HW2 1798   2.474   0.571   0.948
  594SOL     OW 1799   2.216   1.510   1.329
  594SOL    HW1 1800   2.195   1.466   1.242
  594SOL    HW2 1801   2.313   1.536   1.332
  595SOL     OW 1802   2.264   0.751   1.598
  595SOL    HW1 1803   2.332   0.806   1.551
  595SOL    HW2 1804   2.304   0.663   1.625
  596SOL     OW 1805   2.875   0.105   1.770
  596SOL    HW1 1806   2.881   0.190   1.718
  596SOL    HW2 1807   2.907   0.029   1.713
  597SOL     OW 1808   2.366   0.050   1.740
  597SOL    HW1 1809   2.324  -0.007   1.670
  597SOL    HW2 1810   2.300   0.119   1.772
  598SOL     OW 1811   2.435   0.870   1.029
  598SOL    HW1 1812   2.479   0.959   1.020
  598SOL    HW2 1813   2.372   0.870   1.106
  599SOL     OW 1814   3.071   0.525   0.275
  599SOL    HW1 1815   3.084   0.441   0.329
  599SOL    HW2 1816   3.042   0.599   0.335
  600SOL     OW 1817   2.169   0.213   1.231
  600SOL    HW1 1818   2.146   0.250   1.321
  600SOL    HW2 1819   2.139   0.118   1.225
  601SOL     OW 1820   2.594   0.634   1.064
  601SOL    HW1 1821   2.653   0.608   0.988
  601SOL    HW2 1822   2.566   0.730   1.053
  602SOL     OW 1823   2.169   0.063   0.618
  602SOL    HW1 1824   2.158   0.157   0.651
  602SOL    HW2 1825   2.164   0.000   0.695
  603SOL     OW 1826   2.885   0.766   0.966
  603SOL    HW1 1827   2.900   0.787   1.062
  603SOL    HW2 1828   2.855   0.671   0.957
  604SOL     OW 1829   2.842   1.573   1.700
  604SOL    HW1 1830   2.822   1.617   1.612
  604SOL    HW2 1831   2.881   1.482   1.684
  605SOL     OW 1832   2.212   0.898   1.804
  605SOL    HW1 1833   2.288   0.942   1.852
  605SOL    HW2 1834   2.247   0.851   1.722
  606SOL     OW 1835   2.181   0.810   0.949
  606SOL    HW1 1836   2.274   0.846   0.954
  606SOL    HW2 1837   2.175   0.725   1.001
  607SOL     OW 1838   2.201   0.509   1.006
  607SOL    HW1 1839   2.149   0.426   0.989
  607SOL    HW2 1840   2.278   0.514   0.942
  608SOL     OW 1841   1.870   1.326   0.200
  608SOL    HW1 1842   1.777   1.347   0.169
  608SOL    HW2 1843   1.880   1.227   0.213
  609SOL     OW 1844   1.950   1.801   0.927
  609SOL    HW1 1845   1.908   1.715   0.900
  609SOL    HW2 1846   2.044   1.804   0.893
  610SOL     OW 1847   2.366   1.568   0.910
  610SOL    HW1 1848   2.432   1.642   0.919
  610SOL    HW2 1849   2.410   1.489   0.868
  611SOL     OW 1850   2.864   0.796   1.238
  611SOL    HW1 1851   2.905   0.764   1.324
  611SOL    HW2 1852   2.768   0.769   1.235
  612SOL     OW 1853   1.902   0.544   1.114
  612SOL    HW1 1854   1.987   0.511   1.073
  612SOL    HW2 1855   1.915   0.559   1.212
  613SOL     OW 1856   2.051   0.520   1.722
  613SOL    HW1 1857   2.110   0.480   1.652
  613SOL    HW2 1858   1.993   0.591   1.681
  614SOL     OW 1859   2.677   0.572   0.325
  614SOL    HW1 1860   2.684   0.483   0.279
  614SOL    HW2 1861   2.583   0.606   0.317
  615SOL     OW 1862   2.114   1.564   1.744
  615SOL    HW1 1863   2.084   1.621   1.820
  615SOL    HW2 1864   2.107   1.467   1.770
  616SOL     OW 1865   2.533   0.464   1.269
  616SOL    HW1 1866   2.499   0.375   1.239
  616SOL    HW2 1867   2.559   0.518   1.189
  617SOL     OW 1868   2.792   1.678   1.465
  617SOL    HW1 1869   2.768   1.660   1.370
  617SOL    HW2 1870   2.822   1.772   1.475
  618SOL     OW 1871   2.335   0.500   0.191
  618SOL    HW1 1872   2.396   0.580   0.195
  618SOL    HW2 1873   2.240   0.531   0.198
  619SOL     OW 1874   1.945   1.258   1.022
  619SOL    HW1 1875   1.940   1.257   1.122
  619SOL    HW2 1876   1.862   1.217   0.984
  620SOL     OW 1877   2.550   1.662   1.716
  620SOL    HW1 1878   2.494   1.743   1.725
  620SOL    HW2 1879   2.602   1.666   1.630
  621SOL     OW 1880   2.765   0.086   0.133
  621SOL    HW1 1881   2.816   0.087   0.047
  621SOL    HW2 1882   2.821   0.044   0.204
  622SOL     OW 1883   1.992   1.794   1.851
  622SOL    HW1 1884   1.951   1.720   1.904
  622SOL    HW2 1885   2.056   1.845   1.909
  623SOL     OW 1886   3.142   0.927   0.672
  623SOL    HW1 1887   3.202   0.846   0.674
  623SOL    HW2 1888   3.182   0.996   0.612
  624SOL     OW 1889   2.692   1.273   1.422
  624SOL    HW1 1890   2.687   1.306   1.517
  624SOL    HW2 1891   2.606   1.292   1.376
  625SOL     OW 1892   2.534   1.616   0.154
  625SOL    HW1 1893   2.543   1.626   0.055
  625SOL    HW2 1894   2.494   1.527   0.175
  626SOL     OW 1895   2.125   0.326   0.720
  626SOL    HW1 1896   2.046   0.377   0.686
  626SOL    HW2 1897   2.116   0.311   0.818
  627SOL     OW 1898   2.684   1.002   1.372
  627SOL    HW1 1899   2.724   1.001   1.280
  627SOL    HW2 1900   2.694   1.094   1.412
  628SOL     OW 1901   2.778   0.910   0.291
  628SOL    HW1 1902   2.841   0.948   0.223
  628SOL    HW2 1903   2.818   0.827   0.330
  629SOL     OW 1904   2.234   1.288   1.490
  629SOL    HW1 1905   2.221   1.381   1.456
  629SOL    HW2 1906   2.150   1.236   1.477
  630SOL     OW 1907   2.901   1.098   0.696
  630SOL    HW1 1908   2.831   1.051   0.750
  630SOL    HW2 1909   2.960   1.030   0.653
  631SOL     OW 1910   2.876   0.236   0.971
  631SOL    HW1 1911   2.868   0.200   0.878
  631SOL    HW2 1912   2.874   0.160   1.036
  632SOL     OW 1913   2.452   1.487   0.491
  632SOL    HW1 1914   2.494   1.429   0.421
  632SOL    HW2 1915   2.408   1.566   0.447
  633SOL     OW 1916   2.117   1.348   0.290
  633SOL    HW1 1917   2.021   1.349   0.263
  633SOL    HW2 1918   2.129   1.401   0.374
  634SOL     OW 1919   1.967   1.013   1.726
  634SOL    HW1 1920   1.890   0.980   1.780
  634SOL    HW2 1921   2.052   0.983   1.768
  635SOL     OW 1922   2.534   0.203   1.489
  635SOL    HW1 1923   2.624   0.187   1.449
  635SOL    HW2 1924   2.542   0.208   1.588
  636SOL     OW 1925   1.937   0.345   0.033
  636SOL    HW1 1926   1.845   0.317   0.004
  636SOL    HW2 1927   1.968   0.422  -0.023
  637SOL     OW 1928   1.934   0.166   0.318
  637SOL    HW1 1929   1.917   0.249   0.264
  637SOL    HW2 1930   2.024   0.129   0.296
  638SOL     OW 1931   2.475   0.842   1.431
  638SOL    HW1 1932   2.531   0.923   1.414
  638SOL    HW2 1933   2.534   0.762   1.434
  639SOL     OW 1934   2.578   0.565   1.708
  639SOL    HW1 1935   2.597   0.630   1.782
  639SOL    HW2 1936   2.638   0.485   1.717
  640SOL     OW 1937   2.252   1.741   1.560
  640SOL    HW1 1938   2.161   1.782   1.558
  640SOL    HW2 1939   2.245   1.647   1.592
  641SOL     OW 1940   3.087   0.325   0.449
  641SOL    HW1 1941   3.152   0.251   0.438
  641SOL    HW2 1942   3.107   0.375   0.533
  642SOL     OW 1943   2.456   0.745   0.652
  642SOL    HW1 1944   2.506   0.830   0.633
  642SOL    HW2 1945   2.368   0.747   0.604
  643SOL     OW 1946   2.721   1.374   0.016
  643SOL    HW1 1947   2.675   1.389   0.104
  643SOL    HW2 1948   2.765   1.459  -0.014
  644SOL     OW 1949   2.523   1.790   0.953
  644SOL    HW1 1950   2.477   1.878   0.940
  644SOL    HW2 1951   2.622   1.802   0.946
  645SOL     OW 1952   2.721   0.956   0.861
  645SOL    HW1 1953   2.775   0.887   0.909
  645SOL    HW2 1954   2.689   1.025   0.927
  646SOL     OW 1955   2.945   0.984   0.087
  646SOL    HW1 1956   2.922   1.037   0.005
  646SOL    HW2 1957   3.026   0.928   0.068
  647SOL     OW 1958   2.083   1.314   1.844
  647SOL    HW1 1959   2.018   1.241   1.823
  647SOL    HW2 1960   2.087   1.328   1.942
  648SOL     OW 1961   1.941   1.240   0.653
  648SOL    HW1 1962   1.940   1.193   0.741
  648SOL    HW2 1963   2.023   1.212   0.602
  649SOL     OW 1964   2.534   1.391   1.624
  649SOL    HW1 1965   2.456   1.341   1.662
  649SOL    HW2 1966   2.531   1.486   1.655
  650SOL     OW 1967   2.290   0.424   0.520
  650SOL    HW1 1968   2.320   0.352   0.458
  650SOL    HW2 1969   2.251   0.384   0.603
  651SOL     OW 1970   2.179   0.547   1.280
  651SOL    HW1 1971   2.217   0.488   1.352
  651SOL    HW2 1972   2.219   0.521   1.192
  652SOL     OW 1973   2.674   1.586   0.687
  652SOL    HW1 1974   2.706   1.596   0.593
  652SOL    HW2 1975   2.595   1.524   0.689
  653SOL     OW 1976   2.863   0.034   1.154
  653SOL    HW1 1977   2.800  -0.038   1.123
  653SOL    HW2 1978   2.956  -0.002   1.154
  654SOL     OW 1979   2.632   1.330   0.301
  654SOL    HW1 1980   2.586   1.243   0.318
  654SOL    HW2 1981   2.723   1.327   0.342
  655SOL     OW 1982   2.480   1.567   1.284
  655SOL    HW1 1983   2.475   1.649   1.341
  655SOL    HW2 1984   2.569   1.564   1.239
  656SOL     OW 1985   1.901   1.077   0.300
  656SOL    HW1 1986   2.000   1.066   0.291
  656SOL    HW2 1987   1.861   0.991   0.332
  657SOL     OW 1988   2.737   1.646   0.337
  657SOL    HW1 1989   2.660   1.611   0.283
  657SOL    HW2 1990   2.705   1.717   0.399
  658SOL     OW 1991   2.092   0.628   1.975
  658SOL    HW1 1992   1.999   0.626   2.012
  658SOL    HW2 1993   2.093   0.589   1.883
  659SOL     OW 1994   2.087   0.275   2.858
  659SOL    HW1 1995   2.122   0.258   2.950
  659SOL    HW2 1996   1.999   0.230   2.846
  660SOL     OW 1997   1.881   0.368   2.509
  660SOL    HW1 1998   1.799   0.411   2.548
  660SOL    HW2 1999   1.853   0.295   2.446
  661SOL     OW 2000   2.630   1.144   2.885
  661SOL    HW1 2001   2.552   1.161   2.945
  661SOL    HW2 2002   2.664   1.231   2.849
  662SOL     OW 2003   2.547   1.012   2.527
  662SOL    HW1 2004   2.616   0.996   2.597
  662SOL    HW2 2005   2.474   1.069   2.565
  663SOL     OW 2006   2.197   1.435   2.923
  663SOL    HW1 2007   2.119   1.404   2.870
  663SOL    HW2 2008   2.255   1.493   2.866
  664SOL     OW 2009   2.093   1.713   2.345
  664SOL    HW1 2010   2.127   1.790   2.399
  664SOL    HW2 2011   2.137   1.713   2.255
  665SOL     OW 2012   2.092   1.434   2.400
  665SOL    HW1 2013   2.066   1.530   2.400
  665SOL    HW2 2014   2.021   1.380   2.445
  666SOL     OW 2015   2.102   1.091   2.748
  666SOL    HW1 2016   2.116   1.007   2.800
  666SOL    HW2 2017   2.047   1.155   2.803
  667SOL     OW 2018   2.468   0.964   1.985
  667SOL    HW1 2019   2.475   1.048   1.931
  667SOL    HW2 2020   2.514   0.977   2.073
  668SOL     OW 2021   1.984   0.643   2.425
  668SOL    HW1 2022   1.939   0.555   2.442
  668SOL    HW2 2023   1.983   0.697   2.509
  669SOL     OW 2024   1.889   1.596   1.979
  669SOL    HW1 2025   1.870   1.500   2.000
  669SOL    HW2 2026   1.856   1.654   2.054
  670SOL     OW 2027   2.475   1.365   2.588
  670SOL    HW1 2028   2.426   1.278   2.597
  670SOL    HW2 2029   2.452   1.408   2.501
  671SOL     OW 2030   2.671   0.004   2.364
  671SOL    HW1 2031   2.711   0.095   2.355
  671SOL    HW2 2032   2.571   0.012   2.370
  672SOL     OW 2033   2.460   0.729   2.132
  672SOL    HW1 2034   2.484   0.798   2.064
  672SOL    HW2 2035   2.382   0.762   2.186
  673SOL     OW 2036   2.903   0.701   2.291
  673SOL    HW1 2037   2.929   0.697   2.387
  673SOL    HW2 2038   2.818   0.650   2.277
  674SOL     OW 2039   1.938   0.811   2.651
  674SOL    HW1 2040   2.037   0.799   2.660
  674SOL    HW2 2041   1.914   0.906   2.672
  675SOL     OW 2042   2.727   0.348   2.057
  675SOL    HW1 2043   2.786   0.411   2.008
  675SOL    HW2 2044   2.746   0.254   2.028
  676SOL     OW 2045   2.412   0.196   2.747
  676SOL    HW1 2046   2.407   0.191   2.847
  676SOL    HW2 2047   2.414   0.292   2.718
  677SOL     OW 2048   2.870   1.456   2.339
  677SOL    HW1 2049   2.824   1.528   2.287
  677SOL    HW2 2050   2.866   1.476   2.437
  678SOL     OW 2051   2.213   1.801   2.715
  678SOL    HW1 2052   2.263   1.715   2.721
  678SOL    HW2 2053   2.278   1.878   2.712
  679SOL     OW 2054   2.183   0.943   2.104
  679SOL    HW1 2055   2.265   0.982   2.062
  679SOL    HW2 2056   2.156   0.861   2.055
  680SOL     OW 2057   2.326   1.743   2.185
  680SOL    HW1 2058   2.359   1.782   2.271
  680SOL    HW2 2059   2.402   1.736   2.120
  681SOL     OW 2060   2.111   1.785   3.103
  681SOL    HW1 2061   2.168   1.720   3.153
  681SOL    HW2 2062   2.095   1.752   3.010
  682SOL     OW 2063   2.802   1.698   2.766
  682SOL    HW1 2064   2.882   1.641   2.787
  682SOL    HW2 2065   2.753   1.658   2.689
  683SOL     OW 2066   2.244   0.700   2.342
  683SOL    HW1 2067   2.289   0.610   2.339
  683SOL    HW2 2068   2.150   0.689   2.375
  684SOL     OW 2069   2.476   0.122   1.979
  684SOL    HW1 2070   2.574   0.100   1.986
  684SOL    HW2 2071   2.445   0.105   1.886
  685SOL     OW 2072   2.665   1.402   2.786
  685SOL    HW1 2073   2.755   1.416   2.744
  685SOL    HW2 2074   2.594   1.404   2.715
  686SOL     OW 2075   2.784   0.503   2.761
  686SOL    HW1 2076   2.759   0.494   2.665
  686SOL    HW2 2077   2.832   0.421   2.792
  687SOL     OW 2078   2.401   0.064   2.374
  687SOL    HW1 2079   2.320   0.065   2.432
  687SOL    HW2 2080   2.404   0.147   2.319
  688SOL     OW 2081   2.159   0.035   2.033
  688SOL    HW1 2082   2.208   0.119   2.012
  688SOL    HW2 2083   2.221  -0.030   2.078
  689SOL     OW 2084   2.797   0.236   2.342
  689SOL    HW1 2085   2.749   0.277   2.264
  689SOL    HW2 2086   2.896   0.234   2.323
  690SOL     OW 2087   3.089   1.570   2.655
  690SOL    HW1 2088   3.110   1.644   2.590
  690SOL    HW2 2089   3.157   1.570   2.728
  691SOL     OW 2090   2.321   1.152   2.603
  691SOL    HW1 2091   2.250   1.125   2.668
  691SOL    HW2 2092   2.295   1.124   2.510
  692SOL     OW 2093   2.894   0.549   1.878
  692SOL    HW1 2094   2.853   0.631   1.839
  692SOL    HW2 2095   2.958   0.575   1.951
  693SOL     OW 2096   2.728   0.454   2.504
  693SOL    HW1 2097   2.696   0.526   2.442
  693SOL    HW2 2098   2.752   0.373   2.451
  694SOL     OW 2099   2.879   0.039   2.615
  694SOL    HW1 2100   2.807   0.044   2.546
  694SOL    HW2 2101   2.855  -0.030   2.684
  695SOL     OW 2102   2.350   1.385   2.036
  695SOL    HW1 2103   2.263   1.370   2.083
  695SOL    HW2 2104   2.333   1.411   1.941
  696SOL     OW 2105   2.389   0.256   2.190
  696SOL    HW1 2106   2.416   0.197   2.115
  696SOL    HW2 2107   2.389   0.351   2.159
  697SOL     OW 2108   2.567   1.050   2.230
  697SOL    HW1 2109   2.553   1.057   2.329
  697SOL    HW2 2110   2.651   0.999   2.212
  698SOL     OW 2111   2.229   1.100   2.363
  698SOL    HW1 2112   2.222   1.183   2.307
  698SOL    HW2 2113   2.233   1.020   2.303
  699SOL     OW 2114   2.428   0.537   2.727
  699SOL    HW1 2115   2.440   0.603   2.653
  699SOL    HW2 2116   2.474   0.571   2.810
  700SOL     OW 2117   2.435   0.870   2.891
  700SOL    HW1 2118   2.479   0.959   2.882
  700SOL    HW2 2119   2.372   0.870   2.968
  701SOL     OW 2120   3.071   0.525   2.137
  701SOL    HW1 2121   3.084   0.441   2.191
  701SOL    HW2 2122   3.042   0.599   2.197
  702SOL     OW 2123   2.594   0.634   2.926
  702SOL    HW1 2124   2.653   0.608   2.850
  702SOL    HW2 2125   2.566   0.730   2.915
  703SOL     OW 2126   2.169   0.063   2.480
  703SOL    HW1 2127   2.158   0.157   2.513
  703SOL    HW2 2128   2.164   0.000   2.557
  704SOL     OW 2129   2.181   0.810   2.811
  704SOL    HW1 2130   2.274   0.846   2.816
  704SOL    HW2 2131   2.175   0.725   2.863
  705SOL     OW 2132   2.201   0.509   2.868
  705SOL    HW1 2133   2.149   0.426   2.851
  705SOL    HW2 2134   2.278   0.514   2.804
  706SOL     OW 2135   1.870   1.326   2.062
  706SOL    HW1 2136   1.777   1.347   2.031
  706SOL    HW2 2137   1.880   1.227   2.075
  707SOL     OW 2138   1.950   1.801   2.789
  707SOL    HW1 2139   1.908   1.715   2.762
  707SOL    HW2 2140   2.044   1.804   2.755
  708SOL     OW 2141   2.366   1.568   2.772
  708SOL    HW1 2142   2.432   1.642   2.781
  708SOL    HW2 2143   2.410   1.489   2.730
  709SOL     OW 2144   2.864   0.796   3.100
  709SOL    HW1 2145   2.905   0.764   3.186
  709SOL    HW2 2146   2.768   0.769   3.097
  710SOL     OW 2147   2.677   0.572   2.187
  710SOL    HW1 2148   2.684   0.483   2.141
  710SOL    HW2 2149   2.583   0.606   2.179
  711SOL     OW 2150   2.533   0.464   3.131
  711SOL    HW1 2151   2.499   0.375   3.101
  711SOL    HW2 2152   2.559   0.518   3.051
  712SOL     OW 2153   2.335   0.500   2.053
  712SOL    HW1 2154   2.396   0.580   2.057
  712SOL    HW2 2155   2.240   0.531   2.060
  713SOL     OW 2156   1.945   1.258   2.884
  713SOL    HW1 2157   1.940   1.257   2.984
  713SOL    HW2 2158   1.862   1.217   2.846
  714SOL     OW 2159   3.142   0.927   2.534
  714SOL    HW1 2160   3.202   0.846   2.536
  714SOL    HW2 2161   3.182   0.996   2.474
  715SOL     OW 2162   2.534   1.616   2.016
  715SOL    HW1 2163   2.543   1.626   1.917
  715SOL    HW2 2164   2.494   1.527   2.037
  716SOL     OW 2165   2.125   0.326   2.582
  716SOL    HW1 2166   2.046   0.377   2.548
  716SOL    HW2 2167   2.116   0.311   2.680
  717SOL     OW 2168   2.778   0.910   2.153
  717SOL    HW1 2169   2.841   0.948   2.085
  717SOL    HW2 2170   2.818   0.827   2.192
  718SOL     OW 2171   2.901   1.098   2.558
  718SOL    HW1 2172   2.831   1.051   2.612
  718SOL    HW2 2173   2.960   1.030   2.515
  719SOL     OW 2174   2.876   0.236   2.833
  719SOL    HW1 2175   2.868   0.200   2.740
  719SOL    HW2 2176   2.874   0.160   2.898
  720SOL     OW 2177   2.452   1.487   2.353
  720SOL    HW1 2178   2.494   1.429   2.283
  720SOL    HW2 2179   2.408   1.566   2.309
  721SOL     OW 2180   2.117   1.348   2.152
  721SOL    HW1 2181   2.021   1.349   2.125
  721SOL    HW2 2182   2.129   1.401   2.236
  722SOL     OW 2183   1.937   0.345   1.895
  722SOL    HW1 2184   1.845   0.317   1.866
  722SOL    HW2 2185   1.968   0.422   1.839
  723SOL     OW 2186   1.934   0.166   2.180
  723SOL    HW1 2187   1.917   0.249   2.126
  723SOL    HW2 2188   2.024   0.129   2.158
  724SOL     OW 2189   3.087   0.325   2.311
  724SOL    HW1 2190   3.152   0.251   2.300
  724SOL    HW2 2191   3.107   0.375   2.395
  725SOL     OW 2192   2.456   0.745   2.514
  725SOL    HW1 2193   2.506   0.830   2.495
  725SOL    HW2 2194   2.368   0.747   2.466
  726SOL     OW 2195   2.721   1.374   1.878
  726SOL    HW1 2196   2.675   1.389   1.966
  726SOL    HW2 2197   2.765   1.459   1.848
  727SOL     OW 2198   2.523   1.790   2.815
  727SOL    HW1 2199   2.477   1.878   2.802
  727SOL    HW2 2200   2.622   1.802   2.808
  728SOL     OW 2201   2.721   0.956   2.723
  728SOL    HW1 2202   2.775   0.887   2.771
  728SOL    HW2 2203   2.689   1.025   2.789
  729SOL     OW 2204   1.941   1.240   2.515
  729SOL    HW1 2205   1.940   1.193   2.603
  729SOL    HW2 2206   2.023   1.212   2.464
  730SOL     OW 2207   2.290   0.424   2.382
  730SOL    HW1 2208   2.320   0.352   2.320
  730SOL    HW2 2209   2.251   0.384   2.465
  731SOL     OW 2210   2.674   1.586   2.549
  731SOL    HW1 2211   2.706   1.596   2.455
  731SOL    HW2 2212   2.595   1.524   2.551
  732SOL     OW 2213   2.632   1.330   2.163
  732SOL    HW1 2214   2.586   1.243   2.180
  732SOL    HW2 2215   2.723   1.327   2.204
  733SOL     OW 2216   1.901   1.077   2.162
  733SOL    HW1 2217   2.000   1.066   2.153
  733SOL    HW2 2218   1.861   0.991   2.194
  734SOL     OW 2219   2.737   1.646   2.199
  734SOL    HW1 2220   2.660   1.611   2.145
  734SOL    HW2 2221   2.705   1.717   2.261
  735SOL     OW 2222   2.092   2.490   0.113
  735SOL    HW1 2223   1.999   2.488   0.150
  735SOL    HW2 2224   2.093   2.451   0.021
  736SOL     OW 2225   2.087   2.137   0.996
  736SOL    HW1 2226   2.122   2.120   1.088
  736SOL    HW2 2227   1.999   2.092   0.984
  737SOL     OW 2228   1.881   2.230   0.647
  737SOL    HW1 2229   1.799   2.273   0.686
  737SOL    HW2 2230   1.853   2.157   0.584
  738SOL     OW 2231   2.630   3.006   1.023
  738SOL    HW1 2232   2.552   3.023   1.083
  738SOL    HW2 2233   2.664   3.093   0.987
  739SOL     OW 2234   2.712   2.660   1.823
  739SOL    HW1 2235   2.708   2.736   1.888
  739SOL    HW2 2236   2.734   2.696   1.732
  740SOL     OW 2237   2.547   2.874   0.665
  740SOL    HW1 2238   2.616   2.858   0.735
  740SOL    HW2 2239   2.474   2.931   0.703
  741SOL     OW 2240   2.300   2.254   1.499
  741SOL    HW1 2241   2.382   2.198   1.508
  741SOL    HW2 2242   2.219   2.196   1.503
  742SOL     OW 2243   2.102   2.953   0.886
  742SOL    HW1 2244   2.116   2.869   0.938
  742SOL    HW2 2245   2.047   3.017   0.941
  743SOL     OW 2246   2.468   2.826   0.123
  743SOL    HW1 2247   2.475   2.910   0.069
  743SOL    HW2 2248   2.514   2.839   0.211
  744SOL     OW 2249   1.984   2.505   0.563
  744SOL    HW1 2250   1.939   2.417   0.580
  744SOL    HW2 2251   1.983   2.559   0.647
  745SOL     OW 2252   1.975   2.599   1.597
  745SOL    HW1 2253   2.063   2.586   1.642
  745SOL    HW2 2254   1.962   2.696   1.575
  746SOL     OW 2255   2.671   1.866   0.502
  746SOL    HW1 2256   2.711   1.957   0.493
  746SOL    HW2 2257   2.571   1.874   0.508
  747SOL     OW 2258   2.059   2.838   1.264
  747SOL    HW1 2259   2.148   2.793   1.250
  747SOL    HW2 2260   1.986   2.773   1.245
  748SOL     OW 2261   2.179   2.113   1.801
  748SOL    HW1 2262   2.250   2.184   1.807
  748SOL    HW2 2263   2.091   2.152   1.829
  749SOL     OW 2264   2.460   2.591   0.270
  749SOL    HW1 2265   2.484   2.660   0.202
  749SOL    HW2 2266   2.382   2.624   0.324
  750SOL     OW 2267   2.669   2.467   1.465
  750SOL    HW1 2268   2.622   2.464   1.554
  750SOL    HW2 2269   2.618   2.412   1.399
  751SOL     OW 2270   2.835   2.752   1.572
  751SOL    HW1 2271   2.881   2.668   1.543
  751SOL    HW2 2272   2.779   2.786   1.497
  752SOL     OW 2273   2.853   2.272   1.242
  752SOL    HW1 2274   2.776   2.306   1.296
  752SOL    HW2 2275   2.819   2.221   1.163
  753SOL     OW 2276   2.903   2.563   0.429
  753SOL    HW1 2277   2.929   2.559   0.525
  753SOL    HW2 2278   2.818   2.512   0.415
  754SOL     OW 2279   1.938   2.673   0.789
  754SOL    HW1 2280   2.037   2.661   0.798
  754SOL    HW2 2281   1.914   2.768   0.810
  755SOL     OW 2282   2.727   2.210   0.195
  755SOL    HW1 2283   2.786   2.273   0.146
  755SOL    HW2 2284   2.746   2.116   0.166
  756SOL     OW 2285   2.412   2.058   0.885
  756SOL    HW1 2286   2.407   2.053   0.985
  756SOL    HW2 2287   2.414   2.154   0.856
  757SOL     OW 2288   2.064   2.147   1.498
  757SOL    HW1 2289   1.984   2.207   1.485
  757SOL    HW2 2290   2.054   2.098   1.584
  758SOL     OW 2291   2.244   2.562   0.480
  758SOL    HW1 2292   2.289   2.472   0.477
  758SOL    HW2 2293   2.150   2.551   0.513
  759SOL     OW 2294   2.476   1.984   0.117
  759SOL    HW1 2295   2.574   1.962   0.124
  759SOL    HW2 2296   2.445   1.967   0.024
  760SOL     OW 2297   2.643   2.126   1.749
  760SOL    HW1 2298   2.710   2.065   1.792
  760SOL    HW2 2299   2.570   2.145   1.814
  761SOL     OW 2300   2.784   2.365   0.899
  761SOL    HW1 2301   2.759   2.356   0.803
  761SOL    HW2 2302   2.832   2.283   0.930
  762SOL     OW 2303   2.401   1.926   0.512
  762SOL    HW1 2304   2.320   1.927   0.570
  762SOL    HW2 2305   2.404   2.009   0.457
  763SOL     OW 2306   2.797   2.098   0.480
  763SOL    HW1 2307   2.749   2.139   0.402
  763SOL    HW2 2308   2.896   2.096   0.461
  764SOL     OW 2309   2.894   2.411   0.016
  764SOL    HW1 2310   2.853   2.493  -0.023
  764SOL    HW2 2311   2.958   2.437   0.089
  765SOL     OW 2312   1.940   2.418   1.386
  765SOL    HW1 2313   2.032   2.417   1.345
  765SOL    HW2 2314   1.934   2.492   1.453
  766SOL     OW 2315   2.423   2.084   1.147
  766SOL    HW1 2316   2.461   2.000   1.184
  766SOL    HW2 2317   2.335   2.103   1.191
  767SOL     OW 2318   2.728   2.316   0.642
  767SOL    HW1 2319   2.696   2.388   0.580
  767SOL    HW2 2320   2.752   2.235   0.589
  768SOL     OW 2321   2.879   1.901   0.753
  768SOL    HW1 2322   2.807   1.906   0.684
  768SOL    HW2 2323   2.855   1.832   0.822
  769SOL     OW 2324   2.389   2.118   0.328
  769SOL    HW1 2325   2.416   2.059   0.253
  769SOL    HW2 2326   2.389   2.213   0.297
  770SOL     OW 2327   2.777   1.951   1.402
  770SOL    HW1 2328   2.802   1.931   1.307
  770SOL    HW2 2329   2.849   2.007   1.444
  771SOL     OW 2330   2.272   2.675   1.251
  771SOL    HW1 2331   2.358   2.687   1.301
  771SOL    HW2 2332   2.230   2.588   1.278
  772SOL     OW 2333   2.428   2.399   0.865
  772SOL    HW1 2334   2.440   2.465   0.791
  772SOL    HW2 2335   2.474   2.433   0.948
  773SOL     OW 2336   2.264   2.613   1.598
  773SOL    HW1 2337   2.332   2.668   1.551
  773SOL    HW2 2338   2.304   2.525   1.625
  774SOL     OW 2339   2.875   1.967   1.770
  774SOL    HW1 2340   2.881   2.052   1.718
  774SOL    HW2 2341   2.907   1.891   1.713
  775SOL     OW 2342   2.366   1.912   1.740
  775SOL    HW1 2343   2.324   1.855   1.670
  775SOL    HW2 2344   2.300   1.981   1.772
  776SOL     OW 2345   2.435   2.732   1.029
  776SOL    HW1 2346   2.479   2.821   1.020
  776SOL    HW2 2347   2.372   2.732   1.106
  777SOL     OW 2348   3.071   2.387   0.275
  777SOL    HW1 2349   3.084   2.303   0.329
  777SOL    HW2 2350   3.042   2.461   0.335
  778SOL     OW 2351   2.169   2.075   1.231
  778SOL    HW1 2352   2.146   2.112   1.321
  778SOL    HW2 2353   2.139   1.980   1.225
  779SOL     OW 2354   2.594   2.496   1.064
  779SOL    HW1 2355   2.653   2.470   0.988
  779SOL    HW2 2356   2.566   2.592   1.053
  780SOL     OW 2357   2.169   1.925   0.618
  780SOL    HW1 2358   2.158   2.019   0.651
  780SOL    HW2 2359   2.164   1.862   0.695
  781SOL     OW 2360   2.885   2.628   0.966
  781SOL    HW1 2361   2.900   2.649   1.062
  781SOL    HW2 2362   2.855   2.533   0.957
  782SOL     OW 2363   2.212   2.760   1.804
  782SOL    HW1 2364   2.288   2.804   1.852
  782SOL    HW2 2365   2.247   2.713   1.722
  783SOL     OW 2366   2.181   2.672   0.949
  783SOL    HW1 2367   2.274   2.708   0.954
  783SOL    HW2 2368   2.175   2.587   1.001
  784SOL     OW 2369   2.201   2.371   1.006
  784SOL    HW1 2370   2.149   2.288   0.989
  784SOL    HW2 2371   2.278   2.376   0.942
  785SOL     OW 2372   2.864   2.658   1.238
  785SOL    HW1 2373   2.905   2.626   1.324
  785SOL    HW2 2374   2.768   2.631   1.235
  786SOL     OW 2375   1.902   2.406   1.114
  786SOL    HW1 2376   1.987   2.373   1.073
  786SOL    HW2 2377   1.915   2.421   1.212
  787SOL     OW 2378   2.051   2.382   1.722
  787SOL    HW1 2379   2.110   2.342   1.652
  787SOL    HW2 2380   1.993   2.453   1.681
  788SOL     OW 2381   2.677   2.434   0.325
  788SOL    HW1 2382   2.684   2.345   0.279
  788SOL    HW2 2383   2.583   2.468   0.317
  789SOL     OW 2384   2.533   2.326   1.269
  789SOL    HW1 2385   2.499   2.237   1.239
  789SOL    HW2 2386   2.559   2.380   1.189
  790SOL     OW 2387   2.335   2.362   0.191
  790SOL    HW1 2388   2.396   2.442   0.195
  790SOL    HW2 2389   2.240   2.393   0.198
  791SOL     OW 2390   2.021   2.999   1.466
  791SOL    HW1 2391   2.043   2.938   1.542
  791SOL    HW2 2392   2.031   2.950   1.380
  792SOL     OW 2393   2.765   1.948   0.133
  792SOL    HW1 2394   2.816   1.949   0.047
  792SOL    HW2 2395   2.821   1.906   0.204
  793SOL     OW 2396   3.142   2.789   0.672
  793SOL    HW1 2397   3.202   2.708   0.674
  793SOL    HW2 2398   3.182   2.858   0.612
  794SOL     OW 2399   2.125   2.188   0.720
  794SOL    HW1 2400   2.046   2.239   0.686
  794SOL    HW2 2401   2.116   2.173   0.818
  795SOL     OW 2402   2.778   2.772   0.291
  795SOL    HW1 2403   2.841   2.810   0.223
  795SOL    HW2 2404   2.818   2.689   0.330
  796SOL     OW 2405   2.876   2.098   0.971
  796SOL    HW1 2406   2.868   2.062   0.878
  796SOL    HW2 2407   2.874   2.022   1.036
  797SOL     OW 2408   1.967   2.875   1.726
  797SOL    HW1 2409   1.890   2.842   1.780
  797SOL    HW2 2410   2.052   2.845   1.768
  798SOL     OW 2411   2.534   2.065   1.489
  798SOL    HW1 2412   2.624   2.049   1.449
  798SOL    HW2 2413   2.542   2.070   1.588
  799SOL     OW 2414   1.937   2.207   0.033
  799SOL    HW1 2415   1.845   2.179   0.004
  799SOL    HW2 2416   1.968   2.284  -0.023
  800SOL     OW 2417   1.934   2.028   0.318
  800SOL    HW1 2418   1.917   2.111   0.264
  800SOL    HW2 2419   2.024   1.991   0.296
  801SOL     OW 2420   2.475   2.704   1.431
  801SOL    HW1 2421   2.531   2.785   1.414
  801SOL    HW2 2422   2.534   2.624   1.434
  802SOL     OW 2423   2.578   2.427   1.708
  802SOL    HW1 2424   2.597   2.492   1.782
  802SOL    HW2 2425   2.638   2.347   1.717
  803SOL     OW 2426   3.087   2.187   0.449
  803SOL    HW1 2427   3.152   2.113   0.438
  803SOL    HW2 2428   3.107   2.237   0.533
  804SOL     OW 2429   2.456   2.607   0.652
  804SOL    HW1 2430   2.506   2.692   0.633
  804SOL    HW2 2431   2.368   2.609   0.604
  805SOL     OW 2432   2.721   2.818   0.861
  805SOL    HW1 2433   2.775   2.749   0.909
  805SOL    HW2 2434   2.689   2.887   0.927
  806SOL     OW 2435   1.941   3.102   0.653
  806SOL    HW1 2436   1.940   3.055   0.741
  806SOL    HW2 2437   2.023   3.074   0.602
  807SOL     OW 2438   2.290   2.286   0.520
  807SOL    HW1 2439   2.320   2.214   0.458
  807SOL    HW2 2440   2.251   2.246   0.603
  808SOL     OW 2441   2.179   2.409   1.280
  808SOL    HW1 2442   2.217   2.350   1.352
  808SOL    HW2 2443   2.219   2.383   1.192
  809SOL     OW 2444   2.863   1.896   1.154
  809SOL    HW1 2445   2.800   1.824   1.123
  809SOL    HW2 2446   2.956   1.860   1.154
  810SOL     OW 2447   1.901   2.939   0.300
  810SOL    HW1 2448   2.000   2.928   0.291
  810SOL    HW2 2449   1.861   2.853   0.332
  811SOL     OW 2450   2.092   2.490   1.975
  811SOL    HW1 2451   1.999   2.488   2.012
  811SOL    HW2 2452   2.093   2.451   1.883
  812SOL     OW 2453   2.087   2.137   2.858
  812SOL    HW1 2454   2.122   2.120   2.950
  812SOL    HW2 2455   1.999   2.092   2.846
  813SOL     OW 2456   1.881   2.230   2.509
  813SOL    HW1 2457   1.799   2.273   2.548
  813SOL    HW2 2458   1.853   2.157   2.446
  814SOL     OW 2459   2.547   2.874   2.527
  814SOL    HW1 2460   2.616   2.858   2.597
  814SOL    HW2 2461   2.474   2.931   2.565
  815SOL     OW 2462   2.102   2.953   2.748
  815SOL    HW1 2463   2.116   2.869   2.800
  815SOL    HW2 2464   2.047   3.017   2.803
  816SOL     OW 2465   2.468   2.826   1.985
  816SOL    HW1 2466   2.475   2.910   1.931
  816SOL    HW2 2467   2.514   2.839   2.073
  817SOL     OW 2468   1.984   2.505   2.425
  817SOL    HW1 2469   1.939   2.417   2.442
  817SOL    HW2 2470   1.983   2.559   2.509
  818SOL     OW 2471   2.671   1.866   2.364
  818SOL    HW1 2472   2.711   1.957   2.355
  818SOL    HW2 2473   2.571   1.874   2.370
  819SOL     OW 2474   2.059   2.838   3.126
  819SOL    HW1 2475   2.148   2.793   3.112
  819SOL    HW2 2476   1.986   2.773   3.107
  820SOL     OW 2477   2.460   2.591   2.132
  820SOL    HW1 2478   2.484   2.660   2.064
  820SOL    HW2 2479   2.382   2.624   2.186
  821SOL     OW 2480   2.903   2.563   2.291
  821SOL    HW1 2481   2.929   2.559   2.387
  821SOL    HW2 2482   2.818   2.512   2.277
  822SOL     OW 2483   1.938   2.673   2.651
  822SOL    HW1 2484   2.037   2.661   2.660
  822SOL    HW2 2485   1.914   2.768   2.672
  823SOL     OW 2486   2.727   2.210   2.057
  823SOL    HW1 2487   2.786   2.273   2.008
  823SOL    HW2 2488   2.746   2.116   2.028
  824SOL     OW 2489   2.412   2.058   2.747
  824SOL    HW1 2490   2.407   2.053   2.847
  824SOL    HW2 2491   2.414   2.154   2.718
  825SOL     OW 2492   2.244   2.562   2.342
  825SOL    HW1 2493   2.289   2.472   2.339
  825SOL    HW2 2494   2.150   2.551   2.375
  826SOL     OW 2495   2.476   1.984   1.979
  826SOL    HW1 2496   2.574   1.962   1.986
  826SOL    HW2 2497   2.445   1.967   1.886
  827SOL     OW 2498   2.784   2.365   2.761
  827SOL    HW1 2499   2.759   2.356   2.665
  827SOL    HW2 2500   2.832   2.283   2.792
  828SOL     OW 2501   2.401   1.926   2.374
  828SOL    HW1 2502   2.320   1.927   2.432
  828SOL    HW2 2503   2.404   2.009   2.319
  829SOL     OW 2504   2.159   1.897   2.033
  829SOL    HW1 2505   2.208   1.981   2.012
  829SOL    HW2 2506   2.221   1.832   2.078
  830SOL     OW 2507   2.797   2.098   2.342
  830SOL    HW1 2508   2.749   2.139   2.264
  830SOL    HW2 2509   2.896   2.096   2.323
  831SOL     OW 2510   2.894   2.411   1.878
  831SOL    HW1 2511   2.853   2.493   1.839
  831SOL    HW2 2512   2.958   2.437   1.951
  832SOL     OW 2513   2.728   2.316   2.504
  832SOL    HW1 2514   2.696   2.388   2.442
  832SOL    HW2 2515   2.752   2.235   2.451
  833SOL     OW 2516   2.879   1.901   2.615
  833SOL    HW1 2517   2.807   1.906   2.546
  833SOL    HW2 2518   2.855   1.832   2.684
  834SOL     OW 2519   2.389   2.118   2.190
  834SOL    HW1 2520   2.416   2.059   2.115
  834SOL    HW2 2521   2.389   2.213   2.159
  835SOL     OW 2522   2.428   2.399   2.727
  835SOL    HW1 2523   2.440   2.465   2.653
  835SOL    HW2 2524   2.474   2.433   2.810
  836SOL     OW 2525   2.435   2.732   2.891
  836SOL    HW1 2526   2.479   2.821   2.882
  836SOL    HW2 2527   2.372   2.732   2.968
  837SOL     OW 2528   3.071   2.387   2.137
  837SOL    HW1 2529   3.084   2.303   2.191
  837SOL    HW2 2530   3.042   2.461   2.197
  838SOL     OW 2531   2.169   2.075   3.093
  838SOL    HW1 2532   2.146   2.112   3.183
  838SOL    HW2 2533   2.139   1.980   3.087
  839SOL     OW 2534   2.594   2.496   2.926
  839SOL    HW1 2535   2.653   2.470   2.850
  839SOL    HW2 2536   2.566   2.592   2.915
  840SOL     OW 2537   2.169   1.925   2.480
  840SOL    HW1 2538   2.158   2.019   2.513
  840SOL    HW2 2539   2.164   1.862   2.557
  841SOL     OW 2540   2.181   2.672   2.811
  841SOL    HW1 2541   2.274   2.708   2.816
  841SOL    HW2 2542   2.175   2.587   2.863
  842SOL     OW 2543   2.201   2.371   2.868
  842SOL    HW1 2544   2.149   2.288   2.851
  842SOL    HW2 2545   2.278   2.376   2.804
  843SOL     OW 2546   2.864   2.658   3.100
  843SOL    HW1 2547   2.905   2.626   3.186
  843SOL    HW2 2548   2.768   2.631   3.097
  844SOL     OW 2549   2.677   2.434   2.187
  844SOL    HW1 2550   2.684   2.345   2.141
  844SOL    HW2 2551   2.583   2.468   2.179
  845SOL     OW 2552   2.533   2.326   3.131
  845SOL    HW1 2553   2.499   2.237   3.101
  845SOL    HW2 2554   2.559   2.380   3.051
  846SOL     OW 2555   2.335   2.362   2.053
  846SOL    HW1 2556   2.396   2.442   2.057
  846SOL    HW2 2557   2.240   2.393   2.060
  847SOL     OW 2558   3.164   2.717   2.171
  847SOL    HW1 2559   3.078   2.686   2.213
  847SOL    HW2 2560   3.160   2.703   2.072
  848SOL     OW 2561   3.142   2.789   2.534
  848SOL    HW1 2562   3.202   2.708   2.536
  848SOL    HW2 2563   3.182   2.858   2.474
  849SOL     OW 2564   2.125   2.188   2.582
  849SOL    HW1 2565   2.046   2.239   2.548
  849SOL    HW2 2566   2.116   2.173   2.680
  850SOL     OW 2567   2.778   2.772   2.153
  850SOL    HW1 2568   2.841   2.810   2.085
  850SOL    HW2 2569   2.818   2.689   2.192
  851SOL     OW 2570   2.876   2.098   2.833
  851SOL    HW1 2571   2.868   2.062   2.740
  851SOL    HW2 2572   2.874   2.022   2.898
  852SOL     OW 2573   1.937   2.207   1.895
  852SOL    HW1 2574   1.845   2.179   1.866
  852SOL    HW2 2575   1.968   2.284   1.839
  853SOL     OW 2576   1.934   2.028   2.180
  853SOL    HW1 2577   1.917   2.111   2.126
  853SOL    HW2 2578   2.024   1.991   2.158
  854SOL     OW 2579   3.087   2.187   2.311
  854SOL    HW1 2580   3.152   2.113   2.300
  854SOL    HW2 2581   3.107   2.237   2.395
  855SOL     OW 2582   2.456   2.607   2.514
  855SOL    HW1 2583   2.506   2.692   2.495
  855SOL    HW2 2584   2.368   2.609   2.466
  856SOL     OW 2585   2.721   2.818   2.723
  856SOL    HW1 2586   2.775   2.749   2.771
  856SOL    HW2 2587   2.689   2.887   2.789
  857SOL     OW 2588   1.941   3.102   2.515
  857SOL    HW1 2589   1.940   3.055   2.603
  857SOL    HW2 2590   2.023   3.074   2.464
  858SOL     OW 2591   2.290   2.286   2.382
  858SOL    HW1 2592   2.320   2.214   2.320
  858SOL    HW2 2593   2.251   2.246   2.465
  859SOL     OW 2594   1.901   2.939   2.162
  859SOL    HW1 2595   2.000   2.928   2.153
  859SOL    HW2 2596   1.861   2.853   2.194
   2.95427   2.95427   2.95427
