mobley_2364370_GMX.gro created by acpype (v: 2023.10.27) on Thu May 14 13:43:22 2026
 2420
    1MOL     C1    1   1.215   1.331   1.470
    1MOL     C2    2   1.092   1.350   1.386
    1MOL     C3    3   1.767   1.604   1.446
    1MOL     C4    4   1.669   1.507   1.509
    1MOL     C5    5   1.534   1.510   1.438
    1MOL     C6    6   1.437   1.409   1.498
    1MOL     O1    7   1.224   1.252   1.562
    1MOL     O2    8   1.314   1.416   1.427
    1MOL     H1    9   1.115   1.326   1.282
    1MOL     H2   10   1.056   1.452   1.395
    1MOL     H3   11   1.014   1.282   1.422
    1MOL     H4   12   1.785   1.579   1.341
    1MOL     H5   13   1.730   1.706   1.451
    1MOL     H6   14   1.864   1.600   1.498
    1MOL     H7   15   1.711   1.405   1.505
    1MOL     H8   16   1.656   1.532   1.615
    1MOL     H9   17   1.490   1.610   1.444
    1MOL    H10   18   1.547   1.488   1.331
    1MOL    H11   19   1.476   1.308   1.491
    1MOL    H12   20   1.417   1.432   1.604
    2SOL     OW   21   0.230   0.628   0.113
    2SOL    HW1   22   0.137   0.626   0.150
    2SOL    HW2   23   0.231   0.589   0.021
    3SOL     OW   24   0.225   0.275   0.996
    3SOL    HW1   25   0.260   0.258   1.088
    3SOL    HW2   26   0.137   0.230   0.984
    4SOL     OW   27   0.019   0.368   0.647
    4SOL    HW1   28  -0.063   0.411   0.686
    4SOL    HW2   29  -0.009   0.295   0.584
    5SOL     OW   30   0.569   1.275   1.165
    5SOL    HW1   31   0.476   1.268   1.128
    5SOL    HW2   32   0.580   1.364   1.209
    6SOL     OW   33   1.555   1.511   0.703
    6SOL    HW1   34   1.498   1.495   0.784
    6SOL    HW2   35   1.496   1.521   0.623
    7SOL     OW   36   1.135   0.703   0.717
    7SOL    HW1   37   1.192   0.781   0.692
    7SOL    HW2   38   1.075   0.729   0.793
    8SOL     OW   39   1.755   0.607   0.231
    8SOL    HW1   40   1.743   0.594   0.132
    8SOL    HW2   41   1.725   0.526   0.280
    9SOL     OW   42   0.768   1.144   1.023
    9SOL    HW1   43   0.690   1.161   1.083
    9SOL    HW2   44   0.802   1.231   0.987
   10SOL     OW   45   0.850   0.798   1.823
   10SOL    HW1   46   0.846   0.874   1.888
   10SOL    HW2   47   0.872   0.834   1.732
   11SOL     OW   48   0.685   1.012   0.665
   11SOL    HW1   49   0.754   0.996   0.735
   11SOL    HW2   50   0.612   1.069   0.703
   12SOL     OW   51   0.686   1.161   1.803
   12SOL    HW1   52   0.746   1.240   1.817
   12SOL    HW2   53   0.600   1.192   1.762
   13SOL     OW   54   0.335   1.435   1.061
   13SOL    HW1   55   0.257   1.404   1.008
   13SOL    HW2   56   0.393   1.493   1.004
   14SOL     OW   57   0.438   0.392   1.499
   14SOL    HW1   58   0.520   0.336   1.508
   14SOL    HW2   59   0.357   0.334   1.503
   15SOL     OW   60   1.603   0.447   0.737
   15SOL    HW1   61   1.529   0.493   0.687
   15SOL    HW2   62   1.654   0.515   0.790
   16SOL     OW   63   0.231   1.713   0.483
   16SOL    HW1   64   0.265   1.790   0.537
   16SOL    HW2   65   0.275   1.713   0.393
   17SOL     OW   66   1.127   1.341   1.690
   17SOL    HW1   67   1.174   1.341   1.778
   17SOL    HW2   68   1.079   1.254   1.679
   18SOL     OW   69   0.230   1.434   0.538
   18SOL    HW1   70   0.204   1.530   0.538
   18SOL    HW2   71   0.159   1.380   0.583
   19SOL     OW   72   0.240   1.091   0.886
   19SOL    HW1   73   0.254   1.007   0.938
   19SOL    HW2   74   0.185   1.155   0.941
   20SOL     OW   75   0.620   1.786   1.439
   20SOL    HW1   76   0.528   1.769   1.474
   20SOL    HW2   77   0.648   1.878   1.465
   21SOL     OW   78   0.606   0.964   0.123
   21SOL    HW1   79   0.613   1.048   0.069
   21SOL    HW2   80   0.652   0.977   0.211
   22SOL     OW   81   1.594   0.114   1.480
   22SOL    HW1   82   1.576   0.181   1.408
   22SOL    HW2   83   1.591   0.160   1.569
   23SOL     OW   84   0.122   0.643   0.563
   23SOL    HW1   85   0.077   0.555   0.580
   23SOL    HW2   86   0.121   0.697   0.647
   24SOL     OW   87   1.842   1.767   0.359
   24SOL    HW1   88   1.896   1.738   0.439
   24SOL    HW2   89   1.872   1.857   0.330
   25SOL     OW   90   0.027   1.596   0.117
   25SOL    HW1   91   0.008   1.500   0.138
   25SOL    HW2   92  -0.006   1.654   0.192
   26SOL     OW   93   1.689   0.922   0.612
   26SOL    HW1   94   1.784   0.893   0.620
   26SOL    HW2   95   1.681   0.987   0.537
   27SOL     OW   96   1.641   1.108   0.432
   27SOL    HW1   97   1.727   1.110   0.380
   27SOL    HW2   98   1.655   1.155   0.520
   28SOL     OW   99   0.113   0.737   1.597
   28SOL    HW1  100   0.201   0.724   1.642
   28SOL    HW2  101   0.100   0.834   1.575
   29SOL     OW  102   0.613   1.365   0.726
   29SOL    HW1  103   0.564   1.278   0.735
   29SOL    HW2  104   0.590   1.408   0.639
   30SOL     OW  105   0.809   0.004   0.502
   30SOL    HW1  106   0.849   0.095   0.493
   30SOL    HW2  107   0.709   0.012   0.508
   31SOL     OW  108   0.197   0.976   1.264
   31SOL    HW1  109   0.286   0.931   1.250
   31SOL    HW2  110   0.124   0.911   1.245
   32SOL     OW  111   1.525   0.999   0.190
   32SOL    HW1  112   1.462   0.923   0.203
   32SOL    HW2  113   1.573   1.017   0.276
   33SOL     OW  114   1.187   1.792   1.616
   33SOL    HW1  115   1.211   1.852   1.540
   33SOL    HW2  116   1.194   1.697   1.586
   34SOL     OW  117   0.317   0.251   1.801
   34SOL    HW1  118   0.388   0.322   1.807
   34SOL    HW2  119   0.229   0.290   1.829
   35SOL     OW  120   1.466   1.417   0.953
   35SOL    HW1  121   1.407   1.423   1.033
   35SOL    HW2  122   1.451   1.329   0.907
   36SOL     OW  123   1.667   1.714   0.572
   36SOL    HW1  124   1.626   1.691   0.484
   36SOL    HW2  125   1.649   1.640   0.637
   37SOL     OW  126   0.598   0.729   0.270
   37SOL    HW1  127   0.622   0.798   0.202
   37SOL    HW2  128   0.520   0.762   0.324
   38SOL     OW  129   1.281   0.345   0.944
   38SOL    HW1  130   1.195   0.295   0.931
   38SOL    HW2  131   1.343   0.291   1.000
   39SOL     OW  132   1.576   1.662   0.307
   39SOL    HW1  133   1.665   1.708   0.310
   39SOL    HW2  134   1.555   1.638   0.212
   40SOL     OW  135   0.807   0.605   1.465
   40SOL    HW1  136   0.760   0.602   1.554
   40SOL    HW2  137   0.756   0.550   1.399
   41SOL     OW  138   1.394   0.469   1.674
   41SOL    HW1  139   1.374   0.512   1.762
   41SOL    HW2  140   1.472   0.407   1.683
   42SOL     OW  141   0.973   0.890   1.572
   42SOL    HW1  142   1.019   0.806   1.543
   42SOL    HW2  143   0.917   0.924   1.497
   43SOL     OW  144   0.991   0.410   1.242
   43SOL    HW1  145   0.914   0.444   1.296
   43SOL    HW2  146   0.957   0.359   1.163
   44SOL     OW  147   1.041   0.701   0.429
   44SOL    HW1  148   1.067   0.697   0.525
   44SOL    HW2  149   0.956   0.650   0.415
   45SOL     OW  150   0.076   0.811   0.789
   45SOL    HW1  151   0.175   0.799   0.798
   45SOL    HW2  152   0.052   0.906   0.810
   46SOL     OW  153   0.130   1.821   1.571
   46SOL    HW1  154   0.120   1.806   1.670
   46SOL    HW2  155   0.044   1.857   1.535
   47SOL     OW  156   0.865   0.348   0.195
   47SOL    HW1  157   0.924   0.411   0.146
   47SOL    HW2  158   0.884   0.254   0.166
   48SOL     OW  159   1.719   0.585   1.831
   48SOL    HW1  160   1.693   0.674   1.795
   48SOL    HW2  161   1.717   0.517   1.758
   49SOL     OW  162   1.362   1.144   0.545
   49SOL    HW1  163   1.445   1.115   0.497
   49SOL    HW2  164   1.313   1.211   0.489
   50SOL     OW  165   0.550   0.196   0.885
   50SOL    HW1  166   0.545   0.191   0.985
   50SOL    HW2  167   0.552   0.292   0.856
   51SOL     OW  168   1.008   1.456   0.477
   51SOL    HW1  169   0.962   1.528   0.425
   51SOL    HW2  170   1.004   1.476   0.575
   52SOL     OW  171   0.351   1.801   0.853
   52SOL    HW1  172   0.401   1.715   0.859
   52SOL    HW2  173   0.416   1.878   0.850
   53SOL     OW  174   1.795   1.066   0.873
   53SOL    HW1  175   1.733   1.051   0.797
   53SOL    HW2  176   1.743   1.077   0.958
   54SOL     OW  177   1.227   1.550   1.506
   54SOL    HW1  178   1.233   1.473   1.570
   54SOL    HW2  179   1.175   1.524   1.426
   55SOL     OW  180   0.321   0.943   0.242
   55SOL    HW1  181   0.403   0.982   0.200
   55SOL    HW2  182   0.294   0.861   0.193
   56SOL     OW  183   1.458   0.735   0.728
   56SOL    HW1  184   1.453   0.670   0.803
   56SOL    HW2  185   1.538   0.794   0.741
   57SOL     OW  186   0.461   1.266   1.727
   57SOL    HW1  187   0.411   1.267   1.641
   57SOL    HW2  188   0.398   1.248   1.803
   58SOL     OW  189   1.111   1.776   0.237
   58SOL    HW1  190   1.051   1.714   0.287
   58SOL    HW2  191   1.142   1.732   0.152
   59SOL     OW  192   0.202   0.285   1.498
   59SOL    HW1  193   0.122   0.345   1.485
   59SOL    HW2  194   0.192   0.236   1.584
   60SOL     OW  195   1.632   1.377   0.081
   60SOL    HW1  196   1.600   1.471   0.071
   60SOL    HW2  197   1.556   1.314   0.069
   61SOL     OW  198   0.464   1.743   0.323
   61SOL    HW1  199   0.497   1.782   0.409
   61SOL    HW2  200   0.540   1.736   0.258
   62SOL     OW  201   1.400   0.107   0.426
   62SOL    HW1  202   1.376   0.070   0.336
   62SOL    HW2  203   1.499   0.123   0.430
   63SOL     OW  204   0.249   1.785   1.241
   63SOL    HW1  205   0.306   1.720   1.291
   63SOL    HW2  206   0.233   1.752   1.148
   64SOL     OW  207   0.940   1.698   0.904
   64SOL    HW1  208   1.020   1.641   0.925
   64SOL    HW2  209   0.891   1.658   0.827
   65SOL     OW  210   0.382   0.700   0.480
   65SOL    HW1  211   0.427   0.610   0.477
   65SOL    HW2  212   0.288   0.689   0.513
   66SOL     OW  213   1.547   0.222   1.729
   66SOL    HW1  214   1.542   0.259   1.821
   66SOL    HW2  215   1.475   0.153   1.717
   67SOL     OW  216   0.614   0.122   0.117
   67SOL    HW1  217   0.712   0.100   0.124
   67SOL    HW2  218   0.583   0.105   0.024
   68SOL     OW  219   0.781   0.264   1.749
   68SOL    HW1  220   0.848   0.203   1.792
   68SOL    HW2  221   0.708   0.283   1.814
   69SOL     OW  222   0.888   1.514   1.195
   69SOL    HW1  223   0.865   1.489   1.101
   69SOL    HW2  224   0.949   1.445   1.234
   70SOL     OW  225   1.351   0.590   1.433
   70SOL    HW1  226   1.379   0.547   1.518
   70SOL    HW2  227   1.376   0.686   1.434
   71SOL     OW  228   0.803   1.402   0.924
   71SOL    HW1  229   0.893   1.416   0.882
   71SOL    HW2  230   0.732   1.404   0.853
   72SOL     OW  231   0.922   0.503   0.899
   72SOL    HW1  232   0.897   0.494   0.803
   72SOL    HW2  233   0.970   0.421   0.930
   73SOL     OW  234   0.539   0.064   0.512
   73SOL    HW1  235   0.458   0.065   0.570
   73SOL    HW2  236   0.542   0.147   0.457
   74SOL     OW  237   1.434   1.188   0.041
   74SOL    HW1  238   1.466   1.112   0.098
   74SOL    HW2  239   1.342   1.215   0.071
   75SOL     OW  240   0.297   0.035   0.171
   75SOL    HW1  241   0.346   0.119   0.150
   75SOL    HW2  242   0.359  -0.030   0.216
   76SOL     OW  243   0.935   0.236   0.480
   76SOL    HW1  244   0.887   0.277   0.402
   76SOL    HW2  245   1.034   0.234   0.461
   77SOL     OW  246   1.076   0.683   1.464
   77SOL    HW1  247   0.996   0.622   1.467
   77SOL    HW2  248   1.157   0.630   1.440
   78SOL     OW  249   1.227   1.570   0.793
   78SOL    HW1  250   1.248   1.644   0.728
   78SOL    HW2  251   1.295   1.570   0.866
   79SOL     OW  252   0.459   1.152   0.741
   79SOL    HW1  253   0.388   1.125   0.806
   79SOL    HW2  254   0.433   1.124   0.648
   80SOL     OW  255   1.271   1.797   0.591
   80SOL    HW1  256   1.315   1.861   0.527
   80SOL    HW2  257   1.221   1.849   0.661
   81SOL     OW  258   1.032   0.549   0.016
   81SOL    HW1  259   0.991   0.631  -0.023
   81SOL    HW2  260   1.096   0.575   0.089
   82SOL     OW  261   0.078   0.556   1.386
   82SOL    HW1  262   0.170   0.555   1.345
   82SOL    HW2  263   0.072   0.630   1.453
   83SOL     OW  264   0.561   0.222   1.147
   83SOL    HW1  265   0.599   0.138   1.184
   83SOL    HW2  266   0.473   0.241   1.191
   84SOL     OW  267   0.866   0.454   0.642
   84SOL    HW1  268   0.834   0.526   0.580
   84SOL    HW2  269   0.890   0.373   0.589
   85SOL     OW  270   1.017   0.039   0.753
   85SOL    HW1  271   0.945   0.044   0.684
   85SOL    HW2  272   0.993  -0.030   0.822
   86SOL     OW  273   1.429   1.173   0.867
   86SOL    HW1  274   1.374   1.089   0.860
   86SOL    HW2  275   1.455   1.202   0.775
   87SOL     OW  276   1.466   0.590   0.992
   87SOL    HW1  277   1.436   0.495   0.999
   87SOL    HW2  278   1.539   0.606   1.058
   88SOL     OW  279   1.857   0.833   0.377
   88SOL    HW1  280   1.899   0.769   0.441
   88SOL    HW2  281   1.819   0.782   0.299
   89SOL     OW  282   0.488   1.385   0.174
   89SOL    HW1  283   0.401   1.370   0.221
   89SOL    HW2  284   0.471   1.411   0.079
   90SOL     OW  285   1.664   1.280   0.657
   90SOL    HW1  286   1.763   1.288   0.671
   90SOL    HW2  287   1.619   1.364   0.688
   91SOL     OW  288   1.390   0.575   0.078
   91SOL    HW1  289   1.336   0.554   0.159
   91SOL    HW2  290   1.481   0.534   0.087
   92SOL     OW  291   0.527   0.256   0.328
   92SOL    HW1  292   0.554   0.197   0.253
   92SOL    HW2  293   0.527   0.351   0.297
   93SOL     OW  294   1.754   1.223   1.588
   93SOL    HW1  295   1.845   1.184   1.575
   93SOL    HW2  296   1.762   1.319   1.612
   94SOL     OW  297   1.111   1.195   1.100
   94SOL    HW1  298   1.071   1.239   1.181
   94SOL    HW2  299   1.070   1.232   1.017
   95SOL     OW  300   1.638   1.099   1.079
   95SOL    HW1  301   1.643   1.180   1.138
   95SOL    HW2  302   1.552   1.101   1.028
   96SOL     OW  303   0.915   0.089   1.402
   96SOL    HW1  304   0.940   0.069   1.307
   96SOL    HW2  305   0.987   0.145   1.444
   97SOL     OW  306   0.980   1.116   1.719
   97SOL    HW1  307   0.881   1.122   1.729
   97SOL    HW2  308   1.003   1.036   1.663
   98SOL     OW  309   0.705   1.050   0.368
   98SOL    HW1  310   0.691   1.057   0.467
   98SOL    HW2  311   0.789   0.999   0.350
   99SOL     OW  312   0.410   0.813   1.251
   99SOL    HW1  313   0.496   0.825   1.301
   99SOL    HW2  314   0.368   0.726   1.278
  100SOL     OW  315   1.274   0.386   1.262
  100SOL    HW1  316   1.295   0.460   1.326
  100SOL    HW2  317   1.185   0.403   1.219
  101SOL     OW  318   0.064   1.564   1.331
  101SOL    HW1  319   0.018   1.646   1.297
  101SOL    HW2  320   0.162   1.583   1.340
  102SOL     OW  321   0.367   1.100   0.501
  102SOL    HW1  322   0.360   1.183   0.445
  102SOL    HW2  323   0.371   1.020   0.441
  103SOL     OW  324   0.566   0.537   0.865
  103SOL    HW1  325   0.578   0.603   0.791
  103SOL    HW2  326   0.612   0.571   0.948
  104SOL     OW  327   1.252   1.348   0.388
  104SOL    HW1  328   1.302   1.425   0.428
  104SOL    HW2  329   1.157   1.350   0.420
  105SOL     OW  330   1.272   1.445   1.142
  105SOL    HW1  331   1.319   1.458   1.229
  105SOL    HW2  332   1.206   1.371   1.151
  106SOL     OW  333   1.582   0.639   0.472
  106SOL    HW1  334   1.551   0.700   0.545
  106SOL    HW2  335   1.632   0.691   0.403
  107SOL     OW  336   0.354   1.510   1.329
  107SOL    HW1  337   0.333   1.466   1.242
  107SOL    HW2  338   0.451   1.536   1.332
  108SOL     OW  339   0.402   0.751   1.598
  108SOL    HW1  340   0.470   0.806   1.551
  108SOL    HW2  341   0.442   0.663   1.625
  109SOL     OW  342   1.587   0.779   1.670
  109SOL    HW1  343   1.495   0.817   1.665
  109SOL    HW2  344   1.647   0.826   1.605
  110SOL     OW  345   1.013   0.105   1.770
  110SOL    HW1  346   1.019   0.190   1.718
  110SOL    HW2  347   1.045   0.029   1.713
  111SOL     OW  348   0.504   0.050   1.740
  111SOL    HW1  349   0.462  -0.007   1.670
  111SOL    HW2  350   0.438   0.119   1.772
  112SOL     OW  351   0.573   0.870   1.029
  112SOL    HW1  352   0.617   0.959   1.020
  112SOL    HW2  353   0.510   0.870   1.106
  113SOL     OW  354   1.360   0.862   1.045
  113SOL    HW1  355   1.285   0.862   0.979
  113SOL    HW2  356   1.397   0.770   1.054
  114SOL     OW  357   1.209   0.525   0.275
  114SOL    HW1  358   1.222   0.441   0.329
  114SOL    HW2  359   1.180   0.599   0.335
  115SOL     OW  360   0.307   0.213   1.231
  115SOL    HW1  361   0.284   0.250   1.321
  115SOL    HW2  362   0.277   0.118   1.225
  116SOL     OW  363   0.037   1.310   1.282
  116SOL    HW1  364   0.090   1.261   1.350
  116SOL    HW2  365   0.059   1.408   1.287
  117SOL     OW  366   0.732   0.634   1.064
  117SOL    HW1  367   0.791   0.608   0.988
  117SOL    HW2  368   0.704   0.730   1.053
  118SOL     OW  369   1.728   0.935   1.854
  118SOL    HW1  370   1.682   0.928   1.765
  118SOL    HW2  371   1.666   0.979   1.920
  119SOL     OW  372   0.307   0.063   0.618
  119SOL    HW1  373   0.296   0.157   0.651
  119SOL    HW2  374   0.302   0.000   0.695
  120SOL     OW  375   1.622   0.367   0.374
  120SOL    HW1  376   1.624   0.291   0.438
  120SOL    HW2  377   1.574   0.444   0.414
  121SOL     OW  378   1.023   0.766   0.966
  121SOL    HW1  379   1.038   0.787   1.062
  121SOL    HW2  380   0.993   0.671   0.957
  122SOL     OW  381   0.980   1.573   1.700
  122SOL    HW1  382   0.960   1.617   1.612
  122SOL    HW2  383   1.019   1.482   1.684
  123SOL     OW  384   0.350   0.898   1.804
  123SOL    HW1  385   0.426   0.942   1.852
  123SOL    HW2  386   0.385   0.851   1.722
  124SOL     OW  387   1.540   0.274   0.125
  124SOL    HW1  388   1.479   0.199   0.148
  124SOL    HW2  389   1.562   0.326   0.208
  125SOL     OW  390   1.303   0.838   0.042
  125SOL    HW1  391   1.337   0.745   0.057
  125SOL    HW2  392   1.321   0.865  -0.053
  126SOL     OW  393   1.068   1.333   0.849
  126SOL    HW1  394   1.075   1.249   0.794
  126SOL    HW2  395   1.130   1.402   0.813
  127SOL     OW  396   0.319   0.810   0.949
  127SOL    HW1  397   0.412   0.846   0.954
  127SOL    HW2  398   0.313   0.725   1.001
  128SOL     OW  399   0.339   0.509   1.006
  128SOL    HW1  400   0.287   0.426   0.989
  128SOL    HW2  401   0.416   0.514   0.942
  129SOL     OW  402   1.138   0.380   1.678
  129SOL    HW1  403   1.093   0.443   1.742
  129SOL    HW2  404   1.231   0.411   1.661
  130SOL     OW  405   1.160   0.207   1.477
  130SOL    HW1  406   1.160   0.271   1.554
  130SOL    HW2  407   1.188   0.255   1.394
  131SOL     OW  408   0.008   1.326   0.200
  131SOL    HW1  409  -0.085   1.347   0.169
  131SOL    HW2  410   0.018   1.227   0.213
  132SOL     OW  411   0.088   1.801   0.927
  132SOL    HW1  412   0.046   1.715   0.900
  132SOL    HW2  413   0.182   1.804   0.893
  133SOL     OW  414   0.504   1.568   0.910
  133SOL    HW1  415   0.570   1.642   0.919
  133SOL    HW2  416   0.548   1.489   0.868
  134SOL     OW  417   1.002   0.796   1.238
  134SOL    HW1  418   1.043   0.764   1.324
  134SOL    HW2  419   0.906   0.769   1.235
  135SOL     OW  420   0.040   0.544   1.114
  135SOL    HW1  421   0.125   0.511   1.073
  135SOL    HW2  422   0.053   0.559   1.212
  136SOL     OW  423   0.189   0.520   1.722
  136SOL    HW1  424   0.248   0.480   1.652
  136SOL    HW2  425   0.131   0.591   1.681
  137SOL     OW  426   1.369   0.950   1.660
  137SOL    HW1  427   1.408   1.039   1.680
  137SOL    HW2  428   1.379   0.930   1.563
  138SOL     OW  429   0.815   0.572   0.325
  138SOL    HW1  430   0.822   0.483   0.279
  138SOL    HW2  431   0.721   0.606   0.317
  139SOL     OW  432   1.657   0.604   1.206
  139SOL    HW1  433   1.619   0.535   1.268
  139SOL    HW2  434   1.739   0.568   1.162
  140SOL     OW  435   0.252   1.564   1.744
  140SOL    HW1  436   0.222   1.621   1.820
  140SOL    HW2  437   0.245   1.467   1.770
  141SOL     OW  438   0.671   0.464   1.269
  141SOL    HW1  439   0.637   0.375   1.239
  141SOL    HW2  440   0.697   0.518   1.189
  142SOL     OW  441   0.930   1.678   1.465
  142SOL    HW1  442   0.906   1.660   1.370
  142SOL    HW2  443   0.960   1.772   1.475
  143SOL     OW  444   0.473   0.500   0.191
  143SOL    HW1  445   0.534   0.580   0.195
  143SOL    HW2  446   0.378   0.531   0.198
  144SOL     OW  447   0.159   1.137   1.466
  144SOL    HW1  448   0.181   1.076   1.542
  144SOL    HW2  449   0.169   1.088   1.380
  145SOL     OW  450   1.347   1.059   1.234
  145SOL    HW1  451   1.371   0.996   1.160
  145SOL    HW2  452   1.257   1.099   1.216
  146SOL     OW  453   1.302   0.855   0.309
  146SOL    HW1  454   1.216   0.824   0.351
  146SOL    HW2  455   1.298   0.841   0.210
  147SOL     OW  456   1.759   1.747   1.154
  147SOL    HW1  457   1.820   1.777   1.081
  147SOL    HW2  458   1.721   1.658   1.132
  148SOL     OW  459   1.252   1.731   1.128
  148SOL    HW1  460   1.336   1.736   1.074
  148SOL    HW2  461   1.229   1.635   1.146
  149SOL     OW  462   0.083   1.258   1.022
  149SOL    HW1  463   0.078   1.257   1.122
  149SOL    HW2  464   0.000   1.217   0.984
  150SOL     OW  465   0.688   1.662   1.716
  150SOL    HW1  466   0.632   1.743   1.725
  150SOL    HW2  467   0.740   1.666   1.630
  151SOL     OW  468   0.903   0.086   0.133
  151SOL    HW1  469   0.954   0.087   0.047
  151SOL    HW2  470   0.959   0.044   0.204
  152SOL     OW  471   1.726   0.135   0.523
  152SOL    HW1  472   1.799   0.118   0.456
  152SOL    HW2  473   1.695   0.048   0.561
  153SOL     OW  474   1.388   1.573   0.477
  153SOL    HW1  475   1.455   1.585   0.403
  153SOL    HW2  476   1.348   1.662   0.500
  154SOL     OW  477   0.130   1.794   1.851
  154SOL    HW1  478   0.089   1.720   1.904
  154SOL    HW2  479   0.194   1.845   1.909
  155SOL     OW  480   1.280   0.927   0.672
  155SOL    HW1  481   1.340   0.846   0.674
  155SOL    HW2  482   1.320   0.996   0.612
  156SOL     OW  483   0.830   1.273   1.422
  156SOL    HW1  484   0.825   1.306   1.517
  156SOL    HW2  485   0.744   1.292   1.376
  157SOL     OW  486   0.672   1.616   0.154
  157SOL    HW1  487   0.681   1.626   0.055
  157SOL    HW2  488   0.632   1.527   0.175
  158SOL     OW  489   1.841   0.175   0.963
  158SOL    HW1  490   1.880   0.090   0.927
  158SOL    HW2  491   1.743   0.177   0.944
  159SOL     OW  492   0.263   0.326   0.720
  159SOL    HW1  493   0.184   0.377   0.686
  159SOL    HW2  494   0.254   0.311   0.818
  160SOL     OW  495   1.194   1.612   0.031
  160SOL    HW1  496   1.200   1.519   0.068
  160SOL    HW2  497   1.135   1.612  -0.049
  161SOL     OW  498   0.822   1.002   1.372
  161SOL    HW1  499   0.862   1.001   1.280
  161SOL    HW2  500   0.832   1.094   1.412
  162SOL     OW  501   0.916   0.910   0.291
  162SOL    HW1  502   0.979   0.948   0.223
  162SOL    HW2  503   0.956   0.827   0.330
  163SOL     OW  504   1.504   1.607   0.044
  163SOL    HW1  505   1.412   1.644   0.051
  163SOL    HW2  506   1.542   1.627  -0.046
  164SOL     OW  507   0.372   1.288   1.490
  164SOL    HW1  508   0.359   1.381   1.456
  164SOL    HW2  509   0.288   1.236   1.477
  165SOL     OW  510   1.039   1.098   0.696
  165SOL    HW1  511   0.969   1.051   0.750
  165SOL    HW2  512   1.098   1.030   0.653
  166SOL     OW  513   1.014   0.236   0.971
  166SOL    HW1  514   1.006   0.200   0.878
  166SOL    HW2  515   1.012   0.160   1.036
  167SOL     OW  516   0.590   1.487   0.491
  167SOL    HW1  517   0.632   1.429   0.421
  167SOL    HW2  518   0.546   1.566   0.447
  168SOL     OW  519   1.709   0.385   1.381
  168SOL    HW1  520   1.782   0.454   1.385
  168SOL    HW2  521   1.737   0.310   1.322
  169SOL     OW  522   0.255   1.348   0.290
  169SOL    HW1  523   0.159   1.349   0.263
  169SOL    HW2  524   0.267   1.401   0.374
  170SOL     OW  525   0.105   1.013   1.726
  170SOL    HW1  526   0.028   0.980   1.780
  170SOL    HW2  527   0.190   0.983   1.768
  171SOL     OW  528   0.672   0.203   1.489
  171SOL    HW1  529   0.762   0.187   1.449
  171SOL    HW2  530   0.680   0.208   1.588
  172SOL     OW  531   0.075   0.345   0.033
  172SOL    HW1  532  -0.017   0.317   0.004
  172SOL    HW2  533   0.106   0.422  -0.023
  173SOL     OW  534   1.440   0.856   1.398
  173SOL    HW1  535   1.383   0.908   1.335
  173SOL    HW2  536   1.536   0.868   1.374
  174SOL     OW  537   0.072   0.166   0.318
  174SOL    HW1  538   0.055   0.249   0.264
  174SOL    HW2  539   0.162   0.129   0.296
  175SOL     OW  540   1.183   1.335   0.119
  175SOL    HW1  541   1.084   1.324   0.121
  175SOL    HW2  542   1.217   1.350   0.212
  176SOL     OW  543   0.613   0.842   1.431
  176SOL    HW1  544   0.669   0.923   1.414
  176SOL    HW2  545   0.672   0.762   1.434
  177SOL     OW  546   1.493   1.767   0.959
  177SOL    HW1  547   1.526   1.831   0.890
  177SOL    HW2  548   1.559   1.761   1.034
  178SOL     OW  549   0.716   0.565   1.708
  178SOL    HW1  550   0.735   0.630   1.782
  178SOL    HW2  551   0.776   0.485   1.717
  179SOL     OW  552   1.450   1.220   1.633
  179SOL    HW1  553   1.441   1.210   1.732
  179SOL    HW2  554   1.546   1.213   1.607
  180SOL     OW  555   0.390   1.741   1.560
  180SOL    HW1  556   0.299   1.782   1.558
  180SOL    HW2  557   0.383   1.647   1.592
  181SOL     OW  558   1.674   0.883   1.254
  181SOL    HW1  559   1.647   0.794   1.217
  181SOL    HW2  560   1.675   0.951   1.181
  182SOL     OW  561   1.225   0.325   0.449
  182SOL    HW1  562   1.290   0.251   0.438
  182SOL    HW2  563   1.245   0.375   0.533
  183SOL     OW  564   0.594   0.745   0.652
  183SOL    HW1  565   0.644   0.830   0.633
  183SOL    HW2  566   0.506   0.747   0.604
  184SOL     OW  567   1.777   0.342   1.642
  184SOL    HW1  568   1.760   0.373   1.548
  184SOL    HW2  569   1.693   0.305   1.680
  185SOL     OW  570   1.730   0.934   1.517
  185SOL    HW1  571   1.768   1.025   1.532
  185SOL    HW2  572   1.722   0.917   1.418
  186SOL     OW  573   0.859   1.374   0.016
  186SOL    HW1  574   0.813   1.389   0.104
  186SOL    HW2  575   0.903   1.459  -0.014
  187SOL     OW  576   0.661   1.790   0.953
  187SOL    HW1  577   0.615   1.878   0.940
  187SOL    HW2  578   0.760   1.802   0.946
  188SOL     OW  579   0.859   0.956   0.861
  188SOL    HW1  580   0.913   0.887   0.909
  188SOL    HW2  581   0.827   1.025   0.927
  189SOL     OW  582   1.083   0.984   0.087
  189SOL    HW1  583   1.060   1.037   0.005
  189SOL    HW2  584   1.164   0.928   0.068
  190SOL     OW  585   1.861   1.569   0.851
  190SOL    HW1  586   1.790   1.557   0.781
  190SOL    HW2  587   1.862   1.490   0.911
  191SOL     OW  588   0.221   1.314   1.844
  191SOL    HW1  589   0.156   1.241   1.823
  191SOL    HW2  590   0.225   1.328   1.942
  192SOL     OW  591   0.079   1.240   0.653
  192SOL    HW1  592   0.078   1.193   0.741
  192SOL    HW2  593   0.161   1.212   0.602
  193SOL     OW  594   0.672   1.391   1.624
  193SOL    HW1  595   0.594   1.341   1.662
  193SOL    HW2  596   0.669   1.486   1.655
  194SOL     OW  597   1.824   0.192   1.227
  194SOL    HW1  598   1.820   0.102   1.271
  194SOL    HW2  599   1.827   0.181   1.128
  195SOL     OW  600   0.428   0.424   0.520
  195SOL    HW1  601   0.458   0.352   0.458
  195SOL    HW2  602   0.389   0.384   0.603
  196SOL     OW  603   1.705   1.487   1.104
  196SOL    HW1  604   1.612   1.462   1.077
  196SOL    HW2  605   1.731   1.437   1.186
  197SOL     OW  606   0.317   0.547   1.280
  197SOL    HW1  607   0.355   0.488   1.352
  197SOL    HW2  608   0.357   0.521   1.192
  198SOL     OW  609   0.812   1.586   0.687
  198SOL    HW1  610   0.844   1.596   0.593
  198SOL    HW2  611   0.733   1.524   0.689
  199SOL     OW  612   1.424   0.214   1.112
  199SOL    HW1  613   1.476   0.149   1.167
  199SOL    HW2  614   1.375   0.277   1.173
  200SOL     OW  615   1.001   0.034   1.154
  200SOL    HW1  616   0.938  -0.038   1.123
  200SOL    HW2  617   1.094  -0.002   1.154
  201SOL     OW  618   0.770   1.330   0.301
  201SOL    HW1  619   0.724   1.243   0.318
  201SOL    HW2  620   0.861   1.327   0.342
  202SOL     OW  621   0.618   1.567   1.284
  202SOL    HW1  622   0.613   1.649   1.341
  202SOL    HW2  623   0.707   1.564   1.239
  203SOL     OW  624   1.352   0.052   0.168
  203SOL    HW1  625   1.387   0.011   0.084
  203SOL    HW2  626   1.262   0.014   0.188
  204SOL     OW  627   1.300   0.453   0.691
  204SOL    HW1  628   1.241   0.533   0.695
  204SOL    HW2  629   1.315   0.418   0.784
  205SOL     OW  630   1.593   0.221   0.882
  205SOL    HW1  631   1.509   0.220   0.936
  205SOL    HW2  632   1.595   0.304   0.826
  206SOL     OW  633   0.039   1.077   0.300
  206SOL    HW1  634   0.138   1.066   0.291
  206SOL    HW2  635  -0.001   0.991   0.332
  207SOL     OW  636   0.875   1.646   0.337
  207SOL    HW1  637   0.798   1.611   0.283
  207SOL    HW2  638   0.843   1.717   0.399
  208SOL     OW  639   0.230   0.628   1.975
  208SOL    HW1  640   0.137   0.626   2.012
  208SOL    HW2  641   0.231   0.589   1.883
  209SOL     OW  642   0.225   0.275   2.858
  209SOL    HW1  643   0.260   0.258   2.950
  209SOL    HW2  644   0.137   0.230   2.846
  210SOL     OW  645   0.019   0.368   2.509
  210SOL    HW1  646  -0.063   0.411   2.548
  210SOL    HW2  647  -0.009   0.295   2.446
  211SOL     OW  648   1.555   1.511   2.565
  211SOL    HW1  649   1.498   1.495   2.646
  211SOL    HW2  650   1.496   1.521   2.485
  212SOL     OW  651   1.135   0.703   2.579
  212SOL    HW1  652   1.192   0.781   2.554
  212SOL    HW2  653   1.075   0.729   2.655
  213SOL     OW  654   1.755   0.607   2.093
  213SOL    HW1  655   1.743   0.594   1.994
  213SOL    HW2  656   1.725   0.526   2.142
  214SOL     OW  657   0.768   1.144   2.885
  214SOL    HW1  658   0.690   1.161   2.945
  214SOL    HW2  659   0.802   1.231   2.849
  215SOL     OW  660   0.685   1.012   2.527
  215SOL    HW1  661   0.754   0.996   2.597
  215SOL    HW2  662   0.612   1.069   2.565
  216SOL     OW  663   1.603   0.447   2.599
  216SOL    HW1  664   1.529   0.493   2.549
  216SOL    HW2  665   1.654   0.515   2.652
  217SOL     OW  666   0.231   1.713   2.345
  217SOL    HW1  667   0.265   1.790   2.399
  217SOL    HW2  668   0.275   1.713   2.255
  218SOL     OW  669   0.230   1.434   2.400
  218SOL    HW1  670   0.204   1.530   2.400
  218SOL    HW2  671   0.159   1.380   2.445
  219SOL     OW  672   0.240   1.091   2.748
  219SOL    HW1  673   0.254   1.007   2.800
  219SOL    HW2  674   0.185   1.155   2.803
  220SOL     OW  675   0.606   0.964   1.985
  220SOL    HW1  676   0.613   1.048   1.931
  220SOL    HW2  677   0.652   0.977   2.073
  221SOL     OW  678   0.122   0.643   2.425
  221SOL    HW1  679   0.077   0.555   2.442
  221SOL    HW2  680   0.121   0.697   2.509
  222SOL     OW  681   1.842   1.767   2.221
  222SOL    HW1  682   1.896   1.738   2.301
  222SOL    HW2  683   1.872   1.857   2.192
  223SOL     OW  684   0.027   1.596   1.979
  223SOL    HW1  685   0.008   1.500   2.000
  223SOL    HW2  686  -0.006   1.654   2.054
  224SOL     OW  687   1.689   0.922   2.474
  224SOL    HW1  688   1.784   0.893   2.482
  224SOL    HW2  689   1.681   0.987   2.399
  225SOL     OW  690   1.641   1.108   2.294
  225SOL    HW1  691   1.727   1.110   2.242
  225SOL    HW2  692   1.655   1.155   2.382
  226SOL     OW  693   0.613   1.365   2.588
  226SOL    HW1  694   0.564   1.278   2.597
  226SOL    HW2  695   0.590   1.408   2.501
  227SOL     OW  696   0.809   0.004   2.364
  227SOL    HW1  697   0.849   0.095   2.355
  227SOL    HW2  698   0.709   0.012   2.370
  228SOL     OW  699   1.525   0.999   2.052
  228SOL    HW1  700   1.462   0.923   2.065
  228SOL    HW2  701   1.573   1.017   2.138
  229SOL     OW  702   1.466   1.417   2.815
  229SOL    HW1  703   1.407   1.423   2.895
  229SOL    HW2  704   1.451   1.329   2.769
  230SOL     OW  705   1.667   1.714   2.434
  230SOL    HW1  706   1.626   1.691   2.346
  230SOL    HW2  707   1.649   1.640   2.499
  231SOL     OW  708   0.598   0.729   2.132
  231SOL    HW1  709   0.622   0.798   2.064
  231SOL    HW2  710   0.520   0.762   2.186
  232SOL     OW  711   1.281   0.345   2.806
  232SOL    HW1  712   1.195   0.295   2.793
  232SOL    HW2  713   1.343   0.291   2.862
  233SOL     OW  714   1.576   1.662   2.169
  233SOL    HW1  715   1.665   1.708   2.172
  233SOL    HW2  716   1.555   1.638   2.074
  234SOL     OW  717   1.041   0.701   2.291
  234SOL    HW1  718   1.067   0.697   2.387
  234SOL    HW2  719   0.956   0.650   2.277
  235SOL     OW  720   0.076   0.811   2.651
  235SOL    HW1  721   0.175   0.799   2.660
  235SOL    HW2  722   0.052   0.906   2.672
  236SOL     OW  723   0.865   0.348   2.057
  236SOL    HW1  724   0.924   0.411   2.008
  236SOL    HW2  725   0.884   0.254   2.028
  237SOL     OW  726   1.362   1.144   2.407
  237SOL    HW1  727   1.445   1.115   2.359
  237SOL    HW2  728   1.313   1.211   2.351
  238SOL     OW  729   1.008   1.456   2.339
  238SOL    HW1  730   0.962   1.528   2.287
  238SOL    HW2  731   1.004   1.476   2.437
  239SOL     OW  732   0.351   1.801   2.715
  239SOL    HW1  733   0.401   1.715   2.721
  239SOL    HW2  734   0.416   1.878   2.712
  240SOL     OW  735   1.795   1.066   2.735
  240SOL    HW1  736   1.733   1.051   2.659
  240SOL    HW2  737   1.743   1.077   2.820
  241SOL     OW  738   0.321   0.943   2.104
  241SOL    HW1  739   0.403   0.982   2.062
  241SOL    HW2  740   0.294   0.861   2.055
  242SOL     OW  741   1.458   0.735   2.590
  242SOL    HW1  742   1.453   0.670   2.665
  242SOL    HW2  743   1.538   0.794   2.603
  243SOL     OW  744   1.111   1.776   2.099
  243SOL    HW1  745   1.051   1.714   2.149
  243SOL    HW2  746   1.142   1.732   2.014
  244SOL     OW  747   1.632   1.377   1.943
  244SOL    HW1  748   1.600   1.471   1.933
  244SOL    HW2  749   1.556   1.314   1.931
  245SOL     OW  750   0.464   1.743   2.185
  245SOL    HW1  751   0.497   1.782   2.271
  245SOL    HW2  752   0.540   1.736   2.120
  246SOL     OW  753   1.400   0.107   2.288
  246SOL    HW1  754   1.376   0.070   2.198
  246SOL    HW2  755   1.499   0.123   2.292
  247SOL     OW  756   0.249   1.785   3.103
  247SOL    HW1  757   0.306   1.720   3.153
  247SOL    HW2  758   0.233   1.752   3.010
  248SOL     OW  759   0.940   1.698   2.766
  248SOL    HW1  760   1.020   1.641   2.787
  248SOL    HW2  761   0.891   1.658   2.689
  249SOL     OW  762   0.382   0.700   2.342
  249SOL    HW1  763   0.427   0.610   2.339
  249SOL    HW2  764   0.288   0.689   2.375
  250SOL     OW  765   0.614   0.122   1.979
  250SOL    HW1  766   0.712   0.100   1.986
  250SOL    HW2  767   0.583   0.105   1.886
  251SOL     OW  768   0.922   0.503   2.761
  251SOL    HW1  769   0.897   0.494   2.665
  251SOL    HW2  770   0.970   0.421   2.792
  252SOL     OW  771   0.539   0.064   2.374
  252SOL    HW1  772   0.458   0.065   2.432
  252SOL    HW2  773   0.542   0.147   2.319
  253SOL     OW  774   1.434   1.188   1.903
  253SOL    HW1  775   1.466   1.112   1.960
  253SOL    HW2  776   1.342   1.215   1.933
  254SOL     OW  777   0.297   0.035   2.033
  254SOL    HW1  778   0.346   0.119   2.012
  254SOL    HW2  779   0.359  -0.030   2.078
  255SOL     OW  780   0.935   0.236   2.342
  255SOL    HW1  781   0.887   0.277   2.264
  255SOL    HW2  782   1.034   0.234   2.323
  256SOL     OW  783   1.227   1.570   2.655
  256SOL    HW1  784   1.248   1.644   2.590
  256SOL    HW2  785   1.295   1.570   2.728
  257SOL     OW  786   0.459   1.152   2.603
  257SOL    HW1  787   0.388   1.125   2.668
  257SOL    HW2  788   0.433   1.124   2.510
  258SOL     OW  789   1.271   1.797   2.453
  258SOL    HW1  790   1.315   1.861   2.389
  258SOL    HW2  791   1.221   1.849   2.523
  259SOL     OW  792   1.032   0.549   1.878
  259SOL    HW1  793   0.991   0.631   1.839
  259SOL    HW2  794   1.096   0.575   1.951
  260SOL     OW  795   0.866   0.454   2.504
  260SOL    HW1  796   0.834   0.526   2.442
  260SOL    HW2  797   0.890   0.373   2.451
  261SOL     OW  798   1.017   0.039   2.615
  261SOL    HW1  799   0.945   0.044   2.546
  261SOL    HW2  800   0.993  -0.030   2.684
  262SOL     OW  801   1.429   1.173   2.729
  262SOL    HW1  802   1.374   1.089   2.722
  262SOL    HW2  803   1.455   1.202   2.637
  263SOL     OW  804   1.857   0.833   2.239
  263SOL    HW1  805   1.899   0.769   2.303
  263SOL    HW2  806   1.819   0.782   2.161
  264SOL     OW  807   0.488   1.385   2.036
  264SOL    HW1  808   0.401   1.370   2.083
  264SOL    HW2  809   0.471   1.411   1.941
  265SOL     OW  810   1.664   1.280   2.519
  265SOL    HW1  811   1.763   1.288   2.533
  265SOL    HW2  812   1.619   1.364   2.550
  266SOL     OW  813   1.390   0.575   1.940
  266SOL    HW1  814   1.336   0.554   2.021
  266SOL    HW2  815   1.481   0.534   1.949
  267SOL     OW  816   0.527   0.256   2.190
  267SOL    HW1  817   0.554   0.197   2.115
  267SOL    HW2  818   0.527   0.351   2.159
  268SOL     OW  819   1.638   1.099   2.941
  268SOL    HW1  820   1.643   1.180   3.000
  268SOL    HW2  821   1.552   1.101   2.890
  269SOL     OW  822   0.705   1.050   2.230
  269SOL    HW1  823   0.691   1.057   2.329
  269SOL    HW2  824   0.789   0.999   2.212
  270SOL     OW  825   0.367   1.100   2.363
  270SOL    HW1  826   0.360   1.183   2.307
  270SOL    HW2  827   0.371   1.020   2.303
  271SOL     OW  828   0.566   0.537   2.727
  271SOL    HW1  829   0.578   0.603   2.653
  271SOL    HW2  830   0.612   0.571   2.810
  272SOL     OW  831   1.252   1.348   2.250
  272SOL    HW1  832   1.302   1.425   2.290
  272SOL    HW2  833   1.157   1.350   2.282
  273SOL     OW  834   1.582   0.639   2.334
  273SOL    HW1  835   1.551   0.700   2.407
  273SOL    HW2  836   1.632   0.691   2.265
  274SOL     OW  837   1.209   0.525   2.137
  274SOL    HW1  838   1.222   0.441   2.191
  274SOL    HW2  839   1.180   0.599   2.197
  275SOL     OW  840   0.732   0.634   2.926
  275SOL    HW1  841   0.791   0.608   2.850
  275SOL    HW2  842   0.704   0.730   2.915
  276SOL     OW  843   0.307   0.063   2.480
  276SOL    HW1  844   0.296   0.157   2.513
  276SOL    HW2  845   0.302   0.000   2.557
  277SOL     OW  846   1.622   0.367   2.236
  277SOL    HW1  847   1.624   0.291   2.300
  277SOL    HW2  848   1.574   0.444   2.276
  278SOL     OW  849   1.540   0.274   1.987
  278SOL    HW1  850   1.479   0.199   2.010
  278SOL    HW2  851   1.562   0.326   2.070
  279SOL     OW  852   1.303   0.838   1.904
  279SOL    HW1  853   1.337   0.745   1.919
  279SOL    HW2  854   1.321   0.865   1.809
  280SOL     OW  855   1.068   1.333   2.711
  280SOL    HW1  856   1.075   1.249   2.656
  280SOL    HW2  857   1.130   1.402   2.675
  281SOL     OW  858   0.319   0.810   2.811
  281SOL    HW1  859   0.412   0.846   2.816
  281SOL    HW2  860   0.313   0.725   2.863
  282SOL     OW  861   0.008   1.326   2.062
  282SOL    HW1  862  -0.085   1.347   2.031
  282SOL    HW2  863   0.018   1.227   2.075
  283SOL     OW  864   0.088   1.801   2.789
  283SOL    HW1  865   0.046   1.715   2.762
  283SOL    HW2  866   0.182   1.804   2.755
  284SOL     OW  867   0.504   1.568   2.772
  284SOL    HW1  868   0.570   1.642   2.781
  284SOL    HW2  869   0.548   1.489   2.730
  285SOL     OW  870   0.815   0.572   2.187
  285SOL    HW1  871   0.822   0.483   2.141
  285SOL    HW2  872   0.721   0.606   2.179
  286SOL     OW  873   0.671   0.464   3.131
  286SOL    HW1  874   0.637   0.375   3.101
  286SOL    HW2  875   0.697   0.518   3.051
  287SOL     OW  876   0.473   0.500   2.053
  287SOL    HW1  877   0.534   0.580   2.057
  287SOL    HW2  878   0.378   0.531   2.060
  288SOL     OW  879   1.347   1.059   3.096
  288SOL    HW1  880   1.371   0.996   3.022
  288SOL    HW2  881   1.257   1.099   3.078
  289SOL     OW  882   1.302   0.855   2.171
  289SOL    HW1  883   1.216   0.824   2.213
  289SOL    HW2  884   1.298   0.841   2.072
  290SOL     OW  885   1.759   1.747   3.016
  290SOL    HW1  886   1.820   1.777   2.943
  290SOL    HW2  887   1.721   1.658   2.994
  291SOL     OW  888   0.083   1.258   2.884
  291SOL    HW1  889   0.078   1.257   2.984
  291SOL    HW2  890   0.000   1.217   2.846
  292SOL     OW  891   1.726   0.135   2.385
  292SOL    HW1  892   1.799   0.118   2.318
  292SOL    HW2  893   1.695   0.048   2.423
  293SOL     OW  894   1.388   1.573   2.339
  293SOL    HW1  895   1.455   1.585   2.265
  293SOL    HW2  896   1.348   1.662   2.362
  294SOL     OW  897   1.280   0.927   2.534
  294SOL    HW1  898   1.340   0.846   2.536
  294SOL    HW2  899   1.320   0.996   2.474
  295SOL     OW  900   0.672   1.616   2.016
  295SOL    HW1  901   0.681   1.626   1.917
  295SOL    HW2  902   0.632   1.527   2.037
  296SOL     OW  903   1.841   0.175   2.825
  296SOL    HW1  904   1.880   0.090   2.789
  296SOL    HW2  905   1.743   0.177   2.806
  297SOL     OW  906   0.263   0.326   2.582
  297SOL    HW1  907   0.184   0.377   2.548
  297SOL    HW2  908   0.254   0.311   2.680
  298SOL     OW  909   1.194   1.612   1.893
  298SOL    HW1  910   1.200   1.519   1.930
  298SOL    HW2  911   1.135   1.612   1.813
  299SOL     OW  912   0.916   0.910   2.153
  299SOL    HW1  913   0.979   0.948   2.085
  299SOL    HW2  914   0.956   0.827   2.192
  300SOL     OW  915   1.504   1.607   1.906
  300SOL    HW1  916   1.412   1.644   1.913
  300SOL    HW2  917   1.542   1.627   1.816
  301SOL     OW  918   1.614   1.292   3.151
  301SOL    HW1  919   1.674   1.295   3.231
  301SOL    HW2  920   1.539   1.356   3.164
  302SOL     OW  921   1.039   1.098   2.558
  302SOL    HW1  922   0.969   1.051   2.612
  302SOL    HW2  923   1.098   1.030   2.515
  303SOL     OW  924   0.590   1.487   2.353
  303SOL    HW1  925   0.632   1.429   2.283
  303SOL    HW2  926   0.546   1.566   2.309
  304SOL     OW  927   0.255   1.348   2.152
  304SOL    HW1  928   0.159   1.349   2.125
  304SOL    HW2  929   0.267   1.401   2.236
  305SOL     OW  930   0.075   0.345   1.895
  305SOL    HW1  931  -0.017   0.317   1.866
  305SOL    HW2  932   0.106   0.422   1.839
  306SOL     OW  933   0.072   0.166   2.180
  306SOL    HW1  934   0.055   0.249   2.126
  306SOL    HW2  935   0.162   0.129   2.158
  307SOL     OW  936   1.183   1.335   1.981
  307SOL    HW1  937   1.084   1.324   1.983
  307SOL    HW2  938   1.217   1.350   2.074
  308SOL     OW  939   1.674   0.883   3.116
  308SOL    HW1  940   1.647   0.794   3.079
  308SOL    HW2  941   1.675   0.951   3.043
  309SOL     OW  942   1.225   0.325   2.311
  309SOL    HW1  943   1.290   0.251   2.300
  309SOL    HW2  944   1.245   0.375   2.395
  310SOL     OW  945   0.594   0.745   2.514
  310SOL    HW1  946   0.644   0.830   2.495
  310SOL    HW2  947   0.506   0.747   2.466
  311SOL     OW  948   0.859   1.374   1.878
  311SOL    HW1  949   0.813   1.389   1.966
  311SOL    HW2  950   0.903   1.459   1.848
  312SOL     OW  951   0.661   1.790   2.815
  312SOL    HW1  952   0.615   1.878   2.802
  312SOL    HW2  953   0.760   1.802   2.808
  313SOL     OW  954   0.859   0.956   2.723
  313SOL    HW1  955   0.913   0.887   2.771
  313SOL    HW2  956   0.827   1.025   2.789
  314SOL     OW  957   1.083   0.984   1.949
  314SOL    HW1  958   1.060   1.037   1.867
  314SOL    HW2  959   1.164   0.928   1.930
  315SOL     OW  960   1.861   1.569   2.713
  315SOL    HW1  961   1.790   1.557   2.643
  315SOL    HW2  962   1.862   1.490   2.773
  316SOL     OW  963   0.079   1.240   2.515
  316SOL    HW1  964   0.078   1.193   2.603
  316SOL    HW2  965   0.161   1.212   2.464
  317SOL     OW  966   1.824   0.192   3.089
  317SOL    HW1  967   1.820   0.102   3.133
  317SOL    HW2  968   1.827   0.181   2.990
  318SOL     OW  969   0.428   0.424   2.382
  318SOL    HW1  970   0.458   0.352   2.320
  318SOL    HW2  971   0.389   0.384   2.465
  319SOL     OW  972   0.812   1.586   2.549
  319SOL    HW1  973   0.844   1.596   2.455
  319SOL    HW2  974   0.733   1.524   2.551
  320SOL     OW  975   0.770   1.330   2.163
  320SOL    HW1  976   0.724   1.243   2.180
  320SOL    HW2  977   0.861   1.327   2.204
  321SOL     OW  978   1.352   0.052   2.030
  321SOL    HW1  979   1.387   0.011   1.946
  321SOL    HW2  980   1.262   0.014   2.050
  322SOL     OW  981   1.300   0.453   2.553
  322SOL    HW1  982   1.241   0.533   2.557
  322SOL    HW2  983   1.315   0.418   2.646
  323SOL     OW  984   1.593   0.221   2.744
  323SOL    HW1  985   1.509   0.220   2.798
  323SOL    HW2  986   1.595   0.304   2.688
  324SOL     OW  987   0.039   1.077   2.162
  324SOL    HW1  988   0.138   1.066   2.153
  324SOL    HW2  989  -0.001   0.991   2.194
  325SOL     OW  990   0.875   1.646   2.199
  325SOL    HW1  991   0.798   1.611   2.145
  325SOL    HW2  992   0.843   1.717   2.261
  326SOL     OW  993   0.230   2.490   0.113
  326SOL    HW1  994   0.137   2.488   0.150
  326SOL    HW2  995   0.231   2.451   0.021
  327SOL     OW  996   0.225   2.137   0.996
  327SOL    HW1  997   0.260   2.120   1.088
  327SOL    HW2  998   0.137   2.092   0.984
  328SOL     OW  999   0.019   2.230   0.647
  328SOL    HW1 1000  -0.063   2.273   0.686
  328SOL    HW2 1001  -0.009   2.157   0.584
  329SOL     OW 1002   1.135   2.565   0.717
  329SOL    HW1 1003   1.192   2.643   0.692
  329SOL    HW2 1004   1.075   2.591   0.793
  330SOL     OW 1005   1.755   2.469   0.231
  330SOL    HW1 1006   1.743   2.456   0.132
  330SOL    HW2 1007   1.725   2.388   0.280
  331SOL     OW 1008   0.768   3.006   1.023
  331SOL    HW1 1009   0.690   3.023   1.083
  331SOL    HW2 1010   0.802   3.093   0.987
  332SOL     OW 1011   0.850   2.660   1.823
  332SOL    HW1 1012   0.846   2.736   1.888
  332SOL    HW2 1013   0.872   2.696   1.732
  333SOL     OW 1014   0.685   2.874   0.665
  333SOL    HW1 1015   0.754   2.858   0.735
  333SOL    HW2 1016   0.612   2.931   0.703
  334SOL     OW 1017   0.438   2.254   1.499
  334SOL    HW1 1018   0.520   2.198   1.508
  334SOL    HW2 1019   0.357   2.196   1.503
  335SOL     OW 1020   1.603   2.309   0.737
  335SOL    HW1 1021   1.529   2.355   0.687
  335SOL    HW2 1022   1.654   2.377   0.790
  336SOL     OW 1023   0.240   2.953   0.886
  336SOL    HW1 1024   0.254   2.869   0.938
  336SOL    HW2 1025   0.185   3.017   0.941
  337SOL     OW 1026   1.594   1.976   1.480
  337SOL    HW1 1027   1.576   2.043   1.408
  337SOL    HW2 1028   1.591   2.022   1.569
  338SOL     OW 1029   0.122   2.505   0.563
  338SOL    HW1 1030   0.077   2.417   0.580
  338SOL    HW2 1031   0.121   2.559   0.647
  339SOL     OW 1032   0.113   2.599   1.597
  339SOL    HW1 1033   0.201   2.586   1.642
  339SOL    HW2 1034   0.100   2.696   1.575
  340SOL     OW 1035   0.809   1.866   0.502
  340SOL    HW1 1036   0.849   1.957   0.493
  340SOL    HW2 1037   0.709   1.874   0.508
  341SOL     OW 1038   0.197   2.838   1.264
  341SOL    HW1 1039   0.286   2.793   1.250
  341SOL    HW2 1040   0.124   2.773   1.245
  342SOL     OW 1041   1.525   2.861   0.190
  342SOL    HW1 1042   1.462   2.785   0.203
  342SOL    HW2 1043   1.573   2.879   0.276
  343SOL     OW 1044   0.317   2.113   1.801
  343SOL    HW1 1045   0.388   2.184   1.807
  343SOL    HW2 1046   0.229   2.152   1.829
  344SOL     OW 1047   0.598   2.591   0.270
  344SOL    HW1 1048   0.622   2.660   0.202
  344SOL    HW2 1049   0.520   2.624   0.324
  345SOL     OW 1050   1.281   2.207   0.944
  345SOL    HW1 1051   1.195   2.157   0.931
  345SOL    HW2 1052   1.343   2.153   1.000
  346SOL     OW 1053   0.807   2.467   1.465
  346SOL    HW1 1054   0.760   2.464   1.554
  346SOL    HW2 1055   0.756   2.412   1.399
  347SOL     OW 1056   1.394   2.331   1.674
  347SOL    HW1 1057   1.374   2.374   1.762
  347SOL    HW2 1058   1.472   2.269   1.683
  348SOL     OW 1059   0.973   2.752   1.572
  348SOL    HW1 1060   1.019   2.668   1.543
  348SOL    HW2 1061   0.917   2.786   1.497
  349SOL     OW 1062   0.991   2.272   1.242
  349SOL    HW1 1063   0.914   2.306   1.296
  349SOL    HW2 1064   0.957   2.221   1.163
  350SOL     OW 1065   1.041   2.563   0.429
  350SOL    HW1 1066   1.067   2.559   0.525
  350SOL    HW2 1067   0.956   2.512   0.415
  351SOL     OW 1068   0.076   2.673   0.789
  351SOL    HW1 1069   0.175   2.661   0.798
  351SOL    HW2 1070   0.052   2.768   0.810
  352SOL     OW 1071   0.865   2.210   0.195
  352SOL    HW1 1072   0.924   2.273   0.146
  352SOL    HW2 1073   0.884   2.116   0.166
  353SOL     OW 1074   1.719   2.447   1.831
  353SOL    HW1 1075   1.693   2.536   1.795
  353SOL    HW2 1076   1.717   2.379   1.758
  354SOL     OW 1077   0.550   2.058   0.885
  354SOL    HW1 1078   0.545   2.053   0.985
  354SOL    HW2 1079   0.552   2.154   0.856
  355SOL     OW 1080   1.458   2.597   0.728
  355SOL    HW1 1081   1.453   2.532   0.803
  355SOL    HW2 1082   1.538   2.656   0.741
  356SOL     OW 1083   0.202   2.147   1.498
  356SOL    HW1 1084   0.122   2.207   1.485
  356SOL    HW2 1085   0.192   2.098   1.584
  357SOL     OW 1086   1.400   1.969   0.426
  357SOL    HW1 1087   1.376   1.932   0.336
  357SOL    HW2 1088   1.499   1.985   0.430
  358SOL     OW 1089   0.382   2.562   0.480
  358SOL    HW1 1090   0.427   2.472   0.477
  358SOL    HW2 1091   0.288   2.551   0.513
  359SOL     OW 1092   1.547   2.084   1.729
  359SOL    HW1 1093   1.542   2.121   1.821
  359SOL    HW2 1094   1.475   2.015   1.717
  360SOL     OW 1095   0.614   1.984   0.117
  360SOL    HW1 1096   0.712   1.962   0.124
  360SOL    HW2 1097   0.583   1.967   0.024
  361SOL     OW 1098   0.781   2.126   1.749
  361SOL    HW1 1099   0.848   2.065   1.792
  361SOL    HW2 1100   0.708   2.145   1.814
  362SOL     OW 1101   1.351   2.452   1.433
  362SOL    HW1 1102   1.379   2.409   1.518
  362SOL    HW2 1103   1.376   2.548   1.434
  363SOL     OW 1104   0.922   2.365   0.899
  363SOL    HW1 1105   0.897   2.356   0.803
  363SOL    HW2 1106   0.970   2.283   0.930
  364SOL     OW 1107   0.539   1.926   0.512
  364SOL    HW1 1108   0.458   1.927   0.570
  364SOL    HW2 1109   0.542   2.009   0.457
  365SOL     OW 1110   0.935   2.098   0.480
  365SOL    HW1 1111   0.887   2.139   0.402
  365SOL    HW2 1112   1.034   2.096   0.461
  366SOL     OW 1113   1.076   2.545   1.464
  366SOL    HW1 1114   0.996   2.484   1.467
  366SOL    HW2 1115   1.157   2.492   1.440
  367SOL     OW 1116   1.032   2.411   0.016
  367SOL    HW1 1117   0.991   2.493  -0.023
  367SOL    HW2 1118   1.096   2.437   0.089
  368SOL     OW 1119   0.078   2.418   1.386
  368SOL    HW1 1120   0.170   2.417   1.345
  368SOL    HW2 1121   0.072   2.492   1.453
  369SOL     OW 1122   0.561   2.084   1.147
  369SOL    HW1 1123   0.599   2.000   1.184
  369SOL    HW2 1124   0.473   2.103   1.191
  370SOL     OW 1125   0.866   2.316   0.642
  370SOL    HW1 1126   0.834   2.388   0.580
  370SOL    HW2 1127   0.890   2.235   0.589
  371SOL     OW 1128   1.017   1.901   0.753
  371SOL    HW1 1129   0.945   1.906   0.684
  371SOL    HW2 1130   0.993   1.832   0.822
  372SOL     OW 1131   1.466   2.452   0.992
  372SOL    HW1 1132   1.436   2.357   0.999
  372SOL    HW2 1133   1.539   2.468   1.058
  373SOL     OW 1134   1.857   2.695   0.377
  373SOL    HW1 1135   1.899   2.631   0.441
  373SOL    HW2 1136   1.819   2.644   0.299
  374SOL     OW 1137   1.390   2.437   0.078
  374SOL    HW1 1138   1.336   2.416   0.159
  374SOL    HW2 1139   1.481   2.396   0.087
  375SOL     OW 1140   0.527   2.118   0.328
  375SOL    HW1 1141   0.554   2.059   0.253
  375SOL    HW2 1142   0.527   2.213   0.297
  376SOL     OW 1143   1.638   2.961   1.079
  376SOL    HW1 1144   1.643   3.042   1.138
  376SOL    HW2 1145   1.552   2.963   1.028
  377SOL     OW 1146   0.915   1.951   1.402
  377SOL    HW1 1147   0.940   1.931   1.307
  377SOL    HW2 1148   0.987   2.007   1.444
  378SOL     OW 1149   0.410   2.675   1.251
  378SOL    HW1 1150   0.496   2.687   1.301
  378SOL    HW2 1151   0.368   2.588   1.278
  379SOL     OW 1152   1.274   2.248   1.262
  379SOL    HW1 1153   1.295   2.322   1.326
  379SOL    HW2 1154   1.185   2.265   1.219
  380SOL     OW 1155   0.566   2.399   0.865
  380SOL    HW1 1156   0.578   2.465   0.791
  380SOL    HW2 1157   0.612   2.433   0.948
  381SOL     OW 1158   1.582   2.501   0.472
  381SOL    HW1 1159   1.551   2.562   0.545
  381SOL    HW2 1160   1.632   2.553   0.403
  382SOL     OW 1161   0.402   2.613   1.598
  382SOL    HW1 1162   0.470   2.668   1.551
  382SOL    HW2 1163   0.442   2.525   1.625
  383SOL     OW 1164   1.587   2.641   1.670
  383SOL    HW1 1165   1.495   2.679   1.665
  383SOL    HW2 1166   1.647   2.688   1.605
  384SOL     OW 1167   1.013   1.967   1.770
  384SOL    HW1 1168   1.019   2.052   1.718
  384SOL    HW2 1169   1.045   1.891   1.713
  385SOL     OW 1170   0.504   1.912   1.740
  385SOL    HW1 1171   0.462   1.855   1.670
  385SOL    HW2 1172   0.438   1.981   1.772
  386SOL     OW 1173   0.573   2.732   1.029
  386SOL    HW1 1174   0.617   2.821   1.020
  386SOL    HW2 1175   0.510   2.732   1.106
  387SOL     OW 1176   1.360   2.724   1.045
  387SOL    HW1 1177   1.285   2.724   0.979
  387SOL    HW2 1178   1.397   2.632   1.054
  388SOL     OW 1179   1.209   2.387   0.275
  388SOL    HW1 1180   1.222   2.303   0.329
  388SOL    HW2 1181   1.180   2.461   0.335
  389SOL     OW 1182   0.307   2.075   1.231
  389SOL    HW1 1183   0.284   2.112   1.321
  389SOL    HW2 1184   0.277   1.980   1.225
  390SOL     OW 1185   0.037   3.172   1.282
  390SOL    HW1 1186   0.090   3.123   1.350
  390SOL    HW2 1187   0.059   3.270   1.287
  391SOL     OW 1188   0.732   2.496   1.064
  391SOL    HW1 1189   0.791   2.470   0.988
  391SOL    HW2 1190   0.704   2.592   1.053
  392SOL     OW 1191   1.728   2.797   1.854
  392SOL    HW1 1192   1.682   2.790   1.765
  392SOL    HW2 1193   1.666   2.841   1.920
  393SOL     OW 1194   0.307   1.925   0.618
  393SOL    HW1 1195   0.296   2.019   0.651
  393SOL    HW2 1196   0.302   1.862   0.695
  394SOL     OW 1197   1.622   2.229   0.374
  394SOL    HW1 1198   1.624   2.153   0.438
  394SOL    HW2 1199   1.574   2.306   0.414
  395SOL     OW 1200   1.023   2.628   0.966
  395SOL    HW1 1201   1.038   2.649   1.062
  395SOL    HW2 1202   0.993   2.533   0.957
  396SOL     OW 1203   0.350   2.760   1.804
  396SOL    HW1 1204   0.426   2.804   1.852
  396SOL    HW2 1205   0.385   2.713   1.722
  397SOL     OW 1206   1.540   2.136   0.125
  397SOL    HW1 1207   1.479   2.061   0.148
  397SOL    HW2 1208   1.562   2.188   0.208
  398SOL     OW 1209   1.303   2.700   0.042
  398SOL    HW1 1210   1.337   2.607   0.057
  398SOL    HW2 1211   1.321   2.727  -0.053
  399SOL     OW 1212   0.319   2.672   0.949
  399SOL    HW1 1213   0.412   2.708   0.954
  399SOL    HW2 1214   0.313   2.587   1.001
  400SOL     OW 1215   0.339   2.371   1.006
  400SOL    HW1 1216   0.287   2.288   0.989
  400SOL    HW2 1217   0.416   2.376   0.942
  401SOL     OW 1218   1.138   2.242   1.678
  401SOL    HW1 1219   1.093   2.305   1.742
  401SOL    HW2 1220   1.231   2.273   1.661
  402SOL     OW 1221   1.160   2.069   1.477
  402SOL    HW1 1222   1.160   2.133   1.554
  402SOL    HW2 1223   1.188   2.117   1.394
  403SOL     OW 1224   1.002   2.658   1.238
  403SOL    HW1 1225   1.043   2.626   1.324
  403SOL    HW2 1226   0.906   2.631   1.235
  404SOL     OW 1227   0.040   2.406   1.114
  404SOL    HW1 1228   0.125   2.373   1.073
  404SOL    HW2 1229   0.053   2.421   1.212
  405SOL     OW 1230   0.189   2.382   1.722
  405SOL    HW1 1231   0.248   2.342   1.652
  405SOL    HW2 1232   0.131   2.453   1.681
  406SOL     OW 1233   1.369   2.812   1.660
  406SOL    HW1 1234   1.408   2.901   1.680
  406SOL    HW2 1235   1.379   2.792   1.563
  407SOL     OW 1236   0.815   2.434   0.325
  407SOL    HW1 1237   0.822   2.345   0.279
  407SOL    HW2 1238   0.721   2.468   0.317
  408SOL     OW 1239   1.657   2.466   1.206
  408SOL    HW1 1240   1.619   2.397   1.268
  408SOL    HW2 1241   1.739   2.430   1.162
  409SOL     OW 1242   0.671   2.326   1.269
  409SOL    HW1 1243   0.637   2.237   1.239
  409SOL    HW2 1244   0.697   2.380   1.189
  410SOL     OW 1245   0.473   2.362   0.191
  410SOL    HW1 1246   0.534   2.442   0.195
  410SOL    HW2 1247   0.378   2.393   0.198
  411SOL     OW 1248   0.159   2.999   1.466
  411SOL    HW1 1249   0.181   2.938   1.542
  411SOL    HW2 1250   0.169   2.950   1.380
  412SOL     OW 1251   1.347   2.921   1.234
  412SOL    HW1 1252   1.371   2.858   1.160
  412SOL    HW2 1253   1.257   2.961   1.216
  413SOL     OW 1254   1.302   2.717   0.309
  413SOL    HW1 1255   1.216   2.686   0.351
  413SOL    HW2 1256   1.298   2.703   0.210
  414SOL     OW 1257   0.903   1.948   0.133
  414SOL    HW1 1258   0.954   1.949   0.047
  414SOL    HW2 1259   0.959   1.906   0.204
  415SOL     OW 1260   1.726   1.997   0.523
  415SOL    HW1 1261   1.799   1.980   0.456
  415SOL    HW2 1262   1.695   1.910   0.561
  416SOL     OW 1263   1.280   2.789   0.672
  416SOL    HW1 1264   1.340   2.708   0.674
  416SOL    HW2 1265   1.320   2.858   0.612
  417SOL     OW 1266   1.841   2.037   0.963
  417SOL    HW1 1267   1.880   1.952   0.927
  417SOL    HW2 1268   1.743   2.039   0.944
  418SOL     OW 1269   0.263   2.188   0.720
  418SOL    HW1 1270   0.184   2.239   0.686
  418SOL    HW2 1271   0.254   2.173   0.818
  419SOL     OW 1272   0.916   2.772   0.291
  419SOL    HW1 1273   0.979   2.810   0.223
  419SOL    HW2 1274   0.956   2.689   0.330
  420SOL     OW 1275   1.014   2.098   0.971
  420SOL    HW1 1276   1.006   2.062   0.878
  420SOL    HW2 1277   1.012   2.022   1.036
  421SOL     OW 1278   1.709   2.247   1.381
  421SOL    HW1 1279   1.782   2.316   1.385
  421SOL    HW2 1280   1.737   2.172   1.322
  422SOL     OW 1281   0.105   2.875   1.726
  422SOL    HW1 1282   0.028   2.842   1.780
  422SOL    HW2 1283   0.190   2.845   1.768
  423SOL     OW 1284   0.672   2.065   1.489
  423SOL    HW1 1285   0.762   2.049   1.449
  423SOL    HW2 1286   0.680   2.070   1.588
  424SOL     OW 1287   0.075   2.207   0.033
  424SOL    HW1 1288  -0.017   2.179   0.004
  424SOL    HW2 1289   0.106   2.284  -0.023
  425SOL     OW 1290   1.440   2.718   1.398
  425SOL    HW1 1291   1.383   2.770   1.335
  425SOL    HW2 1292   1.536   2.730   1.374
  426SOL     OW 1293   0.072   2.028   0.318
  426SOL    HW1 1294   0.055   2.111   0.264
  426SOL    HW2 1295   0.162   1.991   0.296
  427SOL     OW 1296   0.613   2.704   1.431
  427SOL    HW1 1297   0.669   2.785   1.414
  427SOL    HW2 1298   0.672   2.624   1.434
  428SOL     OW 1299   0.716   2.427   1.708
  428SOL    HW1 1300   0.735   2.492   1.782
  428SOL    HW2 1301   0.776   2.347   1.717
  429SOL     OW 1302   1.674   2.745   1.254
  429SOL    HW1 1303   1.647   2.656   1.217
  429SOL    HW2 1304   1.675   2.813   1.181
  430SOL     OW 1305   1.225   2.187   0.449
  430SOL    HW1 1306   1.290   2.113   0.438
  430SOL    HW2 1307   1.245   2.237   0.533
  431SOL     OW 1308   0.594   2.607   0.652
  431SOL    HW1 1309   0.644   2.692   0.633
  431SOL    HW2 1310   0.506   2.609   0.604
  432SOL     OW 1311   1.777   2.204   1.642
  432SOL    HW1 1312   1.760   2.235   1.548
  432SOL    HW2 1313   1.693   2.167   1.680
  433SOL     OW 1314   1.730   2.796   1.517
  433SOL    HW1 1315   1.768   2.887   1.532
  433SOL    HW2 1316   1.722   2.779   1.418
  434SOL     OW 1317   1.083   2.846   0.087
  434SOL    HW1 1318   1.060   2.899   0.005
  434SOL    HW2 1319   1.164   2.790   0.068
  435SOL     OW 1320   1.824   2.054   1.227
  435SOL    HW1 1321   1.820   1.964   1.271
  435SOL    HW2 1322   1.827   2.043   1.128
  436SOL     OW 1323   0.428   2.286   0.520
  436SOL    HW1 1324   0.458   2.214   0.458
  436SOL    HW2 1325   0.389   2.246   0.603
  437SOL     OW 1326   0.317   2.409   1.280
  437SOL    HW1 1327   0.355   2.350   1.352
  437SOL    HW2 1328   0.357   2.383   1.192
  438SOL     OW 1329   1.424   2.076   1.112
  438SOL    HW1 1330   1.476   2.011   1.167
  438SOL    HW2 1331   1.375   2.139   1.173
  439SOL     OW 1332   1.001   1.896   1.154
  439SOL    HW1 1333   0.938   1.824   1.123
  439SOL    HW2 1334   1.094   1.860   1.154
  440SOL     OW 1335   1.352   1.914   0.168
  440SOL    HW1 1336   1.387   1.873   0.084
  440SOL    HW2 1337   1.262   1.876   0.188
  441SOL     OW 1338   1.300   2.315   0.691
  441SOL    HW1 1339   1.241   2.395   0.695
  441SOL    HW2 1340   1.315   2.280   0.784
  442SOL     OW 1341   1.593   2.083   0.882
  442SOL    HW1 1342   1.509   2.082   0.936
  442SOL    HW2 1343   1.595   2.166   0.826
  443SOL     OW 1344   0.230   2.490   1.975
  443SOL    HW1 1345   0.137   2.488   2.012
  443SOL    HW2 1346   0.231   2.451   1.883
  444SOL     OW 1347   0.225   2.137   2.858
  444SOL    HW1 1348   0.260   2.120   2.950
  444SOL    HW2 1349   0.137   2.092   2.846
  445SOL     OW 1350   0.019   2.230   2.509
  445SOL    HW1 1351  -0.063   2.273   2.548
  445SOL    HW2 1352  -0.009   2.157   2.446
  446SOL     OW 1353   1.135   2.565   2.579
  446SOL    HW1 1354   1.192   2.643   2.554
  446SOL    HW2 1355   1.075   2.591   2.655
  447SOL     OW 1356   1.755   2.469   2.093
  447SOL    HW1 1357   1.743   2.456   1.994
  447SOL    HW2 1358   1.725   2.388   2.142
  448SOL     OW 1359   0.685   2.874   2.527
  448SOL    HW1 1360   0.754   2.858   2.597
  448SOL    HW2 1361   0.612   2.931   2.565
  449SOL     OW 1362   1.603   2.309   2.599
  449SOL    HW1 1363   1.529   2.355   2.549
  449SOL    HW2 1364   1.654   2.377   2.652
  450SOL     OW 1365   0.240   2.953   2.748
  450SOL    HW1 1366   0.254   2.869   2.800
  450SOL    HW2 1367   0.185   3.017   2.803
  451SOL     OW 1368   0.122   2.505   2.425
  451SOL    HW1 1369   0.077   2.417   2.442
  451SOL    HW2 1370   0.121   2.559   2.509
  452SOL     OW 1371   0.613   3.227   2.588
  452SOL    HW1 1372   0.564   3.140   2.597
  452SOL    HW2 1373   0.590   3.270   2.501
  453SOL     OW 1374   0.809   1.866   2.364
  453SOL    HW1 1375   0.849   1.957   2.355
  453SOL    HW2 1376   0.709   1.874   2.370
  454SOL     OW 1377   1.525   2.861   2.052
  454SOL    HW1 1378   1.462   2.785   2.065
  454SOL    HW2 1379   1.573   2.879   2.138
  455SOL     OW 1380   0.598   2.591   2.132
  455SOL    HW1 1381   0.622   2.660   2.064
  455SOL    HW2 1382   0.520   2.624   2.186
  456SOL     OW 1383   1.281   2.207   2.806
  456SOL    HW1 1384   1.195   2.157   2.793
  456SOL    HW2 1385   1.343   2.153   2.862
  457SOL     OW 1386   1.041   2.563   2.291
  457SOL    HW1 1387   1.067   2.559   2.387
  457SOL    HW2 1388   0.956   2.512   2.277
  458SOL     OW 1389   0.076   2.673   2.651
  458SOL    HW1 1390   0.175   2.661   2.660
  458SOL    HW2 1391   0.052   2.768   2.672
  459SOL     OW 1392   0.865   2.210   2.057
  459SOL    HW1 1393   0.924   2.273   2.008
  459SOL    HW2 1394   0.884   2.116   2.028
  460SOL     OW 1395   1.458   2.597   2.590
  460SOL    HW1 1396   1.453   2.532   2.665
  460SOL    HW2 1397   1.538   2.656   2.603
  461SOL     OW 1398   1.400   1.969   2.288
  461SOL    HW1 1399   1.376   1.932   2.198
  461SOL    HW2 1400   1.499   1.985   2.292
  462SOL     OW 1401   0.382   2.562   2.342
  462SOL    HW1 1402   0.427   2.472   2.339
  462SOL    HW2 1403   0.288   2.551   2.375
  463SOL     OW 1404   0.614   1.984   1.979
  463SOL    HW1 1405   0.712   1.962   1.986
  463SOL    HW2 1406   0.583   1.967   1.886
  464SOL     OW 1407   0.922   2.365   2.761
  464SOL    HW1 1408   0.897   2.356   2.665
  464SOL    HW2 1409   0.970   2.283   2.792
  465SOL     OW 1410   0.539   1.926   2.374
  465SOL    HW1 1411   0.458   1.927   2.432
  465SOL    HW2 1412   0.542   2.009   2.319
  466SOL     OW 1413   0.297   1.897   2.033
  466SOL    HW1 1414   0.346   1.981   2.012
  466SOL    HW2 1415   0.359   1.832   2.078
  467SOL     OW 1416   0.935   2.098   2.342
  467SOL    HW1 1417   0.887   2.139   2.264
  467SOL    HW2 1418   1.034   2.096   2.323
  468SOL     OW 1419   1.032   2.411   1.878
  468SOL    HW1 1420   0.991   2.493   1.839
  468SOL    HW2 1421   1.096   2.437   1.951
  469SOL     OW 1422   0.866   2.316   2.504
  469SOL    HW1 1423   0.834   2.388   2.442
  469SOL    HW2 1424   0.890   2.235   2.451
  470SOL     OW 1425   1.017   1.901   2.615
  470SOL    HW1 1426   0.945   1.906   2.546
  470SOL    HW2 1427   0.993   1.832   2.684
  471SOL     OW 1428   1.857   2.695   2.239
  471SOL    HW1 1429   1.899   2.631   2.303
  471SOL    HW2 1430   1.819   2.644   2.161
  472SOL     OW 1431   1.390   2.437   1.940
  472SOL    HW1 1432   1.336   2.416   2.021
  472SOL    HW2 1433   1.481   2.396   1.949
  473SOL     OW 1434   0.527   2.118   2.190
  473SOL    HW1 1435   0.554   2.059   2.115
  473SOL    HW2 1436   0.527   2.213   2.159
  474SOL     OW 1437   1.111   3.057   2.962
  474SOL    HW1 1438   1.071   3.101   3.043
  474SOL    HW2 1439   1.070   3.094   2.879
  475SOL     OW 1440   1.638   2.961   2.941
  475SOL    HW1 1441   1.643   3.042   3.000
  475SOL    HW2 1442   1.552   2.963   2.890
  476SOL     OW 1443   0.566   2.399   2.727
  476SOL    HW1 1444   0.578   2.465   2.653
  476SOL    HW2 1445   0.612   2.433   2.810
  477SOL     OW 1446   1.582   2.501   2.334
  477SOL    HW1 1447   1.551   2.562   2.407
  477SOL    HW2 1448   1.632   2.553   2.265
  478SOL     OW 1449   0.573   2.732   2.891
  478SOL    HW1 1450   0.617   2.821   2.882
  478SOL    HW2 1451   0.510   2.732   2.968
  479SOL     OW 1452   1.209   2.387   2.137
  479SOL    HW1 1453   1.222   2.303   2.191
  479SOL    HW2 1454   1.180   2.461   2.197
  480SOL     OW 1455   0.307   2.075   3.093
  480SOL    HW1 1456   0.284   2.112   3.183
  480SOL    HW2 1457   0.277   1.980   3.087
  481SOL     OW 1458   0.732   2.496   2.926
  481SOL    HW1 1459   0.791   2.470   2.850
  481SOL    HW2 1460   0.704   2.592   2.915
  482SOL     OW 1461   0.307   1.925   2.480
  482SOL    HW1 1462   0.296   2.019   2.513
  482SOL    HW2 1463   0.302   1.862   2.557
  483SOL     OW 1464   1.622   2.229   2.236
  483SOL    HW1 1465   1.624   2.153   2.300
  483SOL    HW2 1466   1.574   2.306   2.276
  484SOL     OW 1467   1.540   2.136   1.987
  484SOL    HW1 1468   1.479   2.061   2.010
  484SOL    HW2 1469   1.562   2.188   2.070
  485SOL     OW 1470   1.303   2.700   1.904
  485SOL    HW1 1471   1.337   2.607   1.919
  485SOL    HW2 1472   1.321   2.727   1.809
  486SOL     OW 1473   0.319   2.672   2.811
  486SOL    HW1 1474   0.412   2.708   2.816
  486SOL    HW2 1475   0.313   2.587   2.863
  487SOL     OW 1476   0.815   2.434   2.187
  487SOL    HW1 1477   0.822   2.345   2.141
  487SOL    HW2 1478   0.721   2.468   2.179
  488SOL     OW 1479   0.671   2.326   3.131
  488SOL    HW1 1480   0.637   2.237   3.101
  488SOL    HW2 1481   0.697   2.380   3.051
  489SOL     OW 1482   0.473   2.362   2.053
  489SOL    HW1 1483   0.534   2.442   2.057
  489SOL    HW2 1484   0.378   2.393   2.060
  490SOL     OW 1485   1.302   2.717   2.171
  490SOL    HW1 1486   1.216   2.686   2.213
  490SOL    HW2 1487   1.298   2.703   2.072
  491SOL     OW 1488   1.726   1.997   2.385
  491SOL    HW1 1489   1.799   1.980   2.318
  491SOL    HW2 1490   1.695   1.910   2.423
  492SOL     OW 1491   1.280   2.789   2.534
  492SOL    HW1 1492   1.340   2.708   2.536
  492SOL    HW2 1493   1.320   2.858   2.474
  493SOL     OW 1494   1.841   2.037   2.825
  493SOL    HW1 1495   1.880   1.952   2.789
  493SOL    HW2 1496   1.743   2.039   2.806
  494SOL     OW 1497   0.263   2.188   2.582
  494SOL    HW1 1498   0.184   2.239   2.548
  494SOL    HW2 1499   0.254   2.173   2.680
  495SOL     OW 1500   0.916   2.772   2.153
  495SOL    HW1 1501   0.979   2.810   2.085
  495SOL    HW2 1502   0.956   2.689   2.192
  496SOL     OW 1503   0.075   2.207   1.895
  496SOL    HW1 1504  -0.017   2.179   1.866
  496SOL    HW2 1505   0.106   2.284   1.839
  497SOL     OW 1506   0.072   2.028   2.180
  497SOL    HW1 1507   0.055   2.111   2.126
  497SOL    HW2 1508   0.162   1.991   2.158
  498SOL     OW 1509   1.674   2.745   3.116
  498SOL    HW1 1510   1.647   2.656   3.079
  498SOL    HW2 1511   1.675   2.813   3.043
  499SOL     OW 1512   1.225   2.187   2.311
  499SOL    HW1 1513   1.290   2.113   2.300
  499SOL    HW2 1514   1.245   2.237   2.395
  500SOL     OW 1515   0.594   2.607   2.514
  500SOL    HW1 1516   0.644   2.692   2.495
  500SOL    HW2 1517   0.506   2.609   2.466
  501SOL     OW 1518   1.083   2.846   1.949
  501SOL    HW1 1519   1.060   2.899   1.867
  501SOL    HW2 1520   1.164   2.790   1.930
  502SOL     OW 1521   1.824   2.054   3.089
  502SOL    HW1 1522   1.820   1.964   3.133
  502SOL    HW2 1523   1.827   2.043   2.990
  503SOL     OW 1524   0.428   2.286   2.382
  503SOL    HW1 1525   0.458   2.214   2.320
  503SOL    HW2 1526   0.389   2.246   2.465
  504SOL     OW 1527   1.352   1.914   2.030
  504SOL    HW1 1528   1.387   1.873   1.946
  504SOL    HW2 1529   1.262   1.876   2.050
  505SOL     OW 1530   1.300   2.315   2.553
  505SOL    HW1 1531   1.241   2.395   2.557
  505SOL    HW2 1532   1.315   2.280   2.646
  506SOL     OW 1533   1.593   2.083   2.744
  506SOL    HW1 1534   1.509   2.082   2.798
  506SOL    HW2 1535   1.595   2.166   2.688
  507SOL     OW 1536   2.092   0.628   0.113
  507SOL    HW1 1537   1.999   0.626   0.150
  507SOL    HW2 1538   2.093   0.589   0.021
  508SOL     OW 1539   2.087   0.275   0.996
  508SOL    HW1 1540   2.122   0.258   1.088
  508SOL    HW2 1541   1.999   0.230   0.984
  509SOL     OW 1542   1.881   0.368   0.647
  509SOL    HW1 1543   1.799   0.411   0.686
  509SOL    HW2 1544   1.853   0.295   0.584
  510SOL     OW 1545   2.431   1.275   1.165
  510SOL    HW1 1546   2.338   1.268   1.128
  510SOL    HW2 1547   2.442   1.364   1.209
  511SOL     OW 1548   2.630   1.144   1.023
  511SOL    HW1 1549   2.552   1.161   1.083
  511SOL    HW2 1550   2.664   1.231   0.987
  512SOL     OW 1551   2.712   0.798   1.823
  512SOL    HW1 1552   2.708   0.874   1.888
  512SOL    HW2 1553   2.734   0.834   1.732
  513SOL     OW 1554   2.547   1.012   0.665
  513SOL    HW1 1555   2.616   0.996   0.735
  513SOL    HW2 1556   2.474   1.069   0.703
  514SOL     OW 1557   2.548   1.161   1.803
  514SOL    HW1 1558   2.608   1.240   1.817
  514SOL    HW2 1559   2.462   1.192   1.762
  515SOL     OW 1560   2.197   1.435   1.061
  515SOL    HW1 1561   2.119   1.404   1.008
  515SOL    HW2 1562   2.255   1.493   1.004
  516SOL     OW 1563   2.300   0.392   1.499
  516SOL    HW1 1564   2.382   0.336   1.508
  516SOL    HW2 1565   2.219   0.334   1.503
  517SOL     OW 1566   2.093   1.713   0.483
  517SOL    HW1 1567   2.127   1.790   0.537
  517SOL    HW2 1568   2.137   1.713   0.393
  518SOL     OW 1569   2.092   1.434   0.538
  518SOL    HW1 1570   2.066   1.530   0.538
  518SOL    HW2 1571   2.021   1.380   0.583
  519SOL     OW 1572   2.102   1.091   0.886
  519SOL    HW1 1573   2.116   1.007   0.938
  519SOL    HW2 1574   2.047   1.155   0.941
  520SOL     OW 1575   2.482   1.786   1.439
  520SOL    HW1 1576   2.390   1.769   1.474
  520SOL    HW2 1577   2.510   1.878   1.465
  521SOL     OW 1578   2.468   0.964   0.123
  521SOL    HW1 1579   2.475   1.048   0.069
  521SOL    HW2 1580   2.514   0.977   0.211
  522SOL     OW 1581   1.984   0.643   0.563
  522SOL    HW1 1582   1.939   0.555   0.580
  522SOL    HW2 1583   1.983   0.697   0.647
  523SOL     OW 1584   1.889   1.596   0.117
  523SOL    HW1 1585   1.870   1.500   0.138
  523SOL    HW2 1586   1.856   1.654   0.192
  524SOL     OW 1587   1.975   0.737   1.597
  524SOL    HW1 1588   2.063   0.724   1.642
  524SOL    HW2 1589   1.962   0.834   1.575
  525SOL     OW 1590   2.475   1.365   0.726
  525SOL    HW1 1591   2.426   1.278   0.735
  525SOL    HW2 1592   2.452   1.408   0.639
  526SOL     OW 1593   2.671   0.004   0.502
  526SOL    HW1 1594   2.711   0.095   0.493
  526SOL    HW2 1595   2.571   0.012   0.508
  527SOL     OW 1596   2.059   0.976   1.264
  527SOL    HW1 1597   2.148   0.931   1.250
  527SOL    HW2 1598   1.986   0.911   1.245
  528SOL     OW 1599   2.179   0.251   1.801
  528SOL    HW1 1600   2.250   0.322   1.807
  528SOL    HW2 1601   2.091   0.290   1.829
  529SOL     OW 1602   2.460   0.729   0.270
  529SOL    HW1 1603   2.484   0.798   0.202
  529SOL    HW2 1604   2.382   0.762   0.324
  530SOL     OW 1605   2.669   0.605   1.465
  530SOL    HW1 1606   2.622   0.602   1.554
  530SOL    HW2 1607   2.618   0.550   1.399
  531SOL     OW 1608   1.938   0.811   0.789
  531SOL    HW1 1609   2.037   0.799   0.798
  531SOL    HW2 1610   1.914   0.906   0.810
  532SOL     OW 1611   1.992   1.821   1.571
  532SOL    HW1 1612   1.982   1.806   1.670
  532SOL    HW2 1613   1.906   1.857   1.535
  533SOL     OW 1614   2.727   0.348   0.195
  533SOL    HW1 1615   2.786   0.411   0.146
  533SOL    HW2 1616   2.746   0.254   0.166
  534SOL     OW 1617   2.412   0.196   0.885
  534SOL    HW1 1618   2.407   0.191   0.985
  534SOL    HW2 1619   2.414   0.292   0.856
  535SOL     OW 1620   2.870   1.456   0.477
  535SOL    HW1 1621   2.824   1.528   0.425
  535SOL    HW2 1622   2.866   1.476   0.575
  536SOL     OW 1623   2.213   1.801   0.853
  536SOL    HW1 1624   2.263   1.715   0.859
  536SOL    HW2 1625   2.278   1.878   0.850
  537SOL     OW 1626   2.183   0.943   0.242
  537SOL    HW1 1627   2.265   0.982   0.200
  537SOL    HW2 1628   2.156   0.861   0.193
  538SOL     OW 1629   2.323   1.266   1.727
  538SOL    HW1 1630   2.273   1.267   1.641
  538SOL    HW2 1631   2.260   1.248   1.803
  539SOL     OW 1632   2.064   0.285   1.498
  539SOL    HW1 1633   1.984   0.345   1.485
  539SOL    HW2 1634   2.054   0.236   1.584
  540SOL     OW 1635   2.326   1.743   0.323
  540SOL    HW1 1636   2.359   1.782   0.409
  540SOL    HW2 1637   2.402   1.736   0.258
  541SOL     OW 1638   2.111   1.785   1.241
  541SOL    HW1 1639   2.168   1.720   1.291
  541SOL    HW2 1640   2.095   1.752   1.148
  542SOL     OW 1641   2.244   0.700   0.480
  542SOL    HW1 1642   2.289   0.610   0.477
  542SOL    HW2 1643   2.150   0.689   0.513
  543SOL     OW 1644   2.476   0.122   0.117
  543SOL    HW1 1645   2.574   0.100   0.124
  543SOL    HW2 1646   2.445   0.105   0.024
  544SOL     OW 1647   2.643   0.264   1.749
  544SOL    HW1 1648   2.710   0.203   1.792
  544SOL    HW2 1649   2.570   0.283   1.814
  545SOL     OW 1650   2.750   1.514   1.195
  545SOL    HW1 1651   2.727   1.489   1.101
  545SOL    HW2 1652   2.811   1.445   1.234
  546SOL     OW 1653   2.665   1.402   0.924
  546SOL    HW1 1654   2.755   1.416   0.882
  546SOL    HW2 1655   2.594   1.404   0.853
  547SOL     OW 1656   2.784   0.503   0.899
  547SOL    HW1 1657   2.759   0.494   0.803
  547SOL    HW2 1658   2.832   0.421   0.930
  548SOL     OW 1659   2.401   0.064   0.512
  548SOL    HW1 1660   2.320   0.065   0.570
  548SOL    HW2 1661   2.404   0.147   0.457
  549SOL     OW 1662   2.159   0.035   0.171
  549SOL    HW1 1663   2.208   0.119   0.150
  549SOL    HW2 1664   2.221  -0.030   0.216
  550SOL     OW 1665   2.797   0.236   0.480
  550SOL    HW1 1666   2.749   0.277   0.402
  550SOL    HW2 1667   2.896   0.234   0.461
  551SOL     OW 1668   3.089   1.570   0.793
  551SOL    HW1 1669   3.110   1.644   0.728
  551SOL    HW2 1670   3.157   1.570   0.866
  552SOL     OW 1671   2.321   1.152   0.741
  552SOL    HW1 1672   2.250   1.125   0.806
  552SOL    HW2 1673   2.295   1.124   0.648
  553SOL     OW 1674   1.940   0.556   1.386
  553SOL    HW1 1675   2.032   0.555   1.345
  553SOL    HW2 1676   1.934   0.630   1.453
  554SOL     OW 1677   2.423   0.222   1.147
  554SOL    HW1 1678   2.461   0.138   1.184
  554SOL    HW2 1679   2.335   0.241   1.191
  555SOL     OW 1680   2.879   0.039   0.753
  555SOL    HW1 1681   2.807   0.044   0.684
  555SOL    HW2 1682   2.855  -0.030   0.822
  556SOL     OW 1683   2.350   1.385   0.174
  556SOL    HW1 1684   2.263   1.370   0.221
  556SOL    HW2 1685   2.333   1.411   0.079
  557SOL     OW 1686   2.389   0.256   0.328
  557SOL    HW1 1687   2.416   0.197   0.253
  557SOL    HW2 1688   2.389   0.351   0.297
  558SOL     OW 1689   2.777   0.089   1.402
  558SOL    HW1 1690   2.802   0.069   1.307
  558SOL    HW2 1691   2.849   0.145   1.444
  559SOL     OW 1692   2.842   1.116   1.719
  559SOL    HW1 1693   2.743   1.122   1.729
  559SOL    HW2 1694   2.865   1.036   1.663
  560SOL     OW 1695   2.567   1.050   0.368
  560SOL    HW1 1696   2.553   1.057   0.467
  560SOL    HW2 1697   2.651   0.999   0.350
  561SOL     OW 1698   2.272   0.813   1.251
  561SOL    HW1 1699   2.358   0.825   1.301
  561SOL    HW2 1700   2.230   0.726   1.278
  562SOL     OW 1701   2.229   1.100   0.501
  562SOL    HW1 1702   2.222   1.183   0.445
  562SOL    HW2 1703   2.233   1.020   0.441
  563SOL     OW 1704   2.428   0.537   0.865
  563SOL    HW1 1705   2.440   0.603   0.791
  563SOL    HW2 1706   2.474   0.571   0.948
  564SOL     OW 1707   2.216   1.510   1.329
  564SOL    HW1 1708   2.195   1.466   1.242
  564SOL    HW2 1709   2.313   1.536   1.332
  565SOL     OW 1710   2.264   0.751   1.598
  565SOL    HW1 1711   2.332   0.806   1.551
  565SOL    HW2 1712   2.304   0.663   1.625
  566SOL     OW 1713   2.366   0.050   1.740
  566SOL    HW1 1714   2.324  -0.007   1.670
  566SOL    HW2 1715   2.300   0.119   1.772
  567SOL     OW 1716   2.435   0.870   1.029
  567SOL    HW1 1717   2.479   0.959   1.020
  567SOL    HW2 1718   2.372   0.870   1.106
  568SOL     OW 1719   3.071   0.525   0.275
  568SOL    HW1 1720   3.084   0.441   0.329
  568SOL    HW2 1721   3.042   0.599   0.335
  569SOL     OW 1722   2.169   0.213   1.231
  569SOL    HW1 1723   2.146   0.250   1.321
  569SOL    HW2 1724   2.139   0.118   1.225
  570SOL     OW 1725   1.899   1.310   1.282
  570SOL    HW1 1726   1.952   1.261   1.350
  570SOL    HW2 1727   1.921   1.408   1.287
  571SOL     OW 1728   2.594   0.634   1.064
  571SOL    HW1 1729   2.653   0.608   0.988
  571SOL    HW2 1730   2.566   0.730   1.053
  572SOL     OW 1731   2.169   0.063   0.618
  572SOL    HW1 1732   2.158   0.157   0.651
  572SOL    HW2 1733   2.164   0.000   0.695
  573SOL     OW 1734   2.885   0.766   0.966
  573SOL    HW1 1735   2.900   0.787   1.062
  573SOL    HW2 1736   2.855   0.671   0.957
  574SOL     OW 1737   2.842   1.573   1.700
  574SOL    HW1 1738   2.822   1.617   1.612
  574SOL    HW2 1739   2.881   1.482   1.684
  575SOL     OW 1740   2.212   0.898   1.804
  575SOL    HW1 1741   2.288   0.942   1.852
  575SOL    HW2 1742   2.247   0.851   1.722
  576SOL     OW 1743   2.181   0.810   0.949
  576SOL    HW1 1744   2.274   0.846   0.954
  576SOL    HW2 1745   2.175   0.725   1.001
  577SOL     OW 1746   2.201   0.509   1.006
  577SOL    HW1 1747   2.149   0.426   0.989
  577SOL    HW2 1748   2.278   0.514   0.942
  578SOL     OW 1749   1.870   1.326   0.200
  578SOL    HW1 1750   1.777   1.347   0.169
  578SOL    HW2 1751   1.880   1.227   0.213
  579SOL     OW 1752   1.950   1.801   0.927
  579SOL    HW1 1753   1.908   1.715   0.900
  579SOL    HW2 1754   2.044   1.804   0.893
  580SOL     OW 1755   2.366   1.568   0.910
  580SOL    HW1 1756   2.432   1.642   0.919
  580SOL    HW2 1757   2.410   1.489   0.868
  581SOL     OW 1758   2.864   0.796   1.238
  581SOL    HW1 1759   2.905   0.764   1.324
  581SOL    HW2 1760   2.768   0.769   1.235
  582SOL     OW 1761   1.902   0.544   1.114
  582SOL    HW1 1762   1.987   0.511   1.073
  582SOL    HW2 1763   1.915   0.559   1.212
  583SOL     OW 1764   2.051   0.520   1.722
  583SOL    HW1 1765   2.110   0.480   1.652
  583SOL    HW2 1766   1.993   0.591   1.681
  584SOL     OW 1767   2.677   0.572   0.325
  584SOL    HW1 1768   2.684   0.483   0.279
  584SOL    HW2 1769   2.583   0.606   0.317
  585SOL     OW 1770   2.114   1.564   1.744
  585SOL    HW1 1771   2.084   1.621   1.820
  585SOL    HW2 1772   2.107   1.467   1.770
  586SOL     OW 1773   2.533   0.464   1.269
  586SOL    HW1 1774   2.499   0.375   1.239
  586SOL    HW2 1775   2.559   0.518   1.189
  587SOL     OW 1776   2.792   1.678   1.465
  587SOL    HW1 1777   2.768   1.660   1.370
  587SOL    HW2 1778   2.822   1.772   1.475
  588SOL     OW 1779   2.335   0.500   0.191
  588SOL    HW1 1780   2.396   0.580   0.195
  588SOL    HW2 1781   2.240   0.531   0.198
  589SOL     OW 1782   2.021   1.137   1.466
  589SOL    HW1 1783   2.043   1.076   1.542
  589SOL    HW2 1784   2.031   1.088   1.380
  590SOL     OW 1785   1.945   1.258   1.022
  590SOL    HW1 1786   1.940   1.257   1.122
  590SOL    HW2 1787   1.862   1.217   0.984
  591SOL     OW 1788   2.550   1.662   1.716
  591SOL    HW1 1789   2.494   1.743   1.725
  591SOL    HW2 1790   2.602   1.666   1.630
  592SOL     OW 1791   2.765   0.086   0.133
  592SOL    HW1 1792   2.816   0.087   0.047
  592SOL    HW2 1793   2.821   0.044   0.204
  593SOL     OW 1794   1.992   1.794   1.851
  593SOL    HW1 1795   1.951   1.720   1.904
  593SOL    HW2 1796   2.056   1.845   1.909
  594SOL     OW 1797   3.142   0.927   0.672
  594SOL    HW1 1798   3.202   0.846   0.674
  594SOL    HW2 1799   3.182   0.996   0.612
  595SOL     OW 1800   2.692   1.273   1.422
  595SOL    HW1 1801   2.687   1.306   1.517
  595SOL    HW2 1802   2.606   1.292   1.376
  596SOL     OW 1803   2.534   1.616   0.154
  596SOL    HW1 1804   2.543   1.626   0.055
  596SOL    HW2 1805   2.494   1.527   0.175
  597SOL     OW 1806   2.125   0.326   0.720
  597SOL    HW1 1807   2.046   0.377   0.686
  597SOL    HW2 1808   2.116   0.311   0.818
  598SOL     OW 1809   2.684   1.002   1.372
  598SOL    HW1 1810   2.724   1.001   1.280
  598SOL    HW2 1811   2.694   1.094   1.412
  599SOL     OW 1812   2.234   1.288   1.490
  599SOL    HW1 1813   2.221   1.381   1.456
  599SOL    HW2 1814   2.150   1.236   1.477
  600SOL     OW 1815   2.876   0.236   0.971
  600SOL    HW1 1816   2.868   0.200   0.878
  600SOL    HW2 1817   2.874   0.160   1.036
  601SOL     OW 1818   2.452   1.487   0.491
  601SOL    HW1 1819   2.494   1.429   0.421
  601SOL    HW2 1820   2.408   1.566   0.447
  602SOL     OW 1821   2.117   1.348   0.290
  602SOL    HW1 1822   2.021   1.349   0.263
  602SOL    HW2 1823   2.129   1.401   0.374
  603SOL     OW 1824   1.967   1.013   1.726
  603SOL    HW1 1825   1.890   0.980   1.780
  603SOL    HW2 1826   2.052   0.983   1.768
  604SOL     OW 1827   2.534   0.203   1.489
  604SOL    HW1 1828   2.624   0.187   1.449
  604SOL    HW2 1829   2.542   0.208   1.588
  605SOL     OW 1830   1.937   0.345   0.033
  605SOL    HW1 1831   1.845   0.317   0.004
  605SOL    HW2 1832   1.968   0.422  -0.023
  606SOL     OW 1833   2.475   0.842   1.431
  606SOL    HW1 1834   2.531   0.923   1.414
  606SOL    HW2 1835   2.534   0.762   1.434
  607SOL     OW 1836   2.578   0.565   1.708
  607SOL    HW1 1837   2.597   0.630   1.782
  607SOL    HW2 1838   2.638   0.485   1.717
  608SOL     OW 1839   2.252   1.741   1.560
  608SOL    HW1 1840   2.161   1.782   1.558
  608SOL    HW2 1841   2.245   1.647   1.592
  609SOL     OW 1842   3.087   0.325   0.449
  609SOL    HW1 1843   3.152   0.251   0.438
  609SOL    HW2 1844   3.107   0.375   0.533
  610SOL     OW 1845   2.456   0.745   0.652
  610SOL    HW1 1846   2.506   0.830   0.633
  610SOL    HW2 1847   2.368   0.747   0.604
  611SOL     OW 1848   2.721   1.374   0.016
  611SOL    HW1 1849   2.675   1.389   0.104
  611SOL    HW2 1850   2.765   1.459  -0.014
  612SOL     OW 1851   2.523   1.790   0.953
  612SOL    HW1 1852   2.477   1.878   0.940
  612SOL    HW2 1853   2.622   1.802   0.946
  613SOL     OW 1854   2.721   0.956   0.861
  613SOL    HW1 1855   2.775   0.887   0.909
  613SOL    HW2 1856   2.689   1.025   0.927
  614SOL     OW 1857   2.945   0.984   0.087
  614SOL    HW1 1858   2.922   1.037   0.005
  614SOL    HW2 1859   3.026   0.928   0.068
  615SOL     OW 1860   2.083   1.314   1.844
  615SOL    HW1 1861   2.018   1.241   1.823
  615SOL    HW2 1862   2.087   1.328   1.942
  616SOL     OW 1863   1.941   1.240   0.653
  616SOL    HW1 1864   1.940   1.193   0.741
  616SOL    HW2 1865   2.023   1.212   0.602
  617SOL     OW 1866   2.534   1.391   1.624
  617SOL    HW1 1867   2.456   1.341   1.662
  617SOL    HW2 1868   2.531   1.486   1.655
  618SOL     OW 1869   2.290   0.424   0.520
  618SOL    HW1 1870   2.320   0.352   0.458
  618SOL    HW2 1871   2.251   0.384   0.603
  619SOL     OW 1872   2.179   0.547   1.280
  619SOL    HW1 1873   2.217   0.488   1.352
  619SOL    HW2 1874   2.219   0.521   1.192
  620SOL     OW 1875   2.674   1.586   0.687
  620SOL    HW1 1876   2.706   1.596   0.593
  620SOL    HW2 1877   2.595   1.524   0.689
  621SOL     OW 1878   2.863   0.034   1.154
  621SOL    HW1 1879   2.800  -0.038   1.123
  621SOL    HW2 1880   2.956  -0.002   1.154
  622SOL     OW 1881   2.632   1.330   0.301
  622SOL    HW1 1882   2.586   1.243   0.318
  622SOL    HW2 1883   2.723   1.327   0.342
  623SOL     OW 1884   2.480   1.567   1.284
  623SOL    HW1 1885   2.475   1.649   1.341
  623SOL    HW2 1886   2.569   1.564   1.239
  624SOL     OW 1887   1.901   1.077   0.300
  624SOL    HW1 1888   2.000   1.066   0.291
  624SOL    HW2 1889   1.861   0.991   0.332
  625SOL     OW 1890   2.737   1.646   0.337
  625SOL    HW1 1891   2.660   1.611   0.283
  625SOL    HW2 1892   2.705   1.717   0.399
  626SOL     OW 1893   2.092   0.628   1.975
  626SOL    HW1 1894   1.999   0.626   2.012
  626SOL    HW2 1895   2.093   0.589   1.883
  627SOL     OW 1896   2.087   0.275   2.858
  627SOL    HW1 1897   2.122   0.258   2.950
  627SOL    HW2 1898   1.999   0.230   2.846
  628SOL     OW 1899   1.881   0.368   2.509
  628SOL    HW1 1900   1.799   0.411   2.548
  628SOL    HW2 1901   1.853   0.295   2.446
  629SOL     OW 1902   2.630   1.144   2.885
  629SOL    HW1 1903   2.552   1.161   2.945
  629SOL    HW2 1904   2.664   1.231   2.849
  630SOL     OW 1905   2.547   1.012   2.527
  630SOL    HW1 1906   2.616   0.996   2.597
  630SOL    HW2 1907   2.474   1.069   2.565
  631SOL     OW 1908   2.093   1.713   2.345
  631SOL    HW1 1909   2.127   1.790   2.399
  631SOL    HW2 1910   2.137   1.713   2.255
  632SOL     OW 1911   2.092   1.434   2.400
  632SOL    HW1 1912   2.066   1.530   2.400
  632SOL    HW2 1913   2.021   1.380   2.445
  633SOL     OW 1914   2.102   1.091   2.748
  633SOL    HW1 1915   2.116   1.007   2.800
  633SOL    HW2 1916   2.047   1.155   2.803
  634SOL     OW 1917   2.468   0.964   1.985
  634SOL    HW1 1918   2.475   1.048   1.931
  634SOL    HW2 1919   2.514   0.977   2.073
  635SOL     OW 1920   1.984   0.643   2.425
  635SOL    HW1 1921   1.939   0.555   2.442
  635SOL    HW2 1922   1.983   0.697   2.509
  636SOL     OW 1923   1.889   1.596   1.979
  636SOL    HW1 1924   1.870   1.500   2.000
  636SOL    HW2 1925   1.856   1.654   2.054
  637SOL     OW 1926   2.475   1.365   2.588
  637SOL    HW1 1927   2.426   1.278   2.597
  637SOL    HW2 1928   2.452   1.408   2.501
  638SOL     OW 1929   2.671   0.004   2.364
  638SOL    HW1 1930   2.711   0.095   2.355
  638SOL    HW2 1931   2.571   0.012   2.370
  639SOL     OW 1932   2.460   0.729   2.132
  639SOL    HW1 1933   2.484   0.798   2.064
  639SOL    HW2 1934   2.382   0.762   2.186
  640SOL     OW 1935   1.938   0.811   2.651
  640SOL    HW1 1936   2.037   0.799   2.660
  640SOL    HW2 1937   1.914   0.906   2.672
  641SOL     OW 1938   2.727   0.348   2.057
  641SOL    HW1 1939   2.786   0.411   2.008
  641SOL    HW2 1940   2.746   0.254   2.028
  642SOL     OW 1941   2.870   1.456   2.339
  642SOL    HW1 1942   2.824   1.528   2.287
  642SOL    HW2 1943   2.866   1.476   2.437
  643SOL     OW 1944   2.213   1.801   2.715
  643SOL    HW1 1945   2.263   1.715   2.721
  643SOL    HW2 1946   2.278   1.878   2.712
  644SOL     OW 1947   2.183   0.943   2.104
  644SOL    HW1 1948   2.265   0.982   2.062
  644SOL    HW2 1949   2.156   0.861   2.055
  645SOL     OW 1950   2.326   1.743   2.185
  645SOL    HW1 1951   2.359   1.782   2.271
  645SOL    HW2 1952   2.402   1.736   2.120
  646SOL     OW 1953   2.111   1.785   3.103
  646SOL    HW1 1954   2.168   1.720   3.153
  646SOL    HW2 1955   2.095   1.752   3.010
  647SOL     OW 1956   2.244   0.700   2.342
  647SOL    HW1 1957   2.289   0.610   2.339
  647SOL    HW2 1958   2.150   0.689   2.375
  648SOL     OW 1959   2.476   0.122   1.979
  648SOL    HW1 1960   2.574   0.100   1.986
  648SOL    HW2 1961   2.445   0.105   1.886
  649SOL     OW 1962   2.784   0.503   2.761
  649SOL    HW1 1963   2.759   0.494   2.665
  649SOL    HW2 1964   2.832   0.421   2.792
  650SOL     OW 1965   2.401   0.064   2.374
  650SOL    HW1 1966   2.320   0.065   2.432
  650SOL    HW2 1967   2.404   0.147   2.319
  651SOL     OW 1968   2.159   0.035   2.033
  651SOL    HW1 1969   2.208   0.119   2.012
  651SOL    HW2 1970   2.221  -0.030   2.078
  652SOL     OW 1971   2.797   0.236   2.342
  652SOL    HW1 1972   2.749   0.277   2.264
  652SOL    HW2 1973   2.896   0.234   2.323
  653SOL     OW 1974   3.089   1.570   2.655
  653SOL    HW1 1975   3.110   1.644   2.590
  653SOL    HW2 1976   3.157   1.570   2.728
  654SOL     OW 1977   2.321   1.152   2.603
  654SOL    HW1 1978   2.250   1.125   2.668
  654SOL    HW2 1979   2.295   1.124   2.510
  655SOL     OW 1980   2.879   0.039   2.615
  655SOL    HW1 1981   2.807   0.044   2.546
  655SOL    HW2 1982   2.855  -0.030   2.684
  656SOL     OW 1983   2.350   1.385   2.036
  656SOL    HW1 1984   2.263   1.370   2.083
  656SOL    HW2 1985   2.333   1.411   1.941
  657SOL     OW 1986   2.389   0.256   2.190
  657SOL    HW1 1987   2.416   0.197   2.115
  657SOL    HW2 1988   2.389   0.351   2.159
  658SOL     OW 1989   2.567   1.050   2.230
  658SOL    HW1 1990   2.553   1.057   2.329
  658SOL    HW2 1991   2.651   0.999   2.212
  659SOL     OW 1992   2.229   1.100   2.363
  659SOL    HW1 1993   2.222   1.183   2.307
  659SOL    HW2 1994   2.233   1.020   2.303
  660SOL     OW 1995   2.428   0.537   2.727
  660SOL    HW1 1996   2.440   0.603   2.653
  660SOL    HW2 1997   2.474   0.571   2.810
  661SOL     OW 1998   3.134   1.445   3.004
  661SOL    HW1 1999   3.181   1.458   3.091
  661SOL    HW2 2000   3.068   1.371   3.013
  662SOL     OW 2001   3.071   0.525   2.137
  662SOL    HW1 2002   3.084   0.441   2.191
  662SOL    HW2 2003   3.042   0.599   2.197
  663SOL     OW 2004   2.594   0.634   2.926
  663SOL    HW1 2005   2.653   0.608   2.850
  663SOL    HW2 2006   2.566   0.730   2.915
  664SOL     OW 2007   2.169   0.063   2.480
  664SOL    HW1 2008   2.158   0.157   2.513
  664SOL    HW2 2009   2.164   0.000   2.557
  665SOL     OW 2010   2.885   0.766   2.828
  665SOL    HW1 2011   2.900   0.787   2.924
  665SOL    HW2 2012   2.855   0.671   2.819
  666SOL     OW 2013   2.181   0.810   2.811
  666SOL    HW1 2014   2.274   0.846   2.816
  666SOL    HW2 2015   2.175   0.725   2.863
  667SOL     OW 2016   1.870   1.326   2.062
  667SOL    HW1 2017   1.777   1.347   2.031
  667SOL    HW2 2018   1.880   1.227   2.075
  668SOL     OW 2019   1.950   1.801   2.789
  668SOL    HW1 2020   1.908   1.715   2.762
  668SOL    HW2 2021   2.044   1.804   2.755
  669SOL     OW 2022   2.366   1.568   2.772
  669SOL    HW1 2023   2.432   1.642   2.781
  669SOL    HW2 2024   2.410   1.489   2.730
  670SOL     OW 2025   2.864   0.796   3.100
  670SOL    HW1 2026   2.905   0.764   3.186
  670SOL    HW2 2027   2.768   0.769   3.097
  671SOL     OW 2028   2.677   0.572   2.187
  671SOL    HW1 2029   2.684   0.483   2.141
  671SOL    HW2 2030   2.583   0.606   2.179
  672SOL     OW 2031   2.533   0.464   3.131
  672SOL    HW1 2032   2.499   0.375   3.101
  672SOL    HW2 2033   2.559   0.518   3.051
  673SOL     OW 2034   2.335   0.500   2.053
  673SOL    HW1 2035   2.396   0.580   2.057
  673SOL    HW2 2036   2.240   0.531   2.060
  674SOL     OW 2037   1.945   1.258   2.884
  674SOL    HW1 2038   1.940   1.257   2.984
  674SOL    HW2 2039   1.862   1.217   2.846
  675SOL     OW 2040   2.765   0.086   1.995
  675SOL    HW1 2041   2.816   0.087   1.909
  675SOL    HW2 2042   2.821   0.044   2.066
  676SOL     OW 2043   3.142   0.927   2.534
  676SOL    HW1 2044   3.202   0.846   2.536
  676SOL    HW2 2045   3.182   0.996   2.474
  677SOL     OW 2046   2.534   1.616   2.016
  677SOL    HW1 2047   2.543   1.626   1.917
  677SOL    HW2 2048   2.494   1.527   2.037
  678SOL     OW 2049   2.125   0.326   2.582
  678SOL    HW1 2050   2.046   0.377   2.548
  678SOL    HW2 2051   2.116   0.311   2.680
  679SOL     OW 2052   2.452   1.487   2.353
  679SOL    HW1 2053   2.494   1.429   2.283
  679SOL    HW2 2054   2.408   1.566   2.309
  680SOL     OW 2055   2.117   1.348   2.152
  680SOL    HW1 2056   2.021   1.349   2.125
  680SOL    HW2 2057   2.129   1.401   2.236
  681SOL     OW 2058   1.937   0.345   1.895
  681SOL    HW1 2059   1.845   0.317   1.866
  681SOL    HW2 2060   1.968   0.422   1.839
  682SOL     OW 2061   1.934   0.166   2.180
  682SOL    HW1 2062   1.917   0.249   2.126
  682SOL    HW2 2063   2.024   0.129   2.158
  683SOL     OW 2064   3.087   0.325   2.311
  683SOL    HW1 2065   3.152   0.251   2.300
  683SOL    HW2 2066   3.107   0.375   2.395
  684SOL     OW 2067   2.456   0.745   2.514
  684SOL    HW1 2068   2.506   0.830   2.495
  684SOL    HW2 2069   2.368   0.747   2.466
  685SOL     OW 2070   2.721   1.374   1.878
  685SOL    HW1 2071   2.675   1.389   1.966
  685SOL    HW2 2072   2.765   1.459   1.848
  686SOL     OW 2073   2.523   1.790   2.815
  686SOL    HW1 2074   2.477   1.878   2.802
  686SOL    HW2 2075   2.622   1.802   2.808
  687SOL     OW 2076   2.721   0.956   2.723
  687SOL    HW1 2077   2.775   0.887   2.771
  687SOL    HW2 2078   2.689   1.025   2.789
  688SOL     OW 2079   1.941   1.240   2.515
  688SOL    HW1 2080   1.940   1.193   2.603
  688SOL    HW2 2081   2.023   1.212   2.464
  689SOL     OW 2082   2.290   0.424   2.382
  689SOL    HW1 2083   2.320   0.352   2.320
  689SOL    HW2 2084   2.251   0.384   2.465
  690SOL     OW 2085   2.674   1.586   2.549
  690SOL    HW1 2086   2.706   1.596   2.455
  690SOL    HW2 2087   2.595   1.524   2.551
  691SOL     OW 2088   2.632   1.330   2.163
  691SOL    HW1 2089   2.586   1.243   2.180
  691SOL    HW2 2090   2.723   1.327   2.204
  692SOL     OW 2091   1.901   1.077   2.162
  692SOL    HW1 2092   2.000   1.066   2.153
  692SOL    HW2 2093   1.861   0.991   2.194
  693SOL     OW 2094   2.737   1.646   2.199
  693SOL    HW1 2095   2.660   1.611   2.145
  693SOL    HW2 2096   2.705   1.717   2.261
  694SOL     OW 2097   2.092   2.490   0.113
  694SOL    HW1 2098   1.999   2.488   0.150
  694SOL    HW2 2099   2.093   2.451   0.021
  695SOL     OW 2100   2.087   2.137   0.996
  695SOL    HW1 2101   2.122   2.120   1.088
  695SOL    HW2 2102   1.999   2.092   0.984
  696SOL     OW 2103   1.881   2.230   0.647
  696SOL    HW1 2104   1.799   2.273   0.686
  696SOL    HW2 2105   1.853   2.157   0.584
  697SOL     OW 2106   2.630   3.006   1.023
  697SOL    HW1 2107   2.552   3.023   1.083
  697SOL    HW2 2108   2.664   3.093   0.987
  698SOL     OW 2109   2.712   2.660   1.823
  698SOL    HW1 2110   2.708   2.736   1.888
  698SOL    HW2 2111   2.734   2.696   1.732
  699SOL     OW 2112   2.547   2.874   0.665
  699SOL    HW1 2113   2.616   2.858   0.735
  699SOL    HW2 2114   2.474   2.931   0.703
  700SOL     OW 2115   2.300   2.254   1.499
  700SOL    HW1 2116   2.382   2.198   1.508
  700SOL    HW2 2117   2.219   2.196   1.503
  701SOL     OW 2118   2.102   2.953   0.886
  701SOL    HW1 2119   2.116   2.869   0.938
  701SOL    HW2 2120   2.047   3.017   0.941
  702SOL     OW 2121   1.984   2.505   0.563
  702SOL    HW1 2122   1.939   2.417   0.580
  702SOL    HW2 2123   1.983   2.559   0.647
  703SOL     OW 2124   1.975   2.599   1.597
  703SOL    HW1 2125   2.063   2.586   1.642
  703SOL    HW2 2126   1.962   2.696   1.575
  704SOL     OW 2127   2.671   1.866   0.502
  704SOL    HW1 2128   2.711   1.957   0.493
  704SOL    HW2 2129   2.571   1.874   0.508
  705SOL     OW 2130   2.059   2.838   1.264
  705SOL    HW1 2131   2.148   2.793   1.250
  705SOL    HW2 2132   1.986   2.773   1.245
  706SOL     OW 2133   2.179   2.113   1.801
  706SOL    HW1 2134   2.250   2.184   1.807
  706SOL    HW2 2135   2.091   2.152   1.829
  707SOL     OW 2136   2.460   2.591   0.270
  707SOL    HW1 2137   2.484   2.660   0.202
  707SOL    HW2 2138   2.382   2.624   0.324
  708SOL     OW 2139   2.669   2.467   1.465
  708SOL    HW1 2140   2.622   2.464   1.554
  708SOL    HW2 2141   2.618   2.412   1.399
  709SOL     OW 2142   2.853   2.272   1.242
  709SOL    HW1 2143   2.776   2.306   1.296
  709SOL    HW2 2144   2.819   2.221   1.163
  710SOL     OW 2145   1.938   2.673   0.789
  710SOL    HW1 2146   2.037   2.661   0.798
  710SOL    HW2 2147   1.914   2.768   0.810
  711SOL     OW 2148   2.727   2.210   0.195
  711SOL    HW1 2149   2.786   2.273   0.146
  711SOL    HW2 2150   2.746   2.116   0.166
  712SOL     OW 2151   2.412   2.058   0.885
  712SOL    HW1 2152   2.407   2.053   0.985
  712SOL    HW2 2153   2.414   2.154   0.856
  713SOL     OW 2154   2.064   2.147   1.498
  713SOL    HW1 2155   1.984   2.207   1.485
  713SOL    HW2 2156   2.054   2.098   1.584
  714SOL     OW 2157   2.244   2.562   0.480
  714SOL    HW1 2158   2.289   2.472   0.477
  714SOL    HW2 2159   2.150   2.551   0.513
  715SOL     OW 2160   2.476   1.984   0.117
  715SOL    HW1 2161   2.574   1.962   0.124
  715SOL    HW2 2162   2.445   1.967   0.024
  716SOL     OW 2163   2.643   2.126   1.749
  716SOL    HW1 2164   2.710   2.065   1.792
  716SOL    HW2 2165   2.570   2.145   1.814
  717SOL     OW 2166   2.784   2.365   0.899
  717SOL    HW1 2167   2.759   2.356   0.803
  717SOL    HW2 2168   2.832   2.283   0.930
  718SOL     OW 2169   2.401   1.926   0.512
  718SOL    HW1 2170   2.320   1.927   0.570
  718SOL    HW2 2171   2.404   2.009   0.457
  719SOL     OW 2172   2.797   2.098   0.480
  719SOL    HW1 2173   2.749   2.139   0.402
  719SOL    HW2 2174   2.896   2.096   0.461
  720SOL     OW 2175   1.940   2.418   1.386
  720SOL    HW1 2176   2.032   2.417   1.345
  720SOL    HW2 2177   1.934   2.492   1.453
  721SOL     OW 2178   2.423   2.084   1.147
  721SOL    HW1 2179   2.461   2.000   1.184
  721SOL    HW2 2180   2.335   2.103   1.191
  722SOL     OW 2181   2.879   1.901   0.753
  722SOL    HW1 2182   2.807   1.906   0.684
  722SOL    HW2 2183   2.855   1.832   0.822
  723SOL     OW 2184   2.389   2.118   0.328
  723SOL    HW1 2185   2.416   2.059   0.253
  723SOL    HW2 2186   2.389   2.213   0.297
  724SOL     OW 2187   2.777   1.951   1.402
  724SOL    HW1 2188   2.802   1.931   1.307
  724SOL    HW2 2189   2.849   2.007   1.444
  725SOL     OW 2190   2.842   2.978   1.719
  725SOL    HW1 2191   2.743   2.984   1.729
  725SOL    HW2 2192   2.865   2.898   1.663
  726SOL     OW 2193   2.272   2.675   1.251
  726SOL    HW1 2194   2.358   2.687   1.301
  726SOL    HW2 2195   2.230   2.588   1.278
  727SOL     OW 2196   2.428   2.399   0.865
  727SOL    HW1 2197   2.440   2.465   0.791
  727SOL    HW2 2198   2.474   2.433   0.948
  728SOL     OW 2199   2.264   2.613   1.598
  728SOL    HW1 2200   2.332   2.668   1.551
  728SOL    HW2 2201   2.304   2.525   1.625
  729SOL     OW 2202   2.875   1.967   1.770
  729SOL    HW1 2203   2.881   2.052   1.718
  729SOL    HW2 2204   2.907   1.891   1.713
  730SOL     OW 2205   2.366   1.912   1.740
  730SOL    HW1 2206   2.324   1.855   1.670
  730SOL    HW2 2207   2.300   1.981   1.772
  731SOL     OW 2208   2.435   2.732   1.029
  731SOL    HW1 2209   2.479   2.821   1.020
  731SOL    HW2 2210   2.372   2.732   1.106
  732SOL     OW 2211   3.071   2.387   0.275
  732SOL    HW1 2212   3.084   2.303   0.329
  732SOL    HW2 2213   3.042   2.461   0.335
  733SOL     OW 2214   2.169   2.075   1.231
  733SOL    HW1 2215   2.146   2.112   1.321
  733SOL    HW2 2216   2.139   1.980   1.225
  734SOL     OW 2217   2.594   2.496   1.064
  734SOL    HW1 2218   2.653   2.470   0.988
  734SOL    HW2 2219   2.566   2.592   1.053
  735SOL     OW 2220   2.169   1.925   0.618
  735SOL    HW1 2221   2.158   2.019   0.651
  735SOL    HW2 2222   2.164   1.862   0.695
  736SOL     OW 2223   2.885   2.628   0.966
  736SOL    HW1 2224   2.900   2.649   1.062
  736SOL    HW2 2225   2.855   2.533   0.957
  737SOL     OW 2226   2.212   2.760   1.804
  737SOL    HW1 2227   2.288   2.804   1.852
  737SOL    HW2 2228   2.247   2.713   1.722
  738SOL     OW 2229   2.181   2.672   0.949
  738SOL    HW1 2230   2.274   2.708   0.954
  738SOL    HW2 2231   2.175   2.587   1.001
  739SOL     OW 2232   2.201   2.371   1.006
  739SOL    HW1 2233   2.149   2.288   0.989
  739SOL    HW2 2234   2.278   2.376   0.942
  740SOL     OW 2235   2.864   2.658   1.238
  740SOL    HW1 2236   2.905   2.626   1.324
  740SOL    HW2 2237   2.768   2.631   1.235
  741SOL     OW 2238   1.902   2.406   1.114
  741SOL    HW1 2239   1.987   2.373   1.073
  741SOL    HW2 2240   1.915   2.421   1.212
  742SOL     OW 2241   2.051   2.382   1.722
  742SOL    HW1 2242   2.110   2.342   1.652
  742SOL    HW2 2243   1.993   2.453   1.681
  743SOL     OW 2244   2.677   2.434   0.325
  743SOL    HW1 2245   2.684   2.345   0.279
  743SOL    HW2 2246   2.583   2.468   0.317
  744SOL     OW 2247   2.533   2.326   1.269
  744SOL    HW1 2248   2.499   2.237   1.239
  744SOL    HW2 2249   2.559   2.380   1.189
  745SOL     OW 2250   2.335   2.362   0.191
  745SOL    HW1 2251   2.396   2.442   0.195
  745SOL    HW2 2252   2.240   2.393   0.198
  746SOL     OW 2253   2.021   2.999   1.466
  746SOL    HW1 2254   2.043   2.938   1.542
  746SOL    HW2 2255   2.031   2.950   1.380
  747SOL     OW 2256   3.164   2.717   0.309
  747SOL    HW1 2257   3.078   2.686   0.351
  747SOL    HW2 2258   3.160   2.703   0.210
  748SOL     OW 2259   2.765   1.948   0.133
  748SOL    HW1 2260   2.816   1.949   0.047
  748SOL    HW2 2261   2.821   1.906   0.204
  749SOL     OW 2262   2.125   2.188   0.720
  749SOL    HW1 2263   2.046   2.239   0.686
  749SOL    HW2 2264   2.116   2.173   0.818
  750SOL     OW 2265   2.778   2.772   0.291
  750SOL    HW1 2266   2.841   2.810   0.223
  750SOL    HW2 2267   2.818   2.689   0.330
  751SOL     OW 2268   2.876   2.098   0.971
  751SOL    HW1 2269   2.868   2.062   0.878
  751SOL    HW2 2270   2.874   2.022   1.036
  752SOL     OW 2271   1.967   2.875   1.726
  752SOL    HW1 2272   1.890   2.842   1.780
  752SOL    HW2 2273   2.052   2.845   1.768
  753SOL     OW 2274   2.534   2.065   1.489
  753SOL    HW1 2275   2.624   2.049   1.449
  753SOL    HW2 2276   2.542   2.070   1.588
  754SOL     OW 2277   1.937   2.207   0.033
  754SOL    HW1 2278   1.845   2.179   0.004
  754SOL    HW2 2279   1.968   2.284  -0.023
  755SOL     OW 2280   2.475   2.704   1.431
  755SOL    HW1 2281   2.531   2.785   1.414
  755SOL    HW2 2282   2.534   2.624   1.434
  756SOL     OW 2283   2.578   2.427   1.708
  756SOL    HW1 2284   2.597   2.492   1.782
  756SOL    HW2 2285   2.638   2.347   1.717
  757SOL     OW 2286   3.087   2.187   0.449
  757SOL    HW1 2287   3.152   2.113   0.438
  757SOL    HW2 2288   3.107   2.237   0.533
  758SOL     OW 2289   2.456   2.607   0.652
  758SOL    HW1 2290   2.506   2.692   0.633
  758SOL    HW2 2291   2.368   2.609   0.604
  759SOL     OW 2292   2.945   2.846   0.087
  759SOL    HW1 2293   2.922   2.899   0.005
  759SOL    HW2 2294   3.026   2.790   0.068
  760SOL     OW 2295   2.290   2.286   0.520
  760SOL    HW1 2296   2.320   2.214   0.458
  760SOL    HW2 2297   2.251   2.246   0.603
  761SOL     OW 2298   2.179   2.409   1.280
  761SOL    HW1 2299   2.217   2.350   1.352
  761SOL    HW2 2300   2.219   2.383   1.192
  762SOL     OW 2301   2.863   1.896   1.154
  762SOL    HW1 2302   2.800   1.824   1.123
  762SOL    HW2 2303   2.956   1.860   1.154
  763SOL     OW 2304   2.092   2.490   1.975
  763SOL    HW1 2305   1.999   2.488   2.012
  763SOL    HW2 2306   2.093   2.451   1.883
  764SOL     OW 2307   2.087   2.137   2.858
  764SOL    HW1 2308   2.122   2.120   2.950
  764SOL    HW2 2309   1.999   2.092   2.846
  765SOL     OW 2310   1.881   2.230   2.509
  765SOL    HW1 2311   1.799   2.273   2.548
  765SOL    HW2 2312   1.853   2.157   2.446
  766SOL     OW 2313   2.547   2.874   2.527
  766SOL    HW1 2314   2.616   2.858   2.597
  766SOL    HW2 2315   2.474   2.931   2.565
  767SOL     OW 2316   2.102   2.953   2.748
  767SOL    HW1 2317   2.116   2.869   2.800
  767SOL    HW2 2318   2.047   3.017   2.803
  768SOL     OW 2319   1.984   2.505   2.425
  768SOL    HW1 2320   1.939   2.417   2.442
  768SOL    HW2 2321   1.983   2.559   2.509
  769SOL     OW 2322   2.475   3.227   2.588
  769SOL    HW1 2323   2.426   3.140   2.597
  769SOL    HW2 2324   2.452   3.270   2.501
  770SOL     OW 2325   2.671   1.866   2.364
  770SOL    HW1 2326   2.711   1.957   2.355
  770SOL    HW2 2327   2.571   1.874   2.370
  771SOL     OW 2328   2.460   2.591   2.132
  771SOL    HW1 2329   2.484   2.660   2.064
  771SOL    HW2 2330   2.382   2.624   2.186
  772SOL     OW 2331   1.938   2.673   2.651
  772SOL    HW1 2332   2.037   2.661   2.660
  772SOL    HW2 2333   1.914   2.768   2.672
  773SOL     OW 2334   2.727   2.210   2.057
  773SOL    HW1 2335   2.786   2.273   2.008
  773SOL    HW2 2336   2.746   2.116   2.028
  774SOL     OW 2337   2.244   2.562   2.342
  774SOL    HW1 2338   2.289   2.472   2.339
  774SOL    HW2 2339   2.150   2.551   2.375
  775SOL     OW 2340   2.476   1.984   1.979
  775SOL    HW1 2341   2.574   1.962   1.986
  775SOL    HW2 2342   2.445   1.967   1.886
  776SOL     OW 2343   2.784   2.365   2.761
  776SOL    HW1 2344   2.759   2.356   2.665
  776SOL    HW2 2345   2.832   2.283   2.792
  777SOL     OW 2346   2.401   1.926   2.374
  777SOL    HW1 2347   2.320   1.927   2.432
  777SOL    HW2 2348   2.404   2.009   2.319
  778SOL     OW 2349   2.159   1.897   2.033
  778SOL    HW1 2350   2.208   1.981   2.012
  778SOL    HW2 2351   2.221   1.832   2.078
  779SOL     OW 2352   2.797   2.098   2.342
  779SOL    HW1 2353   2.749   2.139   2.264
  779SOL    HW2 2354   2.896   2.096   2.323
  780SOL     OW 2355   2.879   1.901   2.615
  780SOL    HW1 2356   2.807   1.906   2.546
  780SOL    HW2 2357   2.855   1.832   2.684
  781SOL     OW 2358   2.389   2.118   2.190
  781SOL    HW1 2359   2.416   2.059   2.115
  781SOL    HW2 2360   2.389   2.213   2.159
  782SOL     OW 2361   2.428   2.399   2.727
  782SOL    HW1 2362   2.440   2.465   2.653
  782SOL    HW2 2363   2.474   2.433   2.810
  783SOL     OW 2364   2.435   2.732   2.891
  783SOL    HW1 2365   2.479   2.821   2.882
  783SOL    HW2 2366   2.372   2.732   2.968
  784SOL     OW 2367   3.071   2.387   2.137
  784SOL    HW1 2368   3.084   2.303   2.191
  784SOL    HW2 2369   3.042   2.461   2.197
  785SOL     OW 2370   2.169   2.075   3.093
  785SOL    HW1 2371   2.146   2.112   3.183
  785SOL    HW2 2372   2.139   1.980   3.087
  786SOL     OW 2373   2.594   2.496   2.926
  786SOL    HW1 2374   2.653   2.470   2.850
  786SOL    HW2 2375   2.566   2.592   2.915
  787SOL     OW 2376   2.169   1.925   2.480
  787SOL    HW1 2377   2.158   2.019   2.513
  787SOL    HW2 2378   2.164   1.862   2.557
  788SOL     OW 2379   2.885   2.628   2.828
  788SOL    HW1 2380   2.900   2.649   2.924
  788SOL    HW2 2381   2.855   2.533   2.819
  789SOL     OW 2382   2.930   3.195   2.711
  789SOL    HW1 2383   2.937   3.111   2.656
  789SOL    HW2 2384   2.992   3.264   2.675
  790SOL     OW 2385   2.181   2.672   2.811
  790SOL    HW1 2386   2.274   2.708   2.816
  790SOL    HW2 2387   2.175   2.587   2.863
  791SOL     OW 2388   2.677   2.434   2.187
  791SOL    HW1 2389   2.684   2.345   2.141
  791SOL    HW2 2390   2.583   2.468   2.179
  792SOL     OW 2391   2.533   2.326   3.131
  792SOL    HW1 2392   2.499   2.237   3.101
  792SOL    HW2 2393   2.559   2.380   3.051
  793SOL     OW 2394   2.335   2.362   2.053
  793SOL    HW1 2395   2.396   2.442   2.057
  793SOL    HW2 2396   2.240   2.393   2.060
  794SOL     OW 2397   3.164   2.717   2.171
  794SOL    HW1 2398   3.078   2.686   2.213
  794SOL    HW2 2399   3.160   2.703   2.072
  795SOL     OW 2400   2.125   2.188   2.582
  795SOL    HW1 2401   2.046   2.239   2.548
  795SOL    HW2 2402   2.116   2.173   2.680
  796SOL     OW 2403   2.778   2.772   2.153
  796SOL    HW1 2404   2.841   2.810   2.085
  796SOL    HW2 2405   2.818   2.689   2.192
  797SOL     OW 2406   1.937   2.207   1.895
  797SOL    HW1 2407   1.845   2.179   1.866
  797SOL    HW2 2408   1.968   2.284   1.839
  798SOL     OW 2409   1.934   2.028   2.180
  798SOL    HW1 2410   1.917   2.111   2.126
  798SOL    HW2 2411   2.024   1.991   2.158
  799SOL     OW 2412   3.087   2.187   2.311
  799SOL    HW1 2413   3.152   2.113   2.300
  799SOL    HW2 2414   3.107   2.237   2.395
  800SOL     OW 2415   2.456   2.607   2.514
  800SOL    HW1 2416   2.506   2.692   2.495
  800SOL    HW2 2417   2.368   2.609   2.466
  801SOL     OW 2418   2.290   2.286   2.382
  801SOL    HW1 2419   2.320   2.214   2.320
  801SOL    HW2 2420   2.251   2.246   2.465
   2.91071   2.91071   2.91071
