mobley_852937_GMX.gro created by acpype (v: 2023.10.27) on Thu May 14 13:34:56 2026
 1720
    1MOL     C1    1   1.183   1.355   1.245
    1MOL     C2    2   1.395   1.239   1.251
    1MOL     C3    3   1.181   1.358   1.385
    1MOL     C4    4   1.393   1.242   1.390
    1MOL     C5    5   1.290   1.296   1.178
    1MOL     C6    6   1.286   1.302   1.457
    1MOL     O1    7   1.292   1.292   1.042
    1MOL     F1    8   1.284   1.305   1.591
    1MOL     H1    9   1.101   1.399   1.190
    1MOL     H2   10   1.478   1.193   1.199
    1MOL     H3   11   1.098   1.405   1.437
    1MOL     H4   12   1.475   1.199   1.447
    1MOL     H5   13   1.369   1.240   1.013
    2SOL     OW   14   0.230   0.628   0.113
    2SOL    HW1   15   0.137   0.626   0.150
    2SOL    HW2   16   0.231   0.589   0.021
    3SOL     OW   17   0.225   0.275   0.996
    3SOL    HW1   18   0.260   0.258   1.088
    3SOL    HW2   19   0.137   0.230   0.984
    4SOL     OW   20   0.019   0.368   0.647
    4SOL    HW1   21  -0.063   0.411   0.686
    4SOL    HW2   22  -0.009   0.295   0.584
    5SOL     OW   23   0.569   1.275   1.165
    5SOL    HW1   24   0.476   1.268   1.128
    5SOL    HW2   25   0.580   1.364   1.209
    6SOL     OW   26   1.555   1.511   0.703
    6SOL    HW1   27   1.498   1.495   0.784
    6SOL    HW2   28   1.496   1.521   0.623
    7SOL     OW   29   1.135   0.703   0.717
    7SOL    HW1   30   1.192   0.781   0.692
    7SOL    HW2   31   1.075   0.729   0.793
    8SOL     OW   32   1.755   0.607   0.231
    8SOL    HW1   33   1.743   0.594   0.132
    8SOL    HW2   34   1.725   0.526   0.280
    9SOL     OW   35   0.768   1.144   1.023
    9SOL    HW1   36   0.690   1.161   1.083
    9SOL    HW2   37   0.802   1.231   0.987
   10SOL     OW   38   0.850   0.798   1.823
   10SOL    HW1   39   0.846   0.874   1.888
   10SOL    HW2   40   0.872   0.834   1.732
   11SOL     OW   41   0.685   1.012   0.665
   11SOL    HW1   42   0.754   0.996   0.735
   11SOL    HW2   43   0.612   1.069   0.703
   12SOL     OW   44   0.686   1.161   1.803
   12SOL    HW1   45   0.746   1.240   1.817
   12SOL    HW2   46   0.600   1.192   1.762
   13SOL     OW   47   0.335   1.435   1.061
   13SOL    HW1   48   0.257   1.404   1.008
   13SOL    HW2   49   0.393   1.493   1.004
   14SOL     OW   50   1.460   1.505   1.339
   14SOL    HW1   51   1.484   1.599   1.365
   14SOL    HW2   52   1.444   1.451   1.421
   15SOL     OW   53   0.438   0.392   1.499
   15SOL    HW1   54   0.520   0.336   1.508
   15SOL    HW2   55   0.357   0.334   1.503
   16SOL     OW   56   1.603   0.447   0.737
   16SOL    HW1   57   1.529   0.493   0.687
   16SOL    HW2   58   1.654   0.515   0.790
   17SOL     OW   59   0.231   1.713   0.483
   17SOL    HW1   60   0.265   1.790   0.537
   17SOL    HW2   61   0.275   1.713   0.393
   18SOL     OW   62   1.127   1.341   1.690
   18SOL    HW1   63   1.174   1.341   1.778
   18SOL    HW2   64   1.079   1.254   1.679
   19SOL     OW   65   0.230   1.434   0.538
   19SOL    HW1   66   0.204   1.530   0.538
   19SOL    HW2   67   0.159   1.380   0.583
   20SOL     OW   68   0.240   1.091   0.886
   20SOL    HW1   69   0.254   1.007   0.938
   20SOL    HW2   70   0.185   1.155   0.941
   21SOL     OW   71   0.620   1.786   1.439
   21SOL    HW1   72   0.528   1.769   1.474
   21SOL    HW2   73   0.648   1.878   1.465
   22SOL     OW   74   0.606   0.964   0.123
   22SOL    HW1   75   0.613   1.048   0.069
   22SOL    HW2   76   0.652   0.977   0.211
   23SOL     OW   77   1.594   0.114   1.480
   23SOL    HW1   78   1.576   0.181   1.408
   23SOL    HW2   79   1.591   0.160   1.569
   24SOL     OW   80   0.122   0.643   0.563
   24SOL    HW1   81   0.077   0.555   0.580
   24SOL    HW2   82   0.121   0.697   0.647
   25SOL     OW   83   1.842   1.767   0.359
   25SOL    HW1   84   1.896   1.738   0.439
   25SOL    HW2   85   1.872   1.857   0.330
   26SOL     OW   86   0.027   1.596   0.117
   26SOL    HW1   87   0.008   1.500   0.138
   26SOL    HW2   88  -0.006   1.654   0.192
   27SOL     OW   89   1.689   0.922   0.612
   27SOL    HW1   90   1.784   0.893   0.620
   27SOL    HW2   91   1.681   0.987   0.537
   28SOL     OW   92   1.641   1.108   0.432
   28SOL    HW1   93   1.727   1.110   0.380
   28SOL    HW2   94   1.655   1.155   0.520
   29SOL     OW   95   0.113   0.737   1.597
   29SOL    HW1   96   0.201   0.724   1.642
   29SOL    HW2   97   0.100   0.834   1.575
   30SOL     OW   98   0.613   1.365   0.726
   30SOL    HW1   99   0.564   1.278   0.735
   30SOL    HW2  100   0.590   1.408   0.639
   31SOL     OW  101   0.809   0.004   0.502
   31SOL    HW1  102   0.849   0.095   0.493
   31SOL    HW2  103   0.709   0.012   0.508
   32SOL     OW  104   0.197   0.976   1.264
   32SOL    HW1  105   0.286   0.931   1.250
   32SOL    HW2  106   0.124   0.911   1.245
   33SOL     OW  107   1.525   0.999   0.190
   33SOL    HW1  108   1.462   0.923   0.203
   33SOL    HW2  109   1.573   1.017   0.276
   34SOL     OW  110   1.187   1.792   1.616
   34SOL    HW1  111   1.211   1.852   1.540
   34SOL    HW2  112   1.194   1.697   1.586
   35SOL     OW  113   0.317   0.251   1.801
   35SOL    HW1  114   0.388   0.322   1.807
   35SOL    HW2  115   0.229   0.290   1.829
   36SOL     OW  116   1.466   1.417   0.953
   36SOL    HW1  117   1.407   1.423   1.033
   36SOL    HW2  118   1.451   1.329   0.907
   37SOL     OW  119   1.667   1.714   0.572
   37SOL    HW1  120   1.626   1.691   0.484
   37SOL    HW2  121   1.649   1.640   0.637
   38SOL     OW  122   0.598   0.729   0.270
   38SOL    HW1  123   0.622   0.798   0.202
   38SOL    HW2  124   0.520   0.762   0.324
   39SOL     OW  125   1.281   0.345   0.944
   39SOL    HW1  126   1.195   0.295   0.931
   39SOL    HW2  127   1.343   0.291   1.000
   40SOL     OW  128   1.576   1.662   0.307
   40SOL    HW1  129   1.665   1.708   0.310
   40SOL    HW2  130   1.555   1.638   0.212
   41SOL     OW  131   0.807   0.605   1.465
   41SOL    HW1  132   0.760   0.602   1.554
   41SOL    HW2  133   0.756   0.550   1.399
   42SOL     OW  134   1.394   0.469   1.674
   42SOL    HW1  135   1.374   0.512   1.762
   42SOL    HW2  136   1.472   0.407   1.683
   43SOL     OW  137   0.973   0.890   1.572
   43SOL    HW1  138   1.019   0.806   1.543
   43SOL    HW2  139   0.917   0.924   1.497
   44SOL     OW  140   0.991   0.410   1.242
   44SOL    HW1  141   0.914   0.444   1.296
   44SOL    HW2  142   0.957   0.359   1.163
   45SOL     OW  143   1.041   0.701   0.429
   45SOL    HW1  144   1.067   0.697   0.525
   45SOL    HW2  145   0.956   0.650   0.415
   46SOL     OW  146   0.076   0.811   0.789
   46SOL    HW1  147   0.175   0.799   0.798
   46SOL    HW2  148   0.052   0.906   0.810
   47SOL     OW  149   0.130   1.821   1.571
   47SOL    HW1  150   0.120   1.806   1.670
   47SOL    HW2  151   0.044   1.857   1.535
   48SOL     OW  152   0.865   0.348   0.195
   48SOL    HW1  153   0.924   0.411   0.146
   48SOL    HW2  154   0.884   0.254   0.166
   49SOL     OW  155   1.719   0.585   1.831
   49SOL    HW1  156   1.693   0.674   1.795
   49SOL    HW2  157   1.717   0.517   1.758
   50SOL     OW  158   1.362   1.144   0.545
   50SOL    HW1  159   1.445   1.115   0.497
   50SOL    HW2  160   1.313   1.211   0.489
   51SOL     OW  161   0.550   0.196   0.885
   51SOL    HW1  162   0.545   0.191   0.985
   51SOL    HW2  163   0.552   0.292   0.856
   52SOL     OW  164   1.008   1.456   0.477
   52SOL    HW1  165   0.962   1.528   0.425
   52SOL    HW2  166   1.004   1.476   0.575
   53SOL     OW  167   0.351   1.801   0.853
   53SOL    HW1  168   0.401   1.715   0.859
   53SOL    HW2  169   0.416   1.878   0.850
   54SOL     OW  170   1.795   1.066   0.873
   54SOL    HW1  171   1.733   1.051   0.797
   54SOL    HW2  172   1.743   1.077   0.958
   55SOL     OW  173   1.227   1.550   1.506
   55SOL    HW1  174   1.233   1.473   1.570
   55SOL    HW2  175   1.175   1.524   1.426
   56SOL     OW  176   0.321   0.943   0.242
   56SOL    HW1  177   0.403   0.982   0.200
   56SOL    HW2  178   0.294   0.861   0.193
   57SOL     OW  179   1.458   0.735   0.728
   57SOL    HW1  180   1.453   0.670   0.803
   57SOL    HW2  181   1.538   0.794   0.741
   58SOL     OW  182   0.461   1.266   1.727
   58SOL    HW1  183   0.411   1.267   1.641
   58SOL    HW2  184   0.398   1.248   1.803
   59SOL     OW  185   1.111   1.776   0.237
   59SOL    HW1  186   1.051   1.714   0.287
   59SOL    HW2  187   1.142   1.732   0.152
   60SOL     OW  188   0.202   0.285   1.498
   60SOL    HW1  189   0.122   0.345   1.485
   60SOL    HW2  190   0.192   0.236   1.584
   61SOL     OW  191   1.632   1.377   0.081
   61SOL    HW1  192   1.600   1.471   0.071
   61SOL    HW2  193   1.556   1.314   0.069
   62SOL     OW  194   0.464   1.743   0.323
   62SOL    HW1  195   0.497   1.782   0.409
   62SOL    HW2  196   0.540   1.736   0.258
   63SOL     OW  197   1.400   0.107   0.426
   63SOL    HW1  198   1.376   0.070   0.336
   63SOL    HW2  199   1.499   0.123   0.430
   64SOL     OW  200   0.249   1.785   1.241
   64SOL    HW1  201   0.306   1.720   1.291
   64SOL    HW2  202   0.233   1.752   1.148
   65SOL     OW  203   0.940   1.698   0.904
   65SOL    HW1  204   1.020   1.641   0.925
   65SOL    HW2  205   0.891   1.658   0.827
   66SOL     OW  206   0.382   0.700   0.480
   66SOL    HW1  207   0.427   0.610   0.477
   66SOL    HW2  208   0.288   0.689   0.513
   67SOL     OW  209   1.547   0.222   1.729
   67SOL    HW1  210   1.542   0.259   1.821
   67SOL    HW2  211   1.475   0.153   1.717
   68SOL     OW  212   0.614   0.122   0.117
   68SOL    HW1  213   0.712   0.100   0.124
   68SOL    HW2  214   0.583   0.105   0.024
   69SOL     OW  215   0.781   0.264   1.749
   69SOL    HW1  216   0.848   0.203   1.792
   69SOL    HW2  217   0.708   0.283   1.814
   70SOL     OW  218   0.888   1.514   1.195
   70SOL    HW1  219   0.865   1.489   1.101
   70SOL    HW2  220   0.949   1.445   1.234
   71SOL     OW  221   1.351   0.590   1.433
   71SOL    HW1  222   1.379   0.547   1.518
   71SOL    HW2  223   1.376   0.686   1.434
   72SOL     OW  224   0.803   1.402   0.924
   72SOL    HW1  225   0.893   1.416   0.882
   72SOL    HW2  226   0.732   1.404   0.853
   73SOL     OW  227   0.922   0.503   0.899
   73SOL    HW1  228   0.897   0.494   0.803
   73SOL    HW2  229   0.970   0.421   0.930
   74SOL     OW  230   0.539   0.064   0.512
   74SOL    HW1  231   0.458   0.065   0.570
   74SOL    HW2  232   0.542   0.147   0.457
   75SOL     OW  233   1.434   1.188   0.041
   75SOL    HW1  234   1.466   1.112   0.098
   75SOL    HW2  235   1.342   1.215   0.071
   76SOL     OW  236   0.297   0.035   0.171
   76SOL    HW1  237   0.346   0.119   0.150
   76SOL    HW2  238   0.359  -0.030   0.216
   77SOL     OW  239   0.935   0.236   0.480
   77SOL    HW1  240   0.887   0.277   0.402
   77SOL    HW2  241   1.034   0.234   0.461
   78SOL     OW  242   1.076   0.683   1.464
   78SOL    HW1  243   0.996   0.622   1.467
   78SOL    HW2  244   1.157   0.630   1.440
   79SOL     OW  245   1.227   1.570   0.793
   79SOL    HW1  246   1.248   1.644   0.728
   79SOL    HW2  247   1.295   1.570   0.866
   80SOL     OW  248   0.459   1.152   0.741
   80SOL    HW1  249   0.388   1.125   0.806
   80SOL    HW2  250   0.433   1.124   0.648
   81SOL     OW  251   1.271   1.797   0.591
   81SOL    HW1  252   1.315   1.861   0.527
   81SOL    HW2  253   1.221   1.849   0.661
   82SOL     OW  254   1.032   0.549   0.016
   82SOL    HW1  255   0.991   0.631  -0.023
   82SOL    HW2  256   1.096   0.575   0.089
   83SOL     OW  257   0.078   0.556   1.386
   83SOL    HW1  258   0.170   0.555   1.345
   83SOL    HW2  259   0.072   0.630   1.453
   84SOL     OW  260   0.561   0.222   1.147
   84SOL    HW1  261   0.599   0.138   1.184
   84SOL    HW2  262   0.473   0.241   1.191
   85SOL     OW  263   0.866   0.454   0.642
   85SOL    HW1  264   0.834   0.526   0.580
   85SOL    HW2  265   0.890   0.373   0.589
   86SOL     OW  266   1.017   0.039   0.753
   86SOL    HW1  267   0.945   0.044   0.684
   86SOL    HW2  268   0.993  -0.030   0.822
   87SOL     OW  269   1.429   1.173   0.867
   87SOL    HW1  270   1.374   1.089   0.860
   87SOL    HW2  271   1.455   1.202   0.775
   88SOL     OW  272   1.466   0.590   0.992
   88SOL    HW1  273   1.436   0.495   0.999
   88SOL    HW2  274   1.539   0.606   1.058
   89SOL     OW  275   1.857   0.833   0.377
   89SOL    HW1  276   1.899   0.769   0.441
   89SOL    HW2  277   1.819   0.782   0.299
   90SOL     OW  278   0.488   1.385   0.174
   90SOL    HW1  279   0.401   1.370   0.221
   90SOL    HW2  280   0.471   1.411   0.079
   91SOL     OW  281   1.664   1.280   0.657
   91SOL    HW1  282   1.763   1.288   0.671
   91SOL    HW2  283   1.619   1.364   0.688
   92SOL     OW  284   1.390   0.575   0.078
   92SOL    HW1  285   1.336   0.554   0.159
   92SOL    HW2  286   1.481   0.534   0.087
   93SOL     OW  287   0.527   0.256   0.328
   93SOL    HW1  288   0.554   0.197   0.253
   93SOL    HW2  289   0.527   0.351   0.297
   94SOL     OW  290   1.754   1.223   1.588
   94SOL    HW1  291   1.845   1.184   1.575
   94SOL    HW2  292   1.762   1.319   1.612
   95SOL     OW  293   1.592   1.629   1.625
   95SOL    HW1  294   1.619   1.663   1.535
   95SOL    HW2  295   1.671   1.591   1.671
   96SOL     OW  296   1.111   1.195   1.100
   96SOL    HW1  297   1.071   1.239   1.181
   96SOL    HW2  298   1.070   1.232   1.017
   97SOL     OW  299   1.638   1.099   1.079
   97SOL    HW1  300   1.643   1.180   1.138
   97SOL    HW2  301   1.552   1.101   1.028
   98SOL     OW  302   0.915   0.089   1.402
   98SOL    HW1  303   0.940   0.069   1.307
   98SOL    HW2  304   0.987   0.145   1.444
   99SOL     OW  305   0.980   1.116   1.719
   99SOL    HW1  306   0.881   1.122   1.729
   99SOL    HW2  307   1.003   1.036   1.663
  100SOL     OW  308   0.705   1.050   0.368
  100SOL    HW1  309   0.691   1.057   0.467
  100SOL    HW2  310   0.789   0.999   0.350
  101SOL     OW  311   0.410   0.813   1.251
  101SOL    HW1  312   0.496   0.825   1.301
  101SOL    HW2  313   0.368   0.726   1.278
  102SOL     OW  314   1.274   0.386   1.262
  102SOL    HW1  315   1.295   0.460   1.326
  102SOL    HW2  316   1.185   0.403   1.219
  103SOL     OW  317   0.064   1.564   1.331
  103SOL    HW1  318   0.018   1.646   1.297
  103SOL    HW2  319   0.162   1.583   1.340
  104SOL     OW  320   0.367   1.100   0.501
  104SOL    HW1  321   0.360   1.183   0.445
  104SOL    HW2  322   0.371   1.020   0.441
  105SOL     OW  323   0.566   0.537   0.865
  105SOL    HW1  324   0.578   0.603   0.791
  105SOL    HW2  325   0.612   0.571   0.948
  106SOL     OW  326   1.252   1.348   0.388
  106SOL    HW1  327   1.302   1.425   0.428
  106SOL    HW2  328   1.157   1.350   0.420
  107SOL     OW  329   1.582   0.639   0.472
  107SOL    HW1  330   1.551   0.700   0.545
  107SOL    HW2  331   1.632   0.691   0.403
  108SOL     OW  332   0.354   1.510   1.329
  108SOL    HW1  333   0.333   1.466   1.242
  108SOL    HW2  334   0.451   1.536   1.332
  109SOL     OW  335   0.402   0.751   1.598
  109SOL    HW1  336   0.470   0.806   1.551
  109SOL    HW2  337   0.442   0.663   1.625
  110SOL     OW  338   1.587   0.779   1.670
  110SOL    HW1  339   1.495   0.817   1.665
  110SOL    HW2  340   1.647   0.826   1.605
  111SOL     OW  341   1.013   0.105   1.770
  111SOL    HW1  342   1.019   0.190   1.718
  111SOL    HW2  343   1.045   0.029   1.713
  112SOL     OW  344   0.504   0.050   1.740
  112SOL    HW1  345   0.462  -0.007   1.670
  112SOL    HW2  346   0.438   0.119   1.772
  113SOL     OW  347   0.573   0.870   1.029
  113SOL    HW1  348   0.617   0.959   1.020
  113SOL    HW2  349   0.510   0.870   1.106
  114SOL     OW  350   1.360   0.862   1.045
  114SOL    HW1  351   1.285   0.862   0.979
  114SOL    HW2  352   1.397   0.770   1.054
  115SOL     OW  353   1.209   0.525   0.275
  115SOL    HW1  354   1.222   0.441   0.329
  115SOL    HW2  355   1.180   0.599   0.335
  116SOL     OW  356   0.307   0.213   1.231
  116SOL    HW1  357   0.284   0.250   1.321
  116SOL    HW2  358   0.277   0.118   1.225
  117SOL     OW  359   0.037   1.310   1.282
  117SOL    HW1  360   0.090   1.261   1.350
  117SOL    HW2  361   0.059   1.408   1.287
  118SOL     OW  362   0.732   0.634   1.064
  118SOL    HW1  363   0.791   0.608   0.988
  118SOL    HW2  364   0.704   0.730   1.053
  119SOL     OW  365   1.728   0.935   1.854
  119SOL    HW1  366   1.682   0.928   1.765
  119SOL    HW2  367   1.666   0.979   1.920
  120SOL     OW  368   0.307   0.063   0.618
  120SOL    HW1  369   0.296   0.157   0.651
  120SOL    HW2  370   0.302   0.000   0.695
  121SOL     OW  371   1.622   0.367   0.374
  121SOL    HW1  372   1.624   0.291   0.438
  121SOL    HW2  373   1.574   0.444   0.414
  122SOL     OW  374   1.023   0.766   0.966
  122SOL    HW1  375   1.038   0.787   1.062
  122SOL    HW2  376   0.993   0.671   0.957
  123SOL     OW  377   0.980   1.573   1.700
  123SOL    HW1  378   0.960   1.617   1.612
  123SOL    HW2  379   1.019   1.482   1.684
  124SOL     OW  380   1.859   1.518   1.605
  124SOL    HW1  381   1.873   1.545   1.510
  124SOL    HW2  382   1.942   1.540   1.658
  125SOL     OW  383   0.350   0.898   1.804
  125SOL    HW1  384   0.426   0.942   1.852
  125SOL    HW2  385   0.385   0.851   1.722
  126SOL     OW  386   1.540   0.274   0.125
  126SOL    HW1  387   1.479   0.199   0.148
  126SOL    HW2  388   1.562   0.326   0.208
  127SOL     OW  389   1.303   0.838   0.042
  127SOL    HW1  390   1.337   0.745   0.057
  127SOL    HW2  391   1.321   0.865  -0.053
  128SOL     OW  392   1.068   1.333   0.849
  128SOL    HW1  393   1.075   1.249   0.794
  128SOL    HW2  394   1.130   1.402   0.813
  129SOL     OW  395   0.319   0.810   0.949
  129SOL    HW1  396   0.412   0.846   0.954
  129SOL    HW2  397   0.313   0.725   1.001
  130SOL     OW  398   0.339   0.509   1.006
  130SOL    HW1  399   0.287   0.426   0.989
  130SOL    HW2  400   0.416   0.514   0.942
  131SOL     OW  401   1.138   0.380   1.678
  131SOL    HW1  402   1.093   0.443   1.742
  131SOL    HW2  403   1.231   0.411   1.661
  132SOL     OW  404   1.160   0.207   1.477
  132SOL    HW1  405   1.160   0.271   1.554
  132SOL    HW2  406   1.188   0.255   1.394
  133SOL     OW  407   0.008   1.326   0.200
  133SOL    HW1  408  -0.085   1.347   0.169
  133SOL    HW2  409   0.018   1.227   0.213
  134SOL     OW  410   0.088   1.801   0.927
  134SOL    HW1  411   0.046   1.715   0.900
  134SOL    HW2  412   0.182   1.804   0.893
  135SOL     OW  413   0.504   1.568   0.910
  135SOL    HW1  414   0.570   1.642   0.919
  135SOL    HW2  415   0.548   1.489   0.868
  136SOL     OW  416   1.002   0.796   1.238
  136SOL    HW1  417   1.043   0.764   1.324
  136SOL    HW2  418   0.906   0.769   1.235
  137SOL     OW  419   0.040   0.544   1.114
  137SOL    HW1  420   0.125   0.511   1.073
  137SOL    HW2  421   0.053   0.559   1.212
  138SOL     OW  422   0.189   0.520   1.722
  138SOL    HW1  423   0.248   0.480   1.652
  138SOL    HW2  424   0.131   0.591   1.681
  139SOL     OW  425   1.369   0.950   1.660
  139SOL    HW1  426   1.408   1.039   1.680
  139SOL    HW2  427   1.379   0.930   1.563
  140SOL     OW  428   0.815   0.572   0.325
  140SOL    HW1  429   0.822   0.483   0.279
  140SOL    HW2  430   0.721   0.606   0.317
  141SOL     OW  431   1.657   0.604   1.206
  141SOL    HW1  432   1.619   0.535   1.268
  141SOL    HW2  433   1.739   0.568   1.162
  142SOL     OW  434   0.252   1.564   1.744
  142SOL    HW1  435   0.222   1.621   1.820
  142SOL    HW2  436   0.245   1.467   1.770
  143SOL     OW  437   0.671   0.464   1.269
  143SOL    HW1  438   0.637   0.375   1.239
  143SOL    HW2  439   0.697   0.518   1.189
  144SOL     OW  440   0.930   1.678   1.465
  144SOL    HW1  441   0.906   1.660   1.370
  144SOL    HW2  442   0.960   1.772   1.475
  145SOL     OW  443   0.473   0.500   0.191
  145SOL    HW1  444   0.534   0.580   0.195
  145SOL    HW2  445   0.378   0.531   0.198
  146SOL     OW  446   0.159   1.137   1.466
  146SOL    HW1  447   0.181   1.076   1.542
  146SOL    HW2  448   0.169   1.088   1.380
  147SOL     OW  449   1.347   1.059   1.234
  147SOL    HW1  450   1.371   0.996   1.160
  147SOL    HW2  451   1.257   1.099   1.216
  148SOL     OW  452   1.302   0.855   0.309
  148SOL    HW1  453   1.216   0.824   0.351
  148SOL    HW2  454   1.298   0.841   0.210
  149SOL     OW  455   1.759   1.747   1.154
  149SOL    HW1  456   1.820   1.777   1.081
  149SOL    HW2  457   1.721   1.658   1.132
  150SOL     OW  458   1.252   1.731   1.128
  150SOL    HW1  459   1.336   1.736   1.074
  150SOL    HW2  460   1.229   1.635   1.146
  151SOL     OW  461   0.083   1.258   1.022
  151SOL    HW1  462   0.078   1.257   1.122
  151SOL    HW2  463   0.000   1.217   0.984
  152SOL     OW  464   0.688   1.662   1.716
  152SOL    HW1  465   0.632   1.743   1.725
  152SOL    HW2  466   0.740   1.666   1.630
  153SOL     OW  467   0.903   0.086   0.133
  153SOL    HW1  468   0.954   0.087   0.047
  153SOL    HW2  469   0.959   0.044   0.204
  154SOL     OW  470   1.726   0.135   0.523
  154SOL    HW1  471   1.799   0.118   0.456
  154SOL    HW2  472   1.695   0.048   0.561
  155SOL     OW  473   1.388   1.573   0.477
  155SOL    HW1  474   1.455   1.585   0.403
  155SOL    HW2  475   1.348   1.662   0.500
  156SOL     OW  476   0.130   1.794   1.851
  156SOL    HW1  477   0.089   1.720   1.904
  156SOL    HW2  478   0.194   1.845   1.909
  157SOL     OW  479   1.280   0.927   0.672
  157SOL    HW1  480   1.340   0.846   0.674
  157SOL    HW2  481   1.320   0.996   0.612
  158SOL     OW  482   0.830   1.273   1.422
  158SOL    HW1  483   0.825   1.306   1.517
  158SOL    HW2  484   0.744   1.292   1.376
  159SOL     OW  485   0.672   1.616   0.154
  159SOL    HW1  486   0.681   1.626   0.055
  159SOL    HW2  487   0.632   1.527   0.175
  160SOL     OW  488   1.650   1.720   1.394
  160SOL    HW1  489   1.703   1.730   1.310
  160SOL    HW2  490   1.623   1.810   1.428
  161SOL     OW  491   1.841   0.175   0.963
  161SOL    HW1  492   1.880   0.090   0.927
  161SOL    HW2  493   1.743   0.177   0.944
  162SOL     OW  494   0.263   0.326   0.720
  162SOL    HW1  495   0.184   0.377   0.686
  162SOL    HW2  496   0.254   0.311   0.818
  163SOL     OW  497   1.194   1.612   0.031
  163SOL    HW1  498   1.200   1.519   0.068
  163SOL    HW2  499   1.135   1.612  -0.049
  164SOL     OW  500   0.822   1.002   1.372
  164SOL    HW1  501   0.862   1.001   1.280
  164SOL    HW2  502   0.832   1.094   1.412
  165SOL     OW  503   0.916   0.910   0.291
  165SOL    HW1  504   0.979   0.948   0.223
  165SOL    HW2  505   0.956   0.827   0.330
  166SOL     OW  506   1.504   1.607   0.044
  166SOL    HW1  507   1.412   1.644   0.051
  166SOL    HW2  508   1.542   1.627  -0.046
  167SOL     OW  509   0.372   1.288   1.490
  167SOL    HW1  510   0.359   1.381   1.456
  167SOL    HW2  511   0.288   1.236   1.477
  168SOL     OW  512   1.614   1.292   1.289
  168SOL    HW1  513   1.674   1.295   1.369
  168SOL    HW2  514   1.539   1.356   1.302
  169SOL     OW  515   1.039   1.098   0.696
  169SOL    HW1  516   0.969   1.051   0.750
  169SOL    HW2  517   1.098   1.030   0.653
  170SOL     OW  518   1.014   0.236   0.971
  170SOL    HW1  519   1.006   0.200   0.878
  170SOL    HW2  520   1.012   0.160   1.036
  171SOL     OW  521   0.590   1.487   0.491
  171SOL    HW1  522   0.632   1.429   0.421
  171SOL    HW2  523   0.546   1.566   0.447
  172SOL     OW  524   1.709   0.385   1.381
  172SOL    HW1  525   1.782   0.454   1.385
  172SOL    HW2  526   1.737   0.310   1.322
  173SOL     OW  527   0.255   1.348   0.290
  173SOL    HW1  528   0.159   1.349   0.263
  173SOL    HW2  529   0.267   1.401   0.374
  174SOL     OW  530   0.105   1.013   1.726
  174SOL    HW1  531   0.028   0.980   1.780
  174SOL    HW2  532   0.190   0.983   1.768
  175SOL     OW  533   0.672   0.203   1.489
  175SOL    HW1  534   0.762   0.187   1.449
  175SOL    HW2  535   0.680   0.208   1.588
  176SOL     OW  536   0.075   0.345   0.033
  176SOL    HW1  537  -0.017   0.317   0.004
  176SOL    HW2  538   0.106   0.422  -0.023
  177SOL     OW  539   1.440   0.856   1.398
  177SOL    HW1  540   1.383   0.908   1.335
  177SOL    HW2  541   1.536   0.868   1.374
  178SOL     OW  542   0.072   0.166   0.318
  178SOL    HW1  543   0.055   0.249   0.264
  178SOL    HW2  544   0.162   0.129   0.296
  179SOL     OW  545   1.183   1.335   0.119
  179SOL    HW1  546   1.084   1.324   0.121
  179SOL    HW2  547   1.217   1.350   0.212
  180SOL     OW  548   0.613   0.842   1.431
  180SOL    HW1  549   0.669   0.923   1.414
  180SOL    HW2  550   0.672   0.762   1.434
  181SOL     OW  551   1.493   1.767   0.959
  181SOL    HW1  552   1.526   1.831   0.890
  181SOL    HW2  553   1.559   1.761   1.034
  182SOL     OW  554   0.716   0.565   1.708
  182SOL    HW1  555   0.735   0.630   1.782
  182SOL    HW2  556   0.776   0.485   1.717
  183SOL     OW  557   1.450   1.220   1.633
  183SOL    HW1  558   1.441   1.210   1.732
  183SOL    HW2  559   1.546   1.213   1.607
  184SOL     OW  560   0.390   1.741   1.560
  184SOL    HW1  561   0.299   1.782   1.558
  184SOL    HW2  562   0.383   1.647   1.592
  185SOL     OW  563   1.674   0.883   1.254
  185SOL    HW1  564   1.647   0.794   1.217
  185SOL    HW2  565   1.675   0.951   1.181
  186SOL     OW  566   1.225   0.325   0.449
  186SOL    HW1  567   1.290   0.251   0.438
  186SOL    HW2  568   1.245   0.375   0.533
  187SOL     OW  569   0.594   0.745   0.652
  187SOL    HW1  570   0.644   0.830   0.633
  187SOL    HW2  571   0.506   0.747   0.604
  188SOL     OW  572   1.777   0.342   1.642
  188SOL    HW1  573   1.760   0.373   1.548
  188SOL    HW2  574   1.693   0.305   1.680
  189SOL     OW  575   1.730   0.934   1.517
  189SOL    HW1  576   1.768   1.025   1.532
  189SOL    HW2  577   1.722   0.917   1.418
  190SOL     OW  578   0.859   1.374   0.016
  190SOL    HW1  579   0.813   1.389   0.104
  190SOL    HW2  580   0.903   1.459  -0.014
  191SOL     OW  581   0.661   1.790   0.953
  191SOL    HW1  582   0.615   1.878   0.940
  191SOL    HW2  583   0.760   1.802   0.946
  192SOL     OW  584   0.859   0.956   0.861
  192SOL    HW1  585   0.913   0.887   0.909
  192SOL    HW2  586   0.827   1.025   0.927
  193SOL     OW  587   1.083   0.984   0.087
  193SOL    HW1  588   1.060   1.037   0.005
  193SOL    HW2  589   1.164   0.928   0.068
  194SOL     OW  590   1.861   1.569   0.851
  194SOL    HW1  591   1.790   1.557   0.781
  194SOL    HW2  592   1.862   1.490   0.911
  195SOL     OW  593   0.221   1.314   1.844
  195SOL    HW1  594   0.156   1.241   1.823
  195SOL    HW2  595   0.225   1.328   1.942
  196SOL     OW  596   0.079   1.240   0.653
  196SOL    HW1  597   0.078   1.193   0.741
  196SOL    HW2  598   0.161   1.212   0.602
  197SOL     OW  599   0.672   1.391   1.624
  197SOL    HW1  600   0.594   1.341   1.662
  197SOL    HW2  601   0.669   1.486   1.655
  198SOL     OW  602   1.824   0.192   1.227
  198SOL    HW1  603   1.820   0.102   1.271
  198SOL    HW2  604   1.827   0.181   1.128
  199SOL     OW  605   0.428   0.424   0.520
  199SOL    HW1  606   0.458   0.352   0.458
  199SOL    HW2  607   0.389   0.384   0.603
  200SOL     OW  608   1.705   1.487   1.104
  200SOL    HW1  609   1.612   1.462   1.077
  200SOL    HW2  610   1.731   1.437   1.186
  201SOL     OW  611   0.317   0.547   1.280
  201SOL    HW1  612   0.355   0.488   1.352
  201SOL    HW2  613   0.357   0.521   1.192
  202SOL     OW  614   0.812   1.586   0.687
  202SOL    HW1  615   0.844   1.596   0.593
  202SOL    HW2  616   0.733   1.524   0.689
  203SOL     OW  617   1.424   0.214   1.112
  203SOL    HW1  618   1.476   0.149   1.167
  203SOL    HW2  619   1.375   0.277   1.173
  204SOL     OW  620   1.001   0.034   1.154
  204SOL    HW1  621   0.938  -0.038   1.123
  204SOL    HW2  622   1.094  -0.002   1.154
  205SOL     OW  623   0.770   1.330   0.301
  205SOL    HW1  624   0.724   1.243   0.318
  205SOL    HW2  625   0.861   1.327   0.342
  206SOL     OW  626   0.618   1.567   1.284
  206SOL    HW1  627   0.613   1.649   1.341
  206SOL    HW2  628   0.707   1.564   1.239
  207SOL     OW  629   1.352   0.052   0.168
  207SOL    HW1  630   1.387   0.011   0.084
  207SOL    HW2  631   1.262   0.014   0.188
  208SOL     OW  632   1.300   0.453   0.691
  208SOL    HW1  633   1.241   0.533   0.695
  208SOL    HW2  634   1.315   0.418   0.784
  209SOL     OW  635   1.593   0.221   0.882
  209SOL    HW1  636   1.509   0.220   0.936
  209SOL    HW2  637   1.595   0.304   0.826
  210SOL     OW  638   0.039   1.077   0.300
  210SOL    HW1  639   0.138   1.066   0.291
  210SOL    HW2  640  -0.001   0.991   0.332
  211SOL     OW  641   0.875   1.646   0.337
  211SOL    HW1  642   0.798   1.611   0.283
  211SOL    HW2  643   0.843   1.717   0.399
  212SOL     OW  644   0.230   0.628   1.975
  212SOL    HW1  645   0.137   0.626   2.012
  212SOL    HW2  646   0.231   0.589   1.883
  213SOL     OW  647   1.755   0.607   2.093
  213SOL    HW1  648   1.743   0.594   1.994
  213SOL    HW2  649   1.725   0.526   2.142
  214SOL     OW  650   1.603   0.447   2.599
  214SOL    HW1  651   1.529   0.493   2.549
  214SOL    HW2  652   1.654   0.515   2.652
  215SOL     OW  653   0.231   1.713   2.345
  215SOL    HW1  654   0.265   1.790   2.399
  215SOL    HW2  655   0.275   1.713   2.255
  216SOL     OW  656   0.230   1.434   2.400
  216SOL    HW1  657   0.204   1.530   2.400
  216SOL    HW2  658   0.159   1.380   2.445
  217SOL     OW  659   0.606   0.964   1.985
  217SOL    HW1  660   0.613   1.048   1.931
  217SOL    HW2  661   0.652   0.977   2.073
  218SOL     OW  662   0.122   0.643   2.425
  218SOL    HW1  663   0.077   0.555   2.442
  218SOL    HW2  664   0.121   0.697   2.509
  219SOL     OW  665   1.842   1.767   2.221
  219SOL    HW1  666   1.896   1.738   2.301
  219SOL    HW2  667   1.872   1.857   2.192
  220SOL     OW  668   0.027   1.596   1.979
  220SOL    HW1  669   0.008   1.500   2.000
  220SOL    HW2  670  -0.006   1.654   2.054
  221SOL     OW  671   1.689   0.922   2.474
  221SOL    HW1  672   1.784   0.893   2.482
  221SOL    HW2  673   1.681   0.987   2.399
  222SOL     OW  674   1.641   1.108   2.294
  222SOL    HW1  675   1.727   1.110   2.242
  222SOL    HW2  676   1.655   1.155   2.382
  223SOL     OW  677   0.613   1.365   2.588
  223SOL    HW1  678   0.564   1.278   2.597
  223SOL    HW2  679   0.590   1.408   2.501
  224SOL     OW  680   0.809   0.004   2.364
  224SOL    HW1  681   0.849   0.095   2.355
  224SOL    HW2  682   0.709   0.012   2.370
  225SOL     OW  683   1.525   0.999   2.052
  225SOL    HW1  684   1.462   0.923   2.065
  225SOL    HW2  685   1.573   1.017   2.138
  226SOL     OW  686   1.466   1.417   2.815
  226SOL    HW1  687   1.407   1.423   2.895
  226SOL    HW2  688   1.451   1.329   2.769
  227SOL     OW  689   0.598   0.729   2.132
  227SOL    HW1  690   0.622   0.798   2.064
  227SOL    HW2  691   0.520   0.762   2.186
  228SOL     OW  692   1.281   0.345   2.806
  228SOL    HW1  693   1.195   0.295   2.793
  228SOL    HW2  694   1.343   0.291   2.862
  229SOL     OW  695   1.576   1.662   2.169
  229SOL    HW1  696   1.665   1.708   2.172
  229SOL    HW2  697   1.555   1.638   2.074
  230SOL     OW  698   1.041   0.701   2.291
  230SOL    HW1  699   1.067   0.697   2.387
  230SOL    HW2  700   0.956   0.650   2.277
  231SOL     OW  701   0.076   0.811   2.651
  231SOL    HW1  702   0.175   0.799   2.660
  231SOL    HW2  703   0.052   0.906   2.672
  232SOL     OW  704   0.865   0.348   2.057
  232SOL    HW1  705   0.924   0.411   2.008
  232SOL    HW2  706   0.884   0.254   2.028
  233SOL     OW  707   1.362   1.144   2.407
  233SOL    HW1  708   1.445   1.115   2.359
  233SOL    HW2  709   1.313   1.211   2.351
  234SOL     OW  710   1.008   1.456   2.339
  234SOL    HW1  711   0.962   1.528   2.287
  234SOL    HW2  712   1.004   1.476   2.437
  235SOL     OW  713   0.351   1.801   2.715
  235SOL    HW1  714   0.401   1.715   2.721
  235SOL    HW2  715   0.416   1.878   2.712
  236SOL     OW  716   1.795   1.066   2.735
  236SOL    HW1  717   1.733   1.051   2.659
  236SOL    HW2  718   1.743   1.077   2.820
  237SOL     OW  719   0.321   0.943   2.104
  237SOL    HW1  720   0.403   0.982   2.062
  237SOL    HW2  721   0.294   0.861   2.055
  238SOL     OW  722   1.111   1.776   2.099
  238SOL    HW1  723   1.051   1.714   2.149
  238SOL    HW2  724   1.142   1.732   2.014
  239SOL     OW  725   1.632   1.377   1.943
  239SOL    HW1  726   1.600   1.471   1.933
  239SOL    HW2  727   1.556   1.314   1.931
  240SOL     OW  728   0.464   1.743   2.185
  240SOL    HW1  729   0.497   1.782   2.271
  240SOL    HW2  730   0.540   1.736   2.120
  241SOL     OW  731   1.400   0.107   2.288
  241SOL    HW1  732   1.376   0.070   2.198
  241SOL    HW2  733   1.499   0.123   2.292
  242SOL     OW  734   0.382   0.700   2.342
  242SOL    HW1  735   0.427   0.610   2.339
  242SOL    HW2  736   0.288   0.689   2.375
  243SOL     OW  737   0.614   0.122   1.979
  243SOL    HW1  738   0.712   0.100   1.986
  243SOL    HW2  739   0.583   0.105   1.886
  244SOL     OW  740   0.539   0.064   2.374
  244SOL    HW1  741   0.458   0.065   2.432
  244SOL    HW2  742   0.542   0.147   2.319
  245SOL     OW  743   1.434   1.188   1.903
  245SOL    HW1  744   1.466   1.112   1.960
  245SOL    HW2  745   1.342   1.215   1.933
  246SOL     OW  746   0.297   0.035   2.033
  246SOL    HW1  747   0.346   0.119   2.012
  246SOL    HW2  748   0.359  -0.030   2.078
  247SOL     OW  749   0.935   0.236   2.342
  247SOL    HW1  750   0.887   0.277   2.264
  247SOL    HW2  751   1.034   0.234   2.323
  248SOL     OW  752   0.459   1.152   2.603
  248SOL    HW1  753   0.388   1.125   2.668
  248SOL    HW2  754   0.433   1.124   2.510
  249SOL     OW  755   1.271   1.797   2.453
  249SOL    HW1  756   1.315   1.861   2.389
  249SOL    HW2  757   1.221   1.849   2.523
  250SOL     OW  758   1.032   0.549   1.878
  250SOL    HW1  759   0.991   0.631   1.839
  250SOL    HW2  760   1.096   0.575   1.951
  251SOL     OW  761   0.866   0.454   2.504
  251SOL    HW1  762   0.834   0.526   2.442
  251SOL    HW2  763   0.890   0.373   2.451
  252SOL     OW  764   1.857   0.833   2.239
  252SOL    HW1  765   1.899   0.769   2.303
  252SOL    HW2  766   1.819   0.782   2.161
  253SOL     OW  767   0.488   1.385   2.036
  253SOL    HW1  768   0.401   1.370   2.083
  253SOL    HW2  769   0.471   1.411   1.941
  254SOL     OW  770   1.390   0.575   1.940
  254SOL    HW1  771   1.336   0.554   2.021
  254SOL    HW2  772   1.481   0.534   1.949
  255SOL     OW  773   0.527   0.256   2.190
  255SOL    HW1  774   0.554   0.197   2.115
  255SOL    HW2  775   0.527   0.351   2.159
  256SOL     OW  776   0.705   1.050   2.230
  256SOL    HW1  777   0.691   1.057   2.329
  256SOL    HW2  778   0.789   0.999   2.212
  257SOL     OW  779   0.367   1.100   2.363
  257SOL    HW1  780   0.360   1.183   2.307
  257SOL    HW2  781   0.371   1.020   2.303
  258SOL     OW  782   1.252   1.348   2.250
  258SOL    HW1  783   1.302   1.425   2.290
  258SOL    HW2  784   1.157   1.350   2.282
  259SOL     OW  785   1.582   0.639   2.334
  259SOL    HW1  786   1.551   0.700   2.407
  259SOL    HW2  787   1.632   0.691   2.265
  260SOL     OW  788   1.209   0.525   2.137
  260SOL    HW1  789   1.222   0.441   2.191
  260SOL    HW2  790   1.180   0.599   2.197
  261SOL     OW  791   0.307   0.063   2.480
  261SOL    HW1  792   0.296   0.157   2.513
  261SOL    HW2  793   0.302   0.000   2.557
  262SOL     OW  794   1.622   0.367   2.236
  262SOL    HW1  795   1.624   0.291   2.300
  262SOL    HW2  796   1.574   0.444   2.276
  263SOL     OW  797   1.540   0.274   1.987
  263SOL    HW1  798   1.479   0.199   2.010
  263SOL    HW2  799   1.562   0.326   2.070
  264SOL     OW  800   1.303   0.838   1.904
  264SOL    HW1  801   1.337   0.745   1.919
  264SOL    HW2  802   1.321   0.865   1.809
  265SOL     OW  803   0.008   1.326   2.062
  265SOL    HW1  804  -0.085   1.347   2.031
  265SOL    HW2  805   0.018   1.227   2.075
  266SOL     OW  806   0.815   0.572   2.187
  266SOL    HW1  807   0.822   0.483   2.141
  266SOL    HW2  808   0.721   0.606   2.179
  267SOL     OW  809   0.473   0.500   2.053
  267SOL    HW1  810   0.534   0.580   2.057
  267SOL    HW2  811   0.378   0.531   2.060
  268SOL     OW  812   1.302   0.855   2.171
  268SOL    HW1  813   1.216   0.824   2.213
  268SOL    HW2  814   1.298   0.841   2.072
  269SOL     OW  815   1.726   0.135   2.385
  269SOL    HW1  816   1.799   0.118   2.318
  269SOL    HW2  817   1.695   0.048   2.423
  270SOL     OW  818   1.388   1.573   2.339
  270SOL    HW1  819   1.455   1.585   2.265
  270SOL    HW2  820   1.348   1.662   2.362
  271SOL     OW  821   0.672   1.616   2.016
  271SOL    HW1  822   0.681   1.626   1.917
  271SOL    HW2  823   0.632   1.527   2.037
  272SOL     OW  824   1.841   0.175   2.825
  272SOL    HW1  825   1.880   0.090   2.789
  272SOL    HW2  826   1.743   0.177   2.806
  273SOL     OW  827   1.194   1.612   1.893
  273SOL    HW1  828   1.200   1.519   1.930
  273SOL    HW2  829   1.135   1.612   1.813
  274SOL     OW  830   0.916   0.910   2.153
  274SOL    HW1  831   0.979   0.948   2.085
  274SOL    HW2  832   0.956   0.827   2.192
  275SOL     OW  833   1.504   1.607   1.906
  275SOL    HW1  834   1.412   1.644   1.913
  275SOL    HW2  835   1.542   1.627   1.816
  276SOL     OW  836   0.590   1.487   2.353
  276SOL    HW1  837   0.632   1.429   2.283
  276SOL    HW2  838   0.546   1.566   2.309
  277SOL     OW  839   0.255   1.348   2.152
  277SOL    HW1  840   0.159   1.349   2.125
  277SOL    HW2  841   0.267   1.401   2.236
  278SOL     OW  842   0.075   0.345   1.895
  278SOL    HW1  843  -0.017   0.317   1.866
  278SOL    HW2  844   0.106   0.422   1.839
  279SOL     OW  845   0.072   0.166   2.180
  279SOL    HW1  846   0.055   0.249   2.126
  279SOL    HW2  847   0.162   0.129   2.158
  280SOL     OW  848   1.183   1.335   1.981
  280SOL    HW1  849   1.084   1.324   1.983
  280SOL    HW2  850   1.217   1.350   2.074
  281SOL     OW  851   1.225   0.325   2.311
  281SOL    HW1  852   1.290   0.251   2.300
  281SOL    HW2  853   1.245   0.375   2.395
  282SOL     OW  854   0.594   0.745   2.514
  282SOL    HW1  855   0.644   0.830   2.495
  282SOL    HW2  856   0.506   0.747   2.466
  283SOL     OW  857   0.859   1.374   1.878
  283SOL    HW1  858   0.813   1.389   1.966
  283SOL    HW2  859   0.903   1.459   1.848
  284SOL     OW  860   1.083   0.984   1.949
  284SOL    HW1  861   1.060   1.037   1.867
  284SOL    HW2  862   1.164   0.928   1.930
  285SOL     OW  863   0.079   1.240   2.515
  285SOL    HW1  864   0.078   1.193   2.603
  285SOL    HW2  865   0.161   1.212   2.464
  286SOL     OW  866   0.428   0.424   2.382
  286SOL    HW1  867   0.458   0.352   2.320
  286SOL    HW2  868   0.389   0.384   2.465
  287SOL     OW  869   0.812   1.586   2.549
  287SOL    HW1  870   0.844   1.596   2.455
  287SOL    HW2  871   0.733   1.524   2.551
  288SOL     OW  872   0.770   1.330   2.163
  288SOL    HW1  873   0.724   1.243   2.180
  288SOL    HW2  874   0.861   1.327   2.204
  289SOL     OW  875   1.352   0.052   2.030
  289SOL    HW1  876   1.387   0.011   1.946
  289SOL    HW2  877   1.262   0.014   2.050
  290SOL     OW  878   1.300   0.453   2.553
  290SOL    HW1  879   1.241   0.533   2.557
  290SOL    HW2  880   1.315   0.418   2.646
  291SOL     OW  881   0.039   1.077   2.162
  291SOL    HW1  882   0.138   1.066   2.153
  291SOL    HW2  883  -0.001   0.991   2.194
  292SOL     OW  884   0.875   1.646   2.199
  292SOL    HW1  885   0.798   1.611   2.145
  292SOL    HW2  886   0.843   1.717   2.261
  293SOL     OW  887   0.225   2.137   0.996
  293SOL    HW1  888   0.260   2.120   1.088
  293SOL    HW2  889   0.137   2.092   0.984
  294SOL     OW  890   0.019   2.230   0.647
  294SOL    HW1  891  -0.063   2.273   0.686
  294SOL    HW2  892  -0.009   2.157   0.584
  295SOL     OW  893   1.755   2.469   0.231
  295SOL    HW1  894   1.743   2.456   0.132
  295SOL    HW2  895   1.725   2.388   0.280
  296SOL     OW  896   0.438   2.254   1.499
  296SOL    HW1  897   0.520   2.198   1.508
  296SOL    HW2  898   0.357   2.196   1.503
  297SOL     OW  899   1.603   2.309   0.737
  297SOL    HW1  900   1.529   2.355   0.687
  297SOL    HW2  901   1.654   2.377   0.790
  298SOL     OW  902   1.594   1.976   1.480
  298SOL    HW1  903   1.576   2.043   1.408
  298SOL    HW2  904   1.591   2.022   1.569
  299SOL     OW  905   0.122   2.505   0.563
  299SOL    HW1  906   0.077   2.417   0.580
  299SOL    HW2  907   0.121   2.559   0.647
  300SOL     OW  908   0.113   2.599   1.597
  300SOL    HW1  909   0.201   2.586   1.642
  300SOL    HW2  910   0.100   2.696   1.575
  301SOL     OW  911   0.809   1.866   0.502
  301SOL    HW1  912   0.849   1.957   0.493
  301SOL    HW2  913   0.709   1.874   0.508
  302SOL     OW  914   0.317   2.113   1.801
  302SOL    HW1  915   0.388   2.184   1.807
  302SOL    HW2  916   0.229   2.152   1.829
  303SOL     OW  917   1.281   2.207   0.944
  303SOL    HW1  918   1.195   2.157   0.931
  303SOL    HW2  919   1.343   2.153   1.000
  304SOL     OW  920   0.807   2.467   1.465
  304SOL    HW1  921   0.760   2.464   1.554
  304SOL    HW2  922   0.756   2.412   1.399
  305SOL     OW  923   1.394   2.331   1.674
  305SOL    HW1  924   1.374   2.374   1.762
  305SOL    HW2  925   1.472   2.269   1.683
  306SOL     OW  926   0.991   2.272   1.242
  306SOL    HW1  927   0.914   2.306   1.296
  306SOL    HW2  928   0.957   2.221   1.163
  307SOL     OW  929   1.041   2.563   0.429
  307SOL    HW1  930   1.067   2.559   0.525
  307SOL    HW2  931   0.956   2.512   0.415
  308SOL     OW  932   0.076   2.673   0.789
  308SOL    HW1  933   0.175   2.661   0.798
  308SOL    HW2  934   0.052   2.768   0.810
  309SOL     OW  935   0.865   2.210   0.195
  309SOL    HW1  936   0.924   2.273   0.146
  309SOL    HW2  937   0.884   2.116   0.166
  310SOL     OW  938   1.719   2.447   1.831
  310SOL    HW1  939   1.693   2.536   1.795
  310SOL    HW2  940   1.717   2.379   1.758
  311SOL     OW  941   0.550   2.058   0.885
  311SOL    HW1  942   0.545   2.053   0.985
  311SOL    HW2  943   0.552   2.154   0.856
  312SOL     OW  944   1.458   2.597   0.728
  312SOL    HW1  945   1.453   2.532   0.803
  312SOL    HW2  946   1.538   2.656   0.741
  313SOL     OW  947   0.202   2.147   1.498
  313SOL    HW1  948   0.122   2.207   1.485
  313SOL    HW2  949   0.192   2.098   1.584
  314SOL     OW  950   1.400   1.969   0.426
  314SOL    HW1  951   1.376   1.932   0.336
  314SOL    HW2  952   1.499   1.985   0.430
  315SOL     OW  953   1.547   2.084   1.729
  315SOL    HW1  954   1.542   2.121   1.821
  315SOL    HW2  955   1.475   2.015   1.717
  316SOL     OW  956   0.614   1.984   0.117
  316SOL    HW1  957   0.712   1.962   0.124
  316SOL    HW2  958   0.583   1.967   0.024
  317SOL     OW  959   0.781   2.126   1.749
  317SOL    HW1  960   0.848   2.065   1.792
  317SOL    HW2  961   0.708   2.145   1.814
  318SOL     OW  962   1.351   2.452   1.433
  318SOL    HW1  963   1.379   2.409   1.518
  318SOL    HW2  964   1.376   2.548   1.434
  319SOL     OW  965   0.922   2.365   0.899
  319SOL    HW1  966   0.897   2.356   0.803
  319SOL    HW2  967   0.970   2.283   0.930
  320SOL     OW  968   0.539   1.926   0.512
  320SOL    HW1  969   0.458   1.927   0.570
  320SOL    HW2  970   0.542   2.009   0.457
  321SOL     OW  971   0.935   2.098   0.480
  321SOL    HW1  972   0.887   2.139   0.402
  321SOL    HW2  973   1.034   2.096   0.461
  322SOL     OW  974   1.076   2.545   1.464
  322SOL    HW1  975   0.996   2.484   1.467
  322SOL    HW2  976   1.157   2.492   1.440
  323SOL     OW  977   1.032   2.411   0.016
  323SOL    HW1  978   0.991   2.493  -0.023
  323SOL    HW2  979   1.096   2.437   0.089
  324SOL     OW  980   0.078   2.418   1.386
  324SOL    HW1  981   0.170   2.417   1.345
  324SOL    HW2  982   0.072   2.492   1.453
  325SOL     OW  983   0.561   2.084   1.147
  325SOL    HW1  984   0.599   2.000   1.184
  325SOL    HW2  985   0.473   2.103   1.191
  326SOL     OW  986   0.866   2.316   0.642
  326SOL    HW1  987   0.834   2.388   0.580
  326SOL    HW2  988   0.890   2.235   0.589
  327SOL     OW  989   1.017   1.901   0.753
  327SOL    HW1  990   0.945   1.906   0.684
  327SOL    HW2  991   0.993   1.832   0.822
  328SOL     OW  992   1.466   2.452   0.992
  328SOL    HW1  993   1.436   2.357   0.999
  328SOL    HW2  994   1.539   2.468   1.058
  329SOL     OW  995   1.390   2.437   0.078
  329SOL    HW1  996   1.336   2.416   0.159
  329SOL    HW2  997   1.481   2.396   0.087
  330SOL     OW  998   0.527   2.118   0.328
  330SOL    HW1  999   0.554   2.059   0.253
  330SOL    HW2 1000   0.527   2.213   0.297
  331SOL     OW 1001   0.915   1.951   1.402
  331SOL    HW1 1002   0.940   1.931   1.307
  331SOL    HW2 1003   0.987   2.007   1.444
  332SOL     OW 1004   1.274   2.248   1.262
  332SOL    HW1 1005   1.295   2.322   1.326
  332SOL    HW2 1006   1.185   2.265   1.219
  333SOL     OW 1007   0.566   2.399   0.865
  333SOL    HW1 1008   0.578   2.465   0.791
  333SOL    HW2 1009   0.612   2.433   0.948
  334SOL     OW 1010   1.582   2.501   0.472
  334SOL    HW1 1011   1.551   2.562   0.545
  334SOL    HW2 1012   1.632   2.553   0.403
  335SOL     OW 1013   1.013   1.967   1.770
  335SOL    HW1 1014   1.019   2.052   1.718
  335SOL    HW2 1015   1.045   1.891   1.713
  336SOL     OW 1016   0.504   1.912   1.740
  336SOL    HW1 1017   0.462   1.855   1.670
  336SOL    HW2 1018   0.438   1.981   1.772
  337SOL     OW 1019   1.209   2.387   0.275
  337SOL    HW1 1020   1.222   2.303   0.329
  337SOL    HW2 1021   1.180   2.461   0.335
  338SOL     OW 1022   0.307   2.075   1.231
  338SOL    HW1 1023   0.284   2.112   1.321
  338SOL    HW2 1024   0.277   1.980   1.225
  339SOL     OW 1025   0.732   2.496   1.064
  339SOL    HW1 1026   0.791   2.470   0.988
  339SOL    HW2 1027   0.704   2.592   1.053
  340SOL     OW 1028   0.307   1.925   0.618
  340SOL    HW1 1029   0.296   2.019   0.651
  340SOL    HW2 1030   0.302   1.862   0.695
  341SOL     OW 1031   1.622   2.229   0.374
  341SOL    HW1 1032   1.624   2.153   0.438
  341SOL    HW2 1033   1.574   2.306   0.414
  342SOL     OW 1034   1.540   2.136   0.125
  342SOL    HW1 1035   1.479   2.061   0.148
  342SOL    HW2 1036   1.562   2.188   0.208
  343SOL     OW 1037   0.319   2.672   0.949
  343SOL    HW1 1038   0.412   2.708   0.954
  343SOL    HW2 1039   0.313   2.587   1.001
  344SOL     OW 1040   0.339   2.371   1.006
  344SOL    HW1 1041   0.287   2.288   0.989
  344SOL    HW2 1042   0.416   2.376   0.942
  345SOL     OW 1043   1.138   2.242   1.678
  345SOL    HW1 1044   1.093   2.305   1.742
  345SOL    HW2 1045   1.231   2.273   1.661
  346SOL     OW 1046   1.160   2.069   1.477
  346SOL    HW1 1047   1.160   2.133   1.554
  346SOL    HW2 1048   1.188   2.117   1.394
  347SOL     OW 1049   0.040   2.406   1.114
  347SOL    HW1 1050   0.125   2.373   1.073
  347SOL    HW2 1051   0.053   2.421   1.212
  348SOL     OW 1052   0.189   2.382   1.722
  348SOL    HW1 1053   0.248   2.342   1.652
  348SOL    HW2 1054   0.131   2.453   1.681
  349SOL     OW 1055   0.815   2.434   0.325
  349SOL    HW1 1056   0.822   2.345   0.279
  349SOL    HW2 1057   0.721   2.468   0.317
  350SOL     OW 1058   1.657   2.466   1.206
  350SOL    HW1 1059   1.619   2.397   1.268
  350SOL    HW2 1060   1.739   2.430   1.162
  351SOL     OW 1061   0.671   2.326   1.269
  351SOL    HW1 1062   0.637   2.237   1.239
  351SOL    HW2 1063   0.697   2.380   1.189
  352SOL     OW 1064   0.473   2.362   0.191
  352SOL    HW1 1065   0.534   2.442   0.195
  352SOL    HW2 1066   0.378   2.393   0.198
  353SOL     OW 1067   0.903   1.948   0.133
  353SOL    HW1 1068   0.954   1.949   0.047
  353SOL    HW2 1069   0.959   1.906   0.204
  354SOL     OW 1070   1.726   1.997   0.523
  354SOL    HW1 1071   1.799   1.980   0.456
  354SOL    HW2 1072   1.695   1.910   0.561
  355SOL     OW 1073   1.280   2.789   0.672
  355SOL    HW1 1074   1.340   2.708   0.674
  355SOL    HW2 1075   1.320   2.858   0.612
  356SOL     OW 1076   1.841   2.037   0.963
  356SOL    HW1 1077   1.880   1.952   0.927
  356SOL    HW2 1078   1.743   2.039   0.944
  357SOL     OW 1079   0.263   2.188   0.720
  357SOL    HW1 1080   0.184   2.239   0.686
  357SOL    HW2 1081   0.254   2.173   0.818
  358SOL     OW 1082   1.014   2.098   0.971
  358SOL    HW1 1083   1.006   2.062   0.878
  358SOL    HW2 1084   1.012   2.022   1.036
  359SOL     OW 1085   1.709   2.247   1.381
  359SOL    HW1 1086   1.782   2.316   1.385
  359SOL    HW2 1087   1.737   2.172   1.322
  360SOL     OW 1088   0.672   2.065   1.489
  360SOL    HW1 1089   0.762   2.049   1.449
  360SOL    HW2 1090   0.680   2.070   1.588
  361SOL     OW 1091   0.075   2.207   0.033
  361SOL    HW1 1092  -0.017   2.179   0.004
  361SOL    HW2 1093   0.106   2.284  -0.023
  362SOL     OW 1094   0.072   2.028   0.318
  362SOL    HW1 1095   0.055   2.111   0.264
  362SOL    HW2 1096   0.162   1.991   0.296
  363SOL     OW 1097   0.716   2.427   1.708
  363SOL    HW1 1098   0.735   2.492   1.782
  363SOL    HW2 1099   0.776   2.347   1.717
  364SOL     OW 1100   1.225   2.187   0.449
  364SOL    HW1 1101   1.290   2.113   0.438
  364SOL    HW2 1102   1.245   2.237   0.533
  365SOL     OW 1103   1.777   2.204   1.642
  365SOL    HW1 1104   1.760   2.235   1.548
  365SOL    HW2 1105   1.693   2.167   1.680
  366SOL     OW 1106   1.083   2.846   0.087
  366SOL    HW1 1107   1.060   2.899   0.005
  366SOL    HW2 1108   1.164   2.790   0.068
  367SOL     OW 1109   1.824   2.054   1.227
  367SOL    HW1 1110   1.820   1.964   1.271
  367SOL    HW2 1111   1.827   2.043   1.128
  368SOL     OW 1112   0.428   2.286   0.520
  368SOL    HW1 1113   0.458   2.214   0.458
  368SOL    HW2 1114   0.389   2.246   0.603
  369SOL     OW 1115   0.317   2.409   1.280
  369SOL    HW1 1116   0.355   2.350   1.352
  369SOL    HW2 1117   0.357   2.383   1.192
  370SOL     OW 1118   1.424   2.076   1.112
  370SOL    HW1 1119   1.476   2.011   1.167
  370SOL    HW2 1120   1.375   2.139   1.173
  371SOL     OW 1121   1.001   1.896   1.154
  371SOL    HW1 1122   0.938   1.824   1.123
  371SOL    HW2 1123   1.094   1.860   1.154
  372SOL     OW 1124   1.352   1.914   0.168
  372SOL    HW1 1125   1.387   1.873   0.084
  372SOL    HW2 1126   1.262   1.876   0.188
  373SOL     OW 1127   1.300   2.315   0.691
  373SOL    HW1 1128   1.241   2.395   0.695
  373SOL    HW2 1129   1.315   2.280   0.784
  374SOL     OW 1130   1.593   2.083   0.882
  374SOL    HW1 1131   1.509   2.082   0.936
  374SOL    HW2 1132   1.595   2.166   0.826
  375SOL     OW 1133   1.135   2.565   2.579
  375SOL    HW1 1134   1.192   2.643   2.554
  375SOL    HW2 1135   1.075   2.591   2.655
  376SOL     OW 1136   1.755   2.469   2.093
  376SOL    HW1 1137   1.743   2.456   1.994
  376SOL    HW2 1138   1.725   2.388   2.142
  377SOL     OW 1139   1.603   2.309   2.599
  377SOL    HW1 1140   1.529   2.355   2.549
  377SOL    HW2 1141   1.654   2.377   2.652
  378SOL     OW 1142   0.122   2.505   2.425
  378SOL    HW1 1143   0.077   2.417   2.442
  378SOL    HW2 1144   0.121   2.559   2.509
  379SOL     OW 1145   0.809   1.866   2.364
  379SOL    HW1 1146   0.849   1.957   2.355
  379SOL    HW2 1147   0.709   1.874   2.370
  380SOL     OW 1148   1.281   2.207   2.806
  380SOL    HW1 1149   1.195   2.157   2.793
  380SOL    HW2 1150   1.343   2.153   2.862
  381SOL     OW 1151   1.041   2.563   2.291
  381SOL    HW1 1152   1.067   2.559   2.387
  381SOL    HW2 1153   0.956   2.512   2.277
  382SOL     OW 1154   0.076   2.673   2.651
  382SOL    HW1 1155   0.175   2.661   2.660
  382SOL    HW2 1156   0.052   2.768   2.672
  383SOL     OW 1157   0.865   2.210   2.057
  383SOL    HW1 1158   0.924   2.273   2.008
  383SOL    HW2 1159   0.884   2.116   2.028
  384SOL     OW 1160   1.400   1.969   2.288
  384SOL    HW1 1161   1.376   1.932   2.198
  384SOL    HW2 1162   1.499   1.985   2.292
  385SOL     OW 1163   0.614   1.984   1.979
  385SOL    HW1 1164   0.712   1.962   1.986
  385SOL    HW2 1165   0.583   1.967   1.886
  386SOL     OW 1166   0.539   1.926   2.374
  386SOL    HW1 1167   0.458   1.927   2.432
  386SOL    HW2 1168   0.542   2.009   2.319
  387SOL     OW 1169   0.297   1.897   2.033
  387SOL    HW1 1170   0.346   1.981   2.012
  387SOL    HW2 1171   0.359   1.832   2.078
  388SOL     OW 1172   0.935   2.098   2.342
  388SOL    HW1 1173   0.887   2.139   2.264
  388SOL    HW2 1174   1.034   2.096   2.323
  389SOL     OW 1175   1.032   2.411   1.878
  389SOL    HW1 1176   0.991   2.493   1.839
  389SOL    HW2 1177   1.096   2.437   1.951
  390SOL     OW 1178   0.866   2.316   2.504
  390SOL    HW1 1179   0.834   2.388   2.442
  390SOL    HW2 1180   0.890   2.235   2.451
  391SOL     OW 1181   1.390   2.437   1.940
  391SOL    HW1 1182   1.336   2.416   2.021
  391SOL    HW2 1183   1.481   2.396   1.949
  392SOL     OW 1184   0.527   2.118   2.190
  392SOL    HW1 1185   0.554   2.059   2.115
  392SOL    HW2 1186   0.527   2.213   2.159
  393SOL     OW 1187   1.582   2.501   2.334
  393SOL    HW1 1188   1.551   2.562   2.407
  393SOL    HW2 1189   1.632   2.553   2.265
  394SOL     OW 1190   1.209   2.387   2.137
  394SOL    HW1 1191   1.222   2.303   2.191
  394SOL    HW2 1192   1.180   2.461   2.197
  395SOL     OW 1193   0.307   1.925   2.480
  395SOL    HW1 1194   0.296   2.019   2.513
  395SOL    HW2 1195   0.302   1.862   2.557
  396SOL     OW 1196   1.622   2.229   2.236
  396SOL    HW1 1197   1.624   2.153   2.300
  396SOL    HW2 1198   1.574   2.306   2.276
  397SOL     OW 1199   1.540   2.136   1.987
  397SOL    HW1 1200   1.479   2.061   2.010
  397SOL    HW2 1201   1.562   2.188   2.070
  398SOL     OW 1202   0.815   2.434   2.187
  398SOL    HW1 1203   0.822   2.345   2.141
  398SOL    HW2 1204   0.721   2.468   2.179
  399SOL     OW 1205   0.473   2.362   2.053
  399SOL    HW1 1206   0.534   2.442   2.057
  399SOL    HW2 1207   0.378   2.393   2.060
  400SOL     OW 1208   1.726   1.997   2.385
  400SOL    HW1 1209   1.799   1.980   2.318
  400SOL    HW2 1210   1.695   1.910   2.423
  401SOL     OW 1211   1.280   2.789   2.534
  401SOL    HW1 1212   1.340   2.708   2.536
  401SOL    HW2 1213   1.320   2.858   2.474
  402SOL     OW 1214   1.841   2.037   2.825
  402SOL    HW1 1215   1.880   1.952   2.789
  402SOL    HW2 1216   1.743   2.039   2.806
  403SOL     OW 1217   0.075   2.207   1.895
  403SOL    HW1 1218  -0.017   2.179   1.866
  403SOL    HW2 1219   0.106   2.284   1.839
  404SOL     OW 1220   0.072   2.028   2.180
  404SOL    HW1 1221   0.055   2.111   2.126
  404SOL    HW2 1222   0.162   1.991   2.158
  405SOL     OW 1223   1.225   2.187   2.311
  405SOL    HW1 1224   1.290   2.113   2.300
  405SOL    HW2 1225   1.245   2.237   2.395
  406SOL     OW 1226   1.083   2.846   1.949
  406SOL    HW1 1227   1.060   2.899   1.867
  406SOL    HW2 1228   1.164   2.790   1.930
  407SOL     OW 1229   0.428   2.286   2.382
  407SOL    HW1 1230   0.458   2.214   2.320
  407SOL    HW2 1231   0.389   2.246   2.465
  408SOL     OW 1232   1.352   1.914   2.030
  408SOL    HW1 1233   1.387   1.873   1.946
  408SOL    HW2 1234   1.262   1.876   2.050
  409SOL     OW 1235   1.300   2.315   2.553
  409SOL    HW1 1236   1.241   2.395   2.557
  409SOL    HW2 1237   1.315   2.280   2.646
  410SOL     OW 1238   2.092   0.628   0.113
  410SOL    HW1 1239   1.999   0.626   0.150
  410SOL    HW2 1240   2.093   0.589   0.021
  411SOL     OW 1241   2.087   0.275   0.996
  411SOL    HW1 1242   2.122   0.258   1.088
  411SOL    HW2 1243   1.999   0.230   0.984
  412SOL     OW 1244   1.881   0.368   0.647
  412SOL    HW1 1245   1.799   0.411   0.686
  412SOL    HW2 1246   1.853   0.295   0.584
  413SOL     OW 1247   2.431   1.275   1.165
  413SOL    HW1 1248   2.338   1.268   1.128
  413SOL    HW2 1249   2.442   1.364   1.209
  414SOL     OW 1250   2.712   0.798   1.823
  414SOL    HW1 1251   2.708   0.874   1.888
  414SOL    HW2 1252   2.734   0.834   1.732
  415SOL     OW 1253   2.197   1.435   1.061
  415SOL    HW1 1254   2.119   1.404   1.008
  415SOL    HW2 1255   2.255   1.493   1.004
  416SOL     OW 1256   2.300   0.392   1.499
  416SOL    HW1 1257   2.382   0.336   1.508
  416SOL    HW2 1258   2.219   0.334   1.503
  417SOL     OW 1259   2.093   1.713   0.483
  417SOL    HW1 1260   2.127   1.790   0.537
  417SOL    HW2 1261   2.137   1.713   0.393
  418SOL     OW 1262   2.092   1.434   0.538
  418SOL    HW1 1263   2.066   1.530   0.538
  418SOL    HW2 1264   2.021   1.380   0.583
  419SOL     OW 1265   2.102   1.091   0.886
  419SOL    HW1 1266   2.116   1.007   0.938
  419SOL    HW2 1267   2.047   1.155   0.941
  420SOL     OW 1268   2.482   1.786   1.439
  420SOL    HW1 1269   2.390   1.769   1.474
  420SOL    HW2 1270   2.510   1.878   1.465
  421SOL     OW 1271   2.468   0.964   0.123
  421SOL    HW1 1272   2.475   1.048   0.069
  421SOL    HW2 1273   2.514   0.977   0.211
  422SOL     OW 1274   1.984   0.643   0.563
  422SOL    HW1 1275   1.939   0.555   0.580
  422SOL    HW2 1276   1.983   0.697   0.647
  423SOL     OW 1277   1.889   1.596   0.117
  423SOL    HW1 1278   1.870   1.500   0.138
  423SOL    HW2 1279   1.856   1.654   0.192
  424SOL     OW 1280   1.975   0.737   1.597
  424SOL    HW1 1281   2.063   0.724   1.642
  424SOL    HW2 1282   1.962   0.834   1.575
  425SOL     OW 1283   2.475   1.365   0.726
  425SOL    HW1 1284   2.426   1.278   0.735
  425SOL    HW2 1285   2.452   1.408   0.639
  426SOL     OW 1286   2.059   0.976   1.264
  426SOL    HW1 1287   2.148   0.931   1.250
  426SOL    HW2 1288   1.986   0.911   1.245
  427SOL     OW 1289   2.179   0.251   1.801
  427SOL    HW1 1290   2.250   0.322   1.807
  427SOL    HW2 1291   2.091   0.290   1.829
  428SOL     OW 1292   2.460   0.729   0.270
  428SOL    HW1 1293   2.484   0.798   0.202
  428SOL    HW2 1294   2.382   0.762   0.324
  429SOL     OW 1295   1.938   0.811   0.789
  429SOL    HW1 1296   2.037   0.799   0.798
  429SOL    HW2 1297   1.914   0.906   0.810
  430SOL     OW 1298   1.992   1.821   1.571
  430SOL    HW1 1299   1.982   1.806   1.670
  430SOL    HW2 1300   1.906   1.857   1.535
  431SOL     OW 1301   2.412   0.196   0.885
  431SOL    HW1 1302   2.407   0.191   0.985
  431SOL    HW2 1303   2.414   0.292   0.856
  432SOL     OW 1304   2.213   1.801   0.853
  432SOL    HW1 1305   2.263   1.715   0.859
  432SOL    HW2 1306   2.278   1.878   0.850
  433SOL     OW 1307   2.183   0.943   0.242
  433SOL    HW1 1308   2.265   0.982   0.200
  433SOL    HW2 1309   2.156   0.861   0.193
  434SOL     OW 1310   2.323   1.266   1.727
  434SOL    HW1 1311   2.273   1.267   1.641
  434SOL    HW2 1312   2.260   1.248   1.803
  435SOL     OW 1313   2.064   0.285   1.498
  435SOL    HW1 1314   1.984   0.345   1.485
  435SOL    HW2 1315   2.054   0.236   1.584
  436SOL     OW 1316   2.326   1.743   0.323
  436SOL    HW1 1317   2.359   1.782   0.409
  436SOL    HW2 1318   2.402   1.736   0.258
  437SOL     OW 1319   2.111   1.785   1.241
  437SOL    HW1 1320   2.168   1.720   1.291
  437SOL    HW2 1321   2.095   1.752   1.148
  438SOL     OW 1322   2.244   0.700   0.480
  438SOL    HW1 1323   2.289   0.610   0.477
  438SOL    HW2 1324   2.150   0.689   0.513
  439SOL     OW 1325   2.665   1.402   0.924
  439SOL    HW1 1326   2.755   1.416   0.882
  439SOL    HW2 1327   2.594   1.404   0.853
  440SOL     OW 1328   2.401   0.064   0.512
  440SOL    HW1 1329   2.320   0.065   0.570
  440SOL    HW2 1330   2.404   0.147   0.457
  441SOL     OW 1331   2.159   0.035   0.171
  441SOL    HW1 1332   2.208   0.119   0.150
  441SOL    HW2 1333   2.221  -0.030   0.216
  442SOL     OW 1334   2.797   0.236   0.480
  442SOL    HW1 1335   2.749   0.277   0.402
  442SOL    HW2 1336   2.896   0.234   0.461
  443SOL     OW 1337   2.321   1.152   0.741
  443SOL    HW1 1338   2.250   1.125   0.806
  443SOL    HW2 1339   2.295   1.124   0.648
  444SOL     OW 1340   1.940   0.556   1.386
  444SOL    HW1 1341   2.032   0.555   1.345
  444SOL    HW2 1342   1.934   0.630   1.453
  445SOL     OW 1343   2.423   0.222   1.147
  445SOL    HW1 1344   2.461   0.138   1.184
  445SOL    HW2 1345   2.335   0.241   1.191
  446SOL     OW 1346   2.350   1.385   0.174
  446SOL    HW1 1347   2.263   1.370   0.221
  446SOL    HW2 1348   2.333   1.411   0.079
  447SOL     OW 1349   2.389   0.256   0.328
  447SOL    HW1 1350   2.416   0.197   0.253
  447SOL    HW2 1351   2.389   0.351   0.297
  448SOL     OW 1352   2.272   0.813   1.251
  448SOL    HW1 1353   2.358   0.825   1.301
  448SOL    HW2 1354   2.230   0.726   1.278
  449SOL     OW 1355   1.926   1.564   1.331
  449SOL    HW1 1356   1.880   1.646   1.297
  449SOL    HW2 1357   2.024   1.583   1.340
  450SOL     OW 1358   2.229   1.100   0.501
  450SOL    HW1 1359   2.222   1.183   0.445
  450SOL    HW2 1360   2.233   1.020   0.441
  451SOL     OW 1361   2.428   0.537   0.865
  451SOL    HW1 1362   2.440   0.603   0.791
  451SOL    HW2 1363   2.474   0.571   0.948
  452SOL     OW 1364   2.216   1.510   1.329
  452SOL    HW1 1365   2.195   1.466   1.242
  452SOL    HW2 1366   2.313   1.536   1.332
  453SOL     OW 1367   2.264   0.751   1.598
  453SOL    HW1 1368   2.332   0.806   1.551
  453SOL    HW2 1369   2.304   0.663   1.625
  454SOL     OW 1370   2.366   0.050   1.740
  454SOL    HW1 1371   2.324  -0.007   1.670
  454SOL    HW2 1372   2.300   0.119   1.772
  455SOL     OW 1373   2.435   0.870   1.029
  455SOL    HW1 1374   2.479   0.959   1.020
  455SOL    HW2 1375   2.372   0.870   1.106
  456SOL     OW 1376   2.169   0.213   1.231
  456SOL    HW1 1377   2.146   0.250   1.321
  456SOL    HW2 1378   2.139   0.118   1.225
  457SOL     OW 1379   1.899   1.310   1.282
  457SOL    HW1 1380   1.952   1.261   1.350
  457SOL    HW2 1381   1.921   1.408   1.287
  458SOL     OW 1382   2.169   0.063   0.618
  458SOL    HW1 1383   2.158   0.157   0.651
  458SOL    HW2 1384   2.164   0.000   0.695
  459SOL     OW 1385   2.212   0.898   1.804
  459SOL    HW1 1386   2.288   0.942   1.852
  459SOL    HW2 1387   2.247   0.851   1.722
  460SOL     OW 1388   2.181   0.810   0.949
  460SOL    HW1 1389   2.274   0.846   0.954
  460SOL    HW2 1390   2.175   0.725   1.001
  461SOL     OW 1391   2.201   0.509   1.006
  461SOL    HW1 1392   2.149   0.426   0.989
  461SOL    HW2 1393   2.278   0.514   0.942
  462SOL     OW 1394   1.870   1.326   0.200
  462SOL    HW1 1395   1.777   1.347   0.169
  462SOL    HW2 1396   1.880   1.227   0.213
  463SOL     OW 1397   1.950   1.801   0.927
  463SOL    HW1 1398   1.908   1.715   0.900
  463SOL    HW2 1399   2.044   1.804   0.893
  464SOL     OW 1400   2.366   1.568   0.910
  464SOL    HW1 1401   2.432   1.642   0.919
  464SOL    HW2 1402   2.410   1.489   0.868
  465SOL     OW 1403   1.902   0.544   1.114
  465SOL    HW1 1404   1.987   0.511   1.073
  465SOL    HW2 1405   1.915   0.559   1.212
  466SOL     OW 1406   2.051   0.520   1.722
  466SOL    HW1 1407   2.110   0.480   1.652
  466SOL    HW2 1408   1.993   0.591   1.681
  467SOL     OW 1409   2.677   0.572   0.325
  467SOL    HW1 1410   2.684   0.483   0.279
  467SOL    HW2 1411   2.583   0.606   0.317
  468SOL     OW 1412   2.114   1.564   1.744
  468SOL    HW1 1413   2.084   1.621   1.820
  468SOL    HW2 1414   2.107   1.467   1.770
  469SOL     OW 1415   2.335   0.500   0.191
  469SOL    HW1 1416   2.396   0.580   0.195
  469SOL    HW2 1417   2.240   0.531   0.198
  470SOL     OW 1418   2.021   1.137   1.466
  470SOL    HW1 1419   2.043   1.076   1.542
  470SOL    HW2 1420   2.031   1.088   1.380
  471SOL     OW 1421   1.945   1.258   1.022
  471SOL    HW1 1422   1.940   1.257   1.122
  471SOL    HW2 1423   1.862   1.217   0.984
  472SOL     OW 1424   2.550   1.662   1.716
  472SOL    HW1 1425   2.494   1.743   1.725
  472SOL    HW2 1426   2.602   1.666   1.630
  473SOL     OW 1427   1.992   1.794   1.851
  473SOL    HW1 1428   1.951   1.720   1.904
  473SOL    HW2 1429   2.056   1.845   1.909
  474SOL     OW 1430   2.125   0.326   0.720
  474SOL    HW1 1431   2.046   0.377   0.686
  474SOL    HW2 1432   2.116   0.311   0.818
  475SOL     OW 1433   2.234   1.288   1.490
  475SOL    HW1 1434   2.221   1.381   1.456
  475SOL    HW2 1435   2.150   1.236   1.477
  476SOL     OW 1436   2.452   1.487   0.491
  476SOL    HW1 1437   2.494   1.429   0.421
  476SOL    HW2 1438   2.408   1.566   0.447
  477SOL     OW 1439   2.117   1.348   0.290
  477SOL    HW1 1440   2.021   1.349   0.263
  477SOL    HW2 1441   2.129   1.401   0.374
  478SOL     OW 1442   1.967   1.013   1.726
  478SOL    HW1 1443   1.890   0.980   1.780
  478SOL    HW2 1444   2.052   0.983   1.768
  479SOL     OW 1445   2.534   0.203   1.489
  479SOL    HW1 1446   2.624   0.187   1.449
  479SOL    HW2 1447   2.542   0.208   1.588
  480SOL     OW 1448   1.937   0.345   0.033
  480SOL    HW1 1449   1.845   0.317   0.004
  480SOL    HW2 1450   1.968   0.422  -0.023
  481SOL     OW 1451   2.475   0.842   1.431
  481SOL    HW1 1452   2.531   0.923   1.414
  481SOL    HW2 1453   2.534   0.762   1.434
  482SOL     OW 1454   2.252   1.741   1.560
  482SOL    HW1 1455   2.161   1.782   1.558
  482SOL    HW2 1456   2.245   1.647   1.592
  483SOL     OW 1457   2.456   0.745   0.652
  483SOL    HW1 1458   2.506   0.830   0.633
  483SOL    HW2 1459   2.368   0.747   0.604
  484SOL     OW 1460   2.083   1.314   1.844
  484SOL    HW1 1461   2.018   1.241   1.823
  484SOL    HW2 1462   2.087   1.328   1.942
  485SOL     OW 1463   1.941   1.240   0.653
  485SOL    HW1 1464   1.940   1.193   0.741
  485SOL    HW2 1465   2.023   1.212   0.602
  486SOL     OW 1466   2.534   1.391   1.624
  486SOL    HW1 1467   2.456   1.341   1.662
  486SOL    HW2 1468   2.531   1.486   1.655
  487SOL     OW 1469   2.290   0.424   0.520
  487SOL    HW1 1470   2.320   0.352   0.458
  487SOL    HW2 1471   2.251   0.384   0.603
  488SOL     OW 1472   2.179   0.547   1.280
  488SOL    HW1 1473   2.217   0.488   1.352
  488SOL    HW2 1474   2.219   0.521   1.192
  489SOL     OW 1475   1.901   1.077   0.300
  489SOL    HW1 1476   2.000   1.066   0.291
  489SOL    HW2 1477   1.861   0.991   0.332
  490SOL     OW 1478   2.092   0.628   1.975
  490SOL    HW1 1479   1.999   0.626   2.012
  490SOL    HW2 1480   2.093   0.589   1.883
  491SOL     OW 1481   2.087   0.275   2.858
  491SOL    HW1 1482   2.122   0.258   2.950
  491SOL    HW2 1483   1.999   0.230   2.846
  492SOL     OW 1484   2.093   1.713   2.345
  492SOL    HW1 1485   2.127   1.790   2.399
  492SOL    HW2 1486   2.137   1.713   2.255
  493SOL     OW 1487   2.092   1.434   2.400
  493SOL    HW1 1488   2.066   1.530   2.400
  493SOL    HW2 1489   2.021   1.380   2.445
  494SOL     OW 1490   2.468   0.964   1.985
  494SOL    HW1 1491   2.475   1.048   1.931
  494SOL    HW2 1492   2.514   0.977   2.073
  495SOL     OW 1493   1.984   0.643   2.425
  495SOL    HW1 1494   1.939   0.555   2.442
  495SOL    HW2 1495   1.983   0.697   2.509
  496SOL     OW 1496   1.889   1.596   1.979
  496SOL    HW1 1497   1.870   1.500   2.000
  496SOL    HW2 1498   1.856   1.654   2.054
  497SOL     OW 1499   2.475   1.365   2.588
  497SOL    HW1 1500   2.426   1.278   2.597
  497SOL    HW2 1501   2.452   1.408   2.501
  498SOL     OW 1502   2.460   0.729   2.132
  498SOL    HW1 1503   2.484   0.798   2.064
  498SOL    HW2 1504   2.382   0.762   2.186
  499SOL     OW 1505   1.938   0.811   2.651
  499SOL    HW1 1506   2.037   0.799   2.660
  499SOL    HW2 1507   1.914   0.906   2.672
  500SOL     OW 1508   2.213   1.801   2.715
  500SOL    HW1 1509   2.263   1.715   2.721
  500SOL    HW2 1510   2.278   1.878   2.712
  501SOL     OW 1511   2.183   0.943   2.104
  501SOL    HW1 1512   2.265   0.982   2.062
  501SOL    HW2 1513   2.156   0.861   2.055
  502SOL     OW 1514   2.326   1.743   2.185
  502SOL    HW1 1515   2.359   1.782   2.271
  502SOL    HW2 1516   2.402   1.736   2.120
  503SOL     OW 1517   2.244   0.700   2.342
  503SOL    HW1 1518   2.289   0.610   2.339
  503SOL    HW2 1519   2.150   0.689   2.375
  504SOL     OW 1520   2.476   0.122   1.979
  504SOL    HW1 1521   2.574   0.100   1.986
  504SOL    HW2 1522   2.445   0.105   1.886
  505SOL     OW 1523   2.401   0.064   2.374
  505SOL    HW1 1524   2.320   0.065   2.432
  505SOL    HW2 1525   2.404   0.147   2.319
  506SOL     OW 1526   2.159   0.035   2.033
  506SOL    HW1 1527   2.208   0.119   2.012
  506SOL    HW2 1528   2.221  -0.030   2.078
  507SOL     OW 1529   2.797   0.236   2.342
  507SOL    HW1 1530   2.749   0.277   2.264
  507SOL    HW2 1531   2.896   0.234   2.323
  508SOL     OW 1532   2.321   1.152   2.603
  508SOL    HW1 1533   2.250   1.125   2.668
  508SOL    HW2 1534   2.295   1.124   2.510
  509SOL     OW 1535   2.350   1.385   2.036
  509SOL    HW1 1536   2.263   1.370   2.083
  509SOL    HW2 1537   2.333   1.411   1.941
  510SOL     OW 1538   2.389   0.256   2.190
  510SOL    HW1 1539   2.416   0.197   2.115
  510SOL    HW2 1540   2.389   0.351   2.159
  511SOL     OW 1541   2.229   1.100   2.363
  511SOL    HW1 1542   2.222   1.183   2.307
  511SOL    HW2 1543   2.233   1.020   2.303
  512SOL     OW 1544   2.169   0.063   2.480
  512SOL    HW1 1545   2.158   0.157   2.513
  512SOL    HW2 1546   2.164   0.000   2.557
  513SOL     OW 1547   1.870   1.326   2.062
  513SOL    HW1 1548   1.777   1.347   2.031
  513SOL    HW2 1549   1.880   1.227   2.075
  514SOL     OW 1550   2.677   0.572   2.187
  514SOL    HW1 1551   2.684   0.483   2.141
  514SOL    HW2 1552   2.583   0.606   2.179
  515SOL     OW 1553   2.335   0.500   2.053
  515SOL    HW1 1554   2.396   0.580   2.057
  515SOL    HW2 1555   2.240   0.531   2.060
  516SOL     OW 1556   2.452   1.487   2.353
  516SOL    HW1 1557   2.494   1.429   2.283
  516SOL    HW2 1558   2.408   1.566   2.309
  517SOL     OW 1559   2.117   1.348   2.152
  517SOL    HW1 1560   2.021   1.349   2.125
  517SOL    HW2 1561   2.129   1.401   2.236
  518SOL     OW 1562   1.937   0.345   1.895
  518SOL    HW1 1563   1.845   0.317   1.866
  518SOL    HW2 1564   1.968   0.422   1.839
  519SOL     OW 1565   1.934   0.166   2.180
  519SOL    HW1 1566   1.917   0.249   2.126
  519SOL    HW2 1567   2.024   0.129   2.158
  520SOL     OW 1568   2.456   0.745   2.514
  520SOL    HW1 1569   2.506   0.830   2.495
  520SOL    HW2 1570   2.368   0.747   2.466
  521SOL     OW 1571   1.941   1.240   2.515
  521SOL    HW1 1572   1.940   1.193   2.603
  521SOL    HW2 1573   2.023   1.212   2.464
  522SOL     OW 1574   2.290   0.424   2.382
  522SOL    HW1 1575   2.320   0.352   2.320
  522SOL    HW2 1576   2.251   0.384   2.465
  523SOL     OW 1577   1.901   1.077   2.162
  523SOL    HW1 1578   2.000   1.066   2.153
  523SOL    HW2 1579   1.861   0.991   2.194
  524SOL     OW 1580   2.087   2.137   0.996
  524SOL    HW1 1581   2.122   2.120   1.088
  524SOL    HW2 1582   1.999   2.092   0.984
  525SOL     OW 1583   1.881   2.230   0.647
  525SOL    HW1 1584   1.799   2.273   0.686
  525SOL    HW2 1585   1.853   2.157   0.584
  526SOL     OW 1586   2.712   2.660   1.823
  526SOL    HW1 1587   2.708   2.736   1.888
  526SOL    HW2 1588   2.734   2.696   1.732
  527SOL     OW 1589   2.300   2.254   1.499
  527SOL    HW1 1590   2.382   2.198   1.508
  527SOL    HW2 1591   2.219   2.196   1.503
  528SOL     OW 1592   1.984   2.505   0.563
  528SOL    HW1 1593   1.939   2.417   0.580
  528SOL    HW2 1594   1.983   2.559   0.647
  529SOL     OW 1595   1.975   2.599   1.597
  529SOL    HW1 1596   2.063   2.586   1.642
  529SOL    HW2 1597   1.962   2.696   1.575
  530SOL     OW 1598   2.671   1.866   0.502
  530SOL    HW1 1599   2.711   1.957   0.493
  530SOL    HW2 1600   2.571   1.874   0.508
  531SOL     OW 1601   2.179   2.113   1.801
  531SOL    HW1 1602   2.250   2.184   1.807
  531SOL    HW2 1603   2.091   2.152   1.829
  532SOL     OW 1604   2.460   2.591   0.270
  532SOL    HW1 1605   2.484   2.660   0.202
  532SOL    HW2 1606   2.382   2.624   0.324
  533SOL     OW 1607   2.412   2.058   0.885
  533SOL    HW1 1608   2.407   2.053   0.985
  533SOL    HW2 1609   2.414   2.154   0.856
  534SOL     OW 1610   2.064   2.147   1.498
  534SOL    HW1 1611   1.984   2.207   1.485
  534SOL    HW2 1612   2.054   2.098   1.584
  535SOL     OW 1613   2.476   1.984   0.117
  535SOL    HW1 1614   2.574   1.962   0.124
  535SOL    HW2 1615   2.445   1.967   0.024
  536SOL     OW 1616   2.401   1.926   0.512
  536SOL    HW1 1617   2.320   1.927   0.570
  536SOL    HW2 1618   2.404   2.009   0.457
  537SOL     OW 1619   2.797   2.098   0.480
  537SOL    HW1 1620   2.749   2.139   0.402
  537SOL    HW2 1621   2.896   2.096   0.461
  538SOL     OW 1622   1.940   2.418   1.386
  538SOL    HW1 1623   2.032   2.417   1.345
  538SOL    HW2 1624   1.934   2.492   1.453
  539SOL     OW 1625   2.423   2.084   1.147
  539SOL    HW1 1626   2.461   2.000   1.184
  539SOL    HW2 1627   2.335   2.103   1.191
  540SOL     OW 1628   2.389   2.118   0.328
  540SOL    HW1 1629   2.416   2.059   0.253
  540SOL    HW2 1630   2.389   2.213   0.297
  541SOL     OW 1631   2.428   2.399   0.865
  541SOL    HW1 1632   2.440   2.465   0.791
  541SOL    HW2 1633   2.474   2.433   0.948
  542SOL     OW 1634   2.366   1.912   1.740
  542SOL    HW1 1635   2.324   1.855   1.670
  542SOL    HW2 1636   2.300   1.981   1.772
  543SOL     OW 1637   2.169   2.075   1.231
  543SOL    HW1 1638   2.146   2.112   1.321
  543SOL    HW2 1639   2.139   1.980   1.225
  544SOL     OW 1640   2.169   1.925   0.618
  544SOL    HW1 1641   2.158   2.019   0.651
  544SOL    HW2 1642   2.164   1.862   0.695
  545SOL     OW 1643   2.181   2.672   0.949
  545SOL    HW1 1644   2.274   2.708   0.954
  545SOL    HW2 1645   2.175   2.587   1.001
  546SOL     OW 1646   2.201   2.371   1.006
  546SOL    HW1 1647   2.149   2.288   0.989
  546SOL    HW2 1648   2.278   2.376   0.942
  547SOL     OW 1649   1.902   2.406   1.114
  547SOL    HW1 1650   1.987   2.373   1.073
  547SOL    HW2 1651   1.915   2.421   1.212
  548SOL     OW 1652   2.051   2.382   1.722
  548SOL    HW1 1653   2.110   2.342   1.652
  548SOL    HW2 1654   1.993   2.453   1.681
  549SOL     OW 1655   2.677   2.434   0.325
  549SOL    HW1 1656   2.684   2.345   0.279
  549SOL    HW2 1657   2.583   2.468   0.317
  550SOL     OW 1658   2.335   2.362   0.191
  550SOL    HW1 1659   2.396   2.442   0.195
  550SOL    HW2 1660   2.240   2.393   0.198
  551SOL     OW 1661   2.765   1.948   0.133
  551SOL    HW1 1662   2.816   1.949   0.047
  551SOL    HW2 1663   2.821   1.906   0.204
  552SOL     OW 1664   2.125   2.188   0.720
  552SOL    HW1 1665   2.046   2.239   0.686
  552SOL    HW2 1666   2.116   2.173   0.818
  553SOL     OW 1667   2.534   2.065   1.489
  553SOL    HW1 1668   2.624   2.049   1.449
  553SOL    HW2 1669   2.542   2.070   1.588
  554SOL     OW 1670   1.937   2.207   0.033
  554SOL    HW1 1671   1.845   2.179   0.004
  554SOL    HW2 1672   1.968   2.284  -0.023
  555SOL     OW 1673   2.290   2.286   0.520
  555SOL    HW1 1674   2.320   2.214   0.458
  555SOL    HW2 1675   2.251   2.246   0.603
  556SOL     OW 1676   2.179   2.409   1.280
  556SOL    HW1 1677   2.217   2.350   1.352
  556SOL    HW2 1678   2.219   2.383   1.192
  557SOL     OW 1679   2.087   2.137   2.858
  557SOL    HW1 1680   2.122   2.120   2.950
  557SOL    HW2 1681   1.999   2.092   2.846
  558SOL     OW 1682   1.984   2.505   2.425
  558SOL    HW1 1683   1.939   2.417   2.442
  558SOL    HW2 1684   1.983   2.559   2.509
  559SOL     OW 1685   2.671   1.866   2.364
  559SOL    HW1 1686   2.711   1.957   2.355
  559SOL    HW2 1687   2.571   1.874   2.370
  560SOL     OW 1688   2.476   1.984   1.979
  560SOL    HW1 1689   2.574   1.962   1.986
  560SOL    HW2 1690   2.445   1.967   1.886
  561SOL     OW 1691   2.401   1.926   2.374
  561SOL    HW1 1692   2.320   1.927   2.432
  561SOL    HW2 1693   2.404   2.009   2.319
  562SOL     OW 1694   2.159   1.897   2.033
  562SOL    HW1 1695   2.208   1.981   2.012
  562SOL    HW2 1696   2.221   1.832   2.078
  563SOL     OW 1697   2.797   2.098   2.342
  563SOL    HW1 1698   2.749   2.139   2.264
  563SOL    HW2 1699   2.896   2.096   2.323
  564SOL     OW 1700   2.389   2.118   2.190
  564SOL    HW1 1701   2.416   2.059   2.115
  564SOL    HW2 1702   2.389   2.213   2.159
  565SOL     OW 1703   2.169   1.925   2.480
  565SOL    HW1 1704   2.158   2.019   2.513
  565SOL    HW2 1705   2.164   1.862   2.557
  566SOL     OW 1706   2.677   2.434   2.187
  566SOL    HW1 1707   2.684   2.345   2.141
  566SOL    HW2 1708   2.583   2.468   2.179
  567SOL     OW 1709   2.335   2.362   2.053
  567SOL    HW1 1710   2.396   2.442   2.057
  567SOL    HW2 1711   2.240   2.393   2.060
  568SOL     OW 1712   1.937   2.207   1.895
  568SOL    HW1 1713   1.845   2.179   1.866
  568SOL    HW2 1714   1.968   2.284   1.839
  569SOL     OW 1715   1.934   2.028   2.180
  569SOL    HW1 1716   1.917   2.111   2.126
  569SOL    HW2 1717   2.024   1.991   2.158
  570SOL     OW 1718   2.290   2.286   2.382
  570SOL    HW1 1719   2.320   2.214   2.320
  570SOL    HW2 1720   2.251   2.246   2.465
   2.58782   2.58782   2.58782
