mobley_2859600_GMX.gro created by acpype (v: 2023.10.27) on Thu May 14 13:57:57 2026
 1999
    1MOL     C1    1   1.251   1.566   1.409
    1MOL     C2    2   1.326   1.563   1.292
    1MOL     C3    3   1.242   1.452   1.489
    1MOL     C4    4   1.391   1.446   1.253
    1MOL     C5    5   1.308   1.335   1.451
    1MOL     C6    6   1.382   1.332   1.333
    1MOL     C7    7   1.501   1.116   1.376
    1MOL     C8    8   1.450   1.209   1.293
    1MOL     H1    9   1.200   1.657   1.439
    1MOL     H2   10   1.333   1.652   1.229
    1MOL     H3   11   1.184   1.454   1.581
    1MOL     H4   12   1.449   1.445   1.161
    1MOL     H5   13   1.300   1.247   1.515
    1MOL     H6   14   1.551   1.027   1.339
    1MOL     H7   15   1.493   1.127   1.484
    1MOL     H8   16   1.463   1.192   1.186
    2SOL     OW   17   0.230   0.628   0.113
    2SOL    HW1   18   0.137   0.626   0.150
    2SOL    HW2   19   0.231   0.589   0.021
    3SOL     OW   20   0.225   0.275   0.996
    3SOL    HW1   21   0.260   0.258   1.088
    3SOL    HW2   22   0.137   0.230   0.984
    4SOL     OW   23   0.019   0.368   0.647
    4SOL    HW1   24  -0.063   0.411   0.686
    4SOL    HW2   25  -0.009   0.295   0.584
    5SOL     OW   26   0.569   1.275   1.165
    5SOL    HW1   27   0.476   1.268   1.128
    5SOL    HW2   28   0.580   1.364   1.209
    6SOL     OW   29   1.555   1.511   0.703
    6SOL    HW1   30   1.498   1.495   0.784
    6SOL    HW2   31   1.496   1.521   0.623
    7SOL     OW   32   1.135   0.703   0.717
    7SOL    HW1   33   1.192   0.781   0.692
    7SOL    HW2   34   1.075   0.729   0.793
    8SOL     OW   35   1.755   0.607   0.231
    8SOL    HW1   36   1.743   0.594   0.132
    8SOL    HW2   37   1.725   0.526   0.280
    9SOL     OW   38   0.768   1.144   1.023
    9SOL    HW1   39   0.690   1.161   1.083
    9SOL    HW2   40   0.802   1.231   0.987
   10SOL     OW   41   0.850   0.798   1.823
   10SOL    HW1   42   0.846   0.874   1.888
   10SOL    HW2   43   0.872   0.834   1.732
   11SOL     OW   44   0.685   1.012   0.665
   11SOL    HW1   45   0.754   0.996   0.735
   11SOL    HW2   46   0.612   1.069   0.703
   12SOL     OW   47   0.686   1.161   1.803
   12SOL    HW1   48   0.746   1.240   1.817
   12SOL    HW2   49   0.600   1.192   1.762
   13SOL     OW   50   0.335   1.435   1.061
   13SOL    HW1   51   0.257   1.404   1.008
   13SOL    HW2   52   0.393   1.493   1.004
   14SOL     OW   53   0.438   0.392   1.499
   14SOL    HW1   54   0.520   0.336   1.508
   14SOL    HW2   55   0.357   0.334   1.503
   15SOL     OW   56   1.603   0.447   0.737
   15SOL    HW1   57   1.529   0.493   0.687
   15SOL    HW2   58   1.654   0.515   0.790
   16SOL     OW   59   0.231   1.713   0.483
   16SOL    HW1   60   0.265   1.790   0.537
   16SOL    HW2   61   0.275   1.713   0.393
   17SOL     OW   62   1.127   1.341   1.690
   17SOL    HW1   63   1.174   1.341   1.778
   17SOL    HW2   64   1.079   1.254   1.679
   18SOL     OW   65   0.230   1.434   0.538
   18SOL    HW1   66   0.204   1.530   0.538
   18SOL    HW2   67   0.159   1.380   0.583
   19SOL     OW   68   0.240   1.091   0.886
   19SOL    HW1   69   0.254   1.007   0.938
   19SOL    HW2   70   0.185   1.155   0.941
   20SOL     OW   71   0.620   1.786   1.439
   20SOL    HW1   72   0.528   1.769   1.474
   20SOL    HW2   73   0.648   1.878   1.465
   21SOL     OW   74   0.606   0.964   0.123
   21SOL    HW1   75   0.613   1.048   0.069
   21SOL    HW2   76   0.652   0.977   0.211
   22SOL     OW   77   1.594   0.114   1.480
   22SOL    HW1   78   1.576   0.181   1.408
   22SOL    HW2   79   1.591   0.160   1.569
   23SOL     OW   80   0.122   0.643   0.563
   23SOL    HW1   81   0.077   0.555   0.580
   23SOL    HW2   82   0.121   0.697   0.647
   24SOL     OW   83   1.842   1.767   0.359
   24SOL    HW1   84   1.896   1.738   0.439
   24SOL    HW2   85   1.872   1.857   0.330
   25SOL     OW   86   0.027   1.596   0.117
   25SOL    HW1   87   0.008   1.500   0.138
   25SOL    HW2   88  -0.006   1.654   0.192
   26SOL     OW   89   1.689   0.922   0.612
   26SOL    HW1   90   1.784   0.893   0.620
   26SOL    HW2   91   1.681   0.987   0.537
   27SOL     OW   92   1.641   1.108   0.432
   27SOL    HW1   93   1.727   1.110   0.380
   27SOL    HW2   94   1.655   1.155   0.520
   28SOL     OW   95   0.113   0.737   1.597
   28SOL    HW1   96   0.201   0.724   1.642
   28SOL    HW2   97   0.100   0.834   1.575
   29SOL     OW   98   0.613   1.365   0.726
   29SOL    HW1   99   0.564   1.278   0.735
   29SOL    HW2  100   0.590   1.408   0.639
   30SOL     OW  101   0.809   0.004   0.502
   30SOL    HW1  102   0.849   0.095   0.493
   30SOL    HW2  103   0.709   0.012   0.508
   31SOL     OW  104   0.197   0.976   1.264
   31SOL    HW1  105   0.286   0.931   1.250
   31SOL    HW2  106   0.124   0.911   1.245
   32SOL     OW  107   1.525   0.999   0.190
   32SOL    HW1  108   1.462   0.923   0.203
   32SOL    HW2  109   1.573   1.017   0.276
   33SOL     OW  110   1.187   1.792   1.616
   33SOL    HW1  111   1.211   1.852   1.540
   33SOL    HW2  112   1.194   1.697   1.586
   34SOL     OW  113   0.317   0.251   1.801
   34SOL    HW1  114   0.388   0.322   1.807
   34SOL    HW2  115   0.229   0.290   1.829
   35SOL     OW  116   1.667   1.714   0.572
   35SOL    HW1  117   1.626   1.691   0.484
   35SOL    HW2  118   1.649   1.640   0.637
   36SOL     OW  119   0.598   0.729   0.270
   36SOL    HW1  120   0.622   0.798   0.202
   36SOL    HW2  121   0.520   0.762   0.324
   37SOL     OW  122   1.281   0.345   0.944
   37SOL    HW1  123   1.195   0.295   0.931
   37SOL    HW2  124   1.343   0.291   1.000
   38SOL     OW  125   1.576   1.662   0.307
   38SOL    HW1  126   1.665   1.708   0.310
   38SOL    HW2  127   1.555   1.638   0.212
   39SOL     OW  128   0.807   0.605   1.465
   39SOL    HW1  129   0.760   0.602   1.554
   39SOL    HW2  130   0.756   0.550   1.399
   40SOL     OW  131   1.394   0.469   1.674
   40SOL    HW1  132   1.374   0.512   1.762
   40SOL    HW2  133   1.472   0.407   1.683
   41SOL     OW  134   0.973   0.890   1.572
   41SOL    HW1  135   1.019   0.806   1.543
   41SOL    HW2  136   0.917   0.924   1.497
   42SOL     OW  137   0.991   0.410   1.242
   42SOL    HW1  138   0.914   0.444   1.296
   42SOL    HW2  139   0.957   0.359   1.163
   43SOL     OW  140   1.041   0.701   0.429
   43SOL    HW1  141   1.067   0.697   0.525
   43SOL    HW2  142   0.956   0.650   0.415
   44SOL     OW  143   0.076   0.811   0.789
   44SOL    HW1  144   0.175   0.799   0.798
   44SOL    HW2  145   0.052   0.906   0.810
   45SOL     OW  146   0.130   1.821   1.571
   45SOL    HW1  147   0.120   1.806   1.670
   45SOL    HW2  148   0.044   1.857   1.535
   46SOL     OW  149   0.865   0.348   0.195
   46SOL    HW1  150   0.924   0.411   0.146
   46SOL    HW2  151   0.884   0.254   0.166
   47SOL     OW  152   1.719   0.585   1.831
   47SOL    HW1  153   1.693   0.674   1.795
   47SOL    HW2  154   1.717   0.517   1.758
   48SOL     OW  155   1.362   1.144   0.545
   48SOL    HW1  156   1.445   1.115   0.497
   48SOL    HW2  157   1.313   1.211   0.489
   49SOL     OW  158   0.550   0.196   0.885
   49SOL    HW1  159   0.545   0.191   0.985
   49SOL    HW2  160   0.552   0.292   0.856
   50SOL     OW  161   1.008   1.456   0.477
   50SOL    HW1  162   0.962   1.528   0.425
   50SOL    HW2  163   1.004   1.476   0.575
   51SOL     OW  164   0.351   1.801   0.853
   51SOL    HW1  165   0.401   1.715   0.859
   51SOL    HW2  166   0.416   1.878   0.850
   52SOL     OW  167   1.795   1.066   0.873
   52SOL    HW1  168   1.733   1.051   0.797
   52SOL    HW2  169   1.743   1.077   0.958
   53SOL     OW  170   0.321   0.943   0.242
   53SOL    HW1  171   0.403   0.982   0.200
   53SOL    HW2  172   0.294   0.861   0.193
   54SOL     OW  173   1.458   0.735   0.728
   54SOL    HW1  174   1.453   0.670   0.803
   54SOL    HW2  175   1.538   0.794   0.741
   55SOL     OW  176   0.461   1.266   1.727
   55SOL    HW1  177   0.411   1.267   1.641
   55SOL    HW2  178   0.398   1.248   1.803
   56SOL     OW  179   1.111   1.776   0.237
   56SOL    HW1  180   1.051   1.714   0.287
   56SOL    HW2  181   1.142   1.732   0.152
   57SOL     OW  182   0.202   0.285   1.498
   57SOL    HW1  183   0.122   0.345   1.485
   57SOL    HW2  184   0.192   0.236   1.584
   58SOL     OW  185   1.632   1.377   0.081
   58SOL    HW1  186   1.600   1.471   0.071
   58SOL    HW2  187   1.556   1.314   0.069
   59SOL     OW  188   0.464   1.743   0.323
   59SOL    HW1  189   0.497   1.782   0.409
   59SOL    HW2  190   0.540   1.736   0.258
   60SOL     OW  191   1.400   0.107   0.426
   60SOL    HW1  192   1.376   0.070   0.336
   60SOL    HW2  193   1.499   0.123   0.430
   61SOL     OW  194   0.249   1.785   1.241
   61SOL    HW1  195   0.306   1.720   1.291
   61SOL    HW2  196   0.233   1.752   1.148
   62SOL     OW  197   0.940   1.698   0.904
   62SOL    HW1  198   1.020   1.641   0.925
   62SOL    HW2  199   0.891   1.658   0.827
   63SOL     OW  200   0.382   0.700   0.480
   63SOL    HW1  201   0.427   0.610   0.477
   63SOL    HW2  202   0.288   0.689   0.513
   64SOL     OW  203   1.547   0.222   1.729
   64SOL    HW1  204   1.542   0.259   1.821
   64SOL    HW2  205   1.475   0.153   1.717
   65SOL     OW  206   0.614   0.122   0.117
   65SOL    HW1  207   0.712   0.100   0.124
   65SOL    HW2  208   0.583   0.105   0.024
   66SOL     OW  209   0.781   0.264   1.749
   66SOL    HW1  210   0.848   0.203   1.792
   66SOL    HW2  211   0.708   0.283   1.814
   67SOL     OW  212   0.888   1.514   1.195
   67SOL    HW1  213   0.865   1.489   1.101
   67SOL    HW2  214   0.949   1.445   1.234
   68SOL     OW  215   1.351   0.590   1.433
   68SOL    HW1  216   1.379   0.547   1.518
   68SOL    HW2  217   1.376   0.686   1.434
   69SOL     OW  218   0.803   1.402   0.924
   69SOL    HW1  219   0.893   1.416   0.882
   69SOL    HW2  220   0.732   1.404   0.853
   70SOL     OW  221   0.922   0.503   0.899
   70SOL    HW1  222   0.897   0.494   0.803
   70SOL    HW2  223   0.970   0.421   0.930
   71SOL     OW  224   0.539   0.064   0.512
   71SOL    HW1  225   0.458   0.065   0.570
   71SOL    HW2  226   0.542   0.147   0.457
   72SOL     OW  227   1.434   1.188   0.041
   72SOL    HW1  228   1.466   1.112   0.098
   72SOL    HW2  229   1.342   1.215   0.071
   73SOL     OW  230   0.297   0.035   0.171
   73SOL    HW1  231   0.346   0.119   0.150
   73SOL    HW2  232   0.359  -0.030   0.216
   74SOL     OW  233   0.935   0.236   0.480
   74SOL    HW1  234   0.887   0.277   0.402
   74SOL    HW2  235   1.034   0.234   0.461
   75SOL     OW  236   1.076   0.683   1.464
   75SOL    HW1  237   0.996   0.622   1.467
   75SOL    HW2  238   1.157   0.630   1.440
   76SOL     OW  239   1.227   1.570   0.793
   76SOL    HW1  240   1.248   1.644   0.728
   76SOL    HW2  241   1.295   1.570   0.866
   77SOL     OW  242   0.459   1.152   0.741
   77SOL    HW1  243   0.388   1.125   0.806
   77SOL    HW2  244   0.433   1.124   0.648
   78SOL     OW  245   1.271   1.797   0.591
   78SOL    HW1  246   1.315   1.861   0.527
   78SOL    HW2  247   1.221   1.849   0.661
   79SOL     OW  248   1.032   0.549   0.016
   79SOL    HW1  249   0.991   0.631  -0.023
   79SOL    HW2  250   1.096   0.575   0.089
   80SOL     OW  251   0.078   0.556   1.386
   80SOL    HW1  252   0.170   0.555   1.345
   80SOL    HW2  253   0.072   0.630   1.453
   81SOL     OW  254   0.561   0.222   1.147
   81SOL    HW1  255   0.599   0.138   1.184
   81SOL    HW2  256   0.473   0.241   1.191
   82SOL     OW  257   0.866   0.454   0.642
   82SOL    HW1  258   0.834   0.526   0.580
   82SOL    HW2  259   0.890   0.373   0.589
   83SOL     OW  260   1.017   0.039   0.753
   83SOL    HW1  261   0.945   0.044   0.684
   83SOL    HW2  262   0.993  -0.030   0.822
   84SOL     OW  263   1.429   1.173   0.867
   84SOL    HW1  264   1.374   1.089   0.860
   84SOL    HW2  265   1.455   1.202   0.775
   85SOL     OW  266   1.466   0.590   0.992
   85SOL    HW1  267   1.436   0.495   0.999
   85SOL    HW2  268   1.539   0.606   1.058
   86SOL     OW  269   1.857   0.833   0.377
   86SOL    HW1  270   1.899   0.769   0.441
   86SOL    HW2  271   1.819   0.782   0.299
   87SOL     OW  272   0.488   1.385   0.174
   87SOL    HW1  273   0.401   1.370   0.221
   87SOL    HW2  274   0.471   1.411   0.079
   88SOL     OW  275   1.664   1.280   0.657
   88SOL    HW1  276   1.763   1.288   0.671
   88SOL    HW2  277   1.619   1.364   0.688
   89SOL     OW  278   1.390   0.575   0.078
   89SOL    HW1  279   1.336   0.554   0.159
   89SOL    HW2  280   1.481   0.534   0.087
   90SOL     OW  281   0.527   0.256   0.328
   90SOL    HW1  282   0.554   0.197   0.253
   90SOL    HW2  283   0.527   0.351   0.297
   91SOL     OW  284   1.754   1.223   1.588
   91SOL    HW1  285   1.845   1.184   1.575
   91SOL    HW2  286   1.762   1.319   1.612
   92SOL     OW  287   1.064   1.347   1.340
   92SOL    HW1  288   0.984   1.324   1.395
   92SOL    HW2  289   1.147   1.321   1.389
   93SOL     OW  290   1.592   1.629   1.625
   93SOL    HW1  291   1.619   1.663   1.535
   93SOL    HW2  292   1.671   1.591   1.671
   94SOL     OW  293   1.111   1.195   1.100
   94SOL    HW1  294   1.071   1.239   1.181
   94SOL    HW2  295   1.070   1.232   1.017
   95SOL     OW  296   1.638   1.099   1.079
   95SOL    HW1  297   1.643   1.180   1.138
   95SOL    HW2  298   1.552   1.101   1.028
   96SOL     OW  299   0.915   0.089   1.402
   96SOL    HW1  300   0.940   0.069   1.307
   96SOL    HW2  301   0.987   0.145   1.444
   97SOL     OW  302   0.980   1.116   1.719
   97SOL    HW1  303   0.881   1.122   1.729
   97SOL    HW2  304   1.003   1.036   1.663
   98SOL     OW  305   0.705   1.050   0.368
   98SOL    HW1  306   0.691   1.057   0.467
   98SOL    HW2  307   0.789   0.999   0.350
   99SOL     OW  308   0.410   0.813   1.251
   99SOL    HW1  309   0.496   0.825   1.301
   99SOL    HW2  310   0.368   0.726   1.278
  100SOL     OW  311   1.274   0.386   1.262
  100SOL    HW1  312   1.295   0.460   1.326
  100SOL    HW2  313   1.185   0.403   1.219
  101SOL     OW  314   0.064   1.564   1.331
  101SOL    HW1  315   0.018   1.646   1.297
  101SOL    HW2  316   0.162   1.583   1.340
  102SOL     OW  317   0.367   1.100   0.501
  102SOL    HW1  318   0.360   1.183   0.445
  102SOL    HW2  319   0.371   1.020   0.441
  103SOL     OW  320   0.566   0.537   0.865
  103SOL    HW1  321   0.578   0.603   0.791
  103SOL    HW2  322   0.612   0.571   0.948
  104SOL     OW  323   1.252   1.348   0.388
  104SOL    HW1  324   1.302   1.425   0.428
  104SOL    HW2  325   1.157   1.350   0.420
  105SOL     OW  326   1.582   0.639   0.472
  105SOL    HW1  327   1.551   0.700   0.545
  105SOL    HW2  328   1.632   0.691   0.403
  106SOL     OW  329   0.354   1.510   1.329
  106SOL    HW1  330   0.333   1.466   1.242
  106SOL    HW2  331   0.451   1.536   1.332
  107SOL     OW  332   0.402   0.751   1.598
  107SOL    HW1  333   0.470   0.806   1.551
  107SOL    HW2  334   0.442   0.663   1.625
  108SOL     OW  335   1.587   0.779   1.670
  108SOL    HW1  336   1.495   0.817   1.665
  108SOL    HW2  337   1.647   0.826   1.605
  109SOL     OW  338   1.013   0.105   1.770
  109SOL    HW1  339   1.019   0.190   1.718
  109SOL    HW2  340   1.045   0.029   1.713
  110SOL     OW  341   0.504   0.050   1.740
  110SOL    HW1  342   0.462  -0.007   1.670
  110SOL    HW2  343   0.438   0.119   1.772
  111SOL     OW  344   0.573   0.870   1.029
  111SOL    HW1  345   0.617   0.959   1.020
  111SOL    HW2  346   0.510   0.870   1.106
  112SOL     OW  347   1.360   0.862   1.045
  112SOL    HW1  348   1.285   0.862   0.979
  112SOL    HW2  349   1.397   0.770   1.054
  113SOL     OW  350   1.209   0.525   0.275
  113SOL    HW1  351   1.222   0.441   0.329
  113SOL    HW2  352   1.180   0.599   0.335
  114SOL     OW  353   0.307   0.213   1.231
  114SOL    HW1  354   0.284   0.250   1.321
  114SOL    HW2  355   0.277   0.118   1.225
  115SOL     OW  356   0.037   1.310   1.282
  115SOL    HW1  357   0.090   1.261   1.350
  115SOL    HW2  358   0.059   1.408   1.287
  116SOL     OW  359   0.732   0.634   1.064
  116SOL    HW1  360   0.791   0.608   0.988
  116SOL    HW2  361   0.704   0.730   1.053
  117SOL     OW  362   1.728   0.935   1.854
  117SOL    HW1  363   1.682   0.928   1.765
  117SOL    HW2  364   1.666   0.979   1.920
  118SOL     OW  365   0.307   0.063   0.618
  118SOL    HW1  366   0.296   0.157   0.651
  118SOL    HW2  367   0.302   0.000   0.695
  119SOL     OW  368   1.622   0.367   0.374
  119SOL    HW1  369   1.624   0.291   0.438
  119SOL    HW2  370   1.574   0.444   0.414
  120SOL     OW  371   1.023   0.766   0.966
  120SOL    HW1  372   1.038   0.787   1.062
  120SOL    HW2  373   0.993   0.671   0.957
  121SOL     OW  374   0.980   1.573   1.700
  121SOL    HW1  375   0.960   1.617   1.612
  121SOL    HW2  376   1.019   1.482   1.684
  122SOL     OW  377   1.859   1.518   1.605
  122SOL    HW1  378   1.873   1.545   1.510
  122SOL    HW2  379   1.942   1.540   1.658
  123SOL     OW  380   0.350   0.898   1.804
  123SOL    HW1  381   0.426   0.942   1.852
  123SOL    HW2  382   0.385   0.851   1.722
  124SOL     OW  383   1.540   0.274   0.125
  124SOL    HW1  384   1.479   0.199   0.148
  124SOL    HW2  385   1.562   0.326   0.208
  125SOL     OW  386   1.303   0.838   0.042
  125SOL    HW1  387   1.337   0.745   0.057
  125SOL    HW2  388   1.321   0.865  -0.053
  126SOL     OW  389   1.068   1.333   0.849
  126SOL    HW1  390   1.075   1.249   0.794
  126SOL    HW2  391   1.130   1.402   0.813
  127SOL     OW  392   0.319   0.810   0.949
  127SOL    HW1  393   0.412   0.846   0.954
  127SOL    HW2  394   0.313   0.725   1.001
  128SOL     OW  395   0.339   0.509   1.006
  128SOL    HW1  396   0.287   0.426   0.989
  128SOL    HW2  397   0.416   0.514   0.942
  129SOL     OW  398   1.138   0.380   1.678
  129SOL    HW1  399   1.093   0.443   1.742
  129SOL    HW2  400   1.231   0.411   1.661
  130SOL     OW  401   1.160   0.207   1.477
  130SOL    HW1  402   1.160   0.271   1.554
  130SOL    HW2  403   1.188   0.255   1.394
  131SOL     OW  404   0.008   1.326   0.200
  131SOL    HW1  405  -0.085   1.347   0.169
  131SOL    HW2  406   0.018   1.227   0.213
  132SOL     OW  407   0.088   1.801   0.927
  132SOL    HW1  408   0.046   1.715   0.900
  132SOL    HW2  409   0.182   1.804   0.893
  133SOL     OW  410   0.504   1.568   0.910
  133SOL    HW1  411   0.570   1.642   0.919
  133SOL    HW2  412   0.548   1.489   0.868
  134SOL     OW  413   1.002   0.796   1.238
  134SOL    HW1  414   1.043   0.764   1.324
  134SOL    HW2  415   0.906   0.769   1.235
  135SOL     OW  416   0.040   0.544   1.114
  135SOL    HW1  417   0.125   0.511   1.073
  135SOL    HW2  418   0.053   0.559   1.212
  136SOL     OW  419   0.189   0.520   1.722
  136SOL    HW1  420   0.248   0.480   1.652
  136SOL    HW2  421   0.131   0.591   1.681
  137SOL     OW  422   1.369   0.950   1.660
  137SOL    HW1  423   1.408   1.039   1.680
  137SOL    HW2  424   1.379   0.930   1.563
  138SOL     OW  425   0.815   0.572   0.325
  138SOL    HW1  426   0.822   0.483   0.279
  138SOL    HW2  427   0.721   0.606   0.317
  139SOL     OW  428   1.657   0.604   1.206
  139SOL    HW1  429   1.619   0.535   1.268
  139SOL    HW2  430   1.739   0.568   1.162
  140SOL     OW  431   0.252   1.564   1.744
  140SOL    HW1  432   0.222   1.621   1.820
  140SOL    HW2  433   0.245   1.467   1.770
  141SOL     OW  434   0.671   0.464   1.269
  141SOL    HW1  435   0.637   0.375   1.239
  141SOL    HW2  436   0.697   0.518   1.189
  142SOL     OW  437   0.930   1.678   1.465
  142SOL    HW1  438   0.906   1.660   1.370
  142SOL    HW2  439   0.960   1.772   1.475
  143SOL     OW  440   0.473   0.500   0.191
  143SOL    HW1  441   0.534   0.580   0.195
  143SOL    HW2  442   0.378   0.531   0.198
  144SOL     OW  443   0.159   1.137   1.466
  144SOL    HW1  444   0.181   1.076   1.542
  144SOL    HW2  445   0.169   1.088   1.380
  145SOL     OW  446   1.347   1.059   1.234
  145SOL    HW1  447   1.371   0.996   1.160
  145SOL    HW2  448   1.257   1.099   1.216
  146SOL     OW  449   1.302   0.855   0.309
  146SOL    HW1  450   1.216   0.824   0.351
  146SOL    HW2  451   1.298   0.841   0.210
  147SOL     OW  452   1.759   1.747   1.154
  147SOL    HW1  453   1.820   1.777   1.081
  147SOL    HW2  454   1.721   1.658   1.132
  148SOL     OW  455   0.083   1.258   1.022
  148SOL    HW1  456   0.078   1.257   1.122
  148SOL    HW2  457   0.000   1.217   0.984
  149SOL     OW  458   0.688   1.662   1.716
  149SOL    HW1  459   0.632   1.743   1.725
  149SOL    HW2  460   0.740   1.666   1.630
  150SOL     OW  461   0.903   0.086   0.133
  150SOL    HW1  462   0.954   0.087   0.047
  150SOL    HW2  463   0.959   0.044   0.204
  151SOL     OW  464   1.726   0.135   0.523
  151SOL    HW1  465   1.799   0.118   0.456
  151SOL    HW2  466   1.695   0.048   0.561
  152SOL     OW  467   1.388   1.573   0.477
  152SOL    HW1  468   1.455   1.585   0.403
  152SOL    HW2  469   1.348   1.662   0.500
  153SOL     OW  470   0.130   1.794   1.851
  153SOL    HW1  471   0.089   1.720   1.904
  153SOL    HW2  472   0.194   1.845   1.909
  154SOL     OW  473   1.280   0.927   0.672
  154SOL    HW1  474   1.340   0.846   0.674
  154SOL    HW2  475   1.320   0.996   0.612
  155SOL     OW  476   0.830   1.273   1.422
  155SOL    HW1  477   0.825   1.306   1.517
  155SOL    HW2  478   0.744   1.292   1.376
  156SOL     OW  479   0.672   1.616   0.154
  156SOL    HW1  480   0.681   1.626   0.055
  156SOL    HW2  481   0.632   1.527   0.175
  157SOL     OW  482   1.650   1.720   1.394
  157SOL    HW1  483   1.703   1.730   1.310
  157SOL    HW2  484   1.623   1.810   1.428
  158SOL     OW  485   1.841   0.175   0.963
  158SOL    HW1  486   1.880   0.090   0.927
  158SOL    HW2  487   1.743   0.177   0.944
  159SOL     OW  488   0.263   0.326   0.720
  159SOL    HW1  489   0.184   0.377   0.686
  159SOL    HW2  490   0.254   0.311   0.818
  160SOL     OW  491   1.194   1.612   0.031
  160SOL    HW1  492   1.200   1.519   0.068
  160SOL    HW2  493   1.135   1.612  -0.049
  161SOL     OW  494   0.822   1.002   1.372
  161SOL    HW1  495   0.862   1.001   1.280
  161SOL    HW2  496   0.832   1.094   1.412
  162SOL     OW  497   0.916   0.910   0.291
  162SOL    HW1  498   0.979   0.948   0.223
  162SOL    HW2  499   0.956   0.827   0.330
  163SOL     OW  500   1.504   1.607   0.044
  163SOL    HW1  501   1.412   1.644   0.051
  163SOL    HW2  502   1.542   1.627  -0.046
  164SOL     OW  503   0.372   1.288   1.490
  164SOL    HW1  504   0.359   1.381   1.456
  164SOL    HW2  505   0.288   1.236   1.477
  165SOL     OW  506   1.039   1.098   0.696
  165SOL    HW1  507   0.969   1.051   0.750
  165SOL    HW2  508   1.098   1.030   0.653
  166SOL     OW  509   1.014   0.236   0.971
  166SOL    HW1  510   1.006   0.200   0.878
  166SOL    HW2  511   1.012   0.160   1.036
  167SOL     OW  512   0.590   1.487   0.491
  167SOL    HW1  513   0.632   1.429   0.421
  167SOL    HW2  514   0.546   1.566   0.447
  168SOL     OW  515   1.709   0.385   1.381
  168SOL    HW1  516   1.782   0.454   1.385
  168SOL    HW2  517   1.737   0.310   1.322
  169SOL     OW  518   0.255   1.348   0.290
  169SOL    HW1  519   0.159   1.349   0.263
  169SOL    HW2  520   0.267   1.401   0.374
  170SOL     OW  521   0.105   1.013   1.726
  170SOL    HW1  522   0.028   0.980   1.780
  170SOL    HW2  523   0.190   0.983   1.768
  171SOL     OW  524   0.672   0.203   1.489
  171SOL    HW1  525   0.762   0.187   1.449
  171SOL    HW2  526   0.680   0.208   1.588
  172SOL     OW  527   0.075   0.345   0.033
  172SOL    HW1  528  -0.017   0.317   0.004
  172SOL    HW2  529   0.106   0.422  -0.023
  173SOL     OW  530   1.440   0.856   1.398
  173SOL    HW1  531   1.383   0.908   1.335
  173SOL    HW2  532   1.536   0.868   1.374
  174SOL     OW  533   0.072   0.166   0.318
  174SOL    HW1  534   0.055   0.249   0.264
  174SOL    HW2  535   0.162   0.129   0.296
  175SOL     OW  536   1.183   1.335   0.119
  175SOL    HW1  537   1.084   1.324   0.121
  175SOL    HW2  538   1.217   1.350   0.212
  176SOL     OW  539   0.613   0.842   1.431
  176SOL    HW1  540   0.669   0.923   1.414
  176SOL    HW2  541   0.672   0.762   1.434
  177SOL     OW  542   1.493   1.767   0.959
  177SOL    HW1  543   1.526   1.831   0.890
  177SOL    HW2  544   1.559   1.761   1.034
  178SOL     OW  545   0.716   0.565   1.708
  178SOL    HW1  546   0.735   0.630   1.782
  178SOL    HW2  547   0.776   0.485   1.717
  179SOL     OW  548   1.450   1.220   1.633
  179SOL    HW1  549   1.441   1.210   1.732
  179SOL    HW2  550   1.546   1.213   1.607
  180SOL     OW  551   0.390   1.741   1.560
  180SOL    HW1  552   0.299   1.782   1.558
  180SOL    HW2  553   0.383   1.647   1.592
  181SOL     OW  554   1.674   0.883   1.254
  181SOL    HW1  555   1.647   0.794   1.217
  181SOL    HW2  556   1.675   0.951   1.181
  182SOL     OW  557   1.225   0.325   0.449
  182SOL    HW1  558   1.290   0.251   0.438
  182SOL    HW2  559   1.245   0.375   0.533
  183SOL     OW  560   0.594   0.745   0.652
  183SOL    HW1  561   0.644   0.830   0.633
  183SOL    HW2  562   0.506   0.747   0.604
  184SOL     OW  563   1.777   0.342   1.642
  184SOL    HW1  564   1.760   0.373   1.548
  184SOL    HW2  565   1.693   0.305   1.680
  185SOL     OW  566   1.730   0.934   1.517
  185SOL    HW1  567   1.768   1.025   1.532
  185SOL    HW2  568   1.722   0.917   1.418
  186SOL     OW  569   0.859   1.374   0.016
  186SOL    HW1  570   0.813   1.389   0.104
  186SOL    HW2  571   0.903   1.459  -0.014
  187SOL     OW  572   0.661   1.790   0.953
  187SOL    HW1  573   0.615   1.878   0.940
  187SOL    HW2  574   0.760   1.802   0.946
  188SOL     OW  575   0.859   0.956   0.861
  188SOL    HW1  576   0.913   0.887   0.909
  188SOL    HW2  577   0.827   1.025   0.927
  189SOL     OW  578   1.083   0.984   0.087
  189SOL    HW1  579   1.060   1.037   0.005
  189SOL    HW2  580   1.164   0.928   0.068
  190SOL     OW  581   1.861   1.569   0.851
  190SOL    HW1  582   1.790   1.557   0.781
  190SOL    HW2  583   1.862   1.490   0.911
  191SOL     OW  584   0.221   1.314   1.844
  191SOL    HW1  585   0.156   1.241   1.823
  191SOL    HW2  586   0.225   1.328   1.942
  192SOL     OW  587   0.079   1.240   0.653
  192SOL    HW1  588   0.078   1.193   0.741
  192SOL    HW2  589   0.161   1.212   0.602
  193SOL     OW  590   0.672   1.391   1.624
  193SOL    HW1  591   0.594   1.341   1.662
  193SOL    HW2  592   0.669   1.486   1.655
  194SOL     OW  593   1.824   0.192   1.227
  194SOL    HW1  594   1.820   0.102   1.271
  194SOL    HW2  595   1.827   0.181   1.128
  195SOL     OW  596   0.428   0.424   0.520
  195SOL    HW1  597   0.458   0.352   0.458
  195SOL    HW2  598   0.389   0.384   0.603
  196SOL     OW  599   1.705   1.487   1.104
  196SOL    HW1  600   1.612   1.462   1.077
  196SOL    HW2  601   1.731   1.437   1.186
  197SOL     OW  602   0.317   0.547   1.280
  197SOL    HW1  603   0.355   0.488   1.352
  197SOL    HW2  604   0.357   0.521   1.192
  198SOL     OW  605   0.812   1.586   0.687
  198SOL    HW1  606   0.844   1.596   0.593
  198SOL    HW2  607   0.733   1.524   0.689
  199SOL     OW  608   1.424   0.214   1.112
  199SOL    HW1  609   1.476   0.149   1.167
  199SOL    HW2  610   1.375   0.277   1.173
  200SOL     OW  611   1.001   0.034   1.154
  200SOL    HW1  612   0.938  -0.038   1.123
  200SOL    HW2  613   1.094  -0.002   1.154
  201SOL     OW  614   0.770   1.330   0.301
  201SOL    HW1  615   0.724   1.243   0.318
  201SOL    HW2  616   0.861   1.327   0.342
  202SOL     OW  617   0.618   1.567   1.284
  202SOL    HW1  618   0.613   1.649   1.341
  202SOL    HW2  619   0.707   1.564   1.239
  203SOL     OW  620   1.352   0.052   0.168
  203SOL    HW1  621   1.387   0.011   0.084
  203SOL    HW2  622   1.262   0.014   0.188
  204SOL     OW  623   1.300   0.453   0.691
  204SOL    HW1  624   1.241   0.533   0.695
  204SOL    HW2  625   1.315   0.418   0.784
  205SOL     OW  626   1.593   0.221   0.882
  205SOL    HW1  627   1.509   0.220   0.936
  205SOL    HW2  628   1.595   0.304   0.826
  206SOL     OW  629   0.039   1.077   0.300
  206SOL    HW1  630   0.138   1.066   0.291
  206SOL    HW2  631  -0.001   0.991   0.332
  207SOL     OW  632   0.875   1.646   0.337
  207SOL    HW1  633   0.798   1.611   0.283
  207SOL    HW2  634   0.843   1.717   0.399
  208SOL     OW  635   0.230   0.628   1.975
  208SOL    HW1  636   0.137   0.626   2.012
  208SOL    HW2  637   0.231   0.589   1.883
  209SOL     OW  638   0.225   0.275   2.858
  209SOL    HW1  639   0.260   0.258   2.950
  209SOL    HW2  640   0.137   0.230   2.846
  210SOL     OW  641   0.019   0.368   2.509
  210SOL    HW1  642  -0.063   0.411   2.548
  210SOL    HW2  643  -0.009   0.295   2.446
  211SOL     OW  644   1.555   1.511   2.565
  211SOL    HW1  645   1.498   1.495   2.646
  211SOL    HW2  646   1.496   1.521   2.485
  212SOL     OW  647   1.135   0.703   2.579
  212SOL    HW1  648   1.192   0.781   2.554
  212SOL    HW2  649   1.075   0.729   2.655
  213SOL     OW  650   1.755   0.607   2.093
  213SOL    HW1  651   1.743   0.594   1.994
  213SOL    HW2  652   1.725   0.526   2.142
  214SOL     OW  653   0.685   1.012   2.527
  214SOL    HW1  654   0.754   0.996   2.597
  214SOL    HW2  655   0.612   1.069   2.565
  215SOL     OW  656   1.603   0.447   2.599
  215SOL    HW1  657   1.529   0.493   2.549
  215SOL    HW2  658   1.654   0.515   2.652
  216SOL     OW  659   0.231   1.713   2.345
  216SOL    HW1  660   0.265   1.790   2.399
  216SOL    HW2  661   0.275   1.713   2.255
  217SOL     OW  662   0.230   1.434   2.400
  217SOL    HW1  663   0.204   1.530   2.400
  217SOL    HW2  664   0.159   1.380   2.445
  218SOL     OW  665   0.240   1.091   2.748
  218SOL    HW1  666   0.254   1.007   2.800
  218SOL    HW2  667   0.185   1.155   2.803
  219SOL     OW  668   0.606   0.964   1.985
  219SOL    HW1  669   0.613   1.048   1.931
  219SOL    HW2  670   0.652   0.977   2.073
  220SOL     OW  671   0.122   0.643   2.425
  220SOL    HW1  672   0.077   0.555   2.442
  220SOL    HW2  673   0.121   0.697   2.509
  221SOL     OW  674   1.842   1.767   2.221
  221SOL    HW1  675   1.896   1.738   2.301
  221SOL    HW2  676   1.872   1.857   2.192
  222SOL     OW  677   0.027   1.596   1.979
  222SOL    HW1  678   0.008   1.500   2.000
  222SOL    HW2  679  -0.006   1.654   2.054
  223SOL     OW  680   1.689   0.922   2.474
  223SOL    HW1  681   1.784   0.893   2.482
  223SOL    HW2  682   1.681   0.987   2.399
  224SOL     OW  683   1.641   1.108   2.294
  224SOL    HW1  684   1.727   1.110   2.242
  224SOL    HW2  685   1.655   1.155   2.382
  225SOL     OW  686   0.613   1.365   2.588
  225SOL    HW1  687   0.564   1.278   2.597
  225SOL    HW2  688   0.590   1.408   2.501
  226SOL     OW  689   0.809   0.004   2.364
  226SOL    HW1  690   0.849   0.095   2.355
  226SOL    HW2  691   0.709   0.012   2.370
  227SOL     OW  692   1.525   0.999   2.052
  227SOL    HW1  693   1.462   0.923   2.065
  227SOL    HW2  694   1.573   1.017   2.138
  228SOL     OW  695   1.667   1.714   2.434
  228SOL    HW1  696   1.626   1.691   2.346
  228SOL    HW2  697   1.649   1.640   2.499
  229SOL     OW  698   0.598   0.729   2.132
  229SOL    HW1  699   0.622   0.798   2.064
  229SOL    HW2  700   0.520   0.762   2.186
  230SOL     OW  701   1.281   0.345   2.806
  230SOL    HW1  702   1.195   0.295   2.793
  230SOL    HW2  703   1.343   0.291   2.862
  231SOL     OW  704   1.576   1.662   2.169
  231SOL    HW1  705   1.665   1.708   2.172
  231SOL    HW2  706   1.555   1.638   2.074
  232SOL     OW  707   1.041   0.701   2.291
  232SOL    HW1  708   1.067   0.697   2.387
  232SOL    HW2  709   0.956   0.650   2.277
  233SOL     OW  710   0.076   0.811   2.651
  233SOL    HW1  711   0.175   0.799   2.660
  233SOL    HW2  712   0.052   0.906   2.672
  234SOL     OW  713   0.865   0.348   2.057
  234SOL    HW1  714   0.924   0.411   2.008
  234SOL    HW2  715   0.884   0.254   2.028
  235SOL     OW  716   1.362   1.144   2.407
  235SOL    HW1  717   1.445   1.115   2.359
  235SOL    HW2  718   1.313   1.211   2.351
  236SOL     OW  719   1.008   1.456   2.339
  236SOL    HW1  720   0.962   1.528   2.287
  236SOL    HW2  721   1.004   1.476   2.437
  237SOL     OW  722   0.351   1.801   2.715
  237SOL    HW1  723   0.401   1.715   2.721
  237SOL    HW2  724   0.416   1.878   2.712
  238SOL     OW  725   1.795   1.066   2.735
  238SOL    HW1  726   1.733   1.051   2.659
  238SOL    HW2  727   1.743   1.077   2.820
  239SOL     OW  728   0.321   0.943   2.104
  239SOL    HW1  729   0.403   0.982   2.062
  239SOL    HW2  730   0.294   0.861   2.055
  240SOL     OW  731   1.458   0.735   2.590
  240SOL    HW1  732   1.453   0.670   2.665
  240SOL    HW2  733   1.538   0.794   2.603
  241SOL     OW  734   1.111   1.776   2.099
  241SOL    HW1  735   1.051   1.714   2.149
  241SOL    HW2  736   1.142   1.732   2.014
  242SOL     OW  737   1.632   1.377   1.943
  242SOL    HW1  738   1.600   1.471   1.933
  242SOL    HW2  739   1.556   1.314   1.931
  243SOL     OW  740   0.464   1.743   2.185
  243SOL    HW1  741   0.497   1.782   2.271
  243SOL    HW2  742   0.540   1.736   2.120
  244SOL     OW  743   1.400   0.107   2.288
  244SOL    HW1  744   1.376   0.070   2.198
  244SOL    HW2  745   1.499   0.123   2.292
  245SOL     OW  746   0.940   1.698   2.766
  245SOL    HW1  747   1.020   1.641   2.787
  245SOL    HW2  748   0.891   1.658   2.689
  246SOL     OW  749   0.382   0.700   2.342
  246SOL    HW1  750   0.427   0.610   2.339
  246SOL    HW2  751   0.288   0.689   2.375
  247SOL     OW  752   0.614   0.122   1.979
  247SOL    HW1  753   0.712   0.100   1.986
  247SOL    HW2  754   0.583   0.105   1.886
  248SOL     OW  755   0.539   0.064   2.374
  248SOL    HW1  756   0.458   0.065   2.432
  248SOL    HW2  757   0.542   0.147   2.319
  249SOL     OW  758   1.434   1.188   1.903
  249SOL    HW1  759   1.466   1.112   1.960
  249SOL    HW2  760   1.342   1.215   1.933
  250SOL     OW  761   0.297   0.035   2.033
  250SOL    HW1  762   0.346   0.119   2.012
  250SOL    HW2  763   0.359  -0.030   2.078
  251SOL     OW  764   0.935   0.236   2.342
  251SOL    HW1  765   0.887   0.277   2.264
  251SOL    HW2  766   1.034   0.234   2.323
  252SOL     OW  767   0.459   1.152   2.603
  252SOL    HW1  768   0.388   1.125   2.668
  252SOL    HW2  769   0.433   1.124   2.510
  253SOL     OW  770   1.271   1.797   2.453
  253SOL    HW1  771   1.315   1.861   2.389
  253SOL    HW2  772   1.221   1.849   2.523
  254SOL     OW  773   1.032   0.549   1.878
  254SOL    HW1  774   0.991   0.631   1.839
  254SOL    HW2  775   1.096   0.575   1.951
  255SOL     OW  776   0.866   0.454   2.504
  255SOL    HW1  777   0.834   0.526   2.442
  255SOL    HW2  778   0.890   0.373   2.451
  256SOL     OW  779   1.017   0.039   2.615
  256SOL    HW1  780   0.945   0.044   2.546
  256SOL    HW2  781   0.993  -0.030   2.684
  257SOL     OW  782   1.857   0.833   2.239
  257SOL    HW1  783   1.899   0.769   2.303
  257SOL    HW2  784   1.819   0.782   2.161
  258SOL     OW  785   0.488   1.385   2.036
  258SOL    HW1  786   0.401   1.370   2.083
  258SOL    HW2  787   0.471   1.411   1.941
  259SOL     OW  788   1.664   1.280   2.519
  259SOL    HW1  789   1.763   1.288   2.533
  259SOL    HW2  790   1.619   1.364   2.550
  260SOL     OW  791   1.390   0.575   1.940
  260SOL    HW1  792   1.336   0.554   2.021
  260SOL    HW2  793   1.481   0.534   1.949
  261SOL     OW  794   0.527   0.256   2.190
  261SOL    HW1  795   0.554   0.197   2.115
  261SOL    HW2  796   0.527   0.351   2.159
  262SOL     OW  797   0.705   1.050   2.230
  262SOL    HW1  798   0.691   1.057   2.329
  262SOL    HW2  799   0.789   0.999   2.212
  263SOL     OW  800   0.367   1.100   2.363
  263SOL    HW1  801   0.360   1.183   2.307
  263SOL    HW2  802   0.371   1.020   2.303
  264SOL     OW  803   0.566   0.537   2.727
  264SOL    HW1  804   0.578   0.603   2.653
  264SOL    HW2  805   0.612   0.571   2.810
  265SOL     OW  806   1.252   1.348   2.250
  265SOL    HW1  807   1.302   1.425   2.290
  265SOL    HW2  808   1.157   1.350   2.282
  266SOL     OW  809   1.582   0.639   2.334
  266SOL    HW1  810   1.551   0.700   2.407
  266SOL    HW2  811   1.632   0.691   2.265
  267SOL     OW  812   1.209   0.525   2.137
  267SOL    HW1  813   1.222   0.441   2.191
  267SOL    HW2  814   1.180   0.599   2.197
  268SOL     OW  815   0.307   0.063   2.480
  268SOL    HW1  816   0.296   0.157   2.513
  268SOL    HW2  817   0.302   0.000   2.557
  269SOL     OW  818   1.622   0.367   2.236
  269SOL    HW1  819   1.624   0.291   2.300
  269SOL    HW2  820   1.574   0.444   2.276
  270SOL     OW  821   1.540   0.274   1.987
  270SOL    HW1  822   1.479   0.199   2.010
  270SOL    HW2  823   1.562   0.326   2.070
  271SOL     OW  824   1.303   0.838   1.904
  271SOL    HW1  825   1.337   0.745   1.919
  271SOL    HW2  826   1.321   0.865   1.809
  272SOL     OW  827   0.008   1.326   2.062
  272SOL    HW1  828  -0.085   1.347   2.031
  272SOL    HW2  829   0.018   1.227   2.075
  273SOL     OW  830   0.815   0.572   2.187
  273SOL    HW1  831   0.822   0.483   2.141
  273SOL    HW2  832   0.721   0.606   2.179
  274SOL     OW  833   0.473   0.500   2.053
  274SOL    HW1  834   0.534   0.580   2.057
  274SOL    HW2  835   0.378   0.531   2.060
  275SOL     OW  836   1.302   0.855   2.171
  275SOL    HW1  837   1.216   0.824   2.213
  275SOL    HW2  838   1.298   0.841   2.072
  276SOL     OW  839   1.726   0.135   2.385
  276SOL    HW1  840   1.799   0.118   2.318
  276SOL    HW2  841   1.695   0.048   2.423
  277SOL     OW  842   1.388   1.573   2.339
  277SOL    HW1  843   1.455   1.585   2.265
  277SOL    HW2  844   1.348   1.662   2.362
  278SOL     OW  845   1.280   0.927   2.534
  278SOL    HW1  846   1.340   0.846   2.536
  278SOL    HW2  847   1.320   0.996   2.474
  279SOL     OW  848   0.672   1.616   2.016
  279SOL    HW1  849   0.681   1.626   1.917
  279SOL    HW2  850   0.632   1.527   2.037
  280SOL     OW  851   1.841   0.175   2.825
  280SOL    HW1  852   1.880   0.090   2.789
  280SOL    HW2  853   1.743   0.177   2.806
  281SOL     OW  854   0.263   0.326   2.582
  281SOL    HW1  855   0.184   0.377   2.548
  281SOL    HW2  856   0.254   0.311   2.680
  282SOL     OW  857   1.194   1.612   1.893
  282SOL    HW1  858   1.200   1.519   1.930
  282SOL    HW2  859   1.135   1.612   1.813
  283SOL     OW  860   0.916   0.910   2.153
  283SOL    HW1  861   0.979   0.948   2.085
  283SOL    HW2  862   0.956   0.827   2.192
  284SOL     OW  863   1.504   1.607   1.906
  284SOL    HW1  864   1.412   1.644   1.913
  284SOL    HW2  865   1.542   1.627   1.816
  285SOL     OW  866   1.039   1.098   2.558
  285SOL    HW1  867   0.969   1.051   2.612
  285SOL    HW2  868   1.098   1.030   2.515
  286SOL     OW  869   0.590   1.487   2.353
  286SOL    HW1  870   0.632   1.429   2.283
  286SOL    HW2  871   0.546   1.566   2.309
  287SOL     OW  872   0.255   1.348   2.152
  287SOL    HW1  873   0.159   1.349   2.125
  287SOL    HW2  874   0.267   1.401   2.236
  288SOL     OW  875   0.075   0.345   1.895
  288SOL    HW1  876  -0.017   0.317   1.866
  288SOL    HW2  877   0.106   0.422   1.839
  289SOL     OW  878   0.072   0.166   2.180
  289SOL    HW1  879   0.055   0.249   2.126
  289SOL    HW2  880   0.162   0.129   2.158
  290SOL     OW  881   1.183   1.335   1.981
  290SOL    HW1  882   1.084   1.324   1.983
  290SOL    HW2  883   1.217   1.350   2.074
  291SOL     OW  884   1.225   0.325   2.311
  291SOL    HW1  885   1.290   0.251   2.300
  291SOL    HW2  886   1.245   0.375   2.395
  292SOL     OW  887   0.594   0.745   2.514
  292SOL    HW1  888   0.644   0.830   2.495
  292SOL    HW2  889   0.506   0.747   2.466
  293SOL     OW  890   0.859   1.374   1.878
  293SOL    HW1  891   0.813   1.389   1.966
  293SOL    HW2  892   0.903   1.459   1.848
  294SOL     OW  893   0.661   1.790   2.815
  294SOL    HW1  894   0.615   1.878   2.802
  294SOL    HW2  895   0.760   1.802   2.808
  295SOL     OW  896   0.859   0.956   2.723
  295SOL    HW1  897   0.913   0.887   2.771
  295SOL    HW2  898   0.827   1.025   2.789
  296SOL     OW  899   1.083   0.984   1.949
  296SOL    HW1  900   1.060   1.037   1.867
  296SOL    HW2  901   1.164   0.928   1.930
  297SOL     OW  902   0.079   1.240   2.515
  297SOL    HW1  903   0.078   1.193   2.603
  297SOL    HW2  904   0.161   1.212   2.464
  298SOL     OW  905   0.428   0.424   2.382
  298SOL    HW1  906   0.458   0.352   2.320
  298SOL    HW2  907   0.389   0.384   2.465
  299SOL     OW  908   1.705   1.487   2.966
  299SOL    HW1  909   1.612   1.462   2.939
  299SOL    HW2  910   1.731   1.437   3.048
  300SOL     OW  911   0.812   1.586   2.549
  300SOL    HW1  912   0.844   1.596   2.455
  300SOL    HW2  913   0.733   1.524   2.551
  301SOL     OW  914   0.770   1.330   2.163
  301SOL    HW1  915   0.724   1.243   2.180
  301SOL    HW2  916   0.861   1.327   2.204
  302SOL     OW  917   1.352   0.052   2.030
  302SOL    HW1  918   1.387   0.011   1.946
  302SOL    HW2  919   1.262   0.014   2.050
  303SOL     OW  920   1.300   0.453   2.553
  303SOL    HW1  921   1.241   0.533   2.557
  303SOL    HW2  922   1.315   0.418   2.646
  304SOL     OW  923   0.039   1.077   2.162
  304SOL    HW1  924   0.138   1.066   2.153
  304SOL    HW2  925  -0.001   0.991   2.194
  305SOL     OW  926   0.875   1.646   2.199
  305SOL    HW1  927   0.798   1.611   2.145
  305SOL    HW2  928   0.843   1.717   2.261
  306SOL     OW  929   0.230   2.490   0.113
  306SOL    HW1  930   0.137   2.488   0.150
  306SOL    HW2  931   0.231   2.451   0.021
  307SOL     OW  932   0.225   2.137   0.996
  307SOL    HW1  933   0.260   2.120   1.088
  307SOL    HW2  934   0.137   2.092   0.984
  308SOL     OW  935   0.019   2.230   0.647
  308SOL    HW1  936  -0.063   2.273   0.686
  308SOL    HW2  937  -0.009   2.157   0.584
  309SOL     OW  938   1.135   2.565   0.717
  309SOL    HW1  939   1.192   2.643   0.692
  309SOL    HW2  940   1.075   2.591   0.793
  310SOL     OW  941   1.755   2.469   0.231
  310SOL    HW1  942   1.743   2.456   0.132
  310SOL    HW2  943   1.725   2.388   0.280
  311SOL     OW  944   0.850   2.660   1.823
  311SOL    HW1  945   0.846   2.736   1.888
  311SOL    HW2  946   0.872   2.696   1.732
  312SOL     OW  947   0.685   2.874   0.665
  312SOL    HW1  948   0.754   2.858   0.735
  312SOL    HW2  949   0.612   2.931   0.703
  313SOL     OW  950   0.438   2.254   1.499
  313SOL    HW1  951   0.520   2.198   1.508
  313SOL    HW2  952   0.357   2.196   1.503
  314SOL     OW  953   1.603   2.309   0.737
  314SOL    HW1  954   1.529   2.355   0.687
  314SOL    HW2  955   1.654   2.377   0.790
  315SOL     OW  956   1.594   1.976   1.480
  315SOL    HW1  957   1.576   2.043   1.408
  315SOL    HW2  958   1.591   2.022   1.569
  316SOL     OW  959   0.122   2.505   0.563
  316SOL    HW1  960   0.077   2.417   0.580
  316SOL    HW2  961   0.121   2.559   0.647
  317SOL     OW  962   0.113   2.599   1.597
  317SOL    HW1  963   0.201   2.586   1.642
  317SOL    HW2  964   0.100   2.696   1.575
  318SOL     OW  965   0.809   1.866   0.502
  318SOL    HW1  966   0.849   1.957   0.493
  318SOL    HW2  967   0.709   1.874   0.508
  319SOL     OW  968   0.317   2.113   1.801
  319SOL    HW1  969   0.388   2.184   1.807
  319SOL    HW2  970   0.229   2.152   1.829
  320SOL     OW  971   0.598   2.591   0.270
  320SOL    HW1  972   0.622   2.660   0.202
  320SOL    HW2  973   0.520   2.624   0.324
  321SOL     OW  974   1.281   2.207   0.944
  321SOL    HW1  975   1.195   2.157   0.931
  321SOL    HW2  976   1.343   2.153   1.000
  322SOL     OW  977   0.807   2.467   1.465
  322SOL    HW1  978   0.760   2.464   1.554
  322SOL    HW2  979   0.756   2.412   1.399
  323SOL     OW  980   1.394   2.331   1.674
  323SOL    HW1  981   1.374   2.374   1.762
  323SOL    HW2  982   1.472   2.269   1.683
  324SOL     OW  983   0.991   2.272   1.242
  324SOL    HW1  984   0.914   2.306   1.296
  324SOL    HW2  985   0.957   2.221   1.163
  325SOL     OW  986   1.041   2.563   0.429
  325SOL    HW1  987   1.067   2.559   0.525
  325SOL    HW2  988   0.956   2.512   0.415
  326SOL     OW  989   0.076   2.673   0.789
  326SOL    HW1  990   0.175   2.661   0.798
  326SOL    HW2  991   0.052   2.768   0.810
  327SOL     OW  992   0.865   2.210   0.195
  327SOL    HW1  993   0.924   2.273   0.146
  327SOL    HW2  994   0.884   2.116   0.166
  328SOL     OW  995   1.719   2.447   1.831
  328SOL    HW1  996   1.693   2.536   1.795
  328SOL    HW2  997   1.717   2.379   1.758
  329SOL     OW  998   0.550   2.058   0.885
  329SOL    HW1  999   0.545   2.053   0.985
  329SOL    HW2 1000   0.552   2.154   0.856
  330SOL     OW 1001   1.458   2.597   0.728
  330SOL    HW1 1002   1.453   2.532   0.803
  330SOL    HW2 1003   1.538   2.656   0.741
  331SOL     OW 1004   0.202   2.147   1.498
  331SOL    HW1 1005   0.122   2.207   1.485
  331SOL    HW2 1006   0.192   2.098   1.584
  332SOL     OW 1007   1.400   1.969   0.426
  332SOL    HW1 1008   1.376   1.932   0.336
  332SOL    HW2 1009   1.499   1.985   0.430
  333SOL     OW 1010   0.382   2.562   0.480
  333SOL    HW1 1011   0.427   2.472   0.477
  333SOL    HW2 1012   0.288   2.551   0.513
  334SOL     OW 1013   1.547   2.084   1.729
  334SOL    HW1 1014   1.542   2.121   1.821
  334SOL    HW2 1015   1.475   2.015   1.717
  335SOL     OW 1016   0.781   2.126   1.749
  335SOL    HW1 1017   0.848   2.065   1.792
  335SOL    HW2 1018   0.708   2.145   1.814
  336SOL     OW 1019   1.351   2.452   1.433
  336SOL    HW1 1020   1.379   2.409   1.518
  336SOL    HW2 1021   1.376   2.548   1.434
  337SOL     OW 1022   0.922   2.365   0.899
  337SOL    HW1 1023   0.897   2.356   0.803
  337SOL    HW2 1024   0.970   2.283   0.930
  338SOL     OW 1025   0.539   1.926   0.512
  338SOL    HW1 1026   0.458   1.927   0.570
  338SOL    HW2 1027   0.542   2.009   0.457
  339SOL     OW 1028   0.297   1.897   0.171
  339SOL    HW1 1029   0.346   1.981   0.150
  339SOL    HW2 1030   0.359   1.832   0.216
  340SOL     OW 1031   0.935   2.098   0.480
  340SOL    HW1 1032   0.887   2.139   0.402
  340SOL    HW2 1033   1.034   2.096   0.461
  341SOL     OW 1034   1.076   2.545   1.464
  341SOL    HW1 1035   0.996   2.484   1.467
  341SOL    HW2 1036   1.157   2.492   1.440
  342SOL     OW 1037   1.032   2.411   0.016
  342SOL    HW1 1038   0.991   2.493  -0.023
  342SOL    HW2 1039   1.096   2.437   0.089
  343SOL     OW 1040   0.078   2.418   1.386
  343SOL    HW1 1041   0.170   2.417   1.345
  343SOL    HW2 1042   0.072   2.492   1.453
  344SOL     OW 1043   0.561   2.084   1.147
  344SOL    HW1 1044   0.599   2.000   1.184
  344SOL    HW2 1045   0.473   2.103   1.191
  345SOL     OW 1046   0.866   2.316   0.642
  345SOL    HW1 1047   0.834   2.388   0.580
  345SOL    HW2 1048   0.890   2.235   0.589
  346SOL     OW 1049   1.017   1.901   0.753
  346SOL    HW1 1050   0.945   1.906   0.684
  346SOL    HW2 1051   0.993   1.832   0.822
  347SOL     OW 1052   1.466   2.452   0.992
  347SOL    HW1 1053   1.436   2.357   0.999
  347SOL    HW2 1054   1.539   2.468   1.058
  348SOL     OW 1055   1.857   2.695   0.377
  348SOL    HW1 1056   1.899   2.631   0.441
  348SOL    HW2 1057   1.819   2.644   0.299
  349SOL     OW 1058   1.390   2.437   0.078
  349SOL    HW1 1059   1.336   2.416   0.159
  349SOL    HW2 1060   1.481   2.396   0.087
  350SOL     OW 1061   0.527   2.118   0.328
  350SOL    HW1 1062   0.554   2.059   0.253
  350SOL    HW2 1063   0.527   2.213   0.297
  351SOL     OW 1064   0.915   1.951   1.402
  351SOL    HW1 1065   0.940   1.931   1.307
  351SOL    HW2 1066   0.987   2.007   1.444
  352SOL     OW 1067   0.705   2.912   0.368
  352SOL    HW1 1068   0.691   2.919   0.467
  352SOL    HW2 1069   0.789   2.861   0.350
  353SOL     OW 1070   0.410   2.675   1.251
  353SOL    HW1 1071   0.496   2.687   1.301
  353SOL    HW2 1072   0.368   2.588   1.278
  354SOL     OW 1073   1.274   2.248   1.262
  354SOL    HW1 1074   1.295   2.322   1.326
  354SOL    HW2 1075   1.185   2.265   1.219
  355SOL     OW 1076   0.566   2.399   0.865
  355SOL    HW1 1077   0.578   2.465   0.791
  355SOL    HW2 1078   0.612   2.433   0.948
  356SOL     OW 1079   1.582   2.501   0.472
  356SOL    HW1 1080   1.551   2.562   0.545
  356SOL    HW2 1081   1.632   2.553   0.403
  357SOL     OW 1082   1.587   2.641   1.670
  357SOL    HW1 1083   1.495   2.679   1.665
  357SOL    HW2 1084   1.647   2.688   1.605
  358SOL     OW 1085   1.013   1.967   1.770
  358SOL    HW1 1086   1.019   2.052   1.718
  358SOL    HW2 1087   1.045   1.891   1.713
  359SOL     OW 1088   0.504   1.912   1.740
  359SOL    HW1 1089   0.462   1.855   1.670
  359SOL    HW2 1090   0.438   1.981   1.772
  360SOL     OW 1091   1.360   2.724   1.045
  360SOL    HW1 1092   1.285   2.724   0.979
  360SOL    HW2 1093   1.397   2.632   1.054
  361SOL     OW 1094   1.209   2.387   0.275
  361SOL    HW1 1095   1.222   2.303   0.329
  361SOL    HW2 1096   1.180   2.461   0.335
  362SOL     OW 1097   0.307   2.075   1.231
  362SOL    HW1 1098   0.284   2.112   1.321
  362SOL    HW2 1099   0.277   1.980   1.225
  363SOL     OW 1100   0.732   2.496   1.064
  363SOL    HW1 1101   0.791   2.470   0.988
  363SOL    HW2 1102   0.704   2.592   1.053
  364SOL     OW 1103   1.728   2.797   1.854
  364SOL    HW1 1104   1.682   2.790   1.765
  364SOL    HW2 1105   1.666   2.841   1.920
  365SOL     OW 1106   0.307   1.925   0.618
  365SOL    HW1 1107   0.296   2.019   0.651
  365SOL    HW2 1108   0.302   1.862   0.695
  366SOL     OW 1109   1.622   2.229   0.374
  366SOL    HW1 1110   1.624   2.153   0.438
  366SOL    HW2 1111   1.574   2.306   0.414
  367SOL     OW 1112   1.540   2.136   0.125
  367SOL    HW1 1113   1.479   2.061   0.148
  367SOL    HW2 1114   1.562   2.188   0.208
  368SOL     OW 1115   0.319   2.672   0.949
  368SOL    HW1 1116   0.412   2.708   0.954
  368SOL    HW2 1117   0.313   2.587   1.001
  369SOL     OW 1118   0.339   2.371   1.006
  369SOL    HW1 1119   0.287   2.288   0.989
  369SOL    HW2 1120   0.416   2.376   0.942
  370SOL     OW 1121   1.138   2.242   1.678
  370SOL    HW1 1122   1.093   2.305   1.742
  370SOL    HW2 1123   1.231   2.273   1.661
  371SOL     OW 1124   1.160   2.069   1.477
  371SOL    HW1 1125   1.160   2.133   1.554
  371SOL    HW2 1126   1.188   2.117   1.394
  372SOL     OW 1127   0.040   2.406   1.114
  372SOL    HW1 1128   0.125   2.373   1.073
  372SOL    HW2 1129   0.053   2.421   1.212
  373SOL     OW 1130   0.189   2.382   1.722
  373SOL    HW1 1131   0.248   2.342   1.652
  373SOL    HW2 1132   0.131   2.453   1.681
  374SOL     OW 1133   0.815   2.434   0.325
  374SOL    HW1 1134   0.822   2.345   0.279
  374SOL    HW2 1135   0.721   2.468   0.317
  375SOL     OW 1136   1.657   2.466   1.206
  375SOL    HW1 1137   1.619   2.397   1.268
  375SOL    HW2 1138   1.739   2.430   1.162
  376SOL     OW 1139   0.671   2.326   1.269
  376SOL    HW1 1140   0.637   2.237   1.239
  376SOL    HW2 1141   0.697   2.380   1.189
  377SOL     OW 1142   0.473   2.362   0.191
  377SOL    HW1 1143   0.534   2.442   0.195
  377SOL    HW2 1144   0.378   2.393   0.198
  378SOL     OW 1145   0.903   1.948   0.133
  378SOL    HW1 1146   0.954   1.949   0.047
  378SOL    HW2 1147   0.959   1.906   0.204
  379SOL     OW 1148   1.726   1.997   0.523
  379SOL    HW1 1149   1.799   1.980   0.456
  379SOL    HW2 1150   1.695   1.910   0.561
  380SOL     OW 1151   1.280   2.789   0.672
  380SOL    HW1 1152   1.340   2.708   0.674
  380SOL    HW2 1153   1.320   2.858   0.612
  381SOL     OW 1154   1.841   2.037   0.963
  381SOL    HW1 1155   1.880   1.952   0.927
  381SOL    HW2 1156   1.743   2.039   0.944
  382SOL     OW 1157   0.263   2.188   0.720
  382SOL    HW1 1158   0.184   2.239   0.686
  382SOL    HW2 1159   0.254   2.173   0.818
  383SOL     OW 1160   1.014   2.098   0.971
  383SOL    HW1 1161   1.006   2.062   0.878
  383SOL    HW2 1162   1.012   2.022   1.036
  384SOL     OW 1163   1.709   2.247   1.381
  384SOL    HW1 1164   1.782   2.316   1.385
  384SOL    HW2 1165   1.737   2.172   1.322
  385SOL     OW 1166   0.105   2.875   1.726
  385SOL    HW1 1167   0.028   2.842   1.780
  385SOL    HW2 1168   0.190   2.845   1.768
  386SOL     OW 1169   0.672   2.065   1.489
  386SOL    HW1 1170   0.762   2.049   1.449
  386SOL    HW2 1171   0.680   2.070   1.588
  387SOL     OW 1172   0.075   2.207   0.033
  387SOL    HW1 1173  -0.017   2.179   0.004
  387SOL    HW2 1174   0.106   2.284  -0.023
  388SOL     OW 1175   1.440   2.718   1.398
  388SOL    HW1 1176   1.383   2.770   1.335
  388SOL    HW2 1177   1.536   2.730   1.374
  389SOL     OW 1178   0.072   2.028   0.318
  389SOL    HW1 1179   0.055   2.111   0.264
  389SOL    HW2 1180   0.162   1.991   0.296
  390SOL     OW 1181   0.613   2.704   1.431
  390SOL    HW1 1182   0.669   2.785   1.414
  390SOL    HW2 1183   0.672   2.624   1.434
  391SOL     OW 1184   0.716   2.427   1.708
  391SOL    HW1 1185   0.735   2.492   1.782
  391SOL    HW2 1186   0.776   2.347   1.717
  392SOL     OW 1187   1.674   2.745   1.254
  392SOL    HW1 1188   1.647   2.656   1.217
  392SOL    HW2 1189   1.675   2.813   1.181
  393SOL     OW 1190   1.225   2.187   0.449
  393SOL    HW1 1191   1.290   2.113   0.438
  393SOL    HW2 1192   1.245   2.237   0.533
  394SOL     OW 1193   0.594   2.607   0.652
  394SOL    HW1 1194   0.644   2.692   0.633
  394SOL    HW2 1195   0.506   2.609   0.604
  395SOL     OW 1196   1.777   2.204   1.642
  395SOL    HW1 1197   1.760   2.235   1.548
  395SOL    HW2 1198   1.693   2.167   1.680
  396SOL     OW 1199   1.824   2.054   1.227
  396SOL    HW1 1200   1.820   1.964   1.271
  396SOL    HW2 1201   1.827   2.043   1.128
  397SOL     OW 1202   0.428   2.286   0.520
  397SOL    HW1 1203   0.458   2.214   0.458
  397SOL    HW2 1204   0.389   2.246   0.603
  398SOL     OW 1205   0.317   2.409   1.280
  398SOL    HW1 1206   0.355   2.350   1.352
  398SOL    HW2 1207   0.357   2.383   1.192
  399SOL     OW 1208   1.424   2.076   1.112
  399SOL    HW1 1209   1.476   2.011   1.167
  399SOL    HW2 1210   1.375   2.139   1.173
  400SOL     OW 1211   1.001   1.896   1.154
  400SOL    HW1 1212   0.938   1.824   1.123
  400SOL    HW2 1213   1.094   1.860   1.154
  401SOL     OW 1214   1.352   1.914   0.168
  401SOL    HW1 1215   1.387   1.873   0.084
  401SOL    HW2 1216   1.262   1.876   0.188
  402SOL     OW 1217   1.300   2.315   0.691
  402SOL    HW1 1218   1.241   2.395   0.695
  402SOL    HW2 1219   1.315   2.280   0.784
  403SOL     OW 1220   1.593   2.083   0.882
  403SOL    HW1 1221   1.509   2.082   0.936
  403SOL    HW2 1222   1.595   2.166   0.826
  404SOL     OW 1223   0.230   2.490   1.975
  404SOL    HW1 1224   0.137   2.488   2.012
  404SOL    HW2 1225   0.231   2.451   1.883
  405SOL     OW 1226   0.225   2.137   2.858
  405SOL    HW1 1227   0.260   2.120   2.950
  405SOL    HW2 1228   0.137   2.092   2.846
  406SOL     OW 1229   0.019   2.230   2.509
  406SOL    HW1 1230  -0.063   2.273   2.548
  406SOL    HW2 1231  -0.009   2.157   2.446
  407SOL     OW 1232   1.135   2.565   2.579
  407SOL    HW1 1233   1.192   2.643   2.554
  407SOL    HW2 1234   1.075   2.591   2.655
  408SOL     OW 1235   1.755   2.469   2.093
  408SOL    HW1 1236   1.743   2.456   1.994
  408SOL    HW2 1237   1.725   2.388   2.142
  409SOL     OW 1238   0.685   2.874   2.527
  409SOL    HW1 1239   0.754   2.858   2.597
  409SOL    HW2 1240   0.612   2.931   2.565
  410SOL     OW 1241   1.603   2.309   2.599
  410SOL    HW1 1242   1.529   2.355   2.549
  410SOL    HW2 1243   1.654   2.377   2.652
  411SOL     OW 1244   0.122   2.505   2.425
  411SOL    HW1 1245   0.077   2.417   2.442
  411SOL    HW2 1246   0.121   2.559   2.509
  412SOL     OW 1247   0.809   1.866   2.364
  412SOL    HW1 1248   0.849   1.957   2.355
  412SOL    HW2 1249   0.709   1.874   2.370
  413SOL     OW 1250   0.598   2.591   2.132
  413SOL    HW1 1251   0.622   2.660   2.064
  413SOL    HW2 1252   0.520   2.624   2.186
  414SOL     OW 1253   1.281   2.207   2.806
  414SOL    HW1 1254   1.195   2.157   2.793
  414SOL    HW2 1255   1.343   2.153   2.862
  415SOL     OW 1256   1.041   2.563   2.291
  415SOL    HW1 1257   1.067   2.559   2.387
  415SOL    HW2 1258   0.956   2.512   2.277
  416SOL     OW 1259   0.076   2.673   2.651
  416SOL    HW1 1260   0.175   2.661   2.660
  416SOL    HW2 1261   0.052   2.768   2.672
  417SOL     OW 1262   0.865   2.210   2.057
  417SOL    HW1 1263   0.924   2.273   2.008
  417SOL    HW2 1264   0.884   2.116   2.028
  418SOL     OW 1265   1.458   2.597   2.590
  418SOL    HW1 1266   1.453   2.532   2.665
  418SOL    HW2 1267   1.538   2.656   2.603
  419SOL     OW 1268   1.400   1.969   2.288
  419SOL    HW1 1269   1.376   1.932   2.198
  419SOL    HW2 1270   1.499   1.985   2.292
  420SOL     OW 1271   0.382   2.562   2.342
  420SOL    HW1 1272   0.427   2.472   2.339
  420SOL    HW2 1273   0.288   2.551   2.375
  421SOL     OW 1274   0.614   1.984   1.979
  421SOL    HW1 1275   0.712   1.962   1.986
  421SOL    HW2 1276   0.583   1.967   1.886
  422SOL     OW 1277   0.539   1.926   2.374
  422SOL    HW1 1278   0.458   1.927   2.432
  422SOL    HW2 1279   0.542   2.009   2.319
  423SOL     OW 1280   0.297   1.897   2.033
  423SOL    HW1 1281   0.346   1.981   2.012
  423SOL    HW2 1282   0.359   1.832   2.078
  424SOL     OW 1283   0.935   2.098   2.342
  424SOL    HW1 1284   0.887   2.139   2.264
  424SOL    HW2 1285   1.034   2.096   2.323
  425SOL     OW 1286   0.459   3.014   2.603
  425SOL    HW1 1287   0.388   2.987   2.668
  425SOL    HW2 1288   0.433   2.986   2.510
  426SOL     OW 1289   1.032   2.411   1.878
  426SOL    HW1 1290   0.991   2.493   1.839
  426SOL    HW2 1291   1.096   2.437   1.951
  427SOL     OW 1292   0.866   2.316   2.504
  427SOL    HW1 1293   0.834   2.388   2.442
  427SOL    HW2 1294   0.890   2.235   2.451
  428SOL     OW 1295   1.017   1.901   2.615
  428SOL    HW1 1296   0.945   1.906   2.546
  428SOL    HW2 1297   0.993   1.832   2.684
  429SOL     OW 1298   1.857   2.695   2.239
  429SOL    HW1 1299   1.899   2.631   2.303
  429SOL    HW2 1300   1.819   2.644   2.161
  430SOL     OW 1301   1.390   2.437   1.940
  430SOL    HW1 1302   1.336   2.416   2.021
  430SOL    HW2 1303   1.481   2.396   1.949
  431SOL     OW 1304   0.527   2.118   2.190
  431SOL    HW1 1305   0.554   2.059   2.115
  431SOL    HW2 1306   0.527   2.213   2.159
  432SOL     OW 1307   0.705   2.912   2.230
  432SOL    HW1 1308   0.691   2.919   2.329
  432SOL    HW2 1309   0.789   2.861   2.212
  433SOL     OW 1310   0.566   2.399   2.727
  433SOL    HW1 1311   0.578   2.465   2.653
  433SOL    HW2 1312   0.612   2.433   2.810
  434SOL     OW 1313   1.582   2.501   2.334
  434SOL    HW1 1314   1.551   2.562   2.407
  434SOL    HW2 1315   1.632   2.553   2.265
  435SOL     OW 1316   1.209   2.387   2.137
  435SOL    HW1 1317   1.222   2.303   2.191
  435SOL    HW2 1318   1.180   2.461   2.197
  436SOL     OW 1319   0.307   1.925   2.480
  436SOL    HW1 1320   0.296   2.019   2.513
  436SOL    HW2 1321   0.302   1.862   2.557
  437SOL     OW 1322   1.622   2.229   2.236
  437SOL    HW1 1323   1.624   2.153   2.300
  437SOL    HW2 1324   1.574   2.306   2.276
  438SOL     OW 1325   1.540   2.136   1.987
  438SOL    HW1 1326   1.479   2.061   2.010
  438SOL    HW2 1327   1.562   2.188   2.070
  439SOL     OW 1328   0.815   2.434   2.187
  439SOL    HW1 1329   0.822   2.345   2.141
  439SOL    HW2 1330   0.721   2.468   2.179
  440SOL     OW 1331   0.473   2.362   2.053
  440SOL    HW1 1332   0.534   2.442   2.057
  440SOL    HW2 1333   0.378   2.393   2.060
  441SOL     OW 1334   1.726   1.997   2.385
  441SOL    HW1 1335   1.799   1.980   2.318
  441SOL    HW2 1336   1.695   1.910   2.423
  442SOL     OW 1337   1.280   2.789   2.534
  442SOL    HW1 1338   1.340   2.708   2.536
  442SOL    HW2 1339   1.320   2.858   2.474
  443SOL     OW 1340   1.841   2.037   2.825
  443SOL    HW1 1341   1.880   1.952   2.789
  443SOL    HW2 1342   1.743   2.039   2.806
  444SOL     OW 1343   0.263   2.188   2.582
  444SOL    HW1 1344   0.184   2.239   2.548
  444SOL    HW2 1345   0.254   2.173   2.680
  445SOL     OW 1346   0.916   2.772   2.153
  445SOL    HW1 1347   0.979   2.810   2.085
  445SOL    HW2 1348   0.956   2.689   2.192
  446SOL     OW 1349   0.075   2.207   1.895
  446SOL    HW1 1350  -0.017   2.179   1.866
  446SOL    HW2 1351   0.106   2.284   1.839
  447SOL     OW 1352   0.072   2.028   2.180
  447SOL    HW1 1353   0.055   2.111   2.126
  447SOL    HW2 1354   0.162   1.991   2.158
  448SOL     OW 1355   1.225   2.187   2.311
  448SOL    HW1 1356   1.290   2.113   2.300
  448SOL    HW2 1357   1.245   2.237   2.395
  449SOL     OW 1358   0.594   2.607   2.514
  449SOL    HW1 1359   0.644   2.692   2.495
  449SOL    HW2 1360   0.506   2.609   2.466
  450SOL     OW 1361   0.428   2.286   2.382
  450SOL    HW1 1362   0.458   2.214   2.320
  450SOL    HW2 1363   0.389   2.246   2.465
  451SOL     OW 1364   1.352   1.914   2.030
  451SOL    HW1 1365   1.387   1.873   1.946
  451SOL    HW2 1366   1.262   1.876   2.050
  452SOL     OW 1367   1.300   2.315   2.553
  452SOL    HW1 1368   1.241   2.395   2.557
  452SOL    HW2 1369   1.315   2.280   2.646
  453SOL     OW 1370   2.092   0.628   0.113
  453SOL    HW1 1371   1.999   0.626   0.150
  453SOL    HW2 1372   2.093   0.589   0.021
  454SOL     OW 1373   2.087   0.275   0.996
  454SOL    HW1 1374   2.122   0.258   1.088
  454SOL    HW2 1375   1.999   0.230   0.984
  455SOL     OW 1376   1.881   0.368   0.647
  455SOL    HW1 1377   1.799   0.411   0.686
  455SOL    HW2 1378   1.853   0.295   0.584
  456SOL     OW 1379   2.431   1.275   1.165
  456SOL    HW1 1380   2.338   1.268   1.128
  456SOL    HW2 1381   2.442   1.364   1.209
  457SOL     OW 1382   2.712   0.798   1.823
  457SOL    HW1 1383   2.708   0.874   1.888
  457SOL    HW2 1384   2.734   0.834   1.732
  458SOL     OW 1385   2.547   1.012   0.665
  458SOL    HW1 1386   2.616   0.996   0.735
  458SOL    HW2 1387   2.474   1.069   0.703
  459SOL     OW 1388   2.548   1.161   1.803
  459SOL    HW1 1389   2.608   1.240   1.817
  459SOL    HW2 1390   2.462   1.192   1.762
  460SOL     OW 1391   2.197   1.435   1.061
  460SOL    HW1 1392   2.119   1.404   1.008
  460SOL    HW2 1393   2.255   1.493   1.004
  461SOL     OW 1394   2.300   0.392   1.499
  461SOL    HW1 1395   2.382   0.336   1.508
  461SOL    HW2 1396   2.219   0.334   1.503
  462SOL     OW 1397   2.093   1.713   0.483
  462SOL    HW1 1398   2.127   1.790   0.537
  462SOL    HW2 1399   2.137   1.713   0.393
  463SOL     OW 1400   2.092   1.434   0.538
  463SOL    HW1 1401   2.066   1.530   0.538
  463SOL    HW2 1402   2.021   1.380   0.583
  464SOL     OW 1403   2.102   1.091   0.886
  464SOL    HW1 1404   2.116   1.007   0.938
  464SOL    HW2 1405   2.047   1.155   0.941
  465SOL     OW 1406   2.482   1.786   1.439
  465SOL    HW1 1407   2.390   1.769   1.474
  465SOL    HW2 1408   2.510   1.878   1.465
  466SOL     OW 1409   2.468   0.964   0.123
  466SOL    HW1 1410   2.475   1.048   0.069
  466SOL    HW2 1411   2.514   0.977   0.211
  467SOL     OW 1412   1.984   0.643   0.563
  467SOL    HW1 1413   1.939   0.555   0.580
  467SOL    HW2 1414   1.983   0.697   0.647
  468SOL     OW 1415   1.889   1.596   0.117
  468SOL    HW1 1416   1.870   1.500   0.138
  468SOL    HW2 1417   1.856   1.654   0.192
  469SOL     OW 1418   1.975   0.737   1.597
  469SOL    HW1 1419   2.063   0.724   1.642
  469SOL    HW2 1420   1.962   0.834   1.575
  470SOL     OW 1421   2.475   1.365   0.726
  470SOL    HW1 1422   2.426   1.278   0.735
  470SOL    HW2 1423   2.452   1.408   0.639
  471SOL     OW 1424   2.671   0.004   0.502
  471SOL    HW1 1425   2.711   0.095   0.493
  471SOL    HW2 1426   2.571   0.012   0.508
  472SOL     OW 1427   2.059   0.976   1.264
  472SOL    HW1 1428   2.148   0.931   1.250
  472SOL    HW2 1429   1.986   0.911   1.245
  473SOL     OW 1430   2.179   0.251   1.801
  473SOL    HW1 1431   2.250   0.322   1.807
  473SOL    HW2 1432   2.091   0.290   1.829
  474SOL     OW 1433   2.460   0.729   0.270
  474SOL    HW1 1434   2.484   0.798   0.202
  474SOL    HW2 1435   2.382   0.762   0.324
  475SOL     OW 1436   1.938   0.811   0.789
  475SOL    HW1 1437   2.037   0.799   0.798
  475SOL    HW2 1438   1.914   0.906   0.810
  476SOL     OW 1439   1.992   1.821   1.571
  476SOL    HW1 1440   1.982   1.806   1.670
  476SOL    HW2 1441   1.906   1.857   1.535
  477SOL     OW 1442   2.412   0.196   0.885
  477SOL    HW1 1443   2.407   0.191   0.985
  477SOL    HW2 1444   2.414   0.292   0.856
  478SOL     OW 1445   2.213   1.801   0.853
  478SOL    HW1 1446   2.263   1.715   0.859
  478SOL    HW2 1447   2.278   1.878   0.850
  479SOL     OW 1448   2.183   0.943   0.242
  479SOL    HW1 1449   2.265   0.982   0.200
  479SOL    HW2 1450   2.156   0.861   0.193
  480SOL     OW 1451   2.323   1.266   1.727
  480SOL    HW1 1452   2.273   1.267   1.641
  480SOL    HW2 1453   2.260   1.248   1.803
  481SOL     OW 1454   2.064   0.285   1.498
  481SOL    HW1 1455   1.984   0.345   1.485
  481SOL    HW2 1456   2.054   0.236   1.584
  482SOL     OW 1457   2.326   1.743   0.323
  482SOL    HW1 1458   2.359   1.782   0.409
  482SOL    HW2 1459   2.402   1.736   0.258
  483SOL     OW 1460   2.111   1.785   1.241
  483SOL    HW1 1461   2.168   1.720   1.291
  483SOL    HW2 1462   2.095   1.752   1.148
  484SOL     OW 1463   2.244   0.700   0.480
  484SOL    HW1 1464   2.289   0.610   0.477
  484SOL    HW2 1465   2.150   0.689   0.513
  485SOL     OW 1466   2.476   0.122   0.117
  485SOL    HW1 1467   2.574   0.100   0.124
  485SOL    HW2 1468   2.445   0.105   0.024
  486SOL     OW 1469   2.665   1.402   0.924
  486SOL    HW1 1470   2.755   1.416   0.882
  486SOL    HW2 1471   2.594   1.404   0.853
  487SOL     OW 1472   2.784   0.503   0.899
  487SOL    HW1 1473   2.759   0.494   0.803
  487SOL    HW2 1474   2.832   0.421   0.930
  488SOL     OW 1475   2.401   0.064   0.512
  488SOL    HW1 1476   2.320   0.065   0.570
  488SOL    HW2 1477   2.404   0.147   0.457
  489SOL     OW 1478   2.159   0.035   0.171
  489SOL    HW1 1479   2.208   0.119   0.150
  489SOL    HW2 1480   2.221  -0.030   0.216
  490SOL     OW 1481   2.321   1.152   0.741
  490SOL    HW1 1482   2.250   1.125   0.806
  490SOL    HW2 1483   2.295   1.124   0.648
  491SOL     OW 1484   1.940   0.556   1.386
  491SOL    HW1 1485   2.032   0.555   1.345
  491SOL    HW2 1486   1.934   0.630   1.453
  492SOL     OW 1487   2.423   0.222   1.147
  492SOL    HW1 1488   2.461   0.138   1.184
  492SOL    HW2 1489   2.335   0.241   1.191
  493SOL     OW 1490   2.350   1.385   0.174
  493SOL    HW1 1491   2.263   1.370   0.221
  493SOL    HW2 1492   2.333   1.411   0.079
  494SOL     OW 1493   2.389   0.256   0.328
  494SOL    HW1 1494   2.416   0.197   0.253
  494SOL    HW2 1495   2.389   0.351   0.297
  495SOL     OW 1496   2.777   0.089   1.402
  495SOL    HW1 1497   2.802   0.069   1.307
  495SOL    HW2 1498   2.849   0.145   1.444
  496SOL     OW 1499   2.272   0.813   1.251
  496SOL    HW1 1500   2.358   0.825   1.301
  496SOL    HW2 1501   2.230   0.726   1.278
  497SOL     OW 1502   1.926   1.564   1.331
  497SOL    HW1 1503   1.880   1.646   1.297
  497SOL    HW2 1504   2.024   1.583   1.340
  498SOL     OW 1505   2.229   1.100   0.501
  498SOL    HW1 1506   2.222   1.183   0.445
  498SOL    HW2 1507   2.233   1.020   0.441
  499SOL     OW 1508   2.428   0.537   0.865
  499SOL    HW1 1509   2.440   0.603   0.791
  499SOL    HW2 1510   2.474   0.571   0.948
  500SOL     OW 1511   2.216   1.510   1.329
  500SOL    HW1 1512   2.195   1.466   1.242
  500SOL    HW2 1513   2.313   1.536   1.332
  501SOL     OW 1514   2.264   0.751   1.598
  501SOL    HW1 1515   2.332   0.806   1.551
  501SOL    HW2 1516   2.304   0.663   1.625
  502SOL     OW 1517   2.366   0.050   1.740
  502SOL    HW1 1518   2.324  -0.007   1.670
  502SOL    HW2 1519   2.300   0.119   1.772
  503SOL     OW 1520   2.435   0.870   1.029
  503SOL    HW1 1521   2.479   0.959   1.020
  503SOL    HW2 1522   2.372   0.870   1.106
  504SOL     OW 1523   2.169   0.213   1.231
  504SOL    HW1 1524   2.146   0.250   1.321
  504SOL    HW2 1525   2.139   0.118   1.225
  505SOL     OW 1526   1.899   1.310   1.282
  505SOL    HW1 1527   1.952   1.261   1.350
  505SOL    HW2 1528   1.921   1.408   1.287
  506SOL     OW 1529   2.594   0.634   1.064
  506SOL    HW1 1530   2.653   0.608   0.988
  506SOL    HW2 1531   2.566   0.730   1.053
  507SOL     OW 1532   2.169   0.063   0.618
  507SOL    HW1 1533   2.158   0.157   0.651
  507SOL    HW2 1534   2.164   0.000   0.695
  508SOL     OW 1535   2.212   0.898   1.804
  508SOL    HW1 1536   2.288   0.942   1.852
  508SOL    HW2 1537   2.247   0.851   1.722
  509SOL     OW 1538   2.930   1.333   0.849
  509SOL    HW1 1539   2.937   1.249   0.794
  509SOL    HW2 1540   2.992   1.402   0.813
  510SOL     OW 1541   2.181   0.810   0.949
  510SOL    HW1 1542   2.274   0.846   0.954
  510SOL    HW2 1543   2.175   0.725   1.001
  511SOL     OW 1544   2.201   0.509   1.006
  511SOL    HW1 1545   2.149   0.426   0.989
  511SOL    HW2 1546   2.278   0.514   0.942
  512SOL     OW 1547   1.870   1.326   0.200
  512SOL    HW1 1548   1.777   1.347   0.169
  512SOL    HW2 1549   1.880   1.227   0.213
  513SOL     OW 1550   1.950   1.801   0.927
  513SOL    HW1 1551   1.908   1.715   0.900
  513SOL    HW2 1552   2.044   1.804   0.893
  514SOL     OW 1553   2.366   1.568   0.910
  514SOL    HW1 1554   2.432   1.642   0.919
  514SOL    HW2 1555   2.410   1.489   0.868
  515SOL     OW 1556   1.902   0.544   1.114
  515SOL    HW1 1557   1.987   0.511   1.073
  515SOL    HW2 1558   1.915   0.559   1.212
  516SOL     OW 1559   2.051   0.520   1.722
  516SOL    HW1 1560   2.110   0.480   1.652
  516SOL    HW2 1561   1.993   0.591   1.681
  517SOL     OW 1562   2.677   0.572   0.325
  517SOL    HW1 1563   2.684   0.483   0.279
  517SOL    HW2 1564   2.583   0.606   0.317
  518SOL     OW 1565   2.114   1.564   1.744
  518SOL    HW1 1566   2.084   1.621   1.820
  518SOL    HW2 1567   2.107   1.467   1.770
  519SOL     OW 1568   2.533   0.464   1.269
  519SOL    HW1 1569   2.499   0.375   1.239
  519SOL    HW2 1570   2.559   0.518   1.189
  520SOL     OW 1571   2.335   0.500   0.191
  520SOL    HW1 1572   2.396   0.580   0.195
  520SOL    HW2 1573   2.240   0.531   0.198
  521SOL     OW 1574   2.021   1.137   1.466
  521SOL    HW1 1575   2.043   1.076   1.542
  521SOL    HW2 1576   2.031   1.088   1.380
  522SOL     OW 1577   1.945   1.258   1.022
  522SOL    HW1 1578   1.940   1.257   1.122
  522SOL    HW2 1579   1.862   1.217   0.984
  523SOL     OW 1580   2.550   1.662   1.716
  523SOL    HW1 1581   2.494   1.743   1.725
  523SOL    HW2 1582   2.602   1.666   1.630
  524SOL     OW 1583   1.992   1.794   1.851
  524SOL    HW1 1584   1.951   1.720   1.904
  524SOL    HW2 1585   2.056   1.845   1.909
  525SOL     OW 1586   2.534   1.616   0.154
  525SOL    HW1 1587   2.543   1.626   0.055
  525SOL    HW2 1588   2.494   1.527   0.175
  526SOL     OW 1589   2.125   0.326   0.720
  526SOL    HW1 1590   2.046   0.377   0.686
  526SOL    HW2 1591   2.116   0.311   0.818
  527SOL     OW 1592   2.684   1.002   1.372
  527SOL    HW1 1593   2.724   1.001   1.280
  527SOL    HW2 1594   2.694   1.094   1.412
  528SOL     OW 1595   2.234   1.288   1.490
  528SOL    HW1 1596   2.221   1.381   1.456
  528SOL    HW2 1597   2.150   1.236   1.477
  529SOL     OW 1598   2.452   1.487   0.491
  529SOL    HW1 1599   2.494   1.429   0.421
  529SOL    HW2 1600   2.408   1.566   0.447
  530SOL     OW 1601   2.117   1.348   0.290
  530SOL    HW1 1602   2.021   1.349   0.263
  530SOL    HW2 1603   2.129   1.401   0.374
  531SOL     OW 1604   1.967   1.013   1.726
  531SOL    HW1 1605   1.890   0.980   1.780
  531SOL    HW2 1606   2.052   0.983   1.768
  532SOL     OW 1607   2.534   0.203   1.489
  532SOL    HW1 1608   2.624   0.187   1.449
  532SOL    HW2 1609   2.542   0.208   1.588
  533SOL     OW 1610   1.937   0.345   0.033
  533SOL    HW1 1611   1.845   0.317   0.004
  533SOL    HW2 1612   1.968   0.422  -0.023
  534SOL     OW 1613   1.934   0.166   0.318
  534SOL    HW1 1614   1.917   0.249   0.264
  534SOL    HW2 1615   2.024   0.129   0.296
  535SOL     OW 1616   2.475   0.842   1.431
  535SOL    HW1 1617   2.531   0.923   1.414
  535SOL    HW2 1618   2.534   0.762   1.434
  536SOL     OW 1619   2.578   0.565   1.708
  536SOL    HW1 1620   2.597   0.630   1.782
  536SOL    HW2 1621   2.638   0.485   1.717
  537SOL     OW 1622   2.252   1.741   1.560
  537SOL    HW1 1623   2.161   1.782   1.558
  537SOL    HW2 1624   2.245   1.647   1.592
  538SOL     OW 1625   2.456   0.745   0.652
  538SOL    HW1 1626   2.506   0.830   0.633
  538SOL    HW2 1627   2.368   0.747   0.604
  539SOL     OW 1628   2.523   1.790   0.953
  539SOL    HW1 1629   2.477   1.878   0.940
  539SOL    HW2 1630   2.622   1.802   0.946
  540SOL     OW 1631   2.083   1.314   1.844
  540SOL    HW1 1632   2.018   1.241   1.823
  540SOL    HW2 1633   2.087   1.328   1.942
  541SOL     OW 1634   1.941   1.240   0.653
  541SOL    HW1 1635   1.940   1.193   0.741
  541SOL    HW2 1636   2.023   1.212   0.602
  542SOL     OW 1637   2.534   1.391   1.624
  542SOL    HW1 1638   2.456   1.341   1.662
  542SOL    HW2 1639   2.531   1.486   1.655
  543SOL     OW 1640   2.290   0.424   0.520
  543SOL    HW1 1641   2.320   0.352   0.458
  543SOL    HW2 1642   2.251   0.384   0.603
  544SOL     OW 1643   2.179   0.547   1.280
  544SOL    HW1 1644   2.217   0.488   1.352
  544SOL    HW2 1645   2.219   0.521   1.192
  545SOL     OW 1646   2.674   1.586   0.687
  545SOL    HW1 1647   2.706   1.596   0.593
  545SOL    HW2 1648   2.595   1.524   0.689
  546SOL     OW 1649   2.863   0.034   1.154
  546SOL    HW1 1650   2.800  -0.038   1.123
  546SOL    HW2 1651   2.956  -0.002   1.154
  547SOL     OW 1652   2.480   1.567   1.284
  547SOL    HW1 1653   2.475   1.649   1.341
  547SOL    HW2 1654   2.569   1.564   1.239
  548SOL     OW 1655   1.901   1.077   0.300
  548SOL    HW1 1656   2.000   1.066   0.291
  548SOL    HW2 1657   1.861   0.991   0.332
  549SOL     OW 1658   2.092   0.628   1.975
  549SOL    HW1 1659   1.999   0.626   2.012
  549SOL    HW2 1660   2.093   0.589   1.883
  550SOL     OW 1661   2.087   0.275   2.858
  550SOL    HW1 1662   2.122   0.258   2.950
  550SOL    HW2 1663   1.999   0.230   2.846
  551SOL     OW 1664   1.881   0.368   2.509
  551SOL    HW1 1665   1.799   0.411   2.548
  551SOL    HW2 1666   1.853   0.295   2.446
  552SOL     OW 1667   2.547   1.012   2.527
  552SOL    HW1 1668   2.616   0.996   2.597
  552SOL    HW2 1669   2.474   1.069   2.565
  553SOL     OW 1670   2.093   1.713   2.345
  553SOL    HW1 1671   2.127   1.790   2.399
  553SOL    HW2 1672   2.137   1.713   2.255
  554SOL     OW 1673   2.092   1.434   2.400
  554SOL    HW1 1674   2.066   1.530   2.400
  554SOL    HW2 1675   2.021   1.380   2.445
  555SOL     OW 1676   2.102   1.091   2.748
  555SOL    HW1 1677   2.116   1.007   2.800
  555SOL    HW2 1678   2.047   1.155   2.803
  556SOL     OW 1679   2.468   0.964   1.985
  556SOL    HW1 1680   2.475   1.048   1.931
  556SOL    HW2 1681   2.514   0.977   2.073
  557SOL     OW 1682   1.984   0.643   2.425
  557SOL    HW1 1683   1.939   0.555   2.442
  557SOL    HW2 1684   1.983   0.697   2.509
  558SOL     OW 1685   1.889   1.596   1.979
  558SOL    HW1 1686   1.870   1.500   2.000
  558SOL    HW2 1687   1.856   1.654   2.054
  559SOL     OW 1688   2.475   1.365   2.588
  559SOL    HW1 1689   2.426   1.278   2.597
  559SOL    HW2 1690   2.452   1.408   2.501
  560SOL     OW 1691   2.671   0.004   2.364
  560SOL    HW1 1692   2.711   0.095   2.355
  560SOL    HW2 1693   2.571   0.012   2.370
  561SOL     OW 1694   2.460   0.729   2.132
  561SOL    HW1 1695   2.484   0.798   2.064
  561SOL    HW2 1696   2.382   0.762   2.186
  562SOL     OW 1697   1.938   0.811   2.651
  562SOL    HW1 1698   2.037   0.799   2.660
  562SOL    HW2 1699   1.914   0.906   2.672
  563SOL     OW 1700   2.213   1.801   2.715
  563SOL    HW1 1701   2.263   1.715   2.721
  563SOL    HW2 1702   2.278   1.878   2.712
  564SOL     OW 1703   2.183   0.943   2.104
  564SOL    HW1 1704   2.265   0.982   2.062
  564SOL    HW2 1705   2.156   0.861   2.055
  565SOL     OW 1706   2.326   1.743   2.185
  565SOL    HW1 1707   2.359   1.782   2.271
  565SOL    HW2 1708   2.402   1.736   2.120
  566SOL     OW 1709   2.244   0.700   2.342
  566SOL    HW1 1710   2.289   0.610   2.339
  566SOL    HW2 1711   2.150   0.689   2.375
  567SOL     OW 1712   2.476   0.122   1.979
  567SOL    HW1 1713   2.574   0.100   1.986
  567SOL    HW2 1714   2.445   0.105   1.886
  568SOL     OW 1715   2.401   0.064   2.374
  568SOL    HW1 1716   2.320   0.065   2.432
  568SOL    HW2 1717   2.404   0.147   2.319
  569SOL     OW 1718   2.159   0.035   2.033
  569SOL    HW1 1719   2.208   0.119   2.012
  569SOL    HW2 1720   2.221  -0.030   2.078
  570SOL     OW 1721   2.321   1.152   2.603
  570SOL    HW1 1722   2.250   1.125   2.668
  570SOL    HW2 1723   2.295   1.124   2.510
  571SOL     OW 1724   2.350   1.385   2.036
  571SOL    HW1 1725   2.263   1.370   2.083
  571SOL    HW2 1726   2.333   1.411   1.941
  572SOL     OW 1727   2.389   0.256   2.190
  572SOL    HW1 1728   2.416   0.197   2.115
  572SOL    HW2 1729   2.389   0.351   2.159
  573SOL     OW 1730   2.229   1.100   2.363
  573SOL    HW1 1731   2.222   1.183   2.307
  573SOL    HW2 1732   2.233   1.020   2.303
  574SOL     OW 1733   2.428   0.537   2.727
  574SOL    HW1 1734   2.440   0.603   2.653
  574SOL    HW2 1735   2.474   0.571   2.810
  575SOL     OW 1736   2.169   0.063   2.480
  575SOL    HW1 1737   2.158   0.157   2.513
  575SOL    HW2 1738   2.164   0.000   2.557
  576SOL     OW 1739   2.930   1.333   2.711
  576SOL    HW1 1740   2.937   1.249   2.656
  576SOL    HW2 1741   2.992   1.402   2.675
  577SOL     OW 1742   1.870   1.326   2.062
  577SOL    HW1 1743   1.777   1.347   2.031
  577SOL    HW2 1744   1.880   1.227   2.075
  578SOL     OW 1745   2.677   0.572   2.187
  578SOL    HW1 1746   2.684   0.483   2.141
  578SOL    HW2 1747   2.583   0.606   2.179
  579SOL     OW 1748   2.335   0.500   2.053
  579SOL    HW1 1749   2.396   0.580   2.057
  579SOL    HW2 1750   2.240   0.531   2.060
  580SOL     OW 1751   2.765   0.086   1.995
  580SOL    HW1 1752   2.816   0.087   1.909
  580SOL    HW2 1753   2.821   0.044   2.066
  581SOL     OW 1754   2.534   1.616   2.016
  581SOL    HW1 1755   2.543   1.626   1.917
  581SOL    HW2 1756   2.494   1.527   2.037
  582SOL     OW 1757   2.125   0.326   2.582
  582SOL    HW1 1758   2.046   0.377   2.548
  582SOL    HW2 1759   2.116   0.311   2.680
  583SOL     OW 1760   2.452   1.487   2.353
  583SOL    HW1 1761   2.494   1.429   2.283
  583SOL    HW2 1762   2.408   1.566   2.309
  584SOL     OW 1763   2.117   1.348   2.152
  584SOL    HW1 1764   2.021   1.349   2.125
  584SOL    HW2 1765   2.129   1.401   2.236
  585SOL     OW 1766   1.937   0.345   1.895
  585SOL    HW1 1767   1.845   0.317   1.866
  585SOL    HW2 1768   1.968   0.422   1.839
  586SOL     OW 1769   1.934   0.166   2.180
  586SOL    HW1 1770   1.917   0.249   2.126
  586SOL    HW2 1771   2.024   0.129   2.158
  587SOL     OW 1772   2.456   0.745   2.514
  587SOL    HW1 1773   2.506   0.830   2.495
  587SOL    HW2 1774   2.368   0.747   2.466
  588SOL     OW 1775   2.523   1.790   2.815
  588SOL    HW1 1776   2.477   1.878   2.802
  588SOL    HW2 1777   2.622   1.802   2.808
  589SOL     OW 1778   1.941   1.240   2.515
  589SOL    HW1 1779   1.940   1.193   2.603
  589SOL    HW2 1780   2.023   1.212   2.464
  590SOL     OW 1781   2.290   0.424   2.382
  590SOL    HW1 1782   2.320   0.352   2.320
  590SOL    HW2 1783   2.251   0.384   2.465
  591SOL     OW 1784   2.674   1.586   2.549
  591SOL    HW1 1785   2.706   1.596   2.455
  591SOL    HW2 1786   2.595   1.524   2.551
  592SOL     OW 1787   1.901   1.077   2.162
  592SOL    HW1 1788   2.000   1.066   2.153
  592SOL    HW2 1789   1.861   0.991   2.194
  593SOL     OW 1790   2.092   2.490   0.113
  593SOL    HW1 1791   1.999   2.488   0.150
  593SOL    HW2 1792   2.093   2.451   0.021
  594SOL     OW 1793   2.087   2.137   0.996
  594SOL    HW1 1794   2.122   2.120   1.088
  594SOL    HW2 1795   1.999   2.092   0.984
  595SOL     OW 1796   1.881   2.230   0.647
  595SOL    HW1 1797   1.799   2.273   0.686
  595SOL    HW2 1798   1.853   2.157   0.584
  596SOL     OW 1799   2.547   2.874   0.665
  596SOL    HW1 1800   2.616   2.858   0.735
  596SOL    HW2 1801   2.474   2.931   0.703
  597SOL     OW 1802   2.300   2.254   1.499
  597SOL    HW1 1803   2.382   2.198   1.508
  597SOL    HW2 1804   2.219   2.196   1.503
  598SOL     OW 1805   1.984   2.505   0.563
  598SOL    HW1 1806   1.939   2.417   0.580
  598SOL    HW2 1807   1.983   2.559   0.647
  599SOL     OW 1808   1.975   2.599   1.597
  599SOL    HW1 1809   2.063   2.586   1.642
  599SOL    HW2 1810   1.962   2.696   1.575
  600SOL     OW 1811   2.671   1.866   0.502
  600SOL    HW1 1812   2.711   1.957   0.493
  600SOL    HW2 1813   2.571   1.874   0.508
  601SOL     OW 1814   2.179   2.113   1.801
  601SOL    HW1 1815   2.250   2.184   1.807
  601SOL    HW2 1816   2.091   2.152   1.829
  602SOL     OW 1817   2.460   2.591   0.270
  602SOL    HW1 1818   2.484   2.660   0.202
  602SOL    HW2 1819   2.382   2.624   0.324
  603SOL     OW 1820   2.412   2.058   0.885
  603SOL    HW1 1821   2.407   2.053   0.985
  603SOL    HW2 1822   2.414   2.154   0.856
  604SOL     OW 1823   2.064   2.147   1.498
  604SOL    HW1 1824   1.984   2.207   1.485
  604SOL    HW2 1825   2.054   2.098   1.584
  605SOL     OW 1826   2.244   2.562   0.480
  605SOL    HW1 1827   2.289   2.472   0.477
  605SOL    HW2 1828   2.150   2.551   0.513
  606SOL     OW 1829   2.784   2.365   0.899
  606SOL    HW1 1830   2.759   2.356   0.803
  606SOL    HW2 1831   2.832   2.283   0.930
  607SOL     OW 1832   2.401   1.926   0.512
  607SOL    HW1 1833   2.320   1.927   0.570
  607SOL    HW2 1834   2.404   2.009   0.457
  608SOL     OW 1835   2.159   1.897   0.171
  608SOL    HW1 1836   2.208   1.981   0.150
  608SOL    HW2 1837   2.221   1.832   0.216
  609SOL     OW 1838   1.940   2.418   1.386
  609SOL    HW1 1839   2.032   2.417   1.345
  609SOL    HW2 1840   1.934   2.492   1.453
  610SOL     OW 1841   2.423   2.084   1.147
  610SOL    HW1 1842   2.461   2.000   1.184
  610SOL    HW2 1843   2.335   2.103   1.191
  611SOL     OW 1844   2.389   2.118   0.328
  611SOL    HW1 1845   2.416   2.059   0.253
  611SOL    HW2 1846   2.389   2.213   0.297
  612SOL     OW 1847   2.777   1.951   1.402
  612SOL    HW1 1848   2.802   1.931   1.307
  612SOL    HW2 1849   2.849   2.007   1.444
  613SOL     OW 1850   2.567   2.912   0.368
  613SOL    HW1 1851   2.553   2.919   0.467
  613SOL    HW2 1852   2.651   2.861   0.350
  614SOL     OW 1853   2.272   2.675   1.251
  614SOL    HW1 1854   2.358   2.687   1.301
  614SOL    HW2 1855   2.230   2.588   1.278
  615SOL     OW 1856   2.428   2.399   0.865
  615SOL    HW1 1857   2.440   2.465   0.791
  615SOL    HW2 1858   2.474   2.433   0.948
  616SOL     OW 1859   2.366   1.912   1.740
  616SOL    HW1 1860   2.324   1.855   1.670
  616SOL    HW2 1861   2.300   1.981   1.772
  617SOL     OW 1862   2.169   2.075   1.231
  617SOL    HW1 1863   2.146   2.112   1.321
  617SOL    HW2 1864   2.139   1.980   1.225
  618SOL     OW 1865   2.594   2.496   1.064
  618SOL    HW1 1866   2.653   2.470   0.988
  618SOL    HW2 1867   2.566   2.592   1.053
  619SOL     OW 1868   2.169   1.925   0.618
  619SOL    HW1 1869   2.158   2.019   0.651
  619SOL    HW2 1870   2.164   1.862   0.695
  620SOL     OW 1871   2.181   2.672   0.949
  620SOL    HW1 1872   2.274   2.708   0.954
  620SOL    HW2 1873   2.175   2.587   1.001
  621SOL     OW 1874   2.201   2.371   1.006
  621SOL    HW1 1875   2.149   2.288   0.989
  621SOL    HW2 1876   2.278   2.376   0.942
  622SOL     OW 1877   1.902   2.406   1.114
  622SOL    HW1 1878   1.987   2.373   1.073
  622SOL    HW2 1879   1.915   2.421   1.212
  623SOL     OW 1880   2.051   2.382   1.722
  623SOL    HW1 1881   2.110   2.342   1.652
  623SOL    HW2 1882   1.993   2.453   1.681
  624SOL     OW 1883   2.677   2.434   0.325
  624SOL    HW1 1884   2.684   2.345   0.279
  624SOL    HW2 1885   2.583   2.468   0.317
  625SOL     OW 1886   2.533   2.326   1.269
  625SOL    HW1 1887   2.499   2.237   1.239
  625SOL    HW2 1888   2.559   2.380   1.189
  626SOL     OW 1889   2.335   2.362   0.191
  626SOL    HW1 1890   2.396   2.442   0.195
  626SOL    HW2 1891   2.240   2.393   0.198
  627SOL     OW 1892   2.765   1.948   0.133
  627SOL    HW1 1893   2.816   1.949   0.047
  627SOL    HW2 1894   2.821   1.906   0.204
  628SOL     OW 1895   2.125   2.188   0.720
  628SOL    HW1 1896   2.046   2.239   0.686
  628SOL    HW2 1897   2.116   2.173   0.818
  629SOL     OW 1898   1.967   2.875   1.726
  629SOL    HW1 1899   1.890   2.842   1.780
  629SOL    HW2 1900   2.052   2.845   1.768
  630SOL     OW 1901   2.534   2.065   1.489
  630SOL    HW1 1902   2.624   2.049   1.449
  630SOL    HW2 1903   2.542   2.070   1.588
  631SOL     OW 1904   1.937   2.207   0.033
  631SOL    HW1 1905   1.845   2.179   0.004
  631SOL    HW2 1906   1.968   2.284  -0.023
  632SOL     OW 1907   1.934   2.028   0.318
  632SOL    HW1 1908   1.917   2.111   0.264
  632SOL    HW2 1909   2.024   1.991   0.296
  633SOL     OW 1910   2.475   2.704   1.431
  633SOL    HW1 1911   2.531   2.785   1.414
  633SOL    HW2 1912   2.534   2.624   1.434
  634SOL     OW 1913   2.578   2.427   1.708
  634SOL    HW1 1914   2.597   2.492   1.782
  634SOL    HW2 1915   2.638   2.347   1.717
  635SOL     OW 1916   2.456   2.607   0.652
  635SOL    HW1 1917   2.506   2.692   0.633
  635SOL    HW2 1918   2.368   2.609   0.604
  636SOL     OW 1919   2.290   2.286   0.520
  636SOL    HW1 1920   2.320   2.214   0.458
  636SOL    HW2 1921   2.251   2.246   0.603
  637SOL     OW 1922   2.179   2.409   1.280
  637SOL    HW1 1923   2.217   2.350   1.352
  637SOL    HW2 1924   2.219   2.383   1.192
  638SOL     OW 1925   2.092   2.490   1.975
  638SOL    HW1 1926   1.999   2.488   2.012
  638SOL    HW2 1927   2.093   2.451   1.883
  639SOL     OW 1928   2.087   2.137   2.858
  639SOL    HW1 1929   2.122   2.120   2.950
  639SOL    HW2 1930   1.999   2.092   2.846
  640SOL     OW 1931   1.881   2.230   2.509
  640SOL    HW1 1932   1.799   2.273   2.548
  640SOL    HW2 1933   1.853   2.157   2.446
  641SOL     OW 1934   2.547   2.874   2.527
  641SOL    HW1 1935   2.616   2.858   2.597
  641SOL    HW2 1936   2.474   2.931   2.565
  642SOL     OW 1937   1.984   2.505   2.425
  642SOL    HW1 1938   1.939   2.417   2.442
  642SOL    HW2 1939   1.983   2.559   2.509
  643SOL     OW 1940   2.671   1.866   2.364
  643SOL    HW1 1941   2.711   1.957   2.355
  643SOL    HW2 1942   2.571   1.874   2.370
  644SOL     OW 1943   2.460   2.591   2.132
  644SOL    HW1 1944   2.484   2.660   2.064
  644SOL    HW2 1945   2.382   2.624   2.186
  645SOL     OW 1946   2.244   2.562   2.342
  645SOL    HW1 1947   2.289   2.472   2.339
  645SOL    HW2 1948   2.150   2.551   2.375
  646SOL     OW 1949   2.476   1.984   1.979
  646SOL    HW1 1950   2.574   1.962   1.986
  646SOL    HW2 1951   2.445   1.967   1.886
  647SOL     OW 1952   2.401   1.926   2.374
  647SOL    HW1 1953   2.320   1.927   2.432
  647SOL    HW2 1954   2.404   2.009   2.319
  648SOL     OW 1955   2.159   1.897   2.033
  648SOL    HW1 1956   2.208   1.981   2.012
  648SOL    HW2 1957   2.221   1.832   2.078
  649SOL     OW 1958   2.321   3.014   2.603
  649SOL    HW1 1959   2.250   2.987   2.668
  649SOL    HW2 1960   2.295   2.986   2.510
  650SOL     OW 1961   2.879   1.901   2.615
  650SOL    HW1 1962   2.807   1.906   2.546
  650SOL    HW2 1963   2.855   1.832   2.684
  651SOL     OW 1964   2.389   2.118   2.190
  651SOL    HW1 1965   2.416   2.059   2.115
  651SOL    HW2 1966   2.389   2.213   2.159
  652SOL     OW 1967   2.567   2.912   2.230
  652SOL    HW1 1968   2.553   2.919   2.329
  652SOL    HW2 1969   2.651   2.861   2.212
  653SOL     OW 1970   2.428   2.399   2.727
  653SOL    HW1 1971   2.440   2.465   2.653
  653SOL    HW2 1972   2.474   2.433   2.810
  654SOL     OW 1973   2.169   1.925   2.480
  654SOL    HW1 1974   2.158   2.019   2.513
  654SOL    HW2 1975   2.164   1.862   2.557
  655SOL     OW 1976   2.677   2.434   2.187
  655SOL    HW1 1977   2.684   2.345   2.141
  655SOL    HW2 1978   2.583   2.468   2.179
  656SOL     OW 1979   2.335   2.362   2.053
  656SOL    HW1 1980   2.396   2.442   2.057
  656SOL    HW2 1981   2.240   2.393   2.060
  657SOL     OW 1982   2.765   1.948   1.995
  657SOL    HW1 1983   2.816   1.949   1.909
  657SOL    HW2 1984   2.821   1.906   2.066
  658SOL     OW 1985   2.125   2.188   2.582
  658SOL    HW1 1986   2.046   2.239   2.548
  658SOL    HW2 1987   2.116   2.173   2.680
  659SOL     OW 1988   1.937   2.207   1.895
  659SOL    HW1 1989   1.845   2.179   1.866
  659SOL    HW2 1990   1.968   2.284   1.839
  660SOL     OW 1991   1.934   2.028   2.180
  660SOL    HW1 1992   1.917   2.111   2.126
  660SOL    HW2 1993   2.024   1.991   2.158
  661SOL     OW 1994   2.456   2.607   2.514
  661SOL    HW1 1995   2.506   2.692   2.495
  661SOL    HW2 1996   2.368   2.609   2.466
  662SOL     OW 1997   2.290   2.286   2.382
  662SOL    HW1 1998   2.320   2.214   2.320
  662SOL    HW2 1999   2.251   2.246   2.465
   2.72808   2.72808   2.72808
