; mobley_2493732_GMX.itp created by acpype (v: 2023.10.27) on Thu May 14 13:29:21 2026

[ atomtypes ]
;name   bond_type     mass     charge   ptype   sigma         epsilon       Amb
 c2       c2          0.00000  0.00000   A     3.31521e-01   4.13379e-01 ; 1.86  0.0988
 cl       cl          0.00000  0.00000   A     3.46595e-01   1.10374e+00 ; 1.95  0.2638
 ha       ha          0.00000  0.00000   A     2.62548e-01   6.73624e-02 ; 1.47  0.0161

[ moleculetype ]
;name            nrexcl
 mobley_2493732   3

[ atoms ]
;   nr  type  resi  res  atom  cgnr     charge      mass       ; qtot   bond_type
     1   c2     1   MOL    C1    1    -0.206000     12.01000 ; qtot -0.206
     2   c2     1   MOL    C2    2     0.074800     12.01000 ; qtot -0.131
     3   cl     1   MOL   CL1    3    -0.076400     35.45000 ; qtot -0.208
     4   cl     1   MOL   CL2    4    -0.076400     35.45000 ; qtot -0.284
     5   ha     1   MOL    H1    5     0.142000      1.00800 ; qtot -0.142
     6   ha     1   MOL    H2    6     0.142000      1.00800 ; qtot 0.000

[ bonds ]
;   ai     aj funct   r             k
     1      2   1    1.3379e-01    3.6484e+05 ;     C1 - C2    
     1      5   1    1.0882e-01    2.9898e+05 ;     C1 - H1    
     1      6   1    1.0882e-01    2.9898e+05 ;     C1 - H2    
     2      3   1    1.7415e-01    1.6405e+05 ;     C2 - CL1   
     2      4   1    1.7415e-01    1.6405e+05 ;     C2 - CL2   

[ pairs ]
;   ai     aj    funct
     5      3      1 ;     H1 - CL1   
     5      4      1 ;     H1 - CL2   
     6      3      1 ;     H2 - CL1   
     6      4      1 ;     H2 - CL2   

[ angles ]
;   ai     aj     ak    funct   theta         cth
     1      2      3      1    1.2318e+02    5.3622e+02 ;     C1 - C2     - CL1   
     1      2      4      1    1.2318e+02    5.3622e+02 ;     C1 - C2     - CL2   
     2      1      5      1    1.2039e+02    3.8802e+02 ;     C2 - C1     - H1    
     2      1      6      1    1.2039e+02    3.8802e+02 ;     C2 - C1     - H2    
     3      2      4      1    1.1438e+02    5.9137e+02 ;    CL1 - C2     - CL2   
     5      1      6      1    1.1666e+02    2.9003e+02 ;     H1 - C1     - H2    

[ dihedrals ] ; propers
; for gromacs 4.5 or higher, using funct 9
;    i      j      k      l   func   phase     kd      pn
     5      1      2      3      9   180.00  27.82360   2 ;     H1-    C1-    C2-   CL1
     5      1      2      4      9   180.00  27.82360   2 ;     H1-    C1-    C2-   CL2
     6      1      2      3      9   180.00  27.82360   2 ;     H2-    C1-    C2-   CL1
     6      1      2      4      9   180.00  27.82360   2 ;     H2-    C1-    C2-   CL2

[ dihedrals ] ; impropers
; treated as propers in GROMACS to use correct AMBER analytical function
;    i      j      k      l   func   phase     kd      pn
     1      3      2      4      4   180.00   4.60240   2 ;     C1-   CL1-    C2-   CL2
     6      1      5      2      4   180.00   4.60240   2 ;     H2-    C1-    H1-    C2
