; mobley_5852491_GMX.itp created by acpype (v: 2023.10.27) on Thu May 14 13:39:33 2026

[ atomtypes ]
;name   bond_type     mass     charge   ptype   sigma         epsilon       Amb
 c5       c5          0.00000  0.00000   A     3.39771e-01   4.51035e-01 ; 1.91  0.1078
 c3       c3          0.00000  0.00000   A     3.39771e-01   4.51035e-01 ; 1.91  0.1078
 hc       hc          0.00000  0.00000   A     2.60018e-01   8.70272e-02 ; 1.46  0.0208

[ moleculetype ]
;name            nrexcl
 mobley_5852491   3

[ atoms ]
;   nr  type  resi  res  atom  cgnr     charge      mass       ; qtot   bond_type
     1   c5     1   MOL    C1    1    -0.078400     12.01000 ; qtot -0.078
     2   c5     1   MOL    C2    2    -0.078400     12.01000 ; qtot -0.157
     3   c5     1   MOL    C3    3    -0.076400     12.01000 ; qtot -0.233
     4   c5     1   MOL    C4    4    -0.076400     12.01000 ; qtot -0.310
     5   c5     1   MOL    C5    5    -0.067700     12.01000 ; qtot -0.377
     6   c3     1   MOL    C6    6    -0.088101     12.01000 ; qtot -0.465
     7   hc     1   MOL    H1    7     0.039200      1.00800 ; qtot -0.426
     8   hc     1   MOL    H2    8     0.039200      1.00800 ; qtot -0.387
     9   hc     1   MOL    H3    9     0.039200      1.00800 ; qtot -0.348
    10   hc     1   MOL    H4   10     0.039200      1.00800 ; qtot -0.309
    11   hc     1   MOL    H5   11     0.040700      1.00800 ; qtot -0.268
    12   hc     1   MOL    H6   12     0.040700      1.00800 ; qtot -0.227
    13   hc     1   MOL    H7   13     0.040700      1.00800 ; qtot -0.187
    14   hc     1   MOL    H8   14     0.040700      1.00800 ; qtot -0.146
    15   hc     1   MOL    H9   15     0.045700      1.00800 ; qtot -0.100
    16   hc     1   MOL   H10   16     0.033367      1.00800 ; qtot -0.067
    17   hc     1   MOL   H11   17     0.033367      1.00800 ; qtot -0.033
    18   hc     1   MOL   H12   18     0.033367      1.00800 ; qtot 0.000

[ bonds ]
;   ai     aj funct   r             k
     1      2   1    1.5483e-01    1.8418e+05 ;     C1 - C2    
     1      3   1    1.5483e-01    1.8418e+05 ;     C1 - C3    
     1      7   1    1.0954e-01    2.8989e+05 ;     C1 - H1    
     1      8   1    1.0954e-01    2.8989e+05 ;     C1 - H2    
     2      4   1    1.5483e-01    1.8418e+05 ;     C2 - C4    
     2      9   1    1.0954e-01    2.8989e+05 ;     C2 - H3    
     2     10   1    1.0954e-01    2.8989e+05 ;     C2 - H4    
     3      5   1    1.5483e-01    1.8418e+05 ;     C3 - C5    
     3     11   1    1.0954e-01    2.8989e+05 ;     C3 - H5    
     3     12   1    1.0954e-01    2.8989e+05 ;     C3 - H6    
     4      5   1    1.5483e-01    1.8418e+05 ;     C4 - C5    
     4     13   1    1.0954e-01    2.8989e+05 ;     C4 - H7    
     4     14   1    1.0954e-01    2.8989e+05 ;     C4 - H8    
     5      6   1    1.5372e-01    1.9049e+05 ;     C5 - C6    
     5     15   1    1.0954e-01    2.8989e+05 ;     C5 - H9    
     6     16   1    1.0962e-01    2.8891e+05 ;     C6 - H10   
     6     17   1    1.0962e-01    2.8891e+05 ;     C6 - H11   
     6     18   1    1.0962e-01    2.8891e+05 ;     C6 - H12   

[ pairs ]
;   ai     aj    funct
     1      6      1 ;     C1 - C6    
     1     13      1 ;     C1 - H7    
     1     14      1 ;     C1 - H8    
     1     15      1 ;     C1 - H9    
     2      6      1 ;     C2 - C6    
     2     11      1 ;     C2 - H5    
     2     12      1 ;     C2 - H6    
     2     15      1 ;     C2 - H9    
     3      9      1 ;     C3 - H3    
     3     10      1 ;     C3 - H4    
     3     13      1 ;     C3 - H7    
     3     14      1 ;     C3 - H8    
     3     16      1 ;     C3 - H10   
     3     17      1 ;     C3 - H11   
     3     18      1 ;     C3 - H12   
     4     11      1 ;     C4 - H5    
     4     12      1 ;     C4 - H6    
     4     16      1 ;     C4 - H10   
     4     17      1 ;     C4 - H11   
     4     18      1 ;     C4 - H12   
     5      9      1 ;     C5 - H3    
     5     10      1 ;     C5 - H4    
     6     11      1 ;     C6 - H5    
     6     12      1 ;     C6 - H6    
     6     13      1 ;     C6 - H7    
     6     14      1 ;     C6 - H8    
     7      4      1 ;     H1 - C4    
     7      5      1 ;     H1 - C5    
     7      9      1 ;     H1 - H3    
     7     10      1 ;     H1 - H4    
     7     11      1 ;     H1 - H5    
     7     12      1 ;     H1 - H6    
     8      4      1 ;     H2 - C4    
     8      5      1 ;     H2 - C5    
     8      9      1 ;     H2 - H3    
     8     10      1 ;     H2 - H4    
     8     11      1 ;     H2 - H5    
     8     12      1 ;     H2 - H6    
     9     13      1 ;     H3 - H7    
     9     14      1 ;     H3 - H8    
    10     13      1 ;     H4 - H7    
    10     14      1 ;     H4 - H8    
    11     15      1 ;     H5 - H9    
    12     15      1 ;     H6 - H9    
    13     15      1 ;     H7 - H9    
    14     15      1 ;     H8 - H9    
    15     16      1 ;     H9 - H10   
    15     17      1 ;     H9 - H11   
    15     18      1 ;     H9 - H12   

[ angles ]
;   ai     aj     ak    funct   theta         cth
     1      2      4      1    1.0383e+02    5.1748e+02 ;     C1 - C2     - C4    
     1      2      9      1    1.1117e+02    3.5690e+02 ;     C1 - C2     - H3    
     1      2     10      1    1.1117e+02    3.5690e+02 ;     C1 - C2     - H4    
     1      3      5      1    1.0383e+02    5.1748e+02 ;     C1 - C3     - C5    
     1      3     11      1    1.1117e+02    3.5690e+02 ;     C1 - C3     - H5    
     1      3     12      1    1.1117e+02    3.5690e+02 ;     C1 - C3     - H6    
     2      1      3      1    1.0383e+02    5.1748e+02 ;     C2 - C1     - C3    
     2      1      7      1    1.1117e+02    3.5690e+02 ;     C2 - C1     - H1    
     2      1      8      1    1.1117e+02    3.5690e+02 ;     C2 - C1     - H2    
     2      4      5      1    1.0383e+02    5.1748e+02 ;     C2 - C4     - C5    
     2      4     13      1    1.1117e+02    3.5690e+02 ;     C2 - C4     - H7    
     2      4     14      1    1.1117e+02    3.5690e+02 ;     C2 - C4     - H8    
     3      1      7      1    1.1117e+02    3.5690e+02 ;     C3 - C1     - H1    
     3      1      8      1    1.1117e+02    3.5690e+02 ;     C3 - C1     - H2    
     3      5      4      1    1.0383e+02    5.1748e+02 ;     C3 - C5     - C4    
     3      5      6      1    1.1360e+02    4.9647e+02 ;     C3 - C5     - C6    
     3      5     15      1    1.1117e+02    3.5690e+02 ;     C3 - C5     - H9    
     4      2      9      1    1.1117e+02    3.5690e+02 ;     C4 - C2     - H3    
     4      2     10      1    1.1117e+02    3.5690e+02 ;     C4 - C2     - H4    
     4      5      6      1    1.1360e+02    4.9647e+02 ;     C4 - C5     - C6    
     4      5     15      1    1.1117e+02    3.5690e+02 ;     C4 - C5     - H9    
     5      3     11      1    1.1117e+02    3.5690e+02 ;     C5 - C3     - H5    
     5      3     12      1    1.1117e+02    3.5690e+02 ;     C5 - C3     - H6    
     5      4     13      1    1.1117e+02    3.5690e+02 ;     C5 - C4     - H7    
     5      4     14      1    1.1117e+02    3.5690e+02 ;     C5 - C4     - H8    
     5      6     16      1    1.1053e+02    3.6033e+02 ;     C5 - C6     - H10   
     5      6     17      1    1.1053e+02    3.6033e+02 ;     C5 - C6     - H11   
     5      6     18      1    1.1053e+02    3.6033e+02 ;     C5 - C6     - H12   
     6      5     15      1    1.0779e+02    3.6484e+02 ;     C6 - C5     - H9    
     7      1      8      1    1.0722e+02    3.0049e+02 ;     H1 - C1     - H2    
     9      2     10      1    1.0722e+02    3.0049e+02 ;     H3 - C2     - H4    
    11      3     12      1    1.0722e+02    3.0049e+02 ;     H5 - C3     - H6    
    13      4     14      1    1.0722e+02    3.0049e+02 ;     H7 - C4     - H8    
    16      6     17      1    1.0773e+02    2.9957e+02 ;    H10 - C6     - H11   
    16      6     18      1    1.0773e+02    2.9957e+02 ;    H10 - C6     - H12   
    17      6     18      1    1.0773e+02    2.9957e+02 ;    H11 - C6     - H12   

[ dihedrals ] ; propers
; for gromacs 4.5 or higher, using funct 9
;    i      j      k      l   func   phase     kd      pn
     1      2      4      5      9     0.00   2.17568   3 ;     C1-    C2-    C4-    C5
     1      2      4     13      9     0.00   0.54392   3 ;     C1-    C2-    C4-    H7
     1      2      4     14      9     0.00   0.54392   3 ;     C1-    C2-    C4-    H8
     1      3      5      4      9     0.00   2.17568   3 ;     C1-    C3-    C5-    C4
     1      3      5      6      9     0.00   2.17568   3 ;     C1-    C3-    C5-    C6
     1      3      5     15      9     0.00   0.54392   3 ;     C1-    C3-    C5-    H9
     2      1      3      5      9     0.00   2.17568   3 ;     C2-    C1-    C3-    C5
     2      1      3     11      9     0.00   0.54392   3 ;     C2-    C1-    C3-    H5
     2      1      3     12      9     0.00   0.54392   3 ;     C2-    C1-    C3-    H6
     2      4      5      3      9     0.00   2.17568   3 ;     C2-    C4-    C5-    C3
     2      4      5      6      9     0.00   2.17568   3 ;     C2-    C4-    C5-    C6
     2      4      5     15      9     0.00   0.54392   3 ;     C2-    C4-    C5-    H9
     3      1      2      4      9     0.00   2.17568   3 ;     C3-    C1-    C2-    C4
     3      1      2      9      9     0.00   0.54392   3 ;     C3-    C1-    C2-    H3
     3      1      2     10      9     0.00   0.54392   3 ;     C3-    C1-    C2-    H4
     3      5      4     13      9     0.00   0.54392   3 ;     C3-    C5-    C4-    H7
     3      5      4     14      9     0.00   0.54392   3 ;     C3-    C5-    C4-    H8
     3      5      6     16      9     0.00   0.54392   3 ;     C3-    C5-    C6-   H10
     3      5      6     17      9     0.00   0.54392   3 ;     C3-    C5-    C6-   H11
     3      5      6     18      9     0.00   0.54392   3 ;     C3-    C5-    C6-   H12
     4      5      3     11      9     0.00   0.54392   3 ;     C4-    C5-    C3-    H5
     4      5      3     12      9     0.00   0.54392   3 ;     C4-    C5-    C3-    H6
     4      5      6     16      9     0.00   0.54392   3 ;     C4-    C5-    C6-   H10
     4      5      6     17      9     0.00   0.54392   3 ;     C4-    C5-    C6-   H11
     4      5      6     18      9     0.00   0.54392   3 ;     C4-    C5-    C6-   H12
     5      4      2      9      9     0.00   0.54392   3 ;     C5-    C4-    C2-    H3
     5      4      2     10      9     0.00   0.54392   3 ;     C5-    C4-    C2-    H4
     6      5      3     11      9     0.00   0.54392   3 ;     C6-    C5-    C3-    H5
     6      5      3     12      9     0.00   0.54392   3 ;     C6-    C5-    C3-    H6
     6      5      4     13      9     0.00   0.54392   3 ;     C6-    C5-    C4-    H7
     6      5      4     14      9     0.00   0.54392   3 ;     C6-    C5-    C4-    H8
     7      1      2      4      9     0.00   0.54392   3 ;     H1-    C1-    C2-    C4
     7      1      2      9      9     0.00   0.50208   3 ;     H1-    C1-    C2-    H3
     7      1      2     10      9     0.00   0.50208   3 ;     H1-    C1-    C2-    H4
     7      1      3      5      9     0.00   0.54392   3 ;     H1-    C1-    C3-    C5
     7      1      3     11      9     0.00   0.50208   3 ;     H1-    C1-    C3-    H5
     7      1      3     12      9     0.00   0.50208   3 ;     H1-    C1-    C3-    H6
     8      1      2      4      9     0.00   0.54392   3 ;     H2-    C1-    C2-    C4
     8      1      2      9      9     0.00   0.50208   3 ;     H2-    C1-    C2-    H3
     8      1      2     10      9     0.00   0.50208   3 ;     H2-    C1-    C2-    H4
     8      1      3      5      9     0.00   0.54392   3 ;     H2-    C1-    C3-    C5
     8      1      3     11      9     0.00   0.50208   3 ;     H2-    C1-    C3-    H5
     8      1      3     12      9     0.00   0.50208   3 ;     H2-    C1-    C3-    H6
     9      2      4     13      9     0.00   0.50208   3 ;     H3-    C2-    C4-    H7
     9      2      4     14      9     0.00   0.50208   3 ;     H3-    C2-    C4-    H8
    10      2      4     13      9     0.00   0.50208   3 ;     H4-    C2-    C4-    H7
    10      2      4     14      9     0.00   0.50208   3 ;     H4-    C2-    C4-    H8
    11      3      5     15      9     0.00   0.50208   3 ;     H5-    C3-    C5-    H9
    12      3      5     15      9     0.00   0.50208   3 ;     H6-    C3-    C5-    H9
    13      4      5     15      9     0.00   0.50208   3 ;     H7-    C4-    C5-    H9
    14      4      5     15      9     0.00   0.50208   3 ;     H8-    C4-    C5-    H9
    15      5      6     16      9     0.00   0.50208   3 ;     H9-    C5-    C6-   H10
    15      5      6     17      9     0.00   0.50208   3 ;     H9-    C5-    C6-   H11
    15      5      6     18      9     0.00   0.50208   3 ;     H9-    C5-    C6-   H12
