; mobley_6854178_GMX.itp created by acpype (v: 2023.10.27) on Thu May 14 13:53:21 2026

[ atomtypes ]
;name   bond_type     mass     charge   ptype   sigma         epsilon       Amb
 c        c           0.00000  0.00000   A     3.31521e-01   4.13379e-01 ; 1.86  0.0988
 c3       c3          0.00000  0.00000   A     3.39771e-01   4.51035e-01 ; 1.91  0.1078
 o        o           0.00000  0.00000   A     3.04812e-01   6.12119e-01 ; 1.71  0.1463
 os       os          0.00000  0.00000   A     3.15610e-01   3.03758e-01 ; 1.77  0.0726
 h5       h5          0.00000  0.00000   A     2.44730e-01   6.73624e-02 ; 1.37  0.0161
 hc       hc          0.00000  0.00000   A     2.60018e-01   8.70272e-02 ; 1.46  0.0208
 h1       h1          0.00000  0.00000   A     2.42200e-01   8.70272e-02 ; 1.36  0.0208

[ moleculetype ]
;name            nrexcl
 mobley_6854178   3

[ atoms ]
;   nr  type  resi  res  atom  cgnr     charge      mass       ; qtot   bond_type
     1    c     1   MOL    C1    1     0.629900     12.01000 ; qtot 0.630
     2   c3     1   MOL    C2    2    -0.108100     12.01000 ; qtot 0.522
     3   c3     1   MOL    C3    3    -0.108100     12.01000 ; qtot 0.414
     4   c3     1   MOL    C4    4     0.145100     12.01000 ; qtot 0.559
     5    o     1   MOL    O1    5    -0.544000     16.00000 ; qtot 0.015
     6   os     1   MOL    O2    6    -0.449900     16.00000 ; qtot -0.435
     7   h5     1   MOL    H1    7     0.077200      1.00800 ; qtot -0.358
     8   hc     1   MOL    H2    8     0.048200      1.00800 ; qtot -0.310
     9   hc     1   MOL    H3    9     0.048200      1.00800 ; qtot -0.261
    10   hc     1   MOL    H4   10     0.048200      1.00800 ; qtot -0.213
    11   hc     1   MOL    H5   11     0.048200      1.00800 ; qtot -0.165
    12   hc     1   MOL    H6   12     0.048200      1.00800 ; qtot -0.117
    13   hc     1   MOL    H7   13     0.048200      1.00800 ; qtot -0.069
    14   h1     1   MOL    H8   14     0.068700      1.00800 ; qtot 0.000

[ bonds ]
;   ai     aj funct   r             k
     1      5   1    1.2190e-01    4.9421e+05 ;     C1 - O1    
     1      6   1    1.3621e-01    2.9398e+05 ;     C1 - O2    
     1      7   1    1.1053e-01    2.7793e+05 ;     C1 - H1    
     2      4   1    1.5354e-01    1.9154e+05 ;     C2 - C4    
     2      8   1    1.0962e-01    2.8891e+05 ;     C2 - H2    
     2      9   1    1.0962e-01    2.8891e+05 ;     C2 - H3    
     2     10   1    1.0962e-01    2.8891e+05 ;     C2 - H4    
     3      4   1    1.5354e-01    1.9154e+05 ;     C3 - C4    
     3     11   1    1.0962e-01    2.8891e+05 ;     C3 - H5    
     3     12   1    1.0962e-01    2.8891e+05 ;     C3 - H6    
     3     13   1    1.0962e-01    2.8891e+05 ;     C3 - H7    
     4      6   1    1.4273e-01    2.3620e+05 ;     C4 - O2    
     4     14   1    1.0969e-01    2.8804e+05 ;     C4 - H8    

[ pairs ]
;   ai     aj    funct
     1      2      1 ;     C1 - C2    
     1      3      1 ;     C1 - C3    
     1     14      1 ;     C1 - H8    
     2     11      1 ;     C2 - H5    
     2     12      1 ;     C2 - H6    
     2     13      1 ;     C2 - H7    
     3      8      1 ;     C3 - H2    
     3      9      1 ;     C3 - H3    
     3     10      1 ;     C3 - H4    
     5      4      1 ;     O1 - C4    
     6      8      1 ;     O2 - H2    
     6      9      1 ;     O2 - H3    
     6     10      1 ;     O2 - H4    
     6     11      1 ;     O2 - H5    
     6     12      1 ;     O2 - H6    
     6     13      1 ;     O2 - H7    
     7      4      1 ;     H1 - C4    
     8     14      1 ;     H2 - H8    
     9     14      1 ;     H3 - H8    
    10     14      1 ;     H4 - H8    
    11     14      1 ;     H5 - H8    
    12     14      1 ;     H6 - H8    
    13     14      1 ;     H7 - H8    

[ angles ]
;   ai     aj     ak    funct   theta         cth
     1      6      4      1    1.1582e+02    7.4835e+02 ;     C1 - O2     - C4    
     2      4      3      1    1.1263e+02    5.0099e+02 ;     C2 - C4     - C3    
     2      4      6      1    1.0762e+02    6.4802e+02 ;     C2 - C4     - O2    
     2      4     14      1    1.0959e+02    3.6217e+02 ;     C2 - C4     - H8    
     3      4      6      1    1.0762e+02    6.4802e+02 ;     C3 - C4     - O2    
     3      4     14      1    1.0959e+02    3.6217e+02 ;     C3 - C4     - H8    
     4      2      8      1    1.0968e+02    3.6208e+02 ;     C4 - C2     - H2    
     4      2      9      1    1.0968e+02    3.6208e+02 ;     C4 - C2     - H3    
     4      2     10      1    1.0968e+02    3.6208e+02 ;     C4 - C2     - H4    
     4      3     11      1    1.0968e+02    3.6208e+02 ;     C4 - C3     - H5    
     4      3     12      1    1.0968e+02    3.6208e+02 ;     C4 - C3     - H6    
     4      3     13      1    1.0968e+02    3.6208e+02 ;     C4 - C3     - H7    
     5      1      6      1    1.2320e+02    8.4734e+02 ;     O1 - C1     - O2    
     5      1      7      1    1.2378e+02    4.9664e+02 ;     O1 - C1     - H1    
     6      1      7      1    1.1309e+02    4.8124e+02 ;     O2 - C1     - H1    
     6      4     14      1    1.1034e+02    4.7028e+02 ;     O2 - C4     - H8    
     8      2      9      1    1.0773e+02    2.9957e+02 ;     H2 - C2     - H3    
     8      2     10      1    1.0773e+02    2.9957e+02 ;     H2 - C2     - H4    
     9      2     10      1    1.0773e+02    2.9957e+02 ;     H3 - C2     - H4    
    11      3     12      1    1.0773e+02    2.9957e+02 ;     H5 - C3     - H6    
    11      3     13      1    1.0773e+02    2.9957e+02 ;     H5 - C3     - H7    
    12      3     13      1    1.0773e+02    2.9957e+02 ;     H6 - C3     - H7    

[ dihedrals ] ; propers
; for gromacs 4.5 or higher, using funct 9
;    i      j      k      l   func   phase     kd      pn
     1      6      4      2      9     0.00   1.60247   3 ;     C1-    O2-    C4-    C2
     1      6      4      2      9   180.00   3.34720   1 ;     C1-    O2-    C4-    C2
     1      6      4      3      9     0.00   1.60247   3 ;     C1-    O2-    C4-    C3
     1      6      4      3      9   180.00   3.34720   1 ;     C1-    O2-    C4-    C3
     1      6      4     14      9     0.00   1.60387   3 ;     C1-    O2-    C4-    H8
     2      4      3     11      9     0.00   0.54392   3 ;     C2-    C4-    C3-    H5
     2      4      3     12      9     0.00   0.54392   3 ;     C2-    C4-    C3-    H6
     2      4      3     13      9     0.00   0.54392   3 ;     C2-    C4-    C3-    H7
     3      4      2      8      9     0.00   0.54392   3 ;     C3-    C4-    C2-    H2
     3      4      2      9      9     0.00   0.54392   3 ;     C3-    C4-    C2-    H3
     3      4      2     10      9     0.00   0.54392   3 ;     C3-    C4-    C2-    H4
     5      1      6      4      9   180.00   5.85760   1 ;     O1-    C1-    O2-    C4
     5      1      6      4      9   180.00  11.29680   2 ;     O1-    C1-    O2-    C4
     6      4      2      8      9     0.00   0.00000   0 ;     O2-    C4-    C2-    H2
     6      4      2      8      9     0.00   1.04600   1 ;     O2-    C4-    C2-    H2
     6      4      2      9      9     0.00   0.00000   0 ;     O2-    C4-    C2-    H3
     6      4      2      9      9     0.00   1.04600   1 ;     O2-    C4-    C2-    H3
     6      4      2     10      9     0.00   0.00000   0 ;     O2-    C4-    C2-    H4
     6      4      2     10      9     0.00   1.04600   1 ;     O2-    C4-    C2-    H4
     6      4      3     11      9     0.00   0.00000   0 ;     O2-    C4-    C3-    H5
     6      4      3     11      9     0.00   1.04600   1 ;     O2-    C4-    C3-    H5
     6      4      3     12      9     0.00   0.00000   0 ;     O2-    C4-    C3-    H6
     6      4      3     12      9     0.00   1.04600   1 ;     O2-    C4-    C3-    H6
     6      4      3     13      9     0.00   0.00000   0 ;     O2-    C4-    C3-    H7
     6      4      3     13      9     0.00   1.04600   1 ;     O2-    C4-    C3-    H7
     7      1      6      4      9   180.00  11.29680   2 ;     H1-    C1-    O2-    C4
     8      2      4     14      9     0.00   0.65084   3 ;     H2-    C2-    C4-    H8
     9      2      4     14      9     0.00   0.65084   3 ;     H3-    C2-    C4-    H8
    10      2      4     14      9     0.00   0.65084   3 ;     H4-    C2-    C4-    H8
    11      3      4     14      9     0.00   0.65084   3 ;     H5-    C3-    C4-    H8
    12      3      4     14      9     0.00   0.65084   3 ;     H6-    C3-    C4-    H8
    13      3      4     14      9     0.00   0.65084   3 ;     H7-    C3-    C4-    H8

[ dihedrals ] ; impropers
; treated as propers in GROMACS to use correct AMBER analytical function
;    i      j      k      l   func   phase     kd      pn
     6      1      5      7      4   180.00   4.60240   2 ;     O2-    C1-    O1-    H1
