; mobley_3398536_GMX.itp created by acpype (v: 2023.10.27) on Thu May 14 13:19:11 2026

[ atomtypes ]
;name   bond_type     mass     charge   ptype   sigma         epsilon       Amb
 ca       ca          0.00000  0.00000   A     3.31521e-01   4.13379e-01 ; 1.86  0.0988
 i        i           0.00000  0.00000   A     3.84120e-01   2.07317e+00 ; 2.16  0.4955
 ha       ha          0.00000  0.00000   A     2.62548e-01   6.73624e-02 ; 1.47  0.0161

[ moleculetype ]
;name            nrexcl
 mobley_3398536   3

[ atoms ]
;   nr  type  resi  res  atom  cgnr     charge      mass       ; qtot   bond_type
     1   ca     1   MOL    C1    1    -0.112000     12.01000 ; qtot -0.112
     2   ca     1   MOL    C2    2    -0.134000     12.01000 ; qtot -0.246
     3   ca     1   MOL    C3    3    -0.134000     12.01000 ; qtot -0.380
     4   ca     1   MOL    C4    4    -0.096000     12.01000 ; qtot -0.476
     5   ca     1   MOL    C5    5    -0.096000     12.01000 ; qtot -0.572
     6   ca     1   MOL    C6    6     0.022900     12.01000 ; qtot -0.549
     7    i     1   MOL    I1    7    -0.147900    126.90000 ; qtot -0.697
     8   ha     1   MOL    H1    8     0.135000      1.00800 ; qtot -0.562
     9   ha     1   MOL    H2    9     0.137000      1.00800 ; qtot -0.425
    10   ha     1   MOL    H3   10     0.137000      1.00800 ; qtot -0.288
    11   ha     1   MOL    H4   11     0.144000      1.00800 ; qtot -0.144
    12   ha     1   MOL    H5   12     0.144000      1.00800 ; qtot 0.000

[ bonds ]
;   ai     aj funct   r             k
     1      2   1    1.3986e-01    2.9644e+05 ;     C1 - C2    
     1      3   1    1.3986e-01    2.9644e+05 ;     C1 - C3    
     1      8   1    1.0860e-01    3.0183e+05 ;     C1 - H1    
     2      4   1    1.3986e-01    2.9644e+05 ;     C2 - C4    
     2      9   1    1.0860e-01    3.0183e+05 ;     C2 - H2    
     3      5   1    1.3986e-01    2.9644e+05 ;     C3 - C5    
     3     10   1    1.0860e-01    3.0183e+05 ;     C3 - H3    
     4      6   1    1.3986e-01    2.9644e+05 ;     C4 - C6    
     4     11   1    1.0860e-01    3.0183e+05 ;     C4 - H4    
     5      6   1    1.3986e-01    2.9644e+05 ;     C5 - C6    
     5     12   1    1.0860e-01    3.0183e+05 ;     C5 - H5    
     6      7   1    2.1569e-01    8.9588e+04 ;     C6 - I1    

[ pairs ]
;   ai     aj    funct
     1      6      1 ;     C1 - C6    
     1     11      1 ;     C1 - H4    
     1     12      1 ;     C1 - H5    
     2      5      1 ;     C2 - C5    
     2      7      1 ;     C2 - I1    
     2     10      1 ;     C2 - H3    
     3      4      1 ;     C3 - C4    
     3      7      1 ;     C3 - I1    
     3      9      1 ;     C3 - H2    
     4     12      1 ;     C4 - H5    
     5     11      1 ;     C5 - H4    
     6      9      1 ;     C6 - H2    
     6     10      1 ;     C6 - H3    
     7     11      1 ;     I1 - H4    
     7     12      1 ;     I1 - H5    
     8      4      1 ;     H1 - C4    
     8      5      1 ;     H1 - C5    
     8      9      1 ;     H1 - H2    
     8     10      1 ;     H1 - H3    
     9     11      1 ;     H2 - H4    
    10     12      1 ;     H3 - H5    

[ angles ]
;   ai     aj     ak    funct   theta         cth
     1      2      4      1    1.2002e+02    5.3279e+02 ;     C1 - C2     - C4    
     1      2      9      1    1.1988e+02    3.7572e+02 ;     C1 - C2     - H2    
     1      3      5      1    1.2002e+02    5.3279e+02 ;     C1 - C3     - C5    
     1      3     10      1    1.1988e+02    3.7572e+02 ;     C1 - C3     - H3    
     2      1      3      1    1.2002e+02    5.3279e+02 ;     C2 - C1     - C3    
     2      1      8      1    1.1988e+02    3.7572e+02 ;     C2 - C1     - H1    
     2      4      6      1    1.2002e+02    5.3279e+02 ;     C2 - C4     - C6    
     2      4     11      1    1.1988e+02    3.7572e+02 ;     C2 - C4     - H4    
     3      1      8      1    1.1988e+02    3.7572e+02 ;     C3 - C1     - H1    
     3      5      6      1    1.2002e+02    5.3279e+02 ;     C3 - C5     - C6    
     3      5     12      1    1.1988e+02    3.7572e+02 ;     C3 - C5     - H5    
     4      2      9      1    1.1988e+02    3.7572e+02 ;     C4 - C2     - H2    
     4      6      5      1    1.2002e+02    5.3279e+02 ;     C4 - C6     - C5    
     4      6      7      1    1.1917e+02    4.8752e+02 ;     C4 - C6     - I1    
     5      3     10      1    1.1988e+02    3.7572e+02 ;     C5 - C3     - H3    
     5      6      7      1    1.1917e+02    4.8752e+02 ;     C5 - C6     - I1    
     6      4     11      1    1.1988e+02    3.7572e+02 ;     C6 - C4     - H4    
     6      5     12      1    1.1988e+02    3.7572e+02 ;     C6 - C5     - H5    

[ dihedrals ] ; propers
; for gromacs 4.5 or higher, using funct 9
;    i      j      k      l   func   phase     kd      pn
     1      2      4      6      9   180.00  15.16700   2 ;     C1-    C2-    C4-    C6
     1      2      4     11      9   180.00  15.16700   2 ;     C1-    C2-    C4-    H4
     1      3      5      6      9   180.00  15.16700   2 ;     C1-    C3-    C5-    C6
     1      3      5     12      9   180.00  15.16700   2 ;     C1-    C3-    C5-    H5
     2      1      3      5      9   180.00  15.16700   2 ;     C2-    C1-    C3-    C5
     2      1      3     10      9   180.00  15.16700   2 ;     C2-    C1-    C3-    H3
     2      4      6      5      9   180.00  15.16700   2 ;     C2-    C4-    C6-    C5
     2      4      6      7      9   180.00  15.16700   2 ;     C2-    C4-    C6-    I1
     3      1      2      4      9   180.00  15.16700   2 ;     C3-    C1-    C2-    C4
     3      1      2      9      9   180.00  15.16700   2 ;     C3-    C1-    C2-    H2
     3      5      6      4      9   180.00  15.16700   2 ;     C3-    C5-    C6-    C4
     3      5      6      7      9   180.00  15.16700   2 ;     C3-    C5-    C6-    I1
     4      6      5     12      9   180.00  15.16700   2 ;     C4-    C6-    C5-    H5
     5      6      4     11      9   180.00  15.16700   2 ;     C5-    C6-    C4-    H4
     6      4      2      9      9   180.00  15.16700   2 ;     C6-    C4-    C2-    H2
     6      5      3     10      9   180.00  15.16700   2 ;     C6-    C5-    C3-    H3
     7      6      4     11      9   180.00  15.16700   2 ;     I1-    C6-    C4-    H4
     7      6      5     12      9   180.00  15.16700   2 ;     I1-    C6-    C5-    H5
     8      1      2      4      9   180.00  15.16700   2 ;     H1-    C1-    C2-    C4
     8      1      2      9      9   180.00  15.16700   2 ;     H1-    C1-    C2-    H2
     8      1      3      5      9   180.00  15.16700   2 ;     H1-    C1-    C3-    C5
     8      1      3     10      9   180.00  15.16700   2 ;     H1-    C1-    C3-    H3
     9      2      4     11      9   180.00  15.16700   2 ;     H2-    C2-    C4-    H4
    10      3      5     12      9   180.00  15.16700   2 ;     H3-    C3-    C5-    H5

[ dihedrals ] ; impropers
; treated as propers in GROMACS to use correct AMBER analytical function
;    i      j      k      l   func   phase     kd      pn
     1      4      2      9      4   180.00   4.60240   2 ;     C1-    C4-    C2-    H2
     1      5      3     10      4   180.00   4.60240   2 ;     C1-    C5-    C3-    H3
     2      6      4     11      4   180.00   4.60240   2 ;     C2-    C6-    C4-    H4
     3      6      5     12      4   180.00   4.60240   2 ;     C3-    C6-    C5-    H5
     4      5      6      7      4   180.00   4.60240   2 ;     C4-    C5-    C6-    I1
     8      1      3      2      4   180.00   4.60240   2 ;     H1-    C1-    C3-    C2
