; mobley_1328936_GMX.itp created by acpype (v: 2023.10.27) on Thu May 14 13:18:17 2026

[ atomtypes ]
;name   bond_type     mass     charge   ptype   sigma         epsilon       Amb
 ca       ca          0.00000  0.00000   A     3.31521e-01   4.13379e-01 ; 1.86  0.0988
 c        c           0.00000  0.00000   A     3.31521e-01   4.13379e-01 ; 1.86  0.0988
 c3       c3          0.00000  0.00000   A     3.39771e-01   4.51035e-01 ; 1.91  0.1078
 no       no          0.00000  0.00000   A     3.36510e-01   3.58987e-01 ; 1.89  0.0858
 o        o           0.00000  0.00000   A     3.04812e-01   6.12119e-01 ; 1.71  0.1463
 os       os          0.00000  0.00000   A     3.15610e-01   3.03758e-01 ; 1.77  0.0726
 ha       ha          0.00000  0.00000   A     2.62548e-01   6.73624e-02 ; 1.47  0.0161
 h1       h1          0.00000  0.00000   A     2.42200e-01   8.70272e-02 ; 1.36  0.0208

[ moleculetype ]
;name            nrexcl
 mobley_1328936   3

[ atoms ]
;   nr  type  resi  res  atom  cgnr     charge      mass       ; qtot   bond_type
     1   ca     1   MOL    C1    1    -0.084000     12.01000 ; qtot -0.084
     2   ca     1   MOL    C2    2    -0.084000     12.01000 ; qtot -0.168
     3   ca     1   MOL    C3    3    -0.086000     12.01000 ; qtot -0.254
     4   ca     1   MOL    C4    4    -0.086000     12.01000 ; qtot -0.340
     5   ca     1   MOL    C5    5    -0.092600     12.01000 ; qtot -0.433
     6   ca     1   MOL    C6    6    -0.147200     12.01000 ; qtot -0.580
     7    c     1   MOL    C7    7     0.640701     12.01000 ; qtot 0.061
     8   c3     1   MOL    C8    8     0.126700     12.01000 ; qtot 0.188
     9   no     1   MOL    N1    9     0.309200     14.01000 ; qtot 0.497
    10    o     1   MOL    O1   10    -0.527000     16.00000 ; qtot -0.030
    11    o     1   MOL    O2   11    -0.200500     16.00000 ; qtot -0.231
    12    o     1   MOL    O3   12    -0.200500     16.00000 ; qtot -0.431
    13   os     1   MOL    O4   13    -0.435900     16.00000 ; qtot -0.867
    14   ha     1   MOL    H1   14     0.172000      1.00800 ; qtot -0.695
    15   ha     1   MOL    H2   15     0.172000      1.00800 ; qtot -0.523
    16   ha     1   MOL    H3   16     0.177500      1.00800 ; qtot -0.346
    17   ha     1   MOL    H4   17     0.177500      1.00800 ; qtot -0.168
    18   h1     1   MOL    H5   18     0.056033      1.00800 ; qtot -0.112
    19   h1     1   MOL    H6   19     0.056033      1.00800 ; qtot -0.056
    20   h1     1   MOL    H7   20     0.056033      1.00800 ; qtot -0.000

[ bonds ]
;   ai     aj funct   r             k
     1      3   1    1.3986e-01    2.9644e+05 ;     C1 - C3    
     1      5   1    1.3986e-01    2.9644e+05 ;     C1 - C5    
     1     14   1    1.0860e-01    3.0183e+05 ;     C1 - H1    
     2      4   1    1.3986e-01    2.9644e+05 ;     C2 - C4    
     2      5   1    1.3986e-01    2.9644e+05 ;     C2 - C5    
     2     15   1    1.0860e-01    3.0183e+05 ;     C2 - H2    
     3      6   1    1.3986e-01    2.9644e+05 ;     C3 - C6    
     3     16   1    1.0860e-01    3.0183e+05 ;     C3 - H3    
     4      6   1    1.3986e-01    2.9644e+05 ;     C4 - C6    
     4     17   1    1.0860e-01    3.0183e+05 ;     C4 - H4    
     5      7   1    1.4907e-01    2.1994e+05 ;     C5 - C7    
     6      9   1    1.4696e-01    2.0937e+05 ;     C6 - N1    
     7     10   1    1.2190e-01    4.9421e+05 ;     C7 - O1    
     7     13   1    1.3621e-01    2.9398e+05 ;     C7 - O4    
     8     13   1    1.4273e-01    2.3620e+05 ;     C8 - O4    
     8     18   1    1.0969e-01    2.8804e+05 ;     C8 - H5    
     8     19   1    1.0969e-01    2.8804e+05 ;     C8 - H6    
     8     20   1    1.0969e-01    2.8804e+05 ;     C8 - H7    
     9     11   1    1.2311e-01    3.0270e+05 ;     N1 - O2    
     9     12   1    1.2311e-01    3.0270e+05 ;     N1 - O3    

[ pairs ]
;   ai     aj    funct
     1      4      1 ;     C1 - C4    
     1      9      1 ;     C1 - N1    
     1     10      1 ;     C1 - O1    
     1     13      1 ;     C1 - O4    
     1     15      1 ;     C1 - H2    
     2      3      1 ;     C2 - C3    
     2      9      1 ;     C2 - N1    
     2     10      1 ;     C2 - O1    
     2     13      1 ;     C2 - O4    
     3      7      1 ;     C3 - C7    
     3     11      1 ;     C3 - O2    
     3     12      1 ;     C3 - O3    
     3     17      1 ;     C3 - H4    
     4      7      1 ;     C4 - C7    
     4     11      1 ;     C4 - O2    
     4     12      1 ;     C4 - O3    
     4     16      1 ;     C4 - H3    
     5      6      1 ;     C5 - C6    
     5      8      1 ;     C5 - C8    
     5     16      1 ;     C5 - H3    
     5     17      1 ;     C5 - H4    
     6     15      1 ;     C6 - H2    
     7     15      1 ;     C7 - H2    
     7     18      1 ;     C7 - H5    
     7     19      1 ;     C7 - H6    
     7     20      1 ;     C7 - H7    
     8     10      1 ;     C8 - O1    
     9     16      1 ;     N1 - H3    
     9     17      1 ;     N1 - H4    
    14      2      1 ;     H1 - C2    
    14      6      1 ;     H1 - C6    
    14      7      1 ;     H1 - C7    
    14     16      1 ;     H1 - H3    
    15     17      1 ;     H2 - H4    

[ angles ]
;   ai     aj     ak    funct   theta         cth
     1      3      6      1    1.2002e+02    5.3279e+02 ;     C1 - C3     - C6    
     1      3     16      1    1.1988e+02    3.7572e+02 ;     C1 - C3     - H3    
     1      5      2      1    1.2002e+02    5.3279e+02 ;     C1 - C5     - C2    
     1      5      7      1    1.2033e+02    5.1413e+02 ;     C1 - C5     - C7    
     2      4      6      1    1.2002e+02    5.3279e+02 ;     C2 - C4     - C6    
     2      4     17      1    1.1988e+02    3.7572e+02 ;     C2 - C4     - H4    
     2      5      7      1    1.2033e+02    5.1413e+02 ;     C2 - C5     - C7    
     3      1      5      1    1.2002e+02    5.3279e+02 ;     C3 - C1     - C5    
     3      1     14      1    1.1988e+02    3.7572e+02 ;     C3 - C1     - H1    
     3      6      4      1    1.2002e+02    5.3279e+02 ;     C3 - C6     - C4    
     3      6      9      1    1.1900e+02    5.5329e+02 ;     C3 - C6     - N1    
     4      2      5      1    1.2002e+02    5.3279e+02 ;     C4 - C2     - C5    
     4      2     15      1    1.1988e+02    3.7572e+02 ;     C4 - C2     - H2    
     4      6      9      1    1.1900e+02    5.5329e+02 ;     C4 - C6     - N1    
     5      1     14      1    1.1988e+02    3.7572e+02 ;     C5 - C1     - H1    
     5      2     15      1    1.1988e+02    3.7572e+02 ;     C5 - C2     - H2    
     5      7     10      1    1.2260e+02    6.5237e+02 ;     C5 - C7     - O1    
     5      7     13      1    1.1241e+02    6.5756e+02 ;     C5 - C7     - O4    
     6      3     16      1    1.1988e+02    3.7572e+02 ;     C6 - C3     - H3    
     6      4     17      1    1.1988e+02    3.7572e+02 ;     C6 - C4     - H4    
     6      9     11      1    1.1776e+02    8.2910e+02 ;     C6 - N1     - O2    
     6      9     12      1    1.1776e+02    8.2910e+02 ;     C6 - N1     - O3    
     7     13      8      1    1.1582e+02    7.4835e+02 ;     C7 - O4     - C8    
    10      7     13      1    1.2320e+02    8.4734e+02 ;     O1 - C7     - O4    
    11      9     12      1    1.2505e+02    1.0964e+03 ;     O2 - N1     - O3    
    13      8     18      1    1.1034e+02    4.7028e+02 ;     O4 - C8     - H5    
    13      8     19      1    1.1034e+02    4.7028e+02 ;     O4 - C8     - H6    
    13      8     20      1    1.1034e+02    4.7028e+02 ;     O4 - C8     - H7    
    18      8     19      1    1.0855e+02    2.9824e+02 ;     H5 - C8     - H6    
    18      8     20      1    1.0855e+02    2.9824e+02 ;     H5 - C8     - H7    
    19      8     20      1    1.0855e+02    2.9824e+02 ;     H6 - C8     - H7    

[ dihedrals ] ; propers
; for gromacs 4.5 or higher, using funct 9
;    i      j      k      l   func   phase     kd      pn
     1      3      6      4      9   180.00  15.16700   2 ;     C1-    C3-    C6-    C4
     1      3      6      9      9   180.00  15.16700   2 ;     C1-    C3-    C6-    N1
     1      5      2      4      9   180.00  15.16700   2 ;     C1-    C5-    C2-    C4
     1      5      2     15      9   180.00  15.16700   2 ;     C1-    C5-    C2-    H2
     1      5      7     10      9   180.00   2.42672   2 ;     C1-    C5-    C7-    O1
     1      5      7     13      9   180.00   4.18400   2 ;     C1-    C5-    C7-    O4
     2      4      6      3      9   180.00  15.16700   2 ;     C2-    C4-    C6-    C3
     2      4      6      9      9   180.00  15.16700   2 ;     C2-    C4-    C6-    N1
     2      5      7     10      9   180.00   2.42672   2 ;     C2-    C5-    C7-    O1
     2      5      7     13      9   180.00   4.18400   2 ;     C2-    C5-    C7-    O4
     3      1      5      2      9   180.00  15.16700   2 ;     C3-    C1-    C5-    C2
     3      1      5      7      9   180.00  15.16700   2 ;     C3-    C1-    C5-    C7
     3      6      4     17      9   180.00  15.16700   2 ;     C3-    C6-    C4-    H4
     3      6      9     11      9   180.00   3.01248   2 ;     C3-    C6-    N1-    O2
     3      6      9     12      9   180.00   3.01248   2 ;     C3-    C6-    N1-    O3
     4      2      5      7      9   180.00  15.16700   2 ;     C4-    C2-    C5-    C7
     4      6      3     16      9   180.00  15.16700   2 ;     C4-    C6-    C3-    H3
     4      6      9     11      9   180.00   3.01248   2 ;     C4-    C6-    N1-    O2
     4      6      9     12      9   180.00   3.01248   2 ;     C4-    C6-    N1-    O3
     5      1      3      6      9   180.00  15.16700   2 ;     C5-    C1-    C3-    C6
     5      1      3     16      9   180.00  15.16700   2 ;     C5-    C1-    C3-    H3
     5      2      4      6      9   180.00  15.16700   2 ;     C5-    C2-    C4-    C6
     5      2      4     17      9   180.00  15.16700   2 ;     C5-    C2-    C4-    H4
     5      7     13      8      9     0.00   1.29704   3 ;     C5-    C7-    O4-    C8
     5      7     13      8      9   180.00   6.69440   1 ;     C5-    C7-    O4-    C8
     5      7     13      8      9   180.00  15.35528   2 ;     C5-    C7-    O4-    C8
     6      4      2     15      9   180.00  15.16700   2 ;     C6-    C4-    C2-    H2
     7      5      2     15      9   180.00  15.16700   2 ;     C7-    C5-    C2-    H2
     7     13      8     18      9     0.00   1.60387   3 ;     C7-    O4-    C8-    H5
     7     13      8     19      9     0.00   1.60387   3 ;     C7-    O4-    C8-    H6
     7     13      8     20      9     0.00   1.60387   3 ;     C7-    O4-    C8-    H7
     8     13      7     10      9   180.00   5.85760   1 ;     C8-    O4-    C7-    O1
     8     13      7     10      9   180.00  11.29680   2 ;     C8-    O4-    C7-    O1
     9      6      3     16      9   180.00  15.16700   2 ;     N1-    C6-    C3-    H3
     9      6      4     17      9   180.00  15.16700   2 ;     N1-    C6-    C4-    H4
    14      1      3      6      9   180.00  15.16700   2 ;     H1-    C1-    C3-    C6
    14      1      3     16      9   180.00  15.16700   2 ;     H1-    C1-    C3-    H3
    14      1      5      2      9   180.00  15.16700   2 ;     H1-    C1-    C5-    C2
    14      1      5      7      9   180.00  15.16700   2 ;     H1-    C1-    C5-    C7
    15      2      4     17      9   180.00  15.16700   2 ;     H2-    C2-    C4-    H4

[ dihedrals ] ; impropers
; treated as propers in GROMACS to use correct AMBER analytical function
;    i      j      k      l   func   phase     kd      pn
     1      6      3     16      4   180.00   4.60240   2 ;     C1-    C6-    C3-    H3
     2      6      4     17      4   180.00   4.60240   2 ;     C2-    C6-    C4-    H4
     3      4      6      9      4   180.00   4.60240   2 ;     C3-    C4-    C6-    N1
     4      5      2     15      4   180.00   4.60240   2 ;     C4-    C5-    C2-    H2
     5     10      7     13      4   180.00   4.60240   2 ;     C5-    O1-    C7-    O4
     6     11      9     12      4   180.00   4.60240   2 ;     C6-    O2-    N1-    O3
     7      1      5      2      4   180.00   4.60240   2 ;     C7-    C1-    C5-    C2
    14      1      5      3      4   180.00   4.60240   2 ;     H1-    C1-    C5-    C3
