; mobley_5760563_GMX.itp created by acpype (v: 2023.10.27) on Thu May 14 13:48:19 2026

[ atomtypes ]
;name   bond_type     mass     charge   ptype   sigma         epsilon       Amb
 c3       c3          0.00000  0.00000   A     3.39771e-01   4.51035e-01 ; 1.91  0.1078
 o        o           0.00000  0.00000   A     3.04812e-01   6.12119e-01 ; 1.71  0.1463
 os       os          0.00000  0.00000   A     3.15610e-01   3.03758e-01 ; 1.77  0.0726
 s6       s6          0.00000  0.00000   A     4.05840e-01   2.56898e-01 ; 2.28  0.0614
 h1       h1          0.00000  0.00000   A     2.42200e-01   8.70272e-02 ; 1.36  0.0208

[ moleculetype ]
;name            nrexcl
 mobley_5760563   3

[ atoms ]
;   nr  type  resi  res  atom  cgnr     charge      mass       ; qtot   bond_type
     1   c3     1   MOL    C1    1     0.172700     12.01000 ; qtot 0.173
     2   c3     1   MOL    C2    2     0.172700     12.01000 ; qtot 0.345
     3    o     1   MOL    O1    3    -0.655800     16.00000 ; qtot -0.310
     4    o     1   MOL    O2    4    -0.655800     16.00000 ; qtot -0.966
     5   os     1   MOL    O3    5    -0.586500     16.00000 ; qtot -1.553
     6   os     1   MOL    O4    6    -0.586500     16.00000 ; qtot -2.139
     7   s6     1   MOL    S1    7     1.839002     32.06000 ; qtot -0.300
     8   h1     1   MOL    H1    8     0.050033      1.00800 ; qtot -0.250
     9   h1     1   MOL    H2    9     0.050033      1.00800 ; qtot -0.200
    10   h1     1   MOL    H3   10     0.050033      1.00800 ; qtot -0.150
    11   h1     1   MOL    H4   11     0.050033      1.00800 ; qtot -0.100
    12   h1     1   MOL    H5   12     0.050033      1.00800 ; qtot -0.050
    13   h1     1   MOL    H6   13     0.050033      1.00800 ; qtot -0.000

[ bonds ]
;   ai     aj funct   r             k
     1      5   1    1.4273e-01    2.3620e+05 ;     C1 - O3    
     1      8   1    1.0969e-01    2.8804e+05 ;     C1 - H1    
     1      9   1    1.0969e-01    2.8804e+05 ;     C1 - H2    
     1     10   1    1.0969e-01    2.8804e+05 ;     C1 - H3    
     2      6   1    1.4273e-01    2.3620e+05 ;     C2 - O4    
     2     11   1    1.0969e-01    2.8804e+05 ;     C2 - H4    
     2     12   1    1.0969e-01    2.8804e+05 ;     C2 - H5    
     2     13   1    1.0969e-01    2.8804e+05 ;     C2 - H6    
     3      7   1    1.4657e-01    5.1421e+05 ;     O1 - S1    
     4      7   1    1.4657e-01    5.1421e+05 ;     O2 - S1    
     5      7   1    1.6433e-01    3.0107e+05 ;     O3 - S1    
     6      7   1    1.6433e-01    3.0107e+05 ;     O4 - S1    

[ pairs ]
;   ai     aj    funct
     1      3      1 ;     C1 - O1    
     1      4      1 ;     C1 - O2    
     1      6      1 ;     C1 - O4    
     2      3      1 ;     C2 - O1    
     2      4      1 ;     C2 - O2    
     2      5      1 ;     C2 - O3    
     7     11      1 ;     S1 - H4    
     7     12      1 ;     S1 - H5    
     7     13      1 ;     S1 - H6    
     8      7      1 ;     H1 - S1    
     9      7      1 ;     H2 - S1    
    10      7      1 ;     H3 - S1    

[ angles ]
;   ai     aj     ak    funct   theta         cth
     1      5      7      1    1.1573e+02    7.8299e+02 ;     C1 - O3     - S1    
     2      6      7      1    1.1573e+02    7.8299e+02 ;     C2 - O4     - S1    
     3      7      4      1    1.2021e+02    1.3263e+03 ;     O1 - S1     - O2    
     3      7      5      1    1.0858e+02    1.3073e+03 ;     O1 - S1     - O3    
     3      7      6      1    1.0858e+02    1.3073e+03 ;     O1 - S1     - O4    
     4      7      5      1    1.0858e+02    1.3073e+03 ;     O2 - S1     - O3    
     4      7      6      1    1.0858e+02    1.3073e+03 ;     O2 - S1     - O4    
     5      1      8      1    1.1034e+02    4.7028e+02 ;     O3 - C1     - H1    
     5      1      9      1    1.1034e+02    4.7028e+02 ;     O3 - C1     - H2    
     5      1     10      1    1.1034e+02    4.7028e+02 ;     O3 - C1     - H3    
     5      7      6      1    9.6010e+01    1.3237e+03 ;     O3 - S1     - O4    
     6      2     11      1    1.1034e+02    4.7028e+02 ;     O4 - C2     - H4    
     6      2     12      1    1.1034e+02    4.7028e+02 ;     O4 - C2     - H5    
     6      2     13      1    1.1034e+02    4.7028e+02 ;     O4 - C2     - H6    
     8      1      9      1    1.0855e+02    2.9824e+02 ;     H1 - C1     - H2    
     8      1     10      1    1.0855e+02    2.9824e+02 ;     H1 - C1     - H3    
     9      1     10      1    1.0855e+02    2.9824e+02 ;     H2 - C1     - H3    
    11      2     12      1    1.0855e+02    2.9824e+02 ;     H4 - C2     - H5    
    11      2     13      1    1.0855e+02    2.9824e+02 ;     H4 - C2     - H6    
    12      2     13      1    1.0855e+02    2.9824e+02 ;     H5 - C2     - H6    

[ dihedrals ] ; propers
; for gromacs 4.5 or higher, using funct 9
;    i      j      k      l   func   phase     kd      pn
     1      5      7      3      9   180.00   5.02080   2 ;     C1-    O3-    S1-    O1
     1      5      7      4      9   180.00   5.02080   2 ;     C1-    O3-    S1-    O2
     1      5      7      6      9   180.00   5.02080   2 ;     C1-    O3-    S1-    O4
     2      6      7      3      9   180.00   5.02080   2 ;     C2-    O4-    S1-    O1
     2      6      7      4      9   180.00   5.02080   2 ;     C2-    O4-    S1-    O2
     2      6      7      5      9   180.00   5.02080   2 ;     C2-    O4-    S1-    O3
     7      6      2     11      9     0.00   1.60387   3 ;     S1-    O4-    C2-    H4
     7      6      2     12      9     0.00   1.60387   3 ;     S1-    O4-    C2-    H5
     7      6      2     13      9     0.00   1.60387   3 ;     S1-    O4-    C2-    H6
     8      1      5      7      9     0.00   1.60387   3 ;     H1-    C1-    O3-    S1
     9      1      5      7      9     0.00   1.60387   3 ;     H2-    C1-    O3-    S1
    10      1      5      7      9     0.00   1.60387   3 ;     H3-    C1-    O3-    S1
