; mobley_6055410_GMX.itp created by acpype (v: 2023.10.27) on Thu May 14 13:44:52 2026

[ atomtypes ]
;name   bond_type     mass     charge   ptype   sigma         epsilon       Amb
 ca       ca          0.00000  0.00000   A     3.31521e-01   4.13379e-01 ; 1.86  0.0988
 cp       cp          0.00000  0.00000   A     3.31521e-01   4.13379e-01 ; 1.86  0.0988
 c        c           0.00000  0.00000   A     3.31521e-01   4.13379e-01 ; 1.86  0.0988
 o        o           0.00000  0.00000   A     3.04812e-01   6.12119e-01 ; 1.71  0.1463
 oh       oh          0.00000  0.00000   A     3.24287e-01   3.89112e-01 ; 1.82  0.0930
 f        f           0.00000  0.00000   A     3.03422e-01   3.48109e-01 ; 1.70  0.0832
 ha       ha          0.00000  0.00000   A     2.62548e-01   6.73624e-02 ; 1.47  0.0161
 ho       ho          0.00000  0.00000   A     5.37925e-02   1.96648e-02 ; 0.30  0.0047

[ moleculetype ]
;name            nrexcl
 mobley_6055410   3

[ atoms ]
;   nr  type  resi  res  atom  cgnr     charge      mass       ; qtot   bond_type
     1   ca     1   MOL    C1    1    -0.043000     12.01000 ; qtot -0.043
     2   ca     1   MOL    C2    2    -0.077000     12.01000 ; qtot -0.120
     3   ca     1   MOL    C3    3    -0.236000     12.01000 ; qtot -0.356
     4   ca     1   MOL    C4    4    -0.179000     12.01000 ; qtot -0.535
     5   ca     1   MOL    C5    5    -0.016000     12.01000 ; qtot -0.551
     6   ca     1   MOL    C6    6    -0.207000     12.01000 ; qtot -0.758
     7   cp     1   MOL    C7    7    -0.095000     12.01000 ; qtot -0.853
     8   cp     1   MOL    C8    8    -0.078000     12.01000 ; qtot -0.931
     9   ca     1   MOL    C9    9    -0.164600     12.01000 ; qtot -1.096
    10   ca     1   MOL   C10   10     0.191100     12.01000 ; qtot -0.904
    11   ca     1   MOL   C11   11     0.154900     12.01000 ; qtot -0.750
    12   ca     1   MOL   C12   12     0.162900     12.01000 ; qtot -0.587
    13    c     1   MOL   C13   13     0.658700     12.01000 ; qtot 0.072
    14    o     1   MOL    O1   14    -0.529000     16.00000 ; qtot -0.457
    15   oh     1   MOL    O2   15    -0.459100     16.00000 ; qtot -0.916
    16   oh     1   MOL    O3   16    -0.616100     16.00000 ; qtot -1.532
    17    f     1   MOL    F1   17    -0.131900     19.00000 ; qtot -1.664
    18    f     1   MOL    F2   18    -0.129900     19.00000 ; qtot -1.794
    19   ha     1   MOL    H1   19     0.142000      1.00800 ; qtot -1.652
    20   ha     1   MOL    H2   20     0.146000      1.00800 ; qtot -1.506
    21   ha     1   MOL    H3   21     0.143000      1.00800 ; qtot -1.363
    22   ha     1   MOL    H4   22     0.156000      1.00800 ; qtot -1.207
    23   ha     1   MOL    H5   23     0.168000      1.00800 ; qtot -1.039
    24   ha     1   MOL    H6   24     0.168000      1.00800 ; qtot -0.871
    25   ho     1   MOL    H7   25     0.425000      1.00800 ; qtot -0.446
    26   ho     1   MOL    H8   26     0.446000      1.00800 ; qtot -0.000

[ bonds ]
;   ai     aj funct   r             k
     1      3   1    1.3986e-01    2.9644e+05 ;     C1 - C3    
     1      7   1    1.4056e-01    2.8959e+05 ;     C1 - C7    
     1     19   1    1.0860e-01    3.0183e+05 ;     C1 - H1    
     2      4   1    1.3986e-01    2.9644e+05 ;     C2 - C4    
     2      8   1    1.4056e-01    2.8959e+05 ;     C2 - C8    
     2     20   1    1.0860e-01    3.0183e+05 ;     C2 - H2    
     3     10   1    1.3986e-01    2.9644e+05 ;     C3 - C10   
     3     21   1    1.0860e-01    3.0183e+05 ;     C3 - H3    
     4     11   1    1.3986e-01    2.9644e+05 ;     C4 - C11   
     4     22   1    1.0860e-01    3.0183e+05 ;     C4 - H4    
     5      7   1    1.4056e-01    2.8959e+05 ;     C5 - C7    
     5      9   1    1.3986e-01    2.9644e+05 ;     C5 - C9    
     5     23   1    1.0860e-01    3.0183e+05 ;     C5 - H5    
     6     11   1    1.3986e-01    2.9644e+05 ;     C6 - C11   
     6     12   1    1.3986e-01    2.9644e+05 ;     C6 - C12   
     6     24   1    1.0860e-01    3.0183e+05 ;     C6 - H6    
     7      8   1    1.4829e-01    2.2541e+05 ;     C7 - C8    
     8     12   1    1.4056e-01    2.8959e+05 ;     C8 - C12   
     9     10   1    1.3986e-01    2.9644e+05 ;     C9 - C10   
     9     13   1    1.4907e-01    2.1994e+05 ;     C9 - C13   
    10     15   1    1.3644e-01    2.9167e+05 ;    C10 - O2    
    11     17   1    1.3502e-01    2.8070e+05 ;    C11 - F1    
    12     18   1    1.3502e-01    2.8070e+05 ;    C12 - F2    
    13     14   1    1.2190e-01    4.9421e+05 ;    C13 - O1    
    13     16   1    1.3556e-01    3.0064e+05 ;    C13 - O3    
    15     25   1    9.7250e-02    4.4811e+05 ;     O2 - H7    
    16     26   1    9.7250e-02    4.4811e+05 ;     O3 - H8    

[ pairs ]
;   ai     aj    funct
     1      2      1 ;     C1 - C2    
     1      9      1 ;     C1 - C9    
     1     12      1 ;     C1 - C12   
     1     15      1 ;     C1 - O2    
     1     23      1 ;     C1 - H5    
     2      5      1 ;     C2 - C5    
     2      6      1 ;     C2 - C6    
     2     17      1 ;     C2 - F1    
     2     18      1 ;     C2 - F2    
     3      5      1 ;     C3 - C5    
     3      8      1 ;     C3 - C8    
     3     13      1 ;     C3 - C13   
     3     25      1 ;     C3 - H7    
     4      7      1 ;     C4 - C7    
     4     12      1 ;     C4 - C12   
     4     24      1 ;     C4 - H6    
     5     12      1 ;     C5 - C12   
     5     14      1 ;     C5 - O1    
     5     15      1 ;     C5 - O2    
     5     16      1 ;     C5 - O3    
     6      7      1 ;     C6 - C7    
     6     22      1 ;     C6 - H4    
     7     10      1 ;     C7 - C10   
     7     13      1 ;     C7 - C13   
     7     18      1 ;     C7 - F2    
     7     20      1 ;     C7 - H2    
     7     21      1 ;     C7 - H3    
     8      9      1 ;     C8 - C9    
     8     11      1 ;     C8 - C11   
     8     22      1 ;     C8 - H4    
     8     23      1 ;     C8 - H5    
     8     24      1 ;     C8 - H6    
     9     21      1 ;     C9 - H3    
     9     25      1 ;     C9 - H7    
     9     26      1 ;     C9 - H8    
    10     14      1 ;    C10 - O1    
    10     16      1 ;    C10 - O3    
    10     23      1 ;    C10 - H5    
    11     18      1 ;    C11 - F2    
    11     20      1 ;    C11 - H2    
    12     17      1 ;    C12 - F1    
    12     20      1 ;    C12 - H2    
    13     15      1 ;    C13 - O2    
    13     23      1 ;    C13 - H5    
    14     26      1 ;     O1 - H8    
    15     21      1 ;     O2 - H3    
    17     22      1 ;     F1 - H4    
    17     24      1 ;     F1 - H6    
    18     24      1 ;     F2 - H6    
    19      5      1 ;     H1 - C5    
    19      8      1 ;     H1 - C8    
    19     10      1 ;     H1 - C10   
    19     21      1 ;     H1 - H3    
    20     22      1 ;     H2 - H4    

[ angles ]
;   ai     aj     ak    funct   theta         cth
     1      3     10      1    1.2002e+02    5.3279e+02 ;     C1 - C3     - C10   
     1      3     21      1    1.1988e+02    3.7572e+02 ;     C1 - C3     - H3    
     1      7      5      1    1.1841e+02    5.3379e+02 ;     C1 - C7     - C5    
     1      7      8      1    1.2110e+02    5.1296e+02 ;     C1 - C7     - C8    
     2      4     11      1    1.2002e+02    5.3279e+02 ;     C2 - C4     - C11   
     2      4     22      1    1.1988e+02    3.7572e+02 ;     C2 - C4     - H4    
     2      8      7      1    1.2110e+02    5.1296e+02 ;     C2 - C8     - C7    
     2      8     12      1    1.1841e+02    5.3379e+02 ;     C2 - C8     - C12   
     3      1      7      1    1.2073e+02    5.2995e+02 ;     C3 - C1     - C7    
     3      1     19      1    1.1988e+02    3.7572e+02 ;     C3 - C1     - H1    
     3     10      9      1    1.2002e+02    5.3279e+02 ;     C3 - C10    - C9    
     3     10     15      1    1.1990e+02    6.5990e+02 ;     C3 - C10    - O2    
     4      2      8      1    1.2073e+02    5.2995e+02 ;     C4 - C2     - C8    
     4      2     20      1    1.1988e+02    3.7572e+02 ;     C4 - C2     - H2    
     4     11      6      1    1.2002e+02    5.3279e+02 ;     C4 - C11    - C6    
     4     11     17      1    1.1896e+02    6.7404e+02 ;     C4 - C11    - F1    
     5      7      8      1    1.2110e+02    5.1296e+02 ;     C5 - C7     - C8    
     5      9     10      1    1.2002e+02    5.3279e+02 ;     C5 - C9     - C10   
     5      9     13      1    1.2033e+02    5.1413e+02 ;     C5 - C9     - C13   
     6     11     17      1    1.1896e+02    6.7404e+02 ;     C6 - C11    - F1    
     6     12      8      1    1.2073e+02    5.2995e+02 ;     C6 - C12    - C8    
     6     12     18      1    1.1896e+02    6.7404e+02 ;     C6 - C12    - F2    
     7      1     19      1    1.1982e+02    3.7430e+02 ;     C7 - C1     - H1    
     7      5      9      1    1.2073e+02    5.2995e+02 ;     C7 - C5     - C9    
     7      5     23      1    1.1982e+02    3.7430e+02 ;     C7 - C5     - H5    
     7      8     12      1    1.2110e+02    5.1296e+02 ;     C7 - C8     - C12   
     8      2     20      1    1.1982e+02    3.7430e+02 ;     C8 - C2     - H2    
     8     12     18      1    1.1943e+02    6.7095e+02 ;     C8 - C12    - F2    
     9      5     23      1    1.1988e+02    3.7572e+02 ;     C9 - C5     - H5    
     9     10     15      1    1.1990e+02    6.5990e+02 ;     C9 - C10    - O2    
     9     13     14      1    1.2260e+02    6.5237e+02 ;     C9 - C13    - O1    
     9     13     16      1    1.1345e+02    6.5580e+02 ;     C9 - C13    - O3    
    10      3     21      1    1.1988e+02    3.7572e+02 ;    C10 - C3     - H3    
    10      9     13      1    1.2033e+02    5.1413e+02 ;    C10 - C9     - C13   
    10     15     25      1    1.0858e+02    5.6409e+02 ;    C10 - O2     - H7    
    11      4     22      1    1.1988e+02    3.7572e+02 ;    C11 - C4     - H4    
    11      6     12      1    1.2002e+02    5.3279e+02 ;    C11 - C6     - C12   
    11      6     24      1    1.1988e+02    3.7572e+02 ;    C11 - C6     - H6    
    12      6     24      1    1.1988e+02    3.7572e+02 ;    C12 - C6     - H6    
    13     16     26      1    1.0654e+02    5.7287e+02 ;    C13 - O3     - H8    
    14     13     16      1    1.2209e+02    8.5379e+02 ;     O1 - C13    - O3    

[ dihedrals ] ; propers
; for gromacs 4.5 or higher, using funct 9
;    i      j      k      l   func   phase     kd      pn
     1      3     10      9      9   180.00  15.16700   2 ;     C1-    C3-   C10-    C9
     1      3     10     15      9   180.00  15.16700   2 ;     C1-    C3-   C10-    O2
     1      7      5      9      9   180.00  15.16700   2 ;     C1-    C7-    C5-    C9
     1      7      5     23      9   180.00  15.16700   2 ;     C1-    C7-    C5-    H5
     1      7      8      2      9   180.00   3.20076   2 ;     C1-    C7-    C8-    C2
     1      7      8     12      9   180.00   3.20076   2 ;     C1-    C7-    C8-   C12
     2      4     11      6      9   180.00  15.16700   2 ;     C2-    C4-   C11-    C6
     2      4     11     17      9   180.00  15.16700   2 ;     C2-    C4-   C11-    F1
     2      8      7      5      9   180.00   3.20076   2 ;     C2-    C8-    C7-    C5
     2      8     12      6      9   180.00  15.16700   2 ;     C2-    C8-   C12-    C6
     2      8     12     18      9   180.00  15.16700   2 ;     C2-    C8-   C12-    F2
     3      1      7      5      9   180.00  15.16700   2 ;     C3-    C1-    C7-    C5
     3      1      7      8      9   180.00  15.16700   2 ;     C3-    C1-    C7-    C8
     3     10      9      5      9   180.00  15.16700   2 ;     C3-   C10-    C9-    C5
     3     10      9     13      9   180.00  15.16700   2 ;     C3-   C10-    C9-   C13
     3     10     15     25      9   180.00   3.57732   2 ;     C3-   C10-    O2-    H7
     4      2      8      7      9   180.00  15.16700   2 ;     C4-    C2-    C8-    C7
     4      2      8     12      9   180.00  15.16700   2 ;     C4-    C2-    C8-   C12
     4     11      6     12      9   180.00  15.16700   2 ;     C4-   C11-    C6-   C12
     4     11      6     24      9   180.00  15.16700   2 ;     C4-   C11-    C6-    H6
     5      7      8     12      9   180.00   3.20076   2 ;     C5-    C7-    C8-   C12
     5      9     10     15      9   180.00  15.16700   2 ;     C5-    C9-   C10-    O2
     5      9     13     14      9   180.00   2.42672   2 ;     C5-    C9-   C13-    O1
     5      9     13     16      9   180.00   4.18400   2 ;     C5-    C9-   C13-    O3
     6     11      4     22      9   180.00  15.16700   2 ;     C6-   C11-    C4-    H4
     6     12      8      7      9   180.00  15.16700   2 ;     C6-   C12-    C8-    C7
     7      1      3     10      9   180.00  15.16700   2 ;     C7-    C1-    C3-   C10
     7      1      3     21      9   180.00  15.16700   2 ;     C7-    C1-    C3-    H3
     7      5      9     10      9   180.00  15.16700   2 ;     C7-    C5-    C9-   C10
     7      5      9     13      9   180.00  15.16700   2 ;     C7-    C5-    C9-   C13
     7      8      2     20      9   180.00  15.16700   2 ;     C7-    C8-    C2-    H2
     7      8     12     18      9   180.00  15.16700   2 ;     C7-    C8-   C12-    F2
     8      2      4     11      9   180.00  15.16700   2 ;     C8-    C2-    C4-   C11
     8      2      4     22      9   180.00  15.16700   2 ;     C8-    C2-    C4-    H4
     8      7      5      9      9   180.00  15.16700   2 ;     C8-    C7-    C5-    C9
     8      7      5     23      9   180.00  15.16700   2 ;     C8-    C7-    C5-    H5
     8     12      6     11      9   180.00  15.16700   2 ;     C8-   C12-    C6-   C11
     8     12      6     24      9   180.00  15.16700   2 ;     C8-   C12-    C6-    H6
     9     10      3     21      9   180.00  15.16700   2 ;     C9-   C10-    C3-    H3
     9     10     15     25      9   180.00   3.57732   2 ;     C9-   C10-    O2-    H7
     9     13     16     26      9   180.00   9.62320   2 ;     C9-   C13-    O3-    H8
    10      9      5     23      9   180.00  15.16700   2 ;    C10-    C9-    C5-    H5
    10      9     13     14      9   180.00   2.42672   2 ;    C10-    C9-   C13-    O1
    10      9     13     16      9   180.00   4.18400   2 ;    C10-    C9-   C13-    O3
    11      4      2     20      9   180.00  15.16700   2 ;    C11-    C4-    C2-    H2
    11      6     12     18      9   180.00  15.16700   2 ;    C11-    C6-   C12-    F2
    12      6     11     17      9   180.00  15.16700   2 ;    C12-    C6-   C11-    F1
    12      8      2     20      9   180.00  15.16700   2 ;    C12-    C8-    C2-    H2
    13      9      5     23      9   180.00  15.16700   2 ;    C13-    C9-    C5-    H5
    13      9     10     15      9   180.00  15.16700   2 ;    C13-    C9-   C10-    O2
    14     13     16     26      9     0.00   7.94960   1 ;     O1-   C13-    O3-    H8
    14     13     16     26      9   180.00   9.62320   2 ;     O1-   C13-    O3-    H8
    15     10      3     21      9   180.00  15.16700   2 ;     O2-   C10-    C3-    H3
    17     11      4     22      9   180.00  15.16700   2 ;     F1-   C11-    C4-    H4
    17     11      6     24      9   180.00  15.16700   2 ;     F1-   C11-    C6-    H6
    18     12      6     24      9   180.00  15.16700   2 ;     F2-   C12-    C6-    H6
    19      1      3     10      9   180.00  15.16700   2 ;     H1-    C1-    C3-   C10
    19      1      3     21      9   180.00  15.16700   2 ;     H1-    C1-    C3-    H3
    19      1      7      5      9   180.00  15.16700   2 ;     H1-    C1-    C7-    C5
    19      1      7      8      9   180.00  15.16700   2 ;     H1-    C1-    C7-    C8
    20      2      4     22      9   180.00  15.16700   2 ;     H2-    C2-    C4-    H4

[ dihedrals ] ; impropers
; treated as propers in GROMACS to use correct AMBER analytical function
;    i      j      k      l   func   phase     kd      pn
     1      5      7      8      4   180.00   4.60240   2 ;     C1-    C5-    C7-    C8
     1     10      3     21      4   180.00   4.60240   2 ;     C1-   C10-    C3-    H3
     2     11      4     22      4   180.00   4.60240   2 ;     C2-   C11-    C4-    H4
     2     12      8      7      4   180.00   4.60240   2 ;     C2-   C12-    C8-    C7
     3      9     10     15      4   180.00   4.60240   2 ;     C3-    C9-   C10-    O2
     4      6     11     17      4   180.00   4.60240   2 ;     C4-    C6-   C11-    F1
     4      8      2     20      4   180.00   4.60240   2 ;     C4-    C8-    C2-    H2
     6      8     12     18      4   180.00   4.60240   2 ;     C6-    C8-   C12-    F2
     9      7      5     23      4   180.00   4.60240   2 ;     C9-    C7-    C5-    H5
     9     14     13     16      4   180.00   4.60240   2 ;     C9-    O1-   C13-    O3
    11     12      6     24      4   180.00   4.60240   2 ;    C11-   C12-    C6-    H6
    13      5      9     10      4   180.00   4.60240   2 ;    C13-    C5-    C9-   C10
    19      1      7      3      4   180.00   4.60240   2 ;     H1-    C1-    C7-    C3
