; mobley_129464_GMX.itp created by acpype (v: 2023.10.27) on Thu May 14 13:47:20 2026

[ atomtypes ]
;name   bond_type     mass     charge   ptype   sigma         epsilon       Amb
 c3       c3          0.00000  0.00000   A     3.39771e-01   4.51035e-01 ; 1.91  0.1078
 os       os          0.00000  0.00000   A     3.15610e-01   3.03758e-01 ; 1.77  0.0726
 hc       hc          0.00000  0.00000   A     2.60018e-01   8.70272e-02 ; 1.46  0.0208
 h1       h1          0.00000  0.00000   A     2.42200e-01   8.70272e-02 ; 1.36  0.0208

[ moleculetype ]
;name            nrexcl
 mobley_129464    3

[ atoms ]
;   nr  type  resi  res  atom  cgnr     charge      mass       ; qtot   bond_type
     1   c3     1   MOL    C1    1    -0.092100     12.01000 ; qtot -0.092
     2   c3     1   MOL    C2    2    -0.092100     12.01000 ; qtot -0.184
     3   c3     1   MOL    C3    3    -0.079400     12.01000 ; qtot -0.264
     4   c3     1   MOL    C4    4    -0.079400     12.01000 ; qtot -0.343
     5   c3     1   MOL    C5    5    -0.084400     12.01000 ; qtot -0.427
     6   c3     1   MOL    C6    6    -0.084400     12.01000 ; qtot -0.512
     7   c3     1   MOL    C7    7     0.131400     12.01000 ; qtot -0.380
     8   c3     1   MOL    C8    8     0.131400     12.01000 ; qtot -0.249
     9   os     1   MOL    O1    9    -0.423598     16.00000 ; qtot -0.673
    10   hc     1   MOL    H1   10     0.034033      1.00800 ; qtot -0.639
    11   hc     1   MOL    H2   11     0.034033      1.00800 ; qtot -0.605
    12   hc     1   MOL    H3   12     0.034033      1.00800 ; qtot -0.570
    13   hc     1   MOL    H4   13     0.034033      1.00800 ; qtot -0.536
    14   hc     1   MOL    H5   14     0.034033      1.00800 ; qtot -0.502
    15   hc     1   MOL    H6   15     0.034033      1.00800 ; qtot -0.468
    16   hc     1   MOL    H7   16     0.038700      1.00800 ; qtot -0.430
    17   hc     1   MOL    H8   17     0.038700      1.00800 ; qtot -0.391
    18   hc     1   MOL    H9   18     0.038700      1.00800 ; qtot -0.352
    19   hc     1   MOL   H10   19     0.038700      1.00800 ; qtot -0.314
    20   hc     1   MOL   H11   20     0.054700      1.00800 ; qtot -0.259
    21   hc     1   MOL   H12   21     0.054700      1.00800 ; qtot -0.204
    22   hc     1   MOL   H13   22     0.054700      1.00800 ; qtot -0.149
    23   hc     1   MOL   H14   23     0.054700      1.00800 ; qtot -0.095
    24   h1     1   MOL   H15   24     0.023700      1.00800 ; qtot -0.071
    25   h1     1   MOL   H16   25     0.023700      1.00800 ; qtot -0.047
    26   h1     1   MOL   H17   26     0.023700      1.00800 ; qtot -0.024
    27   h1     1   MOL   H18   27     0.023700      1.00800 ; qtot 0.000

[ bonds ]
;   ai     aj funct   r             k
     1      3   1    1.5354e-01    1.9154e+05 ;     C1 - C3    
     1     10   1    1.0962e-01    2.8891e+05 ;     C1 - H1    
     1     11   1    1.0962e-01    2.8891e+05 ;     C1 - H2    
     1     12   1    1.0962e-01    2.8891e+05 ;     C1 - H3    
     2      4   1    1.5354e-01    1.9154e+05 ;     C2 - C4    
     2     13   1    1.0962e-01    2.8891e+05 ;     C2 - H4    
     2     14   1    1.0962e-01    2.8891e+05 ;     C2 - H5    
     2     15   1    1.0962e-01    2.8891e+05 ;     C2 - H6    
     3      5   1    1.5354e-01    1.9154e+05 ;     C3 - C5    
     3     16   1    1.0962e-01    2.8891e+05 ;     C3 - H7    
     3     17   1    1.0962e-01    2.8891e+05 ;     C3 - H8    
     4      6   1    1.5354e-01    1.9154e+05 ;     C4 - C6    
     4     18   1    1.0962e-01    2.8891e+05 ;     C4 - H9    
     4     19   1    1.0962e-01    2.8891e+05 ;     C4 - H10   
     5      7   1    1.5354e-01    1.9154e+05 ;     C5 - C7    
     5     20   1    1.0962e-01    2.8891e+05 ;     C5 - H11   
     5     21   1    1.0962e-01    2.8891e+05 ;     C5 - H12   
     6      8   1    1.5354e-01    1.9154e+05 ;     C6 - C8    
     6     22   1    1.0962e-01    2.8891e+05 ;     C6 - H13   
     6     23   1    1.0962e-01    2.8891e+05 ;     C6 - H14   
     7      9   1    1.4273e-01    2.3620e+05 ;     C7 - O1    
     7     24   1    1.0969e-01    2.8804e+05 ;     C7 - H15   
     7     25   1    1.0969e-01    2.8804e+05 ;     C7 - H16   
     8      9   1    1.4273e-01    2.3620e+05 ;     C8 - O1    
     8     26   1    1.0969e-01    2.8804e+05 ;     C8 - H17   
     8     27   1    1.0969e-01    2.8804e+05 ;     C8 - H18   

[ pairs ]
;   ai     aj    funct
     1      7      1 ;     C1 - C7    
     1     20      1 ;     C1 - H11   
     1     21      1 ;     C1 - H12   
     2      8      1 ;     C2 - C8    
     2     22      1 ;     C2 - H13   
     2     23      1 ;     C2 - H14   
     3      9      1 ;     C3 - O1    
     3     24      1 ;     C3 - H15   
     3     25      1 ;     C3 - H16   
     4      9      1 ;     C4 - O1    
     4     26      1 ;     C4 - H17   
     4     27      1 ;     C4 - H18   
     5      8      1 ;     C5 - C8    
     6      7      1 ;     C6 - C7    
     6     13      1 ;     C6 - H4    
     6     14      1 ;     C6 - H5    
     6     15      1 ;     C6 - H6    
     7     16      1 ;     C7 - H7    
     7     17      1 ;     C7 - H8    
     7     26      1 ;     C7 - H17   
     7     27      1 ;     C7 - H18   
     8     18      1 ;     C8 - H9    
     8     19      1 ;     C8 - H10   
     8     24      1 ;     C8 - H15   
     8     25      1 ;     C8 - H16   
     9     20      1 ;     O1 - H11   
     9     21      1 ;     O1 - H12   
     9     22      1 ;     O1 - H13   
     9     23      1 ;     O1 - H14   
    10      5      1 ;     H1 - C5    
    10     16      1 ;     H1 - H7    
    10     17      1 ;     H1 - H8    
    11      5      1 ;     H2 - C5    
    11     16      1 ;     H2 - H7    
    11     17      1 ;     H2 - H8    
    12      5      1 ;     H3 - C5    
    12     16      1 ;     H3 - H7    
    12     17      1 ;     H3 - H8    
    13     18      1 ;     H4 - H9    
    13     19      1 ;     H4 - H10   
    14     18      1 ;     H5 - H9    
    14     19      1 ;     H5 - H10   
    15     18      1 ;     H6 - H9    
    15     19      1 ;     H6 - H10   
    16     20      1 ;     H7 - H11   
    16     21      1 ;     H7 - H12   
    17     20      1 ;     H8 - H11   
    17     21      1 ;     H8 - H12   
    18     22      1 ;     H9 - H13   
    18     23      1 ;     H9 - H14   
    19     22      1 ;    H10 - H13   
    19     23      1 ;    H10 - H14   
    20     24      1 ;    H11 - H15   
    20     25      1 ;    H11 - H16   
    21     24      1 ;    H12 - H15   
    21     25      1 ;    H12 - H16   
    22     26      1 ;    H13 - H17   
    22     27      1 ;    H13 - H18   
    23     26      1 ;    H14 - H17   
    23     27      1 ;    H14 - H18   

[ angles ]
;   ai     aj     ak    funct   theta         cth
     1      3      5      1    1.1263e+02    5.0099e+02 ;     C1 - C3     - C5    
     1      3     16      1    1.0968e+02    3.6208e+02 ;     C1 - C3     - H7    
     1      3     17      1    1.0968e+02    3.6208e+02 ;     C1 - C3     - H8    
     2      4      6      1    1.1263e+02    5.0099e+02 ;     C2 - C4     - C6    
     2      4     18      1    1.0968e+02    3.6208e+02 ;     C2 - C4     - H9    
     2      4     19      1    1.0968e+02    3.6208e+02 ;     C2 - C4     - H10   
     3      1     10      1    1.0968e+02    3.6208e+02 ;     C3 - C1     - H1    
     3      1     11      1    1.0968e+02    3.6208e+02 ;     C3 - C1     - H2    
     3      1     12      1    1.0968e+02    3.6208e+02 ;     C3 - C1     - H3    
     3      5      7      1    1.1263e+02    5.0099e+02 ;     C3 - C5     - C7    
     3      5     20      1    1.0968e+02    3.6208e+02 ;     C3 - C5     - H11   
     3      5     21      1    1.0968e+02    3.6208e+02 ;     C3 - C5     - H12   
     4      2     13      1    1.0968e+02    3.6208e+02 ;     C4 - C2     - H4    
     4      2     14      1    1.0968e+02    3.6208e+02 ;     C4 - C2     - H5    
     4      2     15      1    1.0968e+02    3.6208e+02 ;     C4 - C2     - H6    
     4      6      8      1    1.1263e+02    5.0099e+02 ;     C4 - C6     - C8    
     4      6     22      1    1.0968e+02    3.6208e+02 ;     C4 - C6     - H13   
     4      6     23      1    1.0968e+02    3.6208e+02 ;     C4 - C6     - H14   
     5      3     16      1    1.0968e+02    3.6208e+02 ;     C5 - C3     - H7    
     5      3     17      1    1.0968e+02    3.6208e+02 ;     C5 - C3     - H8    
     5      7      9      1    1.0762e+02    6.4802e+02 ;     C5 - C7     - O1    
     5      7     24      1    1.0959e+02    3.6217e+02 ;     C5 - C7     - H15   
     5      7     25      1    1.0959e+02    3.6217e+02 ;     C5 - C7     - H16   
     6      4     18      1    1.0968e+02    3.6208e+02 ;     C6 - C4     - H9    
     6      4     19      1    1.0968e+02    3.6208e+02 ;     C6 - C4     - H10   
     6      8      9      1    1.0762e+02    6.4802e+02 ;     C6 - C8     - O1    
     6      8     26      1    1.0959e+02    3.6217e+02 ;     C6 - C8     - H17   
     6      8     27      1    1.0959e+02    3.6217e+02 ;     C6 - C8     - H18   
     7      5     20      1    1.0968e+02    3.6208e+02 ;     C7 - C5     - H11   
     7      5     21      1    1.0968e+02    3.6208e+02 ;     C7 - C5     - H12   
     7      9      8      1    1.1360e+02    7.3915e+02 ;     C7 - O1     - C8    
     8      6     22      1    1.0968e+02    3.6208e+02 ;     C8 - C6     - H13   
     8      6     23      1    1.0968e+02    3.6208e+02 ;     C8 - C6     - H14   
     9      7     24      1    1.1034e+02    4.7028e+02 ;     O1 - C7     - H15   
     9      7     25      1    1.1034e+02    4.7028e+02 ;     O1 - C7     - H16   
     9      8     26      1    1.1034e+02    4.7028e+02 ;     O1 - C8     - H17   
     9      8     27      1    1.1034e+02    4.7028e+02 ;     O1 - C8     - H18   
    10      1     11      1    1.0773e+02    2.9957e+02 ;     H1 - C1     - H2    
    10      1     12      1    1.0773e+02    2.9957e+02 ;     H1 - C1     - H3    
    11      1     12      1    1.0773e+02    2.9957e+02 ;     H2 - C1     - H3    
    13      2     14      1    1.0773e+02    2.9957e+02 ;     H4 - C2     - H5    
    13      2     15      1    1.0773e+02    2.9957e+02 ;     H4 - C2     - H6    
    14      2     15      1    1.0773e+02    2.9957e+02 ;     H5 - C2     - H6    
    16      3     17      1    1.0773e+02    2.9957e+02 ;     H7 - C3     - H8    
    18      4     19      1    1.0773e+02    2.9957e+02 ;     H9 - C4     - H10   
    20      5     21      1    1.0773e+02    2.9957e+02 ;    H11 - C5     - H12   
    22      6     23      1    1.0773e+02    2.9957e+02 ;    H13 - C6     - H14   
    24      7     25      1    1.0855e+02    2.9824e+02 ;    H15 - C7     - H16   
    26      8     27      1    1.0855e+02    2.9824e+02 ;    H17 - C8     - H18   

[ dihedrals ] ; propers
; for gromacs 4.5 or higher, using funct 9
;    i      j      k      l   func   phase     kd      pn
     1      3      5      7      9     0.00   2.17568   3 ;     C1-    C3-    C5-    C7
     1      3      5     20      9     0.00   0.54392   3 ;     C1-    C3-    C5-   H11
     1      3      5     21      9     0.00   0.54392   3 ;     C1-    C3-    C5-   H12
     2      4      6      8      9     0.00   2.17568   3 ;     C2-    C4-    C6-    C8
     2      4      6     22      9     0.00   0.54392   3 ;     C2-    C4-    C6-   H13
     2      4      6     23      9     0.00   0.54392   3 ;     C2-    C4-    C6-   H14
     3      5      7      9      9     0.00   0.65084   3 ;     C3-    C5-    C7-    O1
     3      5      7     24      9     0.00   0.65084   3 ;     C3-    C5-    C7-   H15
     3      5      7     25      9     0.00   0.65084   3 ;     C3-    C5-    C7-   H16
     4      6      8      9      9     0.00   0.65084   3 ;     C4-    C6-    C8-    O1
     4      6      8     26      9     0.00   0.65084   3 ;     C4-    C6-    C8-   H17
     4      6      8     27      9     0.00   0.65084   3 ;     C4-    C6-    C8-   H18
     5      7      9      8      9     0.00   0.33472   2 ;     C5-    C7-    O1-    C8
     5      7      9      8      9     0.00   3.13800   3 ;     C5-    C7-    O1-    C8
     5      7      9      8      9   180.00   3.68192   1 ;     C5-    C7-    O1-    C8
     6      4      2     13      9     0.00   0.54392   3 ;     C6-    C4-    C2-    H4
     6      4      2     14      9     0.00   0.54392   3 ;     C6-    C4-    C2-    H5
     6      4      2     15      9     0.00   0.54392   3 ;     C6-    C4-    C2-    H6
     6      8      9      7      9     0.00   0.33472   2 ;     C6-    C8-    O1-    C7
     6      8      9      7      9     0.00   3.13800   3 ;     C6-    C8-    O1-    C7
     6      8      9      7      9   180.00   3.68192   1 ;     C6-    C8-    O1-    C7
     7      5      3     16      9     0.00   0.54392   3 ;     C7-    C5-    C3-    H7
     7      5      3     17      9     0.00   0.54392   3 ;     C7-    C5-    C3-    H8
     7      9      8     26      9     0.00   1.41001   3 ;     C7-    O1-    C8-   H17
     7      9      8     27      9     0.00   1.41001   3 ;     C7-    O1-    C8-   H18
     8      6      4     18      9     0.00   0.54392   3 ;     C8-    C6-    C4-    H9
     8      6      4     19      9     0.00   0.54392   3 ;     C8-    C6-    C4-   H10
     8      9      7     24      9     0.00   1.41001   3 ;     C8-    O1-    C7-   H15
     8      9      7     25      9     0.00   1.41001   3 ;     C8-    O1-    C7-   H16
     9      7      5     20      9     0.00   0.00000   0 ;     O1-    C7-    C5-   H11
     9      7      5     20      9     0.00   1.04600   1 ;     O1-    C7-    C5-   H11
     9      7      5     21      9     0.00   0.00000   0 ;     O1-    C7-    C5-   H12
     9      7      5     21      9     0.00   1.04600   1 ;     O1-    C7-    C5-   H12
     9      8      6     22      9     0.00   0.00000   0 ;     O1-    C8-    C6-   H13
     9      8      6     22      9     0.00   1.04600   1 ;     O1-    C8-    C6-   H13
     9      8      6     23      9     0.00   0.00000   0 ;     O1-    C8-    C6-   H14
     9      8      6     23      9     0.00   1.04600   1 ;     O1-    C8-    C6-   H14
    10      1      3      5      9     0.00   0.54392   3 ;     H1-    C1-    C3-    C5
    10      1      3     16      9     0.00   0.50208   3 ;     H1-    C1-    C3-    H7
    10      1      3     17      9     0.00   0.50208   3 ;     H1-    C1-    C3-    H8
    11      1      3      5      9     0.00   0.54392   3 ;     H2-    C1-    C3-    C5
    11      1      3     16      9     0.00   0.50208   3 ;     H2-    C1-    C3-    H7
    11      1      3     17      9     0.00   0.50208   3 ;     H2-    C1-    C3-    H8
    12      1      3      5      9     0.00   0.54392   3 ;     H3-    C1-    C3-    C5
    12      1      3     16      9     0.00   0.50208   3 ;     H3-    C1-    C3-    H7
    12      1      3     17      9     0.00   0.50208   3 ;     H3-    C1-    C3-    H8
    13      2      4     18      9     0.00   0.50208   3 ;     H4-    C2-    C4-    H9
    13      2      4     19      9     0.00   0.50208   3 ;     H4-    C2-    C4-   H10
    14      2      4     18      9     0.00   0.50208   3 ;     H5-    C2-    C4-    H9
    14      2      4     19      9     0.00   0.50208   3 ;     H5-    C2-    C4-   H10
    15      2      4     18      9     0.00   0.50208   3 ;     H6-    C2-    C4-    H9
    15      2      4     19      9     0.00   0.50208   3 ;     H6-    C2-    C4-   H10
    16      3      5     20      9     0.00   0.50208   3 ;     H7-    C3-    C5-   H11
    16      3      5     21      9     0.00   0.50208   3 ;     H7-    C3-    C5-   H12
    17      3      5     20      9     0.00   0.50208   3 ;     H8-    C3-    C5-   H11
    17      3      5     21      9     0.00   0.50208   3 ;     H8-    C3-    C5-   H12
    18      4      6     22      9     0.00   0.50208   3 ;     H9-    C4-    C6-   H13
    18      4      6     23      9     0.00   0.50208   3 ;     H9-    C4-    C6-   H14
    19      4      6     22      9     0.00   0.50208   3 ;    H10-    C4-    C6-   H13
    19      4      6     23      9     0.00   0.50208   3 ;    H10-    C4-    C6-   H14
    20      5      7     24      9     0.00   0.65084   3 ;    H11-    C5-    C7-   H15
    20      5      7     25      9     0.00   0.65084   3 ;    H11-    C5-    C7-   H16
    21      5      7     24      9     0.00   0.65084   3 ;    H12-    C5-    C7-   H15
    21      5      7     25      9     0.00   0.65084   3 ;    H12-    C5-    C7-   H16
    22      6      8     26      9     0.00   0.65084   3 ;    H13-    C6-    C8-   H17
    22      6      8     27      9     0.00   0.65084   3 ;    H13-    C6-    C8-   H18
    23      6      8     26      9     0.00   0.65084   3 ;    H14-    C6-    C8-   H17
    23      6      8     27      9     0.00   0.65084   3 ;    H14-    C6-    C8-   H18
