; mobley_929676_GMX.top created by acpype (v: 2023.10.27) on Thu May 14 14:00:50 2026

[ defaults ]
; nbfunc        comb-rule       gen-pairs       fudgeLJ fudgeQQ
1               2               yes             0.5     0.8333333333

; Include mobley_929676_GMX.itp topology
#include "mobley_929676_GMX.itp"

; Ligand position restraints
#ifdef POSRES_LIG
#include "posre_mobley_929676.itp"
#endif

#include "../common/SOL.TIP3P.itp"

[ system ]
mobley_929676 in water

[ molecules ]
; Compound        nmols
 mobley_929676    1     
SOL               774
