; mobley_9653690_GMX.itp created by acpype (v: 2023.10.27) on Thu May 14 13:31:54 2026

[ atomtypes ]
;name   bond_type     mass     charge   ptype   sigma         epsilon       Amb
 c2       c2          0.00000  0.00000   A     3.31521e-01   4.13379e-01 ; 1.86  0.0988
 c6       c6          0.00000  0.00000   A     3.39771e-01   4.51035e-01 ; 1.91  0.1078
 c3       c3          0.00000  0.00000   A     3.39771e-01   4.51035e-01 ; 1.91  0.1078
 oh       oh          0.00000  0.00000   A     3.24287e-01   3.89112e-01 ; 1.82  0.0930
 ha       ha          0.00000  0.00000   A     2.62548e-01   6.73624e-02 ; 1.47  0.0161
 hc       hc          0.00000  0.00000   A     2.60018e-01   8.70272e-02 ; 1.46  0.0208
 h1       h1          0.00000  0.00000   A     2.42200e-01   8.70272e-02 ; 1.36  0.0208
 ho       ho          0.00000  0.00000   A     5.37925e-02   1.96648e-02 ; 0.30  0.0047

[ moleculetype ]
;name            nrexcl
 mobley_9653690   3

[ atoms ]
;   nr  type  resi  res  atom  cgnr     charge      mass       ; qtot   bond_type
     1   c2     1   MOL    C1    1    -0.157200     12.01000 ; qtot -0.157
     2   c2     1   MOL    C2    2    -0.111400     12.01000 ; qtot -0.269
     3   c2     1   MOL    C3    3    -0.224000     12.01000 ; qtot -0.493
     4   c2     1   MOL    C4    4    -0.111400     12.01000 ; qtot -0.604
     5   c6     1   MOL    C5    5    -0.041200     12.01000 ; qtot -0.645
     6   c6     1   MOL    C6    6    -0.103400     12.01000 ; qtot -0.749
     7   c6     1   MOL    C7    7     0.179300     12.01000 ; qtot -0.569
     8   c6     1   MOL    C8    8    -0.029500     12.01000 ; qtot -0.599
     9   c3     1   MOL    C9    9    -0.056900     12.01000 ; qtot -0.656
    10   c3     1   MOL   C10   10    -0.060900     12.01000 ; qtot -0.717
    11   oh     1   MOL    O1   11    -0.595799     16.00000 ; qtot -1.312
    12   ha     1   MOL    H1   12     0.124000      1.00800 ; qtot -1.188
    13   ha     1   MOL    H2   13     0.113000      1.00800 ; qtot -1.075
    14   ha     1   MOL    H3   14     0.113000      1.00800 ; qtot -0.962
    15   hc     1   MOL    H4   15     0.052200      1.00800 ; qtot -0.910
    16   hc     1   MOL    H5   16     0.052200      1.00800 ; qtot -0.858
    17   hc     1   MOL    H6   17     0.048200      1.00800 ; qtot -0.810
    18   hc     1   MOL    H7   18     0.048200      1.00800 ; qtot -0.762
    19   h1     1   MOL    H8   19     0.035700      1.00800 ; qtot -0.726
    20   hc     1   MOL    H9   20     0.067700      1.00800 ; qtot -0.658
    21   hc     1   MOL   H10   21     0.045033      1.00800 ; qtot -0.613
    22   hc     1   MOL   H11   22     0.045033      1.00800 ; qtot -0.568
    23   hc     1   MOL   H12   23     0.045033      1.00800 ; qtot -0.523
    24   hc     1   MOL   H13   24     0.041700      1.00800 ; qtot -0.481
    25   hc     1   MOL   H14   25     0.041700      1.00800 ; qtot -0.440
    26   hc     1   MOL   H15   26     0.041700      1.00800 ; qtot -0.398
    27   ho     1   MOL   H16   27     0.398000      1.00800 ; qtot 0.000

[ bonds ]
;   ai     aj funct   r             k
     1      2   1    1.3379e-01    3.6484e+05 ;     C1 - C2    
     1      5   1    1.5133e-01    2.0498e+05 ;     C1 - C5    
     1     12   1    1.0882e-01    2.9898e+05 ;     C1 - H1    
     2      7   1    1.5133e-01    2.0498e+05 ;     C2 - C7    
     2      9   1    1.5088e-01    2.0786e+05 ;     C2 - C9    
     3      4   1    1.3379e-01    3.6484e+05 ;     C3 - C4    
     3     13   1    1.0882e-01    2.9898e+05 ;     C3 - H2    
     3     14   1    1.0882e-01    2.9898e+05 ;     C3 - H3    
     4      8   1    1.5133e-01    2.0498e+05 ;     C4 - C8    
     4     10   1    1.5088e-01    2.0786e+05 ;     C4 - C10   
     5      8   1    1.5384e-01    1.8979e+05 ;     C5 - C8    
     5     15   1    1.0979e-01    2.8681e+05 ;     C5 - H4    
     5     16   1    1.0979e-01    2.8681e+05 ;     C5 - H5    
     6      7   1    1.5384e-01    1.8979e+05 ;     C6 - C7    
     6      8   1    1.5384e-01    1.8979e+05 ;     C6 - C8    
     6     17   1    1.0979e-01    2.8681e+05 ;     C6 - H6    
     6     18   1    1.0979e-01    2.8681e+05 ;     C6 - H7    
     7     11   1    1.4241e-01    2.3870e+05 ;     C7 - O1    
     7     19   1    1.0984e-01    2.8620e+05 ;     C7 - H8    
     8     20   1    1.0979e-01    2.8681e+05 ;     C8 - H9    
     9     21   1    1.0962e-01    2.8891e+05 ;     C9 - H10   
     9     22   1    1.0962e-01    2.8891e+05 ;     C9 - H11   
     9     23   1    1.0962e-01    2.8891e+05 ;     C9 - H12   
    10     24   1    1.0962e-01    2.8891e+05 ;    C10 - H13   
    10     25   1    1.0962e-01    2.8891e+05 ;    C10 - H14   
    10     26   1    1.0962e-01    2.8891e+05 ;    C10 - H15   
    11     27   1    9.7250e-02    4.4811e+05 ;     O1 - H16   

[ pairs ]
;   ai     aj    funct
     1      4      1 ;     C1 - C4    
     1      6      1 ;     C1 - C6    
     1     11      1 ;     C1 - O1    
     1     19      1 ;     C1 - H8    
     1     20      1 ;     C1 - H9    
     1     21      1 ;     C1 - H10   
     1     22      1 ;     C1 - H11   
     1     23      1 ;     C1 - H12   
     2      8      1 ;     C2 - C8    
     2     15      1 ;     C2 - H4    
     2     16      1 ;     C2 - H5    
     2     17      1 ;     C2 - H6    
     2     18      1 ;     C2 - H7    
     2     27      1 ;     C2 - H16   
     3      5      1 ;     C3 - C5    
     3      6      1 ;     C3 - C6    
     3     20      1 ;     C3 - H9    
     3     24      1 ;     C3 - H13   
     3     25      1 ;     C3 - H14   
     3     26      1 ;     C3 - H15   
     4      7      1 ;     C4 - C7    
     4     15      1 ;     C4 - H4    
     4     16      1 ;     C4 - H5    
     4     17      1 ;     C4 - H6    
     4     18      1 ;     C4 - H7    
     5      7      1 ;     C5 - C7    
     5      9      1 ;     C5 - C9    
     5     10      1 ;     C5 - C10   
     5     17      1 ;     C5 - H6    
     5     18      1 ;     C5 - H7    
     6      9      1 ;     C6 - C9    
     6     10      1 ;     C6 - C10   
     6     15      1 ;     C6 - H4    
     6     16      1 ;     C6 - H5    
     6     27      1 ;     C6 - H16   
     7     20      1 ;     C7 - H9    
     7     21      1 ;     C7 - H10   
     7     22      1 ;     C7 - H11   
     7     23      1 ;     C7 - H12   
     8     11      1 ;     C8 - O1    
     8     13      1 ;     C8 - H2    
     8     14      1 ;     C8 - H3    
     8     19      1 ;     C8 - H8    
     8     24      1 ;     C8 - H13   
     8     25      1 ;     C8 - H14   
     8     26      1 ;     C8 - H15   
     9     11      1 ;     C9 - O1    
     9     19      1 ;     C9 - H8    
    10     13      1 ;    C10 - H2    
    10     14      1 ;    C10 - H3    
    10     20      1 ;    C10 - H9    
    11     17      1 ;     O1 - H6    
    11     18      1 ;     O1 - H7    
    12      7      1 ;     H1 - C7    
    12      8      1 ;     H1 - C8    
    12      9      1 ;     H1 - C9    
    12     15      1 ;     H1 - H4    
    12     16      1 ;     H1 - H5    
    15     20      1 ;     H4 - H9    
    16     20      1 ;     H5 - H9    
    17     19      1 ;     H6 - H8    
    17     20      1 ;     H6 - H9    
    18     19      1 ;     H7 - H8    
    18     20      1 ;     H7 - H9    
    19     27      1 ;     H8 - H16   

[ angles ]
;   ai     aj     ak    funct   theta         cth
     1      2      7      1    1.2302e+02    5.1246e+02 ;     C1 - C2     - C7    
     1      2      9      1    1.2495e+02    5.0944e+02 ;     C1 - C2     - C9    
     1      5      8      1    1.1141e+02    5.0685e+02 ;     C1 - C5     - C8    
     1      5     15      1    1.0931e+02    3.6736e+02 ;     C1 - C5     - H4    
     1      5     16      1    1.0931e+02    3.6736e+02 ;     C1 - C5     - H5    
     2      1      5      1    1.2302e+02    5.1246e+02 ;     C2 - C1     - C5    
     2      1     12      1    1.2039e+02    3.8802e+02 ;     C2 - C1     - H1    
     2      7      6      1    1.1141e+02    5.0685e+02 ;     C2 - C7     - C6    
     2      7     11      1    1.1006e+02    6.4685e+02 ;     C2 - C7     - O1    
     2      7     19      1    1.0930e+02    3.6736e+02 ;     C2 - C7     - H8    
     2      9     21      1    1.1065e+02    3.6618e+02 ;     C2 - C9     - H10   
     2      9     22      1    1.1065e+02    3.6618e+02 ;     C2 - C9     - H11   
     2      9     23      1    1.1065e+02    3.6618e+02 ;     C2 - C9     - H12   
     3      4      8      1    1.2302e+02    5.1246e+02 ;     C3 - C4     - C8    
     3      4     10      1    1.2495e+02    5.0944e+02 ;     C3 - C4     - C10   
     4      3     13      1    1.2039e+02    3.8802e+02 ;     C4 - C3     - H2    
     4      3     14      1    1.2039e+02    3.8802e+02 ;     C4 - C3     - H3    
     4      8      5      1    1.1141e+02    5.0685e+02 ;     C4 - C8     - C5    
     4      8      6      1    1.1141e+02    5.0685e+02 ;     C4 - C8     - C6    
     4      8     20      1    1.0931e+02    3.6736e+02 ;     C4 - C8     - H9    
     4     10     24      1    1.1065e+02    3.6618e+02 ;     C4 - C10    - H13   
     4     10     25      1    1.1065e+02    3.6618e+02 ;     C4 - C10    - H14   
     4     10     26      1    1.1065e+02    3.6618e+02 ;     C4 - C10    - H15   
     5      1     12      1    1.1657e+02    3.5606e+02 ;     C5 - C1     - H1    
     5      8      6      1    1.1106e+02    5.0359e+02 ;     C5 - C8     - C6    
     5      8     20      1    1.0945e+02    3.6175e+02 ;     C5 - C8     - H9    
     6      7     11      1    1.1005e+02    6.4065e+02 ;     C6 - C7     - O1    
     6      7     19      1    1.0918e+02    3.6217e+02 ;     C6 - C7     - H8    
     6      8     20      1    1.0945e+02    3.6175e+02 ;     C6 - C8     - H9    
     7      2      9      1    1.1671e+02    5.0016e+02 ;     C7 - C2     - C9    
     7      6      8      1    1.1106e+02    5.0359e+02 ;     C7 - C6     - C8    
     7      6     17      1    1.0945e+02    3.6175e+02 ;     C7 - C6     - H6    
     7      6     18      1    1.0945e+02    3.6175e+02 ;     C7 - C6     - H7    
     7     11     27      1    1.0707e+02    5.4584e+02 ;     C7 - O1     - H16   
     8      4     10      1    1.1671e+02    5.0016e+02 ;     C8 - C4     - C10   
     8      5     15      1    1.0945e+02    3.6175e+02 ;     C8 - C5     - H4    
     8      5     16      1    1.0945e+02    3.6175e+02 ;     C8 - C5     - H5    
     8      6     17      1    1.0945e+02    3.6175e+02 ;     C8 - C6     - H6    
     8      6     18      1    1.0945e+02    3.6175e+02 ;     C8 - C6     - H7    
    11      7     19      1    1.0996e+02    4.7187e+02 ;     O1 - C7     - H8    
    13      3     14      1    1.1666e+02    2.9003e+02 ;     H2 - C3     - H3    
    15      5     16      1    1.0662e+02    3.0066e+02 ;     H4 - C5     - H5    
    17      6     18      1    1.0662e+02    3.0066e+02 ;     H6 - C6     - H7    
    21      9     22      1    1.0773e+02    2.9957e+02 ;    H10 - C9     - H11   
    21      9     23      1    1.0773e+02    2.9957e+02 ;    H10 - C9     - H12   
    22      9     23      1    1.0773e+02    2.9957e+02 ;    H11 - C9     - H12   
    24     10     25      1    1.0773e+02    2.9957e+02 ;    H13 - C10    - H14   
    24     10     26      1    1.0773e+02    2.9957e+02 ;    H13 - C10    - H15   
    25     10     26      1    1.0773e+02    2.9957e+02 ;    H14 - C10    - H15   

[ dihedrals ] ; propers
; for gromacs 4.5 or higher, using funct 9
;    i      j      k      l   func   phase     kd      pn
     1      2      7      6      9     0.00   0.00000   0 ;     C1-    C2-    C7-    C6
     1      2      7     11      9     0.00   0.00000   0 ;     C1-    C2-    C7-    O1
     1      2      7     19      9     0.00   0.00000   0 ;     C1-    C2-    C7-    H8
     1      2      9     21      9   180.00   1.08784   3 ;     C1-    C2-    C9-   H10
     1      2      9     22      9   180.00   1.08784   3 ;     C1-    C2-    C9-   H11
     1      2      9     23      9   180.00   1.08784   3 ;     C1-    C2-    C9-   H12
     1      5      8      4      9     0.00   0.65084   3 ;     C1-    C5-    C8-    C4
     1      5      8      6      9     0.00   0.65084   3 ;     C1-    C5-    C8-    C6
     1      5      8     20      9     0.00   0.65084   3 ;     C1-    C5-    C8-    H9
     2      1      5      8      9     0.00   0.00000   0 ;     C2-    C1-    C5-    C8
     2      1      5     15      9   180.00   1.08784   3 ;     C2-    C1-    C5-    H4
     2      1      5     16      9   180.00   1.08784   3 ;     C2-    C1-    C5-    H5
     2      7      6      8      9     0.00   0.65084   3 ;     C2-    C7-    C6-    C8
     2      7      6     17      9     0.00   0.65084   3 ;     C2-    C7-    C6-    H6
     2      7      6     18      9     0.00   0.65084   3 ;     C2-    C7-    C6-    H7
     2      7     11     27      9     0.00   0.69733   3 ;     C2-    C7-    O1-   H16
     3      4      8      5      9     0.00   0.00000   0 ;     C3-    C4-    C8-    C5
     3      4      8      6      9     0.00   0.00000   0 ;     C3-    C4-    C8-    C6
     3      4      8     20      9   180.00   1.08784   3 ;     C3-    C4-    C8-    H9
     3      4     10     24      9   180.00   1.08784   3 ;     C3-    C4-   C10-   H13
     3      4     10     25      9   180.00   1.08784   3 ;     C3-    C4-   C10-   H14
     3      4     10     26      9   180.00   1.08784   3 ;     C3-    C4-   C10-   H15
     4      8      5     15      9     0.00   0.65084   3 ;     C4-    C8-    C5-    H4
     4      8      5     16      9     0.00   0.65084   3 ;     C4-    C8-    C5-    H5
     4      8      6      7      9     0.00   0.65084   3 ;     C4-    C8-    C6-    C7
     4      8      6     17      9     0.00   0.65084   3 ;     C4-    C8-    C6-    H6
     4      8      6     18      9     0.00   0.65084   3 ;     C4-    C8-    C6-    H7
     5      1      2      7      9     0.00   0.62760   1 ;     C5-    C1-    C2-    C7
     5      1      2      7      9   180.00   5.56472   3 ;     C5-    C1-    C2-    C7
     5      1      2      7      9   180.00  24.18352   2 ;     C5-    C1-    C2-    C7
     5      1      2      9      9     0.00   0.62760   1 ;     C5-    C1-    C2-    C9
     5      1      2      9      9   180.00   5.56472   3 ;     C5-    C1-    C2-    C9
     5      1      2      9      9   180.00  24.18352   2 ;     C5-    C1-    C2-    C9
     5      8      4     10      9     0.00   0.00000   0 ;     C5-    C8-    C4-   C10
     5      8      6      7      9     0.00   2.17568   3 ;     C5-    C8-    C6-    C7
     5      8      6     17      9     0.00   0.54392   3 ;     C5-    C8-    C6-    H6
     5      8      6     18      9     0.00   0.54392   3 ;     C5-    C8-    C6-    H7
     6      7      2      9      9     0.00   0.00000   0 ;     C6-    C7-    C2-    C9
     6      7     11     27      9     0.00   0.25104   3 ;     C6-    C7-    O1-   H16
     6      8      4     10      9     0.00   0.00000   0 ;     C6-    C8-    C4-   C10
     6      8      5     15      9     0.00   0.54392   3 ;     C6-    C8-    C5-    H4
     6      8      5     16      9     0.00   0.54392   3 ;     C6-    C8-    C5-    H5
     7      2      9     21      9     0.00   0.62760   3 ;     C7-    C2-    C9-   H10
     7      2      9     22      9     0.00   0.62760   3 ;     C7-    C2-    C9-   H11
     7      2      9     23      9     0.00   0.62760   3 ;     C7-    C2-    C9-   H12
     7      6      8     20      9     0.00   0.54392   3 ;     C7-    C6-    C8-    H9
     8      4      3     13      9   180.00  27.82360   2 ;     C8-    C4-    C3-    H2
     8      4      3     14      9   180.00  27.82360   2 ;     C8-    C4-    C3-    H3
     8      4     10     24      9     0.00   0.62760   3 ;     C8-    C4-   C10-   H13
     8      4     10     25      9     0.00   0.62760   3 ;     C8-    C4-   C10-   H14
     8      4     10     26      9     0.00   0.62760   3 ;     C8-    C4-   C10-   H15
     8      6      7     11      9     0.00   0.75312   3 ;     C8-    C6-    C7-    O1
     8      6      7     19      9     0.00   0.65084   3 ;     C8-    C6-    C7-    H8
     9      2      7     11      9     0.00   0.00000   0 ;     C9-    C2-    C7-    O1
     9      2      7     19      9     0.00   0.00000   0 ;     C9-    C2-    C7-    H8
    10      4      3     13      9   180.00  27.82360   2 ;    C10-    C4-    C3-    H2
    10      4      3     14      9   180.00  27.82360   2 ;    C10-    C4-    C3-    H3
    10      4      8     20      9     0.00   0.62760   3 ;    C10-    C4-    C8-    H9
    11      7      6     17      9     0.00   0.37656   3 ;     O1-    C7-    C6-    H6
    11      7      6     18      9     0.00   0.37656   3 ;     O1-    C7-    C6-    H7
    12      1      2      7      9   180.00  27.82360   2 ;     H1-    C1-    C2-    C7
    12      1      2      9      9   180.00  27.82360   2 ;     H1-    C1-    C2-    C9
    12      1      5      8      9     0.00   0.00000   0 ;     H1-    C1-    C5-    C8
    12      1      5     15      9     0.00   0.00000   0 ;     H1-    C1-    C5-    H4
    12      1      5     16      9     0.00   0.00000   0 ;     H1-    C1-    C5-    H5
    15      5      8     20      9     0.00   0.50208   3 ;     H4-    C5-    C8-    H9
    16      5      8     20      9     0.00   0.50208   3 ;     H5-    C5-    C8-    H9
    17      6      7     19      9     0.00   0.65084   3 ;     H6-    C6-    C7-    H8
    17      6      8     20      9     0.00   0.50208   3 ;     H6-    C6-    C8-    H9
    18      6      7     19      9     0.00   0.65084   3 ;     H7-    C6-    C7-    H8
    18      6      8     20      9     0.00   0.50208   3 ;     H7-    C6-    C8-    H9
    19      7     11     27      9     0.00   0.51463   3 ;     H8-    C7-    O1-   H16

[ dihedrals ] ; impropers
; treated as propers in GROMACS to use correct AMBER analytical function
;    i      j      k      l   func   phase     kd      pn
     1      9      2      7      4   180.00   4.60240   2 ;     C1-    C9-    C2-    C7
     3     10      4      8      4   180.00   4.60240   2 ;     C3-   C10-    C4-    C8
     4     13      3     14      4   180.00   4.60240   2 ;     C4-    H2-    C3-    H3
    12      1      5      2      4   180.00   4.60240   2 ;     H1-    C1-    C5-    C2
