mobley_7542832_GMX.gro created by acpype (v: 2023.10.27) on Thu May 14 13:50:08 2026
 2409
    1MOL     C1    1   1.090   1.502   1.419
    1MOL     C2    2   1.818   1.389   1.462
    1MOL     C3    3   1.221   1.527   1.491
    1MOL     C4    4   1.693   1.452   1.520
    1MOL     C5    5   1.338   1.457   1.423
    1MOL     C6    6   1.569   1.420   1.437
    1MOL     O1    7   1.456   1.483   1.496
    1MOL     H1    8   1.066   1.395   1.416
    1MOL     H2    9   1.008   1.553   1.471
    1MOL     H3   10   1.094   1.540   1.316
    1MOL     H4   11   1.837   1.426   1.360
    1MOL     H5   12   1.905   1.414   1.523
    1MOL     H6   13   1.809   1.280   1.457
    1MOL     H7   14   1.213   1.492   1.595
    1MOL     H8   15   1.241   1.634   1.497
    1MOL     H9   16   1.705   1.561   1.527
    1MOL    H10   17   1.678   1.417   1.623
    1MOL    H11   18   1.322   1.349   1.419
    1MOL    H12   19   1.351   1.494   1.321
    1MOL    H13   20   1.580   1.458   1.335
    1MOL    H14   21   1.551   1.312   1.433
    2SOL     OW   22   0.230   0.628   0.113
    2SOL    HW1   23   0.137   0.626   0.150
    2SOL    HW2   24   0.231   0.589   0.021
    3SOL     OW   25   0.225   0.275   0.996
    3SOL    HW1   26   0.260   0.258   1.088
    3SOL    HW2   27   0.137   0.230   0.984
    4SOL     OW   28   0.019   0.368   0.647
    4SOL    HW1   29  -0.063   0.411   0.686
    4SOL    HW2   30  -0.009   0.295   0.584
    5SOL     OW   31   0.569   1.275   1.165
    5SOL    HW1   32   0.476   1.268   1.128
    5SOL    HW2   33   0.580   1.364   1.209
    6SOL     OW   34   1.555   1.511   0.703
    6SOL    HW1   35   1.498   1.495   0.784
    6SOL    HW2   36   1.496   1.521   0.623
    7SOL     OW   37   1.135   0.703   0.717
    7SOL    HW1   38   1.192   0.781   0.692
    7SOL    HW2   39   1.075   0.729   0.793
    8SOL     OW   40   1.755   0.607   0.231
    8SOL    HW1   41   1.743   0.594   0.132
    8SOL    HW2   42   1.725   0.526   0.280
    9SOL     OW   43   0.768   1.144   1.023
    9SOL    HW1   44   0.690   1.161   1.083
    9SOL    HW2   45   0.802   1.231   0.987
   10SOL     OW   46   0.850   0.798   1.823
   10SOL    HW1   47   0.846   0.874   1.888
   10SOL    HW2   48   0.872   0.834   1.732
   11SOL     OW   49   0.685   1.012   0.665
   11SOL    HW1   50   0.754   0.996   0.735
   11SOL    HW2   51   0.612   1.069   0.703
   12SOL     OW   52   0.686   1.161   1.803
   12SOL    HW1   53   0.746   1.240   1.817
   12SOL    HW2   54   0.600   1.192   1.762
   13SOL     OW   55   0.335   1.435   1.061
   13SOL    HW1   56   0.257   1.404   1.008
   13SOL    HW2   57   0.393   1.493   1.004
   14SOL     OW   58   0.438   0.392   1.499
   14SOL    HW1   59   0.520   0.336   1.508
   14SOL    HW2   60   0.357   0.334   1.503
   15SOL     OW   61   1.603   0.447   0.737
   15SOL    HW1   62   1.529   0.493   0.687
   15SOL    HW2   63   1.654   0.515   0.790
   16SOL     OW   64   0.231   1.713   0.483
   16SOL    HW1   65   0.265   1.790   0.537
   16SOL    HW2   66   0.275   1.713   0.393
   17SOL     OW   67   1.127   1.341   1.690
   17SOL    HW1   68   1.174   1.341   1.778
   17SOL    HW2   69   1.079   1.254   1.679
   18SOL     OW   70   0.230   1.434   0.538
   18SOL    HW1   71   0.204   1.530   0.538
   18SOL    HW2   72   0.159   1.380   0.583
   19SOL     OW   73   0.240   1.091   0.886
   19SOL    HW1   74   0.254   1.007   0.938
   19SOL    HW2   75   0.185   1.155   0.941
   20SOL     OW   76   0.620   1.786   1.439
   20SOL    HW1   77   0.528   1.769   1.474
   20SOL    HW2   78   0.648   1.878   1.465
   21SOL     OW   79   0.606   0.964   0.123
   21SOL    HW1   80   0.613   1.048   0.069
   21SOL    HW2   81   0.652   0.977   0.211
   22SOL     OW   82   1.594   0.114   1.480
   22SOL    HW1   83   1.576   0.181   1.408
   22SOL    HW2   84   1.591   0.160   1.569
   23SOL     OW   85   0.122   0.643   0.563
   23SOL    HW1   86   0.077   0.555   0.580
   23SOL    HW2   87   0.121   0.697   0.647
   24SOL     OW   88   1.842   1.767   0.359
   24SOL    HW1   89   1.896   1.738   0.439
   24SOL    HW2   90   1.872   1.857   0.330
   25SOL     OW   91   0.027   1.596   0.117
   25SOL    HW1   92   0.008   1.500   0.138
   25SOL    HW2   93  -0.006   1.654   0.192
   26SOL     OW   94   1.689   0.922   0.612
   26SOL    HW1   95   1.784   0.893   0.620
   26SOL    HW2   96   1.681   0.987   0.537
   27SOL     OW   97   1.641   1.108   0.432
   27SOL    HW1   98   1.727   1.110   0.380
   27SOL    HW2   99   1.655   1.155   0.520
   28SOL     OW  100   0.113   0.737   1.597
   28SOL    HW1  101   0.201   0.724   1.642
   28SOL    HW2  102   0.100   0.834   1.575
   29SOL     OW  103   0.613   1.365   0.726
   29SOL    HW1  104   0.564   1.278   0.735
   29SOL    HW2  105   0.590   1.408   0.639
   30SOL     OW  106   0.809   0.004   0.502
   30SOL    HW1  107   0.849   0.095   0.493
   30SOL    HW2  108   0.709   0.012   0.508
   31SOL     OW  109   0.197   0.976   1.264
   31SOL    HW1  110   0.286   0.931   1.250
   31SOL    HW2  111   0.124   0.911   1.245
   32SOL     OW  112   1.525   0.999   0.190
   32SOL    HW1  113   1.462   0.923   0.203
   32SOL    HW2  114   1.573   1.017   0.276
   33SOL     OW  115   0.317   0.251   1.801
   33SOL    HW1  116   0.388   0.322   1.807
   33SOL    HW2  117   0.229   0.290   1.829
   34SOL     OW  118   1.466   1.417   0.953
   34SOL    HW1  119   1.407   1.423   1.033
   34SOL    HW2  120   1.451   1.329   0.907
   35SOL     OW  121   1.667   1.714   0.572
   35SOL    HW1  122   1.626   1.691   0.484
   35SOL    HW2  123   1.649   1.640   0.637
   36SOL     OW  124   0.598   0.729   0.270
   36SOL    HW1  125   0.622   0.798   0.202
   36SOL    HW2  126   0.520   0.762   0.324
   37SOL     OW  127   1.281   0.345   0.944
   37SOL    HW1  128   1.195   0.295   0.931
   37SOL    HW2  129   1.343   0.291   1.000
   38SOL     OW  130   1.576   1.662   0.307
   38SOL    HW1  131   1.665   1.708   0.310
   38SOL    HW2  132   1.555   1.638   0.212
   39SOL     OW  133   0.807   0.605   1.465
   39SOL    HW1  134   0.760   0.602   1.554
   39SOL    HW2  135   0.756   0.550   1.399
   40SOL     OW  136   1.394   0.469   1.674
   40SOL    HW1  137   1.374   0.512   1.762
   40SOL    HW2  138   1.472   0.407   1.683
   41SOL     OW  139   0.973   0.890   1.572
   41SOL    HW1  140   1.019   0.806   1.543
   41SOL    HW2  141   0.917   0.924   1.497
   42SOL     OW  142   0.991   0.410   1.242
   42SOL    HW1  143   0.914   0.444   1.296
   42SOL    HW2  144   0.957   0.359   1.163
   43SOL     OW  145   1.041   0.701   0.429
   43SOL    HW1  146   1.067   0.697   0.525
   43SOL    HW2  147   0.956   0.650   0.415
   44SOL     OW  148   0.076   0.811   0.789
   44SOL    HW1  149   0.175   0.799   0.798
   44SOL    HW2  150   0.052   0.906   0.810
   45SOL     OW  151   0.130   1.821   1.571
   45SOL    HW1  152   0.120   1.806   1.670
   45SOL    HW2  153   0.044   1.857   1.535
   46SOL     OW  154   0.865   0.348   0.195
   46SOL    HW1  155   0.924   0.411   0.146
   46SOL    HW2  156   0.884   0.254   0.166
   47SOL     OW  157   1.719   0.585   1.831
   47SOL    HW1  158   1.693   0.674   1.795
   47SOL    HW2  159   1.717   0.517   1.758
   48SOL     OW  160   1.362   1.144   0.545
   48SOL    HW1  161   1.445   1.115   0.497
   48SOL    HW2  162   1.313   1.211   0.489
   49SOL     OW  163   0.550   0.196   0.885
   49SOL    HW1  164   0.545   0.191   0.985
   49SOL    HW2  165   0.552   0.292   0.856
   50SOL     OW  166   1.008   1.456   0.477
   50SOL    HW1  167   0.962   1.528   0.425
   50SOL    HW2  168   1.004   1.476   0.575
   51SOL     OW  169   0.351   1.801   0.853
   51SOL    HW1  170   0.401   1.715   0.859
   51SOL    HW2  171   0.416   1.878   0.850
   52SOL     OW  172   1.795   1.066   0.873
   52SOL    HW1  173   1.733   1.051   0.797
   52SOL    HW2  174   1.743   1.077   0.958
   53SOL     OW  175   0.321   0.943   0.242
   53SOL    HW1  176   0.403   0.982   0.200
   53SOL    HW2  177   0.294   0.861   0.193
   54SOL     OW  178   1.458   0.735   0.728
   54SOL    HW1  179   1.453   0.670   0.803
   54SOL    HW2  180   1.538   0.794   0.741
   55SOL     OW  181   0.461   1.266   1.727
   55SOL    HW1  182   0.411   1.267   1.641
   55SOL    HW2  183   0.398   1.248   1.803
   56SOL     OW  184   1.111   1.776   0.237
   56SOL    HW1  185   1.051   1.714   0.287
   56SOL    HW2  186   1.142   1.732   0.152
   57SOL     OW  187   0.202   0.285   1.498
   57SOL    HW1  188   0.122   0.345   1.485
   57SOL    HW2  189   0.192   0.236   1.584
   58SOL     OW  190   1.632   1.377   0.081
   58SOL    HW1  191   1.600   1.471   0.071
   58SOL    HW2  192   1.556   1.314   0.069
   59SOL     OW  193   0.464   1.743   0.323
   59SOL    HW1  194   0.497   1.782   0.409
   59SOL    HW2  195   0.540   1.736   0.258
   60SOL     OW  196   1.400   0.107   0.426
   60SOL    HW1  197   1.376   0.070   0.336
   60SOL    HW2  198   1.499   0.123   0.430
   61SOL     OW  199   0.249   1.785   1.241
   61SOL    HW1  200   0.306   1.720   1.291
   61SOL    HW2  201   0.233   1.752   1.148
   62SOL     OW  202   0.940   1.698   0.904
   62SOL    HW1  203   1.020   1.641   0.925
   62SOL    HW2  204   0.891   1.658   0.827
   63SOL     OW  205   0.382   0.700   0.480
   63SOL    HW1  206   0.427   0.610   0.477
   63SOL    HW2  207   0.288   0.689   0.513
   64SOL     OW  208   1.547   0.222   1.729
   64SOL    HW1  209   1.542   0.259   1.821
   64SOL    HW2  210   1.475   0.153   1.717
   65SOL     OW  211   0.614   0.122   0.117
   65SOL    HW1  212   0.712   0.100   0.124
   65SOL    HW2  213   0.583   0.105   0.024
   66SOL     OW  214   0.781   0.264   1.749
   66SOL    HW1  215   0.848   0.203   1.792
   66SOL    HW2  216   0.708   0.283   1.814
   67SOL     OW  217   0.888   1.514   1.195
   67SOL    HW1  218   0.865   1.489   1.101
   67SOL    HW2  219   0.949   1.445   1.234
   68SOL     OW  220   1.351   0.590   1.433
   68SOL    HW1  221   1.379   0.547   1.518
   68SOL    HW2  222   1.376   0.686   1.434
   69SOL     OW  223   0.803   1.402   0.924
   69SOL    HW1  224   0.893   1.416   0.882
   69SOL    HW2  225   0.732   1.404   0.853
   70SOL     OW  226   0.922   0.503   0.899
   70SOL    HW1  227   0.897   0.494   0.803
   70SOL    HW2  228   0.970   0.421   0.930
   71SOL     OW  229   0.539   0.064   0.512
   71SOL    HW1  230   0.458   0.065   0.570
   71SOL    HW2  231   0.542   0.147   0.457
   72SOL     OW  232   1.434   1.188   0.041
   72SOL    HW1  233   1.466   1.112   0.098
   72SOL    HW2  234   1.342   1.215   0.071
   73SOL     OW  235   0.297   0.035   0.171
   73SOL    HW1  236   0.346   0.119   0.150
   73SOL    HW2  237   0.359  -0.030   0.216
   74SOL     OW  238   0.935   0.236   0.480
   74SOL    HW1  239   0.887   0.277   0.402
   74SOL    HW2  240   1.034   0.234   0.461
   75SOL     OW  241   1.076   0.683   1.464
   75SOL    HW1  242   0.996   0.622   1.467
   75SOL    HW2  243   1.157   0.630   1.440
   76SOL     OW  244   1.227   1.570   0.793
   76SOL    HW1  245   1.248   1.644   0.728
   76SOL    HW2  246   1.295   1.570   0.866
   77SOL     OW  247   0.459   1.152   0.741
   77SOL    HW1  248   0.388   1.125   0.806
   77SOL    HW2  249   0.433   1.124   0.648
   78SOL     OW  250   1.271   1.797   0.591
   78SOL    HW1  251   1.315   1.861   0.527
   78SOL    HW2  252   1.221   1.849   0.661
   79SOL     OW  253   1.032   0.549   0.016
   79SOL    HW1  254   0.991   0.631  -0.023
   79SOL    HW2  255   1.096   0.575   0.089
   80SOL     OW  256   0.078   0.556   1.386
   80SOL    HW1  257   0.170   0.555   1.345
   80SOL    HW2  258   0.072   0.630   1.453
   81SOL     OW  259   0.561   0.222   1.147
   81SOL    HW1  260   0.599   0.138   1.184
   81SOL    HW2  261   0.473   0.241   1.191
   82SOL     OW  262   0.866   0.454   0.642
   82SOL    HW1  263   0.834   0.526   0.580
   82SOL    HW2  264   0.890   0.373   0.589
   83SOL     OW  265   1.017   0.039   0.753
   83SOL    HW1  266   0.945   0.044   0.684
   83SOL    HW2  267   0.993  -0.030   0.822
   84SOL     OW  268   1.429   1.173   0.867
   84SOL    HW1  269   1.374   1.089   0.860
   84SOL    HW2  270   1.455   1.202   0.775
   85SOL     OW  271   1.466   0.590   0.992
   85SOL    HW1  272   1.436   0.495   0.999
   85SOL    HW2  273   1.539   0.606   1.058
   86SOL     OW  274   1.857   0.833   0.377
   86SOL    HW1  275   1.899   0.769   0.441
   86SOL    HW2  276   1.819   0.782   0.299
   87SOL     OW  277   0.488   1.385   0.174
   87SOL    HW1  278   0.401   1.370   0.221
   87SOL    HW2  279   0.471   1.411   0.079
   88SOL     OW  280   1.664   1.280   0.657
   88SOL    HW1  281   1.763   1.288   0.671
   88SOL    HW2  282   1.619   1.364   0.688
   89SOL     OW  283   1.390   0.575   0.078
   89SOL    HW1  284   1.336   0.554   0.159
   89SOL    HW2  285   1.481   0.534   0.087
   90SOL     OW  286   0.527   0.256   0.328
   90SOL    HW1  287   0.554   0.197   0.253
   90SOL    HW2  288   0.527   0.351   0.297
   91SOL     OW  289   1.111   1.195   1.100
   91SOL    HW1  290   1.071   1.239   1.181
   91SOL    HW2  291   1.070   1.232   1.017
   92SOL     OW  292   1.638   1.099   1.079
   92SOL    HW1  293   1.643   1.180   1.138
   92SOL    HW2  294   1.552   1.101   1.028
   93SOL     OW  295   0.915   0.089   1.402
   93SOL    HW1  296   0.940   0.069   1.307
   93SOL    HW2  297   0.987   0.145   1.444
   94SOL     OW  298   0.980   1.116   1.719
   94SOL    HW1  299   0.881   1.122   1.729
   94SOL    HW2  300   1.003   1.036   1.663
   95SOL     OW  301   0.705   1.050   0.368
   95SOL    HW1  302   0.691   1.057   0.467
   95SOL    HW2  303   0.789   0.999   0.350
   96SOL     OW  304   0.410   0.813   1.251
   96SOL    HW1  305   0.496   0.825   1.301
   96SOL    HW2  306   0.368   0.726   1.278
   97SOL     OW  307   1.274   0.386   1.262
   97SOL    HW1  308   1.295   0.460   1.326
   97SOL    HW2  309   1.185   0.403   1.219
   98SOL     OW  310   0.064   1.564   1.331
   98SOL    HW1  311   0.018   1.646   1.297
   98SOL    HW2  312   0.162   1.583   1.340
   99SOL     OW  313   0.367   1.100   0.501
   99SOL    HW1  314   0.360   1.183   0.445
   99SOL    HW2  315   0.371   1.020   0.441
  100SOL     OW  316   0.566   0.537   0.865
  100SOL    HW1  317   0.578   0.603   0.791
  100SOL    HW2  318   0.612   0.571   0.948
  101SOL     OW  319   1.252   1.348   0.388
  101SOL    HW1  320   1.302   1.425   0.428
  101SOL    HW2  321   1.157   1.350   0.420
  102SOL     OW  322   1.582   0.639   0.472
  102SOL    HW1  323   1.551   0.700   0.545
  102SOL    HW2  324   1.632   0.691   0.403
  103SOL     OW  325   0.354   1.510   1.329
  103SOL    HW1  326   0.333   1.466   1.242
  103SOL    HW2  327   0.451   1.536   1.332
  104SOL     OW  328   0.402   0.751   1.598
  104SOL    HW1  329   0.470   0.806   1.551
  104SOL    HW2  330   0.442   0.663   1.625
  105SOL     OW  331   1.587   0.779   1.670
  105SOL    HW1  332   1.495   0.817   1.665
  105SOL    HW2  333   1.647   0.826   1.605
  106SOL     OW  334   1.013   0.105   1.770
  106SOL    HW1  335   1.019   0.190   1.718
  106SOL    HW2  336   1.045   0.029   1.713
  107SOL     OW  337   0.504   0.050   1.740
  107SOL    HW1  338   0.462  -0.007   1.670
  107SOL    HW2  339   0.438   0.119   1.772
  108SOL     OW  340   0.573   0.870   1.029
  108SOL    HW1  341   0.617   0.959   1.020
  108SOL    HW2  342   0.510   0.870   1.106
  109SOL     OW  343   1.360   0.862   1.045
  109SOL    HW1  344   1.285   0.862   0.979
  109SOL    HW2  345   1.397   0.770   1.054
  110SOL     OW  346   1.209   0.525   0.275
  110SOL    HW1  347   1.222   0.441   0.329
  110SOL    HW2  348   1.180   0.599   0.335
  111SOL     OW  349   0.307   0.213   1.231
  111SOL    HW1  350   0.284   0.250   1.321
  111SOL    HW2  351   0.277   0.118   1.225
  112SOL     OW  352   0.037   1.310   1.282
  112SOL    HW1  353   0.090   1.261   1.350
  112SOL    HW2  354   0.059   1.408   1.287
  113SOL     OW  355   0.732   0.634   1.064
  113SOL    HW1  356   0.791   0.608   0.988
  113SOL    HW2  357   0.704   0.730   1.053
  114SOL     OW  358   1.728   0.935   1.854
  114SOL    HW1  359   1.682   0.928   1.765
  114SOL    HW2  360   1.666   0.979   1.920
  115SOL     OW  361   0.307   0.063   0.618
  115SOL    HW1  362   0.296   0.157   0.651
  115SOL    HW2  363   0.302   0.000   0.695
  116SOL     OW  364   1.622   0.367   0.374
  116SOL    HW1  365   1.624   0.291   0.438
  116SOL    HW2  366   1.574   0.444   0.414
  117SOL     OW  367   1.023   0.766   0.966
  117SOL    HW1  368   1.038   0.787   1.062
  117SOL    HW2  369   0.993   0.671   0.957
  118SOL     OW  370   0.980   1.573   1.700
  118SOL    HW1  371   0.960   1.617   1.612
  118SOL    HW2  372   1.019   1.482   1.684
  119SOL     OW  373   0.350   0.898   1.804
  119SOL    HW1  374   0.426   0.942   1.852
  119SOL    HW2  375   0.385   0.851   1.722
  120SOL     OW  376   1.540   0.274   0.125
  120SOL    HW1  377   1.479   0.199   0.148
  120SOL    HW2  378   1.562   0.326   0.208
  121SOL     OW  379   1.303   0.838   0.042
  121SOL    HW1  380   1.337   0.745   0.057
  121SOL    HW2  381   1.321   0.865  -0.053
  122SOL     OW  382   1.068   1.333   0.849
  122SOL    HW1  383   1.075   1.249   0.794
  122SOL    HW2  384   1.130   1.402   0.813
  123SOL     OW  385   0.319   0.810   0.949
  123SOL    HW1  386   0.412   0.846   0.954
  123SOL    HW2  387   0.313   0.725   1.001
  124SOL     OW  388   0.339   0.509   1.006
  124SOL    HW1  389   0.287   0.426   0.989
  124SOL    HW2  390   0.416   0.514   0.942
  125SOL     OW  391   1.138   0.380   1.678
  125SOL    HW1  392   1.093   0.443   1.742
  125SOL    HW2  393   1.231   0.411   1.661
  126SOL     OW  394   1.160   0.207   1.477
  126SOL    HW1  395   1.160   0.271   1.554
  126SOL    HW2  396   1.188   0.255   1.394
  127SOL     OW  397   0.008   1.326   0.200
  127SOL    HW1  398  -0.085   1.347   0.169
  127SOL    HW2  399   0.018   1.227   0.213
  128SOL     OW  400   0.088   1.801   0.927
  128SOL    HW1  401   0.046   1.715   0.900
  128SOL    HW2  402   0.182   1.804   0.893
  129SOL     OW  403   0.504   1.568   0.910
  129SOL    HW1  404   0.570   1.642   0.919
  129SOL    HW2  405   0.548   1.489   0.868
  130SOL     OW  406   1.002   0.796   1.238
  130SOL    HW1  407   1.043   0.764   1.324
  130SOL    HW2  408   0.906   0.769   1.235
  131SOL     OW  409   0.040   0.544   1.114
  131SOL    HW1  410   0.125   0.511   1.073
  131SOL    HW2  411   0.053   0.559   1.212
  132SOL     OW  412   0.189   0.520   1.722
  132SOL    HW1  413   0.248   0.480   1.652
  132SOL    HW2  414   0.131   0.591   1.681
  133SOL     OW  415   1.369   0.950   1.660
  133SOL    HW1  416   1.408   1.039   1.680
  133SOL    HW2  417   1.379   0.930   1.563
  134SOL     OW  418   0.815   0.572   0.325
  134SOL    HW1  419   0.822   0.483   0.279
  134SOL    HW2  420   0.721   0.606   0.317
  135SOL     OW  421   1.657   0.604   1.206
  135SOL    HW1  422   1.619   0.535   1.268
  135SOL    HW2  423   1.739   0.568   1.162
  136SOL     OW  424   0.252   1.564   1.744
  136SOL    HW1  425   0.222   1.621   1.820
  136SOL    HW2  426   0.245   1.467   1.770
  137SOL     OW  427   0.671   0.464   1.269
  137SOL    HW1  428   0.637   0.375   1.239
  137SOL    HW2  429   0.697   0.518   1.189
  138SOL     OW  430   0.473   0.500   0.191
  138SOL    HW1  431   0.534   0.580   0.195
  138SOL    HW2  432   0.378   0.531   0.198
  139SOL     OW  433   0.159   1.137   1.466
  139SOL    HW1  434   0.181   1.076   1.542
  139SOL    HW2  435   0.169   1.088   1.380
  140SOL     OW  436   1.347   1.059   1.234
  140SOL    HW1  437   1.371   0.996   1.160
  140SOL    HW2  438   1.257   1.099   1.216
  141SOL     OW  439   1.302   0.855   0.309
  141SOL    HW1  440   1.216   0.824   0.351
  141SOL    HW2  441   1.298   0.841   0.210
  142SOL     OW  442   1.759   1.747   1.154
  142SOL    HW1  443   1.820   1.777   1.081
  142SOL    HW2  444   1.721   1.658   1.132
  143SOL     OW  445   1.252   1.731   1.128
  143SOL    HW1  446   1.336   1.736   1.074
  143SOL    HW2  447   1.229   1.635   1.146
  144SOL     OW  448   0.083   1.258   1.022
  144SOL    HW1  449   0.078   1.257   1.122
  144SOL    HW2  450   0.000   1.217   0.984
  145SOL     OW  451   0.688   1.662   1.716
  145SOL    HW1  452   0.632   1.743   1.725
  145SOL    HW2  453   0.740   1.666   1.630
  146SOL     OW  454   0.903   0.086   0.133
  146SOL    HW1  455   0.954   0.087   0.047
  146SOL    HW2  456   0.959   0.044   0.204
  147SOL     OW  457   1.726   0.135   0.523
  147SOL    HW1  458   1.799   0.118   0.456
  147SOL    HW2  459   1.695   0.048   0.561
  148SOL     OW  460   1.388   1.573   0.477
  148SOL    HW1  461   1.455   1.585   0.403
  148SOL    HW2  462   1.348   1.662   0.500
  149SOL     OW  463   0.130   1.794   1.851
  149SOL    HW1  464   0.089   1.720   1.904
  149SOL    HW2  465   0.194   1.845   1.909
  150SOL     OW  466   1.280   0.927   0.672
  150SOL    HW1  467   1.340   0.846   0.674
  150SOL    HW2  468   1.320   0.996   0.612
  151SOL     OW  469   0.830   1.273   1.422
  151SOL    HW1  470   0.825   1.306   1.517
  151SOL    HW2  471   0.744   1.292   1.376
  152SOL     OW  472   0.672   1.616   0.154
  152SOL    HW1  473   0.681   1.626   0.055
  152SOL    HW2  474   0.632   1.527   0.175
  153SOL     OW  475   1.650   1.720   1.394
  153SOL    HW1  476   1.703   1.730   1.310
  153SOL    HW2  477   1.623   1.810   1.428
  154SOL     OW  478   1.841   0.175   0.963
  154SOL    HW1  479   1.880   0.090   0.927
  154SOL    HW2  480   1.743   0.177   0.944
  155SOL     OW  481   0.263   0.326   0.720
  155SOL    HW1  482   0.184   0.377   0.686
  155SOL    HW2  483   0.254   0.311   0.818
  156SOL     OW  484   1.194   1.612   0.031
  156SOL    HW1  485   1.200   1.519   0.068
  156SOL    HW2  486   1.135   1.612  -0.049
  157SOL     OW  487   0.822   1.002   1.372
  157SOL    HW1  488   0.862   1.001   1.280
  157SOL    HW2  489   0.832   1.094   1.412
  158SOL     OW  490   0.916   0.910   0.291
  158SOL    HW1  491   0.979   0.948   0.223
  158SOL    HW2  492   0.956   0.827   0.330
  159SOL     OW  493   1.504   1.607   0.044
  159SOL    HW1  494   1.412   1.644   0.051
  159SOL    HW2  495   1.542   1.627  -0.046
  160SOL     OW  496   0.372   1.288   1.490
  160SOL    HW1  497   0.359   1.381   1.456
  160SOL    HW2  498   0.288   1.236   1.477
  161SOL     OW  499   1.039   1.098   0.696
  161SOL    HW1  500   0.969   1.051   0.750
  161SOL    HW2  501   1.098   1.030   0.653
  162SOL     OW  502   1.014   0.236   0.971
  162SOL    HW1  503   1.006   0.200   0.878
  162SOL    HW2  504   1.012   0.160   1.036
  163SOL     OW  505   0.590   1.487   0.491
  163SOL    HW1  506   0.632   1.429   0.421
  163SOL    HW2  507   0.546   1.566   0.447
  164SOL     OW  508   1.709   0.385   1.381
  164SOL    HW1  509   1.782   0.454   1.385
  164SOL    HW2  510   1.737   0.310   1.322
  165SOL     OW  511   0.255   1.348   0.290
  165SOL    HW1  512   0.159   1.349   0.263
  165SOL    HW2  513   0.267   1.401   0.374
  166SOL     OW  514   0.105   1.013   1.726
  166SOL    HW1  515   0.028   0.980   1.780
  166SOL    HW2  516   0.190   0.983   1.768
  167SOL     OW  517   0.672   0.203   1.489
  167SOL    HW1  518   0.762   0.187   1.449
  167SOL    HW2  519   0.680   0.208   1.588
  168SOL     OW  520   0.075   0.345   0.033
  168SOL    HW1  521  -0.017   0.317   0.004
  168SOL    HW2  522   0.106   0.422  -0.023
  169SOL     OW  523   1.440   0.856   1.398
  169SOL    HW1  524   1.383   0.908   1.335
  169SOL    HW2  525   1.536   0.868   1.374
  170SOL     OW  526   0.072   0.166   0.318
  170SOL    HW1  527   0.055   0.249   0.264
  170SOL    HW2  528   0.162   0.129   0.296
  171SOL     OW  529   1.183   1.335   0.119
  171SOL    HW1  530   1.084   1.324   0.121
  171SOL    HW2  531   1.217   1.350   0.212
  172SOL     OW  532   0.613   0.842   1.431
  172SOL    HW1  533   0.669   0.923   1.414
  172SOL    HW2  534   0.672   0.762   1.434
  173SOL     OW  535   1.493   1.767   0.959
  173SOL    HW1  536   1.526   1.831   0.890
  173SOL    HW2  537   1.559   1.761   1.034
  174SOL     OW  538   0.716   0.565   1.708
  174SOL    HW1  539   0.735   0.630   1.782
  174SOL    HW2  540   0.776   0.485   1.717
  175SOL     OW  541   1.450   1.220   1.633
  175SOL    HW1  542   1.441   1.210   1.732
  175SOL    HW2  543   1.546   1.213   1.607
  176SOL     OW  544   0.390   1.741   1.560
  176SOL    HW1  545   0.299   1.782   1.558
  176SOL    HW2  546   0.383   1.647   1.592
  177SOL     OW  547   1.674   0.883   1.254
  177SOL    HW1  548   1.647   0.794   1.217
  177SOL    HW2  549   1.675   0.951   1.181
  178SOL     OW  550   1.225   0.325   0.449
  178SOL    HW1  551   1.290   0.251   0.438
  178SOL    HW2  552   1.245   0.375   0.533
  179SOL     OW  553   0.594   0.745   0.652
  179SOL    HW1  554   0.644   0.830   0.633
  179SOL    HW2  555   0.506   0.747   0.604
  180SOL     OW  556   1.777   0.342   1.642
  180SOL    HW1  557   1.760   0.373   1.548
  180SOL    HW2  558   1.693   0.305   1.680
  181SOL     OW  559   1.730   0.934   1.517
  181SOL    HW1  560   1.768   1.025   1.532
  181SOL    HW2  561   1.722   0.917   1.418
  182SOL     OW  562   0.859   1.374   0.016
  182SOL    HW1  563   0.813   1.389   0.104
  182SOL    HW2  564   0.903   1.459  -0.014
  183SOL     OW  565   0.661   1.790   0.953
  183SOL    HW1  566   0.615   1.878   0.940
  183SOL    HW2  567   0.760   1.802   0.946
  184SOL     OW  568   0.859   0.956   0.861
  184SOL    HW1  569   0.913   0.887   0.909
  184SOL    HW2  570   0.827   1.025   0.927
  185SOL     OW  571   1.083   0.984   0.087
  185SOL    HW1  572   1.060   1.037   0.005
  185SOL    HW2  573   1.164   0.928   0.068
  186SOL     OW  574   1.861   1.569   0.851
  186SOL    HW1  575   1.790   1.557   0.781
  186SOL    HW2  576   1.862   1.490   0.911
  187SOL     OW  577   0.221   1.314   1.844
  187SOL    HW1  578   0.156   1.241   1.823
  187SOL    HW2  579   0.225   1.328   1.942
  188SOL     OW  580   0.079   1.240   0.653
  188SOL    HW1  581   0.078   1.193   0.741
  188SOL    HW2  582   0.161   1.212   0.602
  189SOL     OW  583   0.672   1.391   1.624
  189SOL    HW1  584   0.594   1.341   1.662
  189SOL    HW2  585   0.669   1.486   1.655
  190SOL     OW  586   1.824   0.192   1.227
  190SOL    HW1  587   1.820   0.102   1.271
  190SOL    HW2  588   1.827   0.181   1.128
  191SOL     OW  589   0.428   0.424   0.520
  191SOL    HW1  590   0.458   0.352   0.458
  191SOL    HW2  591   0.389   0.384   0.603
  192SOL     OW  592   1.705   1.487   1.104
  192SOL    HW1  593   1.612   1.462   1.077
  192SOL    HW2  594   1.731   1.437   1.186
  193SOL     OW  595   0.317   0.547   1.280
  193SOL    HW1  596   0.355   0.488   1.352
  193SOL    HW2  597   0.357   0.521   1.192
  194SOL     OW  598   0.812   1.586   0.687
  194SOL    HW1  599   0.844   1.596   0.593
  194SOL    HW2  600   0.733   1.524   0.689
  195SOL     OW  601   1.424   0.214   1.112
  195SOL    HW1  602   1.476   0.149   1.167
  195SOL    HW2  603   1.375   0.277   1.173
  196SOL     OW  604   1.001   0.034   1.154
  196SOL    HW1  605   0.938  -0.038   1.123
  196SOL    HW2  606   1.094  -0.002   1.154
  197SOL     OW  607   0.770   1.330   0.301
  197SOL    HW1  608   0.724   1.243   0.318
  197SOL    HW2  609   0.861   1.327   0.342
  198SOL     OW  610   0.618   1.567   1.284
  198SOL    HW1  611   0.613   1.649   1.341
  198SOL    HW2  612   0.707   1.564   1.239
  199SOL     OW  613   1.352   0.052   0.168
  199SOL    HW1  614   1.387   0.011   0.084
  199SOL    HW2  615   1.262   0.014   0.188
  200SOL     OW  616   1.300   0.453   0.691
  200SOL    HW1  617   1.241   0.533   0.695
  200SOL    HW2  618   1.315   0.418   0.784
  201SOL     OW  619   1.593   0.221   0.882
  201SOL    HW1  620   1.509   0.220   0.936
  201SOL    HW2  621   1.595   0.304   0.826
  202SOL     OW  622   0.039   1.077   0.300
  202SOL    HW1  623   0.138   1.066   0.291
  202SOL    HW2  624  -0.001   0.991   0.332
  203SOL     OW  625   0.875   1.646   0.337
  203SOL    HW1  626   0.798   1.611   0.283
  203SOL    HW2  627   0.843   1.717   0.399
  204SOL     OW  628   0.230   0.628   1.975
  204SOL    HW1  629   0.137   0.626   2.012
  204SOL    HW2  630   0.231   0.589   1.883
  205SOL     OW  631   0.225   0.275   2.858
  205SOL    HW1  632   0.260   0.258   2.950
  205SOL    HW2  633   0.137   0.230   2.846
  206SOL     OW  634   0.019   0.368   2.509
  206SOL    HW1  635  -0.063   0.411   2.548
  206SOL    HW2  636  -0.009   0.295   2.446
  207SOL     OW  637   1.555   1.511   2.565
  207SOL    HW1  638   1.498   1.495   2.646
  207SOL    HW2  639   1.496   1.521   2.485
  208SOL     OW  640   1.135   0.703   2.579
  208SOL    HW1  641   1.192   0.781   2.554
  208SOL    HW2  642   1.075   0.729   2.655
  209SOL     OW  643   1.755   0.607   2.093
  209SOL    HW1  644   1.743   0.594   1.994
  209SOL    HW2  645   1.725   0.526   2.142
  210SOL     OW  646   0.768   1.144   2.885
  210SOL    HW1  647   0.690   1.161   2.945
  210SOL    HW2  648   0.802   1.231   2.849
  211SOL     OW  649   0.685   1.012   2.527
  211SOL    HW1  650   0.754   0.996   2.597
  211SOL    HW2  651   0.612   1.069   2.565
  212SOL     OW  652   1.603   0.447   2.599
  212SOL    HW1  653   1.529   0.493   2.549
  212SOL    HW2  654   1.654   0.515   2.652
  213SOL     OW  655   0.231   1.713   2.345
  213SOL    HW1  656   0.265   1.790   2.399
  213SOL    HW2  657   0.275   1.713   2.255
  214SOL     OW  658   0.230   1.434   2.400
  214SOL    HW1  659   0.204   1.530   2.400
  214SOL    HW2  660   0.159   1.380   2.445
  215SOL     OW  661   0.240   1.091   2.748
  215SOL    HW1  662   0.254   1.007   2.800
  215SOL    HW2  663   0.185   1.155   2.803
  216SOL     OW  664   0.606   0.964   1.985
  216SOL    HW1  665   0.613   1.048   1.931
  216SOL    HW2  666   0.652   0.977   2.073
  217SOL     OW  667   0.122   0.643   2.425
  217SOL    HW1  668   0.077   0.555   2.442
  217SOL    HW2  669   0.121   0.697   2.509
  218SOL     OW  670   1.842   1.767   2.221
  218SOL    HW1  671   1.896   1.738   2.301
  218SOL    HW2  672   1.872   1.857   2.192
  219SOL     OW  673   0.027   1.596   1.979
  219SOL    HW1  674   0.008   1.500   2.000
  219SOL    HW2  675  -0.006   1.654   2.054
  220SOL     OW  676   1.689   0.922   2.474
  220SOL    HW1  677   1.784   0.893   2.482
  220SOL    HW2  678   1.681   0.987   2.399
  221SOL     OW  679   1.641   1.108   2.294
  221SOL    HW1  680   1.727   1.110   2.242
  221SOL    HW2  681   1.655   1.155   2.382
  222SOL     OW  682   0.613   1.365   2.588
  222SOL    HW1  683   0.564   1.278   2.597
  222SOL    HW2  684   0.590   1.408   2.501
  223SOL     OW  685   0.809   0.004   2.364
  223SOL    HW1  686   0.849   0.095   2.355
  223SOL    HW2  687   0.709   0.012   2.370
  224SOL     OW  688   1.525   0.999   2.052
  224SOL    HW1  689   1.462   0.923   2.065
  224SOL    HW2  690   1.573   1.017   2.138
  225SOL     OW  691   1.466   1.417   2.815
  225SOL    HW1  692   1.407   1.423   2.895
  225SOL    HW2  693   1.451   1.329   2.769
  226SOL     OW  694   1.667   1.714   2.434
  226SOL    HW1  695   1.626   1.691   2.346
  226SOL    HW2  696   1.649   1.640   2.499
  227SOL     OW  697   0.598   0.729   2.132
  227SOL    HW1  698   0.622   0.798   2.064
  227SOL    HW2  699   0.520   0.762   2.186
  228SOL     OW  700   1.281   0.345   2.806
  228SOL    HW1  701   1.195   0.295   2.793
  228SOL    HW2  702   1.343   0.291   2.862
  229SOL     OW  703   1.576   1.662   2.169
  229SOL    HW1  704   1.665   1.708   2.172
  229SOL    HW2  705   1.555   1.638   2.074
  230SOL     OW  706   1.041   0.701   2.291
  230SOL    HW1  707   1.067   0.697   2.387
  230SOL    HW2  708   0.956   0.650   2.277
  231SOL     OW  709   0.076   0.811   2.651
  231SOL    HW1  710   0.175   0.799   2.660
  231SOL    HW2  711   0.052   0.906   2.672
  232SOL     OW  712   0.865   0.348   2.057
  232SOL    HW1  713   0.924   0.411   2.008
  232SOL    HW2  714   0.884   0.254   2.028
  233SOL     OW  715   1.362   1.144   2.407
  233SOL    HW1  716   1.445   1.115   2.359
  233SOL    HW2  717   1.313   1.211   2.351
  234SOL     OW  718   1.008   1.456   2.339
  234SOL    HW1  719   0.962   1.528   2.287
  234SOL    HW2  720   1.004   1.476   2.437
  235SOL     OW  721   0.351   1.801   2.715
  235SOL    HW1  722   0.401   1.715   2.721
  235SOL    HW2  723   0.416   1.878   2.712
  236SOL     OW  724   1.795   1.066   2.735
  236SOL    HW1  725   1.733   1.051   2.659
  236SOL    HW2  726   1.743   1.077   2.820
  237SOL     OW  727   0.321   0.943   2.104
  237SOL    HW1  728   0.403   0.982   2.062
  237SOL    HW2  729   0.294   0.861   2.055
  238SOL     OW  730   1.458   0.735   2.590
  238SOL    HW1  731   1.453   0.670   2.665
  238SOL    HW2  732   1.538   0.794   2.603
  239SOL     OW  733   1.111   1.776   2.099
  239SOL    HW1  734   1.051   1.714   2.149
  239SOL    HW2  735   1.142   1.732   2.014
  240SOL     OW  736   1.632   1.377   1.943
  240SOL    HW1  737   1.600   1.471   1.933
  240SOL    HW2  738   1.556   1.314   1.931
  241SOL     OW  739   0.464   1.743   2.185
  241SOL    HW1  740   0.497   1.782   2.271
  241SOL    HW2  741   0.540   1.736   2.120
  242SOL     OW  742   1.400   0.107   2.288
  242SOL    HW1  743   1.376   0.070   2.198
  242SOL    HW2  744   1.499   0.123   2.292
  243SOL     OW  745   0.249   1.785   3.103
  243SOL    HW1  746   0.306   1.720   3.153
  243SOL    HW2  747   0.233   1.752   3.010
  244SOL     OW  748   0.940   1.698   2.766
  244SOL    HW1  749   1.020   1.641   2.787
  244SOL    HW2  750   0.891   1.658   2.689
  245SOL     OW  751   0.382   0.700   2.342
  245SOL    HW1  752   0.427   0.610   2.339
  245SOL    HW2  753   0.288   0.689   2.375
  246SOL     OW  754   0.614   0.122   1.979
  246SOL    HW1  755   0.712   0.100   1.986
  246SOL    HW2  756   0.583   0.105   1.886
  247SOL     OW  757   0.922   0.503   2.761
  247SOL    HW1  758   0.897   0.494   2.665
  247SOL    HW2  759   0.970   0.421   2.792
  248SOL     OW  760   0.539   0.064   2.374
  248SOL    HW1  761   0.458   0.065   2.432
  248SOL    HW2  762   0.542   0.147   2.319
  249SOL     OW  763   1.434   1.188   1.903
  249SOL    HW1  764   1.466   1.112   1.960
  249SOL    HW2  765   1.342   1.215   1.933
  250SOL     OW  766   0.297   0.035   2.033
  250SOL    HW1  767   0.346   0.119   2.012
  250SOL    HW2  768   0.359  -0.030   2.078
  251SOL     OW  769   0.935   0.236   2.342
  251SOL    HW1  770   0.887   0.277   2.264
  251SOL    HW2  771   1.034   0.234   2.323
  252SOL     OW  772   1.227   1.570   2.655
  252SOL    HW1  773   1.248   1.644   2.590
  252SOL    HW2  774   1.295   1.570   2.728
  253SOL     OW  775   0.459   1.152   2.603
  253SOL    HW1  776   0.388   1.125   2.668
  253SOL    HW2  777   0.433   1.124   2.510
  254SOL     OW  778   1.271   1.797   2.453
  254SOL    HW1  779   1.315   1.861   2.389
  254SOL    HW2  780   1.221   1.849   2.523
  255SOL     OW  781   1.032   0.549   1.878
  255SOL    HW1  782   0.991   0.631   1.839
  255SOL    HW2  783   1.096   0.575   1.951
  256SOL     OW  784   0.866   0.454   2.504
  256SOL    HW1  785   0.834   0.526   2.442
  256SOL    HW2  786   0.890   0.373   2.451
  257SOL     OW  787   1.017   0.039   2.615
  257SOL    HW1  788   0.945   0.044   2.546
  257SOL    HW2  789   0.993  -0.030   2.684
  258SOL     OW  790   1.429   1.173   2.729
  258SOL    HW1  791   1.374   1.089   2.722
  258SOL    HW2  792   1.455   1.202   2.637
  259SOL     OW  793   1.857   0.833   2.239
  259SOL    HW1  794   1.899   0.769   2.303
  259SOL    HW2  795   1.819   0.782   2.161
  260SOL     OW  796   0.488   1.385   2.036
  260SOL    HW1  797   0.401   1.370   2.083
  260SOL    HW2  798   0.471   1.411   1.941
  261SOL     OW  799   1.664   1.280   2.519
  261SOL    HW1  800   1.763   1.288   2.533
  261SOL    HW2  801   1.619   1.364   2.550
  262SOL     OW  802   1.390   0.575   1.940
  262SOL    HW1  803   1.336   0.554   2.021
  262SOL    HW2  804   1.481   0.534   1.949
  263SOL     OW  805   0.527   0.256   2.190
  263SOL    HW1  806   0.554   0.197   2.115
  263SOL    HW2  807   0.527   0.351   2.159
  264SOL     OW  808   1.638   1.099   2.941
  264SOL    HW1  809   1.643   1.180   3.000
  264SOL    HW2  810   1.552   1.101   2.890
  265SOL     OW  811   0.705   1.050   2.230
  265SOL    HW1  812   0.691   1.057   2.329
  265SOL    HW2  813   0.789   0.999   2.212
  266SOL     OW  814   0.367   1.100   2.363
  266SOL    HW1  815   0.360   1.183   2.307
  266SOL    HW2  816   0.371   1.020   2.303
  267SOL     OW  817   0.566   0.537   2.727
  267SOL    HW1  818   0.578   0.603   2.653
  267SOL    HW2  819   0.612   0.571   2.810
  268SOL     OW  820   1.252   1.348   2.250
  268SOL    HW1  821   1.302   1.425   2.290
  268SOL    HW2  822   1.157   1.350   2.282
  269SOL     OW  823   1.582   0.639   2.334
  269SOL    HW1  824   1.551   0.700   2.407
  269SOL    HW2  825   1.632   0.691   2.265
  270SOL     OW  826   1.209   0.525   2.137
  270SOL    HW1  827   1.222   0.441   2.191
  270SOL    HW2  828   1.180   0.599   2.197
  271SOL     OW  829   0.732   0.634   2.926
  271SOL    HW1  830   0.791   0.608   2.850
  271SOL    HW2  831   0.704   0.730   2.915
  272SOL     OW  832   0.307   0.063   2.480
  272SOL    HW1  833   0.296   0.157   2.513
  272SOL    HW2  834   0.302   0.000   2.557
  273SOL     OW  835   1.622   0.367   2.236
  273SOL    HW1  836   1.624   0.291   2.300
  273SOL    HW2  837   1.574   0.444   2.276
  274SOL     OW  838   1.540   0.274   1.987
  274SOL    HW1  839   1.479   0.199   2.010
  274SOL    HW2  840   1.562   0.326   2.070
  275SOL     OW  841   1.303   0.838   1.904
  275SOL    HW1  842   1.337   0.745   1.919
  275SOL    HW2  843   1.321   0.865   1.809
  276SOL     OW  844   1.068   1.333   2.711
  276SOL    HW1  845   1.075   1.249   2.656
  276SOL    HW2  846   1.130   1.402   2.675
  277SOL     OW  847   0.319   0.810   2.811
  277SOL    HW1  848   0.412   0.846   2.816
  277SOL    HW2  849   0.313   0.725   2.863
  278SOL     OW  850   0.008   1.326   2.062
  278SOL    HW1  851  -0.085   1.347   2.031
  278SOL    HW2  852   0.018   1.227   2.075
  279SOL     OW  853   0.088   1.801   2.789
  279SOL    HW1  854   0.046   1.715   2.762
  279SOL    HW2  855   0.182   1.804   2.755
  280SOL     OW  856   0.504   1.568   2.772
  280SOL    HW1  857   0.570   1.642   2.781
  280SOL    HW2  858   0.548   1.489   2.730
  281SOL     OW  859   0.815   0.572   2.187
  281SOL    HW1  860   0.822   0.483   2.141
  281SOL    HW2  861   0.721   0.606   2.179
  282SOL     OW  862   0.671   0.464   3.131
  282SOL    HW1  863   0.637   0.375   3.101
  282SOL    HW2  864   0.697   0.518   3.051
  283SOL     OW  865   0.473   0.500   2.053
  283SOL    HW1  866   0.534   0.580   2.057
  283SOL    HW2  867   0.378   0.531   2.060
  284SOL     OW  868   1.347   1.059   3.096
  284SOL    HW1  869   1.371   0.996   3.022
  284SOL    HW2  870   1.257   1.099   3.078
  285SOL     OW  871   1.302   0.855   2.171
  285SOL    HW1  872   1.216   0.824   2.213
  285SOL    HW2  873   1.298   0.841   2.072
  286SOL     OW  874   1.759   1.747   3.016
  286SOL    HW1  875   1.820   1.777   2.943
  286SOL    HW2  876   1.721   1.658   2.994
  287SOL     OW  877   0.083   1.258   2.884
  287SOL    HW1  878   0.078   1.257   2.984
  287SOL    HW2  879   0.000   1.217   2.846
  288SOL     OW  880   1.726   0.135   2.385
  288SOL    HW1  881   1.799   0.118   2.318
  288SOL    HW2  882   1.695   0.048   2.423
  289SOL     OW  883   1.388   1.573   2.339
  289SOL    HW1  884   1.455   1.585   2.265
  289SOL    HW2  885   1.348   1.662   2.362
  290SOL     OW  886   1.280   0.927   2.534
  290SOL    HW1  887   1.340   0.846   2.536
  290SOL    HW2  888   1.320   0.996   2.474
  291SOL     OW  889   0.672   1.616   2.016
  291SOL    HW1  890   0.681   1.626   1.917
  291SOL    HW2  891   0.632   1.527   2.037
  292SOL     OW  892   1.841   0.175   2.825
  292SOL    HW1  893   1.880   0.090   2.789
  292SOL    HW2  894   1.743   0.177   2.806
  293SOL     OW  895   0.263   0.326   2.582
  293SOL    HW1  896   0.184   0.377   2.548
  293SOL    HW2  897   0.254   0.311   2.680
  294SOL     OW  898   1.194   1.612   1.893
  294SOL    HW1  899   1.200   1.519   1.930
  294SOL    HW2  900   1.135   1.612   1.813
  295SOL     OW  901   0.916   0.910   2.153
  295SOL    HW1  902   0.979   0.948   2.085
  295SOL    HW2  903   0.956   0.827   2.192
  296SOL     OW  904   1.504   1.607   1.906
  296SOL    HW1  905   1.412   1.644   1.913
  296SOL    HW2  906   1.542   1.627   1.816
  297SOL     OW  907   1.614   1.292   3.151
  297SOL    HW1  908   1.674   1.295   3.231
  297SOL    HW2  909   1.539   1.356   3.164
  298SOL     OW  910   1.039   1.098   2.558
  298SOL    HW1  911   0.969   1.051   2.612
  298SOL    HW2  912   1.098   1.030   2.515
  299SOL     OW  913   0.590   1.487   2.353
  299SOL    HW1  914   0.632   1.429   2.283
  299SOL    HW2  915   0.546   1.566   2.309
  300SOL     OW  916   0.255   1.348   2.152
  300SOL    HW1  917   0.159   1.349   2.125
  300SOL    HW2  918   0.267   1.401   2.236
  301SOL     OW  919   0.075   0.345   1.895
  301SOL    HW1  920  -0.017   0.317   1.866
  301SOL    HW2  921   0.106   0.422   1.839
  302SOL     OW  922   0.072   0.166   2.180
  302SOL    HW1  923   0.055   0.249   2.126
  302SOL    HW2  924   0.162   0.129   2.158
  303SOL     OW  925   1.183   1.335   1.981
  303SOL    HW1  926   1.084   1.324   1.983
  303SOL    HW2  927   1.217   1.350   2.074
  304SOL     OW  928   1.674   0.883   3.116
  304SOL    HW1  929   1.647   0.794   3.079
  304SOL    HW2  930   1.675   0.951   3.043
  305SOL     OW  931   1.225   0.325   2.311
  305SOL    HW1  932   1.290   0.251   2.300
  305SOL    HW2  933   1.245   0.375   2.395
  306SOL     OW  934   0.594   0.745   2.514
  306SOL    HW1  935   0.644   0.830   2.495
  306SOL    HW2  936   0.506   0.747   2.466
  307SOL     OW  937   0.859   1.374   1.878
  307SOL    HW1  938   0.813   1.389   1.966
  307SOL    HW2  939   0.903   1.459   1.848
  308SOL     OW  940   0.661   1.790   2.815
  308SOL    HW1  941   0.615   1.878   2.802
  308SOL    HW2  942   0.760   1.802   2.808
  309SOL     OW  943   0.859   0.956   2.723
  309SOL    HW1  944   0.913   0.887   2.771
  309SOL    HW2  945   0.827   1.025   2.789
  310SOL     OW  946   1.083   0.984   1.949
  310SOL    HW1  947   1.060   1.037   1.867
  310SOL    HW2  948   1.164   0.928   1.930
  311SOL     OW  949   1.861   1.569   2.713
  311SOL    HW1  950   1.790   1.557   2.643
  311SOL    HW2  951   1.862   1.490   2.773
  312SOL     OW  952   0.079   1.240   2.515
  312SOL    HW1  953   0.078   1.193   2.603
  312SOL    HW2  954   0.161   1.212   2.464
  313SOL     OW  955   1.824   0.192   3.089
  313SOL    HW1  956   1.820   0.102   3.133
  313SOL    HW2  957   1.827   0.181   2.990
  314SOL     OW  958   0.428   0.424   2.382
  314SOL    HW1  959   0.458   0.352   2.320
  314SOL    HW2  960   0.389   0.384   2.465
  315SOL     OW  961   0.812   1.586   2.549
  315SOL    HW1  962   0.844   1.596   2.455
  315SOL    HW2  963   0.733   1.524   2.551
  316SOL     OW  964   0.770   1.330   2.163
  316SOL    HW1  965   0.724   1.243   2.180
  316SOL    HW2  966   0.861   1.327   2.204
  317SOL     OW  967   1.352   0.052   2.030
  317SOL    HW1  968   1.387   0.011   1.946
  317SOL    HW2  969   1.262   0.014   2.050
  318SOL     OW  970   1.300   0.453   2.553
  318SOL    HW1  971   1.241   0.533   2.557
  318SOL    HW2  972   1.315   0.418   2.646
  319SOL     OW  973   1.593   0.221   2.744
  319SOL    HW1  974   1.509   0.220   2.798
  319SOL    HW2  975   1.595   0.304   2.688
  320SOL     OW  976   0.039   1.077   2.162
  320SOL    HW1  977   0.138   1.066   2.153
  320SOL    HW2  978  -0.001   0.991   2.194
  321SOL     OW  979   0.875   1.646   2.199
  321SOL    HW1  980   0.798   1.611   2.145
  321SOL    HW2  981   0.843   1.717   2.261
  322SOL     OW  982   0.230   2.490   0.113
  322SOL    HW1  983   0.137   2.488   0.150
  322SOL    HW2  984   0.231   2.451   0.021
  323SOL     OW  985   0.225   2.137   0.996
  323SOL    HW1  986   0.260   2.120   1.088
  323SOL    HW2  987   0.137   2.092   0.984
  324SOL     OW  988   0.019   2.230   0.647
  324SOL    HW1  989  -0.063   2.273   0.686
  324SOL    HW2  990  -0.009   2.157   0.584
  325SOL     OW  991   1.135   2.565   0.717
  325SOL    HW1  992   1.192   2.643   0.692
  325SOL    HW2  993   1.075   2.591   0.793
  326SOL     OW  994   1.755   2.469   0.231
  326SOL    HW1  995   1.743   2.456   0.132
  326SOL    HW2  996   1.725   2.388   0.280
  327SOL     OW  997   0.768   3.006   1.023
  327SOL    HW1  998   0.690   3.023   1.083
  327SOL    HW2  999   0.802   3.093   0.987
  328SOL     OW 1000   0.850   2.660   1.823
  328SOL    HW1 1001   0.846   2.736   1.888
  328SOL    HW2 1002   0.872   2.696   1.732
  329SOL     OW 1003   0.685   2.874   0.665
  329SOL    HW1 1004   0.754   2.858   0.735
  329SOL    HW2 1005   0.612   2.931   0.703
  330SOL     OW 1006   0.438   2.254   1.499
  330SOL    HW1 1007   0.520   2.198   1.508
  330SOL    HW2 1008   0.357   2.196   1.503
  331SOL     OW 1009   1.603   2.309   0.737
  331SOL    HW1 1010   1.529   2.355   0.687
  331SOL    HW2 1011   1.654   2.377   0.790
  332SOL     OW 1012   0.240   2.953   0.886
  332SOL    HW1 1013   0.254   2.869   0.938
  332SOL    HW2 1014   0.185   3.017   0.941
  333SOL     OW 1015   1.594   1.976   1.480
  333SOL    HW1 1016   1.576   2.043   1.408
  333SOL    HW2 1017   1.591   2.022   1.569
  334SOL     OW 1018   0.122   2.505   0.563
  334SOL    HW1 1019   0.077   2.417   0.580
  334SOL    HW2 1020   0.121   2.559   0.647
  335SOL     OW 1021   0.113   2.599   1.597
  335SOL    HW1 1022   0.201   2.586   1.642
  335SOL    HW2 1023   0.100   2.696   1.575
  336SOL     OW 1024   0.809   1.866   0.502
  336SOL    HW1 1025   0.849   1.957   0.493
  336SOL    HW2 1026   0.709   1.874   0.508
  337SOL     OW 1027   0.197   2.838   1.264
  337SOL    HW1 1028   0.286   2.793   1.250
  337SOL    HW2 1029   0.124   2.773   1.245
  338SOL     OW 1030   1.525   2.861   0.190
  338SOL    HW1 1031   1.462   2.785   0.203
  338SOL    HW2 1032   1.573   2.879   0.276
  339SOL     OW 1033   0.317   2.113   1.801
  339SOL    HW1 1034   0.388   2.184   1.807
  339SOL    HW2 1035   0.229   2.152   1.829
  340SOL     OW 1036   0.598   2.591   0.270
  340SOL    HW1 1037   0.622   2.660   0.202
  340SOL    HW2 1038   0.520   2.624   0.324
  341SOL     OW 1039   1.281   2.207   0.944
  341SOL    HW1 1040   1.195   2.157   0.931
  341SOL    HW2 1041   1.343   2.153   1.000
  342SOL     OW 1042   0.807   2.467   1.465
  342SOL    HW1 1043   0.760   2.464   1.554
  342SOL    HW2 1044   0.756   2.412   1.399
  343SOL     OW 1045   1.394   2.331   1.674
  343SOL    HW1 1046   1.374   2.374   1.762
  343SOL    HW2 1047   1.472   2.269   1.683
  344SOL     OW 1048   0.973   2.752   1.572
  344SOL    HW1 1049   1.019   2.668   1.543
  344SOL    HW2 1050   0.917   2.786   1.497
  345SOL     OW 1051   0.991   2.272   1.242
  345SOL    HW1 1052   0.914   2.306   1.296
  345SOL    HW2 1053   0.957   2.221   1.163
  346SOL     OW 1054   1.041   2.563   0.429
  346SOL    HW1 1055   1.067   2.559   0.525
  346SOL    HW2 1056   0.956   2.512   0.415
  347SOL     OW 1057   0.076   2.673   0.789
  347SOL    HW1 1058   0.175   2.661   0.798
  347SOL    HW2 1059   0.052   2.768   0.810
  348SOL     OW 1060   0.865   2.210   0.195
  348SOL    HW1 1061   0.924   2.273   0.146
  348SOL    HW2 1062   0.884   2.116   0.166
  349SOL     OW 1063   1.719   2.447   1.831
  349SOL    HW1 1064   1.693   2.536   1.795
  349SOL    HW2 1065   1.717   2.379   1.758
  350SOL     OW 1066   0.550   2.058   0.885
  350SOL    HW1 1067   0.545   2.053   0.985
  350SOL    HW2 1068   0.552   2.154   0.856
  351SOL     OW 1069   1.458   2.597   0.728
  351SOL    HW1 1070   1.453   2.532   0.803
  351SOL    HW2 1071   1.538   2.656   0.741
  352SOL     OW 1072   0.202   2.147   1.498
  352SOL    HW1 1073   0.122   2.207   1.485
  352SOL    HW2 1074   0.192   2.098   1.584
  353SOL     OW 1075   1.400   1.969   0.426
  353SOL    HW1 1076   1.376   1.932   0.336
  353SOL    HW2 1077   1.499   1.985   0.430
  354SOL     OW 1078   0.382   2.562   0.480
  354SOL    HW1 1079   0.427   2.472   0.477
  354SOL    HW2 1080   0.288   2.551   0.513
  355SOL     OW 1081   1.547   2.084   1.729
  355SOL    HW1 1082   1.542   2.121   1.821
  355SOL    HW2 1083   1.475   2.015   1.717
  356SOL     OW 1084   0.614   1.984   0.117
  356SOL    HW1 1085   0.712   1.962   0.124
  356SOL    HW2 1086   0.583   1.967   0.024
  357SOL     OW 1087   0.781   2.126   1.749
  357SOL    HW1 1088   0.848   2.065   1.792
  357SOL    HW2 1089   0.708   2.145   1.814
  358SOL     OW 1090   1.351   2.452   1.433
  358SOL    HW1 1091   1.379   2.409   1.518
  358SOL    HW2 1092   1.376   2.548   1.434
  359SOL     OW 1093   0.922   2.365   0.899
  359SOL    HW1 1094   0.897   2.356   0.803
  359SOL    HW2 1095   0.970   2.283   0.930
  360SOL     OW 1096   0.539   1.926   0.512
  360SOL    HW1 1097   0.458   1.927   0.570
  360SOL    HW2 1098   0.542   2.009   0.457
  361SOL     OW 1099   0.935   2.098   0.480
  361SOL    HW1 1100   0.887   2.139   0.402
  361SOL    HW2 1101   1.034   2.096   0.461
  362SOL     OW 1102   1.076   2.545   1.464
  362SOL    HW1 1103   0.996   2.484   1.467
  362SOL    HW2 1104   1.157   2.492   1.440
  363SOL     OW 1105   1.032   2.411   0.016
  363SOL    HW1 1106   0.991   2.493  -0.023
  363SOL    HW2 1107   1.096   2.437   0.089
  364SOL     OW 1108   0.078   2.418   1.386
  364SOL    HW1 1109   0.170   2.417   1.345
  364SOL    HW2 1110   0.072   2.492   1.453
  365SOL     OW 1111   0.561   2.084   1.147
  365SOL    HW1 1112   0.599   2.000   1.184
  365SOL    HW2 1113   0.473   2.103   1.191
  366SOL     OW 1114   0.866   2.316   0.642
  366SOL    HW1 1115   0.834   2.388   0.580
  366SOL    HW2 1116   0.890   2.235   0.589
  367SOL     OW 1117   1.017   1.901   0.753
  367SOL    HW1 1118   0.945   1.906   0.684
  367SOL    HW2 1119   0.993   1.832   0.822
  368SOL     OW 1120   1.466   2.452   0.992
  368SOL    HW1 1121   1.436   2.357   0.999
  368SOL    HW2 1122   1.539   2.468   1.058
  369SOL     OW 1123   1.857   2.695   0.377
  369SOL    HW1 1124   1.899   2.631   0.441
  369SOL    HW2 1125   1.819   2.644   0.299
  370SOL     OW 1126   1.390   2.437   0.078
  370SOL    HW1 1127   1.336   2.416   0.159
  370SOL    HW2 1128   1.481   2.396   0.087
  371SOL     OW 1129   0.527   2.118   0.328
  371SOL    HW1 1130   0.554   2.059   0.253
  371SOL    HW2 1131   0.527   2.213   0.297
  372SOL     OW 1132   1.638   2.961   1.079
  372SOL    HW1 1133   1.643   3.042   1.138
  372SOL    HW2 1134   1.552   2.963   1.028
  373SOL     OW 1135   0.915   1.951   1.402
  373SOL    HW1 1136   0.940   1.931   1.307
  373SOL    HW2 1137   0.987   2.007   1.444
  374SOL     OW 1138   0.410   2.675   1.251
  374SOL    HW1 1139   0.496   2.687   1.301
  374SOL    HW2 1140   0.368   2.588   1.278
  375SOL     OW 1141   1.274   2.248   1.262
  375SOL    HW1 1142   1.295   2.322   1.326
  375SOL    HW2 1143   1.185   2.265   1.219
  376SOL     OW 1144   0.566   2.399   0.865
  376SOL    HW1 1145   0.578   2.465   0.791
  376SOL    HW2 1146   0.612   2.433   0.948
  377SOL     OW 1147   1.582   2.501   0.472
  377SOL    HW1 1148   1.551   2.562   0.545
  377SOL    HW2 1149   1.632   2.553   0.403
  378SOL     OW 1150   0.402   2.613   1.598
  378SOL    HW1 1151   0.470   2.668   1.551
  378SOL    HW2 1152   0.442   2.525   1.625
  379SOL     OW 1153   1.587   2.641   1.670
  379SOL    HW1 1154   1.495   2.679   1.665
  379SOL    HW2 1155   1.647   2.688   1.605
  380SOL     OW 1156   1.013   1.967   1.770
  380SOL    HW1 1157   1.019   2.052   1.718
  380SOL    HW2 1158   1.045   1.891   1.713
  381SOL     OW 1159   0.504   1.912   1.740
  381SOL    HW1 1160   0.462   1.855   1.670
  381SOL    HW2 1161   0.438   1.981   1.772
  382SOL     OW 1162   0.573   2.732   1.029
  382SOL    HW1 1163   0.617   2.821   1.020
  382SOL    HW2 1164   0.510   2.732   1.106
  383SOL     OW 1165   1.360   2.724   1.045
  383SOL    HW1 1166   1.285   2.724   0.979
  383SOL    HW2 1167   1.397   2.632   1.054
  384SOL     OW 1168   1.209   2.387   0.275
  384SOL    HW1 1169   1.222   2.303   0.329
  384SOL    HW2 1170   1.180   2.461   0.335
  385SOL     OW 1171   0.307   2.075   1.231
  385SOL    HW1 1172   0.284   2.112   1.321
  385SOL    HW2 1173   0.277   1.980   1.225
  386SOL     OW 1174   0.037   3.172   1.282
  386SOL    HW1 1175   0.090   3.123   1.350
  386SOL    HW2 1176   0.059   3.270   1.287
  387SOL     OW 1177   0.732   2.496   1.064
  387SOL    HW1 1178   0.791   2.470   0.988
  387SOL    HW2 1179   0.704   2.592   1.053
  388SOL     OW 1180   1.728   2.797   1.854
  388SOL    HW1 1181   1.682   2.790   1.765
  388SOL    HW2 1182   1.666   2.841   1.920
  389SOL     OW 1183   0.307   1.925   0.618
  389SOL    HW1 1184   0.296   2.019   0.651
  389SOL    HW2 1185   0.302   1.862   0.695
  390SOL     OW 1186   1.622   2.229   0.374
  390SOL    HW1 1187   1.624   2.153   0.438
  390SOL    HW2 1188   1.574   2.306   0.414
  391SOL     OW 1189   1.023   2.628   0.966
  391SOL    HW1 1190   1.038   2.649   1.062
  391SOL    HW2 1191   0.993   2.533   0.957
  392SOL     OW 1192   0.350   2.760   1.804
  392SOL    HW1 1193   0.426   2.804   1.852
  392SOL    HW2 1194   0.385   2.713   1.722
  393SOL     OW 1195   1.540   2.136   0.125
  393SOL    HW1 1196   1.479   2.061   0.148
  393SOL    HW2 1197   1.562   2.188   0.208
  394SOL     OW 1198   1.303   2.700   0.042
  394SOL    HW1 1199   1.337   2.607   0.057
  394SOL    HW2 1200   1.321   2.727  -0.053
  395SOL     OW 1201   0.319   2.672   0.949
  395SOL    HW1 1202   0.412   2.708   0.954
  395SOL    HW2 1203   0.313   2.587   1.001
  396SOL     OW 1204   0.339   2.371   1.006
  396SOL    HW1 1205   0.287   2.288   0.989
  396SOL    HW2 1206   0.416   2.376   0.942
  397SOL     OW 1207   1.138   2.242   1.678
  397SOL    HW1 1208   1.093   2.305   1.742
  397SOL    HW2 1209   1.231   2.273   1.661
  398SOL     OW 1210   1.160   2.069   1.477
  398SOL    HW1 1211   1.160   2.133   1.554
  398SOL    HW2 1212   1.188   2.117   1.394
  399SOL     OW 1213   1.002   2.658   1.238
  399SOL    HW1 1214   1.043   2.626   1.324
  399SOL    HW2 1215   0.906   2.631   1.235
  400SOL     OW 1216   0.040   2.406   1.114
  400SOL    HW1 1217   0.125   2.373   1.073
  400SOL    HW2 1218   0.053   2.421   1.212
  401SOL     OW 1219   0.189   2.382   1.722
  401SOL    HW1 1220   0.248   2.342   1.652
  401SOL    HW2 1221   0.131   2.453   1.681
  402SOL     OW 1222   1.369   2.812   1.660
  402SOL    HW1 1223   1.408   2.901   1.680
  402SOL    HW2 1224   1.379   2.792   1.563
  403SOL     OW 1225   0.815   2.434   0.325
  403SOL    HW1 1226   0.822   2.345   0.279
  403SOL    HW2 1227   0.721   2.468   0.317
  404SOL     OW 1228   1.657   2.466   1.206
  404SOL    HW1 1229   1.619   2.397   1.268
  404SOL    HW2 1230   1.739   2.430   1.162
  405SOL     OW 1231   0.671   2.326   1.269
  405SOL    HW1 1232   0.637   2.237   1.239
  405SOL    HW2 1233   0.697   2.380   1.189
  406SOL     OW 1234   0.473   2.362   0.191
  406SOL    HW1 1235   0.534   2.442   0.195
  406SOL    HW2 1236   0.378   2.393   0.198
  407SOL     OW 1237   0.159   2.999   1.466
  407SOL    HW1 1238   0.181   2.938   1.542
  407SOL    HW2 1239   0.169   2.950   1.380
  408SOL     OW 1240   1.347   2.921   1.234
  408SOL    HW1 1241   1.371   2.858   1.160
  408SOL    HW2 1242   1.257   2.961   1.216
  409SOL     OW 1243   1.302   2.717   0.309
  409SOL    HW1 1244   1.216   2.686   0.351
  409SOL    HW2 1245   1.298   2.703   0.210
  410SOL     OW 1246   0.903   1.948   0.133
  410SOL    HW1 1247   0.954   1.949   0.047
  410SOL    HW2 1248   0.959   1.906   0.204
  411SOL     OW 1249   1.726   1.997   0.523
  411SOL    HW1 1250   1.799   1.980   0.456
  411SOL    HW2 1251   1.695   1.910   0.561
  412SOL     OW 1252   1.280   2.789   0.672
  412SOL    HW1 1253   1.340   2.708   0.674
  412SOL    HW2 1254   1.320   2.858   0.612
  413SOL     OW 1255   1.841   2.037   0.963
  413SOL    HW1 1256   1.880   1.952   0.927
  413SOL    HW2 1257   1.743   2.039   0.944
  414SOL     OW 1258   0.263   2.188   0.720
  414SOL    HW1 1259   0.184   2.239   0.686
  414SOL    HW2 1260   0.254   2.173   0.818
  415SOL     OW 1261   0.916   2.772   0.291
  415SOL    HW1 1262   0.979   2.810   0.223
  415SOL    HW2 1263   0.956   2.689   0.330
  416SOL     OW 1264   1.014   2.098   0.971
  416SOL    HW1 1265   1.006   2.062   0.878
  416SOL    HW2 1266   1.012   2.022   1.036
  417SOL     OW 1267   1.709   2.247   1.381
  417SOL    HW1 1268   1.782   2.316   1.385
  417SOL    HW2 1269   1.737   2.172   1.322
  418SOL     OW 1270   0.105   2.875   1.726
  418SOL    HW1 1271   0.028   2.842   1.780
  418SOL    HW2 1272   0.190   2.845   1.768
  419SOL     OW 1273   0.672   2.065   1.489
  419SOL    HW1 1274   0.762   2.049   1.449
  419SOL    HW2 1275   0.680   2.070   1.588
  420SOL     OW 1276   0.075   2.207   0.033
  420SOL    HW1 1277  -0.017   2.179   0.004
  420SOL    HW2 1278   0.106   2.284  -0.023
  421SOL     OW 1279   1.440   2.718   1.398
  421SOL    HW1 1280   1.383   2.770   1.335
  421SOL    HW2 1281   1.536   2.730   1.374
  422SOL     OW 1282   0.072   2.028   0.318
  422SOL    HW1 1283   0.055   2.111   0.264
  422SOL    HW2 1284   0.162   1.991   0.296
  423SOL     OW 1285   0.613   2.704   1.431
  423SOL    HW1 1286   0.669   2.785   1.414
  423SOL    HW2 1287   0.672   2.624   1.434
  424SOL     OW 1288   0.716   2.427   1.708
  424SOL    HW1 1289   0.735   2.492   1.782
  424SOL    HW2 1290   0.776   2.347   1.717
  425SOL     OW 1291   1.674   2.745   1.254
  425SOL    HW1 1292   1.647   2.656   1.217
  425SOL    HW2 1293   1.675   2.813   1.181
  426SOL     OW 1294   1.225   2.187   0.449
  426SOL    HW1 1295   1.290   2.113   0.438
  426SOL    HW2 1296   1.245   2.237   0.533
  427SOL     OW 1297   0.594   2.607   0.652
  427SOL    HW1 1298   0.644   2.692   0.633
  427SOL    HW2 1299   0.506   2.609   0.604
  428SOL     OW 1300   1.777   2.204   1.642
  428SOL    HW1 1301   1.760   2.235   1.548
  428SOL    HW2 1302   1.693   2.167   1.680
  429SOL     OW 1303   1.730   2.796   1.517
  429SOL    HW1 1304   1.768   2.887   1.532
  429SOL    HW2 1305   1.722   2.779   1.418
  430SOL     OW 1306   1.083   2.846   0.087
  430SOL    HW1 1307   1.060   2.899   0.005
  430SOL    HW2 1308   1.164   2.790   0.068
  431SOL     OW 1309   1.824   2.054   1.227
  431SOL    HW1 1310   1.820   1.964   1.271
  431SOL    HW2 1311   1.827   2.043   1.128
  432SOL     OW 1312   0.428   2.286   0.520
  432SOL    HW1 1313   0.458   2.214   0.458
  432SOL    HW2 1314   0.389   2.246   0.603
  433SOL     OW 1315   0.317   2.409   1.280
  433SOL    HW1 1316   0.355   2.350   1.352
  433SOL    HW2 1317   0.357   2.383   1.192
  434SOL     OW 1318   1.424   2.076   1.112
  434SOL    HW1 1319   1.476   2.011   1.167
  434SOL    HW2 1320   1.375   2.139   1.173
  435SOL     OW 1321   1.001   1.896   1.154
  435SOL    HW1 1322   0.938   1.824   1.123
  435SOL    HW2 1323   1.094   1.860   1.154
  436SOL     OW 1324   1.352   1.914   0.168
  436SOL    HW1 1325   1.387   1.873   0.084
  436SOL    HW2 1326   1.262   1.876   0.188
  437SOL     OW 1327   1.300   2.315   0.691
  437SOL    HW1 1328   1.241   2.395   0.695
  437SOL    HW2 1329   1.315   2.280   0.784
  438SOL     OW 1330   1.593   2.083   0.882
  438SOL    HW1 1331   1.509   2.082   0.936
  438SOL    HW2 1332   1.595   2.166   0.826
  439SOL     OW 1333   0.230   2.490   1.975
  439SOL    HW1 1334   0.137   2.488   2.012
  439SOL    HW2 1335   0.231   2.451   1.883
  440SOL     OW 1336   0.225   2.137   2.858
  440SOL    HW1 1337   0.260   2.120   2.950
  440SOL    HW2 1338   0.137   2.092   2.846
  441SOL     OW 1339   0.019   2.230   2.509
  441SOL    HW1 1340  -0.063   2.273   2.548
  441SOL    HW2 1341  -0.009   2.157   2.446
  442SOL     OW 1342   1.135   2.565   2.579
  442SOL    HW1 1343   1.192   2.643   2.554
  442SOL    HW2 1344   1.075   2.591   2.655
  443SOL     OW 1345   1.755   2.469   2.093
  443SOL    HW1 1346   1.743   2.456   1.994
  443SOL    HW2 1347   1.725   2.388   2.142
  444SOL     OW 1348   0.685   2.874   2.527
  444SOL    HW1 1349   0.754   2.858   2.597
  444SOL    HW2 1350   0.612   2.931   2.565
  445SOL     OW 1351   1.603   2.309   2.599
  445SOL    HW1 1352   1.529   2.355   2.549
  445SOL    HW2 1353   1.654   2.377   2.652
  446SOL     OW 1354   0.240   2.953   2.748
  446SOL    HW1 1355   0.254   2.869   2.800
  446SOL    HW2 1356   0.185   3.017   2.803
  447SOL     OW 1357   0.122   2.505   2.425
  447SOL    HW1 1358   0.077   2.417   2.442
  447SOL    HW2 1359   0.121   2.559   2.509
  448SOL     OW 1360   0.613   3.227   2.588
  448SOL    HW1 1361   0.564   3.140   2.597
  448SOL    HW2 1362   0.590   3.270   2.501
  449SOL     OW 1363   0.809   1.866   2.364
  449SOL    HW1 1364   0.849   1.957   2.355
  449SOL    HW2 1365   0.709   1.874   2.370
  450SOL     OW 1366   1.525   2.861   2.052
  450SOL    HW1 1367   1.462   2.785   2.065
  450SOL    HW2 1368   1.573   2.879   2.138
  451SOL     OW 1369   0.598   2.591   2.132
  451SOL    HW1 1370   0.622   2.660   2.064
  451SOL    HW2 1371   0.520   2.624   2.186
  452SOL     OW 1372   1.281   2.207   2.806
  452SOL    HW1 1373   1.195   2.157   2.793
  452SOL    HW2 1374   1.343   2.153   2.862
  453SOL     OW 1375   1.041   2.563   2.291
  453SOL    HW1 1376   1.067   2.559   2.387
  453SOL    HW2 1377   0.956   2.512   2.277
  454SOL     OW 1378   0.076   2.673   2.651
  454SOL    HW1 1379   0.175   2.661   2.660
  454SOL    HW2 1380   0.052   2.768   2.672
  455SOL     OW 1381   0.865   2.210   2.057
  455SOL    HW1 1382   0.924   2.273   2.008
  455SOL    HW2 1383   0.884   2.116   2.028
  456SOL     OW 1384   1.458   2.597   2.590
  456SOL    HW1 1385   1.453   2.532   2.665
  456SOL    HW2 1386   1.538   2.656   2.603
  457SOL     OW 1387   1.400   1.969   2.288
  457SOL    HW1 1388   1.376   1.932   2.198
  457SOL    HW2 1389   1.499   1.985   2.292
  458SOL     OW 1390   0.382   2.562   2.342
  458SOL    HW1 1391   0.427   2.472   2.339
  458SOL    HW2 1392   0.288   2.551   2.375
  459SOL     OW 1393   0.614   1.984   1.979
  459SOL    HW1 1394   0.712   1.962   1.986
  459SOL    HW2 1395   0.583   1.967   1.886
  460SOL     OW 1396   0.922   2.365   2.761
  460SOL    HW1 1397   0.897   2.356   2.665
  460SOL    HW2 1398   0.970   2.283   2.792
  461SOL     OW 1399   0.539   1.926   2.374
  461SOL    HW1 1400   0.458   1.927   2.432
  461SOL    HW2 1401   0.542   2.009   2.319
  462SOL     OW 1402   0.297   1.897   2.033
  462SOL    HW1 1403   0.346   1.981   2.012
  462SOL    HW2 1404   0.359   1.832   2.078
  463SOL     OW 1405   0.935   2.098   2.342
  463SOL    HW1 1406   0.887   2.139   2.264
  463SOL    HW2 1407   1.034   2.096   2.323
  464SOL     OW 1408   1.032   2.411   1.878
  464SOL    HW1 1409   0.991   2.493   1.839
  464SOL    HW2 1410   1.096   2.437   1.951
  465SOL     OW 1411   0.866   2.316   2.504
  465SOL    HW1 1412   0.834   2.388   2.442
  465SOL    HW2 1413   0.890   2.235   2.451
  466SOL     OW 1414   1.017   1.901   2.615
  466SOL    HW1 1415   0.945   1.906   2.546
  466SOL    HW2 1416   0.993   1.832   2.684
  467SOL     OW 1417   1.857   2.695   2.239
  467SOL    HW1 1418   1.899   2.631   2.303
  467SOL    HW2 1419   1.819   2.644   2.161
  468SOL     OW 1420   1.390   2.437   1.940
  468SOL    HW1 1421   1.336   2.416   2.021
  468SOL    HW2 1422   1.481   2.396   1.949
  469SOL     OW 1423   0.527   2.118   2.190
  469SOL    HW1 1424   0.554   2.059   2.115
  469SOL    HW2 1425   0.527   2.213   2.159
  470SOL     OW 1426   1.111   3.057   2.962
  470SOL    HW1 1427   1.071   3.101   3.043
  470SOL    HW2 1428   1.070   3.094   2.879
  471SOL     OW 1429   1.638   2.961   2.941
  471SOL    HW1 1430   1.643   3.042   3.000
  471SOL    HW2 1431   1.552   2.963   2.890
  472SOL     OW 1432   0.566   2.399   2.727
  472SOL    HW1 1433   0.578   2.465   2.653
  472SOL    HW2 1434   0.612   2.433   2.810
  473SOL     OW 1435   1.582   2.501   2.334
  473SOL    HW1 1436   1.551   2.562   2.407
  473SOL    HW2 1437   1.632   2.553   2.265
  474SOL     OW 1438   0.573   2.732   2.891
  474SOL    HW1 1439   0.617   2.821   2.882
  474SOL    HW2 1440   0.510   2.732   2.968
  475SOL     OW 1441   1.209   2.387   2.137
  475SOL    HW1 1442   1.222   2.303   2.191
  475SOL    HW2 1443   1.180   2.461   2.197
  476SOL     OW 1444   0.307   2.075   3.093
  476SOL    HW1 1445   0.284   2.112   3.183
  476SOL    HW2 1446   0.277   1.980   3.087
  477SOL     OW 1447   0.732   2.496   2.926
  477SOL    HW1 1448   0.791   2.470   2.850
  477SOL    HW2 1449   0.704   2.592   2.915
  478SOL     OW 1450   0.307   1.925   2.480
  478SOL    HW1 1451   0.296   2.019   2.513
  478SOL    HW2 1452   0.302   1.862   2.557
  479SOL     OW 1453   1.622   2.229   2.236
  479SOL    HW1 1454   1.624   2.153   2.300
  479SOL    HW2 1455   1.574   2.306   2.276
  480SOL     OW 1456   1.540   2.136   1.987
  480SOL    HW1 1457   1.479   2.061   2.010
  480SOL    HW2 1458   1.562   2.188   2.070
  481SOL     OW 1459   1.303   2.700   1.904
  481SOL    HW1 1460   1.337   2.607   1.919
  481SOL    HW2 1461   1.321   2.727   1.809
  482SOL     OW 1462   0.319   2.672   2.811
  482SOL    HW1 1463   0.412   2.708   2.816
  482SOL    HW2 1464   0.313   2.587   2.863
  483SOL     OW 1465   0.815   2.434   2.187
  483SOL    HW1 1466   0.822   2.345   2.141
  483SOL    HW2 1467   0.721   2.468   2.179
  484SOL     OW 1468   0.671   2.326   3.131
  484SOL    HW1 1469   0.637   2.237   3.101
  484SOL    HW2 1470   0.697   2.380   3.051
  485SOL     OW 1471   0.473   2.362   2.053
  485SOL    HW1 1472   0.534   2.442   2.057
  485SOL    HW2 1473   0.378   2.393   2.060
  486SOL     OW 1474   1.302   2.717   2.171
  486SOL    HW1 1475   1.216   2.686   2.213
  486SOL    HW2 1476   1.298   2.703   2.072
  487SOL     OW 1477   1.726   1.997   2.385
  487SOL    HW1 1478   1.799   1.980   2.318
  487SOL    HW2 1479   1.695   1.910   2.423
  488SOL     OW 1480   1.280   2.789   2.534
  488SOL    HW1 1481   1.340   2.708   2.536
  488SOL    HW2 1482   1.320   2.858   2.474
  489SOL     OW 1483   1.841   2.037   2.825
  489SOL    HW1 1484   1.880   1.952   2.789
  489SOL    HW2 1485   1.743   2.039   2.806
  490SOL     OW 1486   0.263   2.188   2.582
  490SOL    HW1 1487   0.184   2.239   2.548
  490SOL    HW2 1488   0.254   2.173   2.680
  491SOL     OW 1489   0.916   2.772   2.153
  491SOL    HW1 1490   0.979   2.810   2.085
  491SOL    HW2 1491   0.956   2.689   2.192
  492SOL     OW 1492   0.075   2.207   1.895
  492SOL    HW1 1493  -0.017   2.179   1.866
  492SOL    HW2 1494   0.106   2.284   1.839
  493SOL     OW 1495   0.072   2.028   2.180
  493SOL    HW1 1496   0.055   2.111   2.126
  493SOL    HW2 1497   0.162   1.991   2.158
  494SOL     OW 1498   1.674   2.745   3.116
  494SOL    HW1 1499   1.647   2.656   3.079
  494SOL    HW2 1500   1.675   2.813   3.043
  495SOL     OW 1501   1.225   2.187   2.311
  495SOL    HW1 1502   1.290   2.113   2.300
  495SOL    HW2 1503   1.245   2.237   2.395
  496SOL     OW 1504   0.594   2.607   2.514
  496SOL    HW1 1505   0.644   2.692   2.495
  496SOL    HW2 1506   0.506   2.609   2.466
  497SOL     OW 1507   1.083   2.846   1.949
  497SOL    HW1 1508   1.060   2.899   1.867
  497SOL    HW2 1509   1.164   2.790   1.930
  498SOL     OW 1510   1.824   2.054   3.089
  498SOL    HW1 1511   1.820   1.964   3.133
  498SOL    HW2 1512   1.827   2.043   2.990
  499SOL     OW 1513   0.428   2.286   2.382
  499SOL    HW1 1514   0.458   2.214   2.320
  499SOL    HW2 1515   0.389   2.246   2.465
  500SOL     OW 1516   1.352   1.914   2.030
  500SOL    HW1 1517   1.387   1.873   1.946
  500SOL    HW2 1518   1.262   1.876   2.050
  501SOL     OW 1519   1.300   2.315   2.553
  501SOL    HW1 1520   1.241   2.395   2.557
  501SOL    HW2 1521   1.315   2.280   2.646
  502SOL     OW 1522   1.593   2.083   2.744
  502SOL    HW1 1523   1.509   2.082   2.798
  502SOL    HW2 1524   1.595   2.166   2.688
  503SOL     OW 1525   2.092   0.628   0.113
  503SOL    HW1 1526   1.999   0.626   0.150
  503SOL    HW2 1527   2.093   0.589   0.021
  504SOL     OW 1528   2.087   0.275   0.996
  504SOL    HW1 1529   2.122   0.258   1.088
  504SOL    HW2 1530   1.999   0.230   0.984
  505SOL     OW 1531   1.881   0.368   0.647
  505SOL    HW1 1532   1.799   0.411   0.686
  505SOL    HW2 1533   1.853   0.295   0.584
  506SOL     OW 1534   2.431   1.275   1.165
  506SOL    HW1 1535   2.338   1.268   1.128
  506SOL    HW2 1536   2.442   1.364   1.209
  507SOL     OW 1537   2.630   1.144   1.023
  507SOL    HW1 1538   2.552   1.161   1.083
  507SOL    HW2 1539   2.664   1.231   0.987
  508SOL     OW 1540   2.712   0.798   1.823
  508SOL    HW1 1541   2.708   0.874   1.888
  508SOL    HW2 1542   2.734   0.834   1.732
  509SOL     OW 1543   2.547   1.012   0.665
  509SOL    HW1 1544   2.616   0.996   0.735
  509SOL    HW2 1545   2.474   1.069   0.703
  510SOL     OW 1546   2.548   1.161   1.803
  510SOL    HW1 1547   2.608   1.240   1.817
  510SOL    HW2 1548   2.462   1.192   1.762
  511SOL     OW 1549   2.197   1.435   1.061
  511SOL    HW1 1550   2.119   1.404   1.008
  511SOL    HW2 1551   2.255   1.493   1.004
  512SOL     OW 1552   2.300   0.392   1.499
  512SOL    HW1 1553   2.382   0.336   1.508
  512SOL    HW2 1554   2.219   0.334   1.503
  513SOL     OW 1555   2.093   1.713   0.483
  513SOL    HW1 1556   2.127   1.790   0.537
  513SOL    HW2 1557   2.137   1.713   0.393
  514SOL     OW 1558   2.092   1.434   0.538
  514SOL    HW1 1559   2.066   1.530   0.538
  514SOL    HW2 1560   2.021   1.380   0.583
  515SOL     OW 1561   2.102   1.091   0.886
  515SOL    HW1 1562   2.116   1.007   0.938
  515SOL    HW2 1563   2.047   1.155   0.941
  516SOL     OW 1564   2.482   1.786   1.439
  516SOL    HW1 1565   2.390   1.769   1.474
  516SOL    HW2 1566   2.510   1.878   1.465
  517SOL     OW 1567   2.468   0.964   0.123
  517SOL    HW1 1568   2.475   1.048   0.069
  517SOL    HW2 1569   2.514   0.977   0.211
  518SOL     OW 1570   1.984   0.643   0.563
  518SOL    HW1 1571   1.939   0.555   0.580
  518SOL    HW2 1572   1.983   0.697   0.647
  519SOL     OW 1573   1.889   1.596   0.117
  519SOL    HW1 1574   1.870   1.500   0.138
  519SOL    HW2 1575   1.856   1.654   0.192
  520SOL     OW 1576   1.975   0.737   1.597
  520SOL    HW1 1577   2.063   0.724   1.642
  520SOL    HW2 1578   1.962   0.834   1.575
  521SOL     OW 1579   2.475   1.365   0.726
  521SOL    HW1 1580   2.426   1.278   0.735
  521SOL    HW2 1581   2.452   1.408   0.639
  522SOL     OW 1582   2.671   0.004   0.502
  522SOL    HW1 1583   2.711   0.095   0.493
  522SOL    HW2 1584   2.571   0.012   0.508
  523SOL     OW 1585   2.059   0.976   1.264
  523SOL    HW1 1586   2.148   0.931   1.250
  523SOL    HW2 1587   1.986   0.911   1.245
  524SOL     OW 1588   2.179   0.251   1.801
  524SOL    HW1 1589   2.250   0.322   1.807
  524SOL    HW2 1590   2.091   0.290   1.829
  525SOL     OW 1591   2.460   0.729   0.270
  525SOL    HW1 1592   2.484   0.798   0.202
  525SOL    HW2 1593   2.382   0.762   0.324
  526SOL     OW 1594   2.669   0.605   1.465
  526SOL    HW1 1595   2.622   0.602   1.554
  526SOL    HW2 1596   2.618   0.550   1.399
  527SOL     OW 1597   1.938   0.811   0.789
  527SOL    HW1 1598   2.037   0.799   0.798
  527SOL    HW2 1599   1.914   0.906   0.810
  528SOL     OW 1600   1.992   1.821   1.571
  528SOL    HW1 1601   1.982   1.806   1.670
  528SOL    HW2 1602   1.906   1.857   1.535
  529SOL     OW 1603   2.727   0.348   0.195
  529SOL    HW1 1604   2.786   0.411   0.146
  529SOL    HW2 1605   2.746   0.254   0.166
  530SOL     OW 1606   2.412   0.196   0.885
  530SOL    HW1 1607   2.407   0.191   0.985
  530SOL    HW2 1608   2.414   0.292   0.856
  531SOL     OW 1609   2.870   1.456   0.477
  531SOL    HW1 1610   2.824   1.528   0.425
  531SOL    HW2 1611   2.866   1.476   0.575
  532SOL     OW 1612   2.213   1.801   0.853
  532SOL    HW1 1613   2.263   1.715   0.859
  532SOL    HW2 1614   2.278   1.878   0.850
  533SOL     OW 1615   2.183   0.943   0.242
  533SOL    HW1 1616   2.265   0.982   0.200
  533SOL    HW2 1617   2.156   0.861   0.193
  534SOL     OW 1618   2.323   1.266   1.727
  534SOL    HW1 1619   2.273   1.267   1.641
  534SOL    HW2 1620   2.260   1.248   1.803
  535SOL     OW 1621   2.064   0.285   1.498
  535SOL    HW1 1622   1.984   0.345   1.485
  535SOL    HW2 1623   2.054   0.236   1.584
  536SOL     OW 1624   2.326   1.743   0.323
  536SOL    HW1 1625   2.359   1.782   0.409
  536SOL    HW2 1626   2.402   1.736   0.258
  537SOL     OW 1627   2.111   1.785   1.241
  537SOL    HW1 1628   2.168   1.720   1.291
  537SOL    HW2 1629   2.095   1.752   1.148
  538SOL     OW 1630   2.244   0.700   0.480
  538SOL    HW1 1631   2.289   0.610   0.477
  538SOL    HW2 1632   2.150   0.689   0.513
  539SOL     OW 1633   2.476   0.122   0.117
  539SOL    HW1 1634   2.574   0.100   0.124
  539SOL    HW2 1635   2.445   0.105   0.024
  540SOL     OW 1636   2.643   0.264   1.749
  540SOL    HW1 1637   2.710   0.203   1.792
  540SOL    HW2 1638   2.570   0.283   1.814
  541SOL     OW 1639   2.750   1.514   1.195
  541SOL    HW1 1640   2.727   1.489   1.101
  541SOL    HW2 1641   2.811   1.445   1.234
  542SOL     OW 1642   2.665   1.402   0.924
  542SOL    HW1 1643   2.755   1.416   0.882
  542SOL    HW2 1644   2.594   1.404   0.853
  543SOL     OW 1645   2.784   0.503   0.899
  543SOL    HW1 1646   2.759   0.494   0.803
  543SOL    HW2 1647   2.832   0.421   0.930
  544SOL     OW 1648   2.401   0.064   0.512
  544SOL    HW1 1649   2.320   0.065   0.570
  544SOL    HW2 1650   2.404   0.147   0.457
  545SOL     OW 1651   2.159   0.035   0.171
  545SOL    HW1 1652   2.208   0.119   0.150
  545SOL    HW2 1653   2.221  -0.030   0.216
  546SOL     OW 1654   2.797   0.236   0.480
  546SOL    HW1 1655   2.749   0.277   0.402
  546SOL    HW2 1656   2.896   0.234   0.461
  547SOL     OW 1657   3.089   1.570   0.793
  547SOL    HW1 1658   3.110   1.644   0.728
  547SOL    HW2 1659   3.157   1.570   0.866
  548SOL     OW 1660   2.321   1.152   0.741
  548SOL    HW1 1661   2.250   1.125   0.806
  548SOL    HW2 1662   2.295   1.124   0.648
  549SOL     OW 1663   1.940   0.556   1.386
  549SOL    HW1 1664   2.032   0.555   1.345
  549SOL    HW2 1665   1.934   0.630   1.453
  550SOL     OW 1666   2.423   0.222   1.147
  550SOL    HW1 1667   2.461   0.138   1.184
  550SOL    HW2 1668   2.335   0.241   1.191
  551SOL     OW 1669   2.879   0.039   0.753
  551SOL    HW1 1670   2.807   0.044   0.684
  551SOL    HW2 1671   2.855  -0.030   0.822
  552SOL     OW 1672   2.350   1.385   0.174
  552SOL    HW1 1673   2.263   1.370   0.221
  552SOL    HW2 1674   2.333   1.411   0.079
  553SOL     OW 1675   2.389   0.256   0.328
  553SOL    HW1 1676   2.416   0.197   0.253
  553SOL    HW2 1677   2.389   0.351   0.297
  554SOL     OW 1678   2.777   0.089   1.402
  554SOL    HW1 1679   2.802   0.069   1.307
  554SOL    HW2 1680   2.849   0.145   1.444
  555SOL     OW 1681   2.842   1.116   1.719
  555SOL    HW1 1682   2.743   1.122   1.729
  555SOL    HW2 1683   2.865   1.036   1.663
  556SOL     OW 1684   2.567   1.050   0.368
  556SOL    HW1 1685   2.553   1.057   0.467
  556SOL    HW2 1686   2.651   0.999   0.350
  557SOL     OW 1687   2.272   0.813   1.251
  557SOL    HW1 1688   2.358   0.825   1.301
  557SOL    HW2 1689   2.230   0.726   1.278
  558SOL     OW 1690   1.926   1.564   1.331
  558SOL    HW1 1691   1.880   1.646   1.297
  558SOL    HW2 1692   2.024   1.583   1.340
  559SOL     OW 1693   2.229   1.100   0.501
  559SOL    HW1 1694   2.222   1.183   0.445
  559SOL    HW2 1695   2.233   1.020   0.441
  560SOL     OW 1696   2.428   0.537   0.865
  560SOL    HW1 1697   2.440   0.603   0.791
  560SOL    HW2 1698   2.474   0.571   0.948
  561SOL     OW 1699   2.216   1.510   1.329
  561SOL    HW1 1700   2.195   1.466   1.242
  561SOL    HW2 1701   2.313   1.536   1.332
  562SOL     OW 1702   2.264   0.751   1.598
  562SOL    HW1 1703   2.332   0.806   1.551
  562SOL    HW2 1704   2.304   0.663   1.625
  563SOL     OW 1705   2.366   0.050   1.740
  563SOL    HW1 1706   2.324  -0.007   1.670
  563SOL    HW2 1707   2.300   0.119   1.772
  564SOL     OW 1708   2.435   0.870   1.029
  564SOL    HW1 1709   2.479   0.959   1.020
  564SOL    HW2 1710   2.372   0.870   1.106
  565SOL     OW 1711   3.071   0.525   0.275
  565SOL    HW1 1712   3.084   0.441   0.329
  565SOL    HW2 1713   3.042   0.599   0.335
  566SOL     OW 1714   2.169   0.213   1.231
  566SOL    HW1 1715   2.146   0.250   1.321
  566SOL    HW2 1716   2.139   0.118   1.225
  567SOL     OW 1717   2.594   0.634   1.064
  567SOL    HW1 1718   2.653   0.608   0.988
  567SOL    HW2 1719   2.566   0.730   1.053
  568SOL     OW 1720   2.169   0.063   0.618
  568SOL    HW1 1721   2.158   0.157   0.651
  568SOL    HW2 1722   2.164   0.000   0.695
  569SOL     OW 1723   2.885   0.766   0.966
  569SOL    HW1 1724   2.900   0.787   1.062
  569SOL    HW2 1725   2.855   0.671   0.957
  570SOL     OW 1726   2.842   1.573   1.700
  570SOL    HW1 1727   2.822   1.617   1.612
  570SOL    HW2 1728   2.881   1.482   1.684
  571SOL     OW 1729   2.212   0.898   1.804
  571SOL    HW1 1730   2.288   0.942   1.852
  571SOL    HW2 1731   2.247   0.851   1.722
  572SOL     OW 1732   2.181   0.810   0.949
  572SOL    HW1 1733   2.274   0.846   0.954
  572SOL    HW2 1734   2.175   0.725   1.001
  573SOL     OW 1735   2.201   0.509   1.006
  573SOL    HW1 1736   2.149   0.426   0.989
  573SOL    HW2 1737   2.278   0.514   0.942
  574SOL     OW 1738   1.870   1.326   0.200
  574SOL    HW1 1739   1.777   1.347   0.169
  574SOL    HW2 1740   1.880   1.227   0.213
  575SOL     OW 1741   1.950   1.801   0.927
  575SOL    HW1 1742   1.908   1.715   0.900
  575SOL    HW2 1743   2.044   1.804   0.893
  576SOL     OW 1744   2.366   1.568   0.910
  576SOL    HW1 1745   2.432   1.642   0.919
  576SOL    HW2 1746   2.410   1.489   0.868
  577SOL     OW 1747   2.864   0.796   1.238
  577SOL    HW1 1748   2.905   0.764   1.324
  577SOL    HW2 1749   2.768   0.769   1.235
  578SOL     OW 1750   1.902   0.544   1.114
  578SOL    HW1 1751   1.987   0.511   1.073
  578SOL    HW2 1752   1.915   0.559   1.212
  579SOL     OW 1753   2.051   0.520   1.722
  579SOL    HW1 1754   2.110   0.480   1.652
  579SOL    HW2 1755   1.993   0.591   1.681
  580SOL     OW 1756   2.677   0.572   0.325
  580SOL    HW1 1757   2.684   0.483   0.279
  580SOL    HW2 1758   2.583   0.606   0.317
  581SOL     OW 1759   2.114   1.564   1.744
  581SOL    HW1 1760   2.084   1.621   1.820
  581SOL    HW2 1761   2.107   1.467   1.770
  582SOL     OW 1762   2.533   0.464   1.269
  582SOL    HW1 1763   2.499   0.375   1.239
  582SOL    HW2 1764   2.559   0.518   1.189
  583SOL     OW 1765   2.792   1.678   1.465
  583SOL    HW1 1766   2.768   1.660   1.370
  583SOL    HW2 1767   2.822   1.772   1.475
  584SOL     OW 1768   2.335   0.500   0.191
  584SOL    HW1 1769   2.396   0.580   0.195
  584SOL    HW2 1770   2.240   0.531   0.198
  585SOL     OW 1771   2.021   1.137   1.466
  585SOL    HW1 1772   2.043   1.076   1.542
  585SOL    HW2 1773   2.031   1.088   1.380
  586SOL     OW 1774   1.945   1.258   1.022
  586SOL    HW1 1775   1.940   1.257   1.122
  586SOL    HW2 1776   1.862   1.217   0.984
  587SOL     OW 1777   2.550   1.662   1.716
  587SOL    HW1 1778   2.494   1.743   1.725
  587SOL    HW2 1779   2.602   1.666   1.630
  588SOL     OW 1780   2.765   0.086   0.133
  588SOL    HW1 1781   2.816   0.087   0.047
  588SOL    HW2 1782   2.821   0.044   0.204
  589SOL     OW 1783   1.992   1.794   1.851
  589SOL    HW1 1784   1.951   1.720   1.904
  589SOL    HW2 1785   2.056   1.845   1.909
  590SOL     OW 1786   3.142   0.927   0.672
  590SOL    HW1 1787   3.202   0.846   0.674
  590SOL    HW2 1788   3.182   0.996   0.612
  591SOL     OW 1789   2.692   1.273   1.422
  591SOL    HW1 1790   2.687   1.306   1.517
  591SOL    HW2 1791   2.606   1.292   1.376
  592SOL     OW 1792   2.534   1.616   0.154
  592SOL    HW1 1793   2.543   1.626   0.055
  592SOL    HW2 1794   2.494   1.527   0.175
  593SOL     OW 1795   2.125   0.326   0.720
  593SOL    HW1 1796   2.046   0.377   0.686
  593SOL    HW2 1797   2.116   0.311   0.818
  594SOL     OW 1798   2.684   1.002   1.372
  594SOL    HW1 1799   2.724   1.001   1.280
  594SOL    HW2 1800   2.694   1.094   1.412
  595SOL     OW 1801   2.234   1.288   1.490
  595SOL    HW1 1802   2.221   1.381   1.456
  595SOL    HW2 1803   2.150   1.236   1.477
  596SOL     OW 1804   2.876   0.236   0.971
  596SOL    HW1 1805   2.868   0.200   0.878
  596SOL    HW2 1806   2.874   0.160   1.036
  597SOL     OW 1807   2.452   1.487   0.491
  597SOL    HW1 1808   2.494   1.429   0.421
  597SOL    HW2 1809   2.408   1.566   0.447
  598SOL     OW 1810   2.117   1.348   0.290
  598SOL    HW1 1811   2.021   1.349   0.263
  598SOL    HW2 1812   2.129   1.401   0.374
  599SOL     OW 1813   1.967   1.013   1.726
  599SOL    HW1 1814   1.890   0.980   1.780
  599SOL    HW2 1815   2.052   0.983   1.768
  600SOL     OW 1816   2.534   0.203   1.489
  600SOL    HW1 1817   2.624   0.187   1.449
  600SOL    HW2 1818   2.542   0.208   1.588
  601SOL     OW 1819   1.937   0.345   0.033
  601SOL    HW1 1820   1.845   0.317   0.004
  601SOL    HW2 1821   1.968   0.422  -0.023
  602SOL     OW 1822   2.475   0.842   1.431
  602SOL    HW1 1823   2.531   0.923   1.414
  602SOL    HW2 1824   2.534   0.762   1.434
  603SOL     OW 1825   2.578   0.565   1.708
  603SOL    HW1 1826   2.597   0.630   1.782
  603SOL    HW2 1827   2.638   0.485   1.717
  604SOL     OW 1828   2.252   1.741   1.560
  604SOL    HW1 1829   2.161   1.782   1.558
  604SOL    HW2 1830   2.245   1.647   1.592
  605SOL     OW 1831   3.087   0.325   0.449
  605SOL    HW1 1832   3.152   0.251   0.438
  605SOL    HW2 1833   3.107   0.375   0.533
  606SOL     OW 1834   2.456   0.745   0.652
  606SOL    HW1 1835   2.506   0.830   0.633
  606SOL    HW2 1836   2.368   0.747   0.604
  607SOL     OW 1837   2.721   1.374   0.016
  607SOL    HW1 1838   2.675   1.389   0.104
  607SOL    HW2 1839   2.765   1.459  -0.014
  608SOL     OW 1840   2.523   1.790   0.953
  608SOL    HW1 1841   2.477   1.878   0.940
  608SOL    HW2 1842   2.622   1.802   0.946
  609SOL     OW 1843   2.721   0.956   0.861
  609SOL    HW1 1844   2.775   0.887   0.909
  609SOL    HW2 1845   2.689   1.025   0.927
  610SOL     OW 1846   2.945   0.984   0.087
  610SOL    HW1 1847   2.922   1.037   0.005
  610SOL    HW2 1848   3.026   0.928   0.068
  611SOL     OW 1849   2.083   1.314   1.844
  611SOL    HW1 1850   2.018   1.241   1.823
  611SOL    HW2 1851   2.087   1.328   1.942
  612SOL     OW 1852   1.941   1.240   0.653
  612SOL    HW1 1853   1.940   1.193   0.741
  612SOL    HW2 1854   2.023   1.212   0.602
  613SOL     OW 1855   2.534   1.391   1.624
  613SOL    HW1 1856   2.456   1.341   1.662
  613SOL    HW2 1857   2.531   1.486   1.655
  614SOL     OW 1858   2.290   0.424   0.520
  614SOL    HW1 1859   2.320   0.352   0.458
  614SOL    HW2 1860   2.251   0.384   0.603
  615SOL     OW 1861   2.179   0.547   1.280
  615SOL    HW1 1862   2.217   0.488   1.352
  615SOL    HW2 1863   2.219   0.521   1.192
  616SOL     OW 1864   2.674   1.586   0.687
  616SOL    HW1 1865   2.706   1.596   0.593
  616SOL    HW2 1866   2.595   1.524   0.689
  617SOL     OW 1867   2.863   0.034   1.154
  617SOL    HW1 1868   2.800  -0.038   1.123
  617SOL    HW2 1869   2.956  -0.002   1.154
  618SOL     OW 1870   2.632   1.330   0.301
  618SOL    HW1 1871   2.586   1.243   0.318
  618SOL    HW2 1872   2.723   1.327   0.342
  619SOL     OW 1873   2.480   1.567   1.284
  619SOL    HW1 1874   2.475   1.649   1.341
  619SOL    HW2 1875   2.569   1.564   1.239
  620SOL     OW 1876   1.901   1.077   0.300
  620SOL    HW1 1877   2.000   1.066   0.291
  620SOL    HW2 1878   1.861   0.991   0.332
  621SOL     OW 1879   2.737   1.646   0.337
  621SOL    HW1 1880   2.660   1.611   0.283
  621SOL    HW2 1881   2.705   1.717   0.399
  622SOL     OW 1882   2.092   0.628   1.975
  622SOL    HW1 1883   1.999   0.626   2.012
  622SOL    HW2 1884   2.093   0.589   1.883
  623SOL     OW 1885   2.087   0.275   2.858
  623SOL    HW1 1886   2.122   0.258   2.950
  623SOL    HW2 1887   1.999   0.230   2.846
  624SOL     OW 1888   1.881   0.368   2.509
  624SOL    HW1 1889   1.799   0.411   2.548
  624SOL    HW2 1890   1.853   0.295   2.446
  625SOL     OW 1891   2.630   1.144   2.885
  625SOL    HW1 1892   2.552   1.161   2.945
  625SOL    HW2 1893   2.664   1.231   2.849
  626SOL     OW 1894   2.547   1.012   2.527
  626SOL    HW1 1895   2.616   0.996   2.597
  626SOL    HW2 1896   2.474   1.069   2.565
  627SOL     OW 1897   2.093   1.713   2.345
  627SOL    HW1 1898   2.127   1.790   2.399
  627SOL    HW2 1899   2.137   1.713   2.255
  628SOL     OW 1900   2.092   1.434   2.400
  628SOL    HW1 1901   2.066   1.530   2.400
  628SOL    HW2 1902   2.021   1.380   2.445
  629SOL     OW 1903   2.102   1.091   2.748
  629SOL    HW1 1904   2.116   1.007   2.800
  629SOL    HW2 1905   2.047   1.155   2.803
  630SOL     OW 1906   2.468   0.964   1.985
  630SOL    HW1 1907   2.475   1.048   1.931
  630SOL    HW2 1908   2.514   0.977   2.073
  631SOL     OW 1909   1.984   0.643   2.425
  631SOL    HW1 1910   1.939   0.555   2.442
  631SOL    HW2 1911   1.983   0.697   2.509
  632SOL     OW 1912   1.889   1.596   1.979
  632SOL    HW1 1913   1.870   1.500   2.000
  632SOL    HW2 1914   1.856   1.654   2.054
  633SOL     OW 1915   2.475   1.365   2.588
  633SOL    HW1 1916   2.426   1.278   2.597
  633SOL    HW2 1917   2.452   1.408   2.501
  634SOL     OW 1918   2.671   0.004   2.364
  634SOL    HW1 1919   2.711   0.095   2.355
  634SOL    HW2 1920   2.571   0.012   2.370
  635SOL     OW 1921   2.460   0.729   2.132
  635SOL    HW1 1922   2.484   0.798   2.064
  635SOL    HW2 1923   2.382   0.762   2.186
  636SOL     OW 1924   1.938   0.811   2.651
  636SOL    HW1 1925   2.037   0.799   2.660
  636SOL    HW2 1926   1.914   0.906   2.672
  637SOL     OW 1927   2.727   0.348   2.057
  637SOL    HW1 1928   2.786   0.411   2.008
  637SOL    HW2 1929   2.746   0.254   2.028
  638SOL     OW 1930   2.870   1.456   2.339
  638SOL    HW1 1931   2.824   1.528   2.287
  638SOL    HW2 1932   2.866   1.476   2.437
  639SOL     OW 1933   2.213   1.801   2.715
  639SOL    HW1 1934   2.263   1.715   2.721
  639SOL    HW2 1935   2.278   1.878   2.712
  640SOL     OW 1936   2.183   0.943   2.104
  640SOL    HW1 1937   2.265   0.982   2.062
  640SOL    HW2 1938   2.156   0.861   2.055
  641SOL     OW 1939   2.326   1.743   2.185
  641SOL    HW1 1940   2.359   1.782   2.271
  641SOL    HW2 1941   2.402   1.736   2.120
  642SOL     OW 1942   2.111   1.785   3.103
  642SOL    HW1 1943   2.168   1.720   3.153
  642SOL    HW2 1944   2.095   1.752   3.010
  643SOL     OW 1945   2.244   0.700   2.342
  643SOL    HW1 1946   2.289   0.610   2.339
  643SOL    HW2 1947   2.150   0.689   2.375
  644SOL     OW 1948   2.476   0.122   1.979
  644SOL    HW1 1949   2.574   0.100   1.986
  644SOL    HW2 1950   2.445   0.105   1.886
  645SOL     OW 1951   2.784   0.503   2.761
  645SOL    HW1 1952   2.759   0.494   2.665
  645SOL    HW2 1953   2.832   0.421   2.792
  646SOL     OW 1954   2.401   0.064   2.374
  646SOL    HW1 1955   2.320   0.065   2.432
  646SOL    HW2 1956   2.404   0.147   2.319
  647SOL     OW 1957   2.159   0.035   2.033
  647SOL    HW1 1958   2.208   0.119   2.012
  647SOL    HW2 1959   2.221  -0.030   2.078
  648SOL     OW 1960   2.797   0.236   2.342
  648SOL    HW1 1961   2.749   0.277   2.264
  648SOL    HW2 1962   2.896   0.234   2.323
  649SOL     OW 1963   3.089   1.570   2.655
  649SOL    HW1 1964   3.110   1.644   2.590
  649SOL    HW2 1965   3.157   1.570   2.728
  650SOL     OW 1966   2.321   1.152   2.603
  650SOL    HW1 1967   2.250   1.125   2.668
  650SOL    HW2 1968   2.295   1.124   2.510
  651SOL     OW 1969   2.879   0.039   2.615
  651SOL    HW1 1970   2.807   0.044   2.546
  651SOL    HW2 1971   2.855  -0.030   2.684
  652SOL     OW 1972   2.350   1.385   2.036
  652SOL    HW1 1973   2.263   1.370   2.083
  652SOL    HW2 1974   2.333   1.411   1.941
  653SOL     OW 1975   2.389   0.256   2.190
  653SOL    HW1 1976   2.416   0.197   2.115
  653SOL    HW2 1977   2.389   0.351   2.159
  654SOL     OW 1978   2.567   1.050   2.230
  654SOL    HW1 1979   2.553   1.057   2.329
  654SOL    HW2 1980   2.651   0.999   2.212
  655SOL     OW 1981   2.229   1.100   2.363
  655SOL    HW1 1982   2.222   1.183   2.307
  655SOL    HW2 1983   2.233   1.020   2.303
  656SOL     OW 1984   2.428   0.537   2.727
  656SOL    HW1 1985   2.440   0.603   2.653
  656SOL    HW2 1986   2.474   0.571   2.810
  657SOL     OW 1987   3.134   1.445   3.004
  657SOL    HW1 1988   3.181   1.458   3.091
  657SOL    HW2 1989   3.068   1.371   3.013
  658SOL     OW 1990   3.071   0.525   2.137
  658SOL    HW1 1991   3.084   0.441   2.191
  658SOL    HW2 1992   3.042   0.599   2.197
  659SOL     OW 1993   2.594   0.634   2.926
  659SOL    HW1 1994   2.653   0.608   2.850
  659SOL    HW2 1995   2.566   0.730   2.915
  660SOL     OW 1996   2.169   0.063   2.480
  660SOL    HW1 1997   2.158   0.157   2.513
  660SOL    HW2 1998   2.164   0.000   2.557
  661SOL     OW 1999   2.885   0.766   2.828
  661SOL    HW1 2000   2.900   0.787   2.924
  661SOL    HW2 2001   2.855   0.671   2.819
  662SOL     OW 2002   2.181   0.810   2.811
  662SOL    HW1 2003   2.274   0.846   2.816
  662SOL    HW2 2004   2.175   0.725   2.863
  663SOL     OW 2005   1.870   1.326   2.062
  663SOL    HW1 2006   1.777   1.347   2.031
  663SOL    HW2 2007   1.880   1.227   2.075
  664SOL     OW 2008   1.950   1.801   2.789
  664SOL    HW1 2009   1.908   1.715   2.762
  664SOL    HW2 2010   2.044   1.804   2.755
  665SOL     OW 2011   2.366   1.568   2.772
  665SOL    HW1 2012   2.432   1.642   2.781
  665SOL    HW2 2013   2.410   1.489   2.730
  666SOL     OW 2014   2.864   0.796   3.100
  666SOL    HW1 2015   2.905   0.764   3.186
  666SOL    HW2 2016   2.768   0.769   3.097
  667SOL     OW 2017   2.677   0.572   2.187
  667SOL    HW1 2018   2.684   0.483   2.141
  667SOL    HW2 2019   2.583   0.606   2.179
  668SOL     OW 2020   2.533   0.464   3.131
  668SOL    HW1 2021   2.499   0.375   3.101
  668SOL    HW2 2022   2.559   0.518   3.051
  669SOL     OW 2023   2.335   0.500   2.053
  669SOL    HW1 2024   2.396   0.580   2.057
  669SOL    HW2 2025   2.240   0.531   2.060
  670SOL     OW 2026   1.945   1.258   2.884
  670SOL    HW1 2027   1.940   1.257   2.984
  670SOL    HW2 2028   1.862   1.217   2.846
  671SOL     OW 2029   2.765   0.086   1.995
  671SOL    HW1 2030   2.816   0.087   1.909
  671SOL    HW2 2031   2.821   0.044   2.066
  672SOL     OW 2032   3.142   0.927   2.534
  672SOL    HW1 2033   3.202   0.846   2.536
  672SOL    HW2 2034   3.182   0.996   2.474
  673SOL     OW 2035   2.534   1.616   2.016
  673SOL    HW1 2036   2.543   1.626   1.917
  673SOL    HW2 2037   2.494   1.527   2.037
  674SOL     OW 2038   2.125   0.326   2.582
  674SOL    HW1 2039   2.046   0.377   2.548
  674SOL    HW2 2040   2.116   0.311   2.680
  675SOL     OW 2041   2.452   1.487   2.353
  675SOL    HW1 2042   2.494   1.429   2.283
  675SOL    HW2 2043   2.408   1.566   2.309
  676SOL     OW 2044   2.117   1.348   2.152
  676SOL    HW1 2045   2.021   1.349   2.125
  676SOL    HW2 2046   2.129   1.401   2.236
  677SOL     OW 2047   1.937   0.345   1.895
  677SOL    HW1 2048   1.845   0.317   1.866
  677SOL    HW2 2049   1.968   0.422   1.839
  678SOL     OW 2050   1.934   0.166   2.180
  678SOL    HW1 2051   1.917   0.249   2.126
  678SOL    HW2 2052   2.024   0.129   2.158
  679SOL     OW 2053   3.087   0.325   2.311
  679SOL    HW1 2054   3.152   0.251   2.300
  679SOL    HW2 2055   3.107   0.375   2.395
  680SOL     OW 2056   2.456   0.745   2.514
  680SOL    HW1 2057   2.506   0.830   2.495
  680SOL    HW2 2058   2.368   0.747   2.466
  681SOL     OW 2059   2.721   1.374   1.878
  681SOL    HW1 2060   2.675   1.389   1.966
  681SOL    HW2 2061   2.765   1.459   1.848
  682SOL     OW 2062   2.523   1.790   2.815
  682SOL    HW1 2063   2.477   1.878   2.802
  682SOL    HW2 2064   2.622   1.802   2.808
  683SOL     OW 2065   2.721   0.956   2.723
  683SOL    HW1 2066   2.775   0.887   2.771
  683SOL    HW2 2067   2.689   1.025   2.789
  684SOL     OW 2068   1.941   1.240   2.515
  684SOL    HW1 2069   1.940   1.193   2.603
  684SOL    HW2 2070   2.023   1.212   2.464
  685SOL     OW 2071   2.290   0.424   2.382
  685SOL    HW1 2072   2.320   0.352   2.320
  685SOL    HW2 2073   2.251   0.384   2.465
  686SOL     OW 2074   2.674   1.586   2.549
  686SOL    HW1 2075   2.706   1.596   2.455
  686SOL    HW2 2076   2.595   1.524   2.551
  687SOL     OW 2077   2.632   1.330   2.163
  687SOL    HW1 2078   2.586   1.243   2.180
  687SOL    HW2 2079   2.723   1.327   2.204
  688SOL     OW 2080   1.901   1.077   2.162
  688SOL    HW1 2081   2.000   1.066   2.153
  688SOL    HW2 2082   1.861   0.991   2.194
  689SOL     OW 2083   2.737   1.646   2.199
  689SOL    HW1 2084   2.660   1.611   2.145
  689SOL    HW2 2085   2.705   1.717   2.261
  690SOL     OW 2086   2.092   2.490   0.113
  690SOL    HW1 2087   1.999   2.488   0.150
  690SOL    HW2 2088   2.093   2.451   0.021
  691SOL     OW 2089   2.087   2.137   0.996
  691SOL    HW1 2090   2.122   2.120   1.088
  691SOL    HW2 2091   1.999   2.092   0.984
  692SOL     OW 2092   1.881   2.230   0.647
  692SOL    HW1 2093   1.799   2.273   0.686
  692SOL    HW2 2094   1.853   2.157   0.584
  693SOL     OW 2095   2.630   3.006   1.023
  693SOL    HW1 2096   2.552   3.023   1.083
  693SOL    HW2 2097   2.664   3.093   0.987
  694SOL     OW 2098   2.712   2.660   1.823
  694SOL    HW1 2099   2.708   2.736   1.888
  694SOL    HW2 2100   2.734   2.696   1.732
  695SOL     OW 2101   2.547   2.874   0.665
  695SOL    HW1 2102   2.616   2.858   0.735
  695SOL    HW2 2103   2.474   2.931   0.703
  696SOL     OW 2104   2.300   2.254   1.499
  696SOL    HW1 2105   2.382   2.198   1.508
  696SOL    HW2 2106   2.219   2.196   1.503
  697SOL     OW 2107   2.102   2.953   0.886
  697SOL    HW1 2108   2.116   2.869   0.938
  697SOL    HW2 2109   2.047   3.017   0.941
  698SOL     OW 2110   1.984   2.505   0.563
  698SOL    HW1 2111   1.939   2.417   0.580
  698SOL    HW2 2112   1.983   2.559   0.647
  699SOL     OW 2113   1.975   2.599   1.597
  699SOL    HW1 2114   2.063   2.586   1.642
  699SOL    HW2 2115   1.962   2.696   1.575
  700SOL     OW 2116   2.671   1.866   0.502
  700SOL    HW1 2117   2.711   1.957   0.493
  700SOL    HW2 2118   2.571   1.874   0.508
  701SOL     OW 2119   2.059   2.838   1.264
  701SOL    HW1 2120   2.148   2.793   1.250
  701SOL    HW2 2121   1.986   2.773   1.245
  702SOL     OW 2122   2.179   2.113   1.801
  702SOL    HW1 2123   2.250   2.184   1.807
  702SOL    HW2 2124   2.091   2.152   1.829
  703SOL     OW 2125   2.460   2.591   0.270
  703SOL    HW1 2126   2.484   2.660   0.202
  703SOL    HW2 2127   2.382   2.624   0.324
  704SOL     OW 2128   2.669   2.467   1.465
  704SOL    HW1 2129   2.622   2.464   1.554
  704SOL    HW2 2130   2.618   2.412   1.399
  705SOL     OW 2131   2.853   2.272   1.242
  705SOL    HW1 2132   2.776   2.306   1.296
  705SOL    HW2 2133   2.819   2.221   1.163
  706SOL     OW 2134   1.938   2.673   0.789
  706SOL    HW1 2135   2.037   2.661   0.798
  706SOL    HW2 2136   1.914   2.768   0.810
  707SOL     OW 2137   2.727   2.210   0.195
  707SOL    HW1 2138   2.786   2.273   0.146
  707SOL    HW2 2139   2.746   2.116   0.166
  708SOL     OW 2140   2.412   2.058   0.885
  708SOL    HW1 2141   2.407   2.053   0.985
  708SOL    HW2 2142   2.414   2.154   0.856
  709SOL     OW 2143   2.064   2.147   1.498
  709SOL    HW1 2144   1.984   2.207   1.485
  709SOL    HW2 2145   2.054   2.098   1.584
  710SOL     OW 2146   2.244   2.562   0.480
  710SOL    HW1 2147   2.289   2.472   0.477
  710SOL    HW2 2148   2.150   2.551   0.513
  711SOL     OW 2149   2.476   1.984   0.117
  711SOL    HW1 2150   2.574   1.962   0.124
  711SOL    HW2 2151   2.445   1.967   0.024
  712SOL     OW 2152   2.643   2.126   1.749
  712SOL    HW1 2153   2.710   2.065   1.792
  712SOL    HW2 2154   2.570   2.145   1.814
  713SOL     OW 2155   2.784   2.365   0.899
  713SOL    HW1 2156   2.759   2.356   0.803
  713SOL    HW2 2157   2.832   2.283   0.930
  714SOL     OW 2158   2.401   1.926   0.512
  714SOL    HW1 2159   2.320   1.927   0.570
  714SOL    HW2 2160   2.404   2.009   0.457
  715SOL     OW 2161   2.797   2.098   0.480
  715SOL    HW1 2162   2.749   2.139   0.402
  715SOL    HW2 2163   2.896   2.096   0.461
  716SOL     OW 2164   1.940   2.418   1.386
  716SOL    HW1 2165   2.032   2.417   1.345
  716SOL    HW2 2166   1.934   2.492   1.453
  717SOL     OW 2167   2.423   2.084   1.147
  717SOL    HW1 2168   2.461   2.000   1.184
  717SOL    HW2 2169   2.335   2.103   1.191
  718SOL     OW 2170   2.879   1.901   0.753
  718SOL    HW1 2171   2.807   1.906   0.684
  718SOL    HW2 2172   2.855   1.832   0.822
  719SOL     OW 2173   2.389   2.118   0.328
  719SOL    HW1 2174   2.416   2.059   0.253
  719SOL    HW2 2175   2.389   2.213   0.297
  720SOL     OW 2176   2.777   1.951   1.402
  720SOL    HW1 2177   2.802   1.931   1.307
  720SOL    HW2 2178   2.849   2.007   1.444
  721SOL     OW 2179   2.842   2.978   1.719
  721SOL    HW1 2180   2.743   2.984   1.729
  721SOL    HW2 2181   2.865   2.898   1.663
  722SOL     OW 2182   2.272   2.675   1.251
  722SOL    HW1 2183   2.358   2.687   1.301
  722SOL    HW2 2184   2.230   2.588   1.278
  723SOL     OW 2185   2.428   2.399   0.865
  723SOL    HW1 2186   2.440   2.465   0.791
  723SOL    HW2 2187   2.474   2.433   0.948
  724SOL     OW 2188   2.264   2.613   1.598
  724SOL    HW1 2189   2.332   2.668   1.551
  724SOL    HW2 2190   2.304   2.525   1.625
  725SOL     OW 2191   2.875   1.967   1.770
  725SOL    HW1 2192   2.881   2.052   1.718
  725SOL    HW2 2193   2.907   1.891   1.713
  726SOL     OW 2194   2.366   1.912   1.740
  726SOL    HW1 2195   2.324   1.855   1.670
  726SOL    HW2 2196   2.300   1.981   1.772
  727SOL     OW 2197   2.435   2.732   1.029
  727SOL    HW1 2198   2.479   2.821   1.020
  727SOL    HW2 2199   2.372   2.732   1.106
  728SOL     OW 2200   3.071   2.387   0.275
  728SOL    HW1 2201   3.084   2.303   0.329
  728SOL    HW2 2202   3.042   2.461   0.335
  729SOL     OW 2203   2.169   2.075   1.231
  729SOL    HW1 2204   2.146   2.112   1.321
  729SOL    HW2 2205   2.139   1.980   1.225
  730SOL     OW 2206   2.594   2.496   1.064
  730SOL    HW1 2207   2.653   2.470   0.988
  730SOL    HW2 2208   2.566   2.592   1.053
  731SOL     OW 2209   2.169   1.925   0.618
  731SOL    HW1 2210   2.158   2.019   0.651
  731SOL    HW2 2211   2.164   1.862   0.695
  732SOL     OW 2212   2.885   2.628   0.966
  732SOL    HW1 2213   2.900   2.649   1.062
  732SOL    HW2 2214   2.855   2.533   0.957
  733SOL     OW 2215   2.212   2.760   1.804
  733SOL    HW1 2216   2.288   2.804   1.852
  733SOL    HW2 2217   2.247   2.713   1.722
  734SOL     OW 2218   2.181   2.672   0.949
  734SOL    HW1 2219   2.274   2.708   0.954
  734SOL    HW2 2220   2.175   2.587   1.001
  735SOL     OW 2221   2.201   2.371   1.006
  735SOL    HW1 2222   2.149   2.288   0.989
  735SOL    HW2 2223   2.278   2.376   0.942
  736SOL     OW 2224   2.864   2.658   1.238
  736SOL    HW1 2225   2.905   2.626   1.324
  736SOL    HW2 2226   2.768   2.631   1.235
  737SOL     OW 2227   1.902   2.406   1.114
  737SOL    HW1 2228   1.987   2.373   1.073
  737SOL    HW2 2229   1.915   2.421   1.212
  738SOL     OW 2230   2.051   2.382   1.722
  738SOL    HW1 2231   2.110   2.342   1.652
  738SOL    HW2 2232   1.993   2.453   1.681
  739SOL     OW 2233   2.677   2.434   0.325
  739SOL    HW1 2234   2.684   2.345   0.279
  739SOL    HW2 2235   2.583   2.468   0.317
  740SOL     OW 2236   2.533   2.326   1.269
  740SOL    HW1 2237   2.499   2.237   1.239
  740SOL    HW2 2238   2.559   2.380   1.189
  741SOL     OW 2239   2.335   2.362   0.191
  741SOL    HW1 2240   2.396   2.442   0.195
  741SOL    HW2 2241   2.240   2.393   0.198
  742SOL     OW 2242   2.021   2.999   1.466
  742SOL    HW1 2243   2.043   2.938   1.542
  742SOL    HW2 2244   2.031   2.950   1.380
  743SOL     OW 2245   3.164   2.717   0.309
  743SOL    HW1 2246   3.078   2.686   0.351
  743SOL    HW2 2247   3.160   2.703   0.210
  744SOL     OW 2248   2.765   1.948   0.133
  744SOL    HW1 2249   2.816   1.949   0.047
  744SOL    HW2 2250   2.821   1.906   0.204
  745SOL     OW 2251   2.125   2.188   0.720
  745SOL    HW1 2252   2.046   2.239   0.686
  745SOL    HW2 2253   2.116   2.173   0.818
  746SOL     OW 2254   2.778   2.772   0.291
  746SOL    HW1 2255   2.841   2.810   0.223
  746SOL    HW2 2256   2.818   2.689   0.330
  747SOL     OW 2257   2.876   2.098   0.971
  747SOL    HW1 2258   2.868   2.062   0.878
  747SOL    HW2 2259   2.874   2.022   1.036
  748SOL     OW 2260   1.967   2.875   1.726
  748SOL    HW1 2261   1.890   2.842   1.780
  748SOL    HW2 2262   2.052   2.845   1.768
  749SOL     OW 2263   2.534   2.065   1.489
  749SOL    HW1 2264   2.624   2.049   1.449
  749SOL    HW2 2265   2.542   2.070   1.588
  750SOL     OW 2266   1.937   2.207   0.033
  750SOL    HW1 2267   1.845   2.179   0.004
  750SOL    HW2 2268   1.968   2.284  -0.023
  751SOL     OW 2269   2.475   2.704   1.431
  751SOL    HW1 2270   2.531   2.785   1.414
  751SOL    HW2 2271   2.534   2.624   1.434
  752SOL     OW 2272   2.578   2.427   1.708
  752SOL    HW1 2273   2.597   2.492   1.782
  752SOL    HW2 2274   2.638   2.347   1.717
  753SOL     OW 2275   3.087   2.187   0.449
  753SOL    HW1 2276   3.152   2.113   0.438
  753SOL    HW2 2277   3.107   2.237   0.533
  754SOL     OW 2278   2.456   2.607   0.652
  754SOL    HW1 2279   2.506   2.692   0.633
  754SOL    HW2 2280   2.368   2.609   0.604
  755SOL     OW 2281   2.945   2.846   0.087
  755SOL    HW1 2282   2.922   2.899   0.005
  755SOL    HW2 2283   3.026   2.790   0.068
  756SOL     OW 2284   2.290   2.286   0.520
  756SOL    HW1 2285   2.320   2.214   0.458
  756SOL    HW2 2286   2.251   2.246   0.603
  757SOL     OW 2287   2.179   2.409   1.280
  757SOL    HW1 2288   2.217   2.350   1.352
  757SOL    HW2 2289   2.219   2.383   1.192
  758SOL     OW 2290   2.863   1.896   1.154
  758SOL    HW1 2291   2.800   1.824   1.123
  758SOL    HW2 2292   2.956   1.860   1.154
  759SOL     OW 2293   2.092   2.490   1.975
  759SOL    HW1 2294   1.999   2.488   2.012
  759SOL    HW2 2295   2.093   2.451   1.883
  760SOL     OW 2296   2.087   2.137   2.858
  760SOL    HW1 2297   2.122   2.120   2.950
  760SOL    HW2 2298   1.999   2.092   2.846
  761SOL     OW 2299   1.881   2.230   2.509
  761SOL    HW1 2300   1.799   2.273   2.548
  761SOL    HW2 2301   1.853   2.157   2.446
  762SOL     OW 2302   2.547   2.874   2.527
  762SOL    HW1 2303   2.616   2.858   2.597
  762SOL    HW2 2304   2.474   2.931   2.565
  763SOL     OW 2305   2.102   2.953   2.748
  763SOL    HW1 2306   2.116   2.869   2.800
  763SOL    HW2 2307   2.047   3.017   2.803
  764SOL     OW 2308   1.984   2.505   2.425
  764SOL    HW1 2309   1.939   2.417   2.442
  764SOL    HW2 2310   1.983   2.559   2.509
  765SOL     OW 2311   2.475   3.227   2.588
  765SOL    HW1 2312   2.426   3.140   2.597
  765SOL    HW2 2313   2.452   3.270   2.501
  766SOL     OW 2314   2.671   1.866   2.364
  766SOL    HW1 2315   2.711   1.957   2.355
  766SOL    HW2 2316   2.571   1.874   2.370
  767SOL     OW 2317   2.460   2.591   2.132
  767SOL    HW1 2318   2.484   2.660   2.064
  767SOL    HW2 2319   2.382   2.624   2.186
  768SOL     OW 2320   1.938   2.673   2.651
  768SOL    HW1 2321   2.037   2.661   2.660
  768SOL    HW2 2322   1.914   2.768   2.672
  769SOL     OW 2323   2.727   2.210   2.057
  769SOL    HW1 2324   2.786   2.273   2.008
  769SOL    HW2 2325   2.746   2.116   2.028
  770SOL     OW 2326   2.244   2.562   2.342
  770SOL    HW1 2327   2.289   2.472   2.339
  770SOL    HW2 2328   2.150   2.551   2.375
  771SOL     OW 2329   2.476   1.984   1.979
  771SOL    HW1 2330   2.574   1.962   1.986
  771SOL    HW2 2331   2.445   1.967   1.886
  772SOL     OW 2332   2.784   2.365   2.761
  772SOL    HW1 2333   2.759   2.356   2.665
  772SOL    HW2 2334   2.832   2.283   2.792
  773SOL     OW 2335   2.401   1.926   2.374
  773SOL    HW1 2336   2.320   1.927   2.432
  773SOL    HW2 2337   2.404   2.009   2.319
  774SOL     OW 2338   2.159   1.897   2.033
  774SOL    HW1 2339   2.208   1.981   2.012
  774SOL    HW2 2340   2.221   1.832   2.078
  775SOL     OW 2341   2.797   2.098   2.342
  775SOL    HW1 2342   2.749   2.139   2.264
  775SOL    HW2 2343   2.896   2.096   2.323
  776SOL     OW 2344   2.879   1.901   2.615
  776SOL    HW1 2345   2.807   1.906   2.546
  776SOL    HW2 2346   2.855   1.832   2.684
  777SOL     OW 2347   2.389   2.118   2.190
  777SOL    HW1 2348   2.416   2.059   2.115
  777SOL    HW2 2349   2.389   2.213   2.159
  778SOL     OW 2350   2.428   2.399   2.727
  778SOL    HW1 2351   2.440   2.465   2.653
  778SOL    HW2 2352   2.474   2.433   2.810
  779SOL     OW 2353   2.435   2.732   2.891
  779SOL    HW1 2354   2.479   2.821   2.882
  779SOL    HW2 2355   2.372   2.732   2.968
  780SOL     OW 2356   3.071   2.387   2.137
  780SOL    HW1 2357   3.084   2.303   2.191
  780SOL    HW2 2358   3.042   2.461   2.197
  781SOL     OW 2359   2.169   2.075   3.093
  781SOL    HW1 2360   2.146   2.112   3.183
  781SOL    HW2 2361   2.139   1.980   3.087
  782SOL     OW 2362   2.594   2.496   2.926
  782SOL    HW1 2363   2.653   2.470   2.850
  782SOL    HW2 2364   2.566   2.592   2.915
  783SOL     OW 2365   2.169   1.925   2.480
  783SOL    HW1 2366   2.158   2.019   2.513
  783SOL    HW2 2367   2.164   1.862   2.557
  784SOL     OW 2368   2.885   2.628   2.828
  784SOL    HW1 2369   2.900   2.649   2.924
  784SOL    HW2 2370   2.855   2.533   2.819
  785SOL     OW 2371   2.930   3.195   2.711
  785SOL    HW1 2372   2.937   3.111   2.656
  785SOL    HW2 2373   2.992   3.264   2.675
  786SOL     OW 2374   2.181   2.672   2.811
  786SOL    HW1 2375   2.274   2.708   2.816
  786SOL    HW2 2376   2.175   2.587   2.863
  787SOL     OW 2377   2.677   2.434   2.187
  787SOL    HW1 2378   2.684   2.345   2.141
  787SOL    HW2 2379   2.583   2.468   2.179
  788SOL     OW 2380   2.533   2.326   3.131
  788SOL    HW1 2381   2.499   2.237   3.101
  788SOL    HW2 2382   2.559   2.380   3.051
  789SOL     OW 2383   2.335   2.362   2.053
  789SOL    HW1 2384   2.396   2.442   2.057
  789SOL    HW2 2385   2.240   2.393   2.060
  790SOL     OW 2386   3.164   2.717   2.171
  790SOL    HW1 2387   3.078   2.686   2.213
  790SOL    HW2 2388   3.160   2.703   2.072
  791SOL     OW 2389   2.125   2.188   2.582
  791SOL    HW1 2390   2.046   2.239   2.548
  791SOL    HW2 2391   2.116   2.173   2.680
  792SOL     OW 2392   2.778   2.772   2.153
  792SOL    HW1 2393   2.841   2.810   2.085
  792SOL    HW2 2394   2.818   2.689   2.192
  793SOL     OW 2395   1.937   2.207   1.895
  793SOL    HW1 2396   1.845   2.179   1.866
  793SOL    HW2 2397   1.968   2.284   1.839
  794SOL     OW 2398   1.934   2.028   2.180
  794SOL    HW1 2399   1.917   2.111   2.126
  794SOL    HW2 2400   2.024   1.991   2.158
  795SOL     OW 2401   3.087   2.187   2.311
  795SOL    HW1 2402   3.152   2.113   2.300
  795SOL    HW2 2403   3.107   2.237   2.395
  796SOL     OW 2404   2.456   2.607   2.514
  796SOL    HW1 2405   2.506   2.692   2.495
  796SOL    HW2 2406   2.368   2.609   2.466
  797SOL     OW 2407   2.290   2.286   2.382
  797SOL    HW1 2408   2.320   2.214   2.320
  797SOL    HW2 2409   2.251   2.246   2.465
   2.90919   2.90919   2.90919
