; mobley_8127829_GMX.itp created by acpype (v: 2023.10.27) on Thu May 14 13:46:24 2026

[ atomtypes ]
;name   bond_type     mass     charge   ptype   sigma         epsilon       Amb
 ca       ca          0.00000  0.00000   A     3.31521e-01   4.13379e-01 ; 1.86  0.0988
 c3       c3          0.00000  0.00000   A     3.39771e-01   4.51035e-01 ; 1.91  0.1078
 ha       ha          0.00000  0.00000   A     2.62548e-01   6.73624e-02 ; 1.47  0.0161
 hc       hc          0.00000  0.00000   A     2.60018e-01   8.70272e-02 ; 1.46  0.0208

[ moleculetype ]
;name            nrexcl
 mobley_8127829   3

[ atoms ]
;   nr  type  resi  res  atom  cgnr     charge      mass       ; qtot   bond_type
     1   ca     1   MOL    C1    1    -0.132999     12.01000 ; qtot -0.133
     2   ca     1   MOL    C2    2    -0.128000     12.01000 ; qtot -0.261
     3   ca     1   MOL    C3    3    -0.128000     12.01000 ; qtot -0.389
     4   ca     1   MOL    C4    4    -0.128000     12.01000 ; qtot -0.517
     5   ca     1   MOL    C5    5    -0.128000     12.01000 ; qtot -0.645
     6   ca     1   MOL    C6    6    -0.077300     12.01000 ; qtot -0.722
     7   c3     1   MOL    C7    7    -0.089100     12.01000 ; qtot -0.811
     8   c3     1   MOL    C8    8    -0.038100     12.01000 ; qtot -0.849
     9   ha     1   MOL    H1    9     0.130000      1.00800 ; qtot -0.719
    10   ha     1   MOL    H2   10     0.130000      1.00800 ; qtot -0.589
    11   ha     1   MOL    H3   11     0.130000      1.00800 ; qtot -0.459
    12   ha     1   MOL    H4   12     0.130000      1.00800 ; qtot -0.329
    13   ha     1   MOL    H5   13     0.130000      1.00800 ; qtot -0.199
    14   hc     1   MOL    H6   14     0.036033      1.00800 ; qtot -0.163
    15   hc     1   MOL    H7   15     0.036033      1.00800 ; qtot -0.127
    16   hc     1   MOL    H8   16     0.036033      1.00800 ; qtot -0.091
    17   hc     1   MOL    H9   17     0.045700      1.00800 ; qtot -0.046
    18   hc     1   MOL   H10   18     0.045700      1.00800 ; qtot 0.000

[ bonds ]
;   ai     aj funct   r             k
     1      2   1    1.3986e-01    2.9644e+05 ;     C1 - C2    
     1      3   1    1.3986e-01    2.9644e+05 ;     C1 - C3    
     1      9   1    1.0860e-01    3.0183e+05 ;     C1 - H1    
     2      4   1    1.3986e-01    2.9644e+05 ;     C2 - C4    
     2     10   1    1.0860e-01    3.0183e+05 ;     C2 - H2    
     3      5   1    1.3986e-01    2.9644e+05 ;     C3 - C5    
     3     11   1    1.0860e-01    3.0183e+05 ;     C3 - H3    
     4      6   1    1.3986e-01    2.9644e+05 ;     C4 - C6    
     4     12   1    1.0860e-01    3.0183e+05 ;     C4 - H4    
     5      6   1    1.3986e-01    2.9644e+05 ;     C5 - C6    
     5     13   1    1.0860e-01    3.0183e+05 ;     C5 - H5    
     6      8   1    1.5147e-01    2.0410e+05 ;     C6 - C8    
     7      8   1    1.5354e-01    1.9154e+05 ;     C7 - C8    
     7     14   1    1.0962e-01    2.8891e+05 ;     C7 - H6    
     7     15   1    1.0962e-01    2.8891e+05 ;     C7 - H7    
     7     16   1    1.0962e-01    2.8891e+05 ;     C7 - H8    
     8     17   1    1.0962e-01    2.8891e+05 ;     C8 - H9    
     8     18   1    1.0962e-01    2.8891e+05 ;     C8 - H10   

[ pairs ]
;   ai     aj    funct
     1      6      1 ;     C1 - C6    
     1     12      1 ;     C1 - H4    
     1     13      1 ;     C1 - H5    
     2      5      1 ;     C2 - C5    
     2      8      1 ;     C2 - C8    
     2     11      1 ;     C2 - H3    
     3      4      1 ;     C3 - C4    
     3      8      1 ;     C3 - C8    
     3     10      1 ;     C3 - H2    
     4      7      1 ;     C4 - C7    
     4     13      1 ;     C4 - H5    
     4     17      1 ;     C4 - H9    
     4     18      1 ;     C4 - H10   
     5      7      1 ;     C5 - C7    
     5     12      1 ;     C5 - H4    
     5     17      1 ;     C5 - H9    
     5     18      1 ;     C5 - H10   
     6     10      1 ;     C6 - H2    
     6     11      1 ;     C6 - H3    
     6     14      1 ;     C6 - H6    
     6     15      1 ;     C6 - H7    
     6     16      1 ;     C6 - H8    
     8     12      1 ;     C8 - H4    
     8     13      1 ;     C8 - H5    
     9      4      1 ;     H1 - C4    
     9      5      1 ;     H1 - C5    
     9     10      1 ;     H1 - H2    
     9     11      1 ;     H1 - H3    
    10     12      1 ;     H2 - H4    
    11     13      1 ;     H3 - H5    
    14     17      1 ;     H6 - H9    
    14     18      1 ;     H6 - H10   
    15     17      1 ;     H7 - H9    
    15     18      1 ;     H7 - H10   
    16     17      1 ;     H8 - H9    
    16     18      1 ;     H8 - H10   

[ angles ]
;   ai     aj     ak    funct   theta         cth
     1      2      4      1    1.2002e+02    5.3279e+02 ;     C1 - C2     - C4    
     1      2     10      1    1.1988e+02    3.7572e+02 ;     C1 - C2     - H2    
     1      3      5      1    1.2002e+02    5.3279e+02 ;     C1 - C3     - C5    
     1      3     11      1    1.1988e+02    3.7572e+02 ;     C1 - C3     - H3    
     2      1      3      1    1.2002e+02    5.3279e+02 ;     C2 - C1     - C3    
     2      1      9      1    1.1988e+02    3.7572e+02 ;     C2 - C1     - H1    
     2      4      6      1    1.2002e+02    5.3279e+02 ;     C2 - C4     - C6    
     2      4     12      1    1.1988e+02    3.7572e+02 ;     C2 - C4     - H4    
     3      1      9      1    1.1988e+02    3.7572e+02 ;     C3 - C1     - H1    
     3      5      6      1    1.2002e+02    5.3279e+02 ;     C3 - C5     - C6    
     3      5     13      1    1.1988e+02    3.7572e+02 ;     C3 - C5     - H5    
     4      2     10      1    1.1988e+02    3.7572e+02 ;     C4 - C2     - H2    
     4      6      5      1    1.2002e+02    5.3279e+02 ;     C4 - C6     - C5    
     4      6      8      1    1.2083e+02    5.0827e+02 ;     C4 - C6     - C8    
     5      3     11      1    1.1988e+02    3.7572e+02 ;     C5 - C3     - H3    
     5      6      8      1    1.2083e+02    5.0827e+02 ;     C5 - C6     - C8    
     6      4     12      1    1.1988e+02    3.7572e+02 ;     C6 - C4     - H4    
     6      5     13      1    1.1988e+02    3.7572e+02 ;     C6 - C5     - H5    
     6      8      7      1    1.1242e+02    5.0484e+02 ;     C6 - C8     - C7    
     6      8     17      1    1.1063e+02    3.6493e+02 ;     C6 - C8     - H9    
     6      8     18      1    1.1063e+02    3.6493e+02 ;     C6 - C8     - H10   
     7      8     17      1    1.0968e+02    3.6208e+02 ;     C7 - C8     - H9    
     7      8     18      1    1.0968e+02    3.6208e+02 ;     C7 - C8     - H10   
     8      7     14      1    1.0968e+02    3.6208e+02 ;     C8 - C7     - H6    
     8      7     15      1    1.0968e+02    3.6208e+02 ;     C8 - C7     - H7    
     8      7     16      1    1.0968e+02    3.6208e+02 ;     C8 - C7     - H8    
    14      7     15      1    1.0773e+02    2.9957e+02 ;     H6 - C7     - H7    
    14      7     16      1    1.0773e+02    2.9957e+02 ;     H6 - C7     - H8    
    15      7     16      1    1.0773e+02    2.9957e+02 ;     H7 - C7     - H8    
    17      8     18      1    1.0773e+02    2.9957e+02 ;     H9 - C8     - H10   

[ dihedrals ] ; propers
; for gromacs 4.5 or higher, using funct 9
;    i      j      k      l   func   phase     kd      pn
     1      2      4      6      9   180.00  15.16700   2 ;     C1-    C2-    C4-    C6
     1      2      4     12      9   180.00  15.16700   2 ;     C1-    C2-    C4-    H4
     1      3      5      6      9   180.00  15.16700   2 ;     C1-    C3-    C5-    C6
     1      3      5     13      9   180.00  15.16700   2 ;     C1-    C3-    C5-    H5
     2      1      3      5      9   180.00  15.16700   2 ;     C2-    C1-    C3-    C5
     2      1      3     11      9   180.00  15.16700   2 ;     C2-    C1-    C3-    H3
     2      4      6      5      9   180.00  15.16700   2 ;     C2-    C4-    C6-    C5
     2      4      6      8      9   180.00  15.16700   2 ;     C2-    C4-    C6-    C8
     3      1      2      4      9   180.00  15.16700   2 ;     C3-    C1-    C2-    C4
     3      1      2     10      9   180.00  15.16700   2 ;     C3-    C1-    C2-    H2
     3      5      6      4      9   180.00  15.16700   2 ;     C3-    C5-    C6-    C4
     3      5      6      8      9   180.00  15.16700   2 ;     C3-    C5-    C6-    C8
     4      6      5     13      9   180.00  15.16700   2 ;     C4-    C6-    C5-    H5
     4      6      8      7      9   180.00   1.00416   2 ;     C4-    C6-    C8-    C7
     4      6      8     17      9     0.00   0.00000   0 ;     C4-    C6-    C8-    H9
     4      6      8     18      9     0.00   0.00000   0 ;     C4-    C6-    C8-   H10
     5      6      4     12      9   180.00  15.16700   2 ;     C5-    C6-    C4-    H4
     5      6      8      7      9   180.00   1.00416   2 ;     C5-    C6-    C8-    C7
     5      6      8     17      9     0.00   0.00000   0 ;     C5-    C6-    C8-    H9
     5      6      8     18      9     0.00   0.00000   0 ;     C5-    C6-    C8-   H10
     6      4      2     10      9   180.00  15.16700   2 ;     C6-    C4-    C2-    H2
     6      5      3     11      9   180.00  15.16700   2 ;     C6-    C5-    C3-    H3
     6      8      7     14      9     0.00   0.65084   3 ;     C6-    C8-    C7-    H6
     6      8      7     15      9     0.00   0.65084   3 ;     C6-    C8-    C7-    H7
     6      8      7     16      9     0.00   0.65084   3 ;     C6-    C8-    C7-    H8
     8      6      4     12      9   180.00  15.16700   2 ;     C8-    C6-    C4-    H4
     8      6      5     13      9   180.00  15.16700   2 ;     C8-    C6-    C5-    H5
     9      1      2      4      9   180.00  15.16700   2 ;     H1-    C1-    C2-    C4
     9      1      2     10      9   180.00  15.16700   2 ;     H1-    C1-    C2-    H2
     9      1      3      5      9   180.00  15.16700   2 ;     H1-    C1-    C3-    C5
     9      1      3     11      9   180.00  15.16700   2 ;     H1-    C1-    C3-    H3
    10      2      4     12      9   180.00  15.16700   2 ;     H2-    C2-    C4-    H4
    11      3      5     13      9   180.00  15.16700   2 ;     H3-    C3-    C5-    H5
    14      7      8     17      9     0.00   0.50208   3 ;     H6-    C7-    C8-    H9
    14      7      8     18      9     0.00   0.50208   3 ;     H6-    C7-    C8-   H10
    15      7      8     17      9     0.00   0.50208   3 ;     H7-    C7-    C8-    H9
    15      7      8     18      9     0.00   0.50208   3 ;     H7-    C7-    C8-   H10
    16      7      8     17      9     0.00   0.50208   3 ;     H8-    C7-    C8-    H9
    16      7      8     18      9     0.00   0.50208   3 ;     H8-    C7-    C8-   H10

[ dihedrals ] ; impropers
; treated as propers in GROMACS to use correct AMBER analytical function
;    i      j      k      l   func   phase     kd      pn
     1      4      2     10      4   180.00   4.60240   2 ;     C1-    C4-    C2-    H2
     1      5      3     11      4   180.00   4.60240   2 ;     C1-    C5-    C3-    H3
     2      6      4     12      4   180.00   4.60240   2 ;     C2-    C6-    C4-    H4
     3      6      5     13      4   180.00   4.60240   2 ;     C3-    C6-    C5-    H5
     4      5      6      8      4   180.00   4.60240   2 ;     C4-    C5-    C6-    C8
     9      1      3      2      4   180.00   4.60240   2 ;     H1-    C1-    C3-    C2
