; mobley_6430250_GMX.top created by acpype (v: 2023.10.27) on Thu May 14 13:19:33 2026

[ defaults ]
; nbfunc        comb-rule       gen-pairs       fudgeLJ fudgeQQ
1               2               yes             0.5     0.8333333333

; Include mobley_6430250_GMX.itp topology
#include "mobley_6430250_GMX.itp"

; Ligand position restraints
#ifdef POSRES_LIG
#include "posre_mobley_6430250.itp"
#endif

#include "../common/SOL.TIP3P.itp"

[ system ]
mobley_6430250 in water

[ molecules ]
; Compound        nmols
 mobley_6430250   1     
SOL               716
