; mobley_5665561_GMX.itp created by acpype (v: 2023.10.27) on Thu May 14 13:25:38 2026

[ atomtypes ]
;name   bond_type     mass     charge   ptype   sigma         epsilon       Amb
 ca       ca          0.00000  0.00000   A     3.31521e-01   4.13379e-01 ; 1.86  0.0988
 c3       c3          0.00000  0.00000   A     3.39771e-01   4.51035e-01 ; 1.91  0.1078
 ha       ha          0.00000  0.00000   A     2.62548e-01   6.73624e-02 ; 1.47  0.0161
 hc       hc          0.00000  0.00000   A     2.60018e-01   8.70272e-02 ; 1.46  0.0208

[ moleculetype ]
;name            nrexcl
 mobley_5665561   3

[ atoms ]
;   nr  type  resi  res  atom  cgnr     charge      mass       ; qtot   bond_type
     1   ca     1   MOL    C1    1    -0.128000     12.01000 ; qtot -0.128
     2   ca     1   MOL    C2    2    -0.131000     12.01000 ; qtot -0.259
     3   ca     1   MOL    C3    3    -0.119000     12.01000 ; qtot -0.378
     4   ca     1   MOL    C4    4    -0.117000     12.01000 ; qtot -0.495
     5   ca     1   MOL    C5    5    -0.125000     12.01000 ; qtot -0.620
     6   ca     1   MOL    C6    6    -0.130000     12.01000 ; qtot -0.750
     7   ca     1   MOL    C7    7    -0.030000     12.01000 ; qtot -0.780
     8   ca     1   MOL    C8    8    -0.036000     12.01000 ; qtot -0.816
     9   ca     1   MOL    C9    9    -0.071300     12.01000 ; qtot -0.887
    10   ca     1   MOL   C10   10    -0.061300     12.01000 ; qtot -0.949
    11   c3     1   MOL   C11   11    -0.053800     12.01000 ; qtot -1.002
    12   c3     1   MOL   C12   12    -0.055800     12.01000 ; qtot -1.058
    13   ha     1   MOL    H1   13     0.131000      1.00800 ; qtot -0.927
    14   ha     1   MOL    H2   14     0.131000      1.00800 ; qtot -0.796
    15   ha     1   MOL    H3   15     0.131000      1.00800 ; qtot -0.665
    16   ha     1   MOL    H4   16     0.133000      1.00800 ; qtot -0.532
    17   ha     1   MOL    H5   17     0.133000      1.00800 ; qtot -0.399
    18   ha     1   MOL    H6   18     0.131000      1.00800 ; qtot -0.268
    19   hc     1   MOL    H7   19     0.044367      1.00800 ; qtot -0.224
    20   hc     1   MOL    H8   20     0.044367      1.00800 ; qtot -0.179
    21   hc     1   MOL    H9   21     0.044367      1.00800 ; qtot -0.135
    22   hc     1   MOL   H10   22     0.045033      1.00800 ; qtot -0.090
    23   hc     1   MOL   H11   23     0.045033      1.00800 ; qtot -0.045
    24   hc     1   MOL   H12   24     0.045033      1.00800 ; qtot -0.000

[ bonds ]
;   ai     aj funct   r             k
     1      2   1    1.3986e-01    2.9644e+05 ;     C1 - C2    
     1      3   1    1.3986e-01    2.9644e+05 ;     C1 - C3    
     1     13   1    1.0860e-01    3.0183e+05 ;     C1 - H1    
     2      4   1    1.3986e-01    2.9644e+05 ;     C2 - C4    
     2     14   1    1.0860e-01    3.0183e+05 ;     C2 - H2    
     3      7   1    1.3986e-01    2.9644e+05 ;     C3 - C7    
     3     15   1    1.0860e-01    3.0183e+05 ;     C3 - H3    
     4      8   1    1.3986e-01    2.9644e+05 ;     C4 - C8    
     4     16   1    1.0860e-01    3.0183e+05 ;     C4 - H4    
     5      7   1    1.3986e-01    2.9644e+05 ;     C5 - C7    
     5      9   1    1.3986e-01    2.9644e+05 ;     C5 - C9    
     5     17   1    1.0860e-01    3.0183e+05 ;     C5 - H5    
     6      9   1    1.3986e-01    2.9644e+05 ;     C6 - C9    
     6     10   1    1.3986e-01    2.9644e+05 ;     C6 - C10   
     6     18   1    1.0860e-01    3.0183e+05 ;     C6 - H6    
     7      8   1    1.3986e-01    2.9644e+05 ;     C7 - C8    
     8     10   1    1.3986e-01    2.9644e+05 ;     C8 - C10   
     9     11   1    1.5147e-01    2.0410e+05 ;     C9 - C11   
    10     12   1    1.5147e-01    2.0410e+05 ;    C10 - C12   
    11     19   1    1.0962e-01    2.8891e+05 ;    C11 - H7    
    11     20   1    1.0962e-01    2.8891e+05 ;    C11 - H8    
    11     21   1    1.0962e-01    2.8891e+05 ;    C11 - H9    
    12     22   1    1.0962e-01    2.8891e+05 ;    C12 - H10   
    12     23   1    1.0962e-01    2.8891e+05 ;    C12 - H11   
    12     24   1    1.0962e-01    2.8891e+05 ;    C12 - H12   

[ pairs ]
;   ai     aj    funct
     1      5      1 ;     C1 - C5    
     1      8      1 ;     C1 - C8    
     1     16      1 ;     C1 - H4    
     2      7      1 ;     C2 - C7    
     2     10      1 ;     C2 - C10   
     2     15      1 ;     C2 - H3    
     3      4      1 ;     C3 - C4    
     3      9      1 ;     C3 - C9    
     3     10      1 ;     C3 - C10   
     3     14      1 ;     C3 - H2    
     3     17      1 ;     C3 - H5    
     4      5      1 ;     C4 - C5    
     4      6      1 ;     C4 - C6    
     4     12      1 ;     C4 - C12   
     5     10      1 ;     C5 - C10   
     5     15      1 ;     C5 - H3    
     5     18      1 ;     C5 - H6    
     5     19      1 ;     C5 - H7    
     5     20      1 ;     C5 - H8    
     5     21      1 ;     C5 - H9    
     6      7      1 ;     C6 - C7    
     6     17      1 ;     C6 - H5    
     6     19      1 ;     C6 - H7    
     6     20      1 ;     C6 - H8    
     6     21      1 ;     C6 - H9    
     6     22      1 ;     C6 - H10   
     6     23      1 ;     C6 - H11   
     6     24      1 ;     C6 - H12   
     7     11      1 ;     C7 - C11   
     7     12      1 ;     C7 - C12   
     7     16      1 ;     C7 - H4    
     8      9      1 ;     C8 - C9    
     8     14      1 ;     C8 - H2    
     8     15      1 ;     C8 - H3    
     8     17      1 ;     C8 - H5    
     8     18      1 ;     C8 - H6    
     8     22      1 ;     C8 - H10   
     8     23      1 ;     C8 - H11   
     8     24      1 ;     C8 - H12   
     9     12      1 ;     C9 - C12   
    10     11      1 ;    C10 - C11   
    10     16      1 ;    C10 - H4    
    11     17      1 ;    C11 - H5    
    11     18      1 ;    C11 - H6    
    12     18      1 ;    C12 - H6    
    13      4      1 ;     H1 - C4    
    13      7      1 ;     H1 - C7    
    13     14      1 ;     H1 - H2    
    13     15      1 ;     H1 - H3    
    14     16      1 ;     H2 - H4    

[ angles ]
;   ai     aj     ak    funct   theta         cth
     1      2      4      1    1.2002e+02    5.3279e+02 ;     C1 - C2     - C4    
     1      2     14      1    1.1988e+02    3.7572e+02 ;     C1 - C2     - H2    
     1      3      7      1    1.2002e+02    5.3279e+02 ;     C1 - C3     - C7    
     1      3     15      1    1.1988e+02    3.7572e+02 ;     C1 - C3     - H3    
     2      1      3      1    1.2002e+02    5.3279e+02 ;     C2 - C1     - C3    
     2      1     13      1    1.1988e+02    3.7572e+02 ;     C2 - C1     - H1    
     2      4      8      1    1.2002e+02    5.3279e+02 ;     C2 - C4     - C8    
     2      4     16      1    1.1988e+02    3.7572e+02 ;     C2 - C4     - H4    
     3      1     13      1    1.1988e+02    3.7572e+02 ;     C3 - C1     - H1    
     3      7      5      1    1.2002e+02    5.3279e+02 ;     C3 - C7     - C5    
     3      7      8      1    1.2002e+02    5.3279e+02 ;     C3 - C7     - C8    
     4      2     14      1    1.1988e+02    3.7572e+02 ;     C4 - C2     - H2    
     4      8      7      1    1.2002e+02    5.3279e+02 ;     C4 - C8     - C7    
     4      8     10      1    1.2002e+02    5.3279e+02 ;     C4 - C8     - C10   
     5      7      8      1    1.2002e+02    5.3279e+02 ;     C5 - C7     - C8    
     5      9      6      1    1.2002e+02    5.3279e+02 ;     C5 - C9     - C6    
     5      9     11      1    1.2083e+02    5.0827e+02 ;     C5 - C9     - C11   
     6      9     11      1    1.2083e+02    5.0827e+02 ;     C6 - C9     - C11   
     6     10      8      1    1.2002e+02    5.3279e+02 ;     C6 - C10    - C8    
     6     10     12      1    1.2083e+02    5.0827e+02 ;     C6 - C10    - C12   
     7      3     15      1    1.1988e+02    3.7572e+02 ;     C7 - C3     - H3    
     7      5      9      1    1.2002e+02    5.3279e+02 ;     C7 - C5     - C9    
     7      5     17      1    1.1988e+02    3.7572e+02 ;     C7 - C5     - H5    
     7      8     10      1    1.2002e+02    5.3279e+02 ;     C7 - C8     - C10   
     8      4     16      1    1.1988e+02    3.7572e+02 ;     C8 - C4     - H4    
     8     10     12      1    1.2083e+02    5.0827e+02 ;     C8 - C10    - C12   
     9      5     17      1    1.1988e+02    3.7572e+02 ;     C9 - C5     - H5    
     9      6     10      1    1.2002e+02    5.3279e+02 ;     C9 - C6     - C10   
     9      6     18      1    1.1988e+02    3.7572e+02 ;     C9 - C6     - H6    
     9     11     19      1    1.1063e+02    3.6493e+02 ;     C9 - C11    - H7    
     9     11     20      1    1.1063e+02    3.6493e+02 ;     C9 - C11    - H8    
     9     11     21      1    1.1063e+02    3.6493e+02 ;     C9 - C11    - H9    
    10      6     18      1    1.1988e+02    3.7572e+02 ;    C10 - C6     - H6    
    10     12     22      1    1.1063e+02    3.6493e+02 ;    C10 - C12    - H10   
    10     12     23      1    1.1063e+02    3.6493e+02 ;    C10 - C12    - H11   
    10     12     24      1    1.1063e+02    3.6493e+02 ;    C10 - C12    - H12   
    19     11     20      1    1.0773e+02    2.9957e+02 ;     H7 - C11    - H8    
    19     11     21      1    1.0773e+02    2.9957e+02 ;     H7 - C11    - H9    
    20     11     21      1    1.0773e+02    2.9957e+02 ;     H8 - C11    - H9    
    22     12     23      1    1.0773e+02    2.9957e+02 ;    H10 - C12    - H11   
    22     12     24      1    1.0773e+02    2.9957e+02 ;    H10 - C12    - H12   
    23     12     24      1    1.0773e+02    2.9957e+02 ;    H11 - C12    - H12   

[ dihedrals ] ; propers
; for gromacs 4.5 or higher, using funct 9
;    i      j      k      l   func   phase     kd      pn
     1      2      4      8      9   180.00  15.16700   2 ;     C1-    C2-    C4-    C8
     1      2      4     16      9   180.00  15.16700   2 ;     C1-    C2-    C4-    H4
     1      3      7      5      9   180.00  15.16700   2 ;     C1-    C3-    C7-    C5
     1      3      7      8      9   180.00  15.16700   2 ;     C1-    C3-    C7-    C8
     2      1      3      7      9   180.00  15.16700   2 ;     C2-    C1-    C3-    C7
     2      1      3     15      9   180.00  15.16700   2 ;     C2-    C1-    C3-    H3
     2      4      8      7      9   180.00  15.16700   2 ;     C2-    C4-    C8-    C7
     2      4      8     10      9   180.00  15.16700   2 ;     C2-    C4-    C8-   C10
     3      1      2      4      9   180.00  15.16700   2 ;     C3-    C1-    C2-    C4
     3      1      2     14      9   180.00  15.16700   2 ;     C3-    C1-    C2-    H2
     3      7      5      9      9   180.00  15.16700   2 ;     C3-    C7-    C5-    C9
     3      7      5     17      9   180.00  15.16700   2 ;     C3-    C7-    C5-    H5
     3      7      8      4      9   180.00  15.16700   2 ;     C3-    C7-    C8-    C4
     3      7      8     10      9   180.00  15.16700   2 ;     C3-    C7-    C8-   C10
     4      8      7      5      9   180.00  15.16700   2 ;     C4-    C8-    C7-    C5
     4      8     10      6      9   180.00  15.16700   2 ;     C4-    C8-   C10-    C6
     4      8     10     12      9   180.00  15.16700   2 ;     C4-    C8-   C10-   C12
     5      7      3     15      9   180.00  15.16700   2 ;     C5-    C7-    C3-    H3
     5      7      8     10      9   180.00  15.16700   2 ;     C5-    C7-    C8-   C10
     5      9      6     10      9   180.00  15.16700   2 ;     C5-    C9-    C6-   C10
     5      9      6     18      9   180.00  15.16700   2 ;     C5-    C9-    C6-    H6
     5      9     11     19      9     0.00   0.00000   0 ;     C5-    C9-   C11-    H7
     5      9     11     20      9     0.00   0.00000   0 ;     C5-    C9-   C11-    H8
     5      9     11     21      9     0.00   0.00000   0 ;     C5-    C9-   C11-    H9
     6      9      5      7      9   180.00  15.16700   2 ;     C6-    C9-    C5-    C7
     6      9      5     17      9   180.00  15.16700   2 ;     C6-    C9-    C5-    H5
     6      9     11     19      9     0.00   0.00000   0 ;     C6-    C9-   C11-    H7
     6      9     11     20      9     0.00   0.00000   0 ;     C6-    C9-   C11-    H8
     6      9     11     21      9     0.00   0.00000   0 ;     C6-    C9-   C11-    H9
     6     10      8      7      9   180.00  15.16700   2 ;     C6-   C10-    C8-    C7
     6     10     12     22      9     0.00   0.00000   0 ;     C6-   C10-   C12-   H10
     6     10     12     23      9     0.00   0.00000   0 ;     C6-   C10-   C12-   H11
     6     10     12     24      9     0.00   0.00000   0 ;     C6-   C10-   C12-   H12
     7      5      9     11      9   180.00  15.16700   2 ;     C7-    C5-    C9-   C11
     7      8      4     16      9   180.00  15.16700   2 ;     C7-    C8-    C4-    H4
     7      8     10     12      9   180.00  15.16700   2 ;     C7-    C8-   C10-   C12
     8      4      2     14      9   180.00  15.16700   2 ;     C8-    C4-    C2-    H2
     8      7      3     15      9   180.00  15.16700   2 ;     C8-    C7-    C3-    H3
     8      7      5      9      9   180.00  15.16700   2 ;     C8-    C7-    C5-    C9
     8      7      5     17      9   180.00  15.16700   2 ;     C8-    C7-    C5-    H5
     8     10      6      9      9   180.00  15.16700   2 ;     C8-   C10-    C6-    C9
     8     10      6     18      9   180.00  15.16700   2 ;     C8-   C10-    C6-    H6
     8     10     12     22      9     0.00   0.00000   0 ;     C8-   C10-   C12-   H10
     8     10     12     23      9     0.00   0.00000   0 ;     C8-   C10-   C12-   H11
     8     10     12     24      9     0.00   0.00000   0 ;     C8-   C10-   C12-   H12
     9      6     10     12      9   180.00  15.16700   2 ;     C9-    C6-   C10-   C12
    10      6      9     11      9   180.00  15.16700   2 ;    C10-    C6-    C9-   C11
    10      8      4     16      9   180.00  15.16700   2 ;    C10-    C8-    C4-    H4
    11      9      5     17      9   180.00  15.16700   2 ;    C11-    C9-    C5-    H5
    11      9      6     18      9   180.00  15.16700   2 ;    C11-    C9-    C6-    H6
    12     10      6     18      9   180.00  15.16700   2 ;    C12-   C10-    C6-    H6
    13      1      2      4      9   180.00  15.16700   2 ;     H1-    C1-    C2-    C4
    13      1      2     14      9   180.00  15.16700   2 ;     H1-    C1-    C2-    H2
    13      1      3      7      9   180.00  15.16700   2 ;     H1-    C1-    C3-    C7
    13      1      3     15      9   180.00  15.16700   2 ;     H1-    C1-    C3-    H3
    14      2      4     16      9   180.00  15.16700   2 ;     H2-    C2-    C4-    H4

[ dihedrals ] ; impropers
; treated as propers in GROMACS to use correct AMBER analytical function
;    i      j      k      l   func   phase     kd      pn
     1      4      2     14      4   180.00   4.60240   2 ;     C1-    C4-    C2-    H2
     1      7      3     15      4   180.00   4.60240   2 ;     C1-    C7-    C3-    H3
     2      8      4     16      4   180.00   4.60240   2 ;     C2-    C8-    C4-    H4
     3      5      7      8      4   180.00   4.60240   2 ;     C3-    C5-    C7-    C8
     4      7      8     10      4   180.00   4.60240   2 ;     C4-    C7-    C8-   C10
     5      6      9     11      4   180.00   4.60240   2 ;     C5-    C6-    C9-   C11
     7      9      5     17      4   180.00   4.60240   2 ;     C7-    C9-    C5-    H5
     9     10      6     18      4   180.00   4.60240   2 ;     C9-   C10-    C6-    H6
    12      6     10      8      4   180.00   4.60240   2 ;    C12-    C6-   C10-    C8
    13      1      3      2      4   180.00   4.60240   2 ;     H1-    C1-    C3-    C2
