mobley_2078467_GMX.gro created by acpype (v: 2023.10.27) on Thu May 14 13:16:08 2026
 2916
    1MOL     C1    1   1.681   1.535   1.518
    1MOL     C2    2   1.490   1.634   1.629
    1MOL     C3    3   1.626   1.568   1.394
    1MOL     C4    4   1.435   1.667   1.505
    1MOL     C5    5   1.613   1.568   1.635
    1MOL     C6    6   1.503   1.634   1.388
    1MOL     C7    7   1.311   1.599   1.230
    1MOL     C8    8   1.425   1.821   1.234
    1MOL     C9    9   1.673   1.281   1.726
    1MOL    C10   10   1.692   1.369   1.959
    1MOL    C11   11   1.673   1.532   1.769
    1MOL    C12   12   1.444   1.669   1.255
    1MOL    C13   13   1.631   1.393   1.821
    1MOL     O1   14   1.256   1.523   1.309
    1MOL     O2   15   1.258   1.627   1.108
    1MOL     H1   16   1.777   1.484   1.522
    1MOL     H2   17   1.437   1.660   1.720
    1MOL     H3   18   1.679   1.542   1.303
    1MOL     H4   19   1.340   1.718   1.501
    1MOL     H5   20   1.358   1.864   1.310
    1MOL     H6   21   1.522   1.873   1.241
    1MOL     H7   22   1.381   1.843   1.136
    1MOL     H8   23   1.782   1.280   1.711
    1MOL     H9   24   1.626   1.293   1.628
    1MOL    H10   25   1.643   1.184   1.765
    1MOL    H11   26   1.802   1.372   1.954
    1MOL    H12   27   1.660   1.445   2.031
    1MOL    H13   28   1.663   1.271   1.998
    1MOL    H14   29   1.783   1.539   1.764
    1MOL    H15   30   1.642   1.610   1.841
    1MOL    H16   31   1.513   1.635   1.176
    1MOL    H17   32   1.522   1.390   1.832
    1MOL    H18   33   1.173   1.583   1.087
    2SOL     OW   34   0.230   0.628   0.113
    2SOL    HW1   35   0.137   0.626   0.150
    2SOL    HW2   36   0.231   0.589   0.021
    3SOL     OW   37   0.225   0.275   0.996
    3SOL    HW1   38   0.260   0.258   1.088
    3SOL    HW2   39   0.137   0.230   0.984
    4SOL     OW   40   0.019   0.368   0.647
    4SOL    HW1   41  -0.063   0.411   0.686
    4SOL    HW2   42  -0.009   0.295   0.584
    5SOL     OW   43   0.569   1.275   1.165
    5SOL    HW1   44   0.476   1.268   1.128
    5SOL    HW2   45   0.580   1.364   1.209
    6SOL     OW   46   1.555   1.511   0.703
    6SOL    HW1   47   1.498   1.495   0.784
    6SOL    HW2   48   1.496   1.521   0.623
    7SOL     OW   49   1.135   0.703   0.717
    7SOL    HW1   50   1.192   0.781   0.692
    7SOL    HW2   51   1.075   0.729   0.793
    8SOL     OW   52   1.755   0.607   0.231
    8SOL    HW1   53   1.743   0.594   0.132
    8SOL    HW2   54   1.725   0.526   0.280
    9SOL     OW   55   0.768   1.144   1.023
    9SOL    HW1   56   0.690   1.161   1.083
    9SOL    HW2   57   0.802   1.231   0.987
   10SOL     OW   58   0.850   0.798   1.823
   10SOL    HW1   59   0.846   0.874   1.888
   10SOL    HW2   60   0.872   0.834   1.732
   11SOL     OW   61   0.685   1.012   0.665
   11SOL    HW1   62   0.754   0.996   0.735
   11SOL    HW2   63   0.612   1.069   0.703
   12SOL     OW   64   0.686   1.161   1.803
   12SOL    HW1   65   0.746   1.240   1.817
   12SOL    HW2   66   0.600   1.192   1.762
   13SOL     OW   67   0.335   1.435   1.061
   13SOL    HW1   68   0.257   1.404   1.008
   13SOL    HW2   69   0.393   1.493   1.004
   14SOL     OW   70   0.438   0.392   1.499
   14SOL    HW1   71   0.520   0.336   1.508
   14SOL    HW2   72   0.357   0.334   1.503
   15SOL     OW   73   1.603   0.447   0.737
   15SOL    HW1   74   1.529   0.493   0.687
   15SOL    HW2   75   1.654   0.515   0.790
   16SOL     OW   76   0.231   1.713   0.483
   16SOL    HW1   77   0.265   1.790   0.537
   16SOL    HW2   78   0.275   1.713   0.393
   17SOL     OW   79   1.127   1.341   1.690
   17SOL    HW1   80   1.174   1.341   1.778
   17SOL    HW2   81   1.079   1.254   1.679
   18SOL     OW   82   0.230   1.434   0.538
   18SOL    HW1   83   0.204   1.530   0.538
   18SOL    HW2   84   0.159   1.380   0.583
   19SOL     OW   85   0.240   1.091   0.886
   19SOL    HW1   86   0.254   1.007   0.938
   19SOL    HW2   87   0.185   1.155   0.941
   20SOL     OW   88   0.620   1.786   1.439
   20SOL    HW1   89   0.528   1.769   1.474
   20SOL    HW2   90   0.648   1.878   1.465
   21SOL     OW   91   0.606   0.964   0.123
   21SOL    HW1   92   0.613   1.048   0.069
   21SOL    HW2   93   0.652   0.977   0.211
   22SOL     OW   94   1.594   0.114   1.480
   22SOL    HW1   95   1.576   0.181   1.408
   22SOL    HW2   96   1.591   0.160   1.569
   23SOL     OW   97   0.122   0.643   0.563
   23SOL    HW1   98   0.077   0.555   0.580
   23SOL    HW2   99   0.121   0.697   0.647
   24SOL     OW  100   1.842   1.767   0.359
   24SOL    HW1  101   1.896   1.738   0.439
   24SOL    HW2  102   1.872   1.857   0.330
   25SOL     OW  103   0.027   1.596   0.117
   25SOL    HW1  104   0.008   1.500   0.138
   25SOL    HW2  105  -0.006   1.654   0.192
   26SOL     OW  106   1.689   0.922   0.612
   26SOL    HW1  107   1.784   0.893   0.620
   26SOL    HW2  108   1.681   0.987   0.537
   27SOL     OW  109   1.641   1.108   0.432
   27SOL    HW1  110   1.727   1.110   0.380
   27SOL    HW2  111   1.655   1.155   0.520
   28SOL     OW  112   0.113   0.737   1.597
   28SOL    HW1  113   0.201   0.724   1.642
   28SOL    HW2  114   0.100   0.834   1.575
   29SOL     OW  115   0.613   1.365   0.726
   29SOL    HW1  116   0.564   1.278   0.735
   29SOL    HW2  117   0.590   1.408   0.639
   30SOL     OW  118   1.293   1.228   1.423
   30SOL    HW1  119   1.330   1.155   1.365
   30SOL    HW2  120   1.345   1.233   1.508
   31SOL     OW  121   0.809   0.004   0.502
   31SOL    HW1  122   0.849   0.095   0.493
   31SOL    HW2  123   0.709   0.012   0.508
   32SOL     OW  124   0.197   0.976   1.264
   32SOL    HW1  125   0.286   0.931   1.250
   32SOL    HW2  126   0.124   0.911   1.245
   33SOL     OW  127   1.525   0.999   0.190
   33SOL    HW1  128   1.462   0.923   0.203
   33SOL    HW2  129   1.573   1.017   0.276
   34SOL     OW  130   1.187   1.792   1.616
   34SOL    HW1  131   1.211   1.852   1.540
   34SOL    HW2  132   1.194   1.697   1.586
   35SOL     OW  133   0.317   0.251   1.801
   35SOL    HW1  134   0.388   0.322   1.807
   35SOL    HW2  135   0.229   0.290   1.829
   36SOL     OW  136   1.466   1.417   0.953
   36SOL    HW1  137   1.407   1.423   1.033
   36SOL    HW2  138   1.451   1.329   0.907
   37SOL     OW  139   1.667   1.714   0.572
   37SOL    HW1  140   1.626   1.691   0.484
   37SOL    HW2  141   1.649   1.640   0.637
   38SOL     OW  142   0.598   0.729   0.270
   38SOL    HW1  143   0.622   0.798   0.202
   38SOL    HW2  144   0.520   0.762   0.324
   39SOL     OW  145   1.281   0.345   0.944
   39SOL    HW1  146   1.195   0.295   0.931
   39SOL    HW2  147   1.343   0.291   1.000
   40SOL     OW  148   1.576   1.662   0.307
   40SOL    HW1  149   1.665   1.708   0.310
   40SOL    HW2  150   1.555   1.638   0.212
   41SOL     OW  151   0.807   0.605   1.465
   41SOL    HW1  152   0.760   0.602   1.554
   41SOL    HW2  153   0.756   0.550   1.399
   42SOL     OW  154   1.394   0.469   1.674
   42SOL    HW1  155   1.374   0.512   1.762
   42SOL    HW2  156   1.472   0.407   1.683
   43SOL     OW  157   0.973   0.890   1.572
   43SOL    HW1  158   1.019   0.806   1.543
   43SOL    HW2  159   0.917   0.924   1.497
   44SOL     OW  160   0.991   0.410   1.242
   44SOL    HW1  161   0.914   0.444   1.296
   44SOL    HW2  162   0.957   0.359   1.163
   45SOL     OW  163   1.041   0.701   0.429
   45SOL    HW1  164   1.067   0.697   0.525
   45SOL    HW2  165   0.956   0.650   0.415
   46SOL     OW  166   0.076   0.811   0.789
   46SOL    HW1  167   0.175   0.799   0.798
   46SOL    HW2  168   0.052   0.906   0.810
   47SOL     OW  169   0.130   1.821   1.571
   47SOL    HW1  170   0.120   1.806   1.670
   47SOL    HW2  171   0.044   1.857   1.535
   48SOL     OW  172   0.865   0.348   0.195
   48SOL    HW1  173   0.924   0.411   0.146
   48SOL    HW2  174   0.884   0.254   0.166
   49SOL     OW  175   1.719   0.585   1.831
   49SOL    HW1  176   1.693   0.674   1.795
   49SOL    HW2  177   1.717   0.517   1.758
   50SOL     OW  178   1.362   1.144   0.545
   50SOL    HW1  179   1.445   1.115   0.497
   50SOL    HW2  180   1.313   1.211   0.489
   51SOL     OW  181   0.550   0.196   0.885
   51SOL    HW1  182   0.545   0.191   0.985
   51SOL    HW2  183   0.552   0.292   0.856
   52SOL     OW  184   1.008   1.456   0.477
   52SOL    HW1  185   0.962   1.528   0.425
   52SOL    HW2  186   1.004   1.476   0.575
   53SOL     OW  187   0.351   1.801   0.853
   53SOL    HW1  188   0.401   1.715   0.859
   53SOL    HW2  189   0.416   1.878   0.850
   54SOL     OW  190   1.795   1.066   0.873
   54SOL    HW1  191   1.733   1.051   0.797
   54SOL    HW2  192   1.743   1.077   0.958
   55SOL     OW  193   0.321   0.943   0.242
   55SOL    HW1  194   0.403   0.982   0.200
   55SOL    HW2  195   0.294   0.861   0.193
   56SOL     OW  196   1.458   0.735   0.728
   56SOL    HW1  197   1.453   0.670   0.803
   56SOL    HW2  198   1.538   0.794   0.741
   57SOL     OW  199   0.461   1.266   1.727
   57SOL    HW1  200   0.411   1.267   1.641
   57SOL    HW2  201   0.398   1.248   1.803
   58SOL     OW  202   1.111   1.776   0.237
   58SOL    HW1  203   1.051   1.714   0.287
   58SOL    HW2  204   1.142   1.732   0.152
   59SOL     OW  205   0.202   0.285   1.498
   59SOL    HW1  206   0.122   0.345   1.485
   59SOL    HW2  207   0.192   0.236   1.584
   60SOL     OW  208   1.632   1.377   0.081
   60SOL    HW1  209   1.600   1.471   0.071
   60SOL    HW2  210   1.556   1.314   0.069
   61SOL     OW  211   0.464   1.743   0.323
   61SOL    HW1  212   0.497   1.782   0.409
   61SOL    HW2  213   0.540   1.736   0.258
   62SOL     OW  214   1.400   0.107   0.426
   62SOL    HW1  215   1.376   0.070   0.336
   62SOL    HW2  216   1.499   0.123   0.430
   63SOL     OW  217   0.249   1.785   1.241
   63SOL    HW1  218   0.306   1.720   1.291
   63SOL    HW2  219   0.233   1.752   1.148
   64SOL     OW  220   0.940   1.698   0.904
   64SOL    HW1  221   1.020   1.641   0.925
   64SOL    HW2  222   0.891   1.658   0.827
   65SOL     OW  223   0.382   0.700   0.480
   65SOL    HW1  224   0.427   0.610   0.477
   65SOL    HW2  225   0.288   0.689   0.513
   66SOL     OW  226   1.547   0.222   1.729
   66SOL    HW1  227   1.542   0.259   1.821
   66SOL    HW2  228   1.475   0.153   1.717
   67SOL     OW  229   0.614   0.122   0.117
   67SOL    HW1  230   0.712   0.100   0.124
   67SOL    HW2  231   0.583   0.105   0.024
   68SOL     OW  232   0.781   0.264   1.749
   68SOL    HW1  233   0.848   0.203   1.792
   68SOL    HW2  234   0.708   0.283   1.814
   69SOL     OW  235   0.888   1.514   1.195
   69SOL    HW1  236   0.865   1.489   1.101
   69SOL    HW2  237   0.949   1.445   1.234
   70SOL     OW  238   1.351   0.590   1.433
   70SOL    HW1  239   1.379   0.547   1.518
   70SOL    HW2  240   1.376   0.686   1.434
   71SOL     OW  241   0.803   1.402   0.924
   71SOL    HW1  242   0.893   1.416   0.882
   71SOL    HW2  243   0.732   1.404   0.853
   72SOL     OW  244   0.922   0.503   0.899
   72SOL    HW1  245   0.897   0.494   0.803
   72SOL    HW2  246   0.970   0.421   0.930
   73SOL     OW  247   0.539   0.064   0.512
   73SOL    HW1  248   0.458   0.065   0.570
   73SOL    HW2  249   0.542   0.147   0.457
   74SOL     OW  250   1.434   1.188   0.041
   74SOL    HW1  251   1.466   1.112   0.098
   74SOL    HW2  252   1.342   1.215   0.071
   75SOL     OW  253   0.297   0.035   0.171
   75SOL    HW1  254   0.346   0.119   0.150
   75SOL    HW2  255   0.359  -0.030   0.216
   76SOL     OW  256   0.935   0.236   0.480
   76SOL    HW1  257   0.887   0.277   0.402
   76SOL    HW2  258   1.034   0.234   0.461
   77SOL     OW  259   1.076   0.683   1.464
   77SOL    HW1  260   0.996   0.622   1.467
   77SOL    HW2  261   1.157   0.630   1.440
   78SOL     OW  262   1.227   1.570   0.793
   78SOL    HW1  263   1.248   1.644   0.728
   78SOL    HW2  264   1.295   1.570   0.866
   79SOL     OW  265   0.459   1.152   0.741
   79SOL    HW1  266   0.388   1.125   0.806
   79SOL    HW2  267   0.433   1.124   0.648
   80SOL     OW  268   1.271   1.797   0.591
   80SOL    HW1  269   1.315   1.861   0.527
   80SOL    HW2  270   1.221   1.849   0.661
   81SOL     OW  271   1.032   0.549   0.016
   81SOL    HW1  272   0.991   0.631  -0.023
   81SOL    HW2  273   1.096   0.575   0.089
   82SOL     OW  274   0.078   0.556   1.386
   82SOL    HW1  275   0.170   0.555   1.345
   82SOL    HW2  276   0.072   0.630   1.453
   83SOL     OW  277   0.561   0.222   1.147
   83SOL    HW1  278   0.599   0.138   1.184
   83SOL    HW2  279   0.473   0.241   1.191
   84SOL     OW  280   0.866   0.454   0.642
   84SOL    HW1  281   0.834   0.526   0.580
   84SOL    HW2  282   0.890   0.373   0.589
   85SOL     OW  283   1.017   0.039   0.753
   85SOL    HW1  284   0.945   0.044   0.684
   85SOL    HW2  285   0.993  -0.030   0.822
   86SOL     OW  286   1.429   1.173   0.867
   86SOL    HW1  287   1.374   1.089   0.860
   86SOL    HW2  288   1.455   1.202   0.775
   87SOL     OW  289   1.466   0.590   0.992
   87SOL    HW1  290   1.436   0.495   0.999
   87SOL    HW2  291   1.539   0.606   1.058
   88SOL     OW  292   1.857   0.833   0.377
   88SOL    HW1  293   1.899   0.769   0.441
   88SOL    HW2  294   1.819   0.782   0.299
   89SOL     OW  295   0.488   1.385   0.174
   89SOL    HW1  296   0.401   1.370   0.221
   89SOL    HW2  297   0.471   1.411   0.079
   90SOL     OW  298   1.664   1.280   0.657
   90SOL    HW1  299   1.763   1.288   0.671
   90SOL    HW2  300   1.619   1.364   0.688
   91SOL     OW  301   1.390   0.575   0.078
   91SOL    HW1  302   1.336   0.554   0.159
   91SOL    HW2  303   1.481   0.534   0.087
   92SOL     OW  304   0.527   0.256   0.328
   92SOL    HW1  305   0.554   0.197   0.253
   92SOL    HW2  306   0.527   0.351   0.297
   93SOL     OW  307   1.064   1.347   1.340
   93SOL    HW1  308   0.984   1.324   1.395
   93SOL    HW2  309   1.147   1.321   1.389
   94SOL     OW  310   1.111   1.195   1.100
   94SOL    HW1  311   1.071   1.239   1.181
   94SOL    HW2  312   1.070   1.232   1.017
   95SOL     OW  313   1.638   1.099   1.079
   95SOL    HW1  314   1.643   1.180   1.138
   95SOL    HW2  315   1.552   1.101   1.028
   96SOL     OW  316   0.915   0.089   1.402
   96SOL    HW1  317   0.940   0.069   1.307
   96SOL    HW2  318   0.987   0.145   1.444
   97SOL     OW  319   0.980   1.116   1.719
   97SOL    HW1  320   0.881   1.122   1.729
   97SOL    HW2  321   1.003   1.036   1.663
   98SOL     OW  322   0.705   1.050   0.368
   98SOL    HW1  323   0.691   1.057   0.467
   98SOL    HW2  324   0.789   0.999   0.350
   99SOL     OW  325   0.410   0.813   1.251
   99SOL    HW1  326   0.496   0.825   1.301
   99SOL    HW2  327   0.368   0.726   1.278
  100SOL     OW  328   1.274   0.386   1.262
  100SOL    HW1  329   1.295   0.460   1.326
  100SOL    HW2  330   1.185   0.403   1.219
  101SOL     OW  331   0.064   1.564   1.331
  101SOL    HW1  332   0.018   1.646   1.297
  101SOL    HW2  333   0.162   1.583   1.340
  102SOL     OW  334   0.367   1.100   0.501
  102SOL    HW1  335   0.360   1.183   0.445
  102SOL    HW2  336   0.371   1.020   0.441
  103SOL     OW  337   0.566   0.537   0.865
  103SOL    HW1  338   0.578   0.603   0.791
  103SOL    HW2  339   0.612   0.571   0.948
  104SOL     OW  340   1.252   1.348   0.388
  104SOL    HW1  341   1.302   1.425   0.428
  104SOL    HW2  342   1.157   1.350   0.420
  105SOL     OW  343   1.582   0.639   0.472
  105SOL    HW1  344   1.551   0.700   0.545
  105SOL    HW2  345   1.632   0.691   0.403
  106SOL     OW  346   0.354   1.510   1.329
  106SOL    HW1  347   0.333   1.466   1.242
  106SOL    HW2  348   0.451   1.536   1.332
  107SOL     OW  349   0.402   0.751   1.598
  107SOL    HW1  350   0.470   0.806   1.551
  107SOL    HW2  351   0.442   0.663   1.625
  108SOL     OW  352   1.587   0.779   1.670
  108SOL    HW1  353   1.495   0.817   1.665
  108SOL    HW2  354   1.647   0.826   1.605
  109SOL     OW  355   1.013   0.105   1.770
  109SOL    HW1  356   1.019   0.190   1.718
  109SOL    HW2  357   1.045   0.029   1.713
  110SOL     OW  358   0.504   0.050   1.740
  110SOL    HW1  359   0.462  -0.007   1.670
  110SOL    HW2  360   0.438   0.119   1.772
  111SOL     OW  361   0.573   0.870   1.029
  111SOL    HW1  362   0.617   0.959   1.020
  111SOL    HW2  363   0.510   0.870   1.106
  112SOL     OW  364   1.360   0.862   1.045
  112SOL    HW1  365   1.285   0.862   0.979
  112SOL    HW2  366   1.397   0.770   1.054
  113SOL     OW  367   1.209   0.525   0.275
  113SOL    HW1  368   1.222   0.441   0.329
  113SOL    HW2  369   1.180   0.599   0.335
  114SOL     OW  370   0.307   0.213   1.231
  114SOL    HW1  371   0.284   0.250   1.321
  114SOL    HW2  372   0.277   0.118   1.225
  115SOL     OW  373   0.037   1.310   1.282
  115SOL    HW1  374   0.090   1.261   1.350
  115SOL    HW2  375   0.059   1.408   1.287
  116SOL     OW  376   0.732   0.634   1.064
  116SOL    HW1  377   0.791   0.608   0.988
  116SOL    HW2  378   0.704   0.730   1.053
  117SOL     OW  379   1.728   0.935   1.854
  117SOL    HW1  380   1.682   0.928   1.765
  117SOL    HW2  381   1.666   0.979   1.920
  118SOL     OW  382   0.307   0.063   0.618
  118SOL    HW1  383   0.296   0.157   0.651
  118SOL    HW2  384   0.302   0.000   0.695
  119SOL     OW  385   1.622   0.367   0.374
  119SOL    HW1  386   1.624   0.291   0.438
  119SOL    HW2  387   1.574   0.444   0.414
  120SOL     OW  388   1.023   0.766   0.966
  120SOL    HW1  389   1.038   0.787   1.062
  120SOL    HW2  390   0.993   0.671   0.957
  121SOL     OW  391   0.980   1.573   1.700
  121SOL    HW1  392   0.960   1.617   1.612
  121SOL    HW2  393   1.019   1.482   1.684
  122SOL     OW  394   0.350   0.898   1.804
  122SOL    HW1  395   0.426   0.942   1.852
  122SOL    HW2  396   0.385   0.851   1.722
  123SOL     OW  397   1.540   0.274   0.125
  123SOL    HW1  398   1.479   0.199   0.148
  123SOL    HW2  399   1.562   0.326   0.208
  124SOL     OW  400   1.303   0.838   0.042
  124SOL    HW1  401   1.337   0.745   0.057
  124SOL    HW2  402   1.321   0.865  -0.053
  125SOL     OW  403   1.068   1.333   0.849
  125SOL    HW1  404   1.075   1.249   0.794
  125SOL    HW2  405   1.130   1.402   0.813
  126SOL     OW  406   0.319   0.810   0.949
  126SOL    HW1  407   0.412   0.846   0.954
  126SOL    HW2  408   0.313   0.725   1.001
  127SOL     OW  409   0.339   0.509   1.006
  127SOL    HW1  410   0.287   0.426   0.989
  127SOL    HW2  411   0.416   0.514   0.942
  128SOL     OW  412   1.138   0.380   1.678
  128SOL    HW1  413   1.093   0.443   1.742
  128SOL    HW2  414   1.231   0.411   1.661
  129SOL     OW  415   1.160   0.207   1.477
  129SOL    HW1  416   1.160   0.271   1.554
  129SOL    HW2  417   1.188   0.255   1.394
  130SOL     OW  418   0.008   1.326   0.200
  130SOL    HW1  419  -0.085   1.347   0.169
  130SOL    HW2  420   0.018   1.227   0.213
  131SOL     OW  421   0.088   1.801   0.927
  131SOL    HW1  422   0.046   1.715   0.900
  131SOL    HW2  423   0.182   1.804   0.893
  132SOL     OW  424   0.504   1.568   0.910
  132SOL    HW1  425   0.570   1.642   0.919
  132SOL    HW2  426   0.548   1.489   0.868
  133SOL     OW  427   1.002   0.796   1.238
  133SOL    HW1  428   1.043   0.764   1.324
  133SOL    HW2  429   0.906   0.769   1.235
  134SOL     OW  430   0.040   0.544   1.114
  134SOL    HW1  431   0.125   0.511   1.073
  134SOL    HW2  432   0.053   0.559   1.212
  135SOL     OW  433   0.189   0.520   1.722
  135SOL    HW1  434   0.248   0.480   1.652
  135SOL    HW2  435   0.131   0.591   1.681
  136SOL     OW  436   1.369   0.950   1.660
  136SOL    HW1  437   1.408   1.039   1.680
  136SOL    HW2  438   1.379   0.930   1.563
  137SOL     OW  439   0.815   0.572   0.325
  137SOL    HW1  440   0.822   0.483   0.279
  137SOL    HW2  441   0.721   0.606   0.317
  138SOL     OW  442   1.657   0.604   1.206
  138SOL    HW1  443   1.619   0.535   1.268
  138SOL    HW2  444   1.739   0.568   1.162
  139SOL     OW  445   0.252   1.564   1.744
  139SOL    HW1  446   0.222   1.621   1.820
  139SOL    HW2  447   0.245   1.467   1.770
  140SOL     OW  448   0.671   0.464   1.269
  140SOL    HW1  449   0.637   0.375   1.239
  140SOL    HW2  450   0.697   0.518   1.189
  141SOL     OW  451   0.930   1.678   1.465
  141SOL    HW1  452   0.906   1.660   1.370
  141SOL    HW2  453   0.960   1.772   1.475
  142SOL     OW  454   0.473   0.500   0.191
  142SOL    HW1  455   0.534   0.580   0.195
  142SOL    HW2  456   0.378   0.531   0.198
  143SOL     OW  457   0.159   1.137   1.466
  143SOL    HW1  458   0.181   1.076   1.542
  143SOL    HW2  459   0.169   1.088   1.380
  144SOL     OW  460   1.347   1.059   1.234
  144SOL    HW1  461   1.371   0.996   1.160
  144SOL    HW2  462   1.257   1.099   1.216
  145SOL     OW  463   1.302   0.855   0.309
  145SOL    HW1  464   1.216   0.824   0.351
  145SOL    HW2  465   1.298   0.841   0.210
  146SOL     OW  466   1.759   1.747   1.154
  146SOL    HW1  467   1.820   1.777   1.081
  146SOL    HW2  468   1.721   1.658   1.132
  147SOL     OW  469   0.083   1.258   1.022
  147SOL    HW1  470   0.078   1.257   1.122
  147SOL    HW2  471   0.000   1.217   0.984
  148SOL     OW  472   0.688   1.662   1.716
  148SOL    HW1  473   0.632   1.743   1.725
  148SOL    HW2  474   0.740   1.666   1.630
  149SOL     OW  475   0.903   0.086   0.133
  149SOL    HW1  476   0.954   0.087   0.047
  149SOL    HW2  477   0.959   0.044   0.204
  150SOL     OW  478   1.726   0.135   0.523
  150SOL    HW1  479   1.799   0.118   0.456
  150SOL    HW2  480   1.695   0.048   0.561
  151SOL     OW  481   1.388   1.573   0.477
  151SOL    HW1  482   1.455   1.585   0.403
  151SOL    HW2  483   1.348   1.662   0.500
  152SOL     OW  484   0.130   1.794   1.851
  152SOL    HW1  485   0.089   1.720   1.904
  152SOL    HW2  486   0.194   1.845   1.909
  153SOL     OW  487   1.280   0.927   0.672
  153SOL    HW1  488   1.340   0.846   0.674
  153SOL    HW2  489   1.320   0.996   0.612
  154SOL     OW  490   0.830   1.273   1.422
  154SOL    HW1  491   0.825   1.306   1.517
  154SOL    HW2  492   0.744   1.292   1.376
  155SOL     OW  493   0.672   1.616   0.154
  155SOL    HW1  494   0.681   1.626   0.055
  155SOL    HW2  495   0.632   1.527   0.175
  156SOL     OW  496   1.841   0.175   0.963
  156SOL    HW1  497   1.880   0.090   0.927
  156SOL    HW2  498   1.743   0.177   0.944
  157SOL     OW  499   0.263   0.326   0.720
  157SOL    HW1  500   0.184   0.377   0.686
  157SOL    HW2  501   0.254   0.311   0.818
  158SOL     OW  502   1.194   1.612   0.031
  158SOL    HW1  503   1.200   1.519   0.068
  158SOL    HW2  504   1.135   1.612  -0.049
  159SOL     OW  505   0.822   1.002   1.372
  159SOL    HW1  506   0.862   1.001   1.280
  159SOL    HW2  507   0.832   1.094   1.412
  160SOL     OW  508   0.916   0.910   0.291
  160SOL    HW1  509   0.979   0.948   0.223
  160SOL    HW2  510   0.956   0.827   0.330
  161SOL     OW  511   1.504   1.607   0.044
  161SOL    HW1  512   1.412   1.644   0.051
  161SOL    HW2  513   1.542   1.627  -0.046
  162SOL     OW  514   0.372   1.288   1.490
  162SOL    HW1  515   0.359   1.381   1.456
  162SOL    HW2  516   0.288   1.236   1.477
  163SOL     OW  517   1.614   1.292   1.289
  163SOL    HW1  518   1.674   1.295   1.369
  163SOL    HW2  519   1.539   1.356   1.302
  164SOL     OW  520   1.039   1.098   0.696
  164SOL    HW1  521   0.969   1.051   0.750
  164SOL    HW2  522   1.098   1.030   0.653
  165SOL     OW  523   1.014   0.236   0.971
  165SOL    HW1  524   1.006   0.200   0.878
  165SOL    HW2  525   1.012   0.160   1.036
  166SOL     OW  526   0.590   1.487   0.491
  166SOL    HW1  527   0.632   1.429   0.421
  166SOL    HW2  528   0.546   1.566   0.447
  167SOL     OW  529   1.709   0.385   1.381
  167SOL    HW1  530   1.782   0.454   1.385
  167SOL    HW2  531   1.737   0.310   1.322
  168SOL     OW  532   0.255   1.348   0.290
  168SOL    HW1  533   0.159   1.349   0.263
  168SOL    HW2  534   0.267   1.401   0.374
  169SOL     OW  535   0.105   1.013   1.726
  169SOL    HW1  536   0.028   0.980   1.780
  169SOL    HW2  537   0.190   0.983   1.768
  170SOL     OW  538   0.672   0.203   1.489
  170SOL    HW1  539   0.762   0.187   1.449
  170SOL    HW2  540   0.680   0.208   1.588
  171SOL     OW  541   0.075   0.345   0.033
  171SOL    HW1  542  -0.017   0.317   0.004
  171SOL    HW2  543   0.106   0.422  -0.023
  172SOL     OW  544   1.440   0.856   1.398
  172SOL    HW1  545   1.383   0.908   1.335
  172SOL    HW2  546   1.536   0.868   1.374
  173SOL     OW  547   0.072   0.166   0.318
  173SOL    HW1  548   0.055   0.249   0.264
  173SOL    HW2  549   0.162   0.129   0.296
  174SOL     OW  550   1.183   1.335   0.119
  174SOL    HW1  551   1.084   1.324   0.121
  174SOL    HW2  552   1.217   1.350   0.212
  175SOL     OW  553   0.613   0.842   1.431
  175SOL    HW1  554   0.669   0.923   1.414
  175SOL    HW2  555   0.672   0.762   1.434
  176SOL     OW  556   1.493   1.767   0.959
  176SOL    HW1  557   1.526   1.831   0.890
  176SOL    HW2  558   1.559   1.761   1.034
  177SOL     OW  559   0.716   0.565   1.708
  177SOL    HW1  560   0.735   0.630   1.782
  177SOL    HW2  561   0.776   0.485   1.717
  178SOL     OW  562   0.390   1.741   1.560
  178SOL    HW1  563   0.299   1.782   1.558
  178SOL    HW2  564   0.383   1.647   1.592
  179SOL     OW  565   1.674   0.883   1.254
  179SOL    HW1  566   1.647   0.794   1.217
  179SOL    HW2  567   1.675   0.951   1.181
  180SOL     OW  568   1.225   0.325   0.449
  180SOL    HW1  569   1.290   0.251   0.438
  180SOL    HW2  570   1.245   0.375   0.533
  181SOL     OW  571   0.594   0.745   0.652
  181SOL    HW1  572   0.644   0.830   0.633
  181SOL    HW2  573   0.506   0.747   0.604
  182SOL     OW  574   1.777   0.342   1.642
  182SOL    HW1  575   1.760   0.373   1.548
  182SOL    HW2  576   1.693   0.305   1.680
  183SOL     OW  577   1.730   0.934   1.517
  183SOL    HW1  578   1.768   1.025   1.532
  183SOL    HW2  579   1.722   0.917   1.418
  184SOL     OW  580   0.859   1.374   0.016
  184SOL    HW1  581   0.813   1.389   0.104
  184SOL    HW2  582   0.903   1.459  -0.014
  185SOL     OW  583   0.661   1.790   0.953
  185SOL    HW1  584   0.615   1.878   0.940
  185SOL    HW2  585   0.760   1.802   0.946
  186SOL     OW  586   0.859   0.956   0.861
  186SOL    HW1  587   0.913   0.887   0.909
  186SOL    HW2  588   0.827   1.025   0.927
  187SOL     OW  589   1.083   0.984   0.087
  187SOL    HW1  590   1.060   1.037   0.005
  187SOL    HW2  591   1.164   0.928   0.068
  188SOL     OW  592   1.861   1.569   0.851
  188SOL    HW1  593   1.790   1.557   0.781
  188SOL    HW2  594   1.862   1.490   0.911
  189SOL     OW  595   0.221   1.314   1.844
  189SOL    HW1  596   0.156   1.241   1.823
  189SOL    HW2  597   0.225   1.328   1.942
  190SOL     OW  598   0.079   1.240   0.653
  190SOL    HW1  599   0.078   1.193   0.741
  190SOL    HW2  600   0.161   1.212   0.602
  191SOL     OW  601   0.672   1.391   1.624
  191SOL    HW1  602   0.594   1.341   1.662
  191SOL    HW2  603   0.669   1.486   1.655
  192SOL     OW  604   1.824   0.192   1.227
  192SOL    HW1  605   1.820   0.102   1.271
  192SOL    HW2  606   1.827   0.181   1.128
  193SOL     OW  607   0.428   0.424   0.520
  193SOL    HW1  608   0.458   0.352   0.458
  193SOL    HW2  609   0.389   0.384   0.603
  194SOL     OW  610   1.705   1.487   1.104
  194SOL    HW1  611   1.612   1.462   1.077
  194SOL    HW2  612   1.731   1.437   1.186
  195SOL     OW  613   0.317   0.547   1.280
  195SOL    HW1  614   0.355   0.488   1.352
  195SOL    HW2  615   0.357   0.521   1.192
  196SOL     OW  616   0.812   1.586   0.687
  196SOL    HW1  617   0.844   1.596   0.593
  196SOL    HW2  618   0.733   1.524   0.689
  197SOL     OW  619   1.424   0.214   1.112
  197SOL    HW1  620   1.476   0.149   1.167
  197SOL    HW2  621   1.375   0.277   1.173
  198SOL     OW  622   1.001   0.034   1.154
  198SOL    HW1  623   0.938  -0.038   1.123
  198SOL    HW2  624   1.094  -0.002   1.154
  199SOL     OW  625   0.770   1.330   0.301
  199SOL    HW1  626   0.724   1.243   0.318
  199SOL    HW2  627   0.861   1.327   0.342
  200SOL     OW  628   0.618   1.567   1.284
  200SOL    HW1  629   0.613   1.649   1.341
  200SOL    HW2  630   0.707   1.564   1.239
  201SOL     OW  631   1.352   0.052   0.168
  201SOL    HW1  632   1.387   0.011   0.084
  201SOL    HW2  633   1.262   0.014   0.188
  202SOL     OW  634   1.300   0.453   0.691
  202SOL    HW1  635   1.241   0.533   0.695
  202SOL    HW2  636   1.315   0.418   0.784
  203SOL     OW  637   1.593   0.221   0.882
  203SOL    HW1  638   1.509   0.220   0.936
  203SOL    HW2  639   1.595   0.304   0.826
  204SOL     OW  640   0.039   1.077   0.300
  204SOL    HW1  641   0.138   1.066   0.291
  204SOL    HW2  642  -0.001   0.991   0.332
  205SOL     OW  643   0.875   1.646   0.337
  205SOL    HW1  644   0.798   1.611   0.283
  205SOL    HW2  645   0.843   1.717   0.399
  206SOL     OW  646   0.230   0.628   1.975
  206SOL    HW1  647   0.137   0.626   2.012
  206SOL    HW2  648   0.231   0.589   1.883
  207SOL     OW  649   0.225   0.275   2.858
  207SOL    HW1  650   0.260   0.258   2.950
  207SOL    HW2  651   0.137   0.230   2.846
  208SOL     OW  652   0.019   0.368   2.509
  208SOL    HW1  653  -0.063   0.411   2.548
  208SOL    HW2  654  -0.009   0.295   2.446
  209SOL     OW  655   0.569   1.275   3.027
  209SOL    HW1  656   0.476   1.268   2.990
  209SOL    HW2  657   0.580   1.364   3.071
  210SOL     OW  658   1.555   1.511   2.565
  210SOL    HW1  659   1.498   1.495   2.646
  210SOL    HW2  660   1.496   1.521   2.485
  211SOL     OW  661   1.135   0.703   2.579
  211SOL    HW1  662   1.192   0.781   2.554
  211SOL    HW2  663   1.075   0.729   2.655
  212SOL     OW  664   1.755   0.607   2.093
  212SOL    HW1  665   1.743   0.594   1.994
  212SOL    HW2  666   1.725   0.526   2.142
  213SOL     OW  667   0.768   1.144   2.885
  213SOL    HW1  668   0.690   1.161   2.945
  213SOL    HW2  669   0.802   1.231   2.849
  214SOL     OW  670   0.685   1.012   2.527
  214SOL    HW1  671   0.754   0.996   2.597
  214SOL    HW2  672   0.612   1.069   2.565
  215SOL     OW  673   0.335   1.435   2.923
  215SOL    HW1  674   0.257   1.404   2.870
  215SOL    HW2  675   0.393   1.493   2.866
  216SOL     OW  676   1.603   0.447   2.599
  216SOL    HW1  677   1.529   0.493   2.549
  216SOL    HW2  678   1.654   0.515   2.652
  217SOL     OW  679   0.231   1.713   2.345
  217SOL    HW1  680   0.265   1.790   2.399
  217SOL    HW2  681   0.275   1.713   2.255
  218SOL     OW  682   0.230   1.434   2.400
  218SOL    HW1  683   0.204   1.530   2.400
  218SOL    HW2  684   0.159   1.380   2.445
  219SOL     OW  685   0.240   1.091   2.748
  219SOL    HW1  686   0.254   1.007   2.800
  219SOL    HW2  687   0.185   1.155   2.803
  220SOL     OW  688   0.606   0.964   1.985
  220SOL    HW1  689   0.613   1.048   1.931
  220SOL    HW2  690   0.652   0.977   2.073
  221SOL     OW  691   0.122   0.643   2.425
  221SOL    HW1  692   0.077   0.555   2.442
  221SOL    HW2  693   0.121   0.697   2.509
  222SOL     OW  694   1.842   1.767   2.221
  222SOL    HW1  695   1.896   1.738   2.301
  222SOL    HW2  696   1.872   1.857   2.192
  223SOL     OW  697   0.027   1.596   1.979
  223SOL    HW1  698   0.008   1.500   2.000
  223SOL    HW2  699  -0.006   1.654   2.054
  224SOL     OW  700   1.689   0.922   2.474
  224SOL    HW1  701   1.784   0.893   2.482
  224SOL    HW2  702   1.681   0.987   2.399
  225SOL     OW  703   1.641   1.108   2.294
  225SOL    HW1  704   1.727   1.110   2.242
  225SOL    HW2  705   1.655   1.155   2.382
  226SOL     OW  706   0.613   1.365   2.588
  226SOL    HW1  707   0.564   1.278   2.597
  226SOL    HW2  708   0.590   1.408   2.501
  227SOL     OW  709   0.809   0.004   2.364
  227SOL    HW1  710   0.849   0.095   2.355
  227SOL    HW2  711   0.709   0.012   2.370
  228SOL     OW  712   0.197   0.976   3.126
  228SOL    HW1  713   0.286   0.931   3.112
  228SOL    HW2  714   0.124   0.911   3.107
  229SOL     OW  715   1.525   0.999   2.052
  229SOL    HW1  716   1.462   0.923   2.065
  229SOL    HW2  717   1.573   1.017   2.138
  230SOL     OW  718   1.466   1.417   2.815
  230SOL    HW1  719   1.407   1.423   2.895
  230SOL    HW2  720   1.451   1.329   2.769
  231SOL     OW  721   1.667   1.714   2.434
  231SOL    HW1  722   1.626   1.691   2.346
  231SOL    HW2  723   1.649   1.640   2.499
  232SOL     OW  724   0.598   0.729   2.132
  232SOL    HW1  725   0.622   0.798   2.064
  232SOL    HW2  726   0.520   0.762   2.186
  233SOL     OW  727   1.281   0.345   2.806
  233SOL    HW1  728   1.195   0.295   2.793
  233SOL    HW2  729   1.343   0.291   2.862
  234SOL     OW  730   1.576   1.662   2.169
  234SOL    HW1  731   1.665   1.708   2.172
  234SOL    HW2  732   1.555   1.638   2.074
  235SOL     OW  733   1.041   0.701   2.291
  235SOL    HW1  734   1.067   0.697   2.387
  235SOL    HW2  735   0.956   0.650   2.277
  236SOL     OW  736   0.076   0.811   2.651
  236SOL    HW1  737   0.175   0.799   2.660
  236SOL    HW2  738   0.052   0.906   2.672
  237SOL     OW  739   0.865   0.348   2.057
  237SOL    HW1  740   0.924   0.411   2.008
  237SOL    HW2  741   0.884   0.254   2.028
  238SOL     OW  742   1.362   1.144   2.407
  238SOL    HW1  743   1.445   1.115   2.359
  238SOL    HW2  744   1.313   1.211   2.351
  239SOL     OW  745   0.550   0.196   2.747
  239SOL    HW1  746   0.545   0.191   2.847
  239SOL    HW2  747   0.552   0.292   2.718
  240SOL     OW  748   1.008   1.456   2.339
  240SOL    HW1  749   0.962   1.528   2.287
  240SOL    HW2  750   1.004   1.476   2.437
  241SOL     OW  751   0.351   1.801   2.715
  241SOL    HW1  752   0.401   1.715   2.721
  241SOL    HW2  753   0.416   1.878   2.712
  242SOL     OW  754   1.795   1.066   2.735
  242SOL    HW1  755   1.733   1.051   2.659
  242SOL    HW2  756   1.743   1.077   2.820
  243SOL     OW  757   0.321   0.943   2.104
  243SOL    HW1  758   0.403   0.982   2.062
  243SOL    HW2  759   0.294   0.861   2.055
  244SOL     OW  760   1.458   0.735   2.590
  244SOL    HW1  761   1.453   0.670   2.665
  244SOL    HW2  762   1.538   0.794   2.603
  245SOL     OW  763   1.111   1.776   2.099
  245SOL    HW1  764   1.051   1.714   2.149
  245SOL    HW2  765   1.142   1.732   2.014
  246SOL     OW  766   0.464   1.743   2.185
  246SOL    HW1  767   0.497   1.782   2.271
  246SOL    HW2  768   0.540   1.736   2.120
  247SOL     OW  769   1.400   0.107   2.288
  247SOL    HW1  770   1.376   0.070   2.198
  247SOL    HW2  771   1.499   0.123   2.292
  248SOL     OW  772   0.249   1.785   3.103
  248SOL    HW1  773   0.306   1.720   3.153
  248SOL    HW2  774   0.233   1.752   3.010
  249SOL     OW  775   0.940   1.698   2.766
  249SOL    HW1  776   1.020   1.641   2.787
  249SOL    HW2  777   0.891   1.658   2.689
  250SOL     OW  778   0.382   0.700   2.342
  250SOL    HW1  779   0.427   0.610   2.339
  250SOL    HW2  780   0.288   0.689   2.375
  251SOL     OW  781   0.614   0.122   1.979
  251SOL    HW1  782   0.712   0.100   1.986
  251SOL    HW2  783   0.583   0.105   1.886
  252SOL     OW  784   0.803   1.402   2.786
  252SOL    HW1  785   0.893   1.416   2.744
  252SOL    HW2  786   0.732   1.404   2.715
  253SOL     OW  787   0.922   0.503   2.761
  253SOL    HW1  788   0.897   0.494   2.665
  253SOL    HW2  789   0.970   0.421   2.792
  254SOL     OW  790   0.539   0.064   2.374
  254SOL    HW1  791   0.458   0.065   2.432
  254SOL    HW2  792   0.542   0.147   2.319
  255SOL     OW  793   1.434   1.188   1.903
  255SOL    HW1  794   1.466   1.112   1.960
  255SOL    HW2  795   1.342   1.215   1.933
  256SOL     OW  796   0.297   0.035   2.033
  256SOL    HW1  797   0.346   0.119   2.012
  256SOL    HW2  798   0.359  -0.030   2.078
  257SOL     OW  799   0.935   0.236   2.342
  257SOL    HW1  800   0.887   0.277   2.264
  257SOL    HW2  801   1.034   0.234   2.323
  258SOL     OW  802   1.227   1.570   2.655
  258SOL    HW1  803   1.248   1.644   2.590
  258SOL    HW2  804   1.295   1.570   2.728
  259SOL     OW  805   0.459   1.152   2.603
  259SOL    HW1  806   0.388   1.125   2.668
  259SOL    HW2  807   0.433   1.124   2.510
  260SOL     OW  808   1.271   1.797   2.453
  260SOL    HW1  809   1.315   1.861   2.389
  260SOL    HW2  810   1.221   1.849   2.523
  261SOL     OW  811   1.032   0.549   1.878
  261SOL    HW1  812   0.991   0.631   1.839
  261SOL    HW2  813   1.096   0.575   1.951
  262SOL     OW  814   0.866   0.454   2.504
  262SOL    HW1  815   0.834   0.526   2.442
  262SOL    HW2  816   0.890   0.373   2.451
  263SOL     OW  817   1.017   0.039   2.615
  263SOL    HW1  818   0.945   0.044   2.546
  263SOL    HW2  819   0.993  -0.030   2.684
  264SOL     OW  820   1.429   1.173   2.729
  264SOL    HW1  821   1.374   1.089   2.722
  264SOL    HW2  822   1.455   1.202   2.637
  265SOL     OW  823   1.466   0.590   2.854
  265SOL    HW1  824   1.436   0.495   2.861
  265SOL    HW2  825   1.539   0.606   2.920
  266SOL     OW  826   1.857   0.833   2.239
  266SOL    HW1  827   1.899   0.769   2.303
  266SOL    HW2  828   1.819   0.782   2.161
  267SOL     OW  829   0.488   1.385   2.036
  267SOL    HW1  830   0.401   1.370   2.083
  267SOL    HW2  831   0.471   1.411   1.941
  268SOL     OW  832   1.664   1.280   2.519
  268SOL    HW1  833   1.763   1.288   2.533
  268SOL    HW2  834   1.619   1.364   2.550
  269SOL     OW  835   1.390   0.575   1.940
  269SOL    HW1  836   1.336   0.554   2.021
  269SOL    HW2  837   1.481   0.534   1.949
  270SOL     OW  838   0.527   0.256   2.190
  270SOL    HW1  839   0.554   0.197   2.115
  270SOL    HW2  840   0.527   0.351   2.159
  271SOL     OW  841   1.111   1.195   2.962
  271SOL    HW1  842   1.071   1.239   3.043
  271SOL    HW2  843   1.070   1.232   2.879
  272SOL     OW  844   1.638   1.099   2.941
  272SOL    HW1  845   1.643   1.180   3.000
  272SOL    HW2  846   1.552   1.101   2.890
  273SOL     OW  847   0.705   1.050   2.230
  273SOL    HW1  848   0.691   1.057   2.329
  273SOL    HW2  849   0.789   0.999   2.212
  274SOL     OW  850   0.410   0.813   3.113
  274SOL    HW1  851   0.496   0.825   3.163
  274SOL    HW2  852   0.368   0.726   3.140
  275SOL     OW  853   0.367   1.100   2.363
  275SOL    HW1  854   0.360   1.183   2.307
  275SOL    HW2  855   0.371   1.020   2.303
  276SOL     OW  856   0.566   0.537   2.727
  276SOL    HW1  857   0.578   0.603   2.653
  276SOL    HW2  858   0.612   0.571   2.810
  277SOL     OW  859   1.252   1.348   2.250
  277SOL    HW1  860   1.302   1.425   2.290
  277SOL    HW2  861   1.157   1.350   2.282
  278SOL     OW  862   1.272   1.445   3.004
  278SOL    HW1  863   1.319   1.458   3.091
  278SOL    HW2  864   1.206   1.371   3.013
  279SOL     OW  865   1.582   0.639   2.334
  279SOL    HW1  866   1.551   0.700   2.407
  279SOL    HW2  867   1.632   0.691   2.265
  280SOL     OW  868   0.573   0.870   2.891
  280SOL    HW1  869   0.617   0.959   2.882
  280SOL    HW2  870   0.510   0.870   2.968
  281SOL     OW  871   1.209   0.525   2.137
  281SOL    HW1  872   1.222   0.441   2.191
  281SOL    HW2  873   1.180   0.599   2.197
  282SOL     OW  874   0.307   0.213   3.093
  282SOL    HW1  875   0.284   0.250   3.183
  282SOL    HW2  876   0.277   0.118   3.087
  283SOL     OW  877   0.732   0.634   2.926
  283SOL    HW1  878   0.791   0.608   2.850
  283SOL    HW2  879   0.704   0.730   2.915
  284SOL     OW  880   0.307   0.063   2.480
  284SOL    HW1  881   0.296   0.157   2.513
  284SOL    HW2  882   0.302   0.000   2.557
  285SOL     OW  883   1.622   0.367   2.236
  285SOL    HW1  884   1.624   0.291   2.300
  285SOL    HW2  885   1.574   0.444   2.276
  286SOL     OW  886   1.023   0.766   2.828
  286SOL    HW1  887   1.038   0.787   2.924
  286SOL    HW2  888   0.993   0.671   2.819
  287SOL     OW  889   1.540   0.274   1.987
  287SOL    HW1  890   1.479   0.199   2.010
  287SOL    HW2  891   1.562   0.326   2.070
  288SOL     OW  892   1.303   0.838   1.904
  288SOL    HW1  893   1.337   0.745   1.919
  288SOL    HW2  894   1.321   0.865   1.809
  289SOL     OW  895   1.068   1.333   2.711
  289SOL    HW1  896   1.075   1.249   2.656
  289SOL    HW2  897   1.130   1.402   2.675
  290SOL     OW  898   0.319   0.810   2.811
  290SOL    HW1  899   0.412   0.846   2.816
  290SOL    HW2  900   0.313   0.725   2.863
  291SOL     OW  901   0.339   0.509   2.868
  291SOL    HW1  902   0.287   0.426   2.851
  291SOL    HW2  903   0.416   0.514   2.804
  292SOL     OW  904   0.008   1.326   2.062
  292SOL    HW1  905  -0.085   1.347   2.031
  292SOL    HW2  906   0.018   1.227   2.075
  293SOL     OW  907   0.088   1.801   2.789
  293SOL    HW1  908   0.046   1.715   2.762
  293SOL    HW2  909   0.182   1.804   2.755
  294SOL     OW  910   0.504   1.568   2.772
  294SOL    HW1  911   0.570   1.642   2.781
  294SOL    HW2  912   0.548   1.489   2.730
  295SOL     OW  913   1.002   0.796   3.100
  295SOL    HW1  914   1.043   0.764   3.186
  295SOL    HW2  915   0.906   0.769   3.097
  296SOL     OW  916   0.040   0.544   2.976
  296SOL    HW1  917   0.125   0.511   2.935
  296SOL    HW2  918   0.053   0.559   3.074
  297SOL     OW  919   0.815   0.572   2.187
  297SOL    HW1  920   0.822   0.483   2.141
  297SOL    HW2  921   0.721   0.606   2.179
  298SOL     OW  922   1.657   0.604   3.068
  298SOL    HW1  923   1.619   0.535   3.130
  298SOL    HW2  924   1.739   0.568   3.024
  299SOL     OW  925   0.671   0.464   3.131
  299SOL    HW1  926   0.637   0.375   3.101
  299SOL    HW2  927   0.697   0.518   3.051
  300SOL     OW  928   0.473   0.500   2.053
  300SOL    HW1  929   0.534   0.580   2.057
  300SOL    HW2  930   0.378   0.531   2.060
  301SOL     OW  931   1.302   0.855   2.171
  301SOL    HW1  932   1.216   0.824   2.213
  301SOL    HW2  933   1.298   0.841   2.072
  302SOL     OW  934   1.759   1.747   3.016
  302SOL    HW1  935   1.820   1.777   2.943
  302SOL    HW2  936   1.721   1.658   2.994
  303SOL     OW  937   0.083   1.258   2.884
  303SOL    HW1  938   0.078   1.257   2.984
  303SOL    HW2  939   0.000   1.217   2.846
  304SOL     OW  940   1.726   0.135   2.385
  304SOL    HW1  941   1.799   0.118   2.318
  304SOL    HW2  942   1.695   0.048   2.423
  305SOL     OW  943   1.388   1.573   2.339
  305SOL    HW1  944   1.455   1.585   2.265
  305SOL    HW2  945   1.348   1.662   2.362
  306SOL     OW  946   1.280   0.927   2.534
  306SOL    HW1  947   1.340   0.846   2.536
  306SOL    HW2  948   1.320   0.996   2.474
  307SOL     OW  949   0.672   1.616   2.016
  307SOL    HW1  950   0.681   1.626   1.917
  307SOL    HW2  951   0.632   1.527   2.037
  308SOL     OW  952   1.841   0.175   2.825
  308SOL    HW1  953   1.880   0.090   2.789
  308SOL    HW2  954   1.743   0.177   2.806
  309SOL     OW  955   0.263   0.326   2.582
  309SOL    HW1  956   0.184   0.377   2.548
  309SOL    HW2  957   0.254   0.311   2.680
  310SOL     OW  958   1.194   1.612   1.893
  310SOL    HW1  959   1.200   1.519   1.930
  310SOL    HW2  960   1.135   1.612   1.813
  311SOL     OW  961   0.822   1.002   3.234
  311SOL    HW1  962   0.862   1.001   3.142
  311SOL    HW2  963   0.832   1.094   3.274
  312SOL     OW  964   0.916   0.910   2.153
  312SOL    HW1  965   0.979   0.948   2.085
  312SOL    HW2  966   0.956   0.827   2.192
  313SOL     OW  967   1.039   1.098   2.558
  313SOL    HW1  968   0.969   1.051   2.612
  313SOL    HW2  969   1.098   1.030   2.515
  314SOL     OW  970   1.014   0.236   2.833
  314SOL    HW1  971   1.006   0.200   2.740
  314SOL    HW2  972   1.012   0.160   2.898
  315SOL     OW  973   0.590   1.487   2.353
  315SOL    HW1  974   0.632   1.429   2.283
  315SOL    HW2  975   0.546   1.566   2.309
  316SOL     OW  976   1.709   0.385   3.243
  316SOL    HW1  977   1.782   0.454   3.247
  316SOL    HW2  978   1.737   0.310   3.184
  317SOL     OW  979   0.255   1.348   2.152
  317SOL    HW1  980   0.159   1.349   2.125
  317SOL    HW2  981   0.267   1.401   2.236
  318SOL     OW  982   0.075   0.345   1.895
  318SOL    HW1  983  -0.017   0.317   1.866
  318SOL    HW2  984   0.106   0.422   1.839
  319SOL     OW  985   0.072   0.166   2.180
  319SOL    HW1  986   0.055   0.249   2.126
  319SOL    HW2  987   0.162   0.129   2.158
  320SOL     OW  988   1.183   1.335   1.981
  320SOL    HW1  989   1.084   1.324   1.983
  320SOL    HW2  990   1.217   1.350   2.074
  321SOL     OW  991   1.493   1.767   2.821
  321SOL    HW1  992   1.526   1.831   2.752
  321SOL    HW2  993   1.559   1.761   2.896
  322SOL     OW  994   1.674   0.883   3.116
  322SOL    HW1  995   1.647   0.794   3.079
  322SOL    HW2  996   1.675   0.951   3.043
  323SOL     OW  997   1.225   0.325   2.311
  323SOL    HW1  998   1.290   0.251   2.300
  323SOL    HW2  999   1.245   0.375   2.395
  324SOL     OW 1000   0.594   0.745   2.514
  324SOL    HW1 1001   0.644   0.830   2.495
  324SOL    HW2 1002   0.506   0.747   2.466
  325SOL     OW 1003   0.859   1.374   1.878
  325SOL    HW1 1004   0.813   1.389   1.966
  325SOL    HW2 1005   0.903   1.459   1.848
  326SOL     OW 1006   0.661   1.790   2.815
  326SOL    HW1 1007   0.615   1.878   2.802
  326SOL    HW2 1008   0.760   1.802   2.808
  327SOL     OW 1009   0.859   0.956   2.723
  327SOL    HW1 1010   0.913   0.887   2.771
  327SOL    HW2 1011   0.827   1.025   2.789
  328SOL     OW 1012   1.083   0.984   1.949
  328SOL    HW1 1013   1.060   1.037   1.867
  328SOL    HW2 1014   1.164   0.928   1.930
  329SOL     OW 1015   1.861   1.569   2.713
  329SOL    HW1 1016   1.790   1.557   2.643
  329SOL    HW2 1017   1.862   1.490   2.773
  330SOL     OW 1018   0.079   1.240   2.515
  330SOL    HW1 1019   0.078   1.193   2.603
  330SOL    HW2 1020   0.161   1.212   2.464
  331SOL     OW 1021   1.824   0.192   3.089
  331SOL    HW1 1022   1.820   0.102   3.133
  331SOL    HW2 1023   1.827   0.181   2.990
  332SOL     OW 1024   0.428   0.424   2.382
  332SOL    HW1 1025   0.458   0.352   2.320
  332SOL    HW2 1026   0.389   0.384   2.465
  333SOL     OW 1027   1.705   1.487   2.966
  333SOL    HW1 1028   1.612   1.462   2.939
  333SOL    HW2 1029   1.731   1.437   3.048
  334SOL     OW 1030   0.812   1.586   2.549
  334SOL    HW1 1031   0.844   1.596   2.455
  334SOL    HW2 1032   0.733   1.524   2.551
  335SOL     OW 1033   1.424   0.214   2.974
  335SOL    HW1 1034   1.476   0.149   3.029
  335SOL    HW2 1035   1.375   0.277   3.035
  336SOL     OW 1036   0.770   1.330   2.163
  336SOL    HW1 1037   0.724   1.243   2.180
  336SOL    HW2 1038   0.861   1.327   2.204
  337SOL     OW 1039   1.352   0.052   2.030
  337SOL    HW1 1040   1.387   0.011   1.946
  337SOL    HW2 1041   1.262   0.014   2.050
  338SOL     OW 1042   1.300   0.453   2.553
  338SOL    HW1 1043   1.241   0.533   2.557
  338SOL    HW2 1044   1.315   0.418   2.646
  339SOL     OW 1045   1.593   0.221   2.744
  339SOL    HW1 1046   1.509   0.220   2.798
  339SOL    HW2 1047   1.595   0.304   2.688
  340SOL     OW 1048   0.039   1.077   2.162
  340SOL    HW1 1049   0.138   1.066   2.153
  340SOL    HW2 1050  -0.001   0.991   2.194
  341SOL     OW 1051   0.875   1.646   2.199
  341SOL    HW1 1052   0.798   1.611   2.145
  341SOL    HW2 1053   0.843   1.717   2.261
  342SOL     OW 1054   0.230   2.490   0.113
  342SOL    HW1 1055   0.137   2.488   0.150
  342SOL    HW2 1056   0.231   2.451   0.021
  343SOL     OW 1057   0.225   2.137   0.996
  343SOL    HW1 1058   0.260   2.120   1.088
  343SOL    HW2 1059   0.137   2.092   0.984
  344SOL     OW 1060   0.019   2.230   0.647
  344SOL    HW1 1061  -0.063   2.273   0.686
  344SOL    HW2 1062  -0.009   2.157   0.584
  345SOL     OW 1063   1.135   2.565   0.717
  345SOL    HW1 1064   1.192   2.643   0.692
  345SOL    HW2 1065   1.075   2.591   0.793
  346SOL     OW 1066   1.755   2.469   0.231
  346SOL    HW1 1067   1.743   2.456   0.132
  346SOL    HW2 1068   1.725   2.388   0.280
  347SOL     OW 1069   0.768   3.006   1.023
  347SOL    HW1 1070   0.690   3.023   1.083
  347SOL    HW2 1071   0.802   3.093   0.987
  348SOL     OW 1072   0.850   2.660   1.823
  348SOL    HW1 1073   0.846   2.736   1.888
  348SOL    HW2 1074   0.872   2.696   1.732
  349SOL     OW 1075   0.685   2.874   0.665
  349SOL    HW1 1076   0.754   2.858   0.735
  349SOL    HW2 1077   0.612   2.931   0.703
  350SOL     OW 1078   1.460   3.367   1.339
  350SOL    HW1 1079   1.484   3.461   1.365
  350SOL    HW2 1080   1.444   3.313   1.421
  351SOL     OW 1081   0.438   2.254   1.499
  351SOL    HW1 1082   0.520   2.198   1.508
  351SOL    HW2 1083   0.357   2.196   1.503
  352SOL     OW 1084   1.603   2.309   0.737
  352SOL    HW1 1085   1.529   2.355   0.687
  352SOL    HW2 1086   1.654   2.377   0.790
  353SOL     OW 1087   0.240   2.953   0.886
  353SOL    HW1 1088   0.254   2.869   0.938
  353SOL    HW2 1089   0.185   3.017   0.941
  354SOL     OW 1090   0.606   2.826   0.123
  354SOL    HW1 1091   0.613   2.910   0.069
  354SOL    HW2 1092   0.652   2.839   0.211
  355SOL     OW 1093   1.594   1.976   1.480
  355SOL    HW1 1094   1.576   2.043   1.408
  355SOL    HW2 1095   1.591   2.022   1.569
  356SOL     OW 1096   0.122   2.505   0.563
  356SOL    HW1 1097   0.077   2.417   0.580
  356SOL    HW2 1098   0.121   2.559   0.647
  357SOL     OW 1099   1.689   2.784   0.612
  357SOL    HW1 1100   1.784   2.755   0.620
  357SOL    HW2 1101   1.681   2.849   0.537
  358SOL     OW 1102   0.113   2.599   1.597
  358SOL    HW1 1103   0.201   2.586   1.642
  358SOL    HW2 1104   0.100   2.696   1.575
  359SOL     OW 1105   0.613   3.227   0.726
  359SOL    HW1 1106   0.564   3.140   0.735
  359SOL    HW2 1107   0.590   3.270   0.639
  360SOL     OW 1108   1.293   3.090   1.423
  360SOL    HW1 1109   1.330   3.017   1.365
  360SOL    HW2 1110   1.345   3.095   1.508
  361SOL     OW 1111   0.809   1.866   0.502
  361SOL    HW1 1112   0.849   1.957   0.493
  361SOL    HW2 1113   0.709   1.874   0.508
  362SOL     OW 1114   0.197   2.838   1.264
  362SOL    HW1 1115   0.286   2.793   1.250
  362SOL    HW2 1116   0.124   2.773   1.245
  363SOL     OW 1117   1.525   2.861   0.190
  363SOL    HW1 1118   1.462   2.785   0.203
  363SOL    HW2 1119   1.573   2.879   0.276
  364SOL     OW 1120   0.317   2.113   1.801
  364SOL    HW1 1121   0.388   2.184   1.807
  364SOL    HW2 1122   0.229   2.152   1.829
  365SOL     OW 1123   0.598   2.591   0.270
  365SOL    HW1 1124   0.622   2.660   0.202
  365SOL    HW2 1125   0.520   2.624   0.324
  366SOL     OW 1126   1.281   2.207   0.944
  366SOL    HW1 1127   1.195   2.157   0.931
  366SOL    HW2 1128   1.343   2.153   1.000
  367SOL     OW 1129   0.807   2.467   1.465
  367SOL    HW1 1130   0.760   2.464   1.554
  367SOL    HW2 1131   0.756   2.412   1.399
  368SOL     OW 1132   1.394   2.331   1.674
  368SOL    HW1 1133   1.374   2.374   1.762
  368SOL    HW2 1134   1.472   2.269   1.683
  369SOL     OW 1135   0.973   2.752   1.572
  369SOL    HW1 1136   1.019   2.668   1.543
  369SOL    HW2 1137   0.917   2.786   1.497
  370SOL     OW 1138   0.991   2.272   1.242
  370SOL    HW1 1139   0.914   2.306   1.296
  370SOL    HW2 1140   0.957   2.221   1.163
  371SOL     OW 1141   1.041   2.563   0.429
  371SOL    HW1 1142   1.067   2.559   0.525
  371SOL    HW2 1143   0.956   2.512   0.415
  372SOL     OW 1144   0.076   2.673   0.789
  372SOL    HW1 1145   0.175   2.661   0.798
  372SOL    HW2 1146   0.052   2.768   0.810
  373SOL     OW 1147   0.865   2.210   0.195
  373SOL    HW1 1148   0.924   2.273   0.146
  373SOL    HW2 1149   0.884   2.116   0.166
  374SOL     OW 1150   1.719   2.447   1.831
  374SOL    HW1 1151   1.693   2.536   1.795
  374SOL    HW2 1152   1.717   2.379   1.758
  375SOL     OW 1153   1.362   3.006   0.545
  375SOL    HW1 1154   1.445   2.977   0.497
  375SOL    HW2 1155   1.313   3.073   0.489
  376SOL     OW 1156   0.550   2.058   0.885
  376SOL    HW1 1157   0.545   2.053   0.985
  376SOL    HW2 1158   0.552   2.154   0.856
  377SOL     OW 1159   1.795   2.928   0.873
  377SOL    HW1 1160   1.733   2.913   0.797
  377SOL    HW2 1161   1.743   2.939   0.958
  378SOL     OW 1162   0.321   2.805   0.242
  378SOL    HW1 1163   0.403   2.844   0.200
  378SOL    HW2 1164   0.294   2.723   0.193
  379SOL     OW 1165   1.458   2.597   0.728
  379SOL    HW1 1166   1.453   2.532   0.803
  379SOL    HW2 1167   1.538   2.656   0.741
  380SOL     OW 1168   0.202   2.147   1.498
  380SOL    HW1 1169   0.122   2.207   1.485
  380SOL    HW2 1170   0.192   2.098   1.584
  381SOL     OW 1171   1.400   1.969   0.426
  381SOL    HW1 1172   1.376   1.932   0.336
  381SOL    HW2 1173   1.499   1.985   0.430
  382SOL     OW 1174   0.382   2.562   0.480
  382SOL    HW1 1175   0.427   2.472   0.477
  382SOL    HW2 1176   0.288   2.551   0.513
  383SOL     OW 1177   1.547   2.084   1.729
  383SOL    HW1 1178   1.542   2.121   1.821
  383SOL    HW2 1179   1.475   2.015   1.717
  384SOL     OW 1180   0.614   1.984   0.117
  384SOL    HW1 1181   0.712   1.962   0.124
  384SOL    HW2 1182   0.583   1.967   0.024
  385SOL     OW 1183   0.781   2.126   1.749
  385SOL    HW1 1184   0.848   2.065   1.792
  385SOL    HW2 1185   0.708   2.145   1.814
  386SOL     OW 1186   1.351   2.452   1.433
  386SOL    HW1 1187   1.379   2.409   1.518
  386SOL    HW2 1188   1.376   2.548   1.434
  387SOL     OW 1189   0.922   2.365   0.899
  387SOL    HW1 1190   0.897   2.356   0.803
  387SOL    HW2 1191   0.970   2.283   0.930
  388SOL     OW 1192   0.539   1.926   0.512
  388SOL    HW1 1193   0.458   1.927   0.570
  388SOL    HW2 1194   0.542   2.009   0.457
  389SOL     OW 1195   0.297   1.897   0.171
  389SOL    HW1 1196   0.346   1.981   0.150
  389SOL    HW2 1197   0.359   1.832   0.216
  390SOL     OW 1198   0.935   2.098   0.480
  390SOL    HW1 1199   0.887   2.139   0.402
  390SOL    HW2 1200   1.034   2.096   0.461
  391SOL     OW 1201   1.076   2.545   1.464
  391SOL    HW1 1202   0.996   2.484   1.467
  391SOL    HW2 1203   1.157   2.492   1.440
  392SOL     OW 1204   0.459   3.014   0.741
  392SOL    HW1 1205   0.388   2.987   0.806
  392SOL    HW2 1206   0.433   2.986   0.648
  393SOL     OW 1207   1.032   2.411   0.016
  393SOL    HW1 1208   0.991   2.493  -0.023
  393SOL    HW2 1209   1.096   2.437   0.089
  394SOL     OW 1210   0.078   2.418   1.386
  394SOL    HW1 1211   0.170   2.417   1.345
  394SOL    HW2 1212   0.072   2.492   1.453
  395SOL     OW 1213   0.561   2.084   1.147
  395SOL    HW1 1214   0.599   2.000   1.184
  395SOL    HW2 1215   0.473   2.103   1.191
  396SOL     OW 1216   0.866   2.316   0.642
  396SOL    HW1 1217   0.834   2.388   0.580
  396SOL    HW2 1218   0.890   2.235   0.589
  397SOL     OW 1219   1.017   1.901   0.753
  397SOL    HW1 1220   0.945   1.906   0.684
  397SOL    HW2 1221   0.993   1.832   0.822
  398SOL     OW 1222   1.429   3.035   0.867
  398SOL    HW1 1223   1.374   2.951   0.860
  398SOL    HW2 1224   1.455   3.064   0.775
  399SOL     OW 1225   1.466   2.452   0.992
  399SOL    HW1 1226   1.436   2.357   0.999
  399SOL    HW2 1227   1.539   2.468   1.058
  400SOL     OW 1228   1.857   2.695   0.377
  400SOL    HW1 1229   1.899   2.631   0.441
  400SOL    HW2 1230   1.819   2.644   0.299
  401SOL     OW 1231   1.390   2.437   0.078
  401SOL    HW1 1232   1.336   2.416   0.159
  401SOL    HW2 1233   1.481   2.396   0.087
  402SOL     OW 1234   0.527   2.118   0.328
  402SOL    HW1 1235   0.554   2.059   0.253
  402SOL    HW2 1236   0.527   2.213   0.297
  403SOL     OW 1237   1.754   3.085   1.588
  403SOL    HW1 1238   1.845   3.046   1.575
  403SOL    HW2 1239   1.762   3.181   1.612
  404SOL     OW 1240   1.638   2.961   1.079
  404SOL    HW1 1241   1.643   3.042   1.138
  404SOL    HW2 1242   1.552   2.963   1.028
  405SOL     OW 1243   0.915   1.951   1.402
  405SOL    HW1 1244   0.940   1.931   1.307
  405SOL    HW2 1245   0.987   2.007   1.444
  406SOL     OW 1246   0.980   2.978   1.719
  406SOL    HW1 1247   0.881   2.984   1.729
  406SOL    HW2 1248   1.003   2.898   1.663
  407SOL     OW 1249   0.705   2.912   0.368
  407SOL    HW1 1250   0.691   2.919   0.467
  407SOL    HW2 1251   0.789   2.861   0.350
  408SOL     OW 1252   0.410   2.675   1.251
  408SOL    HW1 1253   0.496   2.687   1.301
  408SOL    HW2 1254   0.368   2.588   1.278
  409SOL     OW 1255   1.274   2.248   1.262
  409SOL    HW1 1256   1.295   2.322   1.326
  409SOL    HW2 1257   1.185   2.265   1.219
  410SOL     OW 1258   0.367   2.962   0.501
  410SOL    HW1 1259   0.360   3.045   0.445
  410SOL    HW2 1260   0.371   2.882   0.441
  411SOL     OW 1261   0.566   2.399   0.865
  411SOL    HW1 1262   0.578   2.465   0.791
  411SOL    HW2 1263   0.612   2.433   0.948
  412SOL     OW 1264   1.582   2.501   0.472
  412SOL    HW1 1265   1.551   2.562   0.545
  412SOL    HW2 1266   1.632   2.553   0.403
  413SOL     OW 1267   0.402   2.613   1.598
  413SOL    HW1 1268   0.470   2.668   1.551
  413SOL    HW2 1269   0.442   2.525   1.625
  414SOL     OW 1270   1.587   2.641   1.670
  414SOL    HW1 1271   1.495   2.679   1.665
  414SOL    HW2 1272   1.647   2.688   1.605
  415SOL     OW 1273   1.013   1.967   1.770
  415SOL    HW1 1274   1.019   2.052   1.718
  415SOL    HW2 1275   1.045   1.891   1.713
  416SOL     OW 1276   0.504   1.912   1.740
  416SOL    HW1 1277   0.462   1.855   1.670
  416SOL    HW2 1278   0.438   1.981   1.772
  417SOL     OW 1279   0.573   2.732   1.029
  417SOL    HW1 1280   0.617   2.821   1.020
  417SOL    HW2 1281   0.510   2.732   1.106
  418SOL     OW 1282   1.360   2.724   1.045
  418SOL    HW1 1283   1.285   2.724   0.979
  418SOL    HW2 1284   1.397   2.632   1.054
  419SOL     OW 1285   1.209   2.387   0.275
  419SOL    HW1 1286   1.222   2.303   0.329
  419SOL    HW2 1287   1.180   2.461   0.335
  420SOL     OW 1288   0.307   2.075   1.231
  420SOL    HW1 1289   0.284   2.112   1.321
  420SOL    HW2 1290   0.277   1.980   1.225
  421SOL     OW 1291   0.037   3.172   1.282
  421SOL    HW1 1292   0.090   3.123   1.350
  421SOL    HW2 1293   0.059   3.270   1.287
  422SOL     OW 1294   0.732   2.496   1.064
  422SOL    HW1 1295   0.791   2.470   0.988
  422SOL    HW2 1296   0.704   2.592   1.053
  423SOL     OW 1297   1.728   2.797   1.854
  423SOL    HW1 1298   1.682   2.790   1.765
  423SOL    HW2 1299   1.666   2.841   1.920
  424SOL     OW 1300   0.307   1.925   0.618
  424SOL    HW1 1301   0.296   2.019   0.651
  424SOL    HW2 1302   0.302   1.862   0.695
  425SOL     OW 1303   1.622   2.229   0.374
  425SOL    HW1 1304   1.624   2.153   0.438
  425SOL    HW2 1305   1.574   2.306   0.414
  426SOL     OW 1306   1.023   2.628   0.966
  426SOL    HW1 1307   1.038   2.649   1.062
  426SOL    HW2 1308   0.993   2.533   0.957
  427SOL     OW 1309   0.350   2.760   1.804
  427SOL    HW1 1310   0.426   2.804   1.852
  427SOL    HW2 1311   0.385   2.713   1.722
  428SOL     OW 1312   1.540   2.136   0.125
  428SOL    HW1 1313   1.479   2.061   0.148
  428SOL    HW2 1314   1.562   2.188   0.208
  429SOL     OW 1315   1.303   2.700   0.042
  429SOL    HW1 1316   1.337   2.607   0.057
  429SOL    HW2 1317   1.321   2.727  -0.053
  430SOL     OW 1318   0.319   2.672   0.949
  430SOL    HW1 1319   0.412   2.708   0.954
  430SOL    HW2 1320   0.313   2.587   1.001
  431SOL     OW 1321   0.339   2.371   1.006
  431SOL    HW1 1322   0.287   2.288   0.989
  431SOL    HW2 1323   0.416   2.376   0.942
  432SOL     OW 1324   1.138   2.242   1.678
  432SOL    HW1 1325   1.093   2.305   1.742
  432SOL    HW2 1326   1.231   2.273   1.661
  433SOL     OW 1327   1.160   2.069   1.477
  433SOL    HW1 1328   1.160   2.133   1.554
  433SOL    HW2 1329   1.188   2.117   1.394
  434SOL     OW 1330   1.002   2.658   1.238
  434SOL    HW1 1331   1.043   2.626   1.324
  434SOL    HW2 1332   0.906   2.631   1.235
  435SOL     OW 1333   0.040   2.406   1.114
  435SOL    HW1 1334   0.125   2.373   1.073
  435SOL    HW2 1335   0.053   2.421   1.212
  436SOL     OW 1336   0.189   2.382   1.722
  436SOL    HW1 1337   0.248   2.342   1.652
  436SOL    HW2 1338   0.131   2.453   1.681
  437SOL     OW 1339   1.369   2.812   1.660
  437SOL    HW1 1340   1.408   2.901   1.680
  437SOL    HW2 1341   1.379   2.792   1.563
  438SOL     OW 1342   0.815   2.434   0.325
  438SOL    HW1 1343   0.822   2.345   0.279
  438SOL    HW2 1344   0.721   2.468   0.317
  439SOL     OW 1345   1.657   2.466   1.206
  439SOL    HW1 1346   1.619   2.397   1.268
  439SOL    HW2 1347   1.739   2.430   1.162
  440SOL     OW 1348   0.671   2.326   1.269
  440SOL    HW1 1349   0.637   2.237   1.239
  440SOL    HW2 1350   0.697   2.380   1.189
  441SOL     OW 1351   0.473   2.362   0.191
  441SOL    HW1 1352   0.534   2.442   0.195
  441SOL    HW2 1353   0.378   2.393   0.198
  442SOL     OW 1354   0.159   2.999   1.466
  442SOL    HW1 1355   0.181   2.938   1.542
  442SOL    HW2 1356   0.169   2.950   1.380
  443SOL     OW 1357   1.347   2.921   1.234
  443SOL    HW1 1358   1.371   2.858   1.160
  443SOL    HW2 1359   1.257   2.961   1.216
  444SOL     OW 1360   1.302   2.717   0.309
  444SOL    HW1 1361   1.216   2.686   0.351
  444SOL    HW2 1362   1.298   2.703   0.210
  445SOL     OW 1363   0.083   3.120   1.022
  445SOL    HW1 1364   0.078   3.119   1.122
  445SOL    HW2 1365   0.000   3.079   0.984
  446SOL     OW 1366   0.903   1.948   0.133
  446SOL    HW1 1367   0.954   1.949   0.047
  446SOL    HW2 1368   0.959   1.906   0.204
  447SOL     OW 1369   1.726   1.997   0.523
  447SOL    HW1 1370   1.799   1.980   0.456
  447SOL    HW2 1371   1.695   1.910   0.561
  448SOL     OW 1372   1.280   2.789   0.672
  448SOL    HW1 1373   1.340   2.708   0.674
  448SOL    HW2 1374   1.320   2.858   0.612
  449SOL     OW 1375   1.841   2.037   0.963
  449SOL    HW1 1376   1.880   1.952   0.927
  449SOL    HW2 1377   1.743   2.039   0.944
  450SOL     OW 1378   0.263   2.188   0.720
  450SOL    HW1 1379   0.184   2.239   0.686
  450SOL    HW2 1380   0.254   2.173   0.818
  451SOL     OW 1381   0.822   2.864   1.372
  451SOL    HW1 1382   0.862   2.863   1.280
  451SOL    HW2 1383   0.832   2.956   1.412
  452SOL     OW 1384   0.916   2.772   0.291
  452SOL    HW1 1385   0.979   2.810   0.223
  452SOL    HW2 1386   0.956   2.689   0.330
  453SOL     OW 1387   0.372   3.150   1.490
  453SOL    HW1 1388   0.359   3.243   1.456
  453SOL    HW2 1389   0.288   3.098   1.477
  454SOL     OW 1390   1.039   2.960   0.696
  454SOL    HW1 1391   0.969   2.913   0.750
  454SOL    HW2 1392   1.098   2.892   0.653
  455SOL     OW 1393   1.014   2.098   0.971
  455SOL    HW1 1394   1.006   2.062   0.878
  455SOL    HW2 1395   1.012   2.022   1.036
  456SOL     OW 1396   1.709   2.247   1.381
  456SOL    HW1 1397   1.782   2.316   1.385
  456SOL    HW2 1398   1.737   2.172   1.322
  457SOL     OW 1399   0.105   2.875   1.726
  457SOL    HW1 1400   0.028   2.842   1.780
  457SOL    HW2 1401   0.190   2.845   1.768
  458SOL     OW 1402   0.672   2.065   1.489
  458SOL    HW1 1403   0.762   2.049   1.449
  458SOL    HW2 1404   0.680   2.070   1.588
  459SOL     OW 1405   0.075   2.207   0.033
  459SOL    HW1 1406  -0.017   2.179   0.004
  459SOL    HW2 1407   0.106   2.284  -0.023
  460SOL     OW 1408   1.440   2.718   1.398
  460SOL    HW1 1409   1.383   2.770   1.335
  460SOL    HW2 1410   1.536   2.730   1.374
  461SOL     OW 1411   0.072   2.028   0.318
  461SOL    HW1 1412   0.055   2.111   0.264
  461SOL    HW2 1413   0.162   1.991   0.296
  462SOL     OW 1414   0.613   2.704   1.431
  462SOL    HW1 1415   0.669   2.785   1.414
  462SOL    HW2 1416   0.672   2.624   1.434
  463SOL     OW 1417   0.716   2.427   1.708
  463SOL    HW1 1418   0.735   2.492   1.782
  463SOL    HW2 1419   0.776   2.347   1.717
  464SOL     OW 1420   1.450   3.082   1.633
  464SOL    HW1 1421   1.441   3.072   1.732
  464SOL    HW2 1422   1.546   3.075   1.607
  465SOL     OW 1423   1.674   2.745   1.254
  465SOL    HW1 1424   1.647   2.656   1.217
  465SOL    HW2 1425   1.675   2.813   1.181
  466SOL     OW 1426   1.225   2.187   0.449
  466SOL    HW1 1427   1.290   2.113   0.438
  466SOL    HW2 1428   1.245   2.237   0.533
  467SOL     OW 1429   0.594   2.607   0.652
  467SOL    HW1 1430   0.644   2.692   0.633
  467SOL    HW2 1431   0.506   2.609   0.604
  468SOL     OW 1432   1.777   2.204   1.642
  468SOL    HW1 1433   1.760   2.235   1.548
  468SOL    HW2 1434   1.693   2.167   1.680
  469SOL     OW 1435   1.730   2.796   1.517
  469SOL    HW1 1436   1.768   2.887   1.532
  469SOL    HW2 1437   1.722   2.779   1.418
  470SOL     OW 1438   0.859   2.818   0.861
  470SOL    HW1 1439   0.913   2.749   0.909
  470SOL    HW2 1440   0.827   2.887   0.927
  471SOL     OW 1441   1.083   2.846   0.087
  471SOL    HW1 1442   1.060   2.899   0.005
  471SOL    HW2 1443   1.164   2.790   0.068
  472SOL     OW 1444   0.079   3.102   0.653
  472SOL    HW1 1445   0.078   3.055   0.741
  472SOL    HW2 1446   0.161   3.074   0.602
  473SOL     OW 1447   1.824   2.054   1.227
  473SOL    HW1 1448   1.820   1.964   1.271
  473SOL    HW2 1449   1.827   2.043   1.128
  474SOL     OW 1450   0.428   2.286   0.520
  474SOL    HW1 1451   0.458   2.214   0.458
  474SOL    HW2 1452   0.389   2.246   0.603
  475SOL     OW 1453   0.317   2.409   1.280
  475SOL    HW1 1454   0.355   2.350   1.352
  475SOL    HW2 1455   0.357   2.383   1.192
  476SOL     OW 1456   1.424   2.076   1.112
  476SOL    HW1 1457   1.476   2.011   1.167
  476SOL    HW2 1458   1.375   2.139   1.173
  477SOL     OW 1459   1.001   1.896   1.154
  477SOL    HW1 1460   0.938   1.824   1.123
  477SOL    HW2 1461   1.094   1.860   1.154
  478SOL     OW 1462   0.770   3.192   0.301
  478SOL    HW1 1463   0.724   3.105   0.318
  478SOL    HW2 1464   0.861   3.189   0.342
  479SOL     OW 1465   1.352   1.914   0.168
  479SOL    HW1 1466   1.387   1.873   0.084
  479SOL    HW2 1467   1.262   1.876   0.188
  480SOL     OW 1468   1.300   2.315   0.691
  480SOL    HW1 1469   1.241   2.395   0.695
  480SOL    HW2 1470   1.315   2.280   0.784
  481SOL     OW 1471   1.593   2.083   0.882
  481SOL    HW1 1472   1.509   2.082   0.936
  481SOL    HW2 1473   1.595   2.166   0.826
  482SOL     OW 1474   0.039   2.939   0.300
  482SOL    HW1 1475   0.138   2.928   0.291
  482SOL    HW2 1476  -0.001   2.853   0.332
  483SOL     OW 1477   0.230   2.490   1.975
  483SOL    HW1 1478   0.137   2.488   2.012
  483SOL    HW2 1479   0.231   2.451   1.883
  484SOL     OW 1480   0.225   2.137   2.858
  484SOL    HW1 1481   0.260   2.120   2.950
  484SOL    HW2 1482   0.137   2.092   2.846
  485SOL     OW 1483   0.019   2.230   2.509
  485SOL    HW1 1484  -0.063   2.273   2.548
  485SOL    HW2 1485  -0.009   2.157   2.446
  486SOL     OW 1486   1.135   2.565   2.579
  486SOL    HW1 1487   1.192   2.643   2.554
  486SOL    HW2 1488   1.075   2.591   2.655
  487SOL     OW 1489   1.755   2.469   2.093
  487SOL    HW1 1490   1.743   2.456   1.994
  487SOL    HW2 1491   1.725   2.388   2.142
  488SOL     OW 1492   0.768   3.006   2.885
  488SOL    HW1 1493   0.690   3.023   2.945
  488SOL    HW2 1494   0.802   3.093   2.849
  489SOL     OW 1495   0.685   2.874   2.527
  489SOL    HW1 1496   0.754   2.858   2.597
  489SOL    HW2 1497   0.612   2.931   2.565
  490SOL     OW 1498   1.603   2.309   2.599
  490SOL    HW1 1499   1.529   2.355   2.549
  490SOL    HW2 1500   1.654   2.377   2.652
  491SOL     OW 1501   0.240   2.953   2.748
  491SOL    HW1 1502   0.254   2.869   2.800
  491SOL    HW2 1503   0.185   3.017   2.803
  492SOL     OW 1504   0.606   2.826   1.985
  492SOL    HW1 1505   0.613   2.910   1.931
  492SOL    HW2 1506   0.652   2.839   2.073
  493SOL     OW 1507   0.122   2.505   2.425
  493SOL    HW1 1508   0.077   2.417   2.442
  493SOL    HW2 1509   0.121   2.559   2.509
  494SOL     OW 1510   1.689   2.784   2.474
  494SOL    HW1 1511   1.784   2.755   2.482
  494SOL    HW2 1512   1.681   2.849   2.399
  495SOL     OW 1513   0.613   3.227   2.588
  495SOL    HW1 1514   0.564   3.140   2.597
  495SOL    HW2 1515   0.590   3.270   2.501
  496SOL     OW 1516   0.809   1.866   2.364
  496SOL    HW1 1517   0.849   1.957   2.355
  496SOL    HW2 1518   0.709   1.874   2.370
  497SOL     OW 1519   0.197   2.838   3.126
  497SOL    HW1 1520   0.286   2.793   3.112
  497SOL    HW2 1521   0.124   2.773   3.107
  498SOL     OW 1522   1.525   2.861   2.052
  498SOL    HW1 1523   1.462   2.785   2.065
  498SOL    HW2 1524   1.573   2.879   2.138
  499SOL     OW 1525   0.598   2.591   2.132
  499SOL    HW1 1526   0.622   2.660   2.064
  499SOL    HW2 1527   0.520   2.624   2.186
  500SOL     OW 1528   1.281   2.207   2.806
  500SOL    HW1 1529   1.195   2.157   2.793
  500SOL    HW2 1530   1.343   2.153   2.862
  501SOL     OW 1531   1.041   2.563   2.291
  501SOL    HW1 1532   1.067   2.559   2.387
  501SOL    HW2 1533   0.956   2.512   2.277
  502SOL     OW 1534   0.076   2.673   2.651
  502SOL    HW1 1535   0.175   2.661   2.660
  502SOL    HW2 1536   0.052   2.768   2.672
  503SOL     OW 1537   0.865   2.210   2.057
  503SOL    HW1 1538   0.924   2.273   2.008
  503SOL    HW2 1539   0.884   2.116   2.028
  504SOL     OW 1540   1.362   3.006   2.407
  504SOL    HW1 1541   1.445   2.977   2.359
  504SOL    HW2 1542   1.313   3.073   2.351
  505SOL     OW 1543   0.550   2.058   2.747
  505SOL    HW1 1544   0.545   2.053   2.847
  505SOL    HW2 1545   0.552   2.154   2.718
  506SOL     OW 1546   1.795   2.928   2.735
  506SOL    HW1 1547   1.733   2.913   2.659
  506SOL    HW2 1548   1.743   2.939   2.820
  507SOL     OW 1549   0.321   2.805   2.104
  507SOL    HW1 1550   0.403   2.844   2.062
  507SOL    HW2 1551   0.294   2.723   2.055
  508SOL     OW 1552   1.458   2.597   2.590
  508SOL    HW1 1553   1.453   2.532   2.665
  508SOL    HW2 1554   1.538   2.656   2.603
  509SOL     OW 1555   1.400   1.969   2.288
  509SOL    HW1 1556   1.376   1.932   2.198
  509SOL    HW2 1557   1.499   1.985   2.292
  510SOL     OW 1558   0.382   2.562   2.342
  510SOL    HW1 1559   0.427   2.472   2.339
  510SOL    HW2 1560   0.288   2.551   2.375
  511SOL     OW 1561   0.614   1.984   1.979
  511SOL    HW1 1562   0.712   1.962   1.986
  511SOL    HW2 1563   0.583   1.967   1.886
  512SOL     OW 1564   0.922   2.365   2.761
  512SOL    HW1 1565   0.897   2.356   2.665
  512SOL    HW2 1566   0.970   2.283   2.792
  513SOL     OW 1567   0.539   1.926   2.374
  513SOL    HW1 1568   0.458   1.927   2.432
  513SOL    HW2 1569   0.542   2.009   2.319
  514SOL     OW 1570   0.297   1.897   2.033
  514SOL    HW1 1571   0.346   1.981   2.012
  514SOL    HW2 1572   0.359   1.832   2.078
  515SOL     OW 1573   0.935   2.098   2.342
  515SOL    HW1 1574   0.887   2.139   2.264
  515SOL    HW2 1575   1.034   2.096   2.323
  516SOL     OW 1576   0.459   3.014   2.603
  516SOL    HW1 1577   0.388   2.987   2.668
  516SOL    HW2 1578   0.433   2.986   2.510
  517SOL     OW 1579   1.032   2.411   1.878
  517SOL    HW1 1580   0.991   2.493   1.839
  517SOL    HW2 1581   1.096   2.437   1.951
  518SOL     OW 1582   0.866   2.316   2.504
  518SOL    HW1 1583   0.834   2.388   2.442
  518SOL    HW2 1584   0.890   2.235   2.451
  519SOL     OW 1585   1.017   1.901   2.615
  519SOL    HW1 1586   0.945   1.906   2.546
  519SOL    HW2 1587   0.993   1.832   2.684
  520SOL     OW 1588   1.429   3.035   2.729
  520SOL    HW1 1589   1.374   2.951   2.722
  520SOL    HW2 1590   1.455   3.064   2.637
  521SOL     OW 1591   1.466   2.452   2.854
  521SOL    HW1 1592   1.436   2.357   2.861
  521SOL    HW2 1593   1.539   2.468   2.920
  522SOL     OW 1594   1.857   2.695   2.239
  522SOL    HW1 1595   1.899   2.631   2.303
  522SOL    HW2 1596   1.819   2.644   2.161
  523SOL     OW 1597   1.390   2.437   1.940
  523SOL    HW1 1598   1.336   2.416   2.021
  523SOL    HW2 1599   1.481   2.396   1.949
  524SOL     OW 1600   0.527   2.118   2.190
  524SOL    HW1 1601   0.554   2.059   2.115
  524SOL    HW2 1602   0.527   2.213   2.159
  525SOL     OW 1603   1.111   3.057   2.962
  525SOL    HW1 1604   1.071   3.101   3.043
  525SOL    HW2 1605   1.070   3.094   2.879
  526SOL     OW 1606   1.638   2.961   2.941
  526SOL    HW1 1607   1.643   3.042   3.000
  526SOL    HW2 1608   1.552   2.963   2.890
  527SOL     OW 1609   0.705   2.912   2.230
  527SOL    HW1 1610   0.691   2.919   2.329
  527SOL    HW2 1611   0.789   2.861   2.212
  528SOL     OW 1612   0.410   2.675   3.113
  528SOL    HW1 1613   0.496   2.687   3.163
  528SOL    HW2 1614   0.368   2.588   3.140
  529SOL     OW 1615   0.367   2.962   2.363
  529SOL    HW1 1616   0.360   3.045   2.307
  529SOL    HW2 1617   0.371   2.882   2.303
  530SOL     OW 1618   0.566   2.399   2.727
  530SOL    HW1 1619   0.578   2.465   2.653
  530SOL    HW2 1620   0.612   2.433   2.810
  531SOL     OW 1621   1.582   2.501   2.334
  531SOL    HW1 1622   1.551   2.562   2.407
  531SOL    HW2 1623   1.632   2.553   2.265
  532SOL     OW 1624   0.573   2.732   2.891
  532SOL    HW1 1625   0.617   2.821   2.882
  532SOL    HW2 1626   0.510   2.732   2.968
  533SOL     OW 1627   1.209   2.387   2.137
  533SOL    HW1 1628   1.222   2.303   2.191
  533SOL    HW2 1629   1.180   2.461   2.197
  534SOL     OW 1630   0.307   2.075   3.093
  534SOL    HW1 1631   0.284   2.112   3.183
  534SOL    HW2 1632   0.277   1.980   3.087
  535SOL     OW 1633   0.037   3.172   3.144
  535SOL    HW1 1634   0.090   3.123   3.212
  535SOL    HW2 1635   0.059   3.270   3.149
  536SOL     OW 1636   0.732   2.496   2.926
  536SOL    HW1 1637   0.791   2.470   2.850
  536SOL    HW2 1638   0.704   2.592   2.915
  537SOL     OW 1639   0.307   1.925   2.480
  537SOL    HW1 1640   0.296   2.019   2.513
  537SOL    HW2 1641   0.302   1.862   2.557
  538SOL     OW 1642   1.622   2.229   2.236
  538SOL    HW1 1643   1.624   2.153   2.300
  538SOL    HW2 1644   1.574   2.306   2.276
  539SOL     OW 1645   1.023   2.628   2.828
  539SOL    HW1 1646   1.038   2.649   2.924
  539SOL    HW2 1647   0.993   2.533   2.819
  540SOL     OW 1648   1.540   2.136   1.987
  540SOL    HW1 1649   1.479   2.061   2.010
  540SOL    HW2 1650   1.562   2.188   2.070
  541SOL     OW 1651   1.303   2.700   1.904
  541SOL    HW1 1652   1.337   2.607   1.919
  541SOL    HW2 1653   1.321   2.727   1.809
  542SOL     OW 1654   0.319   2.672   2.811
  542SOL    HW1 1655   0.412   2.708   2.816
  542SOL    HW2 1656   0.313   2.587   2.863
  543SOL     OW 1657   0.339   2.371   2.868
  543SOL    HW1 1658   0.287   2.288   2.851
  543SOL    HW2 1659   0.416   2.376   2.804
  544SOL     OW 1660   1.002   2.658   3.100
  544SOL    HW1 1661   1.043   2.626   3.186
  544SOL    HW2 1662   0.906   2.631   3.097
  545SOL     OW 1663   0.040   2.406   2.976
  545SOL    HW1 1664   0.125   2.373   2.935
  545SOL    HW2 1665   0.053   2.421   3.074
  546SOL     OW 1666   0.815   2.434   2.187
  546SOL    HW1 1667   0.822   2.345   2.141
  546SOL    HW2 1668   0.721   2.468   2.179
  547SOL     OW 1669   1.657   2.466   3.068
  547SOL    HW1 1670   1.619   2.397   3.130
  547SOL    HW2 1671   1.739   2.430   3.024
  548SOL     OW 1672   0.671   2.326   3.131
  548SOL    HW1 1673   0.637   2.237   3.101
  548SOL    HW2 1674   0.697   2.380   3.051
  549SOL     OW 1675   0.473   2.362   2.053
  549SOL    HW1 1676   0.534   2.442   2.057
  549SOL    HW2 1677   0.378   2.393   2.060
  550SOL     OW 1678   1.347   2.921   3.096
  550SOL    HW1 1679   1.371   2.858   3.022
  550SOL    HW2 1680   1.257   2.961   3.078
  551SOL     OW 1681   1.302   2.717   2.171
  551SOL    HW1 1682   1.216   2.686   2.213
  551SOL    HW2 1683   1.298   2.703   2.072
  552SOL     OW 1684   0.083   3.120   2.884
  552SOL    HW1 1685   0.078   3.119   2.984
  552SOL    HW2 1686   0.000   3.079   2.846
  553SOL     OW 1687   1.726   1.997   2.385
  553SOL    HW1 1688   1.799   1.980   2.318
  553SOL    HW2 1689   1.695   1.910   2.423
  554SOL     OW 1690   1.280   2.789   2.534
  554SOL    HW1 1691   1.340   2.708   2.536
  554SOL    HW2 1692   1.320   2.858   2.474
  555SOL     OW 1693   1.841   2.037   2.825
  555SOL    HW1 1694   1.880   1.952   2.789
  555SOL    HW2 1695   1.743   2.039   2.806
  556SOL     OW 1696   0.263   2.188   2.582
  556SOL    HW1 1697   0.184   2.239   2.548
  556SOL    HW2 1698   0.254   2.173   2.680
  557SOL     OW 1699   0.822   2.864   3.234
  557SOL    HW1 1700   0.862   2.863   3.142
  557SOL    HW2 1701   0.832   2.956   3.274
  558SOL     OW 1702   0.916   2.772   2.153
  558SOL    HW1 1703   0.979   2.810   2.085
  558SOL    HW2 1704   0.956   2.689   2.192
  559SOL     OW 1705   1.039   2.960   2.558
  559SOL    HW1 1706   0.969   2.913   2.612
  559SOL    HW2 1707   1.098   2.892   2.515
  560SOL     OW 1708   1.014   2.098   2.833
  560SOL    HW1 1709   1.006   2.062   2.740
  560SOL    HW2 1710   1.012   2.022   2.898
  561SOL     OW 1711   1.709   2.247   3.243
  561SOL    HW1 1712   1.782   2.316   3.247
  561SOL    HW2 1713   1.737   2.172   3.184
  562SOL     OW 1714   0.075   2.207   1.895
  562SOL    HW1 1715  -0.017   2.179   1.866
  562SOL    HW2 1716   0.106   2.284   1.839
  563SOL     OW 1717   0.072   2.028   2.180
  563SOL    HW1 1718   0.055   2.111   2.126
  563SOL    HW2 1719   0.162   1.991   2.158
  564SOL     OW 1720   1.674   2.745   3.116
  564SOL    HW1 1721   1.647   2.656   3.079
  564SOL    HW2 1722   1.675   2.813   3.043
  565SOL     OW 1723   1.225   2.187   2.311
  565SOL    HW1 1724   1.290   2.113   2.300
  565SOL    HW2 1725   1.245   2.237   2.395
  566SOL     OW 1726   0.594   2.607   2.514
  566SOL    HW1 1727   0.644   2.692   2.495
  566SOL    HW2 1728   0.506   2.609   2.466
  567SOL     OW 1729   1.730   2.796   3.379
  567SOL    HW1 1730   1.768   2.887   3.394
  567SOL    HW2 1731   1.722   2.779   3.280
  568SOL     OW 1732   0.859   2.818   2.723
  568SOL    HW1 1733   0.913   2.749   2.771
  568SOL    HW2 1734   0.827   2.887   2.789
  569SOL     OW 1735   1.083   2.846   1.949
  569SOL    HW1 1736   1.060   2.899   1.867
  569SOL    HW2 1737   1.164   2.790   1.930
  570SOL     OW 1738   0.079   3.102   2.515
  570SOL    HW1 1739   0.078   3.055   2.603
  570SOL    HW2 1740   0.161   3.074   2.464
  571SOL     OW 1741   1.824   2.054   3.089
  571SOL    HW1 1742   1.820   1.964   3.133
  571SOL    HW2 1743   1.827   2.043   2.990
  572SOL     OW 1744   0.428   2.286   2.382
  572SOL    HW1 1745   0.458   2.214   2.320
  572SOL    HW2 1746   0.389   2.246   2.465
  573SOL     OW 1747   1.424   2.076   2.974
  573SOL    HW1 1748   1.476   2.011   3.029
  573SOL    HW2 1749   1.375   2.139   3.035
  574SOL     OW 1750   0.770   3.192   2.163
  574SOL    HW1 1751   0.724   3.105   2.180
  574SOL    HW2 1752   0.861   3.189   2.204
  575SOL     OW 1753   1.352   1.914   2.030
  575SOL    HW1 1754   1.387   1.873   1.946
  575SOL    HW2 1755   1.262   1.876   2.050
  576SOL     OW 1756   1.300   2.315   2.553
  576SOL    HW1 1757   1.241   2.395   2.557
  576SOL    HW2 1758   1.315   2.280   2.646
  577SOL     OW 1759   1.593   2.083   2.744
  577SOL    HW1 1760   1.509   2.082   2.798
  577SOL    HW2 1761   1.595   2.166   2.688
  578SOL     OW 1762   0.039   2.939   2.162
  578SOL    HW1 1763   0.138   2.928   2.153
  578SOL    HW2 1764  -0.001   2.853   2.194
  579SOL     OW 1765   2.092   0.628   0.113
  579SOL    HW1 1766   1.999   0.626   0.150
  579SOL    HW2 1767   2.093   0.589   0.021
  580SOL     OW 1768   2.087   0.275   0.996
  580SOL    HW1 1769   2.122   0.258   1.088
  580SOL    HW2 1770   1.999   0.230   0.984
  581SOL     OW 1771   1.881   0.368   0.647
  581SOL    HW1 1772   1.799   0.411   0.686
  581SOL    HW2 1773   1.853   0.295   0.584
  582SOL     OW 1774   2.431   1.275   1.165
  582SOL    HW1 1775   2.338   1.268   1.128
  582SOL    HW2 1776   2.442   1.364   1.209
  583SOL     OW 1777   2.630   1.144   1.023
  583SOL    HW1 1778   2.552   1.161   1.083
  583SOL    HW2 1779   2.664   1.231   0.987
  584SOL     OW 1780   2.712   0.798   1.823
  584SOL    HW1 1781   2.708   0.874   1.888
  584SOL    HW2 1782   2.734   0.834   1.732
  585SOL     OW 1783   2.547   1.012   0.665
  585SOL    HW1 1784   2.616   0.996   0.735
  585SOL    HW2 1785   2.474   1.069   0.703
  586SOL     OW 1786   2.548   1.161   1.803
  586SOL    HW1 1787   2.608   1.240   1.817
  586SOL    HW2 1788   2.462   1.192   1.762
  587SOL     OW 1789   2.197   1.435   1.061
  587SOL    HW1 1790   2.119   1.404   1.008
  587SOL    HW2 1791   2.255   1.493   1.004
  588SOL     OW 1792   2.300   0.392   1.499
  588SOL    HW1 1793   2.382   0.336   1.508
  588SOL    HW2 1794   2.219   0.334   1.503
  589SOL     OW 1795   2.093   1.713   0.483
  589SOL    HW1 1796   2.127   1.790   0.537
  589SOL    HW2 1797   2.137   1.713   0.393
  590SOL     OW 1798   2.989   1.341   1.690
  590SOL    HW1 1799   3.036   1.341   1.778
  590SOL    HW2 1800   2.941   1.254   1.679
  591SOL     OW 1801   2.092   1.434   0.538
  591SOL    HW1 1802   2.066   1.530   0.538
  591SOL    HW2 1803   2.021   1.380   0.583
  592SOL     OW 1804   2.102   1.091   0.886
  592SOL    HW1 1805   2.116   1.007   0.938
  592SOL    HW2 1806   2.047   1.155   0.941
  593SOL     OW 1807   2.482   1.786   1.439
  593SOL    HW1 1808   2.390   1.769   1.474
  593SOL    HW2 1809   2.510   1.878   1.465
  594SOL     OW 1810   2.468   0.964   0.123
  594SOL    HW1 1811   2.475   1.048   0.069
  594SOL    HW2 1812   2.514   0.977   0.211
  595SOL     OW 1813   1.984   0.643   0.563
  595SOL    HW1 1814   1.939   0.555   0.580
  595SOL    HW2 1815   1.983   0.697   0.647
  596SOL     OW 1816   1.889   1.596   0.117
  596SOL    HW1 1817   1.870   1.500   0.138
  596SOL    HW2 1818   1.856   1.654   0.192
  597SOL     OW 1819   1.975   0.737   1.597
  597SOL    HW1 1820   2.063   0.724   1.642
  597SOL    HW2 1821   1.962   0.834   1.575
  598SOL     OW 1822   2.475   1.365   0.726
  598SOL    HW1 1823   2.426   1.278   0.735
  598SOL    HW2 1824   2.452   1.408   0.639
  599SOL     OW 1825   2.671   0.004   0.502
  599SOL    HW1 1826   2.711   0.095   0.493
  599SOL    HW2 1827   2.571   0.012   0.508
  600SOL     OW 1828   2.059   0.976   1.264
  600SOL    HW1 1829   2.148   0.931   1.250
  600SOL    HW2 1830   1.986   0.911   1.245
  601SOL     OW 1831   2.179   0.251   1.801
  601SOL    HW1 1832   2.250   0.322   1.807
  601SOL    HW2 1833   2.091   0.290   1.829
  602SOL     OW 1834   2.460   0.729   0.270
  602SOL    HW1 1835   2.484   0.798   0.202
  602SOL    HW2 1836   2.382   0.762   0.324
  603SOL     OW 1837   2.669   0.605   1.465
  603SOL    HW1 1838   2.622   0.602   1.554
  603SOL    HW2 1839   2.618   0.550   1.399
  604SOL     OW 1840   2.835   0.890   1.572
  604SOL    HW1 1841   2.881   0.806   1.543
  604SOL    HW2 1842   2.779   0.924   1.497
  605SOL     OW 1843   2.853   0.410   1.242
  605SOL    HW1 1844   2.776   0.444   1.296
  605SOL    HW2 1845   2.819   0.359   1.163
  606SOL     OW 1846   2.903   0.701   0.429
  606SOL    HW1 1847   2.929   0.697   0.525
  606SOL    HW2 1848   2.818   0.650   0.415
  607SOL     OW 1849   1.938   0.811   0.789
  607SOL    HW1 1850   2.037   0.799   0.798
  607SOL    HW2 1851   1.914   0.906   0.810
  608SOL     OW 1852   1.992   1.821   1.571
  608SOL    HW1 1853   1.982   1.806   1.670
  608SOL    HW2 1854   1.906   1.857   1.535
  609SOL     OW 1855   2.727   0.348   0.195
  609SOL    HW1 1856   2.786   0.411   0.146
  609SOL    HW2 1857   2.746   0.254   0.166
  610SOL     OW 1858   2.412   0.196   0.885
  610SOL    HW1 1859   2.407   0.191   0.985
  610SOL    HW2 1860   2.414   0.292   0.856
  611SOL     OW 1861   2.870   1.456   0.477
  611SOL    HW1 1862   2.824   1.528   0.425
  611SOL    HW2 1863   2.866   1.476   0.575
  612SOL     OW 1864   2.213   1.801   0.853
  612SOL    HW1 1865   2.263   1.715   0.859
  612SOL    HW2 1866   2.278   1.878   0.850
  613SOL     OW 1867   3.089   1.550   1.506
  613SOL    HW1 1868   3.095   1.473   1.570
  613SOL    HW2 1869   3.037   1.524   1.426
  614SOL     OW 1870   2.183   0.943   0.242
  614SOL    HW1 1871   2.265   0.982   0.200
  614SOL    HW2 1872   2.156   0.861   0.193
  615SOL     OW 1873   2.323   1.266   1.727
  615SOL    HW1 1874   2.273   1.267   1.641
  615SOL    HW2 1875   2.260   1.248   1.803
  616SOL     OW 1876   2.064   0.285   1.498
  616SOL    HW1 1877   1.984   0.345   1.485
  616SOL    HW2 1878   2.054   0.236   1.584
  617SOL     OW 1879   2.326   1.743   0.323
  617SOL    HW1 1880   2.359   1.782   0.409
  617SOL    HW2 1881   2.402   1.736   0.258
  618SOL     OW 1882   2.111   1.785   1.241
  618SOL    HW1 1883   2.168   1.720   1.291
  618SOL    HW2 1884   2.095   1.752   1.148
  619SOL     OW 1885   2.802   1.698   0.904
  619SOL    HW1 1886   2.882   1.641   0.925
  619SOL    HW2 1887   2.753   1.658   0.827
  620SOL     OW 1888   2.244   0.700   0.480
  620SOL    HW1 1889   2.289   0.610   0.477
  620SOL    HW2 1890   2.150   0.689   0.513
  621SOL     OW 1891   2.476   0.122   0.117
  621SOL    HW1 1892   2.574   0.100   0.124
  621SOL    HW2 1893   2.445   0.105   0.024
  622SOL     OW 1894   2.643   0.264   1.749
  622SOL    HW1 1895   2.710   0.203   1.792
  622SOL    HW2 1896   2.570   0.283   1.814
  623SOL     OW 1897   2.750   1.514   1.195
  623SOL    HW1 1898   2.727   1.489   1.101
  623SOL    HW2 1899   2.811   1.445   1.234
  624SOL     OW 1900   2.665   1.402   0.924
  624SOL    HW1 1901   2.755   1.416   0.882
  624SOL    HW2 1902   2.594   1.404   0.853
  625SOL     OW 1903   2.784   0.503   0.899
  625SOL    HW1 1904   2.759   0.494   0.803
  625SOL    HW2 1905   2.832   0.421   0.930
  626SOL     OW 1906   2.401   0.064   0.512
  626SOL    HW1 1907   2.320   0.065   0.570
  626SOL    HW2 1908   2.404   0.147   0.457
  627SOL     OW 1909   3.296   1.188   0.041
  627SOL    HW1 1910   3.328   1.112   0.098
  627SOL    HW2 1911   3.204   1.215   0.071
  628SOL     OW 1912   2.159   0.035   0.171
  628SOL    HW1 1913   2.208   0.119   0.150
  628SOL    HW2 1914   2.221  -0.030   0.216
  629SOL     OW 1915   2.797   0.236   0.480
  629SOL    HW1 1916   2.749   0.277   0.402
  629SOL    HW2 1917   2.896   0.234   0.461
  630SOL     OW 1918   2.938   0.683   1.464
  630SOL    HW1 1919   2.858   0.622   1.467
  630SOL    HW2 1920   3.019   0.630   1.440
  631SOL     OW 1921   3.089   1.570   0.793
  631SOL    HW1 1922   3.110   1.644   0.728
  631SOL    HW2 1923   3.157   1.570   0.866
  632SOL     OW 1924   2.321   1.152   0.741
  632SOL    HW1 1925   2.250   1.125   0.806
  632SOL    HW2 1926   2.295   1.124   0.648
  633SOL     OW 1927   3.133   1.797   0.591
  633SOL    HW1 1928   3.177   1.861   0.527
  633SOL    HW2 1929   3.083   1.849   0.661
  634SOL     OW 1930   2.894   0.549   0.016
  634SOL    HW1 1931   2.853   0.631  -0.023
  634SOL    HW2 1932   2.958   0.575   0.089
  635SOL     OW 1933   1.940   0.556   1.386
  635SOL    HW1 1934   2.032   0.555   1.345
  635SOL    HW2 1935   1.934   0.630   1.453
  636SOL     OW 1936   2.423   0.222   1.147
  636SOL    HW1 1937   2.461   0.138   1.184
  636SOL    HW2 1938   2.335   0.241   1.191
  637SOL     OW 1939   2.728   0.454   0.642
  637SOL    HW1 1940   2.696   0.526   0.580
  637SOL    HW2 1941   2.752   0.373   0.589
  638SOL     OW 1942   2.879   0.039   0.753
  638SOL    HW1 1943   2.807   0.044   0.684
  638SOL    HW2 1944   2.855  -0.030   0.822
  639SOL     OW 1945   2.350   1.385   0.174
  639SOL    HW1 1946   2.263   1.370   0.221
  639SOL    HW2 1947   2.333   1.411   0.079
  640SOL     OW 1948   2.389   0.256   0.328
  640SOL    HW1 1949   2.416   0.197   0.253
  640SOL    HW2 1950   2.389   0.351   0.297
  641SOL     OW 1951   2.926   1.347   1.340
  641SOL    HW1 1952   2.846   1.324   1.395
  641SOL    HW2 1953   3.009   1.321   1.389
  642SOL     OW 1954   2.973   1.195   1.100
  642SOL    HW1 1955   2.933   1.239   1.181
  642SOL    HW2 1956   2.932   1.232   1.017
  643SOL     OW 1957   2.777   0.089   1.402
  643SOL    HW1 1958   2.802   0.069   1.307
  643SOL    HW2 1959   2.849   0.145   1.444
  644SOL     OW 1960   2.842   1.116   1.719
  644SOL    HW1 1961   2.743   1.122   1.729
  644SOL    HW2 1962   2.865   1.036   1.663
  645SOL     OW 1963   2.567   1.050   0.368
  645SOL    HW1 1964   2.553   1.057   0.467
  645SOL    HW2 1965   2.651   0.999   0.350
  646SOL     OW 1966   2.272   0.813   1.251
  646SOL    HW1 1967   2.358   0.825   1.301
  646SOL    HW2 1968   2.230   0.726   1.278
  647SOL     OW 1969   1.926   1.564   1.331
  647SOL    HW1 1970   1.880   1.646   1.297
  647SOL    HW2 1971   2.024   1.583   1.340
  648SOL     OW 1972   2.229   1.100   0.501
  648SOL    HW1 1973   2.222   1.183   0.445
  648SOL    HW2 1974   2.233   1.020   0.441
  649SOL     OW 1975   2.428   0.537   0.865
  649SOL    HW1 1976   2.440   0.603   0.791
  649SOL    HW2 1977   2.474   0.571   0.948
  650SOL     OW 1978   3.114   1.348   0.388
  650SOL    HW1 1979   3.164   1.425   0.428
  650SOL    HW2 1980   3.019   1.350   0.420
  651SOL     OW 1981   2.216   1.510   1.329
  651SOL    HW1 1982   2.195   1.466   1.242
  651SOL    HW2 1983   2.313   1.536   1.332
  652SOL     OW 1984   2.264   0.751   1.598
  652SOL    HW1 1985   2.332   0.806   1.551
  652SOL    HW2 1986   2.304   0.663   1.625
  653SOL     OW 1987   2.875   0.105   1.770
  653SOL    HW1 1988   2.881   0.190   1.718
  653SOL    HW2 1989   2.907   0.029   1.713
  654SOL     OW 1990   2.366   0.050   1.740
  654SOL    HW1 1991   2.324  -0.007   1.670
  654SOL    HW2 1992   2.300   0.119   1.772
  655SOL     OW 1993   2.435   0.870   1.029
  655SOL    HW1 1994   2.479   0.959   1.020
  655SOL    HW2 1995   2.372   0.870   1.106
  656SOL     OW 1996   3.222   0.862   1.045
  656SOL    HW1 1997   3.147   0.862   0.979
  656SOL    HW2 1998   3.259   0.770   1.054
  657SOL     OW 1999   3.071   0.525   0.275
  657SOL    HW1 2000   3.084   0.441   0.329
  657SOL    HW2 2001   3.042   0.599   0.335
  658SOL     OW 2002   2.169   0.213   1.231
  658SOL    HW1 2003   2.146   0.250   1.321
  658SOL    HW2 2004   2.139   0.118   1.225
  659SOL     OW 2005   1.899   1.310   1.282
  659SOL    HW1 2006   1.952   1.261   1.350
  659SOL    HW2 2007   1.921   1.408   1.287
  660SOL     OW 2008   2.594   0.634   1.064
  660SOL    HW1 2009   2.653   0.608   0.988
  660SOL    HW2 2010   2.566   0.730   1.053
  661SOL     OW 2011   2.169   0.063   0.618
  661SOL    HW1 2012   2.158   0.157   0.651
  661SOL    HW2 2013   2.164   0.000   0.695
  662SOL     OW 2014   2.885   0.766   0.966
  662SOL    HW1 2015   2.900   0.787   1.062
  662SOL    HW2 2016   2.855   0.671   0.957
  663SOL     OW 2017   2.842   1.573   1.700
  663SOL    HW1 2018   2.822   1.617   1.612
  663SOL    HW2 2019   2.881   1.482   1.684
  664SOL     OW 2020   2.212   0.898   1.804
  664SOL    HW1 2021   2.288   0.942   1.852
  664SOL    HW2 2022   2.247   0.851   1.722
  665SOL     OW 2023   2.930   1.333   0.849
  665SOL    HW1 2024   2.937   1.249   0.794
  665SOL    HW2 2025   2.992   1.402   0.813
  666SOL     OW 2026   2.181   0.810   0.949
  666SOL    HW1 2027   2.274   0.846   0.954
  666SOL    HW2 2028   2.175   0.725   1.001
  667SOL     OW 2029   2.201   0.509   1.006
  667SOL    HW1 2030   2.149   0.426   0.989
  667SOL    HW2 2031   2.278   0.514   0.942
  668SOL     OW 2032   3.000   0.380   1.678
  668SOL    HW1 2033   2.955   0.443   1.742
  668SOL    HW2 2034   3.093   0.411   1.661
  669SOL     OW 2035   3.022   0.207   1.477
  669SOL    HW1 2036   3.022   0.271   1.554
  669SOL    HW2 2037   3.050   0.255   1.394
  670SOL     OW 2038   1.870   1.326   0.200
  670SOL    HW1 2039   1.777   1.347   0.169
  670SOL    HW2 2040   1.880   1.227   0.213
  671SOL     OW 2041   1.950   1.801   0.927
  671SOL    HW1 2042   1.908   1.715   0.900
  671SOL    HW2 2043   2.044   1.804   0.893
  672SOL     OW 2044   2.366   1.568   0.910
  672SOL    HW1 2045   2.432   1.642   0.919
  672SOL    HW2 2046   2.410   1.489   0.868
  673SOL     OW 2047   2.864   0.796   1.238
  673SOL    HW1 2048   2.905   0.764   1.324
  673SOL    HW2 2049   2.768   0.769   1.235
  674SOL     OW 2050   1.902   0.544   1.114
  674SOL    HW1 2051   1.987   0.511   1.073
  674SOL    HW2 2052   1.915   0.559   1.212
  675SOL     OW 2053   2.051   0.520   1.722
  675SOL    HW1 2054   2.110   0.480   1.652
  675SOL    HW2 2055   1.993   0.591   1.681
  676SOL     OW 2056   2.677   0.572   0.325
  676SOL    HW1 2057   2.684   0.483   0.279
  676SOL    HW2 2058   2.583   0.606   0.317
  677SOL     OW 2059   2.114   1.564   1.744
  677SOL    HW1 2060   2.084   1.621   1.820
  677SOL    HW2 2061   2.107   1.467   1.770
  678SOL     OW 2062   2.533   0.464   1.269
  678SOL    HW1 2063   2.499   0.375   1.239
  678SOL    HW2 2064   2.559   0.518   1.189
  679SOL     OW 2065   2.792   1.678   1.465
  679SOL    HW1 2066   2.768   1.660   1.370
  679SOL    HW2 2067   2.822   1.772   1.475
  680SOL     OW 2068   2.335   0.500   0.191
  680SOL    HW1 2069   2.396   0.580   0.195
  680SOL    HW2 2070   2.240   0.531   0.198
  681SOL     OW 2071   2.021   1.137   1.466
  681SOL    HW1 2072   2.043   1.076   1.542
  681SOL    HW2 2073   2.031   1.088   1.380
  682SOL     OW 2074   3.164   0.855   0.309
  682SOL    HW1 2075   3.078   0.824   0.351
  682SOL    HW2 2076   3.160   0.841   0.210
  683SOL     OW 2077   3.114   1.731   1.128
  683SOL    HW1 2078   3.198   1.736   1.074
  683SOL    HW2 2079   3.091   1.635   1.146
  684SOL     OW 2080   1.945   1.258   1.022
  684SOL    HW1 2081   1.940   1.257   1.122
  684SOL    HW2 2082   1.862   1.217   0.984
  685SOL     OW 2083   2.550   1.662   1.716
  685SOL    HW1 2084   2.494   1.743   1.725
  685SOL    HW2 2085   2.602   1.666   1.630
  686SOL     OW 2086   2.765   0.086   0.133
  686SOL    HW1 2087   2.816   0.087   0.047
  686SOL    HW2 2088   2.821   0.044   0.204
  687SOL     OW 2089   1.992   1.794   1.851
  687SOL    HW1 2090   1.951   1.720   1.904
  687SOL    HW2 2091   2.056   1.845   1.909
  688SOL     OW 2092   2.692   1.273   1.422
  688SOL    HW1 2093   2.687   1.306   1.517
  688SOL    HW2 2094   2.606   1.292   1.376
  689SOL     OW 2095   2.534   1.616   0.154
  689SOL    HW1 2096   2.543   1.626   0.055
  689SOL    HW2 2097   2.494   1.527   0.175
  690SOL     OW 2098   2.125   0.326   0.720
  690SOL    HW1 2099   2.046   0.377   0.686
  690SOL    HW2 2100   2.116   0.311   0.818
  691SOL     OW 2101   2.684   1.002   1.372
  691SOL    HW1 2102   2.724   1.001   1.280
  691SOL    HW2 2103   2.694   1.094   1.412
  692SOL     OW 2104   2.778   0.910   0.291
  692SOL    HW1 2105   2.841   0.948   0.223
  692SOL    HW2 2106   2.818   0.827   0.330
  693SOL     OW 2107   2.234   1.288   1.490
  693SOL    HW1 2108   2.221   1.381   1.456
  693SOL    HW2 2109   2.150   1.236   1.477
  694SOL     OW 2110   2.901   1.098   0.696
  694SOL    HW1 2111   2.831   1.051   0.750
  694SOL    HW2 2112   2.960   1.030   0.653
  695SOL     OW 2113   2.876   0.236   0.971
  695SOL    HW1 2114   2.868   0.200   0.878
  695SOL    HW2 2115   2.874   0.160   1.036
  696SOL     OW 2116   2.452   1.487   0.491
  696SOL    HW1 2117   2.494   1.429   0.421
  696SOL    HW2 2118   2.408   1.566   0.447
  697SOL     OW 2119   2.117   1.348   0.290
  697SOL    HW1 2120   2.021   1.349   0.263
  697SOL    HW2 2121   2.129   1.401   0.374
  698SOL     OW 2122   1.967   1.013   1.726
  698SOL    HW1 2123   1.890   0.980   1.780
  698SOL    HW2 2124   2.052   0.983   1.768
  699SOL     OW 2125   2.534   0.203   1.489
  699SOL    HW1 2126   2.624   0.187   1.449
  699SOL    HW2 2127   2.542   0.208   1.588
  700SOL     OW 2128   1.934   0.166   0.318
  700SOL    HW1 2129   1.917   0.249   0.264
  700SOL    HW2 2130   2.024   0.129   0.296
  701SOL     OW 2131   2.475   0.842   1.431
  701SOL    HW1 2132   2.531   0.923   1.414
  701SOL    HW2 2133   2.534   0.762   1.434
  702SOL     OW 2134   2.578   0.565   1.708
  702SOL    HW1 2135   2.597   0.630   1.782
  702SOL    HW2 2136   2.638   0.485   1.717
  703SOL     OW 2137   2.252   1.741   1.560
  703SOL    HW1 2138   2.161   1.782   1.558
  703SOL    HW2 2139   2.245   1.647   1.592
  704SOL     OW 2140   2.456   0.745   0.652
  704SOL    HW1 2141   2.506   0.830   0.633
  704SOL    HW2 2142   2.368   0.747   0.604
  705SOL     OW 2143   2.721   1.374   0.016
  705SOL    HW1 2144   2.675   1.389   0.104
  705SOL    HW2 2145   2.765   1.459  -0.014
  706SOL     OW 2146   2.523   1.790   0.953
  706SOL    HW1 2147   2.477   1.878   0.940
  706SOL    HW2 2148   2.622   1.802   0.946
  707SOL     OW 2149   2.721   0.956   0.861
  707SOL    HW1 2150   2.775   0.887   0.909
  707SOL    HW2 2151   2.689   1.025   0.927
  708SOL     OW 2152   2.945   0.984   0.087
  708SOL    HW1 2153   2.922   1.037   0.005
  708SOL    HW2 2154   3.026   0.928   0.068
  709SOL     OW 2155   2.083   1.314   1.844
  709SOL    HW1 2156   2.018   1.241   1.823
  709SOL    HW2 2157   2.087   1.328   1.942
  710SOL     OW 2158   1.941   1.240   0.653
  710SOL    HW1 2159   1.940   1.193   0.741
  710SOL    HW2 2160   2.023   1.212   0.602
  711SOL     OW 2161   2.534   1.391   1.624
  711SOL    HW1 2162   2.456   1.341   1.662
  711SOL    HW2 2163   2.531   1.486   1.655
  712SOL     OW 2164   2.290   0.424   0.520
  712SOL    HW1 2165   2.320   0.352   0.458
  712SOL    HW2 2166   2.251   0.384   0.603
  713SOL     OW 2167   2.179   0.547   1.280
  713SOL    HW1 2168   2.217   0.488   1.352
  713SOL    HW2 2169   2.219   0.521   1.192
  714SOL     OW 2170   2.674   1.586   0.687
  714SOL    HW1 2171   2.706   1.596   0.593
  714SOL    HW2 2172   2.595   1.524   0.689
  715SOL     OW 2173   2.863   0.034   1.154
  715SOL    HW1 2174   2.800  -0.038   1.123
  715SOL    HW2 2175   2.956  -0.002   1.154
  716SOL     OW 2176   2.632   1.330   0.301
  716SOL    HW1 2177   2.586   1.243   0.318
  716SOL    HW2 2178   2.723   1.327   0.342
  717SOL     OW 2179   2.480   1.567   1.284
  717SOL    HW1 2180   2.475   1.649   1.341
  717SOL    HW2 2181   2.569   1.564   1.239
  718SOL     OW 2182   1.901   1.077   0.300
  718SOL    HW1 2183   2.000   1.066   0.291
  718SOL    HW2 2184   1.861   0.991   0.332
  719SOL     OW 2185   2.737   1.646   0.337
  719SOL    HW1 2186   2.660   1.611   0.283
  719SOL    HW2 2187   2.705   1.717   0.399
  720SOL     OW 2188   2.092   0.628   1.975
  720SOL    HW1 2189   1.999   0.626   2.012
  720SOL    HW2 2190   2.093   0.589   1.883
  721SOL     OW 2191   2.087   0.275   2.858
  721SOL    HW1 2192   2.122   0.258   2.950
  721SOL    HW2 2193   1.999   0.230   2.846
  722SOL     OW 2194   1.881   0.368   2.509
  722SOL    HW1 2195   1.799   0.411   2.548
  722SOL    HW2 2196   1.853   0.295   2.446
  723SOL     OW 2197   2.431   1.275   3.027
  723SOL    HW1 2198   2.338   1.268   2.990
  723SOL    HW2 2199   2.442   1.364   3.071
  724SOL     OW 2200   2.630   1.144   2.885
  724SOL    HW1 2201   2.552   1.161   2.945
  724SOL    HW2 2202   2.664   1.231   2.849
  725SOL     OW 2203   2.547   1.012   2.527
  725SOL    HW1 2204   2.616   0.996   2.597
  725SOL    HW2 2205   2.474   1.069   2.565
  726SOL     OW 2206   2.197   1.435   2.923
  726SOL    HW1 2207   2.119   1.404   2.870
  726SOL    HW2 2208   2.255   1.493   2.866
  727SOL     OW 2209   2.093   1.713   2.345
  727SOL    HW1 2210   2.127   1.790   2.399
  727SOL    HW2 2211   2.137   1.713   2.255
  728SOL     OW 2212   2.092   1.434   2.400
  728SOL    HW1 2213   2.066   1.530   2.400
  728SOL    HW2 2214   2.021   1.380   2.445
  729SOL     OW 2215   2.102   1.091   2.748
  729SOL    HW1 2216   2.116   1.007   2.800
  729SOL    HW2 2217   2.047   1.155   2.803
  730SOL     OW 2218   2.468   0.964   1.985
  730SOL    HW1 2219   2.475   1.048   1.931
  730SOL    HW2 2220   2.514   0.977   2.073
  731SOL     OW 2221   1.984   0.643   2.425
  731SOL    HW1 2222   1.939   0.555   2.442
  731SOL    HW2 2223   1.983   0.697   2.509
  732SOL     OW 2224   1.889   1.596   1.979
  732SOL    HW1 2225   1.870   1.500   2.000
  732SOL    HW2 2226   1.856   1.654   2.054
  733SOL     OW 2227   2.475   1.365   2.588
  733SOL    HW1 2228   2.426   1.278   2.597
  733SOL    HW2 2229   2.452   1.408   2.501
  734SOL     OW 2230   2.671   0.004   2.364
  734SOL    HW1 2231   2.711   0.095   2.355
  734SOL    HW2 2232   2.571   0.012   2.370
  735SOL     OW 2233   2.059   0.976   3.126
  735SOL    HW1 2234   2.148   0.931   3.112
  735SOL    HW2 2235   1.986   0.911   3.107
  736SOL     OW 2236   2.460   0.729   2.132
  736SOL    HW1 2237   2.484   0.798   2.064
  736SOL    HW2 2238   2.382   0.762   2.186
  737SOL     OW 2239   2.903   0.701   2.291
  737SOL    HW1 2240   2.929   0.697   2.387
  737SOL    HW2 2241   2.818   0.650   2.277
  738SOL     OW 2242   1.938   0.811   2.651
  738SOL    HW1 2243   2.037   0.799   2.660
  738SOL    HW2 2244   1.914   0.906   2.672
  739SOL     OW 2245   2.727   0.348   2.057
  739SOL    HW1 2246   2.786   0.411   2.008
  739SOL    HW2 2247   2.746   0.254   2.028
  740SOL     OW 2248   2.412   0.196   2.747
  740SOL    HW1 2249   2.407   0.191   2.847
  740SOL    HW2 2250   2.414   0.292   2.718
  741SOL     OW 2251   2.870   1.456   2.339
  741SOL    HW1 2252   2.824   1.528   2.287
  741SOL    HW2 2253   2.866   1.476   2.437
  742SOL     OW 2254   2.213   1.801   2.715
  742SOL    HW1 2255   2.263   1.715   2.721
  742SOL    HW2 2256   2.278   1.878   2.712
  743SOL     OW 2257   2.183   0.943   2.104
  743SOL    HW1 2258   2.265   0.982   2.062
  743SOL    HW2 2259   2.156   0.861   2.055
  744SOL     OW 2260   2.326   1.743   2.185
  744SOL    HW1 2261   2.359   1.782   2.271
  744SOL    HW2 2262   2.402   1.736   2.120
  745SOL     OW 2263   2.111   1.785   3.103
  745SOL    HW1 2264   2.168   1.720   3.153
  745SOL    HW2 2265   2.095   1.752   3.010
  746SOL     OW 2266   2.802   1.698   2.766
  746SOL    HW1 2267   2.882   1.641   2.787
  746SOL    HW2 2268   2.753   1.658   2.689
  747SOL     OW 2269   2.244   0.700   2.342
  747SOL    HW1 2270   2.289   0.610   2.339
  747SOL    HW2 2271   2.150   0.689   2.375
  748SOL     OW 2272   2.476   0.122   1.979
  748SOL    HW1 2273   2.574   0.100   1.986
  748SOL    HW2 2274   2.445   0.105   1.886
  749SOL     OW 2275   2.665   1.402   2.786
  749SOL    HW1 2276   2.755   1.416   2.744
  749SOL    HW2 2277   2.594   1.404   2.715
  750SOL     OW 2278   2.784   0.503   2.761
  750SOL    HW1 2279   2.759   0.494   2.665
  750SOL    HW2 2280   2.832   0.421   2.792
  751SOL     OW 2281   2.401   0.064   2.374
  751SOL    HW1 2282   2.320   0.065   2.432
  751SOL    HW2 2283   2.404   0.147   2.319
  752SOL     OW 2284   2.159   0.035   2.033
  752SOL    HW1 2285   2.208   0.119   2.012
  752SOL    HW2 2286   2.221  -0.030   2.078
  753SOL     OW 2287   2.797   0.236   2.342
  753SOL    HW1 2288   2.749   0.277   2.264
  753SOL    HW2 2289   2.896   0.234   2.323
  754SOL     OW 2290   3.089   1.570   2.655
  754SOL    HW1 2291   3.110   1.644   2.590
  754SOL    HW2 2292   3.157   1.570   2.728
  755SOL     OW 2293   2.321   1.152   2.603
  755SOL    HW1 2294   2.250   1.125   2.668
  755SOL    HW2 2295   2.295   1.124   2.510
  756SOL     OW 2296   3.133   1.797   2.453
  756SOL    HW1 2297   3.177   1.861   2.389
  756SOL    HW2 2298   3.083   1.849   2.523
  757SOL     OW 2299   2.894   0.549   1.878
  757SOL    HW1 2300   2.853   0.631   1.839
  757SOL    HW2 2301   2.958   0.575   1.951
  758SOL     OW 2302   2.728   0.454   2.504
  758SOL    HW1 2303   2.696   0.526   2.442
  758SOL    HW2 2304   2.752   0.373   2.451
  759SOL     OW 2305   2.879   0.039   2.615
  759SOL    HW1 2306   2.807   0.044   2.546
  759SOL    HW2 2307   2.855  -0.030   2.684
  760SOL     OW 2308   2.350   1.385   2.036
  760SOL    HW1 2309   2.263   1.370   2.083
  760SOL    HW2 2310   2.333   1.411   1.941
  761SOL     OW 2311   2.389   0.256   2.190
  761SOL    HW1 2312   2.416   0.197   2.115
  761SOL    HW2 2313   2.389   0.351   2.159
  762SOL     OW 2314   2.973   1.195   2.962
  762SOL    HW1 2315   2.933   1.239   3.043
  762SOL    HW2 2316   2.932   1.232   2.879
  763SOL     OW 2317   2.567   1.050   2.230
  763SOL    HW1 2318   2.553   1.057   2.329
  763SOL    HW2 2319   2.651   0.999   2.212
  764SOL     OW 2320   2.272   0.813   3.113
  764SOL    HW1 2321   2.358   0.825   3.163
  764SOL    HW2 2322   2.230   0.726   3.140
  765SOL     OW 2323   2.229   1.100   2.363
  765SOL    HW1 2324   2.222   1.183   2.307
  765SOL    HW2 2325   2.233   1.020   2.303
  766SOL     OW 2326   2.428   0.537   2.727
  766SOL    HW1 2327   2.440   0.603   2.653
  766SOL    HW2 2328   2.474   0.571   2.810
  767SOL     OW 2329   3.114   1.348   2.250
  767SOL    HW1 2330   3.164   1.425   2.290
  767SOL    HW2 2331   3.019   1.350   2.282
  768SOL     OW 2332   3.134   1.445   3.004
  768SOL    HW1 2333   3.181   1.458   3.091
  768SOL    HW2 2334   3.068   1.371   3.013
  769SOL     OW 2335   2.435   0.870   2.891
  769SOL    HW1 2336   2.479   0.959   2.882
  769SOL    HW2 2337   2.372   0.870   2.968
  770SOL     OW 2338   3.222   0.862   2.907
  770SOL    HW1 2339   3.147   0.862   2.841
  770SOL    HW2 2340   3.259   0.770   2.916
  771SOL     OW 2341   3.071   0.525   2.137
  771SOL    HW1 2342   3.084   0.441   2.191
  771SOL    HW2 2343   3.042   0.599   2.197
  772SOL     OW 2344   2.169   0.213   3.093
  772SOL    HW1 2345   2.146   0.250   3.183
  772SOL    HW2 2346   2.139   0.118   3.087
  773SOL     OW 2347   2.594   0.634   2.926
  773SOL    HW1 2348   2.653   0.608   2.850
  773SOL    HW2 2349   2.566   0.730   2.915
  774SOL     OW 2350   2.169   0.063   2.480
  774SOL    HW1 2351   2.158   0.157   2.513
  774SOL    HW2 2352   2.164   0.000   2.557
  775SOL     OW 2353   2.885   0.766   2.828
  775SOL    HW1 2354   2.900   0.787   2.924
  775SOL    HW2 2355   2.855   0.671   2.819
  776SOL     OW 2356   2.930   1.333   2.711
  776SOL    HW1 2357   2.937   1.249   2.656
  776SOL    HW2 2358   2.992   1.402   2.675
  777SOL     OW 2359   2.181   0.810   2.811
  777SOL    HW1 2360   2.274   0.846   2.816
  777SOL    HW2 2361   2.175   0.725   2.863
  778SOL     OW 2362   2.201   0.509   2.868
  778SOL    HW1 2363   2.149   0.426   2.851
  778SOL    HW2 2364   2.278   0.514   2.804
  779SOL     OW 2365   1.950   1.801   2.789
  779SOL    HW1 2366   1.908   1.715   2.762
  779SOL    HW2 2367   2.044   1.804   2.755
  780SOL     OW 2368   2.366   1.568   2.772
  780SOL    HW1 2369   2.432   1.642   2.781
  780SOL    HW2 2370   2.410   1.489   2.730
  781SOL     OW 2371   2.864   0.796   3.100
  781SOL    HW1 2372   2.905   0.764   3.186
  781SOL    HW2 2373   2.768   0.769   3.097
  782SOL     OW 2374   1.902   0.544   2.976
  782SOL    HW1 2375   1.987   0.511   2.935
  782SOL    HW2 2376   1.915   0.559   3.074
  783SOL     OW 2377   2.677   0.572   2.187
  783SOL    HW1 2378   2.684   0.483   2.141
  783SOL    HW2 2379   2.583   0.606   2.179
  784SOL     OW 2380   2.533   0.464   3.131
  784SOL    HW1 2381   2.499   0.375   3.101
  784SOL    HW2 2382   2.559   0.518   3.051
  785SOL     OW 2383   2.335   0.500   2.053
  785SOL    HW1 2384   2.396   0.580   2.057
  785SOL    HW2 2385   2.240   0.531   2.060
  786SOL     OW 2386   3.164   0.855   2.171
  786SOL    HW1 2387   3.078   0.824   2.213
  786SOL    HW2 2388   3.160   0.841   2.072
  787SOL     OW 2389   3.114   1.731   2.990
  787SOL    HW1 2390   3.198   1.736   2.936
  787SOL    HW2 2391   3.091   1.635   3.008
  788SOL     OW 2392   1.945   1.258   2.884
  788SOL    HW1 2393   1.940   1.257   2.984
  788SOL    HW2 2394   1.862   1.217   2.846
  789SOL     OW 2395   2.534   1.616   2.016
  789SOL    HW1 2396   2.543   1.626   1.917
  789SOL    HW2 2397   2.494   1.527   2.037
  790SOL     OW 2398   2.125   0.326   2.582
  790SOL    HW1 2399   2.046   0.377   2.548
  790SOL    HW2 2400   2.116   0.311   2.680
  791SOL     OW 2401   2.684   1.002   3.234
  791SOL    HW1 2402   2.724   1.001   3.142
  791SOL    HW2 2403   2.694   1.094   3.274
  792SOL     OW 2404   2.778   0.910   2.153
  792SOL    HW1 2405   2.841   0.948   2.085
  792SOL    HW2 2406   2.818   0.827   2.192
  793SOL     OW 2407   2.901   1.098   2.558
  793SOL    HW1 2408   2.831   1.051   2.612
  793SOL    HW2 2409   2.960   1.030   2.515
  794SOL     OW 2410   2.876   0.236   2.833
  794SOL    HW1 2411   2.868   0.200   2.740
  794SOL    HW2 2412   2.874   0.160   2.898
  795SOL     OW 2413   2.452   1.487   2.353
  795SOL    HW1 2414   2.494   1.429   2.283
  795SOL    HW2 2415   2.408   1.566   2.309
  796SOL     OW 2416   2.117   1.348   2.152
  796SOL    HW1 2417   2.021   1.349   2.125
  796SOL    HW2 2418   2.129   1.401   2.236
  797SOL     OW 2419   1.937   0.345   1.895
  797SOL    HW1 2420   1.845   0.317   1.866
  797SOL    HW2 2421   1.968   0.422   1.839
  798SOL     OW 2422   1.934   0.166   2.180
  798SOL    HW1 2423   1.917   0.249   2.126
  798SOL    HW2 2424   2.024   0.129   2.158
  799SOL     OW 2425   2.456   0.745   2.514
  799SOL    HW1 2426   2.506   0.830   2.495
  799SOL    HW2 2427   2.368   0.747   2.466
  800SOL     OW 2428   2.721   1.374   1.878
  800SOL    HW1 2429   2.675   1.389   1.966
  800SOL    HW2 2430   2.765   1.459   1.848
  801SOL     OW 2431   2.523   1.790   2.815
  801SOL    HW1 2432   2.477   1.878   2.802
  801SOL    HW2 2433   2.622   1.802   2.808
  802SOL     OW 2434   2.721   0.956   2.723
  802SOL    HW1 2435   2.775   0.887   2.771
  802SOL    HW2 2436   2.689   1.025   2.789
  803SOL     OW 2437   2.945   0.984   1.949
  803SOL    HW1 2438   2.922   1.037   1.867
  803SOL    HW2 2439   3.026   0.928   1.930
  804SOL     OW 2440   1.941   1.240   2.515
  804SOL    HW1 2441   1.940   1.193   2.603
  804SOL    HW2 2442   2.023   1.212   2.464
  805SOL     OW 2443   2.290   0.424   2.382
  805SOL    HW1 2444   2.320   0.352   2.320
  805SOL    HW2 2445   2.251   0.384   2.465
  806SOL     OW 2446   2.674   1.586   2.549
  806SOL    HW1 2447   2.706   1.596   2.455
  806SOL    HW2 2448   2.595   1.524   2.551
  807SOL     OW 2449   2.632   1.330   2.163
  807SOL    HW1 2450   2.586   1.243   2.180
  807SOL    HW2 2451   2.723   1.327   2.204
  808SOL     OW 2452   1.901   1.077   2.162
  808SOL    HW1 2453   2.000   1.066   2.153
  808SOL    HW2 2454   1.861   0.991   2.194
  809SOL     OW 2455   2.737   1.646   2.199
  809SOL    HW1 2456   2.660   1.611   2.145
  809SOL    HW2 2457   2.705   1.717   2.261
  810SOL     OW 2458   2.092   2.490   0.113
  810SOL    HW1 2459   1.999   2.488   0.150
  810SOL    HW2 2460   2.093   2.451   0.021
  811SOL     OW 2461   2.087   2.137   0.996
  811SOL    HW1 2462   2.122   2.120   1.088
  811SOL    HW2 2463   1.999   2.092   0.984
  812SOL     OW 2464   1.881   2.230   0.647
  812SOL    HW1 2465   1.799   2.273   0.686
  812SOL    HW2 2466   1.853   2.157   0.584
  813SOL     OW 2467   2.630   3.006   1.023
  813SOL    HW1 2468   2.552   3.023   1.083
  813SOL    HW2 2469   2.664   3.093   0.987
  814SOL     OW 2470   2.712   2.660   1.823
  814SOL    HW1 2471   2.708   2.736   1.888
  814SOL    HW2 2472   2.734   2.696   1.732
  815SOL     OW 2473   2.547   2.874   0.665
  815SOL    HW1 2474   2.616   2.858   0.735
  815SOL    HW2 2475   2.474   2.931   0.703
  816SOL     OW 2476   2.300   2.254   1.499
  816SOL    HW1 2477   2.382   2.198   1.508
  816SOL    HW2 2478   2.219   2.196   1.503
  817SOL     OW 2479   2.102   2.953   0.886
  817SOL    HW1 2480   2.116   2.869   0.938
  817SOL    HW2 2481   2.047   3.017   0.941
  818SOL     OW 2482   2.468   2.826   0.123
  818SOL    HW1 2483   2.475   2.910   0.069
  818SOL    HW2 2484   2.514   2.839   0.211
  819SOL     OW 2485   1.984   2.505   0.563
  819SOL    HW1 2486   1.939   2.417   0.580
  819SOL    HW2 2487   1.983   2.559   0.647
  820SOL     OW 2488   1.975   2.599   1.597
  820SOL    HW1 2489   2.063   2.586   1.642
  820SOL    HW2 2490   1.962   2.696   1.575
  821SOL     OW 2491   2.475   3.227   0.726
  821SOL    HW1 2492   2.426   3.140   0.735
  821SOL    HW2 2493   2.452   3.270   0.639
  822SOL     OW 2494   2.671   1.866   0.502
  822SOL    HW1 2495   2.711   1.957   0.493
  822SOL    HW2 2496   2.571   1.874   0.508
  823SOL     OW 2497   2.059   2.838   1.264
  823SOL    HW1 2498   2.148   2.793   1.250
  823SOL    HW2 2499   1.986   2.773   1.245
  824SOL     OW 2500   2.179   2.113   1.801
  824SOL    HW1 2501   2.250   2.184   1.807
  824SOL    HW2 2502   2.091   2.152   1.829
  825SOL     OW 2503   2.460   2.591   0.270
  825SOL    HW1 2504   2.484   2.660   0.202
  825SOL    HW2 2505   2.382   2.624   0.324
  826SOL     OW 2506   2.669   2.467   1.465
  826SOL    HW1 2507   2.622   2.464   1.554
  826SOL    HW2 2508   2.618   2.412   1.399
  827SOL     OW 2509   2.835   2.752   1.572
  827SOL    HW1 2510   2.881   2.668   1.543
  827SOL    HW2 2511   2.779   2.786   1.497
  828SOL     OW 2512   2.853   2.272   1.242
  828SOL    HW1 2513   2.776   2.306   1.296
  828SOL    HW2 2514   2.819   2.221   1.163
  829SOL     OW 2515   2.903   2.563   0.429
  829SOL    HW1 2516   2.929   2.559   0.525
  829SOL    HW2 2517   2.818   2.512   0.415
  830SOL     OW 2518   1.938   2.673   0.789
  830SOL    HW1 2519   2.037   2.661   0.798
  830SOL    HW2 2520   1.914   2.768   0.810
  831SOL     OW 2521   2.727   2.210   0.195
  831SOL    HW1 2522   2.786   2.273   0.146
  831SOL    HW2 2523   2.746   2.116   0.166
  832SOL     OW 2524   2.412   2.058   0.885
  832SOL    HW1 2525   2.407   2.053   0.985
  832SOL    HW2 2526   2.414   2.154   0.856
  833SOL     OW 2527   2.183   2.805   0.242
  833SOL    HW1 2528   2.265   2.844   0.200
  833SOL    HW2 2529   2.156   2.723   0.193
  834SOL     OW 2530   2.064   2.147   1.498
  834SOL    HW1 2531   1.984   2.207   1.485
  834SOL    HW2 2532   2.054   2.098   1.584
  835SOL     OW 2533   2.244   2.562   0.480
  835SOL    HW1 2534   2.289   2.472   0.477
  835SOL    HW2 2535   2.150   2.551   0.513
  836SOL     OW 2536   2.476   1.984   0.117
  836SOL    HW1 2537   2.574   1.962   0.124
  836SOL    HW2 2538   2.445   1.967   0.024
  837SOL     OW 2539   2.643   2.126   1.749
  837SOL    HW1 2540   2.710   2.065   1.792
  837SOL    HW2 2541   2.570   2.145   1.814
  838SOL     OW 2542   2.784   2.365   0.899
  838SOL    HW1 2543   2.759   2.356   0.803
  838SOL    HW2 2544   2.832   2.283   0.930
  839SOL     OW 2545   2.401   1.926   0.512
  839SOL    HW1 2546   2.320   1.927   0.570
  839SOL    HW2 2547   2.404   2.009   0.457
  840SOL     OW 2548   2.159   1.897   0.171
  840SOL    HW1 2549   2.208   1.981   0.150
  840SOL    HW2 2550   2.221   1.832   0.216
  841SOL     OW 2551   2.797   2.098   0.480
  841SOL    HW1 2552   2.749   2.139   0.402
  841SOL    HW2 2553   2.896   2.096   0.461
  842SOL     OW 2554   2.938   2.545   1.464
  842SOL    HW1 2555   2.858   2.484   1.467
  842SOL    HW2 2556   3.019   2.492   1.440
  843SOL     OW 2557   2.321   3.014   0.741
  843SOL    HW1 2558   2.250   2.987   0.806
  843SOL    HW2 2559   2.295   2.986   0.648
  844SOL     OW 2560   2.894   2.411   0.016
  844SOL    HW1 2561   2.853   2.493  -0.023
  844SOL    HW2 2562   2.958   2.437   0.089
  845SOL     OW 2563   1.940   2.418   1.386
  845SOL    HW1 2564   2.032   2.417   1.345
  845SOL    HW2 2565   1.934   2.492   1.453
  846SOL     OW 2566   2.423   2.084   1.147
  846SOL    HW1 2567   2.461   2.000   1.184
  846SOL    HW2 2568   2.335   2.103   1.191
  847SOL     OW 2569   2.728   2.316   0.642
  847SOL    HW1 2570   2.696   2.388   0.580
  847SOL    HW2 2571   2.752   2.235   0.589
  848SOL     OW 2572   2.879   1.901   0.753
  848SOL    HW1 2573   2.807   1.906   0.684
  848SOL    HW2 2574   2.855   1.832   0.822
  849SOL     OW 2575   2.389   2.118   0.328
  849SOL    HW1 2576   2.416   2.059   0.253
  849SOL    HW2 2577   2.389   2.213   0.297
  850SOL     OW 2578   2.777   1.951   1.402
  850SOL    HW1 2579   2.802   1.931   1.307
  850SOL    HW2 2580   2.849   2.007   1.444
  851SOL     OW 2581   2.842   2.978   1.719
  851SOL    HW1 2582   2.743   2.984   1.729
  851SOL    HW2 2583   2.865   2.898   1.663
  852SOL     OW 2584   2.567   2.912   0.368
  852SOL    HW1 2585   2.553   2.919   0.467
  852SOL    HW2 2586   2.651   2.861   0.350
  853SOL     OW 2587   2.272   2.675   1.251
  853SOL    HW1 2588   2.358   2.687   1.301
  853SOL    HW2 2589   2.230   2.588   1.278
  854SOL     OW 2590   2.229   2.962   0.501
  854SOL    HW1 2591   2.222   3.045   0.445
  854SOL    HW2 2592   2.233   2.882   0.441
  855SOL     OW 2593   2.428   2.399   0.865
  855SOL    HW1 2594   2.440   2.465   0.791
  855SOL    HW2 2595   2.474   2.433   0.948
  856SOL     OW 2596   2.264   2.613   1.598
  856SOL    HW1 2597   2.332   2.668   1.551
  856SOL    HW2 2598   2.304   2.525   1.625
  857SOL     OW 2599   2.875   1.967   1.770
  857SOL    HW1 2600   2.881   2.052   1.718
  857SOL    HW2 2601   2.907   1.891   1.713
  858SOL     OW 2602   2.366   1.912   1.740
  858SOL    HW1 2603   2.324   1.855   1.670
  858SOL    HW2 2604   2.300   1.981   1.772
  859SOL     OW 2605   2.435   2.732   1.029
  859SOL    HW1 2606   2.479   2.821   1.020
  859SOL    HW2 2607   2.372   2.732   1.106
  860SOL     OW 2608   3.222   2.724   1.045
  860SOL    HW1 2609   3.147   2.724   0.979
  860SOL    HW2 2610   3.259   2.632   1.054
  861SOL     OW 2611   3.071   2.387   0.275
  861SOL    HW1 2612   3.084   2.303   0.329
  861SOL    HW2 2613   3.042   2.461   0.335
  862SOL     OW 2614   2.169   2.075   1.231
  862SOL    HW1 2615   2.146   2.112   1.321
  862SOL    HW2 2616   2.139   1.980   1.225
  863SOL     OW 2617   2.594   2.496   1.064
  863SOL    HW1 2618   2.653   2.470   0.988
  863SOL    HW2 2619   2.566   2.592   1.053
  864SOL     OW 2620   2.169   1.925   0.618
  864SOL    HW1 2621   2.158   2.019   0.651
  864SOL    HW2 2622   2.164   1.862   0.695
  865SOL     OW 2623   2.885   2.628   0.966
  865SOL    HW1 2624   2.900   2.649   1.062
  865SOL    HW2 2625   2.855   2.533   0.957
  866SOL     OW 2626   2.212   2.760   1.804
  866SOL    HW1 2627   2.288   2.804   1.852
  866SOL    HW2 2628   2.247   2.713   1.722
  867SOL     OW 2629   2.181   2.672   0.949
  867SOL    HW1 2630   2.274   2.708   0.954
  867SOL    HW2 2631   2.175   2.587   1.001
  868SOL     OW 2632   2.201   2.371   1.006
  868SOL    HW1 2633   2.149   2.288   0.989
  868SOL    HW2 2634   2.278   2.376   0.942
  869SOL     OW 2635   3.000   2.242   1.678
  869SOL    HW1 2636   2.955   2.305   1.742
  869SOL    HW2 2637   3.093   2.273   1.661
  870SOL     OW 2638   3.022   2.069   1.477
  870SOL    HW1 2639   3.022   2.133   1.554
  870SOL    HW2 2640   3.050   2.117   1.394
  871SOL     OW 2641   2.864   2.658   1.238
  871SOL    HW1 2642   2.905   2.626   1.324
  871SOL    HW2 2643   2.768   2.631   1.235
  872SOL     OW 2644   1.902   2.406   1.114
  872SOL    HW1 2645   1.987   2.373   1.073
  872SOL    HW2 2646   1.915   2.421   1.212
  873SOL     OW 2647   2.051   2.382   1.722
  873SOL    HW1 2648   2.110   2.342   1.652
  873SOL    HW2 2649   1.993   2.453   1.681
  874SOL     OW 2650   2.677   2.434   0.325
  874SOL    HW1 2651   2.684   2.345   0.279
  874SOL    HW2 2652   2.583   2.468   0.317
  875SOL     OW 2653   2.533   2.326   1.269
  875SOL    HW1 2654   2.499   2.237   1.239
  875SOL    HW2 2655   2.559   2.380   1.189
  876SOL     OW 2656   2.335   2.362   0.191
  876SOL    HW1 2657   2.396   2.442   0.195
  876SOL    HW2 2658   2.240   2.393   0.198
  877SOL     OW 2659   2.021   2.999   1.466
  877SOL    HW1 2660   2.043   2.938   1.542
  877SOL    HW2 2661   2.031   2.950   1.380
  878SOL     OW 2662   3.164   2.717   0.309
  878SOL    HW1 2663   3.078   2.686   0.351
  878SOL    HW2 2664   3.160   2.703   0.210
  879SOL     OW 2665   2.765   1.948   0.133
  879SOL    HW1 2666   2.816   1.949   0.047
  879SOL    HW2 2667   2.821   1.906   0.204
  880SOL     OW 2668   2.125   2.188   0.720
  880SOL    HW1 2669   2.046   2.239   0.686
  880SOL    HW2 2670   2.116   2.173   0.818
  881SOL     OW 2671   2.684   2.864   1.372
  881SOL    HW1 2672   2.724   2.863   1.280
  881SOL    HW2 2673   2.694   2.956   1.412
  882SOL     OW 2674   2.778   2.772   0.291
  882SOL    HW1 2675   2.841   2.810   0.223
  882SOL    HW2 2676   2.818   2.689   0.330
  883SOL     OW 2677   2.234   3.150   1.490
  883SOL    HW1 2678   2.221   3.243   1.456
  883SOL    HW2 2679   2.150   3.098   1.477
  884SOL     OW 2680   2.901   2.960   0.696
  884SOL    HW1 2681   2.831   2.913   0.750
  884SOL    HW2 2682   2.960   2.892   0.653
  885SOL     OW 2683   2.876   2.098   0.971
  885SOL    HW1 2684   2.868   2.062   0.878
  885SOL    HW2 2685   2.874   2.022   1.036
  886SOL     OW 2686   1.967   2.875   1.726
  886SOL    HW1 2687   1.890   2.842   1.780
  886SOL    HW2 2688   2.052   2.845   1.768
  887SOL     OW 2689   2.534   2.065   1.489
  887SOL    HW1 2690   2.624   2.049   1.449
  887SOL    HW2 2691   2.542   2.070   1.588
  888SOL     OW 2692   1.934   2.028   0.318
  888SOL    HW1 2693   1.917   2.111   0.264
  888SOL    HW2 2694   2.024   1.991   0.296
  889SOL     OW 2695   2.475   2.704   1.431
  889SOL    HW1 2696   2.531   2.785   1.414
  889SOL    HW2 2697   2.534   2.624   1.434
  890SOL     OW 2698   2.578   2.427   1.708
  890SOL    HW1 2699   2.597   2.492   1.782
  890SOL    HW2 2700   2.638   2.347   1.717
  891SOL     OW 2701   2.456   2.607   0.652
  891SOL    HW1 2702   2.506   2.692   0.633
  891SOL    HW2 2703   2.368   2.609   0.604
  892SOL     OW 2704   2.721   2.818   0.861
  892SOL    HW1 2705   2.775   2.749   0.909
  892SOL    HW2 2706   2.689   2.887   0.927
  893SOL     OW 2707   2.945   2.846   0.087
  893SOL    HW1 2708   2.922   2.899   0.005
  893SOL    HW2 2709   3.026   2.790   0.068
  894SOL     OW 2710   1.941   3.102   0.653
  894SOL    HW1 2711   1.940   3.055   0.741
  894SOL    HW2 2712   2.023   3.074   0.602
  895SOL     OW 2713   2.290   2.286   0.520
  895SOL    HW1 2714   2.320   2.214   0.458
  895SOL    HW2 2715   2.251   2.246   0.603
  896SOL     OW 2716   2.179   2.409   1.280
  896SOL    HW1 2717   2.217   2.350   1.352
  896SOL    HW2 2718   2.219   2.383   1.192
  897SOL     OW 2719   2.863   1.896   1.154
  897SOL    HW1 2720   2.800   1.824   1.123
  897SOL    HW2 2721   2.956   1.860   1.154
  898SOL     OW 2722   2.632   3.192   0.301
  898SOL    HW1 2723   2.586   3.105   0.318
  898SOL    HW2 2724   2.723   3.189   0.342
  899SOL     OW 2725   2.092   2.490   1.975
  899SOL    HW1 2726   1.999   2.488   2.012
  899SOL    HW2 2727   2.093   2.451   1.883
  900SOL     OW 2728   2.087   2.137   2.858
  900SOL    HW1 2729   2.122   2.120   2.950
  900SOL    HW2 2730   1.999   2.092   2.846
  901SOL     OW 2731   1.881   2.230   2.509
  901SOL    HW1 2732   1.799   2.273   2.548
  901SOL    HW2 2733   1.853   2.157   2.446
  902SOL     OW 2734   2.630   3.006   2.885
  902SOL    HW1 2735   2.552   3.023   2.945
  902SOL    HW2 2736   2.664   3.093   2.849
  903SOL     OW 2737   2.547   2.874   2.527
  903SOL    HW1 2738   2.616   2.858   2.597
  903SOL    HW2 2739   2.474   2.931   2.565
  904SOL     OW 2740   2.102   2.953   2.748
  904SOL    HW1 2741   2.116   2.869   2.800
  904SOL    HW2 2742   2.047   3.017   2.803
  905SOL     OW 2743   2.468   2.826   1.985
  905SOL    HW1 2744   2.475   2.910   1.931
  905SOL    HW2 2745   2.514   2.839   2.073
  906SOL     OW 2746   1.984   2.505   2.425
  906SOL    HW1 2747   1.939   2.417   2.442
  906SOL    HW2 2748   1.983   2.559   2.509
  907SOL     OW 2749   2.475   3.227   2.588
  907SOL    HW1 2750   2.426   3.140   2.597
  907SOL    HW2 2751   2.452   3.270   2.501
  908SOL     OW 2752   2.671   1.866   2.364
  908SOL    HW1 2753   2.711   1.957   2.355
  908SOL    HW2 2754   2.571   1.874   2.370
  909SOL     OW 2755   2.059   2.838   3.126
  909SOL    HW1 2756   2.148   2.793   3.112
  909SOL    HW2 2757   1.986   2.773   3.107
  910SOL     OW 2758   2.460   2.591   2.132
  910SOL    HW1 2759   2.484   2.660   2.064
  910SOL    HW2 2760   2.382   2.624   2.186
  911SOL     OW 2761   2.903   2.563   2.291
  911SOL    HW1 2762   2.929   2.559   2.387
  911SOL    HW2 2763   2.818   2.512   2.277
  912SOL     OW 2764   1.938   2.673   2.651
  912SOL    HW1 2765   2.037   2.661   2.660
  912SOL    HW2 2766   1.914   2.768   2.672
  913SOL     OW 2767   2.727   2.210   2.057
  913SOL    HW1 2768   2.786   2.273   2.008
  913SOL    HW2 2769   2.746   2.116   2.028
  914SOL     OW 2770   2.412   2.058   2.747
  914SOL    HW1 2771   2.407   2.053   2.847
  914SOL    HW2 2772   2.414   2.154   2.718
  915SOL     OW 2773   2.183   2.805   2.104
  915SOL    HW1 2774   2.265   2.844   2.062
  915SOL    HW2 2775   2.156   2.723   2.055
  916SOL     OW 2776   2.244   2.562   2.342
  916SOL    HW1 2777   2.289   2.472   2.339
  916SOL    HW2 2778   2.150   2.551   2.375
  917SOL     OW 2779   2.476   1.984   1.979
  917SOL    HW1 2780   2.574   1.962   1.986
  917SOL    HW2 2781   2.445   1.967   1.886
  918SOL     OW 2782   2.784   2.365   2.761
  918SOL    HW1 2783   2.759   2.356   2.665
  918SOL    HW2 2784   2.832   2.283   2.792
  919SOL     OW 2785   2.401   1.926   2.374
  919SOL    HW1 2786   2.320   1.927   2.432
  919SOL    HW2 2787   2.404   2.009   2.319
  920SOL     OW 2788   3.296   3.050   1.903
  920SOL    HW1 2789   3.328   2.974   1.960
  920SOL    HW2 2790   3.204   3.077   1.933
  921SOL     OW 2791   2.159   1.897   2.033
  921SOL    HW1 2792   2.208   1.981   2.012
  921SOL    HW2 2793   2.221   1.832   2.078
  922SOL     OW 2794   2.797   2.098   2.342
  922SOL    HW1 2795   2.749   2.139   2.264
  922SOL    HW2 2796   2.896   2.096   2.323
  923SOL     OW 2797   2.321   3.014   2.603
  923SOL    HW1 2798   2.250   2.987   2.668
  923SOL    HW2 2799   2.295   2.986   2.510
  924SOL     OW 2800   2.894   2.411   1.878
  924SOL    HW1 2801   2.853   2.493   1.839
  924SOL    HW2 2802   2.958   2.437   1.951
  925SOL     OW 2803   2.728   2.316   2.504
  925SOL    HW1 2804   2.696   2.388   2.442
  925SOL    HW2 2805   2.752   2.235   2.451
  926SOL     OW 2806   2.879   1.901   2.615
  926SOL    HW1 2807   2.807   1.906   2.546
  926SOL    HW2 2808   2.855   1.832   2.684
  927SOL     OW 2809   2.389   2.118   2.190
  927SOL    HW1 2810   2.416   2.059   2.115
  927SOL    HW2 2811   2.389   2.213   2.159
  928SOL     OW 2812   2.973   3.057   2.962
  928SOL    HW1 2813   2.933   3.101   3.043
  928SOL    HW2 2814   2.932   3.094   2.879
  929SOL     OW 2815   2.567   2.912   2.230
  929SOL    HW1 2816   2.553   2.919   2.329
  929SOL    HW2 2817   2.651   2.861   2.212
  930SOL     OW 2818   2.272   2.675   3.113
  930SOL    HW1 2819   2.358   2.687   3.163
  930SOL    HW2 2820   2.230   2.588   3.140
  931SOL     OW 2821   2.229   2.962   2.363
  931SOL    HW1 2822   2.222   3.045   2.307
  931SOL    HW2 2823   2.233   2.882   2.303
  932SOL     OW 2824   2.428   2.399   2.727
  932SOL    HW1 2825   2.440   2.465   2.653
  932SOL    HW2 2826   2.474   2.433   2.810
  933SOL     OW 2827   2.435   2.732   2.891
  933SOL    HW1 2828   2.479   2.821   2.882
  933SOL    HW2 2829   2.372   2.732   2.968
  934SOL     OW 2830   3.222   2.724   2.907
  934SOL    HW1 2831   3.147   2.724   2.841
  934SOL    HW2 2832   3.259   2.632   2.916
  935SOL     OW 2833   3.071   2.387   2.137
  935SOL    HW1 2834   3.084   2.303   2.191
  935SOL    HW2 2835   3.042   2.461   2.197
  936SOL     OW 2836   2.169   2.075   3.093
  936SOL    HW1 2837   2.146   2.112   3.183
  936SOL    HW2 2838   2.139   1.980   3.087
  937SOL     OW 2839   2.594   2.496   2.926
  937SOL    HW1 2840   2.653   2.470   2.850
  937SOL    HW2 2841   2.566   2.592   2.915
  938SOL     OW 2842   2.169   1.925   2.480
  938SOL    HW1 2843   2.158   2.019   2.513
  938SOL    HW2 2844   2.164   1.862   2.557
  939SOL     OW 2845   2.885   2.628   2.828
  939SOL    HW1 2846   2.900   2.649   2.924
  939SOL    HW2 2847   2.855   2.533   2.819
  940SOL     OW 2848   2.181   2.672   2.811
  940SOL    HW1 2849   2.274   2.708   2.816
  940SOL    HW2 2850   2.175   2.587   2.863
  941SOL     OW 2851   2.201   2.371   2.868
  941SOL    HW1 2852   2.149   2.288   2.851
  941SOL    HW2 2853   2.278   2.376   2.804
  942SOL     OW 2854   2.864   2.658   3.100
  942SOL    HW1 2855   2.905   2.626   3.186
  942SOL    HW2 2856   2.768   2.631   3.097
  943SOL     OW 2857   1.902   2.406   2.976
  943SOL    HW1 2858   1.987   2.373   2.935
  943SOL    HW2 2859   1.915   2.421   3.074
  944SOL     OW 2860   2.677   2.434   2.187
  944SOL    HW1 2861   2.684   2.345   2.141
  944SOL    HW2 2862   2.583   2.468   2.179
  945SOL     OW 2863   2.533   2.326   3.131
  945SOL    HW1 2864   2.499   2.237   3.101
  945SOL    HW2 2865   2.559   2.380   3.051
  946SOL     OW 2866   2.335   2.362   2.053
  946SOL    HW1 2867   2.396   2.442   2.057
  946SOL    HW2 2868   2.240   2.393   2.060
  947SOL     OW 2869   2.021   2.999   3.328
  947SOL    HW1 2870   2.043   2.938   3.404
  947SOL    HW2 2871   2.031   2.950   3.242
  948SOL     OW 2872   3.164   2.717   2.171
  948SOL    HW1 2873   3.078   2.686   2.213
  948SOL    HW2 2874   3.160   2.703   2.072
  949SOL     OW 2875   2.125   2.188   2.582
  949SOL    HW1 2876   2.046   2.239   2.548
  949SOL    HW2 2877   2.116   2.173   2.680
  950SOL     OW 2878   2.684   2.864   3.234
  950SOL    HW1 2879   2.724   2.863   3.142
  950SOL    HW2 2880   2.694   2.956   3.274
  951SOL     OW 2881   2.778   2.772   2.153
  951SOL    HW1 2882   2.841   2.810   2.085
  951SOL    HW2 2883   2.818   2.689   2.192
  952SOL     OW 2884   2.901   2.960   2.558
  952SOL    HW1 2885   2.831   2.913   2.612
  952SOL    HW2 2886   2.960   2.892   2.515
  953SOL     OW 2887   2.876   2.098   2.833
  953SOL    HW1 2888   2.868   2.062   2.740
  953SOL    HW2 2889   2.874   2.022   2.898
  954SOL     OW 2890   1.937   2.207   1.895
  954SOL    HW1 2891   1.845   2.179   1.866
  954SOL    HW2 2892   1.968   2.284   1.839
  955SOL     OW 2893   1.934   2.028   2.180
  955SOL    HW1 2894   1.917   2.111   2.126
  955SOL    HW2 2895   2.024   1.991   2.158
  956SOL     OW 2896   2.456   2.607   2.514
  956SOL    HW1 2897   2.506   2.692   2.495
  956SOL    HW2 2898   2.368   2.609   2.466
  957SOL     OW 2899   2.721   2.818   2.723
  957SOL    HW1 2900   2.775   2.749   2.771
  957SOL    HW2 2901   2.689   2.887   2.789
  958SOL     OW 2902   2.945   2.846   1.949
  958SOL    HW1 2903   2.922   2.899   1.867
  958SOL    HW2 2904   3.026   2.790   1.930
  959SOL     OW 2905   1.941   3.102   2.515
  959SOL    HW1 2906   1.940   3.055   2.603
  959SOL    HW2 2907   2.023   3.074   2.464
  960SOL     OW 2908   2.290   2.286   2.382
  960SOL    HW1 2909   2.320   2.214   2.320
  960SOL    HW2 2910   2.251   2.246   2.465
  961SOL     OW 2911   2.632   3.192   2.163
  961SOL    HW1 2912   2.586   3.105   2.180
  961SOL    HW2 2913   2.723   3.189   2.204
  962SOL     OW 2914   1.901   2.939   2.162
  962SOL    HW1 2915   2.000   2.928   2.153
  962SOL    HW2 2916   1.861   2.853   2.194
   3.09172   3.09172   3.09172
