; mobley_5052949_GMX.itp created by acpype (v: 2023.10.27) on Thu May 14 13:46:06 2026

[ atomtypes ]
;name   bond_type     mass     charge   ptype   sigma         epsilon       Amb
 c3       c3          0.00000  0.00000   A     3.39771e-01   4.51035e-01 ; 1.91  0.1078
 ss       ss          0.00000  0.00000   A     3.53241e-01   1.18156e+00 ; 1.98  0.2824
 hc       hc          0.00000  0.00000   A     2.60018e-01   8.70272e-02 ; 1.46  0.0208
 h1       h1          0.00000  0.00000   A     2.42200e-01   8.70272e-02 ; 1.36  0.0208

[ moleculetype ]
;name            nrexcl
 mobley_5052949   3

[ atoms ]
;   nr  type  resi  res  atom  cgnr     charge      mass       ; qtot   bond_type
     1   c3     1   MOL    C1    1    -0.092100     12.01000 ; qtot -0.092
     2   c3     1   MOL    C2    2    -0.092100     12.01000 ; qtot -0.184
     3   c3     1   MOL    C3    3    -0.071400     12.01000 ; qtot -0.256
     4   c3     1   MOL    C4    4    -0.071400     12.01000 ; qtot -0.327
     5   c3     1   MOL    C5    5    -0.008300     12.01000 ; qtot -0.335
     6   c3     1   MOL    C6    6    -0.008300     12.01000 ; qtot -0.344
     7   ss     1   MOL    S1    7    -0.316198     32.06000 ; qtot -0.660
     8   hc     1   MOL    H1    8     0.035033      1.00800 ; qtot -0.625
     9   hc     1   MOL    H2    9     0.035033      1.00800 ; qtot -0.590
    10   hc     1   MOL    H3   10     0.035033      1.00800 ; qtot -0.555
    11   hc     1   MOL    H4   11     0.035033      1.00800 ; qtot -0.520
    12   hc     1   MOL    H5   12     0.035033      1.00800 ; qtot -0.485
    13   hc     1   MOL    H6   13     0.035033      1.00800 ; qtot -0.450
    14   hc     1   MOL    H7   14     0.054700      1.00800 ; qtot -0.395
    15   hc     1   MOL    H8   15     0.054700      1.00800 ; qtot -0.340
    16   hc     1   MOL    H9   16     0.054700      1.00800 ; qtot -0.286
    17   hc     1   MOL   H10   17     0.054700      1.00800 ; qtot -0.231
    18   h1     1   MOL   H11   18     0.057700      1.00800 ; qtot -0.173
    19   h1     1   MOL   H12   19     0.057700      1.00800 ; qtot -0.115
    20   h1     1   MOL   H13   20     0.057700      1.00800 ; qtot -0.058
    21   h1     1   MOL   H14   21     0.057700      1.00800 ; qtot -0.000

[ bonds ]
;   ai     aj funct   r             k
     1      3   1    1.5354e-01    1.9154e+05 ;     C1 - C3    
     1      8   1    1.0962e-01    2.8891e+05 ;     C1 - H1    
     1      9   1    1.0962e-01    2.8891e+05 ;     C1 - H2    
     1     10   1    1.0962e-01    2.8891e+05 ;     C1 - H3    
     2      4   1    1.5354e-01    1.9154e+05 ;     C2 - C4    
     2     11   1    1.0962e-01    2.8891e+05 ;     C2 - H4    
     2     12   1    1.0962e-01    2.8891e+05 ;     C2 - H5    
     2     13   1    1.0962e-01    2.8891e+05 ;     C2 - H6    
     3      5   1    1.5354e-01    1.9154e+05 ;     C3 - C5    
     3     14   1    1.0962e-01    2.8891e+05 ;     C3 - H7    
     3     15   1    1.0962e-01    2.8891e+05 ;     C3 - H8    
     4      6   1    1.5354e-01    1.9154e+05 ;     C4 - C6    
     4     16   1    1.0962e-01    2.8891e+05 ;     C4 - H9    
     4     17   1    1.0962e-01    2.8891e+05 ;     C4 - H10   
     5      7   1    1.8407e-01    1.5459e+05 ;     C5 - S1    
     5     18   1    1.0969e-01    2.8804e+05 ;     C5 - H11   
     5     19   1    1.0969e-01    2.8804e+05 ;     C5 - H12   
     6      7   1    1.8407e-01    1.5459e+05 ;     C6 - S1    
     6     20   1    1.0969e-01    2.8804e+05 ;     C6 - H13   
     6     21   1    1.0969e-01    2.8804e+05 ;     C6 - H14   

[ pairs ]
;   ai     aj    funct
     1      7      1 ;     C1 - S1    
     1     18      1 ;     C1 - H11   
     1     19      1 ;     C1 - H12   
     2      7      1 ;     C2 - S1    
     2     20      1 ;     C2 - H13   
     2     21      1 ;     C2 - H14   
     3      6      1 ;     C3 - C6    
     4      5      1 ;     C4 - C5    
     5     20      1 ;     C5 - H13   
     5     21      1 ;     C5 - H14   
     6     11      1 ;     C6 - H4    
     6     12      1 ;     C6 - H5    
     6     13      1 ;     C6 - H6    
     6     18      1 ;     C6 - H11   
     6     19      1 ;     C6 - H12   
     7     14      1 ;     S1 - H7    
     7     15      1 ;     S1 - H8    
     7     16      1 ;     S1 - H9    
     7     17      1 ;     S1 - H10   
     8      5      1 ;     H1 - C5    
     8     14      1 ;     H1 - H7    
     8     15      1 ;     H1 - H8    
     9      5      1 ;     H2 - C5    
     9     14      1 ;     H2 - H7    
     9     15      1 ;     H2 - H8    
    10      5      1 ;     H3 - C5    
    10     14      1 ;     H3 - H7    
    10     15      1 ;     H3 - H8    
    11     16      1 ;     H4 - H9    
    11     17      1 ;     H4 - H10   
    12     16      1 ;     H5 - H9    
    12     17      1 ;     H5 - H10   
    13     16      1 ;     H6 - H9    
    13     17      1 ;     H6 - H10   
    14     18      1 ;     H7 - H11   
    14     19      1 ;     H7 - H12   
    15     18      1 ;     H8 - H11   
    15     19      1 ;     H8 - H12   
    16     20      1 ;     H9 - H13   
    16     21      1 ;     H9 - H14   
    17     20      1 ;    H10 - H13   
    17     21      1 ;    H10 - H14   

[ angles ]
;   ai     aj     ak    funct   theta         cth
     1      3      5      1    1.1263e+02    5.0099e+02 ;     C1 - C3     - C5    
     1      3     14      1    1.0968e+02    3.6208e+02 ;     C1 - C3     - H7    
     1      3     15      1    1.0968e+02    3.6208e+02 ;     C1 - C3     - H8    
     2      4      6      1    1.1263e+02    5.0099e+02 ;     C2 - C4     - C6    
     2      4     16      1    1.0968e+02    3.6208e+02 ;     C2 - C4     - H9    
     2      4     17      1    1.0968e+02    3.6208e+02 ;     C2 - C4     - H10   
     3      1      8      1    1.0968e+02    3.6208e+02 ;     C3 - C1     - H1    
     3      1      9      1    1.0968e+02    3.6208e+02 ;     C3 - C1     - H2    
     3      1     10      1    1.0968e+02    3.6208e+02 ;     C3 - C1     - H3    
     3      5      7      1    1.1018e+02    5.2651e+02 ;     C3 - C5     - S1    
     3      5     18      1    1.0959e+02    3.6217e+02 ;     C3 - C5     - H11   
     3      5     19      1    1.0959e+02    3.6217e+02 ;     C3 - C5     - H12   
     4      2     11      1    1.0968e+02    3.6208e+02 ;     C4 - C2     - H4    
     4      2     12      1    1.0968e+02    3.6208e+02 ;     C4 - C2     - H5    
     4      2     13      1    1.0968e+02    3.6208e+02 ;     C4 - C2     - H6    
     4      6      7      1    1.1018e+02    5.2651e+02 ;     C4 - C6     - S1    
     4      6     20      1    1.0959e+02    3.6217e+02 ;     C4 - C6     - H13   
     4      6     21      1    1.0959e+02    3.6217e+02 ;     C4 - C6     - H14   
     5      3     14      1    1.0968e+02    3.6208e+02 ;     C5 - C3     - H7    
     5      3     15      1    1.0968e+02    3.6208e+02 ;     C5 - C3     - H8    
     5      7      6      1    9.9640e+01    7.7546e+02 ;     C5 - S1     - C6    
     6      4     16      1    1.0968e+02    3.6208e+02 ;     C6 - C4     - H9    
     6      4     17      1    1.0968e+02    3.6208e+02 ;     C6 - C4     - H10   
     7      5     18      1    1.0873e+02    3.5196e+02 ;     S1 - C5     - H11   
     7      5     19      1    1.0873e+02    3.5196e+02 ;     S1 - C5     - H12   
     7      6     20      1    1.0873e+02    3.5196e+02 ;     S1 - C6     - H13   
     7      6     21      1    1.0873e+02    3.5196e+02 ;     S1 - C6     - H14   
     8      1      9      1    1.0773e+02    2.9957e+02 ;     H1 - C1     - H2    
     8      1     10      1    1.0773e+02    2.9957e+02 ;     H1 - C1     - H3    
     9      1     10      1    1.0773e+02    2.9957e+02 ;     H2 - C1     - H3    
    11      2     12      1    1.0773e+02    2.9957e+02 ;     H4 - C2     - H5    
    11      2     13      1    1.0773e+02    2.9957e+02 ;     H4 - C2     - H6    
    12      2     13      1    1.0773e+02    2.9957e+02 ;     H5 - C2     - H6    
    14      3     15      1    1.0773e+02    2.9957e+02 ;     H7 - C3     - H8    
    16      4     17      1    1.0773e+02    2.9957e+02 ;     H9 - C4     - H10   
    18      5     19      1    1.0855e+02    2.9824e+02 ;    H11 - C5     - H12   
    20      6     21      1    1.0855e+02    2.9824e+02 ;    H13 - C6     - H14   

[ dihedrals ] ; propers
; for gromacs 4.5 or higher, using funct 9
;    i      j      k      l   func   phase     kd      pn
     1      3      5      7      9     0.00   0.65084   3 ;     C1-    C3-    C5-    S1
     1      3      5     18      9     0.00   0.65084   3 ;     C1-    C3-    C5-   H11
     1      3      5     19      9     0.00   0.65084   3 ;     C1-    C3-    C5-   H12
     2      4      6      7      9     0.00   0.65084   3 ;     C2-    C4-    C6-    S1
     2      4      6     20      9     0.00   0.65084   3 ;     C2-    C4-    C6-   H13
     2      4      6     21      9     0.00   0.65084   3 ;     C2-    C4-    C6-   H14
     3      5      7      6      9   180.00   0.83680   1 ;     C3-    C5-    S1-    C6
     4      6      7      5      9   180.00   0.83680   1 ;     C4-    C6-    S1-    C5
     5      7      6     20      9     0.00   0.92048   3 ;     C5-    S1-    C6-   H13
     5      7      6     21      9     0.00   0.92048   3 ;     C5-    S1-    C6-   H14
     6      4      2     11      9     0.00   0.54392   3 ;     C6-    C4-    C2-    H4
     6      4      2     12      9     0.00   0.54392   3 ;     C6-    C4-    C2-    H5
     6      4      2     13      9     0.00   0.54392   3 ;     C6-    C4-    C2-    H6
     6      7      5     18      9     0.00   0.92048   3 ;     C6-    S1-    C5-   H11
     6      7      5     19      9     0.00   0.92048   3 ;     C6-    S1-    C5-   H12
     7      5      3     14      9     0.00   0.65084   3 ;     S1-    C5-    C3-    H7
     7      5      3     15      9     0.00   0.65084   3 ;     S1-    C5-    C3-    H8
     7      6      4     16      9     0.00   0.65084   3 ;     S1-    C6-    C4-    H9
     7      6      4     17      9     0.00   0.65084   3 ;     S1-    C6-    C4-   H10
     8      1      3      5      9     0.00   0.54392   3 ;     H1-    C1-    C3-    C5
     8      1      3     14      9     0.00   0.50208   3 ;     H1-    C1-    C3-    H7
     8      1      3     15      9     0.00   0.50208   3 ;     H1-    C1-    C3-    H8
     9      1      3      5      9     0.00   0.54392   3 ;     H2-    C1-    C3-    C5
     9      1      3     14      9     0.00   0.50208   3 ;     H2-    C1-    C3-    H7
     9      1      3     15      9     0.00   0.50208   3 ;     H2-    C1-    C3-    H8
    10      1      3      5      9     0.00   0.54392   3 ;     H3-    C1-    C3-    C5
    10      1      3     14      9     0.00   0.50208   3 ;     H3-    C1-    C3-    H7
    10      1      3     15      9     0.00   0.50208   3 ;     H3-    C1-    C3-    H8
    11      2      4     16      9     0.00   0.50208   3 ;     H4-    C2-    C4-    H9
    11      2      4     17      9     0.00   0.50208   3 ;     H4-    C2-    C4-   H10
    12      2      4     16      9     0.00   0.50208   3 ;     H5-    C2-    C4-    H9
    12      2      4     17      9     0.00   0.50208   3 ;     H5-    C2-    C4-   H10
    13      2      4     16      9     0.00   0.50208   3 ;     H6-    C2-    C4-    H9
    13      2      4     17      9     0.00   0.50208   3 ;     H6-    C2-    C4-   H10
    14      3      5     18      9     0.00   0.65084   3 ;     H7-    C3-    C5-   H11
    14      3      5     19      9     0.00   0.65084   3 ;     H7-    C3-    C5-   H12
    15      3      5     18      9     0.00   0.65084   3 ;     H8-    C3-    C5-   H11
    15      3      5     19      9     0.00   0.65084   3 ;     H8-    C3-    C5-   H12
    16      4      6     20      9     0.00   0.65084   3 ;     H9-    C4-    C6-   H13
    16      4      6     21      9     0.00   0.65084   3 ;     H9-    C4-    C6-   H14
    17      4      6     20      9     0.00   0.65084   3 ;    H10-    C4-    C6-   H13
    17      4      6     21      9     0.00   0.65084   3 ;    H10-    C4-    C6-   H14
