; mobley_5390332_GMX.itp created by acpype (v: 2023.10.27) on Thu May 14 14:00:05 2026

[ atomtypes ]
;name   bond_type     mass     charge   ptype   sigma         epsilon       Amb
 c        c           0.00000  0.00000   A     3.31521e-01   4.13379e-01 ; 1.86  0.0988
 c3       c3          0.00000  0.00000   A     3.39771e-01   4.51035e-01 ; 1.91  0.1078
 o        o           0.00000  0.00000   A     3.04812e-01   6.12119e-01 ; 1.71  0.1463
 os       os          0.00000  0.00000   A     3.15610e-01   3.03758e-01 ; 1.77  0.0726
 hc       hc          0.00000  0.00000   A     2.60018e-01   8.70272e-02 ; 1.46  0.0208
 h1       h1          0.00000  0.00000   A     2.42200e-01   8.70272e-02 ; 1.36  0.0208

[ moleculetype ]
;name            nrexcl
 mobley_5390332   3

[ atoms ]
;   nr  type  resi  res  atom  cgnr     charge      mass       ; qtot   bond_type
     1    c     1   MOL    C1    1     0.627098     12.01000 ; qtot 0.627
     2   c3     1   MOL    C2    2    -0.094100     12.01000 ; qtot 0.533
     3   c3     1   MOL    C3    3     0.125700     12.01000 ; qtot 0.659
     4   c3     1   MOL    C4    4    -0.127400     12.01000 ; qtot 0.531
     5   c3     1   MOL    C5    5    -0.079400     12.01000 ; qtot 0.452
     6    o     1   MOL    O1    6    -0.541000     16.00000 ; qtot -0.089
     7   os     1   MOL    O2    7    -0.443900     16.00000 ; qtot -0.533
     8   hc     1   MOL    H1    8     0.037367      1.00800 ; qtot -0.496
     9   hc     1   MOL    H2    9     0.037367      1.00800 ; qtot -0.458
    10   hc     1   MOL    H3   10     0.037367      1.00800 ; qtot -0.421
    11   h1     1   MOL    H4   11     0.050367      1.00800 ; qtot -0.371
    12   h1     1   MOL    H5   12     0.050367      1.00800 ; qtot -0.320
    13   h1     1   MOL    H6   13     0.050367      1.00800 ; qtot -0.270
    14   hc     1   MOL    H7   14     0.078200      1.00800 ; qtot -0.192
    15   hc     1   MOL    H8   15     0.078200      1.00800 ; qtot -0.113
    16   hc     1   MOL    H9   16     0.056700      1.00800 ; qtot -0.057
    17   hc     1   MOL   H10   17     0.056700      1.00800 ; qtot -0.000

[ bonds ]
;   ai     aj funct   r             k
     1      4   1    1.5270e-01    1.9652e+05 ;     C1 - C4    
     1      6   1    1.2190e-01    4.9421e+05 ;     C1 - O1    
     1      7   1    1.3621e-01    2.9398e+05 ;     C1 - O2    
     2      5   1    1.5354e-01    1.9154e+05 ;     C2 - C5    
     2      8   1    1.0962e-01    2.8891e+05 ;     C2 - H1    
     2      9   1    1.0962e-01    2.8891e+05 ;     C2 - H2    
     2     10   1    1.0962e-01    2.8891e+05 ;     C2 - H3    
     3      7   1    1.4273e-01    2.3620e+05 ;     C3 - O2    
     3     11   1    1.0969e-01    2.8804e+05 ;     C3 - H4    
     3     12   1    1.0969e-01    2.8804e+05 ;     C3 - H5    
     3     13   1    1.0969e-01    2.8804e+05 ;     C3 - H6    
     4      5   1    1.5354e-01    1.9154e+05 ;     C4 - C5    
     4     14   1    1.0962e-01    2.8891e+05 ;     C4 - H7    
     4     15   1    1.0962e-01    2.8891e+05 ;     C4 - H8    
     5     16   1    1.0962e-01    2.8891e+05 ;     C5 - H9    
     5     17   1    1.0962e-01    2.8891e+05 ;     C5 - H10   

[ pairs ]
;   ai     aj    funct
     1      2      1 ;     C1 - C2    
     1     11      1 ;     C1 - H4    
     1     12      1 ;     C1 - H5    
     1     13      1 ;     C1 - H6    
     1     16      1 ;     C1 - H9    
     1     17      1 ;     C1 - H10   
     2     14      1 ;     C2 - H7    
     2     15      1 ;     C2 - H8    
     4      3      1 ;     C4 - C3    
     4      8      1 ;     C4 - H1    
     4      9      1 ;     C4 - H2    
     4     10      1 ;     C4 - H3    
     6      3      1 ;     O1 - C3    
     6      5      1 ;     O1 - C5    
     6     14      1 ;     O1 - H7    
     6     15      1 ;     O1 - H8    
     7      5      1 ;     O2 - C5    
     7     14      1 ;     O2 - H7    
     7     15      1 ;     O2 - H8    
     8     16      1 ;     H1 - H9    
     8     17      1 ;     H1 - H10   
     9     16      1 ;     H2 - H9    
     9     17      1 ;     H2 - H10   
    10     16      1 ;     H3 - H9    
    10     17      1 ;     H3 - H10   
    14     16      1 ;     H7 - H9    
    14     17      1 ;     H7 - H10   
    15     16      1 ;     H8 - H9    
    15     17      1 ;     H8 - H10   

[ angles ]
;   ai     aj     ak    funct   theta         cth
     1      4      5      1    1.1143e+02    5.0509e+02 ;     C1 - C4     - C5    
     1      4     14      1    1.0895e+02    3.6510e+02 ;     C1 - C4     - H7    
     1      4     15      1    1.0895e+02    3.6510e+02 ;     C1 - C4     - H8    
     1      7      3      1    1.1582e+02    7.4835e+02 ;     C1 - O2     - C3    
     2      5      4      1    1.1263e+02    5.0099e+02 ;     C2 - C5     - C4    
     2      5     16      1    1.0968e+02    3.6208e+02 ;     C2 - C5     - H9    
     2      5     17      1    1.0968e+02    3.6208e+02 ;     C2 - C5     - H10   
     4      1      6      1    1.2290e+02    6.3973e+02 ;     C4 - C1     - O1    
     4      1      7      1    1.1080e+02    6.5245e+02 ;     C4 - C1     - O2    
     4      5     16      1    1.0968e+02    3.6208e+02 ;     C4 - C5     - H9    
     4      5     17      1    1.0968e+02    3.6208e+02 ;     C4 - C5     - H10   
     5      2      8      1    1.0968e+02    3.6208e+02 ;     C5 - C2     - H1    
     5      2      9      1    1.0968e+02    3.6208e+02 ;     C5 - C2     - H2    
     5      2     10      1    1.0968e+02    3.6208e+02 ;     C5 - C2     - H3    
     5      4     14      1    1.0968e+02    3.6208e+02 ;     C5 - C4     - H7    
     5      4     15      1    1.0968e+02    3.6208e+02 ;     C5 - C4     - H8    
     6      1      7      1    1.2320e+02    8.4734e+02 ;     O1 - C1     - O2    
     7      3     11      1    1.1034e+02    4.7028e+02 ;     O2 - C3     - H4    
     7      3     12      1    1.1034e+02    4.7028e+02 ;     O2 - C3     - H5    
     7      3     13      1    1.1034e+02    4.7028e+02 ;     O2 - C3     - H6    
     8      2      9      1    1.0773e+02    2.9957e+02 ;     H1 - C2     - H2    
     8      2     10      1    1.0773e+02    2.9957e+02 ;     H1 - C2     - H3    
     9      2     10      1    1.0773e+02    2.9957e+02 ;     H2 - C2     - H3    
    11      3     12      1    1.0855e+02    2.9824e+02 ;     H4 - C3     - H5    
    11      3     13      1    1.0855e+02    2.9824e+02 ;     H4 - C3     - H6    
    12      3     13      1    1.0855e+02    2.9824e+02 ;     H5 - C3     - H6    
    14      4     15      1    1.0773e+02    2.9957e+02 ;     H7 - C4     - H8    
    16      5     17      1    1.0773e+02    2.9957e+02 ;     H9 - C5     - H10   

[ dihedrals ] ; propers
; for gromacs 4.5 or higher, using funct 9
;    i      j      k      l   func   phase     kd      pn
     1      4      5      2      9     0.00   0.00000   0 ;     C1-    C4-    C5-    C2
     1      4      5      2      9     0.00   0.16736   2 ;     C1-    C4-    C5-    C2
     1      4      5      2      9   180.00   1.92464   1 ;     C1-    C4-    C5-    C2
     1      4      5     16      9     0.00   0.65084   3 ;     C1-    C4-    C5-    H9
     1      4      5     17      9     0.00   0.65084   3 ;     C1-    C4-    C5-   H10
     1      7      3     11      9     0.00   1.60387   3 ;     C1-    O2-    C3-    H4
     1      7      3     12      9     0.00   1.60387   3 ;     C1-    O2-    C3-    H5
     1      7      3     13      9     0.00   1.60387   3 ;     C1-    O2-    C3-    H6
     2      5      4     14      9     0.00   0.54392   3 ;     C2-    C5-    C4-    H7
     2      5      4     15      9     0.00   0.54392   3 ;     C2-    C5-    C4-    H8
     4      1      7      3      9     0.00   3.13800   3 ;     C4-    C1-    O2-    C3
     4      1      7      3      9   180.00   7.90776   1 ;     C4-    C1-    O2-    C3
     4      1      7      3      9   180.00  13.76536   2 ;     C4-    C1-    O2-    C3
     4      5      2      8      9     0.00   0.54392   3 ;     C4-    C5-    C2-    H1
     4      5      2      9      9     0.00   0.54392   3 ;     C4-    C5-    C2-    H2
     4      5      2     10      9     0.00   0.54392   3 ;     C4-    C5-    C2-    H3
     6      1      4      5      9     0.00   2.84512   1 ;     O1-    C1-    C4-    C5
     6      1      4      5      9   180.00   0.83680   2 ;     O1-    C1-    C4-    C5
     6      1      4      5      9   180.00   1.84096   3 ;     O1-    C1-    C4-    C5
     6      1      4     14      9     0.00  16.86152   1 ;     O1-    C1-    C4-    H7
     6      1      4     14      9   180.00  15.31344   2 ;     O1-    C1-    C4-    H7
     6      1      4     15      9     0.00  16.86152   1 ;     O1-    C1-    C4-    H8
     6      1      4     15      9   180.00  15.31344   2 ;     O1-    C1-    C4-    H8
     6      1      7      3      9   180.00   5.85760   1 ;     O1-    C1-    O2-    C3
     6      1      7      3      9   180.00  11.29680   2 ;     O1-    C1-    O2-    C3
     7      1      4      5      9   180.00   0.00000   2 ;     O2-    C1-    C4-    C5
     7      1      4     14      9   180.00   0.00000   2 ;     O2-    C1-    C4-    H7
     7      1      4     15      9   180.00   0.00000   2 ;     O2-    C1-    C4-    H8
     8      2      5     16      9     0.00   0.50208   3 ;     H1-    C2-    C5-    H9
     8      2      5     17      9     0.00   0.50208   3 ;     H1-    C2-    C5-   H10
     9      2      5     16      9     0.00   0.50208   3 ;     H2-    C2-    C5-    H9
     9      2      5     17      9     0.00   0.50208   3 ;     H2-    C2-    C5-   H10
    10      2      5     16      9     0.00   0.50208   3 ;     H3-    C2-    C5-    H9
    10      2      5     17      9     0.00   0.50208   3 ;     H3-    C2-    C5-   H10
    14      4      5     16      9     0.00   0.50208   3 ;     H7-    C4-    C5-    H9
    14      4      5     17      9     0.00   0.50208   3 ;     H7-    C4-    C5-   H10
    15      4      5     16      9     0.00   0.50208   3 ;     H8-    C4-    C5-    H9
    15      4      5     17      9     0.00   0.50208   3 ;     H8-    C4-    C5-   H10

[ dihedrals ] ; impropers
; treated as propers in GROMACS to use correct AMBER analytical function
;    i      j      k      l   func   phase     kd      pn
     7      1      6      4      4   180.00   4.60240   2 ;     O2-    C1-    O1-    C4
