; mobley_8705848_GMX.itp created by acpype (v: 2023.10.27) on Thu May 14 13:46:16 2026

[ atomtypes ]
;name   bond_type     mass     charge   ptype   sigma         epsilon       Amb
 c3       c3          0.00000  0.00000   A     3.39771e-01   4.51035e-01 ; 1.91  0.1078
 n7       n7          0.00000  0.00000   A     3.50765e-01   2.18405e-01 ; 1.97  0.0522
 hc       hc          0.00000  0.00000   A     2.60018e-01   8.70272e-02 ; 1.46  0.0208
 h1       h1          0.00000  0.00000   A     2.42200e-01   8.70272e-02 ; 1.36  0.0208
 hn       hn          0.00000  0.00000   A     1.10650e-01   4.18400e-02 ; 0.62  0.0100

[ moleculetype ]
;name            nrexcl
 mobley_8705848   3

[ atoms ]
;   nr  type  resi  res  atom  cgnr     charge      mass       ; qtot   bond_type
     1   c3     1   MOL    C1    1    -0.101850     12.01000 ; qtot -0.102
     2   c3     1   MOL    C2    2    -0.101850     12.01000 ; qtot -0.204
     3   c3     1   MOL    C3    3    -0.101850     12.01000 ; qtot -0.306
     4   c3     1   MOL    C4    4    -0.101850     12.01000 ; qtot -0.407
     5   c3     1   MOL    C5    5     0.174500     12.01000 ; qtot -0.233
     6   c3     1   MOL    C6    6     0.174500     12.01000 ; qtot -0.058
     7   n7     1   MOL    N1    7    -0.822204     14.01000 ; qtot -0.881
     8   hc     1   MOL    H1    8     0.037367      1.00800 ; qtot -0.843
     9   hc     1   MOL    H2    9     0.037367      1.00800 ; qtot -0.806
    10   hc     1   MOL    H3   10     0.037367      1.00800 ; qtot -0.769
    11   hc     1   MOL    H4   11     0.037367      1.00800 ; qtot -0.731
    12   hc     1   MOL    H5   12     0.037367      1.00800 ; qtot -0.694
    13   hc     1   MOL    H6   13     0.037367      1.00800 ; qtot -0.656
    14   hc     1   MOL    H7   14     0.037367      1.00800 ; qtot -0.619
    15   hc     1   MOL    H8   15     0.037367      1.00800 ; qtot -0.582
    16   hc     1   MOL    H9   16     0.037367      1.00800 ; qtot -0.544
    17   hc     1   MOL   H10   17     0.037367      1.00800 ; qtot -0.507
    18   hc     1   MOL   H11   18     0.037367      1.00800 ; qtot -0.470
    19   hc     1   MOL   H12   19     0.037367      1.00800 ; qtot -0.432
    20   h1     1   MOL   H13   20     0.036700      1.00800 ; qtot -0.396
    21   h1     1   MOL   H14   21     0.036700      1.00800 ; qtot -0.359
    22   hn     1   MOL   H15   22     0.358800      1.00800 ; qtot -0.000

[ bonds ]
;   ai     aj funct   r             k
     1      5   1    1.5354e-01    1.9154e+05 ;     C1 - C5    
     1      8   1    1.0962e-01    2.8891e+05 ;     C1 - H1    
     1      9   1    1.0962e-01    2.8891e+05 ;     C1 - H2    
     1     10   1    1.0962e-01    2.8891e+05 ;     C1 - H3    
     2      5   1    1.5354e-01    1.9154e+05 ;     C2 - C5    
     2     11   1    1.0962e-01    2.8891e+05 ;     C2 - H4    
     2     12   1    1.0962e-01    2.8891e+05 ;     C2 - H5    
     2     13   1    1.0962e-01    2.8891e+05 ;     C2 - H6    
     3      6   1    1.5354e-01    1.9154e+05 ;     C3 - C6    
     3     14   1    1.0962e-01    2.8891e+05 ;     C3 - H7    
     3     15   1    1.0962e-01    2.8891e+05 ;     C3 - H8    
     3     16   1    1.0962e-01    2.8891e+05 ;     C3 - H9    
     4      6   1    1.5354e-01    1.9154e+05 ;     C4 - C6    
     4     17   1    1.0962e-01    2.8891e+05 ;     C4 - H10   
     4     18   1    1.0962e-01    2.8891e+05 ;     C4 - H11   
     4     19   1    1.0962e-01    2.8891e+05 ;     C4 - H12   
     5      7   1    1.4630e-01    2.1382e+05 ;     C5 - N1    
     5     20   1    1.0969e-01    2.8804e+05 ;     C5 - H13   
     6      7   1    1.4630e-01    2.1382e+05 ;     C6 - N1    
     6     21   1    1.0969e-01    2.8804e+05 ;     C6 - H14   
     7     22   1    1.0195e-01    3.8497e+05 ;     N1 - H15   

[ pairs ]
;   ai     aj    funct
     1      6      1 ;     C1 - C6    
     1     11      1 ;     C1 - H4    
     1     12      1 ;     C1 - H5    
     1     13      1 ;     C1 - H6    
     1     22      1 ;     C1 - H15   
     2      6      1 ;     C2 - C6    
     2     22      1 ;     C2 - H15   
     3      5      1 ;     C3 - C5    
     3     17      1 ;     C3 - H10   
     3     18      1 ;     C3 - H11   
     3     19      1 ;     C3 - H12   
     3     22      1 ;     C3 - H15   
     4      5      1 ;     C4 - C5    
     4     14      1 ;     C4 - H7    
     4     15      1 ;     C4 - H8    
     4     16      1 ;     C4 - H9    
     4     22      1 ;     C4 - H15   
     5     21      1 ;     C5 - H14   
     6     20      1 ;     C6 - H13   
     7     11      1 ;     N1 - H4    
     7     12      1 ;     N1 - H5    
     7     13      1 ;     N1 - H6    
     7     14      1 ;     N1 - H7    
     7     15      1 ;     N1 - H8    
     7     16      1 ;     N1 - H9    
     7     17      1 ;     N1 - H10   
     7     18      1 ;     N1 - H11   
     7     19      1 ;     N1 - H12   
     8      2      1 ;     H1 - C2    
     8      7      1 ;     H1 - N1    
     8     20      1 ;     H1 - H13   
     9      2      1 ;     H2 - C2    
     9      7      1 ;     H2 - N1    
     9     20      1 ;     H2 - H13   
    10      2      1 ;     H3 - C2    
    10      7      1 ;     H3 - N1    
    10     20      1 ;     H3 - H13   
    11     20      1 ;     H4 - H13   
    12     20      1 ;     H5 - H13   
    13     20      1 ;     H6 - H13   
    14     21      1 ;     H7 - H14   
    15     21      1 ;     H8 - H14   
    16     21      1 ;     H9 - H14   
    17     21      1 ;    H10 - H14   
    18     21      1 ;    H11 - H14   
    19     21      1 ;    H12 - H14   
    20     22      1 ;    H13 - H15   
    21     22      1 ;    H14 - H15   

[ angles ]
;   ai     aj     ak    funct   theta         cth
     1      5      2      1    1.1263e+02    5.0099e+02 ;     C1 - C5     - C2    
     1      5      7      1    1.1022e+02    5.4994e+02 ;     C1 - C5     - N1    
     1      5     20      1    1.0959e+02    3.6217e+02 ;     C1 - C5     - H13   
     2      5      7      1    1.1022e+02    5.4994e+02 ;     C2 - C5     - N1    
     2      5     20      1    1.0959e+02    3.6217e+02 ;     C2 - C5     - H13   
     3      6      4      1    1.1263e+02    5.0099e+02 ;     C3 - C6     - C4    
     3      6      7      1    1.1022e+02    5.4994e+02 ;     C3 - C6     - N1    
     3      6     21      1    1.0959e+02    3.6217e+02 ;     C3 - C6     - H14   
     4      6      7      1    1.1022e+02    5.4994e+02 ;     C4 - C6     - N1    
     4      6     21      1    1.0959e+02    3.6217e+02 ;     C4 - C6     - H14   
     5      1      8      1    1.0968e+02    3.6208e+02 ;     C5 - C1     - H1    
     5      1      9      1    1.0968e+02    3.6208e+02 ;     C5 - C1     - H2    
     5      1     10      1    1.0968e+02    3.6208e+02 ;     C5 - C1     - H3    
     5      2     11      1    1.0968e+02    3.6208e+02 ;     C5 - C2     - H4    
     5      2     12      1    1.0968e+02    3.6208e+02 ;     C5 - C2     - H5    
     5      2     13      1    1.0968e+02    3.6208e+02 ;     C5 - C2     - H6    
     5      7      6      1    1.1458e+02    6.4425e+02 ;     C5 - N1     - C6    
     5      7     22      1    1.0886e+02    4.7229e+02 ;     C5 - N1     - H15   
     6      3     14      1    1.0968e+02    3.6208e+02 ;     C6 - C3     - H7    
     6      3     15      1    1.0968e+02    3.6208e+02 ;     C6 - C3     - H8    
     6      3     16      1    1.0968e+02    3.6208e+02 ;     C6 - C3     - H9    
     6      4     17      1    1.0968e+02    3.6208e+02 ;     C6 - C4     - H10   
     6      4     18      1    1.0968e+02    3.6208e+02 ;     C6 - C4     - H11   
     6      4     19      1    1.0968e+02    3.6208e+02 ;     C6 - C4     - H12   
     6      7     22      1    1.0886e+02    4.7229e+02 ;     C6 - N1     - H15   
     7      5     20      1    1.1029e+02    3.9991e+02 ;     N1 - C5     - H13   
     7      6     21      1    1.1029e+02    3.9991e+02 ;     N1 - C6     - H14   
     8      1      9      1    1.0773e+02    2.9957e+02 ;     H1 - C1     - H2    
     8      1     10      1    1.0773e+02    2.9957e+02 ;     H1 - C1     - H3    
     9      1     10      1    1.0773e+02    2.9957e+02 ;     H2 - C1     - H3    
    11      2     12      1    1.0773e+02    2.9957e+02 ;     H4 - C2     - H5    
    11      2     13      1    1.0773e+02    2.9957e+02 ;     H4 - C2     - H6    
    12      2     13      1    1.0773e+02    2.9957e+02 ;     H5 - C2     - H6    
    14      3     15      1    1.0773e+02    2.9957e+02 ;     H7 - C3     - H8    
    14      3     16      1    1.0773e+02    2.9957e+02 ;     H7 - C3     - H9    
    15      3     16      1    1.0773e+02    2.9957e+02 ;     H8 - C3     - H9    
    17      4     18      1    1.0773e+02    2.9957e+02 ;    H10 - C4     - H11   
    17      4     19      1    1.0773e+02    2.9957e+02 ;    H10 - C4     - H12   
    18      4     19      1    1.0773e+02    2.9957e+02 ;    H11 - C4     - H12   

[ dihedrals ] ; propers
; for gromacs 4.5 or higher, using funct 9
;    i      j      k      l   func   phase     kd      pn
     1      5      2     11      9     0.00   0.54392   3 ;     C1-    C5-    C2-    H4
     1      5      2     12      9     0.00   0.54392   3 ;     C1-    C5-    C2-    H5
     1      5      2     13      9     0.00   0.54392   3 ;     C1-    C5-    C2-    H6
     1      5      7      6      9     0.00   0.58576   3 ;     C1-    C5-    N1-    C6
     1      5      7     22      9     0.00   0.90793   3 ;     C1-    C5-    N1-   H15
     2      5      7      6      9     0.00   0.58576   3 ;     C2-    C5-    N1-    C6
     2      5      7     22      9     0.00   0.90793   3 ;     C2-    C5-    N1-   H15
     3      6      4     17      9     0.00   0.54392   3 ;     C3-    C6-    C4-   H10
     3      6      4     18      9     0.00   0.54392   3 ;     C3-    C6-    C4-   H11
     3      6      4     19      9     0.00   0.54392   3 ;     C3-    C6-    C4-   H12
     3      6      7      5      9     0.00   0.58576   3 ;     C3-    C6-    N1-    C5
     3      6      7     22      9     0.00   0.90793   3 ;     C3-    C6-    N1-   H15
     4      6      3     14      9     0.00   0.54392   3 ;     C4-    C6-    C3-    H7
     4      6      3     15      9     0.00   0.54392   3 ;     C4-    C6-    C3-    H8
     4      6      3     16      9     0.00   0.54392   3 ;     C4-    C6-    C3-    H9
     4      6      7      5      9     0.00   0.58576   3 ;     C4-    C6-    N1-    C5
     4      6      7     22      9     0.00   0.90793   3 ;     C4-    C6-    N1-   H15
     5      7      6     21      9     0.00   0.89956   3 ;     C5-    N1-    C6-   H14
     6      7      5     20      9     0.00   0.89956   3 ;     C6-    N1-    C5-   H13
     7      5      2     11      9     0.00   0.41840   3 ;     N1-    C5-    C2-    H4
     7      5      2     12      9     0.00   0.41840   3 ;     N1-    C5-    C2-    H5
     7      5      2     13      9     0.00   0.41840   3 ;     N1-    C5-    C2-    H6
     7      6      3     14      9     0.00   0.41840   3 ;     N1-    C6-    C3-    H7
     7      6      3     15      9     0.00   0.41840   3 ;     N1-    C6-    C3-    H8
     7      6      3     16      9     0.00   0.41840   3 ;     N1-    C6-    C3-    H9
     7      6      4     17      9     0.00   0.41840   3 ;     N1-    C6-    C4-   H10
     7      6      4     18      9     0.00   0.41840   3 ;     N1-    C6-    C4-   H11
     7      6      4     19      9     0.00   0.41840   3 ;     N1-    C6-    C4-   H12
     8      1      5      2      9     0.00   0.54392   3 ;     H1-    C1-    C5-    C2
     8      1      5      7      9     0.00   0.41840   3 ;     H1-    C1-    C5-    N1
     8      1      5     20      9     0.00   0.65084   3 ;     H1-    C1-    C5-   H13
     9      1      5      2      9     0.00   0.54392   3 ;     H2-    C1-    C5-    C2
     9      1      5      7      9     0.00   0.41840   3 ;     H2-    C1-    C5-    N1
     9      1      5     20      9     0.00   0.65084   3 ;     H2-    C1-    C5-   H13
    10      1      5      2      9     0.00   0.54392   3 ;     H3-    C1-    C5-    C2
    10      1      5      7      9     0.00   0.41840   3 ;     H3-    C1-    C5-    N1
    10      1      5     20      9     0.00   0.65084   3 ;     H3-    C1-    C5-   H13
    11      2      5     20      9     0.00   0.65084   3 ;     H4-    C2-    C5-   H13
    12      2      5     20      9     0.00   0.65084   3 ;     H5-    C2-    C5-   H13
    13      2      5     20      9     0.00   0.65084   3 ;     H6-    C2-    C5-   H13
    14      3      6     21      9     0.00   0.65084   3 ;     H7-    C3-    C6-   H14
    15      3      6     21      9     0.00   0.65084   3 ;     H8-    C3-    C6-   H14
    16      3      6     21      9     0.00   0.65084   3 ;     H9-    C3-    C6-   H14
    17      4      6     21      9     0.00   0.65084   3 ;    H10-    C4-    C6-   H14
    18      4      6     21      9     0.00   0.65084   3 ;    H11-    C4-    C6-   H14
    19      4      6     21      9     0.00   0.65084   3 ;    H12-    C4-    C6-   H14
    20      5      7     22      9     0.00   1.25520   3 ;    H13-    C5-    N1-   H15
    21      6      7     22      9     0.00   1.25520   3 ;    H14-    C6-    N1-   H15
