mobley_5200358_GMX.gro created by acpype (v: 2023.10.27) on Thu May 14 13:16:42 2026
 2777
    1MOL     C1    1   1.681   1.434   1.567
    1MOL     C2    2   1.431   1.328   1.354
    1MOL     C3    3   1.502   1.555   1.698
    1MOL     C4    4   1.637   1.677   1.519
    1MOL     C5    5   1.229   1.323   1.214
    1MOL     C6    6   1.726   1.778   1.803
    1MOL     C7    7   1.638   1.569   1.627
    1MOL     N1    8   1.618   1.359   1.481
    1MOL     N2    9   1.311   1.384   1.315
    1MOL     O1   10   1.472   1.220   1.314
    1MOL     O2   11   1.494   1.412   1.441
    1MOL     S1   12   1.768   1.608   1.757
    1MOL     H1   13   1.779   1.395   1.598
    1MOL     H2   14   1.474   1.646   1.752
    1MOL     H3   15   1.421   1.536   1.627
    1MOL     H4   16   1.502   1.472   1.769
    1MOL     H5   17   1.604   1.774   1.558
    1MOL     H6   18   1.568   1.653   1.438
    1MOL     H7   19   1.735   1.690   1.474
    1MOL     H8   20   1.271   1.348   1.116
    1MOL     H9   21   1.128   1.364   1.222
    1MOL    H10   22   1.227   1.215   1.226
    1MOL    H11   23   1.790   1.808   1.887
    1MOL    H12   24   1.622   1.787   1.835
    1MOL    H13   25   1.746   1.847   1.721
    1MOL    H14   26   1.295   1.479   1.344
    2SOL     OW   27   0.230   0.628   0.113
    2SOL    HW1   28   0.137   0.626   0.150
    2SOL    HW2   29   0.231   0.589   0.021
    3SOL     OW   30   0.225   0.275   0.996
    3SOL    HW1   31   0.260   0.258   1.088
    3SOL    HW2   32   0.137   0.230   0.984
    4SOL     OW   33   0.019   0.368   0.647
    4SOL    HW1   34  -0.063   0.411   0.686
    4SOL    HW2   35  -0.009   0.295   0.584
    5SOL     OW   36   0.569   1.275   1.165
    5SOL    HW1   37   0.476   1.268   1.128
    5SOL    HW2   38   0.580   1.364   1.209
    6SOL     OW   39   1.555   1.511   0.703
    6SOL    HW1   40   1.498   1.495   0.784
    6SOL    HW2   41   1.496   1.521   0.623
    7SOL     OW   42   1.135   0.703   0.717
    7SOL    HW1   43   1.192   0.781   0.692
    7SOL    HW2   44   1.075   0.729   0.793
    8SOL     OW   45   1.755   0.607   0.231
    8SOL    HW1   46   1.743   0.594   0.132
    8SOL    HW2   47   1.725   0.526   0.280
    9SOL     OW   48   0.768   1.144   1.023
    9SOL    HW1   49   0.690   1.161   1.083
    9SOL    HW2   50   0.802   1.231   0.987
   10SOL     OW   51   0.850   0.798   1.823
   10SOL    HW1   52   0.846   0.874   1.888
   10SOL    HW2   53   0.872   0.834   1.732
   11SOL     OW   54   0.685   1.012   0.665
   11SOL    HW1   55   0.754   0.996   0.735
   11SOL    HW2   56   0.612   1.069   0.703
   12SOL     OW   57   0.686   1.161   1.803
   12SOL    HW1   58   0.746   1.240   1.817
   12SOL    HW2   59   0.600   1.192   1.762
   13SOL     OW   60   0.335   1.435   1.061
   13SOL    HW1   61   0.257   1.404   1.008
   13SOL    HW2   62   0.393   1.493   1.004
   14SOL     OW   63   0.438   0.392   1.499
   14SOL    HW1   64   0.520   0.336   1.508
   14SOL    HW2   65   0.357   0.334   1.503
   15SOL     OW   66   1.603   0.447   0.737
   15SOL    HW1   67   1.529   0.493   0.687
   15SOL    HW2   68   1.654   0.515   0.790
   16SOL     OW   69   0.231   1.713   0.483
   16SOL    HW1   70   0.265   1.790   0.537
   16SOL    HW2   71   0.275   1.713   0.393
   17SOL     OW   72   1.127   1.341   1.690
   17SOL    HW1   73   1.174   1.341   1.778
   17SOL    HW2   74   1.079   1.254   1.679
   18SOL     OW   75   0.230   1.434   0.538
   18SOL    HW1   76   0.204   1.530   0.538
   18SOL    HW2   77   0.159   1.380   0.583
   19SOL     OW   78   0.240   1.091   0.886
   19SOL    HW1   79   0.254   1.007   0.938
   19SOL    HW2   80   0.185   1.155   0.941
   20SOL     OW   81   0.620   1.786   1.439
   20SOL    HW1   82   0.528   1.769   1.474
   20SOL    HW2   83   0.648   1.878   1.465
   21SOL     OW   84   0.606   0.964   0.123
   21SOL    HW1   85   0.613   1.048   0.069
   21SOL    HW2   86   0.652   0.977   0.211
   22SOL     OW   87   1.594   0.114   1.480
   22SOL    HW1   88   1.576   0.181   1.408
   22SOL    HW2   89   1.591   0.160   1.569
   23SOL     OW   90   0.122   0.643   0.563
   23SOL    HW1   91   0.077   0.555   0.580
   23SOL    HW2   92   0.121   0.697   0.647
   24SOL     OW   93   1.842   1.767   0.359
   24SOL    HW1   94   1.896   1.738   0.439
   24SOL    HW2   95   1.872   1.857   0.330
   25SOL     OW   96   0.027   1.596   0.117
   25SOL    HW1   97   0.008   1.500   0.138
   25SOL    HW2   98  -0.006   1.654   0.192
   26SOL     OW   99   1.689   0.922   0.612
   26SOL    HW1  100   1.784   0.893   0.620
   26SOL    HW2  101   1.681   0.987   0.537
   27SOL     OW  102   1.641   1.108   0.432
   27SOL    HW1  103   1.727   1.110   0.380
   27SOL    HW2  104   1.655   1.155   0.520
   28SOL     OW  105   0.113   0.737   1.597
   28SOL    HW1  106   0.201   0.724   1.642
   28SOL    HW2  107   0.100   0.834   1.575
   29SOL     OW  108   0.613   1.365   0.726
   29SOL    HW1  109   0.564   1.278   0.735
   29SOL    HW2  110   0.590   1.408   0.639
   30SOL     OW  111   1.293   1.228   1.423
   30SOL    HW1  112   1.330   1.155   1.365
   30SOL    HW2  113   1.345   1.233   1.508
   31SOL     OW  114   0.809   0.004   0.502
   31SOL    HW1  115   0.849   0.095   0.493
   31SOL    HW2  116   0.709   0.012   0.508
   32SOL     OW  117   0.197   0.976   1.264
   32SOL    HW1  118   0.286   0.931   1.250
   32SOL    HW2  119   0.124   0.911   1.245
   33SOL     OW  120   1.525   0.999   0.190
   33SOL    HW1  121   1.462   0.923   0.203
   33SOL    HW2  122   1.573   1.017   0.276
   34SOL     OW  123   1.187   1.792   1.616
   34SOL    HW1  124   1.211   1.852   1.540
   34SOL    HW2  125   1.194   1.697   1.586
   35SOL     OW  126   0.317   0.251   1.801
   35SOL    HW1  127   0.388   0.322   1.807
   35SOL    HW2  128   0.229   0.290   1.829
   36SOL     OW  129   1.466   1.417   0.953
   36SOL    HW1  130   1.407   1.423   1.033
   36SOL    HW2  131   1.451   1.329   0.907
   37SOL     OW  132   1.667   1.714   0.572
   37SOL    HW1  133   1.626   1.691   0.484
   37SOL    HW2  134   1.649   1.640   0.637
   38SOL     OW  135   0.598   0.729   0.270
   38SOL    HW1  136   0.622   0.798   0.202
   38SOL    HW2  137   0.520   0.762   0.324
   39SOL     OW  138   1.281   0.345   0.944
   39SOL    HW1  139   1.195   0.295   0.931
   39SOL    HW2  140   1.343   0.291   1.000
   40SOL     OW  141   1.576   1.662   0.307
   40SOL    HW1  142   1.665   1.708   0.310
   40SOL    HW2  143   1.555   1.638   0.212
   41SOL     OW  144   0.807   0.605   1.465
   41SOL    HW1  145   0.760   0.602   1.554
   41SOL    HW2  146   0.756   0.550   1.399
   42SOL     OW  147   1.394   0.469   1.674
   42SOL    HW1  148   1.374   0.512   1.762
   42SOL    HW2  149   1.472   0.407   1.683
   43SOL     OW  150   0.973   0.890   1.572
   43SOL    HW1  151   1.019   0.806   1.543
   43SOL    HW2  152   0.917   0.924   1.497
   44SOL     OW  153   0.991   0.410   1.242
   44SOL    HW1  154   0.914   0.444   1.296
   44SOL    HW2  155   0.957   0.359   1.163
   45SOL     OW  156   1.041   0.701   0.429
   45SOL    HW1  157   1.067   0.697   0.525
   45SOL    HW2  158   0.956   0.650   0.415
   46SOL     OW  159   0.076   0.811   0.789
   46SOL    HW1  160   0.175   0.799   0.798
   46SOL    HW2  161   0.052   0.906   0.810
   47SOL     OW  162   0.130   1.821   1.571
   47SOL    HW1  163   0.120   1.806   1.670
   47SOL    HW2  164   0.044   1.857   1.535
   48SOL     OW  165   0.865   0.348   0.195
   48SOL    HW1  166   0.924   0.411   0.146
   48SOL    HW2  167   0.884   0.254   0.166
   49SOL     OW  168   1.719   0.585   1.831
   49SOL    HW1  169   1.693   0.674   1.795
   49SOL    HW2  170   1.717   0.517   1.758
   50SOL     OW  171   1.362   1.144   0.545
   50SOL    HW1  172   1.445   1.115   0.497
   50SOL    HW2  173   1.313   1.211   0.489
   51SOL     OW  174   0.550   0.196   0.885
   51SOL    HW1  175   0.545   0.191   0.985
   51SOL    HW2  176   0.552   0.292   0.856
   52SOL     OW  177   1.008   1.456   0.477
   52SOL    HW1  178   0.962   1.528   0.425
   52SOL    HW2  179   1.004   1.476   0.575
   53SOL     OW  180   0.351   1.801   0.853
   53SOL    HW1  181   0.401   1.715   0.859
   53SOL    HW2  182   0.416   1.878   0.850
   54SOL     OW  183   1.795   1.066   0.873
   54SOL    HW1  184   1.733   1.051   0.797
   54SOL    HW2  185   1.743   1.077   0.958
   55SOL     OW  186   1.227   1.550   1.506
   55SOL    HW1  187   1.233   1.473   1.570
   55SOL    HW2  188   1.175   1.524   1.426
   56SOL     OW  189   0.321   0.943   0.242
   56SOL    HW1  190   0.403   0.982   0.200
   56SOL    HW2  191   0.294   0.861   0.193
   57SOL     OW  192   1.458   0.735   0.728
   57SOL    HW1  193   1.453   0.670   0.803
   57SOL    HW2  194   1.538   0.794   0.741
   58SOL     OW  195   0.461   1.266   1.727
   58SOL    HW1  196   0.411   1.267   1.641
   58SOL    HW2  197   0.398   1.248   1.803
   59SOL     OW  198   1.111   1.776   0.237
   59SOL    HW1  199   1.051   1.714   0.287
   59SOL    HW2  200   1.142   1.732   0.152
   60SOL     OW  201   0.202   0.285   1.498
   60SOL    HW1  202   0.122   0.345   1.485
   60SOL    HW2  203   0.192   0.236   1.584
   61SOL     OW  204   1.632   1.377   0.081
   61SOL    HW1  205   1.600   1.471   0.071
   61SOL    HW2  206   1.556   1.314   0.069
   62SOL     OW  207   0.464   1.743   0.323
   62SOL    HW1  208   0.497   1.782   0.409
   62SOL    HW2  209   0.540   1.736   0.258
   63SOL     OW  210   1.400   0.107   0.426
   63SOL    HW1  211   1.376   0.070   0.336
   63SOL    HW2  212   1.499   0.123   0.430
   64SOL     OW  213   0.249   1.785   1.241
   64SOL    HW1  214   0.306   1.720   1.291
   64SOL    HW2  215   0.233   1.752   1.148
   65SOL     OW  216   0.940   1.698   0.904
   65SOL    HW1  217   1.020   1.641   0.925
   65SOL    HW2  218   0.891   1.658   0.827
   66SOL     OW  219   0.382   0.700   0.480
   66SOL    HW1  220   0.427   0.610   0.477
   66SOL    HW2  221   0.288   0.689   0.513
   67SOL     OW  222   1.547   0.222   1.729
   67SOL    HW1  223   1.542   0.259   1.821
   67SOL    HW2  224   1.475   0.153   1.717
   68SOL     OW  225   0.614   0.122   0.117
   68SOL    HW1  226   0.712   0.100   0.124
   68SOL    HW2  227   0.583   0.105   0.024
   69SOL     OW  228   0.781   0.264   1.749
   69SOL    HW1  229   0.848   0.203   1.792
   69SOL    HW2  230   0.708   0.283   1.814
   70SOL     OW  231   0.888   1.514   1.195
   70SOL    HW1  232   0.865   1.489   1.101
   70SOL    HW2  233   0.949   1.445   1.234
   71SOL     OW  234   1.351   0.590   1.433
   71SOL    HW1  235   1.379   0.547   1.518
   71SOL    HW2  236   1.376   0.686   1.434
   72SOL     OW  237   0.803   1.402   0.924
   72SOL    HW1  238   0.893   1.416   0.882
   72SOL    HW2  239   0.732   1.404   0.853
   73SOL     OW  240   0.922   0.503   0.899
   73SOL    HW1  241   0.897   0.494   0.803
   73SOL    HW2  242   0.970   0.421   0.930
   74SOL     OW  243   0.539   0.064   0.512
   74SOL    HW1  244   0.458   0.065   0.570
   74SOL    HW2  245   0.542   0.147   0.457
   75SOL     OW  246   1.434   1.188   0.041
   75SOL    HW1  247   1.466   1.112   0.098
   75SOL    HW2  248   1.342   1.215   0.071
   76SOL     OW  249   0.297   0.035   0.171
   76SOL    HW1  250   0.346   0.119   0.150
   76SOL    HW2  251   0.359  -0.030   0.216
   77SOL     OW  252   0.935   0.236   0.480
   77SOL    HW1  253   0.887   0.277   0.402
   77SOL    HW2  254   1.034   0.234   0.461
   78SOL     OW  255   1.076   0.683   1.464
   78SOL    HW1  256   0.996   0.622   1.467
   78SOL    HW2  257   1.157   0.630   1.440
   79SOL     OW  258   1.227   1.570   0.793
   79SOL    HW1  259   1.248   1.644   0.728
   79SOL    HW2  260   1.295   1.570   0.866
   80SOL     OW  261   0.459   1.152   0.741
   80SOL    HW1  262   0.388   1.125   0.806
   80SOL    HW2  263   0.433   1.124   0.648
   81SOL     OW  264   1.271   1.797   0.591
   81SOL    HW1  265   1.315   1.861   0.527
   81SOL    HW2  266   1.221   1.849   0.661
   82SOL     OW  267   1.032   0.549   0.016
   82SOL    HW1  268   0.991   0.631  -0.023
   82SOL    HW2  269   1.096   0.575   0.089
   83SOL     OW  270   0.078   0.556   1.386
   83SOL    HW1  271   0.170   0.555   1.345
   83SOL    HW2  272   0.072   0.630   1.453
   84SOL     OW  273   0.561   0.222   1.147
   84SOL    HW1  274   0.599   0.138   1.184
   84SOL    HW2  275   0.473   0.241   1.191
   85SOL     OW  276   0.866   0.454   0.642
   85SOL    HW1  277   0.834   0.526   0.580
   85SOL    HW2  278   0.890   0.373   0.589
   86SOL     OW  279   1.017   0.039   0.753
   86SOL    HW1  280   0.945   0.044   0.684
   86SOL    HW2  281   0.993  -0.030   0.822
   87SOL     OW  282   1.429   1.173   0.867
   87SOL    HW1  283   1.374   1.089   0.860
   87SOL    HW2  284   1.455   1.202   0.775
   88SOL     OW  285   1.466   0.590   0.992
   88SOL    HW1  286   1.436   0.495   0.999
   88SOL    HW2  287   1.539   0.606   1.058
   89SOL     OW  288   1.857   0.833   0.377
   89SOL    HW1  289   1.899   0.769   0.441
   89SOL    HW2  290   1.819   0.782   0.299
   90SOL     OW  291   0.488   1.385   0.174
   90SOL    HW1  292   0.401   1.370   0.221
   90SOL    HW2  293   0.471   1.411   0.079
   91SOL     OW  294   1.664   1.280   0.657
   91SOL    HW1  295   1.763   1.288   0.671
   91SOL    HW2  296   1.619   1.364   0.688
   92SOL     OW  297   1.390   0.575   0.078
   92SOL    HW1  298   1.336   0.554   0.159
   92SOL    HW2  299   1.481   0.534   0.087
   93SOL     OW  300   0.527   0.256   0.328
   93SOL    HW1  301   0.554   0.197   0.253
   93SOL    HW2  302   0.527   0.351   0.297
   94SOL     OW  303   1.111   1.195   1.100
   94SOL    HW1  304   1.071   1.239   1.181
   94SOL    HW2  305   1.070   1.232   1.017
   95SOL     OW  306   1.638   1.099   1.079
   95SOL    HW1  307   1.643   1.180   1.138
   95SOL    HW2  308   1.552   1.101   1.028
   96SOL     OW  309   0.915   0.089   1.402
   96SOL    HW1  310   0.940   0.069   1.307
   96SOL    HW2  311   0.987   0.145   1.444
   97SOL     OW  312   0.980   1.116   1.719
   97SOL    HW1  313   0.881   1.122   1.729
   97SOL    HW2  314   1.003   1.036   1.663
   98SOL     OW  315   0.705   1.050   0.368
   98SOL    HW1  316   0.691   1.057   0.467
   98SOL    HW2  317   0.789   0.999   0.350
   99SOL     OW  318   0.410   0.813   1.251
   99SOL    HW1  319   0.496   0.825   1.301
   99SOL    HW2  320   0.368   0.726   1.278
  100SOL     OW  321   1.274   0.386   1.262
  100SOL    HW1  322   1.295   0.460   1.326
  100SOL    HW2  323   1.185   0.403   1.219
  101SOL     OW  324   0.064   1.564   1.331
  101SOL    HW1  325   0.018   1.646   1.297
  101SOL    HW2  326   0.162   1.583   1.340
  102SOL     OW  327   0.367   1.100   0.501
  102SOL    HW1  328   0.360   1.183   0.445
  102SOL    HW2  329   0.371   1.020   0.441
  103SOL     OW  330   0.566   0.537   0.865
  103SOL    HW1  331   0.578   0.603   0.791
  103SOL    HW2  332   0.612   0.571   0.948
  104SOL     OW  333   1.252   1.348   0.388
  104SOL    HW1  334   1.302   1.425   0.428
  104SOL    HW2  335   1.157   1.350   0.420
  105SOL     OW  336   1.582   0.639   0.472
  105SOL    HW1  337   1.551   0.700   0.545
  105SOL    HW2  338   1.632   0.691   0.403
  106SOL     OW  339   0.354   1.510   1.329
  106SOL    HW1  340   0.333   1.466   1.242
  106SOL    HW2  341   0.451   1.536   1.332
  107SOL     OW  342   0.402   0.751   1.598
  107SOL    HW1  343   0.470   0.806   1.551
  107SOL    HW2  344   0.442   0.663   1.625
  108SOL     OW  345   1.587   0.779   1.670
  108SOL    HW1  346   1.495   0.817   1.665
  108SOL    HW2  347   1.647   0.826   1.605
  109SOL     OW  348   1.013   0.105   1.770
  109SOL    HW1  349   1.019   0.190   1.718
  109SOL    HW2  350   1.045   0.029   1.713
  110SOL     OW  351   0.504   0.050   1.740
  110SOL    HW1  352   0.462  -0.007   1.670
  110SOL    HW2  353   0.438   0.119   1.772
  111SOL     OW  354   0.573   0.870   1.029
  111SOL    HW1  355   0.617   0.959   1.020
  111SOL    HW2  356   0.510   0.870   1.106
  112SOL     OW  357   1.360   0.862   1.045
  112SOL    HW1  358   1.285   0.862   0.979
  112SOL    HW2  359   1.397   0.770   1.054
  113SOL     OW  360   1.209   0.525   0.275
  113SOL    HW1  361   1.222   0.441   0.329
  113SOL    HW2  362   1.180   0.599   0.335
  114SOL     OW  363   0.307   0.213   1.231
  114SOL    HW1  364   0.284   0.250   1.321
  114SOL    HW2  365   0.277   0.118   1.225
  115SOL     OW  366   0.037   1.310   1.282
  115SOL    HW1  367   0.090   1.261   1.350
  115SOL    HW2  368   0.059   1.408   1.287
  116SOL     OW  369   0.732   0.634   1.064
  116SOL    HW1  370   0.791   0.608   0.988
  116SOL    HW2  371   0.704   0.730   1.053
  117SOL     OW  372   1.728   0.935   1.854
  117SOL    HW1  373   1.682   0.928   1.765
  117SOL    HW2  374   1.666   0.979   1.920
  118SOL     OW  375   0.307   0.063   0.618
  118SOL    HW1  376   0.296   0.157   0.651
  118SOL    HW2  377   0.302   0.000   0.695
  119SOL     OW  378   1.622   0.367   0.374
  119SOL    HW1  379   1.624   0.291   0.438
  119SOL    HW2  380   1.574   0.444   0.414
  120SOL     OW  381   1.023   0.766   0.966
  120SOL    HW1  382   1.038   0.787   1.062
  120SOL    HW2  383   0.993   0.671   0.957
  121SOL     OW  384   0.980   1.573   1.700
  121SOL    HW1  385   0.960   1.617   1.612
  121SOL    HW2  386   1.019   1.482   1.684
  122SOL     OW  387   0.350   0.898   1.804
  122SOL    HW1  388   0.426   0.942   1.852
  122SOL    HW2  389   0.385   0.851   1.722
  123SOL     OW  390   1.540   0.274   0.125
  123SOL    HW1  391   1.479   0.199   0.148
  123SOL    HW2  392   1.562   0.326   0.208
  124SOL     OW  393   1.303   0.838   0.042
  124SOL    HW1  394   1.337   0.745   0.057
  124SOL    HW2  395   1.321   0.865  -0.053
  125SOL     OW  396   1.068   1.333   0.849
  125SOL    HW1  397   1.075   1.249   0.794
  125SOL    HW2  398   1.130   1.402   0.813
  126SOL     OW  399   0.319   0.810   0.949
  126SOL    HW1  400   0.412   0.846   0.954
  126SOL    HW2  401   0.313   0.725   1.001
  127SOL     OW  402   0.339   0.509   1.006
  127SOL    HW1  403   0.287   0.426   0.989
  127SOL    HW2  404   0.416   0.514   0.942
  128SOL     OW  405   1.138   0.380   1.678
  128SOL    HW1  406   1.093   0.443   1.742
  128SOL    HW2  407   1.231   0.411   1.661
  129SOL     OW  408   1.160   0.207   1.477
  129SOL    HW1  409   1.160   0.271   1.554
  129SOL    HW2  410   1.188   0.255   1.394
  130SOL     OW  411   0.008   1.326   0.200
  130SOL    HW1  412  -0.085   1.347   0.169
  130SOL    HW2  413   0.018   1.227   0.213
  131SOL     OW  414   0.088   1.801   0.927
  131SOL    HW1  415   0.046   1.715   0.900
  131SOL    HW2  416   0.182   1.804   0.893
  132SOL     OW  417   0.504   1.568   0.910
  132SOL    HW1  418   0.570   1.642   0.919
  132SOL    HW2  419   0.548   1.489   0.868
  133SOL     OW  420   1.002   0.796   1.238
  133SOL    HW1  421   1.043   0.764   1.324
  133SOL    HW2  422   0.906   0.769   1.235
  134SOL     OW  423   0.040   0.544   1.114
  134SOL    HW1  424   0.125   0.511   1.073
  134SOL    HW2  425   0.053   0.559   1.212
  135SOL     OW  426   0.189   0.520   1.722
  135SOL    HW1  427   0.248   0.480   1.652
  135SOL    HW2  428   0.131   0.591   1.681
  136SOL     OW  429   1.369   0.950   1.660
  136SOL    HW1  430   1.408   1.039   1.680
  136SOL    HW2  431   1.379   0.930   1.563
  137SOL     OW  432   0.815   0.572   0.325
  137SOL    HW1  433   0.822   0.483   0.279
  137SOL    HW2  434   0.721   0.606   0.317
  138SOL     OW  435   1.657   0.604   1.206
  138SOL    HW1  436   1.619   0.535   1.268
  138SOL    HW2  437   1.739   0.568   1.162
  139SOL     OW  438   0.252   1.564   1.744
  139SOL    HW1  439   0.222   1.621   1.820
  139SOL    HW2  440   0.245   1.467   1.770
  140SOL     OW  441   0.671   0.464   1.269
  140SOL    HW1  442   0.637   0.375   1.239
  140SOL    HW2  443   0.697   0.518   1.189
  141SOL     OW  444   0.930   1.678   1.465
  141SOL    HW1  445   0.906   1.660   1.370
  141SOL    HW2  446   0.960   1.772   1.475
  142SOL     OW  447   0.473   0.500   0.191
  142SOL    HW1  448   0.534   0.580   0.195
  142SOL    HW2  449   0.378   0.531   0.198
  143SOL     OW  450   0.159   1.137   1.466
  143SOL    HW1  451   0.181   1.076   1.542
  143SOL    HW2  452   0.169   1.088   1.380
  144SOL     OW  453   1.302   0.855   0.309
  144SOL    HW1  454   1.216   0.824   0.351
  144SOL    HW2  455   1.298   0.841   0.210
  145SOL     OW  456   1.759   1.747   1.154
  145SOL    HW1  457   1.820   1.777   1.081
  145SOL    HW2  458   1.721   1.658   1.132
  146SOL     OW  459   1.252   1.731   1.128
  146SOL    HW1  460   1.336   1.736   1.074
  146SOL    HW2  461   1.229   1.635   1.146
  147SOL     OW  462   0.083   1.258   1.022
  147SOL    HW1  463   0.078   1.257   1.122
  147SOL    HW2  464   0.000   1.217   0.984
  148SOL     OW  465   0.688   1.662   1.716
  148SOL    HW1  466   0.632   1.743   1.725
  148SOL    HW2  467   0.740   1.666   1.630
  149SOL     OW  468   0.903   0.086   0.133
  149SOL    HW1  469   0.954   0.087   0.047
  149SOL    HW2  470   0.959   0.044   0.204
  150SOL     OW  471   1.726   0.135   0.523
  150SOL    HW1  472   1.799   0.118   0.456
  150SOL    HW2  473   1.695   0.048   0.561
  151SOL     OW  474   1.388   1.573   0.477
  151SOL    HW1  475   1.455   1.585   0.403
  151SOL    HW2  476   1.348   1.662   0.500
  152SOL     OW  477   0.130   1.794   1.851
  152SOL    HW1  478   0.089   1.720   1.904
  152SOL    HW2  479   0.194   1.845   1.909
  153SOL     OW  480   1.280   0.927   0.672
  153SOL    HW1  481   1.340   0.846   0.674
  153SOL    HW2  482   1.320   0.996   0.612
  154SOL     OW  483   0.830   1.273   1.422
  154SOL    HW1  484   0.825   1.306   1.517
  154SOL    HW2  485   0.744   1.292   1.376
  155SOL     OW  486   0.672   1.616   0.154
  155SOL    HW1  487   0.681   1.626   0.055
  155SOL    HW2  488   0.632   1.527   0.175
  156SOL     OW  489   1.841   0.175   0.963
  156SOL    HW1  490   1.880   0.090   0.927
  156SOL    HW2  491   1.743   0.177   0.944
  157SOL     OW  492   0.263   0.326   0.720
  157SOL    HW1  493   0.184   0.377   0.686
  157SOL    HW2  494   0.254   0.311   0.818
  158SOL     OW  495   1.194   1.612   0.031
  158SOL    HW1  496   1.200   1.519   0.068
  158SOL    HW2  497   1.135   1.612  -0.049
  159SOL     OW  498   0.822   1.002   1.372
  159SOL    HW1  499   0.862   1.001   1.280
  159SOL    HW2  500   0.832   1.094   1.412
  160SOL     OW  501   0.916   0.910   0.291
  160SOL    HW1  502   0.979   0.948   0.223
  160SOL    HW2  503   0.956   0.827   0.330
  161SOL     OW  504   1.504   1.607   0.044
  161SOL    HW1  505   1.412   1.644   0.051
  161SOL    HW2  506   1.542   1.627  -0.046
  162SOL     OW  507   0.372   1.288   1.490
  162SOL    HW1  508   0.359   1.381   1.456
  162SOL    HW2  509   0.288   1.236   1.477
  163SOL     OW  510   1.039   1.098   0.696
  163SOL    HW1  511   0.969   1.051   0.750
  163SOL    HW2  512   1.098   1.030   0.653
  164SOL     OW  513   1.014   0.236   0.971
  164SOL    HW1  514   1.006   0.200   0.878
  164SOL    HW2  515   1.012   0.160   1.036
  165SOL     OW  516   0.590   1.487   0.491
  165SOL    HW1  517   0.632   1.429   0.421
  165SOL    HW2  518   0.546   1.566   0.447
  166SOL     OW  519   1.709   0.385   1.381
  166SOL    HW1  520   1.782   0.454   1.385
  166SOL    HW2  521   1.737   0.310   1.322
  167SOL     OW  522   0.255   1.348   0.290
  167SOL    HW1  523   0.159   1.349   0.263
  167SOL    HW2  524   0.267   1.401   0.374
  168SOL     OW  525   0.105   1.013   1.726
  168SOL    HW1  526   0.028   0.980   1.780
  168SOL    HW2  527   0.190   0.983   1.768
  169SOL     OW  528   0.672   0.203   1.489
  169SOL    HW1  529   0.762   0.187   1.449
  169SOL    HW2  530   0.680   0.208   1.588
  170SOL     OW  531   0.075   0.345   0.033
  170SOL    HW1  532  -0.017   0.317   0.004
  170SOL    HW2  533   0.106   0.422  -0.023
  171SOL     OW  534   1.440   0.856   1.398
  171SOL    HW1  535   1.383   0.908   1.335
  171SOL    HW2  536   1.536   0.868   1.374
  172SOL     OW  537   0.072   0.166   0.318
  172SOL    HW1  538   0.055   0.249   0.264
  172SOL    HW2  539   0.162   0.129   0.296
  173SOL     OW  540   1.183   1.335   0.119
  173SOL    HW1  541   1.084   1.324   0.121
  173SOL    HW2  542   1.217   1.350   0.212
  174SOL     OW  543   0.613   0.842   1.431
  174SOL    HW1  544   0.669   0.923   1.414
  174SOL    HW2  545   0.672   0.762   1.434
  175SOL     OW  546   1.493   1.767   0.959
  175SOL    HW1  547   1.526   1.831   0.890
  175SOL    HW2  548   1.559   1.761   1.034
  176SOL     OW  549   0.716   0.565   1.708
  176SOL    HW1  550   0.735   0.630   1.782
  176SOL    HW2  551   0.776   0.485   1.717
  177SOL     OW  552   1.450   1.220   1.633
  177SOL    HW1  553   1.441   1.210   1.732
  177SOL    HW2  554   1.546   1.213   1.607
  178SOL     OW  555   0.390   1.741   1.560
  178SOL    HW1  556   0.299   1.782   1.558
  178SOL    HW2  557   0.383   1.647   1.592
  179SOL     OW  558   1.674   0.883   1.254
  179SOL    HW1  559   1.647   0.794   1.217
  179SOL    HW2  560   1.675   0.951   1.181
  180SOL     OW  561   1.225   0.325   0.449
  180SOL    HW1  562   1.290   0.251   0.438
  180SOL    HW2  563   1.245   0.375   0.533
  181SOL     OW  564   0.594   0.745   0.652
  181SOL    HW1  565   0.644   0.830   0.633
  181SOL    HW2  566   0.506   0.747   0.604
  182SOL     OW  567   1.777   0.342   1.642
  182SOL    HW1  568   1.760   0.373   1.548
  182SOL    HW2  569   1.693   0.305   1.680
  183SOL     OW  570   1.730   0.934   1.517
  183SOL    HW1  571   1.768   1.025   1.532
  183SOL    HW2  572   1.722   0.917   1.418
  184SOL     OW  573   0.859   1.374   0.016
  184SOL    HW1  574   0.813   1.389   0.104
  184SOL    HW2  575   0.903   1.459  -0.014
  185SOL     OW  576   0.661   1.790   0.953
  185SOL    HW1  577   0.615   1.878   0.940
  185SOL    HW2  578   0.760   1.802   0.946
  186SOL     OW  579   0.859   0.956   0.861
  186SOL    HW1  580   0.913   0.887   0.909
  186SOL    HW2  581   0.827   1.025   0.927
  187SOL     OW  582   1.083   0.984   0.087
  187SOL    HW1  583   1.060   1.037   0.005
  187SOL    HW2  584   1.164   0.928   0.068
  188SOL     OW  585   1.861   1.569   0.851
  188SOL    HW1  586   1.790   1.557   0.781
  188SOL    HW2  587   1.862   1.490   0.911
  189SOL     OW  588   0.221   1.314   1.844
  189SOL    HW1  589   0.156   1.241   1.823
  189SOL    HW2  590   0.225   1.328   1.942
  190SOL     OW  591   0.079   1.240   0.653
  190SOL    HW1  592   0.078   1.193   0.741
  190SOL    HW2  593   0.161   1.212   0.602
  191SOL     OW  594   0.672   1.391   1.624
  191SOL    HW1  595   0.594   1.341   1.662
  191SOL    HW2  596   0.669   1.486   1.655
  192SOL     OW  597   1.824   0.192   1.227
  192SOL    HW1  598   1.820   0.102   1.271
  192SOL    HW2  599   1.827   0.181   1.128
  193SOL     OW  600   0.428   0.424   0.520
  193SOL    HW1  601   0.458   0.352   0.458
  193SOL    HW2  602   0.389   0.384   0.603
  194SOL     OW  603   1.705   1.487   1.104
  194SOL    HW1  604   1.612   1.462   1.077
  194SOL    HW2  605   1.731   1.437   1.186
  195SOL     OW  606   0.317   0.547   1.280
  195SOL    HW1  607   0.355   0.488   1.352
  195SOL    HW2  608   0.357   0.521   1.192
  196SOL     OW  609   0.812   1.586   0.687
  196SOL    HW1  610   0.844   1.596   0.593
  196SOL    HW2  611   0.733   1.524   0.689
  197SOL     OW  612   1.424   0.214   1.112
  197SOL    HW1  613   1.476   0.149   1.167
  197SOL    HW2  614   1.375   0.277   1.173
  198SOL     OW  615   1.001   0.034   1.154
  198SOL    HW1  616   0.938  -0.038   1.123
  198SOL    HW2  617   1.094  -0.002   1.154
  199SOL     OW  618   0.770   1.330   0.301
  199SOL    HW1  619   0.724   1.243   0.318
  199SOL    HW2  620   0.861   1.327   0.342
  200SOL     OW  621   0.618   1.567   1.284
  200SOL    HW1  622   0.613   1.649   1.341
  200SOL    HW2  623   0.707   1.564   1.239
  201SOL     OW  624   1.352   0.052   0.168
  201SOL    HW1  625   1.387   0.011   0.084
  201SOL    HW2  626   1.262   0.014   0.188
  202SOL     OW  627   1.300   0.453   0.691
  202SOL    HW1  628   1.241   0.533   0.695
  202SOL    HW2  629   1.315   0.418   0.784
  203SOL     OW  630   1.593   0.221   0.882
  203SOL    HW1  631   1.509   0.220   0.936
  203SOL    HW2  632   1.595   0.304   0.826
  204SOL     OW  633   0.039   1.077   0.300
  204SOL    HW1  634   0.138   1.066   0.291
  204SOL    HW2  635  -0.001   0.991   0.332
  205SOL     OW  636   0.875   1.646   0.337
  205SOL    HW1  637   0.798   1.611   0.283
  205SOL    HW2  638   0.843   1.717   0.399
  206SOL     OW  639   0.230   0.628   1.975
  206SOL    HW1  640   0.137   0.626   2.012
  206SOL    HW2  641   0.231   0.589   1.883
  207SOL     OW  642   0.225   0.275   2.858
  207SOL    HW1  643   0.260   0.258   2.950
  207SOL    HW2  644   0.137   0.230   2.846
  208SOL     OW  645   0.019   0.368   2.509
  208SOL    HW1  646  -0.063   0.411   2.548
  208SOL    HW2  647  -0.009   0.295   2.446
  209SOL     OW  648   1.555   1.511   2.565
  209SOL    HW1  649   1.498   1.495   2.646
  209SOL    HW2  650   1.496   1.521   2.485
  210SOL     OW  651   1.135   0.703   2.579
  210SOL    HW1  652   1.192   0.781   2.554
  210SOL    HW2  653   1.075   0.729   2.655
  211SOL     OW  654   1.755   0.607   2.093
  211SOL    HW1  655   1.743   0.594   1.994
  211SOL    HW2  656   1.725   0.526   2.142
  212SOL     OW  657   0.768   1.144   2.885
  212SOL    HW1  658   0.690   1.161   2.945
  212SOL    HW2  659   0.802   1.231   2.849
  213SOL     OW  660   0.685   1.012   2.527
  213SOL    HW1  661   0.754   0.996   2.597
  213SOL    HW2  662   0.612   1.069   2.565
  214SOL     OW  663   0.335   1.435   2.923
  214SOL    HW1  664   0.257   1.404   2.870
  214SOL    HW2  665   0.393   1.493   2.866
  215SOL     OW  666   1.603   0.447   2.599
  215SOL    HW1  667   1.529   0.493   2.549
  215SOL    HW2  668   1.654   0.515   2.652
  216SOL     OW  669   0.231   1.713   2.345
  216SOL    HW1  670   0.265   1.790   2.399
  216SOL    HW2  671   0.275   1.713   2.255
  217SOL     OW  672   0.230   1.434   2.400
  217SOL    HW1  673   0.204   1.530   2.400
  217SOL    HW2  674   0.159   1.380   2.445
  218SOL     OW  675   0.240   1.091   2.748
  218SOL    HW1  676   0.254   1.007   2.800
  218SOL    HW2  677   0.185   1.155   2.803
  219SOL     OW  678   0.606   0.964   1.985
  219SOL    HW1  679   0.613   1.048   1.931
  219SOL    HW2  680   0.652   0.977   2.073
  220SOL     OW  681   0.122   0.643   2.425
  220SOL    HW1  682   0.077   0.555   2.442
  220SOL    HW2  683   0.121   0.697   2.509
  221SOL     OW  684   1.842   1.767   2.221
  221SOL    HW1  685   1.896   1.738   2.301
  221SOL    HW2  686   1.872   1.857   2.192
  222SOL     OW  687   0.027   1.596   1.979
  222SOL    HW1  688   0.008   1.500   2.000
  222SOL    HW2  689  -0.006   1.654   2.054
  223SOL     OW  690   1.689   0.922   2.474
  223SOL    HW1  691   1.784   0.893   2.482
  223SOL    HW2  692   1.681   0.987   2.399
  224SOL     OW  693   1.641   1.108   2.294
  224SOL    HW1  694   1.727   1.110   2.242
  224SOL    HW2  695   1.655   1.155   2.382
  225SOL     OW  696   0.613   1.365   2.588
  225SOL    HW1  697   0.564   1.278   2.597
  225SOL    HW2  698   0.590   1.408   2.501
  226SOL     OW  699   0.809   0.004   2.364
  226SOL    HW1  700   0.849   0.095   2.355
  226SOL    HW2  701   0.709   0.012   2.370
  227SOL     OW  702   0.197   0.976   3.126
  227SOL    HW1  703   0.286   0.931   3.112
  227SOL    HW2  704   0.124   0.911   3.107
  228SOL     OW  705   1.525   0.999   2.052
  228SOL    HW1  706   1.462   0.923   2.065
  228SOL    HW2  707   1.573   1.017   2.138
  229SOL     OW  708   1.466   1.417   2.815
  229SOL    HW1  709   1.407   1.423   2.895
  229SOL    HW2  710   1.451   1.329   2.769
  230SOL     OW  711   1.667   1.714   2.434
  230SOL    HW1  712   1.626   1.691   2.346
  230SOL    HW2  713   1.649   1.640   2.499
  231SOL     OW  714   0.598   0.729   2.132
  231SOL    HW1  715   0.622   0.798   2.064
  231SOL    HW2  716   0.520   0.762   2.186
  232SOL     OW  717   1.281   0.345   2.806
  232SOL    HW1  718   1.195   0.295   2.793
  232SOL    HW2  719   1.343   0.291   2.862
  233SOL     OW  720   1.576   1.662   2.169
  233SOL    HW1  721   1.665   1.708   2.172
  233SOL    HW2  722   1.555   1.638   2.074
  234SOL     OW  723   1.041   0.701   2.291
  234SOL    HW1  724   1.067   0.697   2.387
  234SOL    HW2  725   0.956   0.650   2.277
  235SOL     OW  726   0.076   0.811   2.651
  235SOL    HW1  727   0.175   0.799   2.660
  235SOL    HW2  728   0.052   0.906   2.672
  236SOL     OW  729   0.865   0.348   2.057
  236SOL    HW1  730   0.924   0.411   2.008
  236SOL    HW2  731   0.884   0.254   2.028
  237SOL     OW  732   1.362   1.144   2.407
  237SOL    HW1  733   1.445   1.115   2.359
  237SOL    HW2  734   1.313   1.211   2.351
  238SOL     OW  735   0.550   0.196   2.747
  238SOL    HW1  736   0.545   0.191   2.847
  238SOL    HW2  737   0.552   0.292   2.718
  239SOL     OW  738   1.008   1.456   2.339
  239SOL    HW1  739   0.962   1.528   2.287
  239SOL    HW2  740   1.004   1.476   2.437
  240SOL     OW  741   0.351   1.801   2.715
  240SOL    HW1  742   0.401   1.715   2.721
  240SOL    HW2  743   0.416   1.878   2.712
  241SOL     OW  744   1.795   1.066   2.735
  241SOL    HW1  745   1.733   1.051   2.659
  241SOL    HW2  746   1.743   1.077   2.820
  242SOL     OW  747   0.321   0.943   2.104
  242SOL    HW1  748   0.403   0.982   2.062
  242SOL    HW2  749   0.294   0.861   2.055
  243SOL     OW  750   1.458   0.735   2.590
  243SOL    HW1  751   1.453   0.670   2.665
  243SOL    HW2  752   1.538   0.794   2.603
  244SOL     OW  753   1.111   1.776   2.099
  244SOL    HW1  754   1.051   1.714   2.149
  244SOL    HW2  755   1.142   1.732   2.014
  245SOL     OW  756   1.632   1.377   1.943
  245SOL    HW1  757   1.600   1.471   1.933
  245SOL    HW2  758   1.556   1.314   1.931
  246SOL     OW  759   0.464   1.743   2.185
  246SOL    HW1  760   0.497   1.782   2.271
  246SOL    HW2  761   0.540   1.736   2.120
  247SOL     OW  762   1.400   0.107   2.288
  247SOL    HW1  763   1.376   0.070   2.198
  247SOL    HW2  764   1.499   0.123   2.292
  248SOL     OW  765   0.249   1.785   3.103
  248SOL    HW1  766   0.306   1.720   3.153
  248SOL    HW2  767   0.233   1.752   3.010
  249SOL     OW  768   0.940   1.698   2.766
  249SOL    HW1  769   1.020   1.641   2.787
  249SOL    HW2  770   0.891   1.658   2.689
  250SOL     OW  771   0.382   0.700   2.342
  250SOL    HW1  772   0.427   0.610   2.339
  250SOL    HW2  773   0.288   0.689   2.375
  251SOL     OW  774   0.614   0.122   1.979
  251SOL    HW1  775   0.712   0.100   1.986
  251SOL    HW2  776   0.583   0.105   1.886
  252SOL     OW  777   0.803   1.402   2.786
  252SOL    HW1  778   0.893   1.416   2.744
  252SOL    HW2  779   0.732   1.404   2.715
  253SOL     OW  780   0.922   0.503   2.761
  253SOL    HW1  781   0.897   0.494   2.665
  253SOL    HW2  782   0.970   0.421   2.792
  254SOL     OW  783   0.539   0.064   2.374
  254SOL    HW1  784   0.458   0.065   2.432
  254SOL    HW2  785   0.542   0.147   2.319
  255SOL     OW  786   1.434   1.188   1.903
  255SOL    HW1  787   1.466   1.112   1.960
  255SOL    HW2  788   1.342   1.215   1.933
  256SOL     OW  789   0.297   0.035   2.033
  256SOL    HW1  790   0.346   0.119   2.012
  256SOL    HW2  791   0.359  -0.030   2.078
  257SOL     OW  792   0.935   0.236   2.342
  257SOL    HW1  793   0.887   0.277   2.264
  257SOL    HW2  794   1.034   0.234   2.323
  258SOL     OW  795   1.227   1.570   2.655
  258SOL    HW1  796   1.248   1.644   2.590
  258SOL    HW2  797   1.295   1.570   2.728
  259SOL     OW  798   0.459   1.152   2.603
  259SOL    HW1  799   0.388   1.125   2.668
  259SOL    HW2  800   0.433   1.124   2.510
  260SOL     OW  801   1.271   1.797   2.453
  260SOL    HW1  802   1.315   1.861   2.389
  260SOL    HW2  803   1.221   1.849   2.523
  261SOL     OW  804   1.032   0.549   1.878
  261SOL    HW1  805   0.991   0.631   1.839
  261SOL    HW2  806   1.096   0.575   1.951
  262SOL     OW  807   0.866   0.454   2.504
  262SOL    HW1  808   0.834   0.526   2.442
  262SOL    HW2  809   0.890   0.373   2.451
  263SOL     OW  810   1.017   0.039   2.615
  263SOL    HW1  811   0.945   0.044   2.546
  263SOL    HW2  812   0.993  -0.030   2.684
  264SOL     OW  813   1.429   1.173   2.729
  264SOL    HW1  814   1.374   1.089   2.722
  264SOL    HW2  815   1.455   1.202   2.637
  265SOL     OW  816   1.466   0.590   2.854
  265SOL    HW1  817   1.436   0.495   2.861
  265SOL    HW2  818   1.539   0.606   2.920
  266SOL     OW  819   1.857   0.833   2.239
  266SOL    HW1  820   1.899   0.769   2.303
  266SOL    HW2  821   1.819   0.782   2.161
  267SOL     OW  822   0.488   1.385   2.036
  267SOL    HW1  823   0.401   1.370   2.083
  267SOL    HW2  824   0.471   1.411   1.941
  268SOL     OW  825   1.664   1.280   2.519
  268SOL    HW1  826   1.763   1.288   2.533
  268SOL    HW2  827   1.619   1.364   2.550
  269SOL     OW  828   1.390   0.575   1.940
  269SOL    HW1  829   1.336   0.554   2.021
  269SOL    HW2  830   1.481   0.534   1.949
  270SOL     OW  831   0.527   0.256   2.190
  270SOL    HW1  832   0.554   0.197   2.115
  270SOL    HW2  833   0.527   0.351   2.159
  271SOL     OW  834   1.111   1.195   2.962
  271SOL    HW1  835   1.071   1.239   3.043
  271SOL    HW2  836   1.070   1.232   2.879
  272SOL     OW  837   1.638   1.099   2.941
  272SOL    HW1  838   1.643   1.180   3.000
  272SOL    HW2  839   1.552   1.101   2.890
  273SOL     OW  840   0.705   1.050   2.230
  273SOL    HW1  841   0.691   1.057   2.329
  273SOL    HW2  842   0.789   0.999   2.212
  274SOL     OW  843   0.410   0.813   3.113
  274SOL    HW1  844   0.496   0.825   3.163
  274SOL    HW2  845   0.368   0.726   3.140
  275SOL     OW  846   0.367   1.100   2.363
  275SOL    HW1  847   0.360   1.183   2.307
  275SOL    HW2  848   0.371   1.020   2.303
  276SOL     OW  849   0.566   0.537   2.727
  276SOL    HW1  850   0.578   0.603   2.653
  276SOL    HW2  851   0.612   0.571   2.810
  277SOL     OW  852   1.252   1.348   2.250
  277SOL    HW1  853   1.302   1.425   2.290
  277SOL    HW2  854   1.157   1.350   2.282
  278SOL     OW  855   1.582   0.639   2.334
  278SOL    HW1  856   1.551   0.700   2.407
  278SOL    HW2  857   1.632   0.691   2.265
  279SOL     OW  858   0.354   1.510   3.191
  279SOL    HW1  859   0.333   1.466   3.104
  279SOL    HW2  860   0.451   1.536   3.194
  280SOL     OW  861   0.573   0.870   2.891
  280SOL    HW1  862   0.617   0.959   2.882
  280SOL    HW2  863   0.510   0.870   2.968
  281SOL     OW  864   1.209   0.525   2.137
  281SOL    HW1  865   1.222   0.441   2.191
  281SOL    HW2  866   1.180   0.599   2.197
  282SOL     OW  867   0.732   0.634   2.926
  282SOL    HW1  868   0.791   0.608   2.850
  282SOL    HW2  869   0.704   0.730   2.915
  283SOL     OW  870   0.307   0.063   2.480
  283SOL    HW1  871   0.296   0.157   2.513
  283SOL    HW2  872   0.302   0.000   2.557
  284SOL     OW  873   1.622   0.367   2.236
  284SOL    HW1  874   1.624   0.291   2.300
  284SOL    HW2  875   1.574   0.444   2.276
  285SOL     OW  876   1.023   0.766   2.828
  285SOL    HW1  877   1.038   0.787   2.924
  285SOL    HW2  878   0.993   0.671   2.819
  286SOL     OW  879   1.540   0.274   1.987
  286SOL    HW1  880   1.479   0.199   2.010
  286SOL    HW2  881   1.562   0.326   2.070
  287SOL     OW  882   1.303   0.838   1.904
  287SOL    HW1  883   1.337   0.745   1.919
  287SOL    HW2  884   1.321   0.865   1.809
  288SOL     OW  885   1.068   1.333   2.711
  288SOL    HW1  886   1.075   1.249   2.656
  288SOL    HW2  887   1.130   1.402   2.675
  289SOL     OW  888   0.319   0.810   2.811
  289SOL    HW1  889   0.412   0.846   2.816
  289SOL    HW2  890   0.313   0.725   2.863
  290SOL     OW  891   0.339   0.509   2.868
  290SOL    HW1  892   0.287   0.426   2.851
  290SOL    HW2  893   0.416   0.514   2.804
  291SOL     OW  894   0.008   1.326   2.062
  291SOL    HW1  895  -0.085   1.347   2.031
  291SOL    HW2  896   0.018   1.227   2.075
  292SOL     OW  897   0.088   1.801   2.789
  292SOL    HW1  898   0.046   1.715   2.762
  292SOL    HW2  899   0.182   1.804   2.755
  293SOL     OW  900   0.504   1.568   2.772
  293SOL    HW1  901   0.570   1.642   2.781
  293SOL    HW2  902   0.548   1.489   2.730
  294SOL     OW  903   1.002   0.796   3.100
  294SOL    HW1  904   1.043   0.764   3.186
  294SOL    HW2  905   0.906   0.769   3.097
  295SOL     OW  906   0.815   0.572   2.187
  295SOL    HW1  907   0.822   0.483   2.141
  295SOL    HW2  908   0.721   0.606   2.179
  296SOL     OW  909   0.671   0.464   3.131
  296SOL    HW1  910   0.637   0.375   3.101
  296SOL    HW2  911   0.697   0.518   3.051
  297SOL     OW  912   0.473   0.500   2.053
  297SOL    HW1  913   0.534   0.580   2.057
  297SOL    HW2  914   0.378   0.531   2.060
  298SOL     OW  915   1.302   0.855   2.171
  298SOL    HW1  916   1.216   0.824   2.213
  298SOL    HW2  917   1.298   0.841   2.072
  299SOL     OW  918   1.759   1.747   3.016
  299SOL    HW1  919   1.820   1.777   2.943
  299SOL    HW2  920   1.721   1.658   2.994
  300SOL     OW  921   0.083   1.258   2.884
  300SOL    HW1  922   0.078   1.257   2.984
  300SOL    HW2  923   0.000   1.217   2.846
  301SOL     OW  924   1.726   0.135   2.385
  301SOL    HW1  925   1.799   0.118   2.318
  301SOL    HW2  926   1.695   0.048   2.423
  302SOL     OW  927   1.388   1.573   2.339
  302SOL    HW1  928   1.455   1.585   2.265
  302SOL    HW2  929   1.348   1.662   2.362
  303SOL     OW  930   1.280   0.927   2.534
  303SOL    HW1  931   1.340   0.846   2.536
  303SOL    HW2  932   1.320   0.996   2.474
  304SOL     OW  933   0.672   1.616   2.016
  304SOL    HW1  934   0.681   1.626   1.917
  304SOL    HW2  935   0.632   1.527   2.037
  305SOL     OW  936   1.841   0.175   2.825
  305SOL    HW1  937   1.880   0.090   2.789
  305SOL    HW2  938   1.743   0.177   2.806
  306SOL     OW  939   0.263   0.326   2.582
  306SOL    HW1  940   0.184   0.377   2.548
  306SOL    HW2  941   0.254   0.311   2.680
  307SOL     OW  942   1.194   1.612   1.893
  307SOL    HW1  943   1.200   1.519   1.930
  307SOL    HW2  944   1.135   1.612   1.813
  308SOL     OW  945   0.916   0.910   2.153
  308SOL    HW1  946   0.979   0.948   2.085
  308SOL    HW2  947   0.956   0.827   2.192
  309SOL     OW  948   1.039   1.098   2.558
  309SOL    HW1  949   0.969   1.051   2.612
  309SOL    HW2  950   1.098   1.030   2.515
  310SOL     OW  951   1.014   0.236   2.833
  310SOL    HW1  952   1.006   0.200   2.740
  310SOL    HW2  953   1.012   0.160   2.898
  311SOL     OW  954   0.590   1.487   2.353
  311SOL    HW1  955   0.632   1.429   2.283
  311SOL    HW2  956   0.546   1.566   2.309
  312SOL     OW  957   0.255   1.348   2.152
  312SOL    HW1  958   0.159   1.349   2.125
  312SOL    HW2  959   0.267   1.401   2.236
  313SOL     OW  960   0.075   0.345   1.895
  313SOL    HW1  961  -0.017   0.317   1.866
  313SOL    HW2  962   0.106   0.422   1.839
  314SOL     OW  963   0.072   0.166   2.180
  314SOL    HW1  964   0.055   0.249   2.126
  314SOL    HW2  965   0.162   0.129   2.158
  315SOL     OW  966   1.183   1.335   1.981
  315SOL    HW1  967   1.084   1.324   1.983
  315SOL    HW2  968   1.217   1.350   2.074
  316SOL     OW  969   1.493   1.767   2.821
  316SOL    HW1  970   1.526   1.831   2.752
  316SOL    HW2  971   1.559   1.761   2.896
  317SOL     OW  972   1.674   0.883   3.116
  317SOL    HW1  973   1.647   0.794   3.079
  317SOL    HW2  974   1.675   0.951   3.043
  318SOL     OW  975   1.225   0.325   2.311
  318SOL    HW1  976   1.290   0.251   2.300
  318SOL    HW2  977   1.245   0.375   2.395
  319SOL     OW  978   0.594   0.745   2.514
  319SOL    HW1  979   0.644   0.830   2.495
  319SOL    HW2  980   0.506   0.747   2.466
  320SOL     OW  981   0.859   1.374   1.878
  320SOL    HW1  982   0.813   1.389   1.966
  320SOL    HW2  983   0.903   1.459   1.848
  321SOL     OW  984   0.661   1.790   2.815
  321SOL    HW1  985   0.615   1.878   2.802
  321SOL    HW2  986   0.760   1.802   2.808
  322SOL     OW  987   0.859   0.956   2.723
  322SOL    HW1  988   0.913   0.887   2.771
  322SOL    HW2  989   0.827   1.025   2.789
  323SOL     OW  990   1.083   0.984   1.949
  323SOL    HW1  991   1.060   1.037   1.867
  323SOL    HW2  992   1.164   0.928   1.930
  324SOL     OW  993   1.861   1.569   2.713
  324SOL    HW1  994   1.790   1.557   2.643
  324SOL    HW2  995   1.862   1.490   2.773
  325SOL     OW  996   0.079   1.240   2.515
  325SOL    HW1  997   0.078   1.193   2.603
  325SOL    HW2  998   0.161   1.212   2.464
  326SOL     OW  999   1.824   0.192   3.089
  326SOL    HW1 1000   1.820   0.102   3.133
  326SOL    HW2 1001   1.827   0.181   2.990
  327SOL     OW 1002   0.428   0.424   2.382
  327SOL    HW1 1003   0.458   0.352   2.320
  327SOL    HW2 1004   0.389   0.384   2.465
  328SOL     OW 1005   0.812   1.586   2.549
  328SOL    HW1 1006   0.844   1.596   2.455
  328SOL    HW2 1007   0.733   1.524   2.551
  329SOL     OW 1008   1.424   0.214   2.974
  329SOL    HW1 1009   1.476   0.149   3.029
  329SOL    HW2 1010   1.375   0.277   3.035
  330SOL     OW 1011   0.770   1.330   2.163
  330SOL    HW1 1012   0.724   1.243   2.180
  330SOL    HW2 1013   0.861   1.327   2.204
  331SOL     OW 1014   1.352   0.052   2.030
  331SOL    HW1 1015   1.387   0.011   1.946
  331SOL    HW2 1016   1.262   0.014   2.050
  332SOL     OW 1017   1.300   0.453   2.553
  332SOL    HW1 1018   1.241   0.533   2.557
  332SOL    HW2 1019   1.315   0.418   2.646
  333SOL     OW 1020   1.593   0.221   2.744
  333SOL    HW1 1021   1.509   0.220   2.798
  333SOL    HW2 1022   1.595   0.304   2.688
  334SOL     OW 1023   0.039   1.077   2.162
  334SOL    HW1 1024   0.138   1.066   2.153
  334SOL    HW2 1025  -0.001   0.991   2.194
  335SOL     OW 1026   0.875   1.646   2.199
  335SOL    HW1 1027   0.798   1.611   2.145
  335SOL    HW2 1028   0.843   1.717   2.261
  336SOL     OW 1029   0.230   2.490   0.113
  336SOL    HW1 1030   0.137   2.488   0.150
  336SOL    HW2 1031   0.231   2.451   0.021
  337SOL     OW 1032   0.225   2.137   0.996
  337SOL    HW1 1033   0.260   2.120   1.088
  337SOL    HW2 1034   0.137   2.092   0.984
  338SOL     OW 1035   0.019   2.230   0.647
  338SOL    HW1 1036  -0.063   2.273   0.686
  338SOL    HW2 1037  -0.009   2.157   0.584
  339SOL     OW 1038   1.135   2.565   0.717
  339SOL    HW1 1039   1.192   2.643   0.692
  339SOL    HW2 1040   1.075   2.591   0.793
  340SOL     OW 1041   1.755   2.469   0.231
  340SOL    HW1 1042   1.743   2.456   0.132
  340SOL    HW2 1043   1.725   2.388   0.280
  341SOL     OW 1044   0.768   3.006   1.023
  341SOL    HW1 1045   0.690   3.023   1.083
  341SOL    HW2 1046   0.802   3.093   0.987
  342SOL     OW 1047   0.850   2.660   1.823
  342SOL    HW1 1048   0.846   2.736   1.888
  342SOL    HW2 1049   0.872   2.696   1.732
  343SOL     OW 1050   0.685   2.874   0.665
  343SOL    HW1 1051   0.754   2.858   0.735
  343SOL    HW2 1052   0.612   2.931   0.703
  344SOL     OW 1053   0.438   2.254   1.499
  344SOL    HW1 1054   0.520   2.198   1.508
  344SOL    HW2 1055   0.357   2.196   1.503
  345SOL     OW 1056   1.603   2.309   0.737
  345SOL    HW1 1057   1.529   2.355   0.687
  345SOL    HW2 1058   1.654   2.377   0.790
  346SOL     OW 1059   0.230   3.296   0.538
  346SOL    HW1 1060   0.204   3.392   0.538
  346SOL    HW2 1061   0.159   3.242   0.583
  347SOL     OW 1062   0.240   2.953   0.886
  347SOL    HW1 1063   0.254   2.869   0.938
  347SOL    HW2 1064   0.185   3.017   0.941
  348SOL     OW 1065   0.606   2.826   0.123
  348SOL    HW1 1066   0.613   2.910   0.069
  348SOL    HW2 1067   0.652   2.839   0.211
  349SOL     OW 1068   1.594   1.976   1.480
  349SOL    HW1 1069   1.576   2.043   1.408
  349SOL    HW2 1070   1.591   2.022   1.569
  350SOL     OW 1071   0.122   2.505   0.563
  350SOL    HW1 1072   0.077   2.417   0.580
  350SOL    HW2 1073   0.121   2.559   0.647
  351SOL     OW 1074   1.689   2.784   0.612
  351SOL    HW1 1075   1.784   2.755   0.620
  351SOL    HW2 1076   1.681   2.849   0.537
  352SOL     OW 1077   0.113   2.599   1.597
  352SOL    HW1 1078   0.201   2.586   1.642
  352SOL    HW2 1079   0.100   2.696   1.575
  353SOL     OW 1080   1.293   3.090   1.423
  353SOL    HW1 1081   1.330   3.017   1.365
  353SOL    HW2 1082   1.345   3.095   1.508
  354SOL     OW 1083   0.809   1.866   0.502
  354SOL    HW1 1084   0.849   1.957   0.493
  354SOL    HW2 1085   0.709   1.874   0.508
  355SOL     OW 1086   0.197   2.838   1.264
  355SOL    HW1 1087   0.286   2.793   1.250
  355SOL    HW2 1088   0.124   2.773   1.245
  356SOL     OW 1089   1.525   2.861   0.190
  356SOL    HW1 1090   1.462   2.785   0.203
  356SOL    HW2 1091   1.573   2.879   0.276
  357SOL     OW 1092   0.317   2.113   1.801
  357SOL    HW1 1093   0.388   2.184   1.807
  357SOL    HW2 1094   0.229   2.152   1.829
  358SOL     OW 1095   0.598   2.591   0.270
  358SOL    HW1 1096   0.622   2.660   0.202
  358SOL    HW2 1097   0.520   2.624   0.324
  359SOL     OW 1098   1.281   2.207   0.944
  359SOL    HW1 1099   1.195   2.157   0.931
  359SOL    HW2 1100   1.343   2.153   1.000
  360SOL     OW 1101   0.807   2.467   1.465
  360SOL    HW1 1102   0.760   2.464   1.554
  360SOL    HW2 1103   0.756   2.412   1.399
  361SOL     OW 1104   1.394   2.331   1.674
  361SOL    HW1 1105   1.374   2.374   1.762
  361SOL    HW2 1106   1.472   2.269   1.683
  362SOL     OW 1107   0.973   2.752   1.572
  362SOL    HW1 1108   1.019   2.668   1.543
  362SOL    HW2 1109   0.917   2.786   1.497
  363SOL     OW 1110   0.991   2.272   1.242
  363SOL    HW1 1111   0.914   2.306   1.296
  363SOL    HW2 1112   0.957   2.221   1.163
  364SOL     OW 1113   1.041   2.563   0.429
  364SOL    HW1 1114   1.067   2.559   0.525
  364SOL    HW2 1115   0.956   2.512   0.415
  365SOL     OW 1116   0.076   2.673   0.789
  365SOL    HW1 1117   0.175   2.661   0.798
  365SOL    HW2 1118   0.052   2.768   0.810
  366SOL     OW 1119   0.865   2.210   0.195
  366SOL    HW1 1120   0.924   2.273   0.146
  366SOL    HW2 1121   0.884   2.116   0.166
  367SOL     OW 1122   1.719   2.447   1.831
  367SOL    HW1 1123   1.693   2.536   1.795
  367SOL    HW2 1124   1.717   2.379   1.758
  368SOL     OW 1125   0.550   2.058   0.885
  368SOL    HW1 1126   0.545   2.053   0.985
  368SOL    HW2 1127   0.552   2.154   0.856
  369SOL     OW 1128   1.795   2.928   0.873
  369SOL    HW1 1129   1.733   2.913   0.797
  369SOL    HW2 1130   1.743   2.939   0.958
  370SOL     OW 1131   0.321   2.805   0.242
  370SOL    HW1 1132   0.403   2.844   0.200
  370SOL    HW2 1133   0.294   2.723   0.193
  371SOL     OW 1134   1.458   2.597   0.728
  371SOL    HW1 1135   1.453   2.532   0.803
  371SOL    HW2 1136   1.538   2.656   0.741
  372SOL     OW 1137   0.202   2.147   1.498
  372SOL    HW1 1138   0.122   2.207   1.485
  372SOL    HW2 1139   0.192   2.098   1.584
  373SOL     OW 1140   1.400   1.969   0.426
  373SOL    HW1 1141   1.376   1.932   0.336
  373SOL    HW2 1142   1.499   1.985   0.430
  374SOL     OW 1143   0.382   2.562   0.480
  374SOL    HW1 1144   0.427   2.472   0.477
  374SOL    HW2 1145   0.288   2.551   0.513
  375SOL     OW 1146   1.547   2.084   1.729
  375SOL    HW1 1147   1.542   2.121   1.821
  375SOL    HW2 1148   1.475   2.015   1.717
  376SOL     OW 1149   0.614   1.984   0.117
  376SOL    HW1 1150   0.712   1.962   0.124
  376SOL    HW2 1151   0.583   1.967   0.024
  377SOL     OW 1152   0.781   2.126   1.749
  377SOL    HW1 1153   0.848   2.065   1.792
  377SOL    HW2 1154   0.708   2.145   1.814
  378SOL     OW 1155   1.351   2.452   1.433
  378SOL    HW1 1156   1.379   2.409   1.518
  378SOL    HW2 1157   1.376   2.548   1.434
  379SOL     OW 1158   0.922   2.365   0.899
  379SOL    HW1 1159   0.897   2.356   0.803
  379SOL    HW2 1160   0.970   2.283   0.930
  380SOL     OW 1161   0.539   1.926   0.512
  380SOL    HW1 1162   0.458   1.927   0.570
  380SOL    HW2 1163   0.542   2.009   0.457
  381SOL     OW 1164   0.935   2.098   0.480
  381SOL    HW1 1165   0.887   2.139   0.402
  381SOL    HW2 1166   1.034   2.096   0.461
  382SOL     OW 1167   1.076   2.545   1.464
  382SOL    HW1 1168   0.996   2.484   1.467
  382SOL    HW2 1169   1.157   2.492   1.440
  383SOL     OW 1170   0.459   3.014   0.741
  383SOL    HW1 1171   0.388   2.987   0.806
  383SOL    HW2 1172   0.433   2.986   0.648
  384SOL     OW 1173   1.032   2.411   0.016
  384SOL    HW1 1174   0.991   2.493  -0.023
  384SOL    HW2 1175   1.096   2.437   0.089
  385SOL     OW 1176   0.078   2.418   1.386
  385SOL    HW1 1177   0.170   2.417   1.345
  385SOL    HW2 1178   0.072   2.492   1.453
  386SOL     OW 1179   0.561   2.084   1.147
  386SOL    HW1 1180   0.599   2.000   1.184
  386SOL    HW2 1181   0.473   2.103   1.191
  387SOL     OW 1182   0.866   2.316   0.642
  387SOL    HW1 1183   0.834   2.388   0.580
  387SOL    HW2 1184   0.890   2.235   0.589
  388SOL     OW 1185   1.017   1.901   0.753
  388SOL    HW1 1186   0.945   1.906   0.684
  388SOL    HW2 1187   0.993   1.832   0.822
  389SOL     OW 1188   1.429   3.035   0.867
  389SOL    HW1 1189   1.374   2.951   0.860
  389SOL    HW2 1190   1.455   3.064   0.775
  390SOL     OW 1191   1.466   2.452   0.992
  390SOL    HW1 1192   1.436   2.357   0.999
  390SOL    HW2 1193   1.539   2.468   1.058
  391SOL     OW 1194   1.857   2.695   0.377
  391SOL    HW1 1195   1.899   2.631   0.441
  391SOL    HW2 1196   1.819   2.644   0.299
  392SOL     OW 1197   1.390   2.437   0.078
  392SOL    HW1 1198   1.336   2.416   0.159
  392SOL    HW2 1199   1.481   2.396   0.087
  393SOL     OW 1200   0.527   2.118   0.328
  393SOL    HW1 1201   0.554   2.059   0.253
  393SOL    HW2 1202   0.527   2.213   0.297
  394SOL     OW 1203   1.754   3.085   1.588
  394SOL    HW1 1204   1.845   3.046   1.575
  394SOL    HW2 1205   1.762   3.181   1.612
  395SOL     OW 1206   1.638   2.961   1.079
  395SOL    HW1 1207   1.643   3.042   1.138
  395SOL    HW2 1208   1.552   2.963   1.028
  396SOL     OW 1209   0.915   1.951   1.402
  396SOL    HW1 1210   0.940   1.931   1.307
  396SOL    HW2 1211   0.987   2.007   1.444
  397SOL     OW 1212   0.705   2.912   0.368
  397SOL    HW1 1213   0.691   2.919   0.467
  397SOL    HW2 1214   0.789   2.861   0.350
  398SOL     OW 1215   0.410   2.675   1.251
  398SOL    HW1 1216   0.496   2.687   1.301
  398SOL    HW2 1217   0.368   2.588   1.278
  399SOL     OW 1218   1.274   2.248   1.262
  399SOL    HW1 1219   1.295   2.322   1.326
  399SOL    HW2 1220   1.185   2.265   1.219
  400SOL     OW 1221   0.367   2.962   0.501
  400SOL    HW1 1222   0.360   3.045   0.445
  400SOL    HW2 1223   0.371   2.882   0.441
  401SOL     OW 1224   0.566   2.399   0.865
  401SOL    HW1 1225   0.578   2.465   0.791
  401SOL    HW2 1226   0.612   2.433   0.948
  402SOL     OW 1227   1.582   2.501   0.472
  402SOL    HW1 1228   1.551   2.562   0.545
  402SOL    HW2 1229   1.632   2.553   0.403
  403SOL     OW 1230   0.402   2.613   1.598
  403SOL    HW1 1231   0.470   2.668   1.551
  403SOL    HW2 1232   0.442   2.525   1.625
  404SOL     OW 1233   1.587   2.641   1.670
  404SOL    HW1 1234   1.495   2.679   1.665
  404SOL    HW2 1235   1.647   2.688   1.605
  405SOL     OW 1236   1.013   1.967   1.770
  405SOL    HW1 1237   1.019   2.052   1.718
  405SOL    HW2 1238   1.045   1.891   1.713
  406SOL     OW 1239   0.504   1.912   1.740
  406SOL    HW1 1240   0.462   1.855   1.670
  406SOL    HW2 1241   0.438   1.981   1.772
  407SOL     OW 1242   0.573   2.732   1.029
  407SOL    HW1 1243   0.617   2.821   1.020
  407SOL    HW2 1244   0.510   2.732   1.106
  408SOL     OW 1245   1.360   2.724   1.045
  408SOL    HW1 1246   1.285   2.724   0.979
  408SOL    HW2 1247   1.397   2.632   1.054
  409SOL     OW 1248   1.209   2.387   0.275
  409SOL    HW1 1249   1.222   2.303   0.329
  409SOL    HW2 1250   1.180   2.461   0.335
  410SOL     OW 1251   0.307   2.075   1.231
  410SOL    HW1 1252   0.284   2.112   1.321
  410SOL    HW2 1253   0.277   1.980   1.225
  411SOL     OW 1254   0.037   3.172   1.282
  411SOL    HW1 1255   0.090   3.123   1.350
  411SOL    HW2 1256   0.059   3.270   1.287
  412SOL     OW 1257   0.732   2.496   1.064
  412SOL    HW1 1258   0.791   2.470   0.988
  412SOL    HW2 1259   0.704   2.592   1.053
  413SOL     OW 1260   1.728   2.797   1.854
  413SOL    HW1 1261   1.682   2.790   1.765
  413SOL    HW2 1262   1.666   2.841   1.920
  414SOL     OW 1263   0.307   1.925   0.618
  414SOL    HW1 1264   0.296   2.019   0.651
  414SOL    HW2 1265   0.302   1.862   0.695
  415SOL     OW 1266   1.622   2.229   0.374
  415SOL    HW1 1267   1.624   2.153   0.438
  415SOL    HW2 1268   1.574   2.306   0.414
  416SOL     OW 1269   1.023   2.628   0.966
  416SOL    HW1 1270   1.038   2.649   1.062
  416SOL    HW2 1271   0.993   2.533   0.957
  417SOL     OW 1272   0.350   2.760   1.804
  417SOL    HW1 1273   0.426   2.804   1.852
  417SOL    HW2 1274   0.385   2.713   1.722
  418SOL     OW 1275   1.540   2.136   0.125
  418SOL    HW1 1276   1.479   2.061   0.148
  418SOL    HW2 1277   1.562   2.188   0.208
  419SOL     OW 1278   1.303   2.700   0.042
  419SOL    HW1 1279   1.337   2.607   0.057
  419SOL    HW2 1280   1.321   2.727  -0.053
  420SOL     OW 1281   0.319   2.672   0.949
  420SOL    HW1 1282   0.412   2.708   0.954
  420SOL    HW2 1283   0.313   2.587   1.001
  421SOL     OW 1284   0.339   2.371   1.006
  421SOL    HW1 1285   0.287   2.288   0.989
  421SOL    HW2 1286   0.416   2.376   0.942
  422SOL     OW 1287   1.138   2.242   1.678
  422SOL    HW1 1288   1.093   2.305   1.742
  422SOL    HW2 1289   1.231   2.273   1.661
  423SOL     OW 1290   1.160   2.069   1.477
  423SOL    HW1 1291   1.160   2.133   1.554
  423SOL    HW2 1292   1.188   2.117   1.394
  424SOL     OW 1293   1.002   2.658   1.238
  424SOL    HW1 1294   1.043   2.626   1.324
  424SOL    HW2 1295   0.906   2.631   1.235
  425SOL     OW 1296   0.040   2.406   1.114
  425SOL    HW1 1297   0.125   2.373   1.073
  425SOL    HW2 1298   0.053   2.421   1.212
  426SOL     OW 1299   0.189   2.382   1.722
  426SOL    HW1 1300   0.248   2.342   1.652
  426SOL    HW2 1301   0.131   2.453   1.681
  427SOL     OW 1302   1.369   2.812   1.660
  427SOL    HW1 1303   1.408   2.901   1.680
  427SOL    HW2 1304   1.379   2.792   1.563
  428SOL     OW 1305   0.815   2.434   0.325
  428SOL    HW1 1306   0.822   2.345   0.279
  428SOL    HW2 1307   0.721   2.468   0.317
  429SOL     OW 1308   1.657   2.466   1.206
  429SOL    HW1 1309   1.619   2.397   1.268
  429SOL    HW2 1310   1.739   2.430   1.162
  430SOL     OW 1311   0.671   2.326   1.269
  430SOL    HW1 1312   0.637   2.237   1.239
  430SOL    HW2 1313   0.697   2.380   1.189
  431SOL     OW 1314   0.473   2.362   0.191
  431SOL    HW1 1315   0.534   2.442   0.195
  431SOL    HW2 1316   0.378   2.393   0.198
  432SOL     OW 1317   0.159   2.999   1.466
  432SOL    HW1 1318   0.181   2.938   1.542
  432SOL    HW2 1319   0.169   2.950   1.380
  433SOL     OW 1320   1.347   2.921   1.234
  433SOL    HW1 1321   1.371   2.858   1.160
  433SOL    HW2 1322   1.257   2.961   1.216
  434SOL     OW 1323   1.302   2.717   0.309
  434SOL    HW1 1324   1.216   2.686   0.351
  434SOL    HW2 1325   1.298   2.703   0.210
  435SOL     OW 1326   0.083   3.120   1.022
  435SOL    HW1 1327   0.078   3.119   1.122
  435SOL    HW2 1328   0.000   3.079   0.984
  436SOL     OW 1329   0.903   1.948   0.133
  436SOL    HW1 1330   0.954   1.949   0.047
  436SOL    HW2 1331   0.959   1.906   0.204
  437SOL     OW 1332   1.726   1.997   0.523
  437SOL    HW1 1333   1.799   1.980   0.456
  437SOL    HW2 1334   1.695   1.910   0.561
  438SOL     OW 1335   1.280   2.789   0.672
  438SOL    HW1 1336   1.340   2.708   0.674
  438SOL    HW2 1337   1.320   2.858   0.612
  439SOL     OW 1338   1.841   2.037   0.963
  439SOL    HW1 1339   1.880   1.952   0.927
  439SOL    HW2 1340   1.743   2.039   0.944
  440SOL     OW 1341   0.263   2.188   0.720
  440SOL    HW1 1342   0.184   2.239   0.686
  440SOL    HW2 1343   0.254   2.173   0.818
  441SOL     OW 1344   0.822   2.864   1.372
  441SOL    HW1 1345   0.862   2.863   1.280
  441SOL    HW2 1346   0.832   2.956   1.412
  442SOL     OW 1347   0.916   2.772   0.291
  442SOL    HW1 1348   0.979   2.810   0.223
  442SOL    HW2 1349   0.956   2.689   0.330
  443SOL     OW 1350   0.372   3.150   1.490
  443SOL    HW1 1351   0.359   3.243   1.456
  443SOL    HW2 1352   0.288   3.098   1.477
  444SOL     OW 1353   1.014   2.098   0.971
  444SOL    HW1 1354   1.006   2.062   0.878
  444SOL    HW2 1355   1.012   2.022   1.036
  445SOL     OW 1356   1.709   2.247   1.381
  445SOL    HW1 1357   1.782   2.316   1.385
  445SOL    HW2 1358   1.737   2.172   1.322
  446SOL     OW 1359   0.105   2.875   1.726
  446SOL    HW1 1360   0.028   2.842   1.780
  446SOL    HW2 1361   0.190   2.845   1.768
  447SOL     OW 1362   0.672   2.065   1.489
  447SOL    HW1 1363   0.762   2.049   1.449
  447SOL    HW2 1364   0.680   2.070   1.588
  448SOL     OW 1365   0.075   2.207   0.033
  448SOL    HW1 1366  -0.017   2.179   0.004
  448SOL    HW2 1367   0.106   2.284  -0.023
  449SOL     OW 1368   1.440   2.718   1.398
  449SOL    HW1 1369   1.383   2.770   1.335
  449SOL    HW2 1370   1.536   2.730   1.374
  450SOL     OW 1371   0.072   2.028   0.318
  450SOL    HW1 1372   0.055   2.111   0.264
  450SOL    HW2 1373   0.162   1.991   0.296
  451SOL     OW 1374   1.183   3.197   0.119
  451SOL    HW1 1375   1.084   3.186   0.121
  451SOL    HW2 1376   1.217   3.212   0.212
  452SOL     OW 1377   0.613   2.704   1.431
  452SOL    HW1 1378   0.669   2.785   1.414
  452SOL    HW2 1379   0.672   2.624   1.434
  453SOL     OW 1380   0.716   2.427   1.708
  453SOL    HW1 1381   0.735   2.492   1.782
  453SOL    HW2 1382   0.776   2.347   1.717
  454SOL     OW 1383   1.674   2.745   1.254
  454SOL    HW1 1384   1.647   2.656   1.217
  454SOL    HW2 1385   1.675   2.813   1.181
  455SOL     OW 1386   1.225   2.187   0.449
  455SOL    HW1 1387   1.290   2.113   0.438
  455SOL    HW2 1388   1.245   2.237   0.533
  456SOL     OW 1389   0.594   2.607   0.652
  456SOL    HW1 1390   0.644   2.692   0.633
  456SOL    HW2 1391   0.506   2.609   0.604
  457SOL     OW 1392   1.777   2.204   1.642
  457SOL    HW1 1393   1.760   2.235   1.548
  457SOL    HW2 1394   1.693   2.167   1.680
  458SOL     OW 1395   1.730   2.796   1.517
  458SOL    HW1 1396   1.768   2.887   1.532
  458SOL    HW2 1397   1.722   2.779   1.418
  459SOL     OW 1398   0.859   2.818   0.861
  459SOL    HW1 1399   0.913   2.749   0.909
  459SOL    HW2 1400   0.827   2.887   0.927
  460SOL     OW 1401   1.083   2.846   0.087
  460SOL    HW1 1402   1.060   2.899   0.005
  460SOL    HW2 1403   1.164   2.790   0.068
  461SOL     OW 1404   1.824   2.054   1.227
  461SOL    HW1 1405   1.820   1.964   1.271
  461SOL    HW2 1406   1.827   2.043   1.128
  462SOL     OW 1407   0.428   2.286   0.520
  462SOL    HW1 1408   0.458   2.214   0.458
  462SOL    HW2 1409   0.389   2.246   0.603
  463SOL     OW 1410   0.317   2.409   1.280
  463SOL    HW1 1411   0.355   2.350   1.352
  463SOL    HW2 1412   0.357   2.383   1.192
  464SOL     OW 1413   1.424   2.076   1.112
  464SOL    HW1 1414   1.476   2.011   1.167
  464SOL    HW2 1415   1.375   2.139   1.173
  465SOL     OW 1416   1.001   1.896   1.154
  465SOL    HW1 1417   0.938   1.824   1.123
  465SOL    HW2 1418   1.094   1.860   1.154
  466SOL     OW 1419   0.770   3.192   0.301
  466SOL    HW1 1420   0.724   3.105   0.318
  466SOL    HW2 1421   0.861   3.189   0.342
  467SOL     OW 1422   1.352   1.914   0.168
  467SOL    HW1 1423   1.387   1.873   0.084
  467SOL    HW2 1424   1.262   1.876   0.188
  468SOL     OW 1425   1.300   2.315   0.691
  468SOL    HW1 1426   1.241   2.395   0.695
  468SOL    HW2 1427   1.315   2.280   0.784
  469SOL     OW 1428   1.593   2.083   0.882
  469SOL    HW1 1429   1.509   2.082   0.936
  469SOL    HW2 1430   1.595   2.166   0.826
  470SOL     OW 1431   0.039   2.939   0.300
  470SOL    HW1 1432   0.138   2.928   0.291
  470SOL    HW2 1433  -0.001   2.853   0.332
  471SOL     OW 1434   0.230   2.490   1.975
  471SOL    HW1 1435   0.137   2.488   2.012
  471SOL    HW2 1436   0.231   2.451   1.883
  472SOL     OW 1437   0.225   2.137   2.858
  472SOL    HW1 1438   0.260   2.120   2.950
  472SOL    HW2 1439   0.137   2.092   2.846
  473SOL     OW 1440   0.019   2.230   2.509
  473SOL    HW1 1441  -0.063   2.273   2.548
  473SOL    HW2 1442  -0.009   2.157   2.446
  474SOL     OW 1443   1.135   2.565   2.579
  474SOL    HW1 1444   1.192   2.643   2.554
  474SOL    HW2 1445   1.075   2.591   2.655
  475SOL     OW 1446   1.755   2.469   2.093
  475SOL    HW1 1447   1.743   2.456   1.994
  475SOL    HW2 1448   1.725   2.388   2.142
  476SOL     OW 1449   0.768   3.006   2.885
  476SOL    HW1 1450   0.690   3.023   2.945
  476SOL    HW2 1451   0.802   3.093   2.849
  477SOL     OW 1452   0.685   2.874   2.527
  477SOL    HW1 1453   0.754   2.858   2.597
  477SOL    HW2 1454   0.612   2.931   2.565
  478SOL     OW 1455   1.603   2.309   2.599
  478SOL    HW1 1456   1.529   2.355   2.549
  478SOL    HW2 1457   1.654   2.377   2.652
  479SOL     OW 1458   0.230   3.296   2.400
  479SOL    HW1 1459   0.204   3.392   2.400
  479SOL    HW2 1460   0.159   3.242   2.445
  480SOL     OW 1461   0.240   2.953   2.748
  480SOL    HW1 1462   0.254   2.869   2.800
  480SOL    HW2 1463   0.185   3.017   2.803
  481SOL     OW 1464   0.606   2.826   1.985
  481SOL    HW1 1465   0.613   2.910   1.931
  481SOL    HW2 1466   0.652   2.839   2.073
  482SOL     OW 1467   0.122   2.505   2.425
  482SOL    HW1 1468   0.077   2.417   2.442
  482SOL    HW2 1469   0.121   2.559   2.509
  483SOL     OW 1470   1.689   2.784   2.474
  483SOL    HW1 1471   1.784   2.755   2.482
  483SOL    HW2 1472   1.681   2.849   2.399
  484SOL     OW 1473   0.809   1.866   2.364
  484SOL    HW1 1474   0.849   1.957   2.355
  484SOL    HW2 1475   0.709   1.874   2.370
  485SOL     OW 1476   0.197   2.838   3.126
  485SOL    HW1 1477   0.286   2.793   3.112
  485SOL    HW2 1478   0.124   2.773   3.107
  486SOL     OW 1479   1.525   2.861   2.052
  486SOL    HW1 1480   1.462   2.785   2.065
  486SOL    HW2 1481   1.573   2.879   2.138
  487SOL     OW 1482   0.598   2.591   2.132
  487SOL    HW1 1483   0.622   2.660   2.064
  487SOL    HW2 1484   0.520   2.624   2.186
  488SOL     OW 1485   1.281   2.207   2.806
  488SOL    HW1 1486   1.195   2.157   2.793
  488SOL    HW2 1487   1.343   2.153   2.862
  489SOL     OW 1488   1.041   2.563   2.291
  489SOL    HW1 1489   1.067   2.559   2.387
  489SOL    HW2 1490   0.956   2.512   2.277
  490SOL     OW 1491   0.076   2.673   2.651
  490SOL    HW1 1492   0.175   2.661   2.660
  490SOL    HW2 1493   0.052   2.768   2.672
  491SOL     OW 1494   0.865   2.210   2.057
  491SOL    HW1 1495   0.924   2.273   2.008
  491SOL    HW2 1496   0.884   2.116   2.028
  492SOL     OW 1497   0.550   2.058   2.747
  492SOL    HW1 1498   0.545   2.053   2.847
  492SOL    HW2 1499   0.552   2.154   2.718
  493SOL     OW 1500   1.795   2.928   2.735
  493SOL    HW1 1501   1.733   2.913   2.659
  493SOL    HW2 1502   1.743   2.939   2.820
  494SOL     OW 1503   0.321   2.805   2.104
  494SOL    HW1 1504   0.403   2.844   2.062
  494SOL    HW2 1505   0.294   2.723   2.055
  495SOL     OW 1506   1.458   2.597   2.590
  495SOL    HW1 1507   1.453   2.532   2.665
  495SOL    HW2 1508   1.538   2.656   2.603
  496SOL     OW 1509   1.400   1.969   2.288
  496SOL    HW1 1510   1.376   1.932   2.198
  496SOL    HW2 1511   1.499   1.985   2.292
  497SOL     OW 1512   0.382   2.562   2.342
  497SOL    HW1 1513   0.427   2.472   2.339
  497SOL    HW2 1514   0.288   2.551   2.375
  498SOL     OW 1515   0.614   1.984   1.979
  498SOL    HW1 1516   0.712   1.962   1.986
  498SOL    HW2 1517   0.583   1.967   1.886
  499SOL     OW 1518   0.888   3.376   3.057
  499SOL    HW1 1519   0.865   3.351   2.963
  499SOL    HW2 1520   0.949   3.307   3.096
  500SOL     OW 1521   0.922   2.365   2.761
  500SOL    HW1 1522   0.897   2.356   2.665
  500SOL    HW2 1523   0.970   2.283   2.792
  501SOL     OW 1524   0.539   1.926   2.374
  501SOL    HW1 1525   0.458   1.927   2.432
  501SOL    HW2 1526   0.542   2.009   2.319
  502SOL     OW 1527   0.297   1.897   2.033
  502SOL    HW1 1528   0.346   1.981   2.012
  502SOL    HW2 1529   0.359   1.832   2.078
  503SOL     OW 1530   0.935   2.098   2.342
  503SOL    HW1 1531   0.887   2.139   2.264
  503SOL    HW2 1532   1.034   2.096   2.323
  504SOL     OW 1533   0.459   3.014   2.603
  504SOL    HW1 1534   0.388   2.987   2.668
  504SOL    HW2 1535   0.433   2.986   2.510
  505SOL     OW 1536   1.032   2.411   1.878
  505SOL    HW1 1537   0.991   2.493   1.839
  505SOL    HW2 1538   1.096   2.437   1.951
  506SOL     OW 1539   0.866   2.316   2.504
  506SOL    HW1 1540   0.834   2.388   2.442
  506SOL    HW2 1541   0.890   2.235   2.451
  507SOL     OW 1542   1.017   1.901   2.615
  507SOL    HW1 1543   0.945   1.906   2.546
  507SOL    HW2 1544   0.993   1.832   2.684
  508SOL     OW 1545   1.429   3.035   2.729
  508SOL    HW1 1546   1.374   2.951   2.722
  508SOL    HW2 1547   1.455   3.064   2.637
  509SOL     OW 1548   1.466   2.452   2.854
  509SOL    HW1 1549   1.436   2.357   2.861
  509SOL    HW2 1550   1.539   2.468   2.920
  510SOL     OW 1551   1.857   2.695   2.239
  510SOL    HW1 1552   1.899   2.631   2.303
  510SOL    HW2 1553   1.819   2.644   2.161
  511SOL     OW 1554   1.390   2.437   1.940
  511SOL    HW1 1555   1.336   2.416   2.021
  511SOL    HW2 1556   1.481   2.396   1.949
  512SOL     OW 1557   0.527   2.118   2.190
  512SOL    HW1 1558   0.554   2.059   2.115
  512SOL    HW2 1559   0.527   2.213   2.159
  513SOL     OW 1560   1.638   2.961   2.941
  513SOL    HW1 1561   1.643   3.042   3.000
  513SOL    HW2 1562   1.552   2.963   2.890
  514SOL     OW 1563   0.705   2.912   2.230
  514SOL    HW1 1564   0.691   2.919   2.329
  514SOL    HW2 1565   0.789   2.861   2.212
  515SOL     OW 1566   0.410   2.675   3.113
  515SOL    HW1 1567   0.496   2.687   3.163
  515SOL    HW2 1568   0.368   2.588   3.140
  516SOL     OW 1569   0.367   2.962   2.363
  516SOL    HW1 1570   0.360   3.045   2.307
  516SOL    HW2 1571   0.371   2.882   2.303
  517SOL     OW 1572   0.566   2.399   2.727
  517SOL    HW1 1573   0.578   2.465   2.653
  517SOL    HW2 1574   0.612   2.433   2.810
  518SOL     OW 1575   1.582   2.501   2.334
  518SOL    HW1 1576   1.551   2.562   2.407
  518SOL    HW2 1577   1.632   2.553   2.265
  519SOL     OW 1578   0.573   2.732   2.891
  519SOL    HW1 1579   0.617   2.821   2.882
  519SOL    HW2 1580   0.510   2.732   2.968
  520SOL     OW 1581   1.209   2.387   2.137
  520SOL    HW1 1582   1.222   2.303   2.191
  520SOL    HW2 1583   1.180   2.461   2.197
  521SOL     OW 1584   0.307   2.075   3.093
  521SOL    HW1 1585   0.284   2.112   3.183
  521SOL    HW2 1586   0.277   1.980   3.087
  522SOL     OW 1587   0.732   2.496   2.926
  522SOL    HW1 1588   0.791   2.470   2.850
  522SOL    HW2 1589   0.704   2.592   2.915
  523SOL     OW 1590   0.307   1.925   2.480
  523SOL    HW1 1591   0.296   2.019   2.513
  523SOL    HW2 1592   0.302   1.862   2.557
  524SOL     OW 1593   1.622   2.229   2.236
  524SOL    HW1 1594   1.624   2.153   2.300
  524SOL    HW2 1595   1.574   2.306   2.276
  525SOL     OW 1596   1.023   2.628   2.828
  525SOL    HW1 1597   1.038   2.649   2.924
  525SOL    HW2 1598   0.993   2.533   2.819
  526SOL     OW 1599   1.540   2.136   1.987
  526SOL    HW1 1600   1.479   2.061   2.010
  526SOL    HW2 1601   1.562   2.188   2.070
  527SOL     OW 1602   1.303   2.700   1.904
  527SOL    HW1 1603   1.337   2.607   1.919
  527SOL    HW2 1604   1.321   2.727   1.809
  528SOL     OW 1605   0.319   2.672   2.811
  528SOL    HW1 1606   0.412   2.708   2.816
  528SOL    HW2 1607   0.313   2.587   2.863
  529SOL     OW 1608   0.339   2.371   2.868
  529SOL    HW1 1609   0.287   2.288   2.851
  529SOL    HW2 1610   0.416   2.376   2.804
  530SOL     OW 1611   1.002   2.658   3.100
  530SOL    HW1 1612   1.043   2.626   3.186
  530SOL    HW2 1613   0.906   2.631   3.097
  531SOL     OW 1614   0.815   2.434   2.187
  531SOL    HW1 1615   0.822   2.345   2.141
  531SOL    HW2 1616   0.721   2.468   2.179
  532SOL     OW 1617   0.671   2.326   3.131
  532SOL    HW1 1618   0.637   2.237   3.101
  532SOL    HW2 1619   0.697   2.380   3.051
  533SOL     OW 1620   0.473   2.362   2.053
  533SOL    HW1 1621   0.534   2.442   2.057
  533SOL    HW2 1622   0.378   2.393   2.060
  534SOL     OW 1623   1.302   2.717   2.171
  534SOL    HW1 1624   1.216   2.686   2.213
  534SOL    HW2 1625   1.298   2.703   2.072
  535SOL     OW 1626   0.083   3.120   2.884
  535SOL    HW1 1627   0.078   3.119   2.984
  535SOL    HW2 1628   0.000   3.079   2.846
  536SOL     OW 1629   1.726   1.997   2.385
  536SOL    HW1 1630   1.799   1.980   2.318
  536SOL    HW2 1631   1.695   1.910   2.423
  537SOL     OW 1632   1.280   2.789   2.534
  537SOL    HW1 1633   1.340   2.708   2.536
  537SOL    HW2 1634   1.320   2.858   2.474
  538SOL     OW 1635   1.841   2.037   2.825
  538SOL    HW1 1636   1.880   1.952   2.789
  538SOL    HW2 1637   1.743   2.039   2.806
  539SOL     OW 1638   0.263   2.188   2.582
  539SOL    HW1 1639   0.184   2.239   2.548
  539SOL    HW2 1640   0.254   2.173   2.680
  540SOL     OW 1641   0.916   2.772   2.153
  540SOL    HW1 1642   0.979   2.810   2.085
  540SOL    HW2 1643   0.956   2.689   2.192
  541SOL     OW 1644   1.014   2.098   2.833
  541SOL    HW1 1645   1.006   2.062   2.740
  541SOL    HW2 1646   1.012   2.022   2.898
  542SOL     OW 1647   0.075   2.207   1.895
  542SOL    HW1 1648  -0.017   2.179   1.866
  542SOL    HW2 1649   0.106   2.284   1.839
  543SOL     OW 1650   0.072   2.028   2.180
  543SOL    HW1 1651   0.055   2.111   2.126
  543SOL    HW2 1652   0.162   1.991   2.158
  544SOL     OW 1653   1.183   3.197   1.981
  544SOL    HW1 1654   1.084   3.186   1.983
  544SOL    HW2 1655   1.217   3.212   2.074
  545SOL     OW 1656   1.674   2.745   3.116
  545SOL    HW1 1657   1.647   2.656   3.079
  545SOL    HW2 1658   1.675   2.813   3.043
  546SOL     OW 1659   1.225   2.187   2.311
  546SOL    HW1 1660   1.290   2.113   2.300
  546SOL    HW2 1661   1.245   2.237   2.395
  547SOL     OW 1662   0.594   2.607   2.514
  547SOL    HW1 1663   0.644   2.692   2.495
  547SOL    HW2 1664   0.506   2.609   2.466
  548SOL     OW 1665   0.859   2.818   2.723
  548SOL    HW1 1666   0.913   2.749   2.771
  548SOL    HW2 1667   0.827   2.887   2.789
  549SOL     OW 1668   1.083   2.846   1.949
  549SOL    HW1 1669   1.060   2.899   1.867
  549SOL    HW2 1670   1.164   2.790   1.930
  550SOL     OW 1671   1.824   2.054   3.089
  550SOL    HW1 1672   1.820   1.964   3.133
  550SOL    HW2 1673   1.827   2.043   2.990
  551SOL     OW 1674   0.428   2.286   2.382
  551SOL    HW1 1675   0.458   2.214   2.320
  551SOL    HW2 1676   0.389   2.246   2.465
  552SOL     OW 1677   1.424   2.076   2.974
  552SOL    HW1 1678   1.476   2.011   3.029
  552SOL    HW2 1679   1.375   2.139   3.035
  553SOL     OW 1680   0.770   3.192   2.163
  553SOL    HW1 1681   0.724   3.105   2.180
  553SOL    HW2 1682   0.861   3.189   2.204
  554SOL     OW 1683   1.352   1.914   2.030
  554SOL    HW1 1684   1.387   1.873   1.946
  554SOL    HW2 1685   1.262   1.876   2.050
  555SOL     OW 1686   1.300   2.315   2.553
  555SOL    HW1 1687   1.241   2.395   2.557
  555SOL    HW2 1688   1.315   2.280   2.646
  556SOL     OW 1689   1.593   2.083   2.744
  556SOL    HW1 1690   1.509   2.082   2.798
  556SOL    HW2 1691   1.595   2.166   2.688
  557SOL     OW 1692   0.039   2.939   2.162
  557SOL    HW1 1693   0.138   2.928   2.153
  557SOL    HW2 1694  -0.001   2.853   2.194
  558SOL     OW 1695   2.092   0.628   0.113
  558SOL    HW1 1696   1.999   0.626   0.150
  558SOL    HW2 1697   2.093   0.589   0.021
  559SOL     OW 1698   2.087   0.275   0.996
  559SOL    HW1 1699   2.122   0.258   1.088
  559SOL    HW2 1700   1.999   0.230   0.984
  560SOL     OW 1701   1.881   0.368   0.647
  560SOL    HW1 1702   1.799   0.411   0.686
  560SOL    HW2 1703   1.853   0.295   0.584
  561SOL     OW 1704   2.431   1.275   1.165
  561SOL    HW1 1705   2.338   1.268   1.128
  561SOL    HW2 1706   2.442   1.364   1.209
  562SOL     OW 1707   2.630   1.144   1.023
  562SOL    HW1 1708   2.552   1.161   1.083
  562SOL    HW2 1709   2.664   1.231   0.987
  563SOL     OW 1710   2.712   0.798   1.823
  563SOL    HW1 1711   2.708   0.874   1.888
  563SOL    HW2 1712   2.734   0.834   1.732
  564SOL     OW 1713   2.547   1.012   0.665
  564SOL    HW1 1714   2.616   0.996   0.735
  564SOL    HW2 1715   2.474   1.069   0.703
  565SOL     OW 1716   2.548   1.161   1.803
  565SOL    HW1 1717   2.608   1.240   1.817
  565SOL    HW2 1718   2.462   1.192   1.762
  566SOL     OW 1719   2.197   1.435   1.061
  566SOL    HW1 1720   2.119   1.404   1.008
  566SOL    HW2 1721   2.255   1.493   1.004
  567SOL     OW 1722   2.300   0.392   1.499
  567SOL    HW1 1723   2.382   0.336   1.508
  567SOL    HW2 1724   2.219   0.334   1.503
  568SOL     OW 1725   2.093   1.713   0.483
  568SOL    HW1 1726   2.127   1.790   0.537
  568SOL    HW2 1727   2.137   1.713   0.393
  569SOL     OW 1728   2.989   1.341   1.690
  569SOL    HW1 1729   3.036   1.341   1.778
  569SOL    HW2 1730   2.941   1.254   1.679
  570SOL     OW 1731   2.092   1.434   0.538
  570SOL    HW1 1732   2.066   1.530   0.538
  570SOL    HW2 1733   2.021   1.380   0.583
  571SOL     OW 1734   2.102   1.091   0.886
  571SOL    HW1 1735   2.116   1.007   0.938
  571SOL    HW2 1736   2.047   1.155   0.941
  572SOL     OW 1737   2.482   1.786   1.439
  572SOL    HW1 1738   2.390   1.769   1.474
  572SOL    HW2 1739   2.510   1.878   1.465
  573SOL     OW 1740   2.468   0.964   0.123
  573SOL    HW1 1741   2.475   1.048   0.069
  573SOL    HW2 1742   2.514   0.977   0.211
  574SOL     OW 1743   1.984   0.643   0.563
  574SOL    HW1 1744   1.939   0.555   0.580
  574SOL    HW2 1745   1.983   0.697   0.647
  575SOL     OW 1746   1.889   1.596   0.117
  575SOL    HW1 1747   1.870   1.500   0.138
  575SOL    HW2 1748   1.856   1.654   0.192
  576SOL     OW 1749   1.975   0.737   1.597
  576SOL    HW1 1750   2.063   0.724   1.642
  576SOL    HW2 1751   1.962   0.834   1.575
  577SOL     OW 1752   2.475   1.365   0.726
  577SOL    HW1 1753   2.426   1.278   0.735
  577SOL    HW2 1754   2.452   1.408   0.639
  578SOL     OW 1755   2.671   0.004   0.502
  578SOL    HW1 1756   2.711   0.095   0.493
  578SOL    HW2 1757   2.571   0.012   0.508
  579SOL     OW 1758   2.059   0.976   1.264
  579SOL    HW1 1759   2.148   0.931   1.250
  579SOL    HW2 1760   1.986   0.911   1.245
  580SOL     OW 1761   2.179   0.251   1.801
  580SOL    HW1 1762   2.250   0.322   1.807
  580SOL    HW2 1763   2.091   0.290   1.829
  581SOL     OW 1764   2.460   0.729   0.270
  581SOL    HW1 1765   2.484   0.798   0.202
  581SOL    HW2 1766   2.382   0.762   0.324
  582SOL     OW 1767   2.669   0.605   1.465
  582SOL    HW1 1768   2.622   0.602   1.554
  582SOL    HW2 1769   2.618   0.550   1.399
  583SOL     OW 1770   2.835   0.890   1.572
  583SOL    HW1 1771   2.881   0.806   1.543
  583SOL    HW2 1772   2.779   0.924   1.497
  584SOL     OW 1773   2.853   0.410   1.242
  584SOL    HW1 1774   2.776   0.444   1.296
  584SOL    HW2 1775   2.819   0.359   1.163
  585SOL     OW 1776   2.903   0.701   0.429
  585SOL    HW1 1777   2.929   0.697   0.525
  585SOL    HW2 1778   2.818   0.650   0.415
  586SOL     OW 1779   1.938   0.811   0.789
  586SOL    HW1 1780   2.037   0.799   0.798
  586SOL    HW2 1781   1.914   0.906   0.810
  587SOL     OW 1782   1.992   1.821   1.571
  587SOL    HW1 1783   1.982   1.806   1.670
  587SOL    HW2 1784   1.906   1.857   1.535
  588SOL     OW 1785   2.727   0.348   0.195
  588SOL    HW1 1786   2.786   0.411   0.146
  588SOL    HW2 1787   2.746   0.254   0.166
  589SOL     OW 1788   2.412   0.196   0.885
  589SOL    HW1 1789   2.407   0.191   0.985
  589SOL    HW2 1790   2.414   0.292   0.856
  590SOL     OW 1791   2.870   1.456   0.477
  590SOL    HW1 1792   2.824   1.528   0.425
  590SOL    HW2 1793   2.866   1.476   0.575
  591SOL     OW 1794   2.213   1.801   0.853
  591SOL    HW1 1795   2.263   1.715   0.859
  591SOL    HW2 1796   2.278   1.878   0.850
  592SOL     OW 1797   2.183   0.943   0.242
  592SOL    HW1 1798   2.265   0.982   0.200
  592SOL    HW2 1799   2.156   0.861   0.193
  593SOL     OW 1800   2.323   1.266   1.727
  593SOL    HW1 1801   2.273   1.267   1.641
  593SOL    HW2 1802   2.260   1.248   1.803
  594SOL     OW 1803   2.064   0.285   1.498
  594SOL    HW1 1804   1.984   0.345   1.485
  594SOL    HW2 1805   2.054   0.236   1.584
  595SOL     OW 1806   2.326   1.743   0.323
  595SOL    HW1 1807   2.359   1.782   0.409
  595SOL    HW2 1808   2.402   1.736   0.258
  596SOL     OW 1809   2.111   1.785   1.241
  596SOL    HW1 1810   2.168   1.720   1.291
  596SOL    HW2 1811   2.095   1.752   1.148
  597SOL     OW 1812   2.802   1.698   0.904
  597SOL    HW1 1813   2.882   1.641   0.925
  597SOL    HW2 1814   2.753   1.658   0.827
  598SOL     OW 1815   2.244   0.700   0.480
  598SOL    HW1 1816   2.289   0.610   0.477
  598SOL    HW2 1817   2.150   0.689   0.513
  599SOL     OW 1818   2.476   0.122   0.117
  599SOL    HW1 1819   2.574   0.100   0.124
  599SOL    HW2 1820   2.445   0.105   0.024
  600SOL     OW 1821   2.643   0.264   1.749
  600SOL    HW1 1822   2.710   0.203   1.792
  600SOL    HW2 1823   2.570   0.283   1.814
  601SOL     OW 1824   2.750   1.514   1.195
  601SOL    HW1 1825   2.727   1.489   1.101
  601SOL    HW2 1826   2.811   1.445   1.234
  602SOL     OW 1827   2.665   1.402   0.924
  602SOL    HW1 1828   2.755   1.416   0.882
  602SOL    HW2 1829   2.594   1.404   0.853
  603SOL     OW 1830   2.784   0.503   0.899
  603SOL    HW1 1831   2.759   0.494   0.803
  603SOL    HW2 1832   2.832   0.421   0.930
  604SOL     OW 1833   2.401   0.064   0.512
  604SOL    HW1 1834   2.320   0.065   0.570
  604SOL    HW2 1835   2.404   0.147   0.457
  605SOL     OW 1836   3.296   1.188   0.041
  605SOL    HW1 1837   3.328   1.112   0.098
  605SOL    HW2 1838   3.204   1.215   0.071
  606SOL     OW 1839   2.159   0.035   0.171
  606SOL    HW1 1840   2.208   0.119   0.150
  606SOL    HW2 1841   2.221  -0.030   0.216
  607SOL     OW 1842   2.797   0.236   0.480
  607SOL    HW1 1843   2.749   0.277   0.402
  607SOL    HW2 1844   2.896   0.234   0.461
  608SOL     OW 1845   3.089   1.570   0.793
  608SOL    HW1 1846   3.110   1.644   0.728
  608SOL    HW2 1847   3.157   1.570   0.866
  609SOL     OW 1848   2.321   1.152   0.741
  609SOL    HW1 1849   2.250   1.125   0.806
  609SOL    HW2 1850   2.295   1.124   0.648
  610SOL     OW 1851   3.133   1.797   0.591
  610SOL    HW1 1852   3.177   1.861   0.527
  610SOL    HW2 1853   3.083   1.849   0.661
  611SOL     OW 1854   2.894   0.549   0.016
  611SOL    HW1 1855   2.853   0.631  -0.023
  611SOL    HW2 1856   2.958   0.575   0.089
  612SOL     OW 1857   1.940   0.556   1.386
  612SOL    HW1 1858   2.032   0.555   1.345
  612SOL    HW2 1859   1.934   0.630   1.453
  613SOL     OW 1860   2.423   0.222   1.147
  613SOL    HW1 1861   2.461   0.138   1.184
  613SOL    HW2 1862   2.335   0.241   1.191
  614SOL     OW 1863   2.728   0.454   0.642
  614SOL    HW1 1864   2.696   0.526   0.580
  614SOL    HW2 1865   2.752   0.373   0.589
  615SOL     OW 1866   2.879   0.039   0.753
  615SOL    HW1 1867   2.807   0.044   0.684
  615SOL    HW2 1868   2.855  -0.030   0.822
  616SOL     OW 1869   2.350   1.385   0.174
  616SOL    HW1 1870   2.263   1.370   0.221
  616SOL    HW2 1871   2.333   1.411   0.079
  617SOL     OW 1872   2.389   0.256   0.328
  617SOL    HW1 1873   2.416   0.197   0.253
  617SOL    HW2 1874   2.389   0.351   0.297
  618SOL     OW 1875   2.777   0.089   1.402
  618SOL    HW1 1876   2.802   0.069   1.307
  618SOL    HW2 1877   2.849   0.145   1.444
  619SOL     OW 1878   2.842   1.116   1.719
  619SOL    HW1 1879   2.743   1.122   1.729
  619SOL    HW2 1880   2.865   1.036   1.663
  620SOL     OW 1881   2.567   1.050   0.368
  620SOL    HW1 1882   2.553   1.057   0.467
  620SOL    HW2 1883   2.651   0.999   0.350
  621SOL     OW 1884   2.272   0.813   1.251
  621SOL    HW1 1885   2.358   0.825   1.301
  621SOL    HW2 1886   2.230   0.726   1.278
  622SOL     OW 1887   1.926   1.564   1.331
  622SOL    HW1 1888   1.880   1.646   1.297
  622SOL    HW2 1889   2.024   1.583   1.340
  623SOL     OW 1890   2.229   1.100   0.501
  623SOL    HW1 1891   2.222   1.183   0.445
  623SOL    HW2 1892   2.233   1.020   0.441
  624SOL     OW 1893   2.428   0.537   0.865
  624SOL    HW1 1894   2.440   0.603   0.791
  624SOL    HW2 1895   2.474   0.571   0.948
  625SOL     OW 1896   3.114   1.348   0.388
  625SOL    HW1 1897   3.164   1.425   0.428
  625SOL    HW2 1898   3.019   1.350   0.420
  626SOL     OW 1899   2.216   1.510   1.329
  626SOL    HW1 1900   2.195   1.466   1.242
  626SOL    HW2 1901   2.313   1.536   1.332
  627SOL     OW 1902   2.264   0.751   1.598
  627SOL    HW1 1903   2.332   0.806   1.551
  627SOL    HW2 1904   2.304   0.663   1.625
  628SOL     OW 1905   2.875   0.105   1.770
  628SOL    HW1 1906   2.881   0.190   1.718
  628SOL    HW2 1907   2.907   0.029   1.713
  629SOL     OW 1908   2.366   0.050   1.740
  629SOL    HW1 1909   2.324  -0.007   1.670
  629SOL    HW2 1910   2.300   0.119   1.772
  630SOL     OW 1911   2.435   0.870   1.029
  630SOL    HW1 1912   2.479   0.959   1.020
  630SOL    HW2 1913   2.372   0.870   1.106
  631SOL     OW 1914   3.071   0.525   0.275
  631SOL    HW1 1915   3.084   0.441   0.329
  631SOL    HW2 1916   3.042   0.599   0.335
  632SOL     OW 1917   2.169   0.213   1.231
  632SOL    HW1 1918   2.146   0.250   1.321
  632SOL    HW2 1919   2.139   0.118   1.225
  633SOL     OW 1920   1.899   1.310   1.282
  633SOL    HW1 1921   1.952   1.261   1.350
  633SOL    HW2 1922   1.921   1.408   1.287
  634SOL     OW 1923   2.594   0.634   1.064
  634SOL    HW1 1924   2.653   0.608   0.988
  634SOL    HW2 1925   2.566   0.730   1.053
  635SOL     OW 1926   2.169   0.063   0.618
  635SOL    HW1 1927   2.158   0.157   0.651
  635SOL    HW2 1928   2.164   0.000   0.695
  636SOL     OW 1929   2.885   0.766   0.966
  636SOL    HW1 1930   2.900   0.787   1.062
  636SOL    HW2 1931   2.855   0.671   0.957
  637SOL     OW 1932   2.842   1.573   1.700
  637SOL    HW1 1933   2.822   1.617   1.612
  637SOL    HW2 1934   2.881   1.482   1.684
  638SOL     OW 1935   2.212   0.898   1.804
  638SOL    HW1 1936   2.288   0.942   1.852
  638SOL    HW2 1937   2.247   0.851   1.722
  639SOL     OW 1938   2.930   1.333   0.849
  639SOL    HW1 1939   2.937   1.249   0.794
  639SOL    HW2 1940   2.992   1.402   0.813
  640SOL     OW 1941   2.181   0.810   0.949
  640SOL    HW1 1942   2.274   0.846   0.954
  640SOL    HW2 1943   2.175   0.725   1.001
  641SOL     OW 1944   2.201   0.509   1.006
  641SOL    HW1 1945   2.149   0.426   0.989
  641SOL    HW2 1946   2.278   0.514   0.942
  642SOL     OW 1947   3.000   0.380   1.678
  642SOL    HW1 1948   2.955   0.443   1.742
  642SOL    HW2 1949   3.093   0.411   1.661
  643SOL     OW 1950   1.870   1.326   0.200
  643SOL    HW1 1951   1.777   1.347   0.169
  643SOL    HW2 1952   1.880   1.227   0.213
  644SOL     OW 1953   1.950   1.801   0.927
  644SOL    HW1 1954   1.908   1.715   0.900
  644SOL    HW2 1955   2.044   1.804   0.893
  645SOL     OW 1956   2.366   1.568   0.910
  645SOL    HW1 1957   2.432   1.642   0.919
  645SOL    HW2 1958   2.410   1.489   0.868
  646SOL     OW 1959   2.864   0.796   1.238
  646SOL    HW1 1960   2.905   0.764   1.324
  646SOL    HW2 1961   2.768   0.769   1.235
  647SOL     OW 1962   1.902   0.544   1.114
  647SOL    HW1 1963   1.987   0.511   1.073
  647SOL    HW2 1964   1.915   0.559   1.212
  648SOL     OW 1965   2.051   0.520   1.722
  648SOL    HW1 1966   2.110   0.480   1.652
  648SOL    HW2 1967   1.993   0.591   1.681
  649SOL     OW 1968   2.677   0.572   0.325
  649SOL    HW1 1969   2.684   0.483   0.279
  649SOL    HW2 1970   2.583   0.606   0.317
  650SOL     OW 1971   2.114   1.564   1.744
  650SOL    HW1 1972   2.084   1.621   1.820
  650SOL    HW2 1973   2.107   1.467   1.770
  651SOL     OW 1974   2.533   0.464   1.269
  651SOL    HW1 1975   2.499   0.375   1.239
  651SOL    HW2 1976   2.559   0.518   1.189
  652SOL     OW 1977   2.792   1.678   1.465
  652SOL    HW1 1978   2.768   1.660   1.370
  652SOL    HW2 1979   2.822   1.772   1.475
  653SOL     OW 1980   2.335   0.500   0.191
  653SOL    HW1 1981   2.396   0.580   0.195
  653SOL    HW2 1982   2.240   0.531   0.198
  654SOL     OW 1983   2.021   1.137   1.466
  654SOL    HW1 1984   2.043   1.076   1.542
  654SOL    HW2 1985   2.031   1.088   1.380
  655SOL     OW 1986   3.164   0.855   0.309
  655SOL    HW1 1987   3.078   0.824   0.351
  655SOL    HW2 1988   3.160   0.841   0.210
  656SOL     OW 1989   1.945   1.258   1.022
  656SOL    HW1 1990   1.940   1.257   1.122
  656SOL    HW2 1991   1.862   1.217   0.984
  657SOL     OW 1992   2.550   1.662   1.716
  657SOL    HW1 1993   2.494   1.743   1.725
  657SOL    HW2 1994   2.602   1.666   1.630
  658SOL     OW 1995   2.765   0.086   0.133
  658SOL    HW1 1996   2.816   0.087   0.047
  658SOL    HW2 1997   2.821   0.044   0.204
  659SOL     OW 1998   1.992   1.794   1.851
  659SOL    HW1 1999   1.951   1.720   1.904
  659SOL    HW2 2000   2.056   1.845   1.909
  660SOL     OW 2001   2.692   1.273   1.422
  660SOL    HW1 2002   2.687   1.306   1.517
  660SOL    HW2 2003   2.606   1.292   1.376
  661SOL     OW 2004   2.534   1.616   0.154
  661SOL    HW1 2005   2.543   1.626   0.055
  661SOL    HW2 2006   2.494   1.527   0.175
  662SOL     OW 2007   2.125   0.326   0.720
  662SOL    HW1 2008   2.046   0.377   0.686
  662SOL    HW2 2009   2.116   0.311   0.818
  663SOL     OW 2010   2.684   1.002   1.372
  663SOL    HW1 2011   2.724   1.001   1.280
  663SOL    HW2 2012   2.694   1.094   1.412
  664SOL     OW 2013   2.778   0.910   0.291
  664SOL    HW1 2014   2.841   0.948   0.223
  664SOL    HW2 2015   2.818   0.827   0.330
  665SOL     OW 2016   2.234   1.288   1.490
  665SOL    HW1 2017   2.221   1.381   1.456
  665SOL    HW2 2018   2.150   1.236   1.477
  666SOL     OW 2019   2.901   1.098   0.696
  666SOL    HW1 2020   2.831   1.051   0.750
  666SOL    HW2 2021   2.960   1.030   0.653
  667SOL     OW 2022   2.876   0.236   0.971
  667SOL    HW1 2023   2.868   0.200   0.878
  667SOL    HW2 2024   2.874   0.160   1.036
  668SOL     OW 2025   2.452   1.487   0.491
  668SOL    HW1 2026   2.494   1.429   0.421
  668SOL    HW2 2027   2.408   1.566   0.447
  669SOL     OW 2028   2.117   1.348   0.290
  669SOL    HW1 2029   2.021   1.349   0.263
  669SOL    HW2 2030   2.129   1.401   0.374
  670SOL     OW 2031   1.967   1.013   1.726
  670SOL    HW1 2032   1.890   0.980   1.780
  670SOL    HW2 2033   2.052   0.983   1.768
  671SOL     OW 2034   2.534   0.203   1.489
  671SOL    HW1 2035   2.624   0.187   1.449
  671SOL    HW2 2036   2.542   0.208   1.588
  672SOL     OW 2037   1.934   0.166   0.318
  672SOL    HW1 2038   1.917   0.249   0.264
  672SOL    HW2 2039   2.024   0.129   0.296
  673SOL     OW 2040   2.475   0.842   1.431
  673SOL    HW1 2041   2.531   0.923   1.414
  673SOL    HW2 2042   2.534   0.762   1.434
  674SOL     OW 2043   2.578   0.565   1.708
  674SOL    HW1 2044   2.597   0.630   1.782
  674SOL    HW2 2045   2.638   0.485   1.717
  675SOL     OW 2046   2.252   1.741   1.560
  675SOL    HW1 2047   2.161   1.782   1.558
  675SOL    HW2 2048   2.245   1.647   1.592
  676SOL     OW 2049   2.456   0.745   0.652
  676SOL    HW1 2050   2.506   0.830   0.633
  676SOL    HW2 2051   2.368   0.747   0.604
  677SOL     OW 2052   2.721   1.374   0.016
  677SOL    HW1 2053   2.675   1.389   0.104
  677SOL    HW2 2054   2.765   1.459  -0.014
  678SOL     OW 2055   2.523   1.790   0.953
  678SOL    HW1 2056   2.477   1.878   0.940
  678SOL    HW2 2057   2.622   1.802   0.946
  679SOL     OW 2058   2.721   0.956   0.861
  679SOL    HW1 2059   2.775   0.887   0.909
  679SOL    HW2 2060   2.689   1.025   0.927
  680SOL     OW 2061   2.945   0.984   0.087
  680SOL    HW1 2062   2.922   1.037   0.005
  680SOL    HW2 2063   3.026   0.928   0.068
  681SOL     OW 2064   2.083   1.314   1.844
  681SOL    HW1 2065   2.018   1.241   1.823
  681SOL    HW2 2066   2.087   1.328   1.942
  682SOL     OW 2067   1.941   1.240   0.653
  682SOL    HW1 2068   1.940   1.193   0.741
  682SOL    HW2 2069   2.023   1.212   0.602
  683SOL     OW 2070   2.534   1.391   1.624
  683SOL    HW1 2071   2.456   1.341   1.662
  683SOL    HW2 2072   2.531   1.486   1.655
  684SOL     OW 2073   2.290   0.424   0.520
  684SOL    HW1 2074   2.320   0.352   0.458
  684SOL    HW2 2075   2.251   0.384   0.603
  685SOL     OW 2076   2.179   0.547   1.280
  685SOL    HW1 2077   2.217   0.488   1.352
  685SOL    HW2 2078   2.219   0.521   1.192
  686SOL     OW 2079   2.674   1.586   0.687
  686SOL    HW1 2080   2.706   1.596   0.593
  686SOL    HW2 2081   2.595   1.524   0.689
  687SOL     OW 2082   2.863   0.034   1.154
  687SOL    HW1 2083   2.800  -0.038   1.123
  687SOL    HW2 2084   2.956  -0.002   1.154
  688SOL     OW 2085   2.632   1.330   0.301
  688SOL    HW1 2086   2.586   1.243   0.318
  688SOL    HW2 2087   2.723   1.327   0.342
  689SOL     OW 2088   2.480   1.567   1.284
  689SOL    HW1 2089   2.475   1.649   1.341
  689SOL    HW2 2090   2.569   1.564   1.239
  690SOL     OW 2091   1.901   1.077   0.300
  690SOL    HW1 2092   2.000   1.066   0.291
  690SOL    HW2 2093   1.861   0.991   0.332
  691SOL     OW 2094   2.737   1.646   0.337
  691SOL    HW1 2095   2.660   1.611   0.283
  691SOL    HW2 2096   2.705   1.717   0.399
  692SOL     OW 2097   2.092   0.628   1.975
  692SOL    HW1 2098   1.999   0.626   2.012
  692SOL    HW2 2099   2.093   0.589   1.883
  693SOL     OW 2100   2.087   0.275   2.858
  693SOL    HW1 2101   2.122   0.258   2.950
  693SOL    HW2 2102   1.999   0.230   2.846
  694SOL     OW 2103   1.881   0.368   2.509
  694SOL    HW1 2104   1.799   0.411   2.548
  694SOL    HW2 2105   1.853   0.295   2.446
  695SOL     OW 2106   2.630   1.144   2.885
  695SOL    HW1 2107   2.552   1.161   2.945
  695SOL    HW2 2108   2.664   1.231   2.849
  696SOL     OW 2109   2.547   1.012   2.527
  696SOL    HW1 2110   2.616   0.996   2.597
  696SOL    HW2 2111   2.474   1.069   2.565
  697SOL     OW 2112   2.197   1.435   2.923
  697SOL    HW1 2113   2.119   1.404   2.870
  697SOL    HW2 2114   2.255   1.493   2.866
  698SOL     OW 2115   2.093   1.713   2.345
  698SOL    HW1 2116   2.127   1.790   2.399
  698SOL    HW2 2117   2.137   1.713   2.255
  699SOL     OW 2118   2.092   1.434   2.400
  699SOL    HW1 2119   2.066   1.530   2.400
  699SOL    HW2 2120   2.021   1.380   2.445
  700SOL     OW 2121   2.102   1.091   2.748
  700SOL    HW1 2122   2.116   1.007   2.800
  700SOL    HW2 2123   2.047   1.155   2.803
  701SOL     OW 2124   2.468   0.964   1.985
  701SOL    HW1 2125   2.475   1.048   1.931
  701SOL    HW2 2126   2.514   0.977   2.073
  702SOL     OW 2127   1.984   0.643   2.425
  702SOL    HW1 2128   1.939   0.555   2.442
  702SOL    HW2 2129   1.983   0.697   2.509
  703SOL     OW 2130   1.889   1.596   1.979
  703SOL    HW1 2131   1.870   1.500   2.000
  703SOL    HW2 2132   1.856   1.654   2.054
  704SOL     OW 2133   2.475   1.365   2.588
  704SOL    HW1 2134   2.426   1.278   2.597
  704SOL    HW2 2135   2.452   1.408   2.501
  705SOL     OW 2136   2.671   0.004   2.364
  705SOL    HW1 2137   2.711   0.095   2.355
  705SOL    HW2 2138   2.571   0.012   2.370
  706SOL     OW 2139   2.059   0.976   3.126
  706SOL    HW1 2140   2.148   0.931   3.112
  706SOL    HW2 2141   1.986   0.911   3.107
  707SOL     OW 2142   2.460   0.729   2.132
  707SOL    HW1 2143   2.484   0.798   2.064
  707SOL    HW2 2144   2.382   0.762   2.186
  708SOL     OW 2145   2.903   0.701   2.291
  708SOL    HW1 2146   2.929   0.697   2.387
  708SOL    HW2 2147   2.818   0.650   2.277
  709SOL     OW 2148   1.938   0.811   2.651
  709SOL    HW1 2149   2.037   0.799   2.660
  709SOL    HW2 2150   1.914   0.906   2.672
  710SOL     OW 2151   2.727   0.348   2.057
  710SOL    HW1 2152   2.786   0.411   2.008
  710SOL    HW2 2153   2.746   0.254   2.028
  711SOL     OW 2154   2.412   0.196   2.747
  711SOL    HW1 2155   2.407   0.191   2.847
  711SOL    HW2 2156   2.414   0.292   2.718
  712SOL     OW 2157   2.870   1.456   2.339
  712SOL    HW1 2158   2.824   1.528   2.287
  712SOL    HW2 2159   2.866   1.476   2.437
  713SOL     OW 2160   2.213   1.801   2.715
  713SOL    HW1 2161   2.263   1.715   2.721
  713SOL    HW2 2162   2.278   1.878   2.712
  714SOL     OW 2163   2.183   0.943   2.104
  714SOL    HW1 2164   2.265   0.982   2.062
  714SOL    HW2 2165   2.156   0.861   2.055
  715SOL     OW 2166   2.326   1.743   2.185
  715SOL    HW1 2167   2.359   1.782   2.271
  715SOL    HW2 2168   2.402   1.736   2.120
  716SOL     OW 2169   2.111   1.785   3.103
  716SOL    HW1 2170   2.168   1.720   3.153
  716SOL    HW2 2171   2.095   1.752   3.010
  717SOL     OW 2172   2.802   1.698   2.766
  717SOL    HW1 2173   2.882   1.641   2.787
  717SOL    HW2 2174   2.753   1.658   2.689
  718SOL     OW 2175   2.244   0.700   2.342
  718SOL    HW1 2176   2.289   0.610   2.339
  718SOL    HW2 2177   2.150   0.689   2.375
  719SOL     OW 2178   2.476   0.122   1.979
  719SOL    HW1 2179   2.574   0.100   1.986
  719SOL    HW2 2180   2.445   0.105   1.886
  720SOL     OW 2181   2.665   1.402   2.786
  720SOL    HW1 2182   2.755   1.416   2.744
  720SOL    HW2 2183   2.594   1.404   2.715
  721SOL     OW 2184   2.784   0.503   2.761
  721SOL    HW1 2185   2.759   0.494   2.665
  721SOL    HW2 2186   2.832   0.421   2.792
  722SOL     OW 2187   2.401   0.064   2.374
  722SOL    HW1 2188   2.320   0.065   2.432
  722SOL    HW2 2189   2.404   0.147   2.319
  723SOL     OW 2190   2.159   0.035   2.033
  723SOL    HW1 2191   2.208   0.119   2.012
  723SOL    HW2 2192   2.221  -0.030   2.078
  724SOL     OW 2193   2.797   0.236   2.342
  724SOL    HW1 2194   2.749   0.277   2.264
  724SOL    HW2 2195   2.896   0.234   2.323
  725SOL     OW 2196   3.089   1.570   2.655
  725SOL    HW1 2197   3.110   1.644   2.590
  725SOL    HW2 2198   3.157   1.570   2.728
  726SOL     OW 2199   2.321   1.152   2.603
  726SOL    HW1 2200   2.250   1.125   2.668
  726SOL    HW2 2201   2.295   1.124   2.510
  727SOL     OW 2202   3.133   1.797   2.453
  727SOL    HW1 2203   3.177   1.861   2.389
  727SOL    HW2 2204   3.083   1.849   2.523
  728SOL     OW 2205   2.894   0.549   1.878
  728SOL    HW1 2206   2.853   0.631   1.839
  728SOL    HW2 2207   2.958   0.575   1.951
  729SOL     OW 2208   2.728   0.454   2.504
  729SOL    HW1 2209   2.696   0.526   2.442
  729SOL    HW2 2210   2.752   0.373   2.451
  730SOL     OW 2211   2.879   0.039   2.615
  730SOL    HW1 2212   2.807   0.044   2.546
  730SOL    HW2 2213   2.855  -0.030   2.684
  731SOL     OW 2214   2.350   1.385   2.036
  731SOL    HW1 2215   2.263   1.370   2.083
  731SOL    HW2 2216   2.333   1.411   1.941
  732SOL     OW 2217   2.389   0.256   2.190
  732SOL    HW1 2218   2.416   0.197   2.115
  732SOL    HW2 2219   2.389   0.351   2.159
  733SOL     OW 2220   2.567   1.050   2.230
  733SOL    HW1 2221   2.553   1.057   2.329
  733SOL    HW2 2222   2.651   0.999   2.212
  734SOL     OW 2223   2.272   0.813   3.113
  734SOL    HW1 2224   2.358   0.825   3.163
  734SOL    HW2 2225   2.230   0.726   3.140
  735SOL     OW 2226   2.229   1.100   2.363
  735SOL    HW1 2227   2.222   1.183   2.307
  735SOL    HW2 2228   2.233   1.020   2.303
  736SOL     OW 2229   2.428   0.537   2.727
  736SOL    HW1 2230   2.440   0.603   2.653
  736SOL    HW2 2231   2.474   0.571   2.810
  737SOL     OW 2232   3.114   1.348   2.250
  737SOL    HW1 2233   3.164   1.425   2.290
  737SOL    HW2 2234   3.019   1.350   2.282
  738SOL     OW 2235   2.216   1.510   3.191
  738SOL    HW1 2236   2.195   1.466   3.104
  738SOL    HW2 2237   2.313   1.536   3.194
  739SOL     OW 2238   2.435   0.870   2.891
  739SOL    HW1 2239   2.479   0.959   2.882
  739SOL    HW2 2240   2.372   0.870   2.968
  740SOL     OW 2241   3.071   0.525   2.137
  740SOL    HW1 2242   3.084   0.441   2.191
  740SOL    HW2 2243   3.042   0.599   2.197
  741SOL     OW 2244   2.594   0.634   2.926
  741SOL    HW1 2245   2.653   0.608   2.850
  741SOL    HW2 2246   2.566   0.730   2.915
  742SOL     OW 2247   2.169   0.063   2.480
  742SOL    HW1 2248   2.158   0.157   2.513
  742SOL    HW2 2249   2.164   0.000   2.557
  743SOL     OW 2250   2.885   0.766   2.828
  743SOL    HW1 2251   2.900   0.787   2.924
  743SOL    HW2 2252   2.855   0.671   2.819
  744SOL     OW 2253   2.930   1.333   2.711
  744SOL    HW1 2254   2.937   1.249   2.656
  744SOL    HW2 2255   2.992   1.402   2.675
  745SOL     OW 2256   2.181   0.810   2.811
  745SOL    HW1 2257   2.274   0.846   2.816
  745SOL    HW2 2258   2.175   0.725   2.863
  746SOL     OW 2259   2.201   0.509   2.868
  746SOL    HW1 2260   2.149   0.426   2.851
  746SOL    HW2 2261   2.278   0.514   2.804
  747SOL     OW 2262   1.870   1.326   2.062
  747SOL    HW1 2263   1.777   1.347   2.031
  747SOL    HW2 2264   1.880   1.227   2.075
  748SOL     OW 2265   1.950   1.801   2.789
  748SOL    HW1 2266   1.908   1.715   2.762
  748SOL    HW2 2267   2.044   1.804   2.755
  749SOL     OW 2268   2.366   1.568   2.772
  749SOL    HW1 2269   2.432   1.642   2.781
  749SOL    HW2 2270   2.410   1.489   2.730
  750SOL     OW 2271   2.864   0.796   3.100
  750SOL    HW1 2272   2.905   0.764   3.186
  750SOL    HW2 2273   2.768   0.769   3.097
  751SOL     OW 2274   1.902   0.544   2.976
  751SOL    HW1 2275   1.987   0.511   2.935
  751SOL    HW2 2276   1.915   0.559   3.074
  752SOL     OW 2277   2.677   0.572   2.187
  752SOL    HW1 2278   2.684   0.483   2.141
  752SOL    HW2 2279   2.583   0.606   2.179
  753SOL     OW 2280   2.533   0.464   3.131
  753SOL    HW1 2281   2.499   0.375   3.101
  753SOL    HW2 2282   2.559   0.518   3.051
  754SOL     OW 2283   2.335   0.500   2.053
  754SOL    HW1 2284   2.396   0.580   2.057
  754SOL    HW2 2285   2.240   0.531   2.060
  755SOL     OW 2286   3.164   0.855   2.171
  755SOL    HW1 2287   3.078   0.824   2.213
  755SOL    HW2 2288   3.160   0.841   2.072
  756SOL     OW 2289   1.945   1.258   2.884
  756SOL    HW1 2290   1.940   1.257   2.984
  756SOL    HW2 2291   1.862   1.217   2.846
  757SOL     OW 2292   2.534   1.616   2.016
  757SOL    HW1 2293   2.543   1.626   1.917
  757SOL    HW2 2294   2.494   1.527   2.037
  758SOL     OW 2295   2.125   0.326   2.582
  758SOL    HW1 2296   2.046   0.377   2.548
  758SOL    HW2 2297   2.116   0.311   2.680
  759SOL     OW 2298   2.778   0.910   2.153
  759SOL    HW1 2299   2.841   0.948   2.085
  759SOL    HW2 2300   2.818   0.827   2.192
  760SOL     OW 2301   2.901   1.098   2.558
  760SOL    HW1 2302   2.831   1.051   2.612
  760SOL    HW2 2303   2.960   1.030   2.515
  761SOL     OW 2304   2.876   0.236   2.833
  761SOL    HW1 2305   2.868   0.200   2.740
  761SOL    HW2 2306   2.874   0.160   2.898
  762SOL     OW 2307   2.452   1.487   2.353
  762SOL    HW1 2308   2.494   1.429   2.283
  762SOL    HW2 2309   2.408   1.566   2.309
  763SOL     OW 2310   2.117   1.348   2.152
  763SOL    HW1 2311   2.021   1.349   2.125
  763SOL    HW2 2312   2.129   1.401   2.236
  764SOL     OW 2313   1.937   0.345   1.895
  764SOL    HW1 2314   1.845   0.317   1.866
  764SOL    HW2 2315   1.968   0.422   1.839
  765SOL     OW 2316   1.934   0.166   2.180
  765SOL    HW1 2317   1.917   0.249   2.126
  765SOL    HW2 2318   2.024   0.129   2.158
  766SOL     OW 2319   2.456   0.745   2.514
  766SOL    HW1 2320   2.506   0.830   2.495
  766SOL    HW2 2321   2.368   0.747   2.466
  767SOL     OW 2322   2.721   1.374   1.878
  767SOL    HW1 2323   2.675   1.389   1.966
  767SOL    HW2 2324   2.765   1.459   1.848
  768SOL     OW 2325   2.523   1.790   2.815
  768SOL    HW1 2326   2.477   1.878   2.802
  768SOL    HW2 2327   2.622   1.802   2.808
  769SOL     OW 2328   2.721   0.956   2.723
  769SOL    HW1 2329   2.775   0.887   2.771
  769SOL    HW2 2330   2.689   1.025   2.789
  770SOL     OW 2331   2.945   0.984   1.949
  770SOL    HW1 2332   2.922   1.037   1.867
  770SOL    HW2 2333   3.026   0.928   1.930
  771SOL     OW 2334   1.941   1.240   2.515
  771SOL    HW1 2335   1.940   1.193   2.603
  771SOL    HW2 2336   2.023   1.212   2.464
  772SOL     OW 2337   2.290   0.424   2.382
  772SOL    HW1 2338   2.320   0.352   2.320
  772SOL    HW2 2339   2.251   0.384   2.465
  773SOL     OW 2340   2.674   1.586   2.549
  773SOL    HW1 2341   2.706   1.596   2.455
  773SOL    HW2 2342   2.595   1.524   2.551
  774SOL     OW 2343   2.632   1.330   2.163
  774SOL    HW1 2344   2.586   1.243   2.180
  774SOL    HW2 2345   2.723   1.327   2.204
  775SOL     OW 2346   1.901   1.077   2.162
  775SOL    HW1 2347   2.000   1.066   2.153
  775SOL    HW2 2348   1.861   0.991   2.194
  776SOL     OW 2349   2.737   1.646   2.199
  776SOL    HW1 2350   2.660   1.611   2.145
  776SOL    HW2 2351   2.705   1.717   2.261
  777SOL     OW 2352   2.092   2.490   0.113
  777SOL    HW1 2353   1.999   2.488   0.150
  777SOL    HW2 2354   2.093   2.451   0.021
  778SOL     OW 2355   2.087   2.137   0.996
  778SOL    HW1 2356   2.122   2.120   1.088
  778SOL    HW2 2357   1.999   2.092   0.984
  779SOL     OW 2358   1.881   2.230   0.647
  779SOL    HW1 2359   1.799   2.273   0.686
  779SOL    HW2 2360   1.853   2.157   0.584
  780SOL     OW 2361   2.630   3.006   1.023
  780SOL    HW1 2362   2.552   3.023   1.083
  780SOL    HW2 2363   2.664   3.093   0.987
  781SOL     OW 2364   2.712   2.660   1.823
  781SOL    HW1 2365   2.708   2.736   1.888
  781SOL    HW2 2366   2.734   2.696   1.732
  782SOL     OW 2367   2.547   2.874   0.665
  782SOL    HW1 2368   2.616   2.858   0.735
  782SOL    HW2 2369   2.474   2.931   0.703
  783SOL     OW 2370   2.300   2.254   1.499
  783SOL    HW1 2371   2.382   2.198   1.508
  783SOL    HW2 2372   2.219   2.196   1.503
  784SOL     OW 2373   2.092   3.296   0.538
  784SOL    HW1 2374   2.066   3.392   0.538
  784SOL    HW2 2375   2.021   3.242   0.583
  785SOL     OW 2376   2.102   2.953   0.886
  785SOL    HW1 2377   2.116   2.869   0.938
  785SOL    HW2 2378   2.047   3.017   0.941
  786SOL     OW 2379   2.468   2.826   0.123
  786SOL    HW1 2380   2.475   2.910   0.069
  786SOL    HW2 2381   2.514   2.839   0.211
  787SOL     OW 2382   1.984   2.505   0.563
  787SOL    HW1 2383   1.939   2.417   0.580
  787SOL    HW2 2384   1.983   2.559   0.647
  788SOL     OW 2385   1.975   2.599   1.597
  788SOL    HW1 2386   2.063   2.586   1.642
  788SOL    HW2 2387   1.962   2.696   1.575
  789SOL     OW 2388   2.671   1.866   0.502
  789SOL    HW1 2389   2.711   1.957   0.493
  789SOL    HW2 2390   2.571   1.874   0.508
  790SOL     OW 2391   2.059   2.838   1.264
  790SOL    HW1 2392   2.148   2.793   1.250
  790SOL    HW2 2393   1.986   2.773   1.245
  791SOL     OW 2394   2.179   2.113   1.801
  791SOL    HW1 2395   2.250   2.184   1.807
  791SOL    HW2 2396   2.091   2.152   1.829
  792SOL     OW 2397   2.460   2.591   0.270
  792SOL    HW1 2398   2.484   2.660   0.202
  792SOL    HW2 2399   2.382   2.624   0.324
  793SOL     OW 2400   2.669   2.467   1.465
  793SOL    HW1 2401   2.622   2.464   1.554
  793SOL    HW2 2402   2.618   2.412   1.399
  794SOL     OW 2403   2.835   2.752   1.572
  794SOL    HW1 2404   2.881   2.668   1.543
  794SOL    HW2 2405   2.779   2.786   1.497
  795SOL     OW 2406   2.853   2.272   1.242
  795SOL    HW1 2407   2.776   2.306   1.296
  795SOL    HW2 2408   2.819   2.221   1.163
  796SOL     OW 2409   2.903   2.563   0.429
  796SOL    HW1 2410   2.929   2.559   0.525
  796SOL    HW2 2411   2.818   2.512   0.415
  797SOL     OW 2412   1.938   2.673   0.789
  797SOL    HW1 2413   2.037   2.661   0.798
  797SOL    HW2 2414   1.914   2.768   0.810
  798SOL     OW 2415   2.727   2.210   0.195
  798SOL    HW1 2416   2.786   2.273   0.146
  798SOL    HW2 2417   2.746   2.116   0.166
  799SOL     OW 2418   2.412   2.058   0.885
  799SOL    HW1 2419   2.407   2.053   0.985
  799SOL    HW2 2420   2.414   2.154   0.856
  800SOL     OW 2421   2.183   2.805   0.242
  800SOL    HW1 2422   2.265   2.844   0.200
  800SOL    HW2 2423   2.156   2.723   0.193
  801SOL     OW 2424   2.064   2.147   1.498
  801SOL    HW1 2425   1.984   2.207   1.485
  801SOL    HW2 2426   2.054   2.098   1.584
  802SOL     OW 2427   2.244   2.562   0.480
  802SOL    HW1 2428   2.289   2.472   0.477
  802SOL    HW2 2429   2.150   2.551   0.513
  803SOL     OW 2430   2.476   1.984   0.117
  803SOL    HW1 2431   2.574   1.962   0.124
  803SOL    HW2 2432   2.445   1.967   0.024
  804SOL     OW 2433   2.643   2.126   1.749
  804SOL    HW1 2434   2.710   2.065   1.792
  804SOL    HW2 2435   2.570   2.145   1.814
  805SOL     OW 2436   2.784   2.365   0.899
  805SOL    HW1 2437   2.759   2.356   0.803
  805SOL    HW2 2438   2.832   2.283   0.930
  806SOL     OW 2439   2.401   1.926   0.512
  806SOL    HW1 2440   2.320   1.927   0.570
  806SOL    HW2 2441   2.404   2.009   0.457
  807SOL     OW 2442   2.797   2.098   0.480
  807SOL    HW1 2443   2.749   2.139   0.402
  807SOL    HW2 2444   2.896   2.096   0.461
  808SOL     OW 2445   2.321   3.014   0.741
  808SOL    HW1 2446   2.250   2.987   0.806
  808SOL    HW2 2447   2.295   2.986   0.648
  809SOL     OW 2448   2.894   2.411   0.016
  809SOL    HW1 2449   2.853   2.493  -0.023
  809SOL    HW2 2450   2.958   2.437   0.089
  810SOL     OW 2451   1.940   2.418   1.386
  810SOL    HW1 2452   2.032   2.417   1.345
  810SOL    HW2 2453   1.934   2.492   1.453
  811SOL     OW 2454   2.423   2.084   1.147
  811SOL    HW1 2455   2.461   2.000   1.184
  811SOL    HW2 2456   2.335   2.103   1.191
  812SOL     OW 2457   2.728   2.316   0.642
  812SOL    HW1 2458   2.696   2.388   0.580
  812SOL    HW2 2459   2.752   2.235   0.589
  813SOL     OW 2460   2.879   1.901   0.753
  813SOL    HW1 2461   2.807   1.906   0.684
  813SOL    HW2 2462   2.855   1.832   0.822
  814SOL     OW 2463   2.389   2.118   0.328
  814SOL    HW1 2464   2.416   2.059   0.253
  814SOL    HW2 2465   2.389   2.213   0.297
  815SOL     OW 2466   2.777   1.951   1.402
  815SOL    HW1 2467   2.802   1.931   1.307
  815SOL    HW2 2468   2.849   2.007   1.444
  816SOL     OW 2469   2.567   2.912   0.368
  816SOL    HW1 2470   2.553   2.919   0.467
  816SOL    HW2 2471   2.651   2.861   0.350
  817SOL     OW 2472   2.272   2.675   1.251
  817SOL    HW1 2473   2.358   2.687   1.301
  817SOL    HW2 2474   2.230   2.588   1.278
  818SOL     OW 2475   2.229   2.962   0.501
  818SOL    HW1 2476   2.222   3.045   0.445
  818SOL    HW2 2477   2.233   2.882   0.441
  819SOL     OW 2478   2.428   2.399   0.865
  819SOL    HW1 2479   2.440   2.465   0.791
  819SOL    HW2 2480   2.474   2.433   0.948
  820SOL     OW 2481   2.264   2.613   1.598
  820SOL    HW1 2482   2.332   2.668   1.551
  820SOL    HW2 2483   2.304   2.525   1.625
  821SOL     OW 2484   2.875   1.967   1.770
  821SOL    HW1 2485   2.881   2.052   1.718
  821SOL    HW2 2486   2.907   1.891   1.713
  822SOL     OW 2487   2.366   1.912   1.740
  822SOL    HW1 2488   2.324   1.855   1.670
  822SOL    HW2 2489   2.300   1.981   1.772
  823SOL     OW 2490   2.435   2.732   1.029
  823SOL    HW1 2491   2.479   2.821   1.020
  823SOL    HW2 2492   2.372   2.732   1.106
  824SOL     OW 2493   3.071   2.387   0.275
  824SOL    HW1 2494   3.084   2.303   0.329
  824SOL    HW2 2495   3.042   2.461   0.335
  825SOL     OW 2496   2.169   2.075   1.231
  825SOL    HW1 2497   2.146   2.112   1.321
  825SOL    HW2 2498   2.139   1.980   1.225
  826SOL     OW 2499   2.594   2.496   1.064
  826SOL    HW1 2500   2.653   2.470   0.988
  826SOL    HW2 2501   2.566   2.592   1.053
  827SOL     OW 2502   2.169   1.925   0.618
  827SOL    HW1 2503   2.158   2.019   0.651
  827SOL    HW2 2504   2.164   1.862   0.695
  828SOL     OW 2505   2.885   2.628   0.966
  828SOL    HW1 2506   2.900   2.649   1.062
  828SOL    HW2 2507   2.855   2.533   0.957
  829SOL     OW 2508   2.212   2.760   1.804
  829SOL    HW1 2509   2.288   2.804   1.852
  829SOL    HW2 2510   2.247   2.713   1.722
  830SOL     OW 2511   2.181   2.672   0.949
  830SOL    HW1 2512   2.274   2.708   0.954
  830SOL    HW2 2513   2.175   2.587   1.001
  831SOL     OW 2514   2.201   2.371   1.006
  831SOL    HW1 2515   2.149   2.288   0.989
  831SOL    HW2 2516   2.278   2.376   0.942
  832SOL     OW 2517   3.000   2.242   1.678
  832SOL    HW1 2518   2.955   2.305   1.742
  832SOL    HW2 2519   3.093   2.273   1.661
  833SOL     OW 2520   3.022   2.069   1.477
  833SOL    HW1 2521   3.022   2.133   1.554
  833SOL    HW2 2522   3.050   2.117   1.394
  834SOL     OW 2523   2.864   2.658   1.238
  834SOL    HW1 2524   2.905   2.626   1.324
  834SOL    HW2 2525   2.768   2.631   1.235
  835SOL     OW 2526   1.902   2.406   1.114
  835SOL    HW1 2527   1.987   2.373   1.073
  835SOL    HW2 2528   1.915   2.421   1.212
  836SOL     OW 2529   2.051   2.382   1.722
  836SOL    HW1 2530   2.110   2.342   1.652
  836SOL    HW2 2531   1.993   2.453   1.681
  837SOL     OW 2532   2.677   2.434   0.325
  837SOL    HW1 2533   2.684   2.345   0.279
  837SOL    HW2 2534   2.583   2.468   0.317
  838SOL     OW 2535   2.533   2.326   1.269
  838SOL    HW1 2536   2.499   2.237   1.239
  838SOL    HW2 2537   2.559   2.380   1.189
  839SOL     OW 2538   2.335   2.362   0.191
  839SOL    HW1 2539   2.396   2.442   0.195
  839SOL    HW2 2540   2.240   2.393   0.198
  840SOL     OW 2541   2.021   2.999   1.466
  840SOL    HW1 2542   2.043   2.938   1.542
  840SOL    HW2 2543   2.031   2.950   1.380
  841SOL     OW 2544   3.164   2.717   0.309
  841SOL    HW1 2545   3.078   2.686   0.351
  841SOL    HW2 2546   3.160   2.703   0.210
  842SOL     OW 2547   2.765   1.948   0.133
  842SOL    HW1 2548   2.816   1.949   0.047
  842SOL    HW2 2549   2.821   1.906   0.204
  843SOL     OW 2550   2.125   2.188   0.720
  843SOL    HW1 2551   2.046   2.239   0.686
  843SOL    HW2 2552   2.116   2.173   0.818
  844SOL     OW 2553   2.684   2.864   1.372
  844SOL    HW1 2554   2.724   2.863   1.280
  844SOL    HW2 2555   2.694   2.956   1.412
  845SOL     OW 2556   2.778   2.772   0.291
  845SOL    HW1 2557   2.841   2.810   0.223
  845SOL    HW2 2558   2.818   2.689   0.330
  846SOL     OW 2559   2.234   3.150   1.490
  846SOL    HW1 2560   2.221   3.243   1.456
  846SOL    HW2 2561   2.150   3.098   1.477
  847SOL     OW 2562   2.876   2.098   0.971
  847SOL    HW1 2563   2.868   2.062   0.878
  847SOL    HW2 2564   2.874   2.022   1.036
  848SOL     OW 2565   1.967   2.875   1.726
  848SOL    HW1 2566   1.890   2.842   1.780
  848SOL    HW2 2567   2.052   2.845   1.768
  849SOL     OW 2568   2.534   2.065   1.489
  849SOL    HW1 2569   2.624   2.049   1.449
  849SOL    HW2 2570   2.542   2.070   1.588
  850SOL     OW 2571   1.934   2.028   0.318
  850SOL    HW1 2572   1.917   2.111   0.264
  850SOL    HW2 2573   2.024   1.991   0.296
  851SOL     OW 2574   2.475   2.704   1.431
  851SOL    HW1 2575   2.531   2.785   1.414
  851SOL    HW2 2576   2.534   2.624   1.434
  852SOL     OW 2577   2.578   2.427   1.708
  852SOL    HW1 2578   2.597   2.492   1.782
  852SOL    HW2 2579   2.638   2.347   1.717
  853SOL     OW 2580   2.456   2.607   0.652
  853SOL    HW1 2581   2.506   2.692   0.633
  853SOL    HW2 2582   2.368   2.609   0.604
  854SOL     OW 2583   2.721   2.818   0.861
  854SOL    HW1 2584   2.775   2.749   0.909
  854SOL    HW2 2585   2.689   2.887   0.927
  855SOL     OW 2586   2.945   2.846   0.087
  855SOL    HW1 2587   2.922   2.899   0.005
  855SOL    HW2 2588   3.026   2.790   0.068
  856SOL     OW 2589   2.290   2.286   0.520
  856SOL    HW1 2590   2.320   2.214   0.458
  856SOL    HW2 2591   2.251   2.246   0.603
  857SOL     OW 2592   2.179   2.409   1.280
  857SOL    HW1 2593   2.217   2.350   1.352
  857SOL    HW2 2594   2.219   2.383   1.192
  858SOL     OW 2595   2.863   1.896   1.154
  858SOL    HW1 2596   2.800   1.824   1.123
  858SOL    HW2 2597   2.956   1.860   1.154
  859SOL     OW 2598   2.632   3.192   0.301
  859SOL    HW1 2599   2.586   3.105   0.318
  859SOL    HW2 2600   2.723   3.189   0.342
  860SOL     OW 2601   1.901   2.939   0.300
  860SOL    HW1 2602   2.000   2.928   0.291
  860SOL    HW2 2603   1.861   2.853   0.332
  861SOL     OW 2604   2.092   2.490   1.975
  861SOL    HW1 2605   1.999   2.488   2.012
  861SOL    HW2 2606   2.093   2.451   1.883
  862SOL     OW 2607   2.087   2.137   2.858
  862SOL    HW1 2608   2.122   2.120   2.950
  862SOL    HW2 2609   1.999   2.092   2.846
  863SOL     OW 2610   1.881   2.230   2.509
  863SOL    HW1 2611   1.799   2.273   2.548
  863SOL    HW2 2612   1.853   2.157   2.446
  864SOL     OW 2613   2.630   3.006   2.885
  864SOL    HW1 2614   2.552   3.023   2.945
  864SOL    HW2 2615   2.664   3.093   2.849
  865SOL     OW 2616   2.547   2.874   2.527
  865SOL    HW1 2617   2.616   2.858   2.597
  865SOL    HW2 2618   2.474   2.931   2.565
  866SOL     OW 2619   2.092   3.296   2.400
  866SOL    HW1 2620   2.066   3.392   2.400
  866SOL    HW2 2621   2.021   3.242   2.445
  867SOL     OW 2622   2.102   2.953   2.748
  867SOL    HW1 2623   2.116   2.869   2.800
  867SOL    HW2 2624   2.047   3.017   2.803
  868SOL     OW 2625   2.468   2.826   1.985
  868SOL    HW1 2626   2.475   2.910   1.931
  868SOL    HW2 2627   2.514   2.839   2.073
  869SOL     OW 2628   1.984   2.505   2.425
  869SOL    HW1 2629   1.939   2.417   2.442
  869SOL    HW2 2630   1.983   2.559   2.509
  870SOL     OW 2631   2.671   1.866   2.364
  870SOL    HW1 2632   2.711   1.957   2.355
  870SOL    HW2 2633   2.571   1.874   2.370
  871SOL     OW 2634   2.059   2.838   3.126
  871SOL    HW1 2635   2.148   2.793   3.112
  871SOL    HW2 2636   1.986   2.773   3.107
  872SOL     OW 2637   2.460   2.591   2.132
  872SOL    HW1 2638   2.484   2.660   2.064
  872SOL    HW2 2639   2.382   2.624   2.186
  873SOL     OW 2640   2.903   2.563   2.291
  873SOL    HW1 2641   2.929   2.559   2.387
  873SOL    HW2 2642   2.818   2.512   2.277
  874SOL     OW 2643   1.938   2.673   2.651
  874SOL    HW1 2644   2.037   2.661   2.660
  874SOL    HW2 2645   1.914   2.768   2.672
  875SOL     OW 2646   2.727   2.210   2.057
  875SOL    HW1 2647   2.786   2.273   2.008
  875SOL    HW2 2648   2.746   2.116   2.028
  876SOL     OW 2649   2.412   2.058   2.747
  876SOL    HW1 2650   2.407   2.053   2.847
  876SOL    HW2 2651   2.414   2.154   2.718
  877SOL     OW 2652   2.183   2.805   2.104
  877SOL    HW1 2653   2.265   2.844   2.062
  877SOL    HW2 2654   2.156   2.723   2.055
  878SOL     OW 2655   2.244   2.562   2.342
  878SOL    HW1 2656   2.289   2.472   2.339
  878SOL    HW2 2657   2.150   2.551   2.375
  879SOL     OW 2658   2.476   1.984   1.979
  879SOL    HW1 2659   2.574   1.962   1.986
  879SOL    HW2 2660   2.445   1.967   1.886
  880SOL     OW 2661   2.750   3.376   3.057
  880SOL    HW1 2662   2.727   3.351   2.963
  880SOL    HW2 2663   2.811   3.307   3.096
  881SOL     OW 2664   2.784   2.365   2.761
  881SOL    HW1 2665   2.759   2.356   2.665
  881SOL    HW2 2666   2.832   2.283   2.792
  882SOL     OW 2667   2.401   1.926   2.374
  882SOL    HW1 2668   2.320   1.927   2.432
  882SOL    HW2 2669   2.404   2.009   2.319
  883SOL     OW 2670   2.159   1.897   2.033
  883SOL    HW1 2671   2.208   1.981   2.012
  883SOL    HW2 2672   2.221   1.832   2.078
  884SOL     OW 2673   2.797   2.098   2.342
  884SOL    HW1 2674   2.749   2.139   2.264
  884SOL    HW2 2675   2.896   2.096   2.323
  885SOL     OW 2676   2.321   3.014   2.603
  885SOL    HW1 2677   2.250   2.987   2.668
  885SOL    HW2 2678   2.295   2.986   2.510
  886SOL     OW 2679   2.894   2.411   1.878
  886SOL    HW1 2680   2.853   2.493   1.839
  886SOL    HW2 2681   2.958   2.437   1.951
  887SOL     OW 2682   2.728   2.316   2.504
  887SOL    HW1 2683   2.696   2.388   2.442
  887SOL    HW2 2684   2.752   2.235   2.451
  888SOL     OW 2685   2.879   1.901   2.615
  888SOL    HW1 2686   2.807   1.906   2.546
  888SOL    HW2 2687   2.855   1.832   2.684
  889SOL     OW 2688   2.389   2.118   2.190
  889SOL    HW1 2689   2.416   2.059   2.115
  889SOL    HW2 2690   2.389   2.213   2.159
  890SOL     OW 2691   2.567   2.912   2.230
  890SOL    HW1 2692   2.553   2.919   2.329
  890SOL    HW2 2693   2.651   2.861   2.212
  891SOL     OW 2694   2.272   2.675   3.113
  891SOL    HW1 2695   2.358   2.687   3.163
  891SOL    HW2 2696   2.230   2.588   3.140
  892SOL     OW 2697   2.229   2.962   2.363
  892SOL    HW1 2698   2.222   3.045   2.307
  892SOL    HW2 2699   2.233   2.882   2.303
  893SOL     OW 2700   2.428   2.399   2.727
  893SOL    HW1 2701   2.440   2.465   2.653
  893SOL    HW2 2702   2.474   2.433   2.810
  894SOL     OW 2703   2.435   2.732   2.891
  894SOL    HW1 2704   2.479   2.821   2.882
  894SOL    HW2 2705   2.372   2.732   2.968
  895SOL     OW 2706   3.071   2.387   2.137
  895SOL    HW1 2707   3.084   2.303   2.191
  895SOL    HW2 2708   3.042   2.461   2.197
  896SOL     OW 2709   2.169   2.075   3.093
  896SOL    HW1 2710   2.146   2.112   3.183
  896SOL    HW2 2711   2.139   1.980   3.087
  897SOL     OW 2712   2.594   2.496   2.926
  897SOL    HW1 2713   2.653   2.470   2.850
  897SOL    HW2 2714   2.566   2.592   2.915
  898SOL     OW 2715   2.169   1.925   2.480
  898SOL    HW1 2716   2.158   2.019   2.513
  898SOL    HW2 2717   2.164   1.862   2.557
  899SOL     OW 2718   2.885   2.628   2.828
  899SOL    HW1 2719   2.900   2.649   2.924
  899SOL    HW2 2720   2.855   2.533   2.819
  900SOL     OW 2721   2.181   2.672   2.811
  900SOL    HW1 2722   2.274   2.708   2.816
  900SOL    HW2 2723   2.175   2.587   2.863
  901SOL     OW 2724   2.201   2.371   2.868
  901SOL    HW1 2725   2.149   2.288   2.851
  901SOL    HW2 2726   2.278   2.376   2.804
  902SOL     OW 2727   2.864   2.658   3.100
  902SOL    HW1 2728   2.905   2.626   3.186
  902SOL    HW2 2729   2.768   2.631   3.097
  903SOL     OW 2730   1.902   2.406   2.976
  903SOL    HW1 2731   1.987   2.373   2.935
  903SOL    HW2 2732   1.915   2.421   3.074
  904SOL     OW 2733   2.677   2.434   2.187
  904SOL    HW1 2734   2.684   2.345   2.141
  904SOL    HW2 2735   2.583   2.468   2.179
  905SOL     OW 2736   2.533   2.326   3.131
  905SOL    HW1 2737   2.499   2.237   3.101
  905SOL    HW2 2738   2.559   2.380   3.051
  906SOL     OW 2739   2.335   2.362   2.053
  906SOL    HW1 2740   2.396   2.442   2.057
  906SOL    HW2 2741   2.240   2.393   2.060
  907SOL     OW 2742   3.164   2.717   2.171
  907SOL    HW1 2743   3.078   2.686   2.213
  907SOL    HW2 2744   3.160   2.703   2.072
  908SOL     OW 2745   2.125   2.188   2.582
  908SOL    HW1 2746   2.046   2.239   2.548
  908SOL    HW2 2747   2.116   2.173   2.680
  909SOL     OW 2748   2.778   2.772   2.153
  909SOL    HW1 2749   2.841   2.810   2.085
  909SOL    HW2 2750   2.818   2.689   2.192
  910SOL     OW 2751   2.876   2.098   2.833
  910SOL    HW1 2752   2.868   2.062   2.740
  910SOL    HW2 2753   2.874   2.022   2.898
  911SOL     OW 2754   1.937   2.207   1.895
  911SOL    HW1 2755   1.845   2.179   1.866
  911SOL    HW2 2756   1.968   2.284   1.839
  912SOL     OW 2757   1.934   2.028   2.180
  912SOL    HW1 2758   1.917   2.111   2.126
  912SOL    HW2 2759   2.024   1.991   2.158
  913SOL     OW 2760   2.456   2.607   2.514
  913SOL    HW1 2761   2.506   2.692   2.495
  913SOL    HW2 2762   2.368   2.609   2.466
  914SOL     OW 2763   2.721   2.818   2.723
  914SOL    HW1 2764   2.775   2.749   2.771
  914SOL    HW2 2765   2.689   2.887   2.789
  915SOL     OW 2766   2.945   2.846   1.949
  915SOL    HW1 2767   2.922   2.899   1.867
  915SOL    HW2 2768   3.026   2.790   1.930
  916SOL     OW 2769   2.290   2.286   2.382
  916SOL    HW1 2770   2.320   2.214   2.320
  916SOL    HW2 2771   2.251   2.246   2.465
  917SOL     OW 2772   2.632   3.192   2.163
  917SOL    HW1 2773   2.586   3.105   2.180
  917SOL    HW2 2774   2.723   3.189   2.204
  918SOL     OW 2775   1.901   2.939   2.162
  918SOL    HW1 2776   2.000   2.928   2.153
  918SOL    HW2 2777   1.861   2.853   2.194
   3.05145   3.05145   3.05145
