mobley_5665561_GMX.gro created by acpype (v: 2023.10.27) on Thu May 14 13:25:38 2026
 2166
    1MOL     C1    1   1.238   1.685   1.421
    1MOL     C2    2   1.149   1.583   1.452
    1MOL     C3    3   1.371   1.656   1.392
    1MOL     C4    4   1.194   1.450   1.456
    1MOL     C5    5   1.552   1.492   1.367
    1MOL     C6    6   1.508   1.258   1.403
    1MOL     C7    7   1.418   1.523   1.395
    1MOL     C8    8   1.328   1.419   1.428
    1MOL     C9    9   1.596   1.360   1.371
    1MOL    C10   10   1.374   1.287   1.431
    1MOL    C11   11   1.739   1.329   1.340
    1MOL    C12   12   1.284   1.172   1.464
    1MOL     H1   13   1.203   1.788   1.418
    1MOL     H2   14   1.045   1.605   1.475
    1MOL     H3   15   1.439   1.738   1.368
    1MOL     H4   16   1.122   1.373   1.481
    1MOL     H5   17   1.622   1.571   1.342
    1MOL     H6   18   1.543   1.155   1.405
    1MOL     H7   19   1.802   1.346   1.429
    1MOL     H8   20   1.751   1.224   1.309
    1MOL     H9   21   1.777   1.391   1.258
    1MOL    H10   22   1.319   1.123   1.556
    1MOL    H11   23   1.181   1.206   1.479
    1MOL    H12   24   1.283   1.098   1.383
    2SOL     OW   25   0.230   0.628   0.113
    2SOL    HW1   26   0.137   0.626   0.150
    2SOL    HW2   27   0.231   0.589   0.021
    3SOL     OW   28   0.225   0.275   0.996
    3SOL    HW1   29   0.260   0.258   1.088
    3SOL    HW2   30   0.137   0.230   0.984
    4SOL     OW   31   0.019   0.368   0.647
    4SOL    HW1   32  -0.063   0.411   0.686
    4SOL    HW2   33  -0.009   0.295   0.584
    5SOL     OW   34   0.569   1.275   1.165
    5SOL    HW1   35   0.476   1.268   1.128
    5SOL    HW2   36   0.580   1.364   1.209
    6SOL     OW   37   1.555   1.511   0.703
    6SOL    HW1   38   1.498   1.495   0.784
    6SOL    HW2   39   1.496   1.521   0.623
    7SOL     OW   40   1.135   0.703   0.717
    7SOL    HW1   41   1.192   0.781   0.692
    7SOL    HW2   42   1.075   0.729   0.793
    8SOL     OW   43   1.755   0.607   0.231
    8SOL    HW1   44   1.743   0.594   0.132
    8SOL    HW2   45   1.725   0.526   0.280
    9SOL     OW   46   0.768   1.144   1.023
    9SOL    HW1   47   0.690   1.161   1.083
    9SOL    HW2   48   0.802   1.231   0.987
   10SOL     OW   49   0.850   0.798   1.823
   10SOL    HW1   50   0.846   0.874   1.888
   10SOL    HW2   51   0.872   0.834   1.732
   11SOL     OW   52   0.685   1.012   0.665
   11SOL    HW1   53   0.754   0.996   0.735
   11SOL    HW2   54   0.612   1.069   0.703
   12SOL     OW   55   0.686   1.161   1.803
   12SOL    HW1   56   0.746   1.240   1.817
   12SOL    HW2   57   0.600   1.192   1.762
   13SOL     OW   58   0.335   1.435   1.061
   13SOL    HW1   59   0.257   1.404   1.008
   13SOL    HW2   60   0.393   1.493   1.004
   14SOL     OW   61   0.438   0.392   1.499
   14SOL    HW1   62   0.520   0.336   1.508
   14SOL    HW2   63   0.357   0.334   1.503
   15SOL     OW   64   1.603   0.447   0.737
   15SOL    HW1   65   1.529   0.493   0.687
   15SOL    HW2   66   1.654   0.515   0.790
   16SOL     OW   67   0.231   1.713   0.483
   16SOL    HW1   68   0.265   1.790   0.537
   16SOL    HW2   69   0.275   1.713   0.393
   17SOL     OW   70   1.127   1.341   1.690
   17SOL    HW1   71   1.174   1.341   1.778
   17SOL    HW2   72   1.079   1.254   1.679
   18SOL     OW   73   0.230   1.434   0.538
   18SOL    HW1   74   0.204   1.530   0.538
   18SOL    HW2   75   0.159   1.380   0.583
   19SOL     OW   76   0.240   1.091   0.886
   19SOL    HW1   77   0.254   1.007   0.938
   19SOL    HW2   78   0.185   1.155   0.941
   20SOL     OW   79   0.620   1.786   1.439
   20SOL    HW1   80   0.528   1.769   1.474
   20SOL    HW2   81   0.648   1.878   1.465
   21SOL     OW   82   0.606   0.964   0.123
   21SOL    HW1   83   0.613   1.048   0.069
   21SOL    HW2   84   0.652   0.977   0.211
   22SOL     OW   85   1.594   0.114   1.480
   22SOL    HW1   86   1.576   0.181   1.408
   22SOL    HW2   87   1.591   0.160   1.569
   23SOL     OW   88   0.122   0.643   0.563
   23SOL    HW1   89   0.077   0.555   0.580
   23SOL    HW2   90   0.121   0.697   0.647
   24SOL     OW   91   1.842   1.767   0.359
   24SOL    HW1   92   1.896   1.738   0.439
   24SOL    HW2   93   1.872   1.857   0.330
   25SOL     OW   94   0.027   1.596   0.117
   25SOL    HW1   95   0.008   1.500   0.138
   25SOL    HW2   96  -0.006   1.654   0.192
   26SOL     OW   97   1.689   0.922   0.612
   26SOL    HW1   98   1.784   0.893   0.620
   26SOL    HW2   99   1.681   0.987   0.537
   27SOL     OW  100   1.641   1.108   0.432
   27SOL    HW1  101   1.727   1.110   0.380
   27SOL    HW2  102   1.655   1.155   0.520
   28SOL     OW  103   0.113   0.737   1.597
   28SOL    HW1  104   0.201   0.724   1.642
   28SOL    HW2  105   0.100   0.834   1.575
   29SOL     OW  106   0.613   1.365   0.726
   29SOL    HW1  107   0.564   1.278   0.735
   29SOL    HW2  108   0.590   1.408   0.639
   30SOL     OW  109   0.809   0.004   0.502
   30SOL    HW1  110   0.849   0.095   0.493
   30SOL    HW2  111   0.709   0.012   0.508
   31SOL     OW  112   0.197   0.976   1.264
   31SOL    HW1  113   0.286   0.931   1.250
   31SOL    HW2  114   0.124   0.911   1.245
   32SOL     OW  115   1.525   0.999   0.190
   32SOL    HW1  116   1.462   0.923   0.203
   32SOL    HW2  117   1.573   1.017   0.276
   33SOL     OW  118   1.187   1.792   1.616
   33SOL    HW1  119   1.211   1.852   1.540
   33SOL    HW2  120   1.194   1.697   1.586
   34SOL     OW  121   0.317   0.251   1.801
   34SOL    HW1  122   0.388   0.322   1.807
   34SOL    HW2  123   0.229   0.290   1.829
   35SOL     OW  124   1.466   1.417   0.953
   35SOL    HW1  125   1.407   1.423   1.033
   35SOL    HW2  126   1.451   1.329   0.907
   36SOL     OW  127   1.667   1.714   0.572
   36SOL    HW1  128   1.626   1.691   0.484
   36SOL    HW2  129   1.649   1.640   0.637
   37SOL     OW  130   0.598   0.729   0.270
   37SOL    HW1  131   0.622   0.798   0.202
   37SOL    HW2  132   0.520   0.762   0.324
   38SOL     OW  133   1.281   0.345   0.944
   38SOL    HW1  134   1.195   0.295   0.931
   38SOL    HW2  135   1.343   0.291   1.000
   39SOL     OW  136   1.576   1.662   0.307
   39SOL    HW1  137   1.665   1.708   0.310
   39SOL    HW2  138   1.555   1.638   0.212
   40SOL     OW  139   0.807   0.605   1.465
   40SOL    HW1  140   0.760   0.602   1.554
   40SOL    HW2  141   0.756   0.550   1.399
   41SOL     OW  142   1.394   0.469   1.674
   41SOL    HW1  143   1.374   0.512   1.762
   41SOL    HW2  144   1.472   0.407   1.683
   42SOL     OW  145   0.973   0.890   1.572
   42SOL    HW1  146   1.019   0.806   1.543
   42SOL    HW2  147   0.917   0.924   1.497
   43SOL     OW  148   0.991   0.410   1.242
   43SOL    HW1  149   0.914   0.444   1.296
   43SOL    HW2  150   0.957   0.359   1.163
   44SOL     OW  151   1.041   0.701   0.429
   44SOL    HW1  152   1.067   0.697   0.525
   44SOL    HW2  153   0.956   0.650   0.415
   45SOL     OW  154   0.076   0.811   0.789
   45SOL    HW1  155   0.175   0.799   0.798
   45SOL    HW2  156   0.052   0.906   0.810
   46SOL     OW  157   0.130   1.821   1.571
   46SOL    HW1  158   0.120   1.806   1.670
   46SOL    HW2  159   0.044   1.857   1.535
   47SOL     OW  160   0.865   0.348   0.195
   47SOL    HW1  161   0.924   0.411   0.146
   47SOL    HW2  162   0.884   0.254   0.166
   48SOL     OW  163   1.719   0.585   1.831
   48SOL    HW1  164   1.693   0.674   1.795
   48SOL    HW2  165   1.717   0.517   1.758
   49SOL     OW  166   1.362   1.144   0.545
   49SOL    HW1  167   1.445   1.115   0.497
   49SOL    HW2  168   1.313   1.211   0.489
   50SOL     OW  169   0.550   0.196   0.885
   50SOL    HW1  170   0.545   0.191   0.985
   50SOL    HW2  171   0.552   0.292   0.856
   51SOL     OW  172   1.008   1.456   0.477
   51SOL    HW1  173   0.962   1.528   0.425
   51SOL    HW2  174   1.004   1.476   0.575
   52SOL     OW  175   0.351   1.801   0.853
   52SOL    HW1  176   0.401   1.715   0.859
   52SOL    HW2  177   0.416   1.878   0.850
   53SOL     OW  178   1.795   1.066   0.873
   53SOL    HW1  179   1.733   1.051   0.797
   53SOL    HW2  180   1.743   1.077   0.958
   54SOL     OW  181   0.321   0.943   0.242
   54SOL    HW1  182   0.403   0.982   0.200
   54SOL    HW2  183   0.294   0.861   0.193
   55SOL     OW  184   1.458   0.735   0.728
   55SOL    HW1  185   1.453   0.670   0.803
   55SOL    HW2  186   1.538   0.794   0.741
   56SOL     OW  187   0.461   1.266   1.727
   56SOL    HW1  188   0.411   1.267   1.641
   56SOL    HW2  189   0.398   1.248   1.803
   57SOL     OW  190   1.111   1.776   0.237
   57SOL    HW1  191   1.051   1.714   0.287
   57SOL    HW2  192   1.142   1.732   0.152
   58SOL     OW  193   0.202   0.285   1.498
   58SOL    HW1  194   0.122   0.345   1.485
   58SOL    HW2  195   0.192   0.236   1.584
   59SOL     OW  196   1.632   1.377   0.081
   59SOL    HW1  197   1.600   1.471   0.071
   59SOL    HW2  198   1.556   1.314   0.069
   60SOL     OW  199   0.464   1.743   0.323
   60SOL    HW1  200   0.497   1.782   0.409
   60SOL    HW2  201   0.540   1.736   0.258
   61SOL     OW  202   1.400   0.107   0.426
   61SOL    HW1  203   1.376   0.070   0.336
   61SOL    HW2  204   1.499   0.123   0.430
   62SOL     OW  205   0.249   1.785   1.241
   62SOL    HW1  206   0.306   1.720   1.291
   62SOL    HW2  207   0.233   1.752   1.148
   63SOL     OW  208   0.940   1.698   0.904
   63SOL    HW1  209   1.020   1.641   0.925
   63SOL    HW2  210   0.891   1.658   0.827
   64SOL     OW  211   0.382   0.700   0.480
   64SOL    HW1  212   0.427   0.610   0.477
   64SOL    HW2  213   0.288   0.689   0.513
   65SOL     OW  214   1.547   0.222   1.729
   65SOL    HW1  215   1.542   0.259   1.821
   65SOL    HW2  216   1.475   0.153   1.717
   66SOL     OW  217   0.614   0.122   0.117
   66SOL    HW1  218   0.712   0.100   0.124
   66SOL    HW2  219   0.583   0.105   0.024
   67SOL     OW  220   0.781   0.264   1.749
   67SOL    HW1  221   0.848   0.203   1.792
   67SOL    HW2  222   0.708   0.283   1.814
   68SOL     OW  223   0.888   1.514   1.195
   68SOL    HW1  224   0.865   1.489   1.101
   68SOL    HW2  225   0.949   1.445   1.234
   69SOL     OW  226   1.351   0.590   1.433
   69SOL    HW1  227   1.379   0.547   1.518
   69SOL    HW2  228   1.376   0.686   1.434
   70SOL     OW  229   0.803   1.402   0.924
   70SOL    HW1  230   0.893   1.416   0.882
   70SOL    HW2  231   0.732   1.404   0.853
   71SOL     OW  232   0.922   0.503   0.899
   71SOL    HW1  233   0.897   0.494   0.803
   71SOL    HW2  234   0.970   0.421   0.930
   72SOL     OW  235   0.539   0.064   0.512
   72SOL    HW1  236   0.458   0.065   0.570
   72SOL    HW2  237   0.542   0.147   0.457
   73SOL     OW  238   1.434   1.188   0.041
   73SOL    HW1  239   1.466   1.112   0.098
   73SOL    HW2  240   1.342   1.215   0.071
   74SOL     OW  241   0.297   0.035   0.171
   74SOL    HW1  242   0.346   0.119   0.150
   74SOL    HW2  243   0.359  -0.030   0.216
   75SOL     OW  244   0.935   0.236   0.480
   75SOL    HW1  245   0.887   0.277   0.402
   75SOL    HW2  246   1.034   0.234   0.461
   76SOL     OW  247   1.076   0.683   1.464
   76SOL    HW1  248   0.996   0.622   1.467
   76SOL    HW2  249   1.157   0.630   1.440
   77SOL     OW  250   1.227   1.570   0.793
   77SOL    HW1  251   1.248   1.644   0.728
   77SOL    HW2  252   1.295   1.570   0.866
   78SOL     OW  253   0.459   1.152   0.741
   78SOL    HW1  254   0.388   1.125   0.806
   78SOL    HW2  255   0.433   1.124   0.648
   79SOL     OW  256   1.271   1.797   0.591
   79SOL    HW1  257   1.315   1.861   0.527
   79SOL    HW2  258   1.221   1.849   0.661
   80SOL     OW  259   1.032   0.549   0.016
   80SOL    HW1  260   0.991   0.631  -0.023
   80SOL    HW2  261   1.096   0.575   0.089
   81SOL     OW  262   0.078   0.556   1.386
   81SOL    HW1  263   0.170   0.555   1.345
   81SOL    HW2  264   0.072   0.630   1.453
   82SOL     OW  265   0.561   0.222   1.147
   82SOL    HW1  266   0.599   0.138   1.184
   82SOL    HW2  267   0.473   0.241   1.191
   83SOL     OW  268   0.866   0.454   0.642
   83SOL    HW1  269   0.834   0.526   0.580
   83SOL    HW2  270   0.890   0.373   0.589
   84SOL     OW  271   1.017   0.039   0.753
   84SOL    HW1  272   0.945   0.044   0.684
   84SOL    HW2  273   0.993  -0.030   0.822
   85SOL     OW  274   1.429   1.173   0.867
   85SOL    HW1  275   1.374   1.089   0.860
   85SOL    HW2  276   1.455   1.202   0.775
   86SOL     OW  277   1.466   0.590   0.992
   86SOL    HW1  278   1.436   0.495   0.999
   86SOL    HW2  279   1.539   0.606   1.058
   87SOL     OW  280   1.857   0.833   0.377
   87SOL    HW1  281   1.899   0.769   0.441
   87SOL    HW2  282   1.819   0.782   0.299
   88SOL     OW  283   0.488   1.385   0.174
   88SOL    HW1  284   0.401   1.370   0.221
   88SOL    HW2  285   0.471   1.411   0.079
   89SOL     OW  286   1.664   1.280   0.657
   89SOL    HW1  287   1.763   1.288   0.671
   89SOL    HW2  288   1.619   1.364   0.688
   90SOL     OW  289   1.390   0.575   0.078
   90SOL    HW1  290   1.336   0.554   0.159
   90SOL    HW2  291   1.481   0.534   0.087
   91SOL     OW  292   0.527   0.256   0.328
   91SOL    HW1  293   0.554   0.197   0.253
   91SOL    HW2  294   0.527   0.351   0.297
   92SOL     OW  295   1.754   1.223   1.588
   92SOL    HW1  296   1.845   1.184   1.575
   92SOL    HW2  297   1.762   1.319   1.612
   93SOL     OW  298   1.592   1.629   1.625
   93SOL    HW1  299   1.619   1.663   1.535
   93SOL    HW2  300   1.671   1.591   1.671
   94SOL     OW  301   1.111   1.195   1.100
   94SOL    HW1  302   1.071   1.239   1.181
   94SOL    HW2  303   1.070   1.232   1.017
   95SOL     OW  304   1.638   1.099   1.079
   95SOL    HW1  305   1.643   1.180   1.138
   95SOL    HW2  306   1.552   1.101   1.028
   96SOL     OW  307   0.915   0.089   1.402
   96SOL    HW1  308   0.940   0.069   1.307
   96SOL    HW2  309   0.987   0.145   1.444
   97SOL     OW  310   0.980   1.116   1.719
   97SOL    HW1  311   0.881   1.122   1.729
   97SOL    HW2  312   1.003   1.036   1.663
   98SOL     OW  313   0.705   1.050   0.368
   98SOL    HW1  314   0.691   1.057   0.467
   98SOL    HW2  315   0.789   0.999   0.350
   99SOL     OW  316   0.410   0.813   1.251
   99SOL    HW1  317   0.496   0.825   1.301
   99SOL    HW2  318   0.368   0.726   1.278
  100SOL     OW  319   1.274   0.386   1.262
  100SOL    HW1  320   1.295   0.460   1.326
  100SOL    HW2  321   1.185   0.403   1.219
  101SOL     OW  322   0.064   1.564   1.331
  101SOL    HW1  323   0.018   1.646   1.297
  101SOL    HW2  324   0.162   1.583   1.340
  102SOL     OW  325   0.367   1.100   0.501
  102SOL    HW1  326   0.360   1.183   0.445
  102SOL    HW2  327   0.371   1.020   0.441
  103SOL     OW  328   0.566   0.537   0.865
  103SOL    HW1  329   0.578   0.603   0.791
  103SOL    HW2  330   0.612   0.571   0.948
  104SOL     OW  331   1.252   1.348   0.388
  104SOL    HW1  332   1.302   1.425   0.428
  104SOL    HW2  333   1.157   1.350   0.420
  105SOL     OW  334   1.272   1.445   1.142
  105SOL    HW1  335   1.319   1.458   1.229
  105SOL    HW2  336   1.206   1.371   1.151
  106SOL     OW  337   1.582   0.639   0.472
  106SOL    HW1  338   1.551   0.700   0.545
  106SOL    HW2  339   1.632   0.691   0.403
  107SOL     OW  340   0.354   1.510   1.329
  107SOL    HW1  341   0.333   1.466   1.242
  107SOL    HW2  342   0.451   1.536   1.332
  108SOL     OW  343   0.402   0.751   1.598
  108SOL    HW1  344   0.470   0.806   1.551
  108SOL    HW2  345   0.442   0.663   1.625
  109SOL     OW  346   1.587   0.779   1.670
  109SOL    HW1  347   1.495   0.817   1.665
  109SOL    HW2  348   1.647   0.826   1.605
  110SOL     OW  349   1.013   0.105   1.770
  110SOL    HW1  350   1.019   0.190   1.718
  110SOL    HW2  351   1.045   0.029   1.713
  111SOL     OW  352   0.504   0.050   1.740
  111SOL    HW1  353   0.462  -0.007   1.670
  111SOL    HW2  354   0.438   0.119   1.772
  112SOL     OW  355   0.573   0.870   1.029
  112SOL    HW1  356   0.617   0.959   1.020
  112SOL    HW2  357   0.510   0.870   1.106
  113SOL     OW  358   1.360   0.862   1.045
  113SOL    HW1  359   1.285   0.862   0.979
  113SOL    HW2  360   1.397   0.770   1.054
  114SOL     OW  361   1.209   0.525   0.275
  114SOL    HW1  362   1.222   0.441   0.329
  114SOL    HW2  363   1.180   0.599   0.335
  115SOL     OW  364   0.307   0.213   1.231
  115SOL    HW1  365   0.284   0.250   1.321
  115SOL    HW2  366   0.277   0.118   1.225
  116SOL     OW  367   0.037   1.310   1.282
  116SOL    HW1  368   0.090   1.261   1.350
  116SOL    HW2  369   0.059   1.408   1.287
  117SOL     OW  370   0.732   0.634   1.064
  117SOL    HW1  371   0.791   0.608   0.988
  117SOL    HW2  372   0.704   0.730   1.053
  118SOL     OW  373   1.728   0.935   1.854
  118SOL    HW1  374   1.682   0.928   1.765
  118SOL    HW2  375   1.666   0.979   1.920
  119SOL     OW  376   0.307   0.063   0.618
  119SOL    HW1  377   0.296   0.157   0.651
  119SOL    HW2  378   0.302   0.000   0.695
  120SOL     OW  379   1.622   0.367   0.374
  120SOL    HW1  380   1.624   0.291   0.438
  120SOL    HW2  381   1.574   0.444   0.414
  121SOL     OW  382   1.023   0.766   0.966
  121SOL    HW1  383   1.038   0.787   1.062
  121SOL    HW2  384   0.993   0.671   0.957
  122SOL     OW  385   0.980   1.573   1.700
  122SOL    HW1  386   0.960   1.617   1.612
  122SOL    HW2  387   1.019   1.482   1.684
  123SOL     OW  388   1.859   1.518   1.605
  123SOL    HW1  389   1.873   1.545   1.510
  123SOL    HW2  390   1.942   1.540   1.658
  124SOL     OW  391   0.350   0.898   1.804
  124SOL    HW1  392   0.426   0.942   1.852
  124SOL    HW2  393   0.385   0.851   1.722
  125SOL     OW  394   1.540   0.274   0.125
  125SOL    HW1  395   1.479   0.199   0.148
  125SOL    HW2  396   1.562   0.326   0.208
  126SOL     OW  397   1.303   0.838   0.042
  126SOL    HW1  398   1.337   0.745   0.057
  126SOL    HW2  399   1.321   0.865  -0.053
  127SOL     OW  400   1.068   1.333   0.849
  127SOL    HW1  401   1.075   1.249   0.794
  127SOL    HW2  402   1.130   1.402   0.813
  128SOL     OW  403   0.319   0.810   0.949
  128SOL    HW1  404   0.412   0.846   0.954
  128SOL    HW2  405   0.313   0.725   1.001
  129SOL     OW  406   0.339   0.509   1.006
  129SOL    HW1  407   0.287   0.426   0.989
  129SOL    HW2  408   0.416   0.514   0.942
  130SOL     OW  409   1.138   0.380   1.678
  130SOL    HW1  410   1.093   0.443   1.742
  130SOL    HW2  411   1.231   0.411   1.661
  131SOL     OW  412   1.160   0.207   1.477
  131SOL    HW1  413   1.160   0.271   1.554
  131SOL    HW2  414   1.188   0.255   1.394
  132SOL     OW  415   0.008   1.326   0.200
  132SOL    HW1  416  -0.085   1.347   0.169
  132SOL    HW2  417   0.018   1.227   0.213
  133SOL     OW  418   0.088   1.801   0.927
  133SOL    HW1  419   0.046   1.715   0.900
  133SOL    HW2  420   0.182   1.804   0.893
  134SOL     OW  421   0.504   1.568   0.910
  134SOL    HW1  422   0.570   1.642   0.919
  134SOL    HW2  423   0.548   1.489   0.868
  135SOL     OW  424   1.002   0.796   1.238
  135SOL    HW1  425   1.043   0.764   1.324
  135SOL    HW2  426   0.906   0.769   1.235
  136SOL     OW  427   0.040   0.544   1.114
  136SOL    HW1  428   0.125   0.511   1.073
  136SOL    HW2  429   0.053   0.559   1.212
  137SOL     OW  430   0.189   0.520   1.722
  137SOL    HW1  431   0.248   0.480   1.652
  137SOL    HW2  432   0.131   0.591   1.681
  138SOL     OW  433   1.369   0.950   1.660
  138SOL    HW1  434   1.408   1.039   1.680
  138SOL    HW2  435   1.379   0.930   1.563
  139SOL     OW  436   0.815   0.572   0.325
  139SOL    HW1  437   0.822   0.483   0.279
  139SOL    HW2  438   0.721   0.606   0.317
  140SOL     OW  439   1.657   0.604   1.206
  140SOL    HW1  440   1.619   0.535   1.268
  140SOL    HW2  441   1.739   0.568   1.162
  141SOL     OW  442   0.252   1.564   1.744
  141SOL    HW1  443   0.222   1.621   1.820
  141SOL    HW2  444   0.245   1.467   1.770
  142SOL     OW  445   0.671   0.464   1.269
  142SOL    HW1  446   0.637   0.375   1.239
  142SOL    HW2  447   0.697   0.518   1.189
  143SOL     OW  448   0.473   0.500   0.191
  143SOL    HW1  449   0.534   0.580   0.195
  143SOL    HW2  450   0.378   0.531   0.198
  144SOL     OW  451   0.159   1.137   1.466
  144SOL    HW1  452   0.181   1.076   1.542
  144SOL    HW2  453   0.169   1.088   1.380
  145SOL     OW  454   1.347   1.059   1.234
  145SOL    HW1  455   1.371   0.996   1.160
  145SOL    HW2  456   1.257   1.099   1.216
  146SOL     OW  457   1.302   0.855   0.309
  146SOL    HW1  458   1.216   0.824   0.351
  146SOL    HW2  459   1.298   0.841   0.210
  147SOL     OW  460   1.759   1.747   1.154
  147SOL    HW1  461   1.820   1.777   1.081
  147SOL    HW2  462   1.721   1.658   1.132
  148SOL     OW  463   1.252   1.731   1.128
  148SOL    HW1  464   1.336   1.736   1.074
  148SOL    HW2  465   1.229   1.635   1.146
  149SOL     OW  466   0.083   1.258   1.022
  149SOL    HW1  467   0.078   1.257   1.122
  149SOL    HW2  468   0.000   1.217   0.984
  150SOL     OW  469   0.688   1.662   1.716
  150SOL    HW1  470   0.632   1.743   1.725
  150SOL    HW2  471   0.740   1.666   1.630
  151SOL     OW  472   0.903   0.086   0.133
  151SOL    HW1  473   0.954   0.087   0.047
  151SOL    HW2  474   0.959   0.044   0.204
  152SOL     OW  475   1.726   0.135   0.523
  152SOL    HW1  476   1.799   0.118   0.456
  152SOL    HW2  477   1.695   0.048   0.561
  153SOL     OW  478   1.388   1.573   0.477
  153SOL    HW1  479   1.455   1.585   0.403
  153SOL    HW2  480   1.348   1.662   0.500
  154SOL     OW  481   0.130   1.794   1.851
  154SOL    HW1  482   0.089   1.720   1.904
  154SOL    HW2  483   0.194   1.845   1.909
  155SOL     OW  484   1.280   0.927   0.672
  155SOL    HW1  485   1.340   0.846   0.674
  155SOL    HW2  486   1.320   0.996   0.612
  156SOL     OW  487   0.830   1.273   1.422
  156SOL    HW1  488   0.825   1.306   1.517
  156SOL    HW2  489   0.744   1.292   1.376
  157SOL     OW  490   0.672   1.616   0.154
  157SOL    HW1  491   0.681   1.626   0.055
  157SOL    HW2  492   0.632   1.527   0.175
  158SOL     OW  493   1.650   1.720   1.394
  158SOL    HW1  494   1.703   1.730   1.310
  158SOL    HW2  495   1.623   1.810   1.428
  159SOL     OW  496   1.841   0.175   0.963
  159SOL    HW1  497   1.880   0.090   0.927
  159SOL    HW2  498   1.743   0.177   0.944
  160SOL     OW  499   0.263   0.326   0.720
  160SOL    HW1  500   0.184   0.377   0.686
  160SOL    HW2  501   0.254   0.311   0.818
  161SOL     OW  502   1.194   1.612   0.031
  161SOL    HW1  503   1.200   1.519   0.068
  161SOL    HW2  504   1.135   1.612  -0.049
  162SOL     OW  505   0.822   1.002   1.372
  162SOL    HW1  506   0.862   1.001   1.280
  162SOL    HW2  507   0.832   1.094   1.412
  163SOL     OW  508   0.916   0.910   0.291
  163SOL    HW1  509   0.979   0.948   0.223
  163SOL    HW2  510   0.956   0.827   0.330
  164SOL     OW  511   1.504   1.607   0.044
  164SOL    HW1  512   1.412   1.644   0.051
  164SOL    HW2  513   1.542   1.627  -0.046
  165SOL     OW  514   0.372   1.288   1.490
  165SOL    HW1  515   0.359   1.381   1.456
  165SOL    HW2  516   0.288   1.236   1.477
  166SOL     OW  517   1.039   1.098   0.696
  166SOL    HW1  518   0.969   1.051   0.750
  166SOL    HW2  519   1.098   1.030   0.653
  167SOL     OW  520   1.014   0.236   0.971
  167SOL    HW1  521   1.006   0.200   0.878
  167SOL    HW2  522   1.012   0.160   1.036
  168SOL     OW  523   0.590   1.487   0.491
  168SOL    HW1  524   0.632   1.429   0.421
  168SOL    HW2  525   0.546   1.566   0.447
  169SOL     OW  526   1.709   0.385   1.381
  169SOL    HW1  527   1.782   0.454   1.385
  169SOL    HW2  528   1.737   0.310   1.322
  170SOL     OW  529   0.255   1.348   0.290
  170SOL    HW1  530   0.159   1.349   0.263
  170SOL    HW2  531   0.267   1.401   0.374
  171SOL     OW  532   0.105   1.013   1.726
  171SOL    HW1  533   0.028   0.980   1.780
  171SOL    HW2  534   0.190   0.983   1.768
  172SOL     OW  535   0.672   0.203   1.489
  172SOL    HW1  536   0.762   0.187   1.449
  172SOL    HW2  537   0.680   0.208   1.588
  173SOL     OW  538   0.075   0.345   0.033
  173SOL    HW1  539  -0.017   0.317   0.004
  173SOL    HW2  540   0.106   0.422  -0.023
  174SOL     OW  541   1.440   0.856   1.398
  174SOL    HW1  542   1.383   0.908   1.335
  174SOL    HW2  543   1.536   0.868   1.374
  175SOL     OW  544   0.072   0.166   0.318
  175SOL    HW1  545   0.055   0.249   0.264
  175SOL    HW2  546   0.162   0.129   0.296
  176SOL     OW  547   1.183   1.335   0.119
  176SOL    HW1  548   1.084   1.324   0.121
  176SOL    HW2  549   1.217   1.350   0.212
  177SOL     OW  550   0.613   0.842   1.431
  177SOL    HW1  551   0.669   0.923   1.414
  177SOL    HW2  552   0.672   0.762   1.434
  178SOL     OW  553   1.493   1.767   0.959
  178SOL    HW1  554   1.526   1.831   0.890
  178SOL    HW2  555   1.559   1.761   1.034
  179SOL     OW  556   0.716   0.565   1.708
  179SOL    HW1  557   0.735   0.630   1.782
  179SOL    HW2  558   0.776   0.485   1.717
  180SOL     OW  559   1.450   1.220   1.633
  180SOL    HW1  560   1.441   1.210   1.732
  180SOL    HW2  561   1.546   1.213   1.607
  181SOL     OW  562   0.390   1.741   1.560
  181SOL    HW1  563   0.299   1.782   1.558
  181SOL    HW2  564   0.383   1.647   1.592
  182SOL     OW  565   1.674   0.883   1.254
  182SOL    HW1  566   1.647   0.794   1.217
  182SOL    HW2  567   1.675   0.951   1.181
  183SOL     OW  568   1.225   0.325   0.449
  183SOL    HW1  569   1.290   0.251   0.438
  183SOL    HW2  570   1.245   0.375   0.533
  184SOL     OW  571   0.594   0.745   0.652
  184SOL    HW1  572   0.644   0.830   0.633
  184SOL    HW2  573   0.506   0.747   0.604
  185SOL     OW  574   1.777   0.342   1.642
  185SOL    HW1  575   1.760   0.373   1.548
  185SOL    HW2  576   1.693   0.305   1.680
  186SOL     OW  577   1.730   0.934   1.517
  186SOL    HW1  578   1.768   1.025   1.532
  186SOL    HW2  579   1.722   0.917   1.418
  187SOL     OW  580   0.859   1.374   0.016
  187SOL    HW1  581   0.813   1.389   0.104
  187SOL    HW2  582   0.903   1.459  -0.014
  188SOL     OW  583   0.661   1.790   0.953
  188SOL    HW1  584   0.615   1.878   0.940
  188SOL    HW2  585   0.760   1.802   0.946
  189SOL     OW  586   0.859   0.956   0.861
  189SOL    HW1  587   0.913   0.887   0.909
  189SOL    HW2  588   0.827   1.025   0.927
  190SOL     OW  589   1.083   0.984   0.087
  190SOL    HW1  590   1.060   1.037   0.005
  190SOL    HW2  591   1.164   0.928   0.068
  191SOL     OW  592   1.861   1.569   0.851
  191SOL    HW1  593   1.790   1.557   0.781
  191SOL    HW2  594   1.862   1.490   0.911
  192SOL     OW  595   0.221   1.314   1.844
  192SOL    HW1  596   0.156   1.241   1.823
  192SOL    HW2  597   0.225   1.328   1.942
  193SOL     OW  598   0.079   1.240   0.653
  193SOL    HW1  599   0.078   1.193   0.741
  193SOL    HW2  600   0.161   1.212   0.602
  194SOL     OW  601   0.672   1.391   1.624
  194SOL    HW1  602   0.594   1.341   1.662
  194SOL    HW2  603   0.669   1.486   1.655
  195SOL     OW  604   1.824   0.192   1.227
  195SOL    HW1  605   1.820   0.102   1.271
  195SOL    HW2  606   1.827   0.181   1.128
  196SOL     OW  607   0.428   0.424   0.520
  196SOL    HW1  608   0.458   0.352   0.458
  196SOL    HW2  609   0.389   0.384   0.603
  197SOL     OW  610   0.317   0.547   1.280
  197SOL    HW1  611   0.355   0.488   1.352
  197SOL    HW2  612   0.357   0.521   1.192
  198SOL     OW  613   0.812   1.586   0.687
  198SOL    HW1  614   0.844   1.596   0.593
  198SOL    HW2  615   0.733   1.524   0.689
  199SOL     OW  616   1.424   0.214   1.112
  199SOL    HW1  617   1.476   0.149   1.167
  199SOL    HW2  618   1.375   0.277   1.173
  200SOL     OW  619   1.001   0.034   1.154
  200SOL    HW1  620   0.938  -0.038   1.123
  200SOL    HW2  621   1.094  -0.002   1.154
  201SOL     OW  622   0.770   1.330   0.301
  201SOL    HW1  623   0.724   1.243   0.318
  201SOL    HW2  624   0.861   1.327   0.342
  202SOL     OW  625   0.618   1.567   1.284
  202SOL    HW1  626   0.613   1.649   1.341
  202SOL    HW2  627   0.707   1.564   1.239
  203SOL     OW  628   1.352   0.052   0.168
  203SOL    HW1  629   1.387   0.011   0.084
  203SOL    HW2  630   1.262   0.014   0.188
  204SOL     OW  631   1.300   0.453   0.691
  204SOL    HW1  632   1.241   0.533   0.695
  204SOL    HW2  633   1.315   0.418   0.784
  205SOL     OW  634   1.593   0.221   0.882
  205SOL    HW1  635   1.509   0.220   0.936
  205SOL    HW2  636   1.595   0.304   0.826
  206SOL     OW  637   0.039   1.077   0.300
  206SOL    HW1  638   0.138   1.066   0.291
  206SOL    HW2  639  -0.001   0.991   0.332
  207SOL     OW  640   0.875   1.646   0.337
  207SOL    HW1  641   0.798   1.611   0.283
  207SOL    HW2  642   0.843   1.717   0.399
  208SOL     OW  643   0.230   0.628   1.975
  208SOL    HW1  644   0.137   0.626   2.012
  208SOL    HW2  645   0.231   0.589   1.883
  209SOL     OW  646   0.019   0.368   2.509
  209SOL    HW1  647  -0.063   0.411   2.548
  209SOL    HW2  648  -0.009   0.295   2.446
  210SOL     OW  649   1.555   1.511   2.565
  210SOL    HW1  650   1.498   1.495   2.646
  210SOL    HW2  651   1.496   1.521   2.485
  211SOL     OW  652   1.135   0.703   2.579
  211SOL    HW1  653   1.192   0.781   2.554
  211SOL    HW2  654   1.075   0.729   2.655
  212SOL     OW  655   1.755   0.607   2.093
  212SOL    HW1  656   1.743   0.594   1.994
  212SOL    HW2  657   1.725   0.526   2.142
  213SOL     OW  658   0.685   1.012   2.527
  213SOL    HW1  659   0.754   0.996   2.597
  213SOL    HW2  660   0.612   1.069   2.565
  214SOL     OW  661   1.603   0.447   2.599
  214SOL    HW1  662   1.529   0.493   2.549
  214SOL    HW2  663   1.654   0.515   2.652
  215SOL     OW  664   0.231   1.713   2.345
  215SOL    HW1  665   0.265   1.790   2.399
  215SOL    HW2  666   0.275   1.713   2.255
  216SOL     OW  667   0.230   1.434   2.400
  216SOL    HW1  668   0.204   1.530   2.400
  216SOL    HW2  669   0.159   1.380   2.445
  217SOL     OW  670   0.240   1.091   2.748
  217SOL    HW1  671   0.254   1.007   2.800
  217SOL    HW2  672   0.185   1.155   2.803
  218SOL     OW  673   0.606   0.964   1.985
  218SOL    HW1  674   0.613   1.048   1.931
  218SOL    HW2  675   0.652   0.977   2.073
  219SOL     OW  676   0.122   0.643   2.425
  219SOL    HW1  677   0.077   0.555   2.442
  219SOL    HW2  678   0.121   0.697   2.509
  220SOL     OW  679   1.842   1.767   2.221
  220SOL    HW1  680   1.896   1.738   2.301
  220SOL    HW2  681   1.872   1.857   2.192
  221SOL     OW  682   0.027   1.596   1.979
  221SOL    HW1  683   0.008   1.500   2.000
  221SOL    HW2  684  -0.006   1.654   2.054
  222SOL     OW  685   1.689   0.922   2.474
  222SOL    HW1  686   1.784   0.893   2.482
  222SOL    HW2  687   1.681   0.987   2.399
  223SOL     OW  688   1.641   1.108   2.294
  223SOL    HW1  689   1.727   1.110   2.242
  223SOL    HW2  690   1.655   1.155   2.382
  224SOL     OW  691   0.613   1.365   2.588
  224SOL    HW1  692   0.564   1.278   2.597
  224SOL    HW2  693   0.590   1.408   2.501
  225SOL     OW  694   0.809   0.004   2.364
  225SOL    HW1  695   0.849   0.095   2.355
  225SOL    HW2  696   0.709   0.012   2.370
  226SOL     OW  697   1.525   0.999   2.052
  226SOL    HW1  698   1.462   0.923   2.065
  226SOL    HW2  699   1.573   1.017   2.138
  227SOL     OW  700   1.466   1.417   2.815
  227SOL    HW1  701   1.407   1.423   2.895
  227SOL    HW2  702   1.451   1.329   2.769
  228SOL     OW  703   1.667   1.714   2.434
  228SOL    HW1  704   1.626   1.691   2.346
  228SOL    HW2  705   1.649   1.640   2.499
  229SOL     OW  706   0.598   0.729   2.132
  229SOL    HW1  707   0.622   0.798   2.064
  229SOL    HW2  708   0.520   0.762   2.186
  230SOL     OW  709   1.281   0.345   2.806
  230SOL    HW1  710   1.195   0.295   2.793
  230SOL    HW2  711   1.343   0.291   2.862
  231SOL     OW  712   1.576   1.662   2.169
  231SOL    HW1  713   1.665   1.708   2.172
  231SOL    HW2  714   1.555   1.638   2.074
  232SOL     OW  715   1.041   0.701   2.291
  232SOL    HW1  716   1.067   0.697   2.387
  232SOL    HW2  717   0.956   0.650   2.277
  233SOL     OW  718   0.076   0.811   2.651
  233SOL    HW1  719   0.175   0.799   2.660
  233SOL    HW2  720   0.052   0.906   2.672
  234SOL     OW  721   0.865   0.348   2.057
  234SOL    HW1  722   0.924   0.411   2.008
  234SOL    HW2  723   0.884   0.254   2.028
  235SOL     OW  724   1.362   1.144   2.407
  235SOL    HW1  725   1.445   1.115   2.359
  235SOL    HW2  726   1.313   1.211   2.351
  236SOL     OW  727   1.008   1.456   2.339
  236SOL    HW1  728   0.962   1.528   2.287
  236SOL    HW2  729   1.004   1.476   2.437
  237SOL     OW  730   0.351   1.801   2.715
  237SOL    HW1  731   0.401   1.715   2.721
  237SOL    HW2  732   0.416   1.878   2.712
  238SOL     OW  733   1.795   1.066   2.735
  238SOL    HW1  734   1.733   1.051   2.659
  238SOL    HW2  735   1.743   1.077   2.820
  239SOL     OW  736   0.321   0.943   2.104
  239SOL    HW1  737   0.403   0.982   2.062
  239SOL    HW2  738   0.294   0.861   2.055
  240SOL     OW  739   1.458   0.735   2.590
  240SOL    HW1  740   1.453   0.670   2.665
  240SOL    HW2  741   1.538   0.794   2.603
  241SOL     OW  742   1.111   1.776   2.099
  241SOL    HW1  743   1.051   1.714   2.149
  241SOL    HW2  744   1.142   1.732   2.014
  242SOL     OW  745   1.632   1.377   1.943
  242SOL    HW1  746   1.600   1.471   1.933
  242SOL    HW2  747   1.556   1.314   1.931
  243SOL     OW  748   0.464   1.743   2.185
  243SOL    HW1  749   0.497   1.782   2.271
  243SOL    HW2  750   0.540   1.736   2.120
  244SOL     OW  751   1.400   0.107   2.288
  244SOL    HW1  752   1.376   0.070   2.198
  244SOL    HW2  753   1.499   0.123   2.292
  245SOL     OW  754   0.382   0.700   2.342
  245SOL    HW1  755   0.427   0.610   2.339
  245SOL    HW2  756   0.288   0.689   2.375
  246SOL     OW  757   0.614   0.122   1.979
  246SOL    HW1  758   0.712   0.100   1.986
  246SOL    HW2  759   0.583   0.105   1.886
  247SOL     OW  760   0.539   0.064   2.374
  247SOL    HW1  761   0.458   0.065   2.432
  247SOL    HW2  762   0.542   0.147   2.319
  248SOL     OW  763   1.434   1.188   1.903
  248SOL    HW1  764   1.466   1.112   1.960
  248SOL    HW2  765   1.342   1.215   1.933
  249SOL     OW  766   0.297   0.035   2.033
  249SOL    HW1  767   0.346   0.119   2.012
  249SOL    HW2  768   0.359  -0.030   2.078
  250SOL     OW  769   0.935   0.236   2.342
  250SOL    HW1  770   0.887   0.277   2.264
  250SOL    HW2  771   1.034   0.234   2.323
  251SOL     OW  772   0.459   1.152   2.603
  251SOL    HW1  773   0.388   1.125   2.668
  251SOL    HW2  774   0.433   1.124   2.510
  252SOL     OW  775   1.271   1.797   2.453
  252SOL    HW1  776   1.315   1.861   2.389
  252SOL    HW2  777   1.221   1.849   2.523
  253SOL     OW  778   1.032   0.549   1.878
  253SOL    HW1  779   0.991   0.631   1.839
  253SOL    HW2  780   1.096   0.575   1.951
  254SOL     OW  781   0.866   0.454   2.504
  254SOL    HW1  782   0.834   0.526   2.442
  254SOL    HW2  783   0.890   0.373   2.451
  255SOL     OW  784   1.017   0.039   2.615
  255SOL    HW1  785   0.945   0.044   2.546
  255SOL    HW2  786   0.993  -0.030   2.684
  256SOL     OW  787   1.857   0.833   2.239
  256SOL    HW1  788   1.899   0.769   2.303
  256SOL    HW2  789   1.819   0.782   2.161
  257SOL     OW  790   0.488   1.385   2.036
  257SOL    HW1  791   0.401   1.370   2.083
  257SOL    HW2  792   0.471   1.411   1.941
  258SOL     OW  793   1.664   1.280   2.519
  258SOL    HW1  794   1.763   1.288   2.533
  258SOL    HW2  795   1.619   1.364   2.550
  259SOL     OW  796   1.390   0.575   1.940
  259SOL    HW1  797   1.336   0.554   2.021
  259SOL    HW2  798   1.481   0.534   1.949
  260SOL     OW  799   0.527   0.256   2.190
  260SOL    HW1  800   0.554   0.197   2.115
  260SOL    HW2  801   0.527   0.351   2.159
  261SOL     OW  802   0.705   1.050   2.230
  261SOL    HW1  803   0.691   1.057   2.329
  261SOL    HW2  804   0.789   0.999   2.212
  262SOL     OW  805   0.367   1.100   2.363
  262SOL    HW1  806   0.360   1.183   2.307
  262SOL    HW2  807   0.371   1.020   2.303
  263SOL     OW  808   0.566   0.537   2.727
  263SOL    HW1  809   0.578   0.603   2.653
  263SOL    HW2  810   0.612   0.571   2.810
  264SOL     OW  811   1.252   1.348   2.250
  264SOL    HW1  812   1.302   1.425   2.290
  264SOL    HW2  813   1.157   1.350   2.282
  265SOL     OW  814   1.582   0.639   2.334
  265SOL    HW1  815   1.551   0.700   2.407
  265SOL    HW2  816   1.632   0.691   2.265
  266SOL     OW  817   1.209   0.525   2.137
  266SOL    HW1  818   1.222   0.441   2.191
  266SOL    HW2  819   1.180   0.599   2.197
  267SOL     OW  820   0.732   0.634   2.926
  267SOL    HW1  821   0.791   0.608   2.850
  267SOL    HW2  822   0.704   0.730   2.915
  268SOL     OW  823   0.307   0.063   2.480
  268SOL    HW1  824   0.296   0.157   2.513
  268SOL    HW2  825   0.302   0.000   2.557
  269SOL     OW  826   1.622   0.367   2.236
  269SOL    HW1  827   1.624   0.291   2.300
  269SOL    HW2  828   1.574   0.444   2.276
  270SOL     OW  829   1.540   0.274   1.987
  270SOL    HW1  830   1.479   0.199   2.010
  270SOL    HW2  831   1.562   0.326   2.070
  271SOL     OW  832   1.303   0.838   1.904
  271SOL    HW1  833   1.337   0.745   1.919
  271SOL    HW2  834   1.321   0.865   1.809
  272SOL     OW  835   1.068   1.333   2.711
  272SOL    HW1  836   1.075   1.249   2.656
  272SOL    HW2  837   1.130   1.402   2.675
  273SOL     OW  838   0.008   1.326   2.062
  273SOL    HW1  839  -0.085   1.347   2.031
  273SOL    HW2  840   0.018   1.227   2.075
  274SOL     OW  841   0.088   1.801   2.789
  274SOL    HW1  842   0.046   1.715   2.762
  274SOL    HW2  843   0.182   1.804   2.755
  275SOL     OW  844   0.504   1.568   2.772
  275SOL    HW1  845   0.570   1.642   2.781
  275SOL    HW2  846   0.548   1.489   2.730
  276SOL     OW  847   0.815   0.572   2.187
  276SOL    HW1  848   0.822   0.483   2.141
  276SOL    HW2  849   0.721   0.606   2.179
  277SOL     OW  850   0.473   0.500   2.053
  277SOL    HW1  851   0.534   0.580   2.057
  277SOL    HW2  852   0.378   0.531   2.060
  278SOL     OW  853   1.302   0.855   2.171
  278SOL    HW1  854   1.216   0.824   2.213
  278SOL    HW2  855   1.298   0.841   2.072
  279SOL     OW  856   1.726   0.135   2.385
  279SOL    HW1  857   1.799   0.118   2.318
  279SOL    HW2  858   1.695   0.048   2.423
  280SOL     OW  859   1.388   1.573   2.339
  280SOL    HW1  860   1.455   1.585   2.265
  280SOL    HW2  861   1.348   1.662   2.362
  281SOL     OW  862   1.280   0.927   2.534
  281SOL    HW1  863   1.340   0.846   2.536
  281SOL    HW2  864   1.320   0.996   2.474
  282SOL     OW  865   0.672   1.616   2.016
  282SOL    HW1  866   0.681   1.626   1.917
  282SOL    HW2  867   0.632   1.527   2.037
  283SOL     OW  868   1.841   0.175   2.825
  283SOL    HW1  869   1.880   0.090   2.789
  283SOL    HW2  870   1.743   0.177   2.806
  284SOL     OW  871   0.263   0.326   2.582
  284SOL    HW1  872   0.184   0.377   2.548
  284SOL    HW2  873   0.254   0.311   2.680
  285SOL     OW  874   1.194   1.612   1.893
  285SOL    HW1  875   1.200   1.519   1.930
  285SOL    HW2  876   1.135   1.612   1.813
  286SOL     OW  877   0.916   0.910   2.153
  286SOL    HW1  878   0.979   0.948   2.085
  286SOL    HW2  879   0.956   0.827   2.192
  287SOL     OW  880   1.504   1.607   1.906
  287SOL    HW1  881   1.412   1.644   1.913
  287SOL    HW2  882   1.542   1.627   1.816
  288SOL     OW  883   1.039   1.098   2.558
  288SOL    HW1  884   0.969   1.051   2.612
  288SOL    HW2  885   1.098   1.030   2.515
  289SOL     OW  886   0.590   1.487   2.353
  289SOL    HW1  887   0.632   1.429   2.283
  289SOL    HW2  888   0.546   1.566   2.309
  290SOL     OW  889   0.255   1.348   2.152
  290SOL    HW1  890   0.159   1.349   2.125
  290SOL    HW2  891   0.267   1.401   2.236
  291SOL     OW  892   0.075   0.345   1.895
  291SOL    HW1  893  -0.017   0.317   1.866
  291SOL    HW2  894   0.106   0.422   1.839
  292SOL     OW  895   0.072   0.166   2.180
  292SOL    HW1  896   0.055   0.249   2.126
  292SOL    HW2  897   0.162   0.129   2.158
  293SOL     OW  898   1.183   1.335   1.981
  293SOL    HW1  899   1.084   1.324   1.983
  293SOL    HW2  900   1.217   1.350   2.074
  294SOL     OW  901   1.225   0.325   2.311
  294SOL    HW1  902   1.290   0.251   2.300
  294SOL    HW2  903   1.245   0.375   2.395
  295SOL     OW  904   0.594   0.745   2.514
  295SOL    HW1  905   0.644   0.830   2.495
  295SOL    HW2  906   0.506   0.747   2.466
  296SOL     OW  907   0.859   1.374   1.878
  296SOL    HW1  908   0.813   1.389   1.966
  296SOL    HW2  909   0.903   1.459   1.848
  297SOL     OW  910   0.661   1.790   2.815
  297SOL    HW1  911   0.615   1.878   2.802
  297SOL    HW2  912   0.760   1.802   2.808
  298SOL     OW  913   0.859   0.956   2.723
  298SOL    HW1  914   0.913   0.887   2.771
  298SOL    HW2  915   0.827   1.025   2.789
  299SOL     OW  916   1.083   0.984   1.949
  299SOL    HW1  917   1.060   1.037   1.867
  299SOL    HW2  918   1.164   0.928   1.930
  300SOL     OW  919   1.861   1.569   2.713
  300SOL    HW1  920   1.790   1.557   2.643
  300SOL    HW2  921   1.862   1.490   2.773
  301SOL     OW  922   0.079   1.240   2.515
  301SOL    HW1  923   0.078   1.193   2.603
  301SOL    HW2  924   0.161   1.212   2.464
  302SOL     OW  925   1.824   0.192   3.089
  302SOL    HW1  926   1.820   0.102   3.133
  302SOL    HW2  927   1.827   0.181   2.990
  303SOL     OW  928   0.428   0.424   2.382
  303SOL    HW1  929   0.458   0.352   2.320
  303SOL    HW2  930   0.389   0.384   2.465
  304SOL     OW  931   0.812   1.586   2.549
  304SOL    HW1  932   0.844   1.596   2.455
  304SOL    HW2  933   0.733   1.524   2.551
  305SOL     OW  934   0.770   1.330   2.163
  305SOL    HW1  935   0.724   1.243   2.180
  305SOL    HW2  936   0.861   1.327   2.204
  306SOL     OW  937   1.352   0.052   2.030
  306SOL    HW1  938   1.387   0.011   1.946
  306SOL    HW2  939   1.262   0.014   2.050
  307SOL     OW  940   1.300   0.453   2.553
  307SOL    HW1  941   1.241   0.533   2.557
  307SOL    HW2  942   1.315   0.418   2.646
  308SOL     OW  943   1.593   0.221   2.744
  308SOL    HW1  944   1.509   0.220   2.798
  308SOL    HW2  945   1.595   0.304   2.688
  309SOL     OW  946   0.039   1.077   2.162
  309SOL    HW1  947   0.138   1.066   2.153
  309SOL    HW2  948  -0.001   0.991   2.194
  310SOL     OW  949   0.875   1.646   2.199
  310SOL    HW1  950   0.798   1.611   2.145
  310SOL    HW2  951   0.843   1.717   2.261
  311SOL     OW  952   0.230   2.490   0.113
  311SOL    HW1  953   0.137   2.488   0.150
  311SOL    HW2  954   0.231   2.451   0.021
  312SOL     OW  955   0.225   2.137   0.996
  312SOL    HW1  956   0.260   2.120   1.088
  312SOL    HW2  957   0.137   2.092   0.984
  313SOL     OW  958   0.019   2.230   0.647
  313SOL    HW1  959  -0.063   2.273   0.686
  313SOL    HW2  960  -0.009   2.157   0.584
  314SOL     OW  961   1.135   2.565   0.717
  314SOL    HW1  962   1.192   2.643   0.692
  314SOL    HW2  963   1.075   2.591   0.793
  315SOL     OW  964   1.755   2.469   0.231
  315SOL    HW1  965   1.743   2.456   0.132
  315SOL    HW2  966   1.725   2.388   0.280
  316SOL     OW  967   0.850   2.660   1.823
  316SOL    HW1  968   0.846   2.736   1.888
  316SOL    HW2  969   0.872   2.696   1.732
  317SOL     OW  970   0.685   2.874   0.665
  317SOL    HW1  971   0.754   2.858   0.735
  317SOL    HW2  972   0.612   2.931   0.703
  318SOL     OW  973   0.438   2.254   1.499
  318SOL    HW1  974   0.520   2.198   1.508
  318SOL    HW2  975   0.357   2.196   1.503
  319SOL     OW  976   1.603   2.309   0.737
  319SOL    HW1  977   1.529   2.355   0.687
  319SOL    HW2  978   1.654   2.377   0.790
  320SOL     OW  979   1.594   1.976   1.480
  320SOL    HW1  980   1.576   2.043   1.408
  320SOL    HW2  981   1.591   2.022   1.569
  321SOL     OW  982   0.122   2.505   0.563
  321SOL    HW1  983   0.077   2.417   0.580
  321SOL    HW2  984   0.121   2.559   0.647
  322SOL     OW  985   0.113   2.599   1.597
  322SOL    HW1  986   0.201   2.586   1.642
  322SOL    HW2  987   0.100   2.696   1.575
  323SOL     OW  988   0.809   1.866   0.502
  323SOL    HW1  989   0.849   1.957   0.493
  323SOL    HW2  990   0.709   1.874   0.508
  324SOL     OW  991   0.317   2.113   1.801
  324SOL    HW1  992   0.388   2.184   1.807
  324SOL    HW2  993   0.229   2.152   1.829
  325SOL     OW  994   0.598   2.591   0.270
  325SOL    HW1  995   0.622   2.660   0.202
  325SOL    HW2  996   0.520   2.624   0.324
  326SOL     OW  997   1.281   2.207   0.944
  326SOL    HW1  998   1.195   2.157   0.931
  326SOL    HW2  999   1.343   2.153   1.000
  327SOL     OW 1000   0.807   2.467   1.465
  327SOL    HW1 1001   0.760   2.464   1.554
  327SOL    HW2 1002   0.756   2.412   1.399
  328SOL     OW 1003   1.394   2.331   1.674
  328SOL    HW1 1004   1.374   2.374   1.762
  328SOL    HW2 1005   1.472   2.269   1.683
  329SOL     OW 1006   0.991   2.272   1.242
  329SOL    HW1 1007   0.914   2.306   1.296
  329SOL    HW2 1008   0.957   2.221   1.163
  330SOL     OW 1009   1.041   2.563   0.429
  330SOL    HW1 1010   1.067   2.559   0.525
  330SOL    HW2 1011   0.956   2.512   0.415
  331SOL     OW 1012   0.076   2.673   0.789
  331SOL    HW1 1013   0.175   2.661   0.798
  331SOL    HW2 1014   0.052   2.768   0.810
  332SOL     OW 1015   0.865   2.210   0.195
  332SOL    HW1 1016   0.924   2.273   0.146
  332SOL    HW2 1017   0.884   2.116   0.166
  333SOL     OW 1018   1.719   2.447   1.831
  333SOL    HW1 1019   1.693   2.536   1.795
  333SOL    HW2 1020   1.717   2.379   1.758
  334SOL     OW 1021   0.550   2.058   0.885
  334SOL    HW1 1022   0.545   2.053   0.985
  334SOL    HW2 1023   0.552   2.154   0.856
  335SOL     OW 1024   1.458   2.597   0.728
  335SOL    HW1 1025   1.453   2.532   0.803
  335SOL    HW2 1026   1.538   2.656   0.741
  336SOL     OW 1027   0.202   2.147   1.498
  336SOL    HW1 1028   0.122   2.207   1.485
  336SOL    HW2 1029   0.192   2.098   1.584
  337SOL     OW 1030   1.400   1.969   0.426
  337SOL    HW1 1031   1.376   1.932   0.336
  337SOL    HW2 1032   1.499   1.985   0.430
  338SOL     OW 1033   0.382   2.562   0.480
  338SOL    HW1 1034   0.427   2.472   0.477
  338SOL    HW2 1035   0.288   2.551   0.513
  339SOL     OW 1036   1.547   2.084   1.729
  339SOL    HW1 1037   1.542   2.121   1.821
  339SOL    HW2 1038   1.475   2.015   1.717
  340SOL     OW 1039   0.781   2.126   1.749
  340SOL    HW1 1040   0.848   2.065   1.792
  340SOL    HW2 1041   0.708   2.145   1.814
  341SOL     OW 1042   1.351   2.452   1.433
  341SOL    HW1 1043   1.379   2.409   1.518
  341SOL    HW2 1044   1.376   2.548   1.434
  342SOL     OW 1045   0.922   2.365   0.899
  342SOL    HW1 1046   0.897   2.356   0.803
  342SOL    HW2 1047   0.970   2.283   0.930
  343SOL     OW 1048   0.539   1.926   0.512
  343SOL    HW1 1049   0.458   1.927   0.570
  343SOL    HW2 1050   0.542   2.009   0.457
  344SOL     OW 1051   0.297   1.897   0.171
  344SOL    HW1 1052   0.346   1.981   0.150
  344SOL    HW2 1053   0.359   1.832   0.216
  345SOL     OW 1054   0.935   2.098   0.480
  345SOL    HW1 1055   0.887   2.139   0.402
  345SOL    HW2 1056   1.034   2.096   0.461
  346SOL     OW 1057   1.076   2.545   1.464
  346SOL    HW1 1058   0.996   2.484   1.467
  346SOL    HW2 1059   1.157   2.492   1.440
  347SOL     OW 1060   1.032   2.411   0.016
  347SOL    HW1 1061   0.991   2.493  -0.023
  347SOL    HW2 1062   1.096   2.437   0.089
  348SOL     OW 1063   0.078   2.418   1.386
  348SOL    HW1 1064   0.170   2.417   1.345
  348SOL    HW2 1065   0.072   2.492   1.453
  349SOL     OW 1066   0.561   2.084   1.147
  349SOL    HW1 1067   0.599   2.000   1.184
  349SOL    HW2 1068   0.473   2.103   1.191
  350SOL     OW 1069   0.866   2.316   0.642
  350SOL    HW1 1070   0.834   2.388   0.580
  350SOL    HW2 1071   0.890   2.235   0.589
  351SOL     OW 1072   1.017   1.901   0.753
  351SOL    HW1 1073   0.945   1.906   0.684
  351SOL    HW2 1074   0.993   1.832   0.822
  352SOL     OW 1075   1.466   2.452   0.992
  352SOL    HW1 1076   1.436   2.357   0.999
  352SOL    HW2 1077   1.539   2.468   1.058
  353SOL     OW 1078   1.857   2.695   0.377
  353SOL    HW1 1079   1.899   2.631   0.441
  353SOL    HW2 1080   1.819   2.644   0.299
  354SOL     OW 1081   1.390   2.437   0.078
  354SOL    HW1 1082   1.336   2.416   0.159
  354SOL    HW2 1083   1.481   2.396   0.087
  355SOL     OW 1084   0.527   2.118   0.328
  355SOL    HW1 1085   0.554   2.059   0.253
  355SOL    HW2 1086   0.527   2.213   0.297
  356SOL     OW 1087   0.915   1.951   1.402
  356SOL    HW1 1088   0.940   1.931   1.307
  356SOL    HW2 1089   0.987   2.007   1.444
  357SOL     OW 1090   0.410   2.675   1.251
  357SOL    HW1 1091   0.496   2.687   1.301
  357SOL    HW2 1092   0.368   2.588   1.278
  358SOL     OW 1093   1.274   2.248   1.262
  358SOL    HW1 1094   1.295   2.322   1.326
  358SOL    HW2 1095   1.185   2.265   1.219
  359SOL     OW 1096   0.566   2.399   0.865
  359SOL    HW1 1097   0.578   2.465   0.791
  359SOL    HW2 1098   0.612   2.433   0.948
  360SOL     OW 1099   1.582   2.501   0.472
  360SOL    HW1 1100   1.551   2.562   0.545
  360SOL    HW2 1101   1.632   2.553   0.403
  361SOL     OW 1102   0.402   2.613   1.598
  361SOL    HW1 1103   0.470   2.668   1.551
  361SOL    HW2 1104   0.442   2.525   1.625
  362SOL     OW 1105   1.587   2.641   1.670
  362SOL    HW1 1106   1.495   2.679   1.665
  362SOL    HW2 1107   1.647   2.688   1.605
  363SOL     OW 1108   1.013   1.967   1.770
  363SOL    HW1 1109   1.019   2.052   1.718
  363SOL    HW2 1110   1.045   1.891   1.713
  364SOL     OW 1111   0.504   1.912   1.740
  364SOL    HW1 1112   0.462   1.855   1.670
  364SOL    HW2 1113   0.438   1.981   1.772
  365SOL     OW 1114   0.573   2.732   1.029
  365SOL    HW1 1115   0.617   2.821   1.020
  365SOL    HW2 1116   0.510   2.732   1.106
  366SOL     OW 1117   1.360   2.724   1.045
  366SOL    HW1 1118   1.285   2.724   0.979
  366SOL    HW2 1119   1.397   2.632   1.054
  367SOL     OW 1120   1.209   2.387   0.275
  367SOL    HW1 1121   1.222   2.303   0.329
  367SOL    HW2 1122   1.180   2.461   0.335
  368SOL     OW 1123   0.307   2.075   1.231
  368SOL    HW1 1124   0.284   2.112   1.321
  368SOL    HW2 1125   0.277   1.980   1.225
  369SOL     OW 1126   0.732   2.496   1.064
  369SOL    HW1 1127   0.791   2.470   0.988
  369SOL    HW2 1128   0.704   2.592   1.053
  370SOL     OW 1129   1.728   2.797   1.854
  370SOL    HW1 1130   1.682   2.790   1.765
  370SOL    HW2 1131   1.666   2.841   1.920
  371SOL     OW 1132   0.307   1.925   0.618
  371SOL    HW1 1133   0.296   2.019   0.651
  371SOL    HW2 1134   0.302   1.862   0.695
  372SOL     OW 1135   1.622   2.229   0.374
  372SOL    HW1 1136   1.624   2.153   0.438
  372SOL    HW2 1137   1.574   2.306   0.414
  373SOL     OW 1138   1.023   2.628   0.966
  373SOL    HW1 1139   1.038   2.649   1.062
  373SOL    HW2 1140   0.993   2.533   0.957
  374SOL     OW 1141   1.540   2.136   0.125
  374SOL    HW1 1142   1.479   2.061   0.148
  374SOL    HW2 1143   1.562   2.188   0.208
  375SOL     OW 1144   1.303   2.700   0.042
  375SOL    HW1 1145   1.337   2.607   0.057
  375SOL    HW2 1146   1.321   2.727  -0.053
  376SOL     OW 1147   0.319   2.672   0.949
  376SOL    HW1 1148   0.412   2.708   0.954
  376SOL    HW2 1149   0.313   2.587   1.001
  377SOL     OW 1150   0.339   2.371   1.006
  377SOL    HW1 1151   0.287   2.288   0.989
  377SOL    HW2 1152   0.416   2.376   0.942
  378SOL     OW 1153   1.138   2.242   1.678
  378SOL    HW1 1154   1.093   2.305   1.742
  378SOL    HW2 1155   1.231   2.273   1.661
  379SOL     OW 1156   1.160   2.069   1.477
  379SOL    HW1 1157   1.160   2.133   1.554
  379SOL    HW2 1158   1.188   2.117   1.394
  380SOL     OW 1159   1.002   2.658   1.238
  380SOL    HW1 1160   1.043   2.626   1.324
  380SOL    HW2 1161   0.906   2.631   1.235
  381SOL     OW 1162   0.040   2.406   1.114
  381SOL    HW1 1163   0.125   2.373   1.073
  381SOL    HW2 1164   0.053   2.421   1.212
  382SOL     OW 1165   0.189   2.382   1.722
  382SOL    HW1 1166   0.248   2.342   1.652
  382SOL    HW2 1167   0.131   2.453   1.681
  383SOL     OW 1168   0.815   2.434   0.325
  383SOL    HW1 1169   0.822   2.345   0.279
  383SOL    HW2 1170   0.721   2.468   0.317
  384SOL     OW 1171   1.657   2.466   1.206
  384SOL    HW1 1172   1.619   2.397   1.268
  384SOL    HW2 1173   1.739   2.430   1.162
  385SOL     OW 1174   0.671   2.326   1.269
  385SOL    HW1 1175   0.637   2.237   1.239
  385SOL    HW2 1176   0.697   2.380   1.189
  386SOL     OW 1177   0.473   2.362   0.191
  386SOL    HW1 1178   0.534   2.442   0.195
  386SOL    HW2 1179   0.378   2.393   0.198
  387SOL     OW 1180   1.302   2.717   0.309
  387SOL    HW1 1181   1.216   2.686   0.351
  387SOL    HW2 1182   1.298   2.703   0.210
  388SOL     OW 1183   0.903   1.948   0.133
  388SOL    HW1 1184   0.954   1.949   0.047
  388SOL    HW2 1185   0.959   1.906   0.204
  389SOL     OW 1186   1.726   1.997   0.523
  389SOL    HW1 1187   1.799   1.980   0.456
  389SOL    HW2 1188   1.695   1.910   0.561
  390SOL     OW 1189   1.280   2.789   0.672
  390SOL    HW1 1190   1.340   2.708   0.674
  390SOL    HW2 1191   1.320   2.858   0.612
  391SOL     OW 1192   1.841   2.037   0.963
  391SOL    HW1 1193   1.880   1.952   0.927
  391SOL    HW2 1194   1.743   2.039   0.944
  392SOL     OW 1195   0.263   2.188   0.720
  392SOL    HW1 1196   0.184   2.239   0.686
  392SOL    HW2 1197   0.254   2.173   0.818
  393SOL     OW 1198   1.014   2.098   0.971
  393SOL    HW1 1199   1.006   2.062   0.878
  393SOL    HW2 1200   1.012   2.022   1.036
  394SOL     OW 1201   1.709   2.247   1.381
  394SOL    HW1 1202   1.782   2.316   1.385
  394SOL    HW2 1203   1.737   2.172   1.322
  395SOL     OW 1204   0.105   2.875   1.726
  395SOL    HW1 1205   0.028   2.842   1.780
  395SOL    HW2 1206   0.190   2.845   1.768
  396SOL     OW 1207   0.672   2.065   1.489
  396SOL    HW1 1208   0.762   2.049   1.449
  396SOL    HW2 1209   0.680   2.070   1.588
  397SOL     OW 1210   0.075   2.207   0.033
  397SOL    HW1 1211  -0.017   2.179   0.004
  397SOL    HW2 1212   0.106   2.284  -0.023
  398SOL     OW 1213   1.440   2.718   1.398
  398SOL    HW1 1214   1.383   2.770   1.335
  398SOL    HW2 1215   1.536   2.730   1.374
  399SOL     OW 1216   0.072   2.028   0.318
  399SOL    HW1 1217   0.055   2.111   0.264
  399SOL    HW2 1218   0.162   1.991   0.296
  400SOL     OW 1219   0.613   2.704   1.431
  400SOL    HW1 1220   0.669   2.785   1.414
  400SOL    HW2 1221   0.672   2.624   1.434
  401SOL     OW 1222   0.716   2.427   1.708
  401SOL    HW1 1223   0.735   2.492   1.782
  401SOL    HW2 1224   0.776   2.347   1.717
  402SOL     OW 1225   1.674   2.745   1.254
  402SOL    HW1 1226   1.647   2.656   1.217
  402SOL    HW2 1227   1.675   2.813   1.181
  403SOL     OW 1228   1.225   2.187   0.449
  403SOL    HW1 1229   1.290   2.113   0.438
  403SOL    HW2 1230   1.245   2.237   0.533
  404SOL     OW 1231   0.594   2.607   0.652
  404SOL    HW1 1232   0.644   2.692   0.633
  404SOL    HW2 1233   0.506   2.609   0.604
  405SOL     OW 1234   1.777   2.204   1.642
  405SOL    HW1 1235   1.760   2.235   1.548
  405SOL    HW2 1236   1.693   2.167   1.680
  406SOL     OW 1237   1.730   2.796   1.517
  406SOL    HW1 1238   1.768   2.887   1.532
  406SOL    HW2 1239   1.722   2.779   1.418
  407SOL     OW 1240   1.824   2.054   1.227
  407SOL    HW1 1241   1.820   1.964   1.271
  407SOL    HW2 1242   1.827   2.043   1.128
  408SOL     OW 1243   0.428   2.286   0.520
  408SOL    HW1 1244   0.458   2.214   0.458
  408SOL    HW2 1245   0.389   2.246   0.603
  409SOL     OW 1246   0.317   2.409   1.280
  409SOL    HW1 1247   0.355   2.350   1.352
  409SOL    HW2 1248   0.357   2.383   1.192
  410SOL     OW 1249   1.424   2.076   1.112
  410SOL    HW1 1250   1.476   2.011   1.167
  410SOL    HW2 1251   1.375   2.139   1.173
  411SOL     OW 1252   1.001   1.896   1.154
  411SOL    HW1 1253   0.938   1.824   1.123
  411SOL    HW2 1254   1.094   1.860   1.154
  412SOL     OW 1255   1.352   1.914   0.168
  412SOL    HW1 1256   1.387   1.873   0.084
  412SOL    HW2 1257   1.262   1.876   0.188
  413SOL     OW 1258   1.300   2.315   0.691
  413SOL    HW1 1259   1.241   2.395   0.695
  413SOL    HW2 1260   1.315   2.280   0.784
  414SOL     OW 1261   1.593   2.083   0.882
  414SOL    HW1 1262   1.509   2.082   0.936
  414SOL    HW2 1263   1.595   2.166   0.826
  415SOL     OW 1264   0.230   2.490   1.975
  415SOL    HW1 1265   0.137   2.488   2.012
  415SOL    HW2 1266   0.231   2.451   1.883
  416SOL     OW 1267   0.019   2.230   2.509
  416SOL    HW1 1268  -0.063   2.273   2.548
  416SOL    HW2 1269  -0.009   2.157   2.446
  417SOL     OW 1270   1.135   2.565   2.579
  417SOL    HW1 1271   1.192   2.643   2.554
  417SOL    HW2 1272   1.075   2.591   2.655
  418SOL     OW 1273   1.755   2.469   2.093
  418SOL    HW1 1274   1.743   2.456   1.994
  418SOL    HW2 1275   1.725   2.388   2.142
  419SOL     OW 1276   0.685   2.874   2.527
  419SOL    HW1 1277   0.754   2.858   2.597
  419SOL    HW2 1278   0.612   2.931   2.565
  420SOL     OW 1279   1.603   2.309   2.599
  420SOL    HW1 1280   1.529   2.355   2.549
  420SOL    HW2 1281   1.654   2.377   2.652
  421SOL     OW 1282   0.240   2.953   2.748
  421SOL    HW1 1283   0.254   2.869   2.800
  421SOL    HW2 1284   0.185   3.017   2.803
  422SOL     OW 1285   0.122   2.505   2.425
  422SOL    HW1 1286   0.077   2.417   2.442
  422SOL    HW2 1287   0.121   2.559   2.509
  423SOL     OW 1288   0.809   1.866   2.364
  423SOL    HW1 1289   0.849   1.957   2.355
  423SOL    HW2 1290   0.709   1.874   2.370
  424SOL     OW 1291   0.598   2.591   2.132
  424SOL    HW1 1292   0.622   2.660   2.064
  424SOL    HW2 1293   0.520   2.624   2.186
  425SOL     OW 1294   1.281   2.207   2.806
  425SOL    HW1 1295   1.195   2.157   2.793
  425SOL    HW2 1296   1.343   2.153   2.862
  426SOL     OW 1297   1.041   2.563   2.291
  426SOL    HW1 1298   1.067   2.559   2.387
  426SOL    HW2 1299   0.956   2.512   2.277
  427SOL     OW 1300   0.076   2.673   2.651
  427SOL    HW1 1301   0.175   2.661   2.660
  427SOL    HW2 1302   0.052   2.768   2.672
  428SOL     OW 1303   0.865   2.210   2.057
  428SOL    HW1 1304   0.924   2.273   2.008
  428SOL    HW2 1305   0.884   2.116   2.028
  429SOL     OW 1306   0.550   2.058   2.747
  429SOL    HW1 1307   0.545   2.053   2.847
  429SOL    HW2 1308   0.552   2.154   2.718
  430SOL     OW 1309   1.458   2.597   2.590
  430SOL    HW1 1310   1.453   2.532   2.665
  430SOL    HW2 1311   1.538   2.656   2.603
  431SOL     OW 1312   1.400   1.969   2.288
  431SOL    HW1 1313   1.376   1.932   2.198
  431SOL    HW2 1314   1.499   1.985   2.292
  432SOL     OW 1315   0.382   2.562   2.342
  432SOL    HW1 1316   0.427   2.472   2.339
  432SOL    HW2 1317   0.288   2.551   2.375
  433SOL     OW 1318   0.614   1.984   1.979
  433SOL    HW1 1319   0.712   1.962   1.986
  433SOL    HW2 1320   0.583   1.967   1.886
  434SOL     OW 1321   0.539   1.926   2.374
  434SOL    HW1 1322   0.458   1.927   2.432
  434SOL    HW2 1323   0.542   2.009   2.319
  435SOL     OW 1324   0.297   1.897   2.033
  435SOL    HW1 1325   0.346   1.981   2.012
  435SOL    HW2 1326   0.359   1.832   2.078
  436SOL     OW 1327   0.935   2.098   2.342
  436SOL    HW1 1328   0.887   2.139   2.264
  436SOL    HW2 1329   1.034   2.096   2.323
  437SOL     OW 1330   1.032   2.411   1.878
  437SOL    HW1 1331   0.991   2.493   1.839
  437SOL    HW2 1332   1.096   2.437   1.951
  438SOL     OW 1333   0.866   2.316   2.504
  438SOL    HW1 1334   0.834   2.388   2.442
  438SOL    HW2 1335   0.890   2.235   2.451
  439SOL     OW 1336   1.017   1.901   2.615
  439SOL    HW1 1337   0.945   1.906   2.546
  439SOL    HW2 1338   0.993   1.832   2.684
  440SOL     OW 1339   1.857   2.695   2.239
  440SOL    HW1 1340   1.899   2.631   2.303
  440SOL    HW2 1341   1.819   2.644   2.161
  441SOL     OW 1342   1.390   2.437   1.940
  441SOL    HW1 1343   1.336   2.416   2.021
  441SOL    HW2 1344   1.481   2.396   1.949
  442SOL     OW 1345   0.527   2.118   2.190
  442SOL    HW1 1346   0.554   2.059   2.115
  442SOL    HW2 1347   0.527   2.213   2.159
  443SOL     OW 1348   1.111   3.057   2.962
  443SOL    HW1 1349   1.071   3.101   3.043
  443SOL    HW2 1350   1.070   3.094   2.879
  444SOL     OW 1351   0.566   2.399   2.727
  444SOL    HW1 1352   0.578   2.465   2.653
  444SOL    HW2 1353   0.612   2.433   2.810
  445SOL     OW 1354   1.582   2.501   2.334
  445SOL    HW1 1355   1.551   2.562   2.407
  445SOL    HW2 1356   1.632   2.553   2.265
  446SOL     OW 1357   1.209   2.387   2.137
  446SOL    HW1 1358   1.222   2.303   2.191
  446SOL    HW2 1359   1.180   2.461   2.197
  447SOL     OW 1360   0.732   2.496   2.926
  447SOL    HW1 1361   0.791   2.470   2.850
  447SOL    HW2 1362   0.704   2.592   2.915
  448SOL     OW 1363   0.307   1.925   2.480
  448SOL    HW1 1364   0.296   2.019   2.513
  448SOL    HW2 1365   0.302   1.862   2.557
  449SOL     OW 1366   1.622   2.229   2.236
  449SOL    HW1 1367   1.624   2.153   2.300
  449SOL    HW2 1368   1.574   2.306   2.276
  450SOL     OW 1369   1.540   2.136   1.987
  450SOL    HW1 1370   1.479   2.061   2.010
  450SOL    HW2 1371   1.562   2.188   2.070
  451SOL     OW 1372   1.303   2.700   1.904
  451SOL    HW1 1373   1.337   2.607   1.919
  451SOL    HW2 1374   1.321   2.727   1.809
  452SOL     OW 1375   0.815   2.434   2.187
  452SOL    HW1 1376   0.822   2.345   2.141
  452SOL    HW2 1377   0.721   2.468   2.179
  453SOL     OW 1378   0.473   2.362   2.053
  453SOL    HW1 1379   0.534   2.442   2.057
  453SOL    HW2 1380   0.378   2.393   2.060
  454SOL     OW 1381   1.302   2.717   2.171
  454SOL    HW1 1382   1.216   2.686   2.213
  454SOL    HW2 1383   1.298   2.703   2.072
  455SOL     OW 1384   1.726   1.997   2.385
  455SOL    HW1 1385   1.799   1.980   2.318
  455SOL    HW2 1386   1.695   1.910   2.423
  456SOL     OW 1387   1.280   2.789   2.534
  456SOL    HW1 1388   1.340   2.708   2.536
  456SOL    HW2 1389   1.320   2.858   2.474
  457SOL     OW 1390   1.841   2.037   2.825
  457SOL    HW1 1391   1.880   1.952   2.789
  457SOL    HW2 1392   1.743   2.039   2.806
  458SOL     OW 1393   0.263   2.188   2.582
  458SOL    HW1 1394   0.184   2.239   2.548
  458SOL    HW2 1395   0.254   2.173   2.680
  459SOL     OW 1396   0.916   2.772   2.153
  459SOL    HW1 1397   0.979   2.810   2.085
  459SOL    HW2 1398   0.956   2.689   2.192
  460SOL     OW 1399   0.075   2.207   1.895
  460SOL    HW1 1400  -0.017   2.179   1.866
  460SOL    HW2 1401   0.106   2.284   1.839
  461SOL     OW 1402   0.072   2.028   2.180
  461SOL    HW1 1403   0.055   2.111   2.126
  461SOL    HW2 1404   0.162   1.991   2.158
  462SOL     OW 1405   1.674   2.745   3.116
  462SOL    HW1 1406   1.647   2.656   3.079
  462SOL    HW2 1407   1.675   2.813   3.043
  463SOL     OW 1408   1.225   2.187   2.311
  463SOL    HW1 1409   1.290   2.113   2.300
  463SOL    HW2 1410   1.245   2.237   2.395
  464SOL     OW 1411   0.594   2.607   2.514
  464SOL    HW1 1412   0.644   2.692   2.495
  464SOL    HW2 1413   0.506   2.609   2.466
  465SOL     OW 1414   0.428   2.286   2.382
  465SOL    HW1 1415   0.458   2.214   2.320
  465SOL    HW2 1416   0.389   2.246   2.465
  466SOL     OW 1417   1.352   1.914   2.030
  466SOL    HW1 1418   1.387   1.873   1.946
  466SOL    HW2 1419   1.262   1.876   2.050
  467SOL     OW 1420   1.300   2.315   2.553
  467SOL    HW1 1421   1.241   2.395   2.557
  467SOL    HW2 1422   1.315   2.280   2.646
  468SOL     OW 1423   1.593   2.083   2.744
  468SOL    HW1 1424   1.509   2.082   2.798
  468SOL    HW2 1425   1.595   2.166   2.688
  469SOL     OW 1426   2.092   0.628   0.113
  469SOL    HW1 1427   1.999   0.626   0.150
  469SOL    HW2 1428   2.093   0.589   0.021
  470SOL     OW 1429   2.087   0.275   0.996
  470SOL    HW1 1430   2.122   0.258   1.088
  470SOL    HW2 1431   1.999   0.230   0.984
  471SOL     OW 1432   1.881   0.368   0.647
  471SOL    HW1 1433   1.799   0.411   0.686
  471SOL    HW2 1434   1.853   0.295   0.584
  472SOL     OW 1435   2.431   1.275   1.165
  472SOL    HW1 1436   2.338   1.268   1.128
  472SOL    HW2 1437   2.442   1.364   1.209
  473SOL     OW 1438   2.630   1.144   1.023
  473SOL    HW1 1439   2.552   1.161   1.083
  473SOL    HW2 1440   2.664   1.231   0.987
  474SOL     OW 1441   2.712   0.798   1.823
  474SOL    HW1 1442   2.708   0.874   1.888
  474SOL    HW2 1443   2.734   0.834   1.732
  475SOL     OW 1444   2.547   1.012   0.665
  475SOL    HW1 1445   2.616   0.996   0.735
  475SOL    HW2 1446   2.474   1.069   0.703
  476SOL     OW 1447   2.548   1.161   1.803
  476SOL    HW1 1448   2.608   1.240   1.817
  476SOL    HW2 1449   2.462   1.192   1.762
  477SOL     OW 1450   2.197   1.435   1.061
  477SOL    HW1 1451   2.119   1.404   1.008
  477SOL    HW2 1452   2.255   1.493   1.004
  478SOL     OW 1453   2.300   0.392   1.499
  478SOL    HW1 1454   2.382   0.336   1.508
  478SOL    HW2 1455   2.219   0.334   1.503
  479SOL     OW 1456   2.093   1.713   0.483
  479SOL    HW1 1457   2.127   1.790   0.537
  479SOL    HW2 1458   2.137   1.713   0.393
  480SOL     OW 1459   2.092   1.434   0.538
  480SOL    HW1 1460   2.066   1.530   0.538
  480SOL    HW2 1461   2.021   1.380   0.583
  481SOL     OW 1462   2.102   1.091   0.886
  481SOL    HW1 1463   2.116   1.007   0.938
  481SOL    HW2 1464   2.047   1.155   0.941
  482SOL     OW 1465   2.482   1.786   1.439
  482SOL    HW1 1466   2.390   1.769   1.474
  482SOL    HW2 1467   2.510   1.878   1.465
  483SOL     OW 1468   2.468   0.964   0.123
  483SOL    HW1 1469   2.475   1.048   0.069
  483SOL    HW2 1470   2.514   0.977   0.211
  484SOL     OW 1471   1.984   0.643   0.563
  484SOL    HW1 1472   1.939   0.555   0.580
  484SOL    HW2 1473   1.983   0.697   0.647
  485SOL     OW 1474   1.889   1.596   0.117
  485SOL    HW1 1475   1.870   1.500   0.138
  485SOL    HW2 1476   1.856   1.654   0.192
  486SOL     OW 1477   1.975   0.737   1.597
  486SOL    HW1 1478   2.063   0.724   1.642
  486SOL    HW2 1479   1.962   0.834   1.575
  487SOL     OW 1480   2.475   1.365   0.726
  487SOL    HW1 1481   2.426   1.278   0.735
  487SOL    HW2 1482   2.452   1.408   0.639
  488SOL     OW 1483   2.671   0.004   0.502
  488SOL    HW1 1484   2.711   0.095   0.493
  488SOL    HW2 1485   2.571   0.012   0.508
  489SOL     OW 1486   2.059   0.976   1.264
  489SOL    HW1 1487   2.148   0.931   1.250
  489SOL    HW2 1488   1.986   0.911   1.245
  490SOL     OW 1489   2.179   0.251   1.801
  490SOL    HW1 1490   2.250   0.322   1.807
  490SOL    HW2 1491   2.091   0.290   1.829
  491SOL     OW 1492   2.460   0.729   0.270
  491SOL    HW1 1493   2.484   0.798   0.202
  491SOL    HW2 1494   2.382   0.762   0.324
  492SOL     OW 1495   2.669   0.605   1.465
  492SOL    HW1 1496   2.622   0.602   1.554
  492SOL    HW2 1497   2.618   0.550   1.399
  493SOL     OW 1498   1.938   0.811   0.789
  493SOL    HW1 1499   2.037   0.799   0.798
  493SOL    HW2 1500   1.914   0.906   0.810
  494SOL     OW 1501   1.992   1.821   1.571
  494SOL    HW1 1502   1.982   1.806   1.670
  494SOL    HW2 1503   1.906   1.857   1.535
  495SOL     OW 1504   2.727   0.348   0.195
  495SOL    HW1 1505   2.786   0.411   0.146
  495SOL    HW2 1506   2.746   0.254   0.166
  496SOL     OW 1507   2.412   0.196   0.885
  496SOL    HW1 1508   2.407   0.191   0.985
  496SOL    HW2 1509   2.414   0.292   0.856
  497SOL     OW 1510   2.870   1.456   0.477
  497SOL    HW1 1511   2.824   1.528   0.425
  497SOL    HW2 1512   2.866   1.476   0.575
  498SOL     OW 1513   2.213   1.801   0.853
  498SOL    HW1 1514   2.263   1.715   0.859
  498SOL    HW2 1515   2.278   1.878   0.850
  499SOL     OW 1516   2.183   0.943   0.242
  499SOL    HW1 1517   2.265   0.982   0.200
  499SOL    HW2 1518   2.156   0.861   0.193
  500SOL     OW 1519   2.323   1.266   1.727
  500SOL    HW1 1520   2.273   1.267   1.641
  500SOL    HW2 1521   2.260   1.248   1.803
  501SOL     OW 1522   2.973   1.776   0.237
  501SOL    HW1 1523   2.913   1.714   0.287
  501SOL    HW2 1524   3.004   1.732   0.152
  502SOL     OW 1525   2.064   0.285   1.498
  502SOL    HW1 1526   1.984   0.345   1.485
  502SOL    HW2 1527   2.054   0.236   1.584
  503SOL     OW 1528   2.326   1.743   0.323
  503SOL    HW1 1529   2.359   1.782   0.409
  503SOL    HW2 1530   2.402   1.736   0.258
  504SOL     OW 1531   2.111   1.785   1.241
  504SOL    HW1 1532   2.168   1.720   1.291
  504SOL    HW2 1533   2.095   1.752   1.148
  505SOL     OW 1534   2.244   0.700   0.480
  505SOL    HW1 1535   2.289   0.610   0.477
  505SOL    HW2 1536   2.150   0.689   0.513
  506SOL     OW 1537   2.476   0.122   0.117
  506SOL    HW1 1538   2.574   0.100   0.124
  506SOL    HW2 1539   2.445   0.105   0.024
  507SOL     OW 1540   2.643   0.264   1.749
  507SOL    HW1 1541   2.710   0.203   1.792
  507SOL    HW2 1542   2.570   0.283   1.814
  508SOL     OW 1543   2.665   1.402   0.924
  508SOL    HW1 1544   2.755   1.416   0.882
  508SOL    HW2 1545   2.594   1.404   0.853
  509SOL     OW 1546   2.784   0.503   0.899
  509SOL    HW1 1547   2.759   0.494   0.803
  509SOL    HW2 1548   2.832   0.421   0.930
  510SOL     OW 1549   2.401   0.064   0.512
  510SOL    HW1 1550   2.320   0.065   0.570
  510SOL    HW2 1551   2.404   0.147   0.457
  511SOL     OW 1552   2.159   0.035   0.171
  511SOL    HW1 1553   2.208   0.119   0.150
  511SOL    HW2 1554   2.221  -0.030   0.216
  512SOL     OW 1555   2.321   1.152   0.741
  512SOL    HW1 1556   2.250   1.125   0.806
  512SOL    HW2 1557   2.295   1.124   0.648
  513SOL     OW 1558   1.940   0.556   1.386
  513SOL    HW1 1559   2.032   0.555   1.345
  513SOL    HW2 1560   1.934   0.630   1.453
  514SOL     OW 1561   2.423   0.222   1.147
  514SOL    HW1 1562   2.461   0.138   1.184
  514SOL    HW2 1563   2.335   0.241   1.191
  515SOL     OW 1564   2.350   1.385   0.174
  515SOL    HW1 1565   2.263   1.370   0.221
  515SOL    HW2 1566   2.333   1.411   0.079
  516SOL     OW 1567   2.389   0.256   0.328
  516SOL    HW1 1568   2.416   0.197   0.253
  516SOL    HW2 1569   2.389   0.351   0.297
  517SOL     OW 1570   2.777   0.089   1.402
  517SOL    HW1 1571   2.802   0.069   1.307
  517SOL    HW2 1572   2.849   0.145   1.444
  518SOL     OW 1573   2.567   1.050   0.368
  518SOL    HW1 1574   2.553   1.057   0.467
  518SOL    HW2 1575   2.651   0.999   0.350
  519SOL     OW 1576   2.272   0.813   1.251
  519SOL    HW1 1577   2.358   0.825   1.301
  519SOL    HW2 1578   2.230   0.726   1.278
  520SOL     OW 1579   1.926   1.564   1.331
  520SOL    HW1 1580   1.880   1.646   1.297
  520SOL    HW2 1581   2.024   1.583   1.340
  521SOL     OW 1582   2.229   1.100   0.501
  521SOL    HW1 1583   2.222   1.183   0.445
  521SOL    HW2 1584   2.233   1.020   0.441
  522SOL     OW 1585   2.428   0.537   0.865
  522SOL    HW1 1586   2.440   0.603   0.791
  522SOL    HW2 1587   2.474   0.571   0.948
  523SOL     OW 1588   2.216   1.510   1.329
  523SOL    HW1 1589   2.195   1.466   1.242
  523SOL    HW2 1590   2.313   1.536   1.332
  524SOL     OW 1591   2.264   0.751   1.598
  524SOL    HW1 1592   2.332   0.806   1.551
  524SOL    HW2 1593   2.304   0.663   1.625
  525SOL     OW 1594   2.366   0.050   1.740
  525SOL    HW1 1595   2.324  -0.007   1.670
  525SOL    HW2 1596   2.300   0.119   1.772
  526SOL     OW 1597   2.435   0.870   1.029
  526SOL    HW1 1598   2.479   0.959   1.020
  526SOL    HW2 1599   2.372   0.870   1.106
  527SOL     OW 1600   2.169   0.213   1.231
  527SOL    HW1 1601   2.146   0.250   1.321
  527SOL    HW2 1602   2.139   0.118   1.225
  528SOL     OW 1603   2.594   0.634   1.064
  528SOL    HW1 1604   2.653   0.608   0.988
  528SOL    HW2 1605   2.566   0.730   1.053
  529SOL     OW 1606   2.169   0.063   0.618
  529SOL    HW1 1607   2.158   0.157   0.651
  529SOL    HW2 1608   2.164   0.000   0.695
  530SOL     OW 1609   2.885   0.766   0.966
  530SOL    HW1 1610   2.900   0.787   1.062
  530SOL    HW2 1611   2.855   0.671   0.957
  531SOL     OW 1612   2.842   1.573   1.700
  531SOL    HW1 1613   2.822   1.617   1.612
  531SOL    HW2 1614   2.881   1.482   1.684
  532SOL     OW 1615   2.212   0.898   1.804
  532SOL    HW1 1616   2.288   0.942   1.852
  532SOL    HW2 1617   2.247   0.851   1.722
  533SOL     OW 1618   2.181   0.810   0.949
  533SOL    HW1 1619   2.274   0.846   0.954
  533SOL    HW2 1620   2.175   0.725   1.001
  534SOL     OW 1621   2.201   0.509   1.006
  534SOL    HW1 1622   2.149   0.426   0.989
  534SOL    HW2 1623   2.278   0.514   0.942
  535SOL     OW 1624   1.870   1.326   0.200
  535SOL    HW1 1625   1.777   1.347   0.169
  535SOL    HW2 1626   1.880   1.227   0.213
  536SOL     OW 1627   1.950   1.801   0.927
  536SOL    HW1 1628   1.908   1.715   0.900
  536SOL    HW2 1629   2.044   1.804   0.893
  537SOL     OW 1630   2.366   1.568   0.910
  537SOL    HW1 1631   2.432   1.642   0.919
  537SOL    HW2 1632   2.410   1.489   0.868
  538SOL     OW 1633   1.902   0.544   1.114
  538SOL    HW1 1634   1.987   0.511   1.073
  538SOL    HW2 1635   1.915   0.559   1.212
  539SOL     OW 1636   2.051   0.520   1.722
  539SOL    HW1 1637   2.110   0.480   1.652
  539SOL    HW2 1638   1.993   0.591   1.681
  540SOL     OW 1639   2.677   0.572   0.325
  540SOL    HW1 1640   2.684   0.483   0.279
  540SOL    HW2 1641   2.583   0.606   0.317
  541SOL     OW 1642   2.114   1.564   1.744
  541SOL    HW1 1643   2.084   1.621   1.820
  541SOL    HW2 1644   2.107   1.467   1.770
  542SOL     OW 1645   2.533   0.464   1.269
  542SOL    HW1 1646   2.499   0.375   1.239
  542SOL    HW2 1647   2.559   0.518   1.189
  543SOL     OW 1648   2.335   0.500   0.191
  543SOL    HW1 1649   2.396   0.580   0.195
  543SOL    HW2 1650   2.240   0.531   0.198
  544SOL     OW 1651   2.021   1.137   1.466
  544SOL    HW1 1652   2.043   1.076   1.542
  544SOL    HW2 1653   2.031   1.088   1.380
  545SOL     OW 1654   1.945   1.258   1.022
  545SOL    HW1 1655   1.940   1.257   1.122
  545SOL    HW2 1656   1.862   1.217   0.984
  546SOL     OW 1657   2.550   1.662   1.716
  546SOL    HW1 1658   2.494   1.743   1.725
  546SOL    HW2 1659   2.602   1.666   1.630
  547SOL     OW 1660   2.765   0.086   0.133
  547SOL    HW1 1661   2.816   0.087   0.047
  547SOL    HW2 1662   2.821   0.044   0.204
  548SOL     OW 1663   1.992   1.794   1.851
  548SOL    HW1 1664   1.951   1.720   1.904
  548SOL    HW2 1665   2.056   1.845   1.909
  549SOL     OW 1666   2.692   1.273   1.422
  549SOL    HW1 1667   2.687   1.306   1.517
  549SOL    HW2 1668   2.606   1.292   1.376
  550SOL     OW 1669   2.534   1.616   0.154
  550SOL    HW1 1670   2.543   1.626   0.055
  550SOL    HW2 1671   2.494   1.527   0.175
  551SOL     OW 1672   2.125   0.326   0.720
  551SOL    HW1 1673   2.046   0.377   0.686
  551SOL    HW2 1674   2.116   0.311   0.818
  552SOL     OW 1675   3.056   1.612   0.031
  552SOL    HW1 1676   3.062   1.519   0.068
  552SOL    HW2 1677   2.997   1.612  -0.049
  553SOL     OW 1678   2.684   1.002   1.372
  553SOL    HW1 1679   2.724   1.001   1.280
  553SOL    HW2 1680   2.694   1.094   1.412
  554SOL     OW 1681   2.234   1.288   1.490
  554SOL    HW1 1682   2.221   1.381   1.456
  554SOL    HW2 1683   2.150   1.236   1.477
  555SOL     OW 1684   2.452   1.487   0.491
  555SOL    HW1 1685   2.494   1.429   0.421
  555SOL    HW2 1686   2.408   1.566   0.447
  556SOL     OW 1687   2.117   1.348   0.290
  556SOL    HW1 1688   2.021   1.349   0.263
  556SOL    HW2 1689   2.129   1.401   0.374
  557SOL     OW 1690   1.967   1.013   1.726
  557SOL    HW1 1691   1.890   0.980   1.780
  557SOL    HW2 1692   2.052   0.983   1.768
  558SOL     OW 1693   2.534   0.203   1.489
  558SOL    HW1 1694   2.624   0.187   1.449
  558SOL    HW2 1695   2.542   0.208   1.588
  559SOL     OW 1696   2.475   0.842   1.431
  559SOL    HW1 1697   2.531   0.923   1.414
  559SOL    HW2 1698   2.534   0.762   1.434
  560SOL     OW 1699   2.578   0.565   1.708
  560SOL    HW1 1700   2.597   0.630   1.782
  560SOL    HW2 1701   2.638   0.485   1.717
  561SOL     OW 1702   2.252   1.741   1.560
  561SOL    HW1 1703   2.161   1.782   1.558
  561SOL    HW2 1704   2.245   1.647   1.592
  562SOL     OW 1705   2.456   0.745   0.652
  562SOL    HW1 1706   2.506   0.830   0.633
  562SOL    HW2 1707   2.368   0.747   0.604
  563SOL     OW 1708   2.523   1.790   0.953
  563SOL    HW1 1709   2.477   1.878   0.940
  563SOL    HW2 1710   2.622   1.802   0.946
  564SOL     OW 1711   2.721   0.956   0.861
  564SOL    HW1 1712   2.775   0.887   0.909
  564SOL    HW2 1713   2.689   1.025   0.927
  565SOL     OW 1714   2.083   1.314   1.844
  565SOL    HW1 1715   2.018   1.241   1.823
  565SOL    HW2 1716   2.087   1.328   1.942
  566SOL     OW 1717   1.941   1.240   0.653
  566SOL    HW1 1718   1.940   1.193   0.741
  566SOL    HW2 1719   2.023   1.212   0.602
  567SOL     OW 1720   2.534   1.391   1.624
  567SOL    HW1 1721   2.456   1.341   1.662
  567SOL    HW2 1722   2.531   1.486   1.655
  568SOL     OW 1723   2.290   0.424   0.520
  568SOL    HW1 1724   2.320   0.352   0.458
  568SOL    HW2 1725   2.251   0.384   0.603
  569SOL     OW 1726   2.179   0.547   1.280
  569SOL    HW1 1727   2.217   0.488   1.352
  569SOL    HW2 1728   2.219   0.521   1.192
  570SOL     OW 1729   2.674   1.586   0.687
  570SOL    HW1 1730   2.706   1.596   0.593
  570SOL    HW2 1731   2.595   1.524   0.689
  571SOL     OW 1732   2.863   0.034   1.154
  571SOL    HW1 1733   2.800  -0.038   1.123
  571SOL    HW2 1734   2.956  -0.002   1.154
  572SOL     OW 1735   2.632   1.330   0.301
  572SOL    HW1 1736   2.586   1.243   0.318
  572SOL    HW2 1737   2.723   1.327   0.342
  573SOL     OW 1738   2.480   1.567   1.284
  573SOL    HW1 1739   2.475   1.649   1.341
  573SOL    HW2 1740   2.569   1.564   1.239
  574SOL     OW 1741   1.901   1.077   0.300
  574SOL    HW1 1742   2.000   1.066   0.291
  574SOL    HW2 1743   1.861   0.991   0.332
  575SOL     OW 1744   2.737   1.646   0.337
  575SOL    HW1 1745   2.660   1.611   0.283
  575SOL    HW2 1746   2.705   1.717   0.399
  576SOL     OW 1747   2.092   0.628   1.975
  576SOL    HW1 1748   1.999   0.626   2.012
  576SOL    HW2 1749   2.093   0.589   1.883
  577SOL     OW 1750   2.087   0.275   2.858
  577SOL    HW1 1751   2.122   0.258   2.950
  577SOL    HW2 1752   1.999   0.230   2.846
  578SOL     OW 1753   1.881   0.368   2.509
  578SOL    HW1 1754   1.799   0.411   2.548
  578SOL    HW2 1755   1.853   0.295   2.446
  579SOL     OW 1756   2.630   1.144   2.885
  579SOL    HW1 1757   2.552   1.161   2.945
  579SOL    HW2 1758   2.664   1.231   2.849
  580SOL     OW 1759   2.547   1.012   2.527
  580SOL    HW1 1760   2.616   0.996   2.597
  580SOL    HW2 1761   2.474   1.069   2.565
  581SOL     OW 1762   2.093   1.713   2.345
  581SOL    HW1 1763   2.127   1.790   2.399
  581SOL    HW2 1764   2.137   1.713   2.255
  582SOL     OW 1765   2.092   1.434   2.400
  582SOL    HW1 1766   2.066   1.530   2.400
  582SOL    HW2 1767   2.021   1.380   2.445
  583SOL     OW 1768   2.102   1.091   2.748
  583SOL    HW1 1769   2.116   1.007   2.800
  583SOL    HW2 1770   2.047   1.155   2.803
  584SOL     OW 1771   2.468   0.964   1.985
  584SOL    HW1 1772   2.475   1.048   1.931
  584SOL    HW2 1773   2.514   0.977   2.073
  585SOL     OW 1774   1.984   0.643   2.425
  585SOL    HW1 1775   1.939   0.555   2.442
  585SOL    HW2 1776   1.983   0.697   2.509
  586SOL     OW 1777   1.889   1.596   1.979
  586SOL    HW1 1778   1.870   1.500   2.000
  586SOL    HW2 1779   1.856   1.654   2.054
  587SOL     OW 1780   2.475   1.365   2.588
  587SOL    HW1 1781   2.426   1.278   2.597
  587SOL    HW2 1782   2.452   1.408   2.501
  588SOL     OW 1783   2.671   0.004   2.364
  588SOL    HW1 1784   2.711   0.095   2.355
  588SOL    HW2 1785   2.571   0.012   2.370
  589SOL     OW 1786   2.460   0.729   2.132
  589SOL    HW1 1787   2.484   0.798   2.064
  589SOL    HW2 1788   2.382   0.762   2.186
  590SOL     OW 1789   1.938   0.811   2.651
  590SOL    HW1 1790   2.037   0.799   2.660
  590SOL    HW2 1791   1.914   0.906   2.672
  591SOL     OW 1792   2.727   0.348   2.057
  591SOL    HW1 1793   2.786   0.411   2.008
  591SOL    HW2 1794   2.746   0.254   2.028
  592SOL     OW 1795   2.870   1.456   2.339
  592SOL    HW1 1796   2.824   1.528   2.287
  592SOL    HW2 1797   2.866   1.476   2.437
  593SOL     OW 1798   2.213   1.801   2.715
  593SOL    HW1 1799   2.263   1.715   2.721
  593SOL    HW2 1800   2.278   1.878   2.712
  594SOL     OW 1801   2.183   0.943   2.104
  594SOL    HW1 1802   2.265   0.982   2.062
  594SOL    HW2 1803   2.156   0.861   2.055
  595SOL     OW 1804   2.973   1.776   2.099
  595SOL    HW1 1805   2.913   1.714   2.149
  595SOL    HW2 1806   3.004   1.732   2.014
  596SOL     OW 1807   2.326   1.743   2.185
  596SOL    HW1 1808   2.359   1.782   2.271
  596SOL    HW2 1809   2.402   1.736   2.120
  597SOL     OW 1810   2.244   0.700   2.342
  597SOL    HW1 1811   2.289   0.610   2.339
  597SOL    HW2 1812   2.150   0.689   2.375
  598SOL     OW 1813   2.476   0.122   1.979
  598SOL    HW1 1814   2.574   0.100   1.986
  598SOL    HW2 1815   2.445   0.105   1.886
  599SOL     OW 1816   2.665   1.402   2.786
  599SOL    HW1 1817   2.755   1.416   2.744
  599SOL    HW2 1818   2.594   1.404   2.715
  600SOL     OW 1819   2.401   0.064   2.374
  600SOL    HW1 1820   2.320   0.065   2.432
  600SOL    HW2 1821   2.404   0.147   2.319
  601SOL     OW 1822   2.159   0.035   2.033
  601SOL    HW1 1823   2.208   0.119   2.012
  601SOL    HW2 1824   2.221  -0.030   2.078
  602SOL     OW 1825   2.321   1.152   2.603
  602SOL    HW1 1826   2.250   1.125   2.668
  602SOL    HW2 1827   2.295   1.124   2.510
  603SOL     OW 1828   2.350   1.385   2.036
  603SOL    HW1 1829   2.263   1.370   2.083
  603SOL    HW2 1830   2.333   1.411   1.941
  604SOL     OW 1831   2.389   0.256   2.190
  604SOL    HW1 1832   2.416   0.197   2.115
  604SOL    HW2 1833   2.389   0.351   2.159
  605SOL     OW 1834   2.567   1.050   2.230
  605SOL    HW1 1835   2.553   1.057   2.329
  605SOL    HW2 1836   2.651   0.999   2.212
  606SOL     OW 1837   2.229   1.100   2.363
  606SOL    HW1 1838   2.222   1.183   2.307
  606SOL    HW2 1839   2.233   1.020   2.303
  607SOL     OW 1840   2.428   0.537   2.727
  607SOL    HW1 1841   2.440   0.603   2.653
  607SOL    HW2 1842   2.474   0.571   2.810
  608SOL     OW 1843   2.594   0.634   2.926
  608SOL    HW1 1844   2.653   0.608   2.850
  608SOL    HW2 1845   2.566   0.730   2.915
  609SOL     OW 1846   2.169   0.063   2.480
  609SOL    HW1 1847   2.158   0.157   2.513
  609SOL    HW2 1848   2.164   0.000   2.557
  610SOL     OW 1849   2.885   0.766   2.828
  610SOL    HW1 1850   2.900   0.787   2.924
  610SOL    HW2 1851   2.855   0.671   2.819
  611SOL     OW 1852   1.870   1.326   2.062
  611SOL    HW1 1853   1.777   1.347   2.031
  611SOL    HW2 1854   1.880   1.227   2.075
  612SOL     OW 1855   1.950   1.801   2.789
  612SOL    HW1 1856   1.908   1.715   2.762
  612SOL    HW2 1857   2.044   1.804   2.755
  613SOL     OW 1858   2.366   1.568   2.772
  613SOL    HW1 1859   2.432   1.642   2.781
  613SOL    HW2 1860   2.410   1.489   2.730
  614SOL     OW 1861   2.677   0.572   2.187
  614SOL    HW1 1862   2.684   0.483   2.141
  614SOL    HW2 1863   2.583   0.606   2.179
  615SOL     OW 1864   2.335   0.500   2.053
  615SOL    HW1 1865   2.396   0.580   2.057
  615SOL    HW2 1866   2.240   0.531   2.060
  616SOL     OW 1867   2.765   0.086   1.995
  616SOL    HW1 1868   2.816   0.087   1.909
  616SOL    HW2 1869   2.821   0.044   2.066
  617SOL     OW 1870   2.534   1.616   2.016
  617SOL    HW1 1871   2.543   1.626   1.917
  617SOL    HW2 1872   2.494   1.527   2.037
  618SOL     OW 1873   2.125   0.326   2.582
  618SOL    HW1 1874   2.046   0.377   2.548
  618SOL    HW2 1875   2.116   0.311   2.680
  619SOL     OW 1876   2.452   1.487   2.353
  619SOL    HW1 1877   2.494   1.429   2.283
  619SOL    HW2 1878   2.408   1.566   2.309
  620SOL     OW 1879   2.117   1.348   2.152
  620SOL    HW1 1880   2.021   1.349   2.125
  620SOL    HW2 1881   2.129   1.401   2.236
  621SOL     OW 1882   1.937   0.345   1.895
  621SOL    HW1 1883   1.845   0.317   1.866
  621SOL    HW2 1884   1.968   0.422   1.839
  622SOL     OW 1885   1.934   0.166   2.180
  622SOL    HW1 1886   1.917   0.249   2.126
  622SOL    HW2 1887   2.024   0.129   2.158
  623SOL     OW 1888   2.456   0.745   2.514
  623SOL    HW1 1889   2.506   0.830   2.495
  623SOL    HW2 1890   2.368   0.747   2.466
  624SOL     OW 1891   2.523   1.790   2.815
  624SOL    HW1 1892   2.477   1.878   2.802
  624SOL    HW2 1893   2.622   1.802   2.808
  625SOL     OW 1894   2.721   0.956   2.723
  625SOL    HW1 1895   2.775   0.887   2.771
  625SOL    HW2 1896   2.689   1.025   2.789
  626SOL     OW 1897   1.941   1.240   2.515
  626SOL    HW1 1898   1.940   1.193   2.603
  626SOL    HW2 1899   2.023   1.212   2.464
  627SOL     OW 1900   2.290   0.424   2.382
  627SOL    HW1 1901   2.320   0.352   2.320
  627SOL    HW2 1902   2.251   0.384   2.465
  628SOL     OW 1903   2.674   1.586   2.549
  628SOL    HW1 1904   2.706   1.596   2.455
  628SOL    HW2 1905   2.595   1.524   2.551
  629SOL     OW 1906   2.632   1.330   2.163
  629SOL    HW1 1907   2.586   1.243   2.180
  629SOL    HW2 1908   2.723   1.327   2.204
  630SOL     OW 1909   1.901   1.077   2.162
  630SOL    HW1 1910   2.000   1.066   2.153
  630SOL    HW2 1911   1.861   0.991   2.194
  631SOL     OW 1912   2.737   1.646   2.199
  631SOL    HW1 1913   2.660   1.611   2.145
  631SOL    HW2 1914   2.705   1.717   2.261
  632SOL     OW 1915   2.092   2.490   0.113
  632SOL    HW1 1916   1.999   2.488   0.150
  632SOL    HW2 1917   2.093   2.451   0.021
  633SOL     OW 1918   2.087   2.137   0.996
  633SOL    HW1 1919   2.122   2.120   1.088
  633SOL    HW2 1920   1.999   2.092   0.984
  634SOL     OW 1921   1.881   2.230   0.647
  634SOL    HW1 1922   1.799   2.273   0.686
  634SOL    HW2 1923   1.853   2.157   0.584
  635SOL     OW 1924   2.712   2.660   1.823
  635SOL    HW1 1925   2.708   2.736   1.888
  635SOL    HW2 1926   2.734   2.696   1.732
  636SOL     OW 1927   2.547   2.874   0.665
  636SOL    HW1 1928   2.616   2.858   0.735
  636SOL    HW2 1929   2.474   2.931   0.703
  637SOL     OW 1930   2.300   2.254   1.499
  637SOL    HW1 1931   2.382   2.198   1.508
  637SOL    HW2 1932   2.219   2.196   1.503
  638SOL     OW 1933   1.984   2.505   0.563
  638SOL    HW1 1934   1.939   2.417   0.580
  638SOL    HW2 1935   1.983   2.559   0.647
  639SOL     OW 1936   1.975   2.599   1.597
  639SOL    HW1 1937   2.063   2.586   1.642
  639SOL    HW2 1938   1.962   2.696   1.575
  640SOL     OW 1939   2.671   1.866   0.502
  640SOL    HW1 1940   2.711   1.957   0.493
  640SOL    HW2 1941   2.571   1.874   0.508
  641SOL     OW 1942   2.179   2.113   1.801
  641SOL    HW1 1943   2.250   2.184   1.807
  641SOL    HW2 1944   2.091   2.152   1.829
  642SOL     OW 1945   2.460   2.591   0.270
  642SOL    HW1 1946   2.484   2.660   0.202
  642SOL    HW2 1947   2.382   2.624   0.324
  643SOL     OW 1948   2.669   2.467   1.465
  643SOL    HW1 1949   2.622   2.464   1.554
  643SOL    HW2 1950   2.618   2.412   1.399
  644SOL     OW 1951   1.938   2.673   0.789
  644SOL    HW1 1952   2.037   2.661   0.798
  644SOL    HW2 1953   1.914   2.768   0.810
  645SOL     OW 1954   2.727   2.210   0.195
  645SOL    HW1 1955   2.786   2.273   0.146
  645SOL    HW2 1956   2.746   2.116   0.166
  646SOL     OW 1957   2.412   2.058   0.885
  646SOL    HW1 1958   2.407   2.053   0.985
  646SOL    HW2 1959   2.414   2.154   0.856
  647SOL     OW 1960   2.064   2.147   1.498
  647SOL    HW1 1961   1.984   2.207   1.485
  647SOL    HW2 1962   2.054   2.098   1.584
  648SOL     OW 1963   2.244   2.562   0.480
  648SOL    HW1 1964   2.289   2.472   0.477
  648SOL    HW2 1965   2.150   2.551   0.513
  649SOL     OW 1966   2.643   2.126   1.749
  649SOL    HW1 1967   2.710   2.065   1.792
  649SOL    HW2 1968   2.570   2.145   1.814
  650SOL     OW 1969   2.784   2.365   0.899
  650SOL    HW1 1970   2.759   2.356   0.803
  650SOL    HW2 1971   2.832   2.283   0.930
  651SOL     OW 1972   2.401   1.926   0.512
  651SOL    HW1 1973   2.320   1.927   0.570
  651SOL    HW2 1974   2.404   2.009   0.457
  652SOL     OW 1975   2.159   1.897   0.171
  652SOL    HW1 1976   2.208   1.981   0.150
  652SOL    HW2 1977   2.221   1.832   0.216
  653SOL     OW 1978   1.940   2.418   1.386
  653SOL    HW1 1979   2.032   2.417   1.345
  653SOL    HW2 1980   1.934   2.492   1.453
  654SOL     OW 1981   2.423   2.084   1.147
  654SOL    HW1 1982   2.461   2.000   1.184
  654SOL    HW2 1983   2.335   2.103   1.191
  655SOL     OW 1984   2.389   2.118   0.328
  655SOL    HW1 1985   2.416   2.059   0.253
  655SOL    HW2 1986   2.389   2.213   0.297
  656SOL     OW 1987   2.777   1.951   1.402
  656SOL    HW1 1988   2.802   1.931   1.307
  656SOL    HW2 1989   2.849   2.007   1.444
  657SOL     OW 1990   2.272   2.675   1.251
  657SOL    HW1 1991   2.358   2.687   1.301
  657SOL    HW2 1992   2.230   2.588   1.278
  658SOL     OW 1993   2.428   2.399   0.865
  658SOL    HW1 1994   2.440   2.465   0.791
  658SOL    HW2 1995   2.474   2.433   0.948
  659SOL     OW 1996   2.264   2.613   1.598
  659SOL    HW1 1997   2.332   2.668   1.551
  659SOL    HW2 1998   2.304   2.525   1.625
  660SOL     OW 1999   2.366   1.912   1.740
  660SOL    HW1 2000   2.324   1.855   1.670
  660SOL    HW2 2001   2.300   1.981   1.772
  661SOL     OW 2002   2.435   2.732   1.029
  661SOL    HW1 2003   2.479   2.821   1.020
  661SOL    HW2 2004   2.372   2.732   1.106
  662SOL     OW 2005   2.169   2.075   1.231
  662SOL    HW1 2006   2.146   2.112   1.321
  662SOL    HW2 2007   2.139   1.980   1.225
  663SOL     OW 2008   2.594   2.496   1.064
  663SOL    HW1 2009   2.653   2.470   0.988
  663SOL    HW2 2010   2.566   2.592   1.053
  664SOL     OW 2011   2.169   1.925   0.618
  664SOL    HW1 2012   2.158   2.019   0.651
  664SOL    HW2 2013   2.164   1.862   0.695
  665SOL     OW 2014   2.885   2.628   0.966
  665SOL    HW1 2015   2.900   2.649   1.062
  665SOL    HW2 2016   2.855   2.533   0.957
  666SOL     OW 2017   2.181   2.672   0.949
  666SOL    HW1 2018   2.274   2.708   0.954
  666SOL    HW2 2019   2.175   2.587   1.001
  667SOL     OW 2020   2.201   2.371   1.006
  667SOL    HW1 2021   2.149   2.288   0.989
  667SOL    HW2 2022   2.278   2.376   0.942
  668SOL     OW 2023   2.864   2.658   1.238
  668SOL    HW1 2024   2.905   2.626   1.324
  668SOL    HW2 2025   2.768   2.631   1.235
  669SOL     OW 2026   1.902   2.406   1.114
  669SOL    HW1 2027   1.987   2.373   1.073
  669SOL    HW2 2028   1.915   2.421   1.212
  670SOL     OW 2029   2.051   2.382   1.722
  670SOL    HW1 2030   2.110   2.342   1.652
  670SOL    HW2 2031   1.993   2.453   1.681
  671SOL     OW 2032   2.677   2.434   0.325
  671SOL    HW1 2033   2.684   2.345   0.279
  671SOL    HW2 2034   2.583   2.468   0.317
  672SOL     OW 2035   2.533   2.326   1.269
  672SOL    HW1 2036   2.499   2.237   1.239
  672SOL    HW2 2037   2.559   2.380   1.189
  673SOL     OW 2038   2.335   2.362   0.191
  673SOL    HW1 2039   2.396   2.442   0.195
  673SOL    HW2 2040   2.240   2.393   0.198
  674SOL     OW 2041   2.765   1.948   0.133
  674SOL    HW1 2042   2.816   1.949   0.047
  674SOL    HW2 2043   2.821   1.906   0.204
  675SOL     OW 2044   2.125   2.188   0.720
  675SOL    HW1 2045   2.046   2.239   0.686
  675SOL    HW2 2046   2.116   2.173   0.818
  676SOL     OW 2047   2.901   2.960   0.696
  676SOL    HW1 2048   2.831   2.913   0.750
  676SOL    HW2 2049   2.960   2.892   0.653
  677SOL     OW 2050   1.967   2.875   1.726
  677SOL    HW1 2051   1.890   2.842   1.780
  677SOL    HW2 2052   2.052   2.845   1.768
  678SOL     OW 2053   2.534   2.065   1.489
  678SOL    HW1 2054   2.624   2.049   1.449
  678SOL    HW2 2055   2.542   2.070   1.588
  679SOL     OW 2056   1.934   2.028   0.318
  679SOL    HW1 2057   1.917   2.111   0.264
  679SOL    HW2 2058   2.024   1.991   0.296
  680SOL     OW 2059   2.475   2.704   1.431
  680SOL    HW1 2060   2.531   2.785   1.414
  680SOL    HW2 2061   2.534   2.624   1.434
  681SOL     OW 2062   2.578   2.427   1.708
  681SOL    HW1 2063   2.597   2.492   1.782
  681SOL    HW2 2064   2.638   2.347   1.717
  682SOL     OW 2065   2.456   2.607   0.652
  682SOL    HW1 2066   2.506   2.692   0.633
  682SOL    HW2 2067   2.368   2.609   0.604
  683SOL     OW 2068   2.721   2.818   0.861
  683SOL    HW1 2069   2.775   2.749   0.909
  683SOL    HW2 2070   2.689   2.887   0.927
  684SOL     OW 2071   2.290   2.286   0.520
  684SOL    HW1 2072   2.320   2.214   0.458
  684SOL    HW2 2073   2.251   2.246   0.603
  685SOL     OW 2074   2.179   2.409   1.280
  685SOL    HW1 2075   2.217   2.350   1.352
  685SOL    HW2 2076   2.219   2.383   1.192
  686SOL     OW 2077   2.863   1.896   1.154
  686SOL    HW1 2078   2.800   1.824   1.123
  686SOL    HW2 2079   2.956   1.860   1.154
  687SOL     OW 2080   2.092   2.490   1.975
  687SOL    HW1 2081   1.999   2.488   2.012
  687SOL    HW2 2082   2.093   2.451   1.883
  688SOL     OW 2083   2.087   2.137   2.858
  688SOL    HW1 2084   2.122   2.120   2.950
  688SOL    HW2 2085   1.999   2.092   2.846
  689SOL     OW 2086   1.881   2.230   2.509
  689SOL    HW1 2087   1.799   2.273   2.548
  689SOL    HW2 2088   1.853   2.157   2.446
  690SOL     OW 2089   2.547   2.874   2.527
  690SOL    HW1 2090   2.616   2.858   2.597
  690SOL    HW2 2091   2.474   2.931   2.565
  691SOL     OW 2092   1.984   2.505   2.425
  691SOL    HW1 2093   1.939   2.417   2.442
  691SOL    HW2 2094   1.983   2.559   2.509
  692SOL     OW 2095   2.671   1.866   2.364
  692SOL    HW1 2096   2.711   1.957   2.355
  692SOL    HW2 2097   2.571   1.874   2.370
  693SOL     OW 2098   2.460   2.591   2.132
  693SOL    HW1 2099   2.484   2.660   2.064
  693SOL    HW2 2100   2.382   2.624   2.186
  694SOL     OW 2101   1.938   2.673   2.651
  694SOL    HW1 2102   2.037   2.661   2.660
  694SOL    HW2 2103   1.914   2.768   2.672
  695SOL     OW 2104   2.727   2.210   2.057
  695SOL    HW1 2105   2.786   2.273   2.008
  695SOL    HW2 2106   2.746   2.116   2.028
  696SOL     OW 2107   2.412   2.058   2.747
  696SOL    HW1 2108   2.407   2.053   2.847
  696SOL    HW2 2109   2.414   2.154   2.718
  697SOL     OW 2110   2.244   2.562   2.342
  697SOL    HW1 2111   2.289   2.472   2.339
  697SOL    HW2 2112   2.150   2.551   2.375
  698SOL     OW 2113   2.476   1.984   1.979
  698SOL    HW1 2114   2.574   1.962   1.986
  698SOL    HW2 2115   2.445   1.967   1.886
  699SOL     OW 2116   2.401   1.926   2.374
  699SOL    HW1 2117   2.320   1.927   2.432
  699SOL    HW2 2118   2.404   2.009   2.319
  700SOL     OW 2119   2.159   1.897   2.033
  700SOL    HW1 2120   2.208   1.981   2.012
  700SOL    HW2 2121   2.221   1.832   2.078
  701SOL     OW 2122   2.389   2.118   2.190
  701SOL    HW1 2123   2.416   2.059   2.115
  701SOL    HW2 2124   2.389   2.213   2.159
  702SOL     OW 2125   2.428   2.399   2.727
  702SOL    HW1 2126   2.440   2.465   2.653
  702SOL    HW2 2127   2.474   2.433   2.810
  703SOL     OW 2128   2.594   2.496   2.926
  703SOL    HW1 2129   2.653   2.470   2.850
  703SOL    HW2 2130   2.566   2.592   2.915
  704SOL     OW 2131   2.169   1.925   2.480
  704SOL    HW1 2132   2.158   2.019   2.513
  704SOL    HW2 2133   2.164   1.862   2.557
  705SOL     OW 2134   2.885   2.628   2.828
  705SOL    HW1 2135   2.900   2.649   2.924
  705SOL    HW2 2136   2.855   2.533   2.819
  706SOL     OW 2137   2.677   2.434   2.187
  706SOL    HW1 2138   2.684   2.345   2.141
  706SOL    HW2 2139   2.583   2.468   2.179
  707SOL     OW 2140   2.335   2.362   2.053
  707SOL    HW1 2141   2.396   2.442   2.057
  707SOL    HW2 2142   2.240   2.393   2.060
  708SOL     OW 2143   2.765   1.948   1.995
  708SOL    HW1 2144   2.816   1.949   1.909
  708SOL    HW2 2145   2.821   1.906   2.066
  709SOL     OW 2146   2.125   2.188   2.582
  709SOL    HW1 2147   2.046   2.239   2.548
  709SOL    HW2 2148   2.116   2.173   2.680
  710SOL     OW 2149   2.901   2.960   2.558
  710SOL    HW1 2150   2.831   2.913   2.612
  710SOL    HW2 2151   2.960   2.892   2.515
  711SOL     OW 2152   1.937   2.207   1.895
  711SOL    HW1 2153   1.845   2.179   1.866
  711SOL    HW2 2154   1.968   2.284   1.839
  712SOL     OW 2155   1.934   2.028   2.180
  712SOL    HW1 2156   1.917   2.111   2.126
  712SOL    HW2 2157   2.024   1.991   2.158
  713SOL     OW 2158   2.456   2.607   2.514
  713SOL    HW1 2159   2.506   2.692   2.495
  713SOL    HW2 2160   2.368   2.609   2.466
  714SOL     OW 2161   2.721   2.818   2.723
  714SOL    HW1 2162   2.775   2.749   2.771
  714SOL    HW2 2163   2.689   2.887   2.789
  715SOL     OW 2164   2.290   2.286   2.382
  715SOL    HW1 2165   2.320   2.214   2.320
  715SOL    HW2 2166   2.251   2.246   2.465
   2.81924   2.81924   2.81924
