; mobley_1743409_GMX.itp created by acpype (v: 2023.10.27) on Thu May 14 13:54:25 2026

[ atomtypes ]
;name   bond_type     mass     charge   ptype   sigma         epsilon       Amb
 c        c           0.00000  0.00000   A     3.31521e-01   4.13379e-01 ; 1.86  0.0988
 c3       c3          0.00000  0.00000   A     3.39771e-01   4.51035e-01 ; 1.91  0.1078
 o        o           0.00000  0.00000   A     3.04812e-01   6.12119e-01 ; 1.71  0.1463
 os       os          0.00000  0.00000   A     3.15610e-01   3.03758e-01 ; 1.77  0.0726
 hc       hc          0.00000  0.00000   A     2.60018e-01   8.70272e-02 ; 1.46  0.0208
 h1       h1          0.00000  0.00000   A     2.42200e-01   8.70272e-02 ; 1.36  0.0208

[ moleculetype ]
;name            nrexcl
 mobley_1743409   3

[ atoms ]
;   nr  type  resi  res  atom  cgnr     charge      mass       ; qtot   bond_type
     1    c     1   MOL    C1    1     0.632101     12.01000 ; qtot 0.632
     2    c     1   MOL    C2    2     0.632101     12.01000 ; qtot 1.264
     3   c3     1   MOL    C3    3    -0.101100     12.01000 ; qtot 1.163
     4   c3     1   MOL    C4    4    -0.101100     12.01000 ; qtot 1.062
     5   c3     1   MOL    C5    5    -0.130400     12.01000 ; qtot 0.932
     6   c3     1   MOL    C6    6    -0.130400     12.01000 ; qtot 0.801
     7   c3     1   MOL    C7    7     0.139400     12.01000 ; qtot 0.941
     8   c3     1   MOL    C8    8     0.139400     12.01000 ; qtot 1.080
     9    o     1   MOL    O1    9    -0.545000     16.00000 ; qtot 0.535
    10    o     1   MOL    O2   10    -0.545000     16.00000 ; qtot -0.010
    11   os     1   MOL    O3   11    -0.440900     16.00000 ; qtot -0.451
    12   os     1   MOL    O4   12    -0.440900     16.00000 ; qtot -0.892
    13   hc     1   MOL    H1   13     0.049033      1.00800 ; qtot -0.843
    14   hc     1   MOL    H2   14     0.049033      1.00800 ; qtot -0.794
    15   hc     1   MOL    H3   15     0.049033      1.00800 ; qtot -0.745
    16   hc     1   MOL    H4   16     0.049033      1.00800 ; qtot -0.696
    17   hc     1   MOL    H5   17     0.049033      1.00800 ; qtot -0.647
    18   hc     1   MOL    H6   18     0.049033      1.00800 ; qtot -0.598
    19   hc     1   MOL    H7   19     0.097200      1.00800 ; qtot -0.500
    20   hc     1   MOL    H8   20     0.097200      1.00800 ; qtot -0.403
    21   hc     1   MOL    H9   21     0.097200      1.00800 ; qtot -0.306
    22   hc     1   MOL   H10   22     0.097200      1.00800 ; qtot -0.209
    23   h1     1   MOL   H11   23     0.052200      1.00800 ; qtot -0.157
    24   h1     1   MOL   H12   24     0.052200      1.00800 ; qtot -0.104
    25   h1     1   MOL   H13   25     0.052200      1.00800 ; qtot -0.052
    26   h1     1   MOL   H14   26     0.052200      1.00800 ; qtot 0.000

[ bonds ]
;   ai     aj funct   r             k
     1      5   1    1.5270e-01    1.9652e+05 ;     C1 - C5    
     1      9   1    1.2190e-01    4.9421e+05 ;     C1 - O1    
     1     11   1    1.3621e-01    2.9398e+05 ;     C1 - O3    
     2      6   1    1.5270e-01    1.9652e+05 ;     C2 - C6    
     2     10   1    1.2190e-01    4.9421e+05 ;     C2 - O2    
     2     12   1    1.3621e-01    2.9398e+05 ;     C2 - O4    
     3      7   1    1.5354e-01    1.9154e+05 ;     C3 - C7    
     3     13   1    1.0962e-01    2.8891e+05 ;     C3 - H1    
     3     14   1    1.0962e-01    2.8891e+05 ;     C3 - H2    
     3     15   1    1.0962e-01    2.8891e+05 ;     C3 - H3    
     4      8   1    1.5354e-01    1.9154e+05 ;     C4 - C8    
     4     16   1    1.0962e-01    2.8891e+05 ;     C4 - H4    
     4     17   1    1.0962e-01    2.8891e+05 ;     C4 - H5    
     4     18   1    1.0962e-01    2.8891e+05 ;     C4 - H6    
     5      6   1    1.5354e-01    1.9154e+05 ;     C5 - C6    
     5     19   1    1.0962e-01    2.8891e+05 ;     C5 - H7    
     5     20   1    1.0962e-01    2.8891e+05 ;     C5 - H8    
     6     21   1    1.0962e-01    2.8891e+05 ;     C6 - H9    
     6     22   1    1.0962e-01    2.8891e+05 ;     C6 - H10   
     7     11   1    1.4273e-01    2.3620e+05 ;     C7 - O3    
     7     23   1    1.0969e-01    2.8804e+05 ;     C7 - H11   
     7     24   1    1.0969e-01    2.8804e+05 ;     C7 - H12   
     8     12   1    1.4273e-01    2.3620e+05 ;     C8 - O4    
     8     25   1    1.0969e-01    2.8804e+05 ;     C8 - H13   
     8     26   1    1.0969e-01    2.8804e+05 ;     C8 - H14   

[ pairs ]
;   ai     aj    funct
     1      2      1 ;     C1 - C2    
     1      3      1 ;     C1 - C3    
     1     21      1 ;     C1 - H9    
     1     22      1 ;     C1 - H10   
     1     23      1 ;     C1 - H11   
     1     24      1 ;     C1 - H12   
     2      4      1 ;     C2 - C4    
     2     19      1 ;     C2 - H7    
     2     20      1 ;     C2 - H8    
     2     25      1 ;     C2 - H13   
     2     26      1 ;     C2 - H14   
     5      7      1 ;     C5 - C7    
     5     10      1 ;     C5 - O2    
     5     12      1 ;     C5 - O4    
     6      8      1 ;     C6 - C8    
     8     10      1 ;     C8 - O2    
     9      6      1 ;     O1 - C6    
     9      7      1 ;     O1 - C7    
     9     19      1 ;     O1 - H7    
     9     20      1 ;     O1 - H8    
    10     21      1 ;     O2 - H9    
    10     22      1 ;     O2 - H10   
    11      6      1 ;     O3 - C6    
    11     13      1 ;     O3 - H1    
    11     14      1 ;     O3 - H2    
    11     15      1 ;     O3 - H3    
    11     19      1 ;     O3 - H7    
    11     20      1 ;     O3 - H8    
    12     16      1 ;     O4 - H4    
    12     17      1 ;     O4 - H5    
    12     18      1 ;     O4 - H6    
    12     21      1 ;     O4 - H9    
    12     22      1 ;     O4 - H10   
    13     23      1 ;     H1 - H11   
    13     24      1 ;     H1 - H12   
    14     23      1 ;     H2 - H11   
    14     24      1 ;     H2 - H12   
    15     23      1 ;     H3 - H11   
    15     24      1 ;     H3 - H12   
    16     25      1 ;     H4 - H13   
    16     26      1 ;     H4 - H14   
    17     25      1 ;     H5 - H13   
    17     26      1 ;     H5 - H14   
    18     25      1 ;     H6 - H13   
    18     26      1 ;     H6 - H14   
    19     21      1 ;     H7 - H9    
    19     22      1 ;     H7 - H10   
    20     21      1 ;     H8 - H9    
    20     22      1 ;     H8 - H10   

[ angles ]
;   ai     aj     ak    funct   theta         cth
     1      5      6      1    1.1143e+02    5.0509e+02 ;     C1 - C5     - C6    
     1      5     19      1    1.0895e+02    3.6510e+02 ;     C1 - C5     - H7    
     1      5     20      1    1.0895e+02    3.6510e+02 ;     C1 - C5     - H8    
     1     11      7      1    1.1582e+02    7.4835e+02 ;     C1 - O3     - C7    
     2      6      5      1    1.1143e+02    5.0509e+02 ;     C2 - C6     - C5    
     2      6     21      1    1.0895e+02    3.6510e+02 ;     C2 - C6     - H9    
     2      6     22      1    1.0895e+02    3.6510e+02 ;     C2 - C6     - H10   
     2     12      8      1    1.1582e+02    7.4835e+02 ;     C2 - O4     - C8    
     3      7     11      1    1.0762e+02    6.4802e+02 ;     C3 - C7     - O3    
     3      7     23      1    1.0959e+02    3.6217e+02 ;     C3 - C7     - H11   
     3      7     24      1    1.0959e+02    3.6217e+02 ;     C3 - C7     - H12   
     4      8     12      1    1.0762e+02    6.4802e+02 ;     C4 - C8     - O4    
     4      8     25      1    1.0959e+02    3.6217e+02 ;     C4 - C8     - H13   
     4      8     26      1    1.0959e+02    3.6217e+02 ;     C4 - C8     - H14   
     5      1      9      1    1.2290e+02    6.3973e+02 ;     C5 - C1     - O1    
     5      1     11      1    1.1080e+02    6.5245e+02 ;     C5 - C1     - O3    
     5      6     21      1    1.0968e+02    3.6208e+02 ;     C5 - C6     - H9    
     5      6     22      1    1.0968e+02    3.6208e+02 ;     C5 - C6     - H10   
     6      2     10      1    1.2290e+02    6.3973e+02 ;     C6 - C2     - O2    
     6      2     12      1    1.1080e+02    6.5245e+02 ;     C6 - C2     - O4    
     6      5     19      1    1.0968e+02    3.6208e+02 ;     C6 - C5     - H7    
     6      5     20      1    1.0968e+02    3.6208e+02 ;     C6 - C5     - H8    
     7      3     13      1    1.0968e+02    3.6208e+02 ;     C7 - C3     - H1    
     7      3     14      1    1.0968e+02    3.6208e+02 ;     C7 - C3     - H2    
     7      3     15      1    1.0968e+02    3.6208e+02 ;     C7 - C3     - H3    
     8      4     16      1    1.0968e+02    3.6208e+02 ;     C8 - C4     - H4    
     8      4     17      1    1.0968e+02    3.6208e+02 ;     C8 - C4     - H5    
     8      4     18      1    1.0968e+02    3.6208e+02 ;     C8 - C4     - H6    
     9      1     11      1    1.2320e+02    8.4734e+02 ;     O1 - C1     - O3    
    10      2     12      1    1.2320e+02    8.4734e+02 ;     O2 - C2     - O4    
    11      7     23      1    1.1034e+02    4.7028e+02 ;     O3 - C7     - H11   
    11      7     24      1    1.1034e+02    4.7028e+02 ;     O3 - C7     - H12   
    12      8     25      1    1.1034e+02    4.7028e+02 ;     O4 - C8     - H13   
    12      8     26      1    1.1034e+02    4.7028e+02 ;     O4 - C8     - H14   
    13      3     14      1    1.0773e+02    2.9957e+02 ;     H1 - C3     - H2    
    13      3     15      1    1.0773e+02    2.9957e+02 ;     H1 - C3     - H3    
    14      3     15      1    1.0773e+02    2.9957e+02 ;     H2 - C3     - H3    
    16      4     17      1    1.0773e+02    2.9957e+02 ;     H4 - C4     - H5    
    16      4     18      1    1.0773e+02    2.9957e+02 ;     H4 - C4     - H6    
    17      4     18      1    1.0773e+02    2.9957e+02 ;     H5 - C4     - H6    
    19      5     20      1    1.0773e+02    2.9957e+02 ;     H7 - C5     - H8    
    21      6     22      1    1.0773e+02    2.9957e+02 ;     H9 - C6     - H10   
    23      7     24      1    1.0855e+02    2.9824e+02 ;    H11 - C7     - H12   
    25      8     26      1    1.0855e+02    2.9824e+02 ;    H13 - C8     - H14   

[ dihedrals ] ; propers
; for gromacs 4.5 or higher, using funct 9
;    i      j      k      l   func   phase     kd      pn
     1      5      6      2      9     0.00   1.54808   2 ;     C1-    C5-    C6-    C2
     1      5      6      2      9     0.00   5.02080   1 ;     C1-    C5-    C6-    C2
     1      5      6      2      9   180.00   0.92978   3 ;     C1-    C5-    C6-    C2
     1      5      6     21      9     0.00   0.65084   3 ;     C1-    C5-    C6-    H9
     1      5      6     22      9     0.00   0.65084   3 ;     C1-    C5-    C6-   H10
     1     11      7      3      9     0.00   1.60247   3 ;     C1-    O3-    C7-    C3
     1     11      7      3      9   180.00   3.34720   1 ;     C1-    O3-    C7-    C3
     1     11      7     23      9     0.00   1.60387   3 ;     C1-    O3-    C7-   H11
     1     11      7     24      9     0.00   1.60387   3 ;     C1-    O3-    C7-   H12
     2      6      5     19      9     0.00   0.65084   3 ;     C2-    C6-    C5-    H7
     2      6      5     20      9     0.00   0.65084   3 ;     C2-    C6-    C5-    H8
     2     12      8      4      9     0.00   1.60247   3 ;     C2-    O4-    C8-    C4
     2     12      8      4      9   180.00   3.34720   1 ;     C2-    O4-    C8-    C4
     2     12      8     25      9     0.00   1.60387   3 ;     C2-    O4-    C8-   H13
     2     12      8     26      9     0.00   1.60387   3 ;     C2-    O4-    C8-   H14
     5      1     11      7      9     0.00   3.13800   3 ;     C5-    C1-    O3-    C7
     5      1     11      7      9   180.00   7.90776   1 ;     C5-    C1-    O3-    C7
     5      1     11      7      9   180.00  13.76536   2 ;     C5-    C1-    O3-    C7
     5      6      2     10      9     0.00   2.84512   1 ;     C5-    C6-    C2-    O2
     5      6      2     10      9   180.00   0.83680   2 ;     C5-    C6-    C2-    O2
     5      6      2     10      9   180.00   1.84096   3 ;     C5-    C6-    C2-    O2
     5      6      2     12      9   180.00   0.00000   2 ;     C5-    C6-    C2-    O4
     6      2     12      8      9     0.00   3.13800   3 ;     C6-    C2-    O4-    C8
     6      2     12      8      9   180.00   7.90776   1 ;     C6-    C2-    O4-    C8
     6      2     12      8      9   180.00  13.76536   2 ;     C6-    C2-    O4-    C8
     8     12      2     10      9   180.00   5.85760   1 ;     C8-    O4-    C2-    O2
     8     12      2     10      9   180.00  11.29680   2 ;     C8-    O4-    C2-    O2
     9      1      5      6      9     0.00   2.84512   1 ;     O1-    C1-    C5-    C6
     9      1      5      6      9   180.00   0.83680   2 ;     O1-    C1-    C5-    C6
     9      1      5      6      9   180.00   1.84096   3 ;     O1-    C1-    C5-    C6
     9      1      5     19      9     0.00  16.86152   1 ;     O1-    C1-    C5-    H7
     9      1      5     19      9   180.00  15.31344   2 ;     O1-    C1-    C5-    H7
     9      1      5     20      9     0.00  16.86152   1 ;     O1-    C1-    C5-    H8
     9      1      5     20      9   180.00  15.31344   2 ;     O1-    C1-    C5-    H8
     9      1     11      7      9   180.00   5.85760   1 ;     O1-    C1-    O3-    C7
     9      1     11      7      9   180.00  11.29680   2 ;     O1-    C1-    O3-    C7
    10      2      6     21      9     0.00  16.86152   1 ;     O2-    C2-    C6-    H9
    10      2      6     21      9   180.00  15.31344   2 ;     O2-    C2-    C6-    H9
    10      2      6     22      9     0.00  16.86152   1 ;     O2-    C2-    C6-   H10
    10      2      6     22      9   180.00  15.31344   2 ;     O2-    C2-    C6-   H10
    11      1      5      6      9   180.00   0.00000   2 ;     O3-    C1-    C5-    C6
    11      1      5     19      9   180.00   0.00000   2 ;     O3-    C1-    C5-    H7
    11      1      5     20      9   180.00   0.00000   2 ;     O3-    C1-    C5-    H8
    11      7      3     13      9     0.00   0.00000   0 ;     O3-    C7-    C3-    H1
    11      7      3     13      9     0.00   1.04600   1 ;     O3-    C7-    C3-    H1
    11      7      3     14      9     0.00   0.00000   0 ;     O3-    C7-    C3-    H2
    11      7      3     14      9     0.00   1.04600   1 ;     O3-    C7-    C3-    H2
    11      7      3     15      9     0.00   0.00000   0 ;     O3-    C7-    C3-    H3
    11      7      3     15      9     0.00   1.04600   1 ;     O3-    C7-    C3-    H3
    12      2      6     21      9   180.00   0.00000   2 ;     O4-    C2-    C6-    H9
    12      2      6     22      9   180.00   0.00000   2 ;     O4-    C2-    C6-   H10
    12      8      4     16      9     0.00   0.00000   0 ;     O4-    C8-    C4-    H4
    12      8      4     16      9     0.00   1.04600   1 ;     O4-    C8-    C4-    H4
    12      8      4     17      9     0.00   0.00000   0 ;     O4-    C8-    C4-    H5
    12      8      4     17      9     0.00   1.04600   1 ;     O4-    C8-    C4-    H5
    12      8      4     18      9     0.00   0.00000   0 ;     O4-    C8-    C4-    H6
    12      8      4     18      9     0.00   1.04600   1 ;     O4-    C8-    C4-    H6
    13      3      7     23      9     0.00   0.65084   3 ;     H1-    C3-    C7-   H11
    13      3      7     24      9     0.00   0.65084   3 ;     H1-    C3-    C7-   H12
    14      3      7     23      9     0.00   0.65084   3 ;     H2-    C3-    C7-   H11
    14      3      7     24      9     0.00   0.65084   3 ;     H2-    C3-    C7-   H12
    15      3      7     23      9     0.00   0.65084   3 ;     H3-    C3-    C7-   H11
    15      3      7     24      9     0.00   0.65084   3 ;     H3-    C3-    C7-   H12
    16      4      8     25      9     0.00   0.65084   3 ;     H4-    C4-    C8-   H13
    16      4      8     26      9     0.00   0.65084   3 ;     H4-    C4-    C8-   H14
    17      4      8     25      9     0.00   0.65084   3 ;     H5-    C4-    C8-   H13
    17      4      8     26      9     0.00   0.65084   3 ;     H5-    C4-    C8-   H14
    18      4      8     25      9     0.00   0.65084   3 ;     H6-    C4-    C8-   H13
    18      4      8     26      9     0.00   0.65084   3 ;     H6-    C4-    C8-   H14
    19      5      6     21      9     0.00   0.50208   3 ;     H7-    C5-    C6-    H9
    19      5      6     22      9     0.00   0.50208   3 ;     H7-    C5-    C6-   H10
    20      5      6     21      9     0.00   0.50208   3 ;     H8-    C5-    C6-    H9
    20      5      6     22      9     0.00   0.50208   3 ;     H8-    C5-    C6-   H10

[ dihedrals ] ; impropers
; treated as propers in GROMACS to use correct AMBER analytical function
;    i      j      k      l   func   phase     kd      pn
     6     10      2     12      4   180.00   4.60240   2 ;     C6-    O2-    C2-    O4
    11      1      9      5      4   180.00   4.60240   2 ;     O3-    C1-    O1-    C5
