; mobley_3414356_GMX.itp created by acpype (v: 2023.10.27) on Thu May 14 13:47:24 2026

[ atomtypes ]
;name   bond_type     mass     charge   ptype   sigma         epsilon       Amb
 c3       c3          0.00000  0.00000   A     3.39771e-01   4.51035e-01 ; 1.91  0.1078
 oh       oh          0.00000  0.00000   A     3.24287e-01   3.89112e-01 ; 1.82  0.0930
 hc       hc          0.00000  0.00000   A     2.60018e-01   8.70272e-02 ; 1.46  0.0208
 ho       ho          0.00000  0.00000   A     5.37925e-02   1.96648e-02 ; 0.30  0.0047

[ moleculetype ]
;name            nrexcl
 mobley_3414356   3

[ atoms ]
;   nr  type  resi  res  atom  cgnr     charge      mass       ; qtot   bond_type
     1   c3     1   MOL    C1    1    -0.092100     12.01000 ; qtot -0.092
     2   c3     1   MOL    C2    2    -0.123100     12.01000 ; qtot -0.215
     3   c3     1   MOL    C3    3    -0.123100     12.01000 ; qtot -0.338
     4   c3     1   MOL    C4    4    -0.080400     12.01000 ; qtot -0.419
     5   c3     1   MOL    C5    5    -0.064400     12.01000 ; qtot -0.483
     6   c3     1   MOL    C6    6     0.147800     12.01000 ; qtot -0.335
     7   oh     1   MOL    O1    7    -0.596798     16.00000 ; qtot -0.932
     8   hc     1   MOL    H1    8     0.031700      1.00800 ; qtot -0.900
     9   hc     1   MOL    H2    9     0.031700      1.00800 ; qtot -0.869
    10   hc     1   MOL    H3   10     0.031700      1.00800 ; qtot -0.837
    11   hc     1   MOL    H4   11     0.042033      1.00800 ; qtot -0.795
    12   hc     1   MOL    H5   12     0.042033      1.00800 ; qtot -0.753
    13   hc     1   MOL    H6   13     0.042033      1.00800 ; qtot -0.711
    14   hc     1   MOL    H7   14     0.042033      1.00800 ; qtot -0.669
    15   hc     1   MOL    H8   15     0.042033      1.00800 ; qtot -0.627
    16   hc     1   MOL    H9   16     0.042033      1.00800 ; qtot -0.585
    17   hc     1   MOL   H10   17     0.047200      1.00800 ; qtot -0.538
    18   hc     1   MOL   H11   18     0.047200      1.00800 ; qtot -0.490
    19   hc     1   MOL   H12   19     0.047200      1.00800 ; qtot -0.443
    20   hc     1   MOL   H13   20     0.047200      1.00800 ; qtot -0.396
    21   ho     1   MOL   H14   21     0.396000      1.00800 ; qtot 0.000

[ bonds ]
;   ai     aj funct   r             k
     1      4   1    1.5354e-01    1.9154e+05 ;     C1 - C4    
     1      8   1    1.0962e-01    2.8891e+05 ;     C1 - H1    
     1      9   1    1.0962e-01    2.8891e+05 ;     C1 - H2    
     1     10   1    1.0962e-01    2.8891e+05 ;     C1 - H3    
     2      6   1    1.5354e-01    1.9154e+05 ;     C2 - C6    
     2     11   1    1.0962e-01    2.8891e+05 ;     C2 - H4    
     2     12   1    1.0962e-01    2.8891e+05 ;     C2 - H5    
     2     13   1    1.0962e-01    2.8891e+05 ;     C2 - H6    
     3      6   1    1.5354e-01    1.9154e+05 ;     C3 - C6    
     3     14   1    1.0962e-01    2.8891e+05 ;     C3 - H7    
     3     15   1    1.0962e-01    2.8891e+05 ;     C3 - H8    
     3     16   1    1.0962e-01    2.8891e+05 ;     C3 - H9    
     4      5   1    1.5354e-01    1.9154e+05 ;     C4 - C5    
     4     17   1    1.0962e-01    2.8891e+05 ;     C4 - H10   
     4     18   1    1.0962e-01    2.8891e+05 ;     C4 - H11   
     5      6   1    1.5354e-01    1.9154e+05 ;     C5 - C6    
     5     19   1    1.0962e-01    2.8891e+05 ;     C5 - H12   
     5     20   1    1.0962e-01    2.8891e+05 ;     C5 - H13   
     6      7   1    1.4242e-01    2.3861e+05 ;     C6 - O1    
     7     21   1    9.7250e-02    4.4811e+05 ;     O1 - H14   

[ pairs ]
;   ai     aj    funct
     1      6      1 ;     C1 - C6    
     1     19      1 ;     C1 - H12   
     1     20      1 ;     C1 - H13   
     2      4      1 ;     C2 - C4    
     2     14      1 ;     C2 - H7    
     2     15      1 ;     C2 - H8    
     2     16      1 ;     C2 - H9    
     2     19      1 ;     C2 - H12   
     2     20      1 ;     C2 - H13   
     2     21      1 ;     C2 - H14   
     3      4      1 ;     C3 - C4    
     3     11      1 ;     C3 - H4    
     3     12      1 ;     C3 - H5    
     3     13      1 ;     C3 - H6    
     3     19      1 ;     C3 - H12   
     3     20      1 ;     C3 - H13   
     3     21      1 ;     C3 - H14   
     4      7      1 ;     C4 - O1    
     5     11      1 ;     C5 - H4    
     5     12      1 ;     C5 - H5    
     5     13      1 ;     C5 - H6    
     5     14      1 ;     C5 - H7    
     5     15      1 ;     C5 - H8    
     5     16      1 ;     C5 - H9    
     5     21      1 ;     C5 - H14   
     6     17      1 ;     C6 - H10   
     6     18      1 ;     C6 - H11   
     7     11      1 ;     O1 - H4    
     7     12      1 ;     O1 - H5    
     7     13      1 ;     O1 - H6    
     7     14      1 ;     O1 - H7    
     7     15      1 ;     O1 - H8    
     7     16      1 ;     O1 - H9    
     7     19      1 ;     O1 - H12   
     7     20      1 ;     O1 - H13   
     8      5      1 ;     H1 - C5    
     8     17      1 ;     H1 - H10   
     8     18      1 ;     H1 - H11   
     9      5      1 ;     H2 - C5    
     9     17      1 ;     H2 - H10   
     9     18      1 ;     H2 - H11   
    10      5      1 ;     H3 - C5    
    10     17      1 ;     H3 - H10   
    10     18      1 ;     H3 - H11   
    17     19      1 ;    H10 - H12   
    17     20      1 ;    H10 - H13   
    18     19      1 ;    H11 - H12   
    18     20      1 ;    H11 - H13   

[ angles ]
;   ai     aj     ak    funct   theta         cth
     1      4      5      1    1.1263e+02    5.0099e+02 ;     C1 - C4     - C5    
     1      4     17      1    1.0968e+02    3.6208e+02 ;     C1 - C4     - H10   
     1      4     18      1    1.0968e+02    3.6208e+02 ;     C1 - C4     - H11   
     2      6      3      1    1.1263e+02    5.0099e+02 ;     C2 - C6     - C3    
     2      6      5      1    1.1263e+02    5.0099e+02 ;     C2 - C6     - C5    
     2      6      7      1    1.0966e+02    6.4258e+02 ;     C2 - C6     - O1    
     3      6      5      1    1.1263e+02    5.0099e+02 ;     C3 - C6     - C5    
     3      6      7      1    1.0966e+02    6.4258e+02 ;     C3 - C6     - O1    
     4      1      8      1    1.0968e+02    3.6208e+02 ;     C4 - C1     - H1    
     4      1      9      1    1.0968e+02    3.6208e+02 ;     C4 - C1     - H2    
     4      1     10      1    1.0968e+02    3.6208e+02 ;     C4 - C1     - H3    
     4      5      6      1    1.1263e+02    5.0099e+02 ;     C4 - C5     - C6    
     4      5     19      1    1.0968e+02    3.6208e+02 ;     C4 - C5     - H12   
     4      5     20      1    1.0968e+02    3.6208e+02 ;     C4 - C5     - H13   
     5      4     17      1    1.0968e+02    3.6208e+02 ;     C5 - C4     - H10   
     5      4     18      1    1.0968e+02    3.6208e+02 ;     C5 - C4     - H11   
     5      6      7      1    1.0966e+02    6.4258e+02 ;     C5 - C6     - O1    
     6      2     11      1    1.0968e+02    3.6208e+02 ;     C6 - C2     - H4    
     6      2     12      1    1.0968e+02    3.6208e+02 ;     C6 - C2     - H5    
     6      2     13      1    1.0968e+02    3.6208e+02 ;     C6 - C2     - H6    
     6      3     14      1    1.0968e+02    3.6208e+02 ;     C6 - C3     - H7    
     6      3     15      1    1.0968e+02    3.6208e+02 ;     C6 - C3     - H8    
     6      3     16      1    1.0968e+02    3.6208e+02 ;     C6 - C3     - H9    
     6      5     19      1    1.0968e+02    3.6208e+02 ;     C6 - C5     - H12   
     6      5     20      1    1.0968e+02    3.6208e+02 ;     C6 - C5     - H13   
     6      7     21      1    1.0739e+02    5.4501e+02 ;     C6 - O1     - H14   
     8      1      9      1    1.0773e+02    2.9957e+02 ;     H1 - C1     - H2    
     8      1     10      1    1.0773e+02    2.9957e+02 ;     H1 - C1     - H3    
     9      1     10      1    1.0773e+02    2.9957e+02 ;     H2 - C1     - H3    
    11      2     12      1    1.0773e+02    2.9957e+02 ;     H4 - C2     - H5    
    11      2     13      1    1.0773e+02    2.9957e+02 ;     H4 - C2     - H6    
    12      2     13      1    1.0773e+02    2.9957e+02 ;     H5 - C2     - H6    
    14      3     15      1    1.0773e+02    2.9957e+02 ;     H7 - C3     - H8    
    14      3     16      1    1.0773e+02    2.9957e+02 ;     H7 - C3     - H9    
    15      3     16      1    1.0773e+02    2.9957e+02 ;     H8 - C3     - H9    
    17      4     18      1    1.0773e+02    2.9957e+02 ;    H10 - C4     - H11   
    19      5     20      1    1.0773e+02    2.9957e+02 ;    H12 - C5     - H13   

[ dihedrals ] ; propers
; for gromacs 4.5 or higher, using funct 9
;    i      j      k      l   func   phase     kd      pn
     1      4      5      6      9     0.00   2.17568   3 ;     C1-    C4-    C5-    C6
     1      4      5     19      9     0.00   0.54392   3 ;     C1-    C4-    C5-   H12
     1      4      5     20      9     0.00   0.54392   3 ;     C1-    C4-    C5-   H13
     2      6      3     14      9     0.00   0.54392   3 ;     C2-    C6-    C3-    H7
     2      6      3     15      9     0.00   0.54392   3 ;     C2-    C6-    C3-    H8
     2      6      3     16      9     0.00   0.54392   3 ;     C2-    C6-    C3-    H9
     2      6      5      4      9     0.00   2.17568   3 ;     C2-    C6-    C5-    C4
     2      6      5     19      9     0.00   0.54392   3 ;     C2-    C6-    C5-   H12
     2      6      5     20      9     0.00   0.54392   3 ;     C2-    C6-    C5-   H13
     2      6      7     21      9     0.00   0.25104   3 ;     C2-    C6-    O1-   H14
     3      6      2     11      9     0.00   0.54392   3 ;     C3-    C6-    C2-    H4
     3      6      2     12      9     0.00   0.54392   3 ;     C3-    C6-    C2-    H5
     3      6      2     13      9     0.00   0.54392   3 ;     C3-    C6-    C2-    H6
     3      6      5      4      9     0.00   2.17568   3 ;     C3-    C6-    C5-    C4
     3      6      5     19      9     0.00   0.54392   3 ;     C3-    C6-    C5-   H12
     3      6      5     20      9     0.00   0.54392   3 ;     C3-    C6-    C5-   H13
     3      6      7     21      9     0.00   0.25104   3 ;     C3-    C6-    O1-   H14
     4      5      6      7      9     0.00   0.75312   3 ;     C4-    C5-    C6-    O1
     5      6      2     11      9     0.00   0.54392   3 ;     C5-    C6-    C2-    H4
     5      6      2     12      9     0.00   0.54392   3 ;     C5-    C6-    C2-    H5
     5      6      2     13      9     0.00   0.54392   3 ;     C5-    C6-    C2-    H6
     5      6      3     14      9     0.00   0.54392   3 ;     C5-    C6-    C3-    H7
     5      6      3     15      9     0.00   0.54392   3 ;     C5-    C6-    C3-    H8
     5      6      3     16      9     0.00   0.54392   3 ;     C5-    C6-    C3-    H9
     5      6      7     21      9     0.00   0.25104   3 ;     C5-    C6-    O1-   H14
     6      5      4     17      9     0.00   0.54392   3 ;     C6-    C5-    C4-   H10
     6      5      4     18      9     0.00   0.54392   3 ;     C6-    C5-    C4-   H11
     7      6      2     11      9     0.00   0.37656   3 ;     O1-    C6-    C2-    H4
     7      6      2     12      9     0.00   0.37656   3 ;     O1-    C6-    C2-    H5
     7      6      2     13      9     0.00   0.37656   3 ;     O1-    C6-    C2-    H6
     7      6      3     14      9     0.00   0.37656   3 ;     O1-    C6-    C3-    H7
     7      6      3     15      9     0.00   0.37656   3 ;     O1-    C6-    C3-    H8
     7      6      3     16      9     0.00   0.37656   3 ;     O1-    C6-    C3-    H9
     7      6      5     19      9     0.00   0.37656   3 ;     O1-    C6-    C5-   H12
     7      6      5     20      9     0.00   0.37656   3 ;     O1-    C6-    C5-   H13
     8      1      4      5      9     0.00   0.54392   3 ;     H1-    C1-    C4-    C5
     8      1      4     17      9     0.00   0.50208   3 ;     H1-    C1-    C4-   H10
     8      1      4     18      9     0.00   0.50208   3 ;     H1-    C1-    C4-   H11
     9      1      4      5      9     0.00   0.54392   3 ;     H2-    C1-    C4-    C5
     9      1      4     17      9     0.00   0.50208   3 ;     H2-    C1-    C4-   H10
     9      1      4     18      9     0.00   0.50208   3 ;     H2-    C1-    C4-   H11
    10      1      4      5      9     0.00   0.54392   3 ;     H3-    C1-    C4-    C5
    10      1      4     17      9     0.00   0.50208   3 ;     H3-    C1-    C4-   H10
    10      1      4     18      9     0.00   0.50208   3 ;     H3-    C1-    C4-   H11
    17      4      5     19      9     0.00   0.50208   3 ;    H10-    C4-    C5-   H12
    17      4      5     20      9     0.00   0.50208   3 ;    H10-    C4-    C5-   H13
    18      4      5     19      9     0.00   0.50208   3 ;    H11-    C4-    C5-   H12
    18      4      5     20      9     0.00   0.50208   3 ;    H11-    C4-    C5-   H13
