mobley_8260524_GMX.gro created by acpype (v: 2023.10.27) on Thu May 14 13:16:54 2026
 1426
    1MOL     C1    1   1.221   1.382   1.200
    1MOL     C2    2   1.215   1.263   1.208
    1MOL     C3    3   1.209   1.117   1.219
    1MOL     H1    4   1.225   1.489   1.192
    1MOL     H2    5   1.280   1.080   1.293
    1MOL     H3    6   1.108   1.085   1.249
    1MOL     H4    7   1.232   1.070   1.123
    2SOL     OW    8   0.230   0.628   0.113
    2SOL    HW1    9   0.137   0.626   0.150
    2SOL    HW2   10   0.231   0.589   0.021
    3SOL     OW   11   0.225   0.275   0.996
    3SOL    HW1   12   0.260   0.258   1.088
    3SOL    HW2   13   0.137   0.230   0.984
    4SOL     OW   14   0.019   0.368   0.647
    4SOL    HW1   15  -0.063   0.411   0.686
    4SOL    HW2   16  -0.009   0.295   0.584
    5SOL     OW   17   0.569   1.275   1.165
    5SOL    HW1   18   0.476   1.268   1.128
    5SOL    HW2   19   0.580   1.364   1.209
    6SOL     OW   20   1.555   1.511   0.703
    6SOL    HW1   21   1.498   1.495   0.784
    6SOL    HW2   22   1.496   1.521   0.623
    7SOL     OW   23   1.135   0.703   0.717
    7SOL    HW1   24   1.192   0.781   0.692
    7SOL    HW2   25   1.075   0.729   0.793
    8SOL     OW   26   1.755   0.607   0.231
    8SOL    HW1   27   1.743   0.594   0.132
    8SOL    HW2   28   1.725   0.526   0.280
    9SOL     OW   29   0.768   1.144   1.023
    9SOL    HW1   30   0.690   1.161   1.083
    9SOL    HW2   31   0.802   1.231   0.987
   10SOL     OW   32   0.850   0.798   1.823
   10SOL    HW1   33   0.846   0.874   1.888
   10SOL    HW2   34   0.872   0.834   1.732
   11SOL     OW   35   0.685   1.012   0.665
   11SOL    HW1   36   0.754   0.996   0.735
   11SOL    HW2   37   0.612   1.069   0.703
   12SOL     OW   38   0.686   1.161   1.803
   12SOL    HW1   39   0.746   1.240   1.817
   12SOL    HW2   40   0.600   1.192   1.762
   13SOL     OW   41   0.335   1.435   1.061
   13SOL    HW1   42   0.257   1.404   1.008
   13SOL    HW2   43   0.393   1.493   1.004
   14SOL     OW   44   1.460   1.505   1.339
   14SOL    HW1   45   1.484   1.599   1.365
   14SOL    HW2   46   1.444   1.451   1.421
   15SOL     OW   47   0.438   0.392   1.499
   15SOL    HW1   48   0.520   0.336   1.508
   15SOL    HW2   49   0.357   0.334   1.503
   16SOL     OW   50   1.603   0.447   0.737
   16SOL    HW1   51   1.529   0.493   0.687
   16SOL    HW2   52   1.654   0.515   0.790
   17SOL     OW   53   0.231   1.713   0.483
   17SOL    HW1   54   0.265   1.790   0.537
   17SOL    HW2   55   0.275   1.713   0.393
   18SOL     OW   56   1.127   1.341   1.690
   18SOL    HW1   57   1.174   1.341   1.778
   18SOL    HW2   58   1.079   1.254   1.679
   19SOL     OW   59   0.230   1.434   0.538
   19SOL    HW1   60   0.204   1.530   0.538
   19SOL    HW2   61   0.159   1.380   0.583
   20SOL     OW   62   0.240   1.091   0.886
   20SOL    HW1   63   0.254   1.007   0.938
   20SOL    HW2   64   0.185   1.155   0.941
   21SOL     OW   65   0.620   1.786   1.439
   21SOL    HW1   66   0.528   1.769   1.474
   21SOL    HW2   67   0.648   1.878   1.465
   22SOL     OW   68   0.606   0.964   0.123
   22SOL    HW1   69   0.613   1.048   0.069
   22SOL    HW2   70   0.652   0.977   0.211
   23SOL     OW   71   1.594   0.114   1.480
   23SOL    HW1   72   1.576   0.181   1.408
   23SOL    HW2   73   1.591   0.160   1.569
   24SOL     OW   74   0.122   0.643   0.563
   24SOL    HW1   75   0.077   0.555   0.580
   24SOL    HW2   76   0.121   0.697   0.647
   25SOL     OW   77   1.842   1.767   0.359
   25SOL    HW1   78   1.896   1.738   0.439
   25SOL    HW2   79   1.872   1.857   0.330
   26SOL     OW   80   0.027   1.596   0.117
   26SOL    HW1   81   0.008   1.500   0.138
   26SOL    HW2   82  -0.006   1.654   0.192
   27SOL     OW   83   1.689   0.922   0.612
   27SOL    HW1   84   1.784   0.893   0.620
   27SOL    HW2   85   1.681   0.987   0.537
   28SOL     OW   86   1.641   1.108   0.432
   28SOL    HW1   87   1.727   1.110   0.380
   28SOL    HW2   88   1.655   1.155   0.520
   29SOL     OW   89   0.113   0.737   1.597
   29SOL    HW1   90   0.201   0.724   1.642
   29SOL    HW2   91   0.100   0.834   1.575
   30SOL     OW   92   0.613   1.365   0.726
   30SOL    HW1   93   0.564   1.278   0.735
   30SOL    HW2   94   0.590   1.408   0.639
   31SOL     OW   95   0.809   0.004   0.502
   31SOL    HW1   96   0.849   0.095   0.493
   31SOL    HW2   97   0.709   0.012   0.508
   32SOL     OW   98   0.197   0.976   1.264
   32SOL    HW1   99   0.286   0.931   1.250
   32SOL    HW2  100   0.124   0.911   1.245
   33SOL     OW  101   1.525   0.999   0.190
   33SOL    HW1  102   1.462   0.923   0.203
   33SOL    HW2  103   1.573   1.017   0.276
   34SOL     OW  104   1.187   1.792   1.616
   34SOL    HW1  105   1.211   1.852   1.540
   34SOL    HW2  106   1.194   1.697   1.586
   35SOL     OW  107   0.317   0.251   1.801
   35SOL    HW1  108   0.388   0.322   1.807
   35SOL    HW2  109   0.229   0.290   1.829
   36SOL     OW  110   1.466   1.417   0.953
   36SOL    HW1  111   1.407   1.423   1.033
   36SOL    HW2  112   1.451   1.329   0.907
   37SOL     OW  113   1.667   1.714   0.572
   37SOL    HW1  114   1.626   1.691   0.484
   37SOL    HW2  115   1.649   1.640   0.637
   38SOL     OW  116   0.598   0.729   0.270
   38SOL    HW1  117   0.622   0.798   0.202
   38SOL    HW2  118   0.520   0.762   0.324
   39SOL     OW  119   1.281   0.345   0.944
   39SOL    HW1  120   1.195   0.295   0.931
   39SOL    HW2  121   1.343   0.291   1.000
   40SOL     OW  122   1.576   1.662   0.307
   40SOL    HW1  123   1.665   1.708   0.310
   40SOL    HW2  124   1.555   1.638   0.212
   41SOL     OW  125   0.807   0.605   1.465
   41SOL    HW1  126   0.760   0.602   1.554
   41SOL    HW2  127   0.756   0.550   1.399
   42SOL     OW  128   1.394   0.469   1.674
   42SOL    HW1  129   1.374   0.512   1.762
   42SOL    HW2  130   1.472   0.407   1.683
   43SOL     OW  131   0.973   0.890   1.572
   43SOL    HW1  132   1.019   0.806   1.543
   43SOL    HW2  133   0.917   0.924   1.497
   44SOL     OW  134   0.991   0.410   1.242
   44SOL    HW1  135   0.914   0.444   1.296
   44SOL    HW2  136   0.957   0.359   1.163
   45SOL     OW  137   1.041   0.701   0.429
   45SOL    HW1  138   1.067   0.697   0.525
   45SOL    HW2  139   0.956   0.650   0.415
   46SOL     OW  140   0.076   0.811   0.789
   46SOL    HW1  141   0.175   0.799   0.798
   46SOL    HW2  142   0.052   0.906   0.810
   47SOL     OW  143   0.130   1.821   1.571
   47SOL    HW1  144   0.120   1.806   1.670
   47SOL    HW2  145   0.044   1.857   1.535
   48SOL     OW  146   0.865   0.348   0.195
   48SOL    HW1  147   0.924   0.411   0.146
   48SOL    HW2  148   0.884   0.254   0.166
   49SOL     OW  149   1.719   0.585   1.831
   49SOL    HW1  150   1.693   0.674   1.795
   49SOL    HW2  151   1.717   0.517   1.758
   50SOL     OW  152   1.362   1.144   0.545
   50SOL    HW1  153   1.445   1.115   0.497
   50SOL    HW2  154   1.313   1.211   0.489
   51SOL     OW  155   0.550   0.196   0.885
   51SOL    HW1  156   0.545   0.191   0.985
   51SOL    HW2  157   0.552   0.292   0.856
   52SOL     OW  158   1.008   1.456   0.477
   52SOL    HW1  159   0.962   1.528   0.425
   52SOL    HW2  160   1.004   1.476   0.575
   53SOL     OW  161   0.351   1.801   0.853
   53SOL    HW1  162   0.401   1.715   0.859
   53SOL    HW2  163   0.416   1.878   0.850
   54SOL     OW  164   1.795   1.066   0.873
   54SOL    HW1  165   1.733   1.051   0.797
   54SOL    HW2  166   1.743   1.077   0.958
   55SOL     OW  167   1.227   1.550   1.506
   55SOL    HW1  168   1.233   1.473   1.570
   55SOL    HW2  169   1.175   1.524   1.426
   56SOL     OW  170   0.321   0.943   0.242
   56SOL    HW1  171   0.403   0.982   0.200
   56SOL    HW2  172   0.294   0.861   0.193
   57SOL     OW  173   1.458   0.735   0.728
   57SOL    HW1  174   1.453   0.670   0.803
   57SOL    HW2  175   1.538   0.794   0.741
   58SOL     OW  176   0.461   1.266   1.727
   58SOL    HW1  177   0.411   1.267   1.641
   58SOL    HW2  178   0.398   1.248   1.803
   59SOL     OW  179   1.111   1.776   0.237
   59SOL    HW1  180   1.051   1.714   0.287
   59SOL    HW2  181   1.142   1.732   0.152
   60SOL     OW  182   0.202   0.285   1.498
   60SOL    HW1  183   0.122   0.345   1.485
   60SOL    HW2  184   0.192   0.236   1.584
   61SOL     OW  185   1.632   1.377   0.081
   61SOL    HW1  186   1.600   1.471   0.071
   61SOL    HW2  187   1.556   1.314   0.069
   62SOL     OW  188   0.464   1.743   0.323
   62SOL    HW1  189   0.497   1.782   0.409
   62SOL    HW2  190   0.540   1.736   0.258
   63SOL     OW  191   1.400   0.107   0.426
   63SOL    HW1  192   1.376   0.070   0.336
   63SOL    HW2  193   1.499   0.123   0.430
   64SOL     OW  194   0.249   1.785   1.241
   64SOL    HW1  195   0.306   1.720   1.291
   64SOL    HW2  196   0.233   1.752   1.148
   65SOL     OW  197   0.940   1.698   0.904
   65SOL    HW1  198   1.020   1.641   0.925
   65SOL    HW2  199   0.891   1.658   0.827
   66SOL     OW  200   0.382   0.700   0.480
   66SOL    HW1  201   0.427   0.610   0.477
   66SOL    HW2  202   0.288   0.689   0.513
   67SOL     OW  203   1.547   0.222   1.729
   67SOL    HW1  204   1.542   0.259   1.821
   67SOL    HW2  205   1.475   0.153   1.717
   68SOL     OW  206   0.614   0.122   0.117
   68SOL    HW1  207   0.712   0.100   0.124
   68SOL    HW2  208   0.583   0.105   0.024
   69SOL     OW  209   0.781   0.264   1.749
   69SOL    HW1  210   0.848   0.203   1.792
   69SOL    HW2  211   0.708   0.283   1.814
   70SOL     OW  212   0.888   1.514   1.195
   70SOL    HW1  213   0.865   1.489   1.101
   70SOL    HW2  214   0.949   1.445   1.234
   71SOL     OW  215   1.351   0.590   1.433
   71SOL    HW1  216   1.379   0.547   1.518
   71SOL    HW2  217   1.376   0.686   1.434
   72SOL     OW  218   0.803   1.402   0.924
   72SOL    HW1  219   0.893   1.416   0.882
   72SOL    HW2  220   0.732   1.404   0.853
   73SOL     OW  221   0.922   0.503   0.899
   73SOL    HW1  222   0.897   0.494   0.803
   73SOL    HW2  223   0.970   0.421   0.930
   74SOL     OW  224   0.539   0.064   0.512
   74SOL    HW1  225   0.458   0.065   0.570
   74SOL    HW2  226   0.542   0.147   0.457
   75SOL     OW  227   1.434   1.188   0.041
   75SOL    HW1  228   1.466   1.112   0.098
   75SOL    HW2  229   1.342   1.215   0.071
   76SOL     OW  230   0.297   0.035   0.171
   76SOL    HW1  231   0.346   0.119   0.150
   76SOL    HW2  232   0.359  -0.030   0.216
   77SOL     OW  233   0.935   0.236   0.480
   77SOL    HW1  234   0.887   0.277   0.402
   77SOL    HW2  235   1.034   0.234   0.461
   78SOL     OW  236   1.076   0.683   1.464
   78SOL    HW1  237   0.996   0.622   1.467
   78SOL    HW2  238   1.157   0.630   1.440
   79SOL     OW  239   1.227   1.570   0.793
   79SOL    HW1  240   1.248   1.644   0.728
   79SOL    HW2  241   1.295   1.570   0.866
   80SOL     OW  242   0.459   1.152   0.741
   80SOL    HW1  243   0.388   1.125   0.806
   80SOL    HW2  244   0.433   1.124   0.648
   81SOL     OW  245   1.271   1.797   0.591
   81SOL    HW1  246   1.315   1.861   0.527
   81SOL    HW2  247   1.221   1.849   0.661
   82SOL     OW  248   1.032   0.549   0.016
   82SOL    HW1  249   0.991   0.631  -0.023
   82SOL    HW2  250   1.096   0.575   0.089
   83SOL     OW  251   0.078   0.556   1.386
   83SOL    HW1  252   0.170   0.555   1.345
   83SOL    HW2  253   0.072   0.630   1.453
   84SOL     OW  254   0.561   0.222   1.147
   84SOL    HW1  255   0.599   0.138   1.184
   84SOL    HW2  256   0.473   0.241   1.191
   85SOL     OW  257   0.866   0.454   0.642
   85SOL    HW1  258   0.834   0.526   0.580
   85SOL    HW2  259   0.890   0.373   0.589
   86SOL     OW  260   1.017   0.039   0.753
   86SOL    HW1  261   0.945   0.044   0.684
   86SOL    HW2  262   0.993  -0.030   0.822
   87SOL     OW  263   1.429   1.173   0.867
   87SOL    HW1  264   1.374   1.089   0.860
   87SOL    HW2  265   1.455   1.202   0.775
   88SOL     OW  266   1.466   0.590   0.992
   88SOL    HW1  267   1.436   0.495   0.999
   88SOL    HW2  268   1.539   0.606   1.058
   89SOL     OW  269   1.857   0.833   0.377
   89SOL    HW1  270   1.899   0.769   0.441
   89SOL    HW2  271   1.819   0.782   0.299
   90SOL     OW  272   0.488   1.385   0.174
   90SOL    HW1  273   0.401   1.370   0.221
   90SOL    HW2  274   0.471   1.411   0.079
   91SOL     OW  275   1.664   1.280   0.657
   91SOL    HW1  276   1.763   1.288   0.671
   91SOL    HW2  277   1.619   1.364   0.688
   92SOL     OW  278   1.390   0.575   0.078
   92SOL    HW1  279   1.336   0.554   0.159
   92SOL    HW2  280   1.481   0.534   0.087
   93SOL     OW  281   0.527   0.256   0.328
   93SOL    HW1  282   0.554   0.197   0.253
   93SOL    HW2  283   0.527   0.351   0.297
   94SOL     OW  284   1.754   1.223   1.588
   94SOL    HW1  285   1.845   1.184   1.575
   94SOL    HW2  286   1.762   1.319   1.612
   95SOL     OW  287   1.064   1.347   1.340
   95SOL    HW1  288   0.984   1.324   1.395
   95SOL    HW2  289   1.147   1.321   1.389
   96SOL     OW  290   1.592   1.629   1.625
   96SOL    HW1  291   1.619   1.663   1.535
   96SOL    HW2  292   1.671   1.591   1.671
   97SOL     OW  293   1.638   1.099   1.079
   97SOL    HW1  294   1.643   1.180   1.138
   97SOL    HW2  295   1.552   1.101   1.028
   98SOL     OW  296   0.915   0.089   1.402
   98SOL    HW1  297   0.940   0.069   1.307
   98SOL    HW2  298   0.987   0.145   1.444
   99SOL     OW  299   0.980   1.116   1.719
   99SOL    HW1  300   0.881   1.122   1.729
   99SOL    HW2  301   1.003   1.036   1.663
  100SOL     OW  302   0.705   1.050   0.368
  100SOL    HW1  303   0.691   1.057   0.467
  100SOL    HW2  304   0.789   0.999   0.350
  101SOL     OW  305   0.410   0.813   1.251
  101SOL    HW1  306   0.496   0.825   1.301
  101SOL    HW2  307   0.368   0.726   1.278
  102SOL     OW  308   1.274   0.386   1.262
  102SOL    HW1  309   1.295   0.460   1.326
  102SOL    HW2  310   1.185   0.403   1.219
  103SOL     OW  311   0.064   1.564   1.331
  103SOL    HW1  312   0.018   1.646   1.297
  103SOL    HW2  313   0.162   1.583   1.340
  104SOL     OW  314   0.367   1.100   0.501
  104SOL    HW1  315   0.360   1.183   0.445
  104SOL    HW2  316   0.371   1.020   0.441
  105SOL     OW  317   0.566   0.537   0.865
  105SOL    HW1  318   0.578   0.603   0.791
  105SOL    HW2  319   0.612   0.571   0.948
  106SOL     OW  320   1.252   1.348   0.388
  106SOL    HW1  321   1.302   1.425   0.428
  106SOL    HW2  322   1.157   1.350   0.420
  107SOL     OW  323   1.582   0.639   0.472
  107SOL    HW1  324   1.551   0.700   0.545
  107SOL    HW2  325   1.632   0.691   0.403
  108SOL     OW  326   0.354   1.510   1.329
  108SOL    HW1  327   0.333   1.466   1.242
  108SOL    HW2  328   0.451   1.536   1.332
  109SOL     OW  329   0.402   0.751   1.598
  109SOL    HW1  330   0.470   0.806   1.551
  109SOL    HW2  331   0.442   0.663   1.625
  110SOL     OW  332   1.587   0.779   1.670
  110SOL    HW1  333   1.495   0.817   1.665
  110SOL    HW2  334   1.647   0.826   1.605
  111SOL     OW  335   1.013   0.105   1.770
  111SOL    HW1  336   1.019   0.190   1.718
  111SOL    HW2  337   1.045   0.029   1.713
  112SOL     OW  338   0.504   0.050   1.740
  112SOL    HW1  339   0.462  -0.007   1.670
  112SOL    HW2  340   0.438   0.119   1.772
  113SOL     OW  341   0.573   0.870   1.029
  113SOL    HW1  342   0.617   0.959   1.020
  113SOL    HW2  343   0.510   0.870   1.106
  114SOL     OW  344   1.360   0.862   1.045
  114SOL    HW1  345   1.285   0.862   0.979
  114SOL    HW2  346   1.397   0.770   1.054
  115SOL     OW  347   1.209   0.525   0.275
  115SOL    HW1  348   1.222   0.441   0.329
  115SOL    HW2  349   1.180   0.599   0.335
  116SOL     OW  350   0.307   0.213   1.231
  116SOL    HW1  351   0.284   0.250   1.321
  116SOL    HW2  352   0.277   0.118   1.225
  117SOL     OW  353   0.037   1.310   1.282
  117SOL    HW1  354   0.090   1.261   1.350
  117SOL    HW2  355   0.059   1.408   1.287
  118SOL     OW  356   0.732   0.634   1.064
  118SOL    HW1  357   0.791   0.608   0.988
  118SOL    HW2  358   0.704   0.730   1.053
  119SOL     OW  359   1.728   0.935   1.854
  119SOL    HW1  360   1.682   0.928   1.765
  119SOL    HW2  361   1.666   0.979   1.920
  120SOL     OW  362   0.307   0.063   0.618
  120SOL    HW1  363   0.296   0.157   0.651
  120SOL    HW2  364   0.302   0.000   0.695
  121SOL     OW  365   1.622   0.367   0.374
  121SOL    HW1  366   1.624   0.291   0.438
  121SOL    HW2  367   1.574   0.444   0.414
  122SOL     OW  368   1.023   0.766   0.966
  122SOL    HW1  369   1.038   0.787   1.062
  122SOL    HW2  370   0.993   0.671   0.957
  123SOL     OW  371   0.980   1.573   1.700
  123SOL    HW1  372   0.960   1.617   1.612
  123SOL    HW2  373   1.019   1.482   1.684
  124SOL     OW  374   1.859   1.518   1.605
  124SOL    HW1  375   1.873   1.545   1.510
  124SOL    HW2  376   1.942   1.540   1.658
  125SOL     OW  377   0.350   0.898   1.804
  125SOL    HW1  378   0.426   0.942   1.852
  125SOL    HW2  379   0.385   0.851   1.722
  126SOL     OW  380   1.540   0.274   0.125
  126SOL    HW1  381   1.479   0.199   0.148
  126SOL    HW2  382   1.562   0.326   0.208
  127SOL     OW  383   1.303   0.838   0.042
  127SOL    HW1  384   1.337   0.745   0.057
  127SOL    HW2  385   1.321   0.865  -0.053
  128SOL     OW  386   1.068   1.333   0.849
  128SOL    HW1  387   1.075   1.249   0.794
  128SOL    HW2  388   1.130   1.402   0.813
  129SOL     OW  389   0.319   0.810   0.949
  129SOL    HW1  390   0.412   0.846   0.954
  129SOL    HW2  391   0.313   0.725   1.001
  130SOL     OW  392   0.339   0.509   1.006
  130SOL    HW1  393   0.287   0.426   0.989
  130SOL    HW2  394   0.416   0.514   0.942
  131SOL     OW  395   1.138   0.380   1.678
  131SOL    HW1  396   1.093   0.443   1.742
  131SOL    HW2  397   1.231   0.411   1.661
  132SOL     OW  398   1.160   0.207   1.477
  132SOL    HW1  399   1.160   0.271   1.554
  132SOL    HW2  400   1.188   0.255   1.394
  133SOL     OW  401   0.008   1.326   0.200
  133SOL    HW1  402  -0.085   1.347   0.169
  133SOL    HW2  403   0.018   1.227   0.213
  134SOL     OW  404   0.088   1.801   0.927
  134SOL    HW1  405   0.046   1.715   0.900
  134SOL    HW2  406   0.182   1.804   0.893
  135SOL     OW  407   0.504   1.568   0.910
  135SOL    HW1  408   0.570   1.642   0.919
  135SOL    HW2  409   0.548   1.489   0.868
  136SOL     OW  410   1.002   0.796   1.238
  136SOL    HW1  411   1.043   0.764   1.324
  136SOL    HW2  412   0.906   0.769   1.235
  137SOL     OW  413   0.040   0.544   1.114
  137SOL    HW1  414   0.125   0.511   1.073
  137SOL    HW2  415   0.053   0.559   1.212
  138SOL     OW  416   0.189   0.520   1.722
  138SOL    HW1  417   0.248   0.480   1.652
  138SOL    HW2  418   0.131   0.591   1.681
  139SOL     OW  419   1.369   0.950   1.660
  139SOL    HW1  420   1.408   1.039   1.680
  139SOL    HW2  421   1.379   0.930   1.563
  140SOL     OW  422   0.815   0.572   0.325
  140SOL    HW1  423   0.822   0.483   0.279
  140SOL    HW2  424   0.721   0.606   0.317
  141SOL     OW  425   1.657   0.604   1.206
  141SOL    HW1  426   1.619   0.535   1.268
  141SOL    HW2  427   1.739   0.568   1.162
  142SOL     OW  428   0.252   1.564   1.744
  142SOL    HW1  429   0.222   1.621   1.820
  142SOL    HW2  430   0.245   1.467   1.770
  143SOL     OW  431   0.671   0.464   1.269
  143SOL    HW1  432   0.637   0.375   1.239
  143SOL    HW2  433   0.697   0.518   1.189
  144SOL     OW  434   0.930   1.678   1.465
  144SOL    HW1  435   0.906   1.660   1.370
  144SOL    HW2  436   0.960   1.772   1.475
  145SOL     OW  437   0.473   0.500   0.191
  145SOL    HW1  438   0.534   0.580   0.195
  145SOL    HW2  439   0.378   0.531   0.198
  146SOL     OW  440   0.159   1.137   1.466
  146SOL    HW1  441   0.181   1.076   1.542
  146SOL    HW2  442   0.169   1.088   1.380
  147SOL     OW  443   1.302   0.855   0.309
  147SOL    HW1  444   1.216   0.824   0.351
  147SOL    HW2  445   1.298   0.841   0.210
  148SOL     OW  446   1.759   1.747   1.154
  148SOL    HW1  447   1.820   1.777   1.081
  148SOL    HW2  448   1.721   1.658   1.132
  149SOL     OW  449   1.252   1.731   1.128
  149SOL    HW1  450   1.336   1.736   1.074
  149SOL    HW2  451   1.229   1.635   1.146
  150SOL     OW  452   0.083   1.258   1.022
  150SOL    HW1  453   0.078   1.257   1.122
  150SOL    HW2  454   0.000   1.217   0.984
  151SOL     OW  455   0.688   1.662   1.716
  151SOL    HW1  456   0.632   1.743   1.725
  151SOL    HW2  457   0.740   1.666   1.630
  152SOL     OW  458   0.903   0.086   0.133
  152SOL    HW1  459   0.954   0.087   0.047
  152SOL    HW2  460   0.959   0.044   0.204
  153SOL     OW  461   1.726   0.135   0.523
  153SOL    HW1  462   1.799   0.118   0.456
  153SOL    HW2  463   1.695   0.048   0.561
  154SOL     OW  464   1.388   1.573   0.477
  154SOL    HW1  465   1.455   1.585   0.403
  154SOL    HW2  466   1.348   1.662   0.500
  155SOL     OW  467   0.130   1.794   1.851
  155SOL    HW1  468   0.089   1.720   1.904
  155SOL    HW2  469   0.194   1.845   1.909
  156SOL     OW  470   1.280   0.927   0.672
  156SOL    HW1  471   1.340   0.846   0.674
  156SOL    HW2  472   1.320   0.996   0.612
  157SOL     OW  473   0.830   1.273   1.422
  157SOL    HW1  474   0.825   1.306   1.517
  157SOL    HW2  475   0.744   1.292   1.376
  158SOL     OW  476   0.672   1.616   0.154
  158SOL    HW1  477   0.681   1.626   0.055
  158SOL    HW2  478   0.632   1.527   0.175
  159SOL     OW  479   1.650   1.720   1.394
  159SOL    HW1  480   1.703   1.730   1.310
  159SOL    HW2  481   1.623   1.810   1.428
  160SOL     OW  482   1.841   0.175   0.963
  160SOL    HW1  483   1.880   0.090   0.927
  160SOL    HW2  484   1.743   0.177   0.944
  161SOL     OW  485   0.263   0.326   0.720
  161SOL    HW1  486   0.184   0.377   0.686
  161SOL    HW2  487   0.254   0.311   0.818
  162SOL     OW  488   1.194   1.612   0.031
  162SOL    HW1  489   1.200   1.519   0.068
  162SOL    HW2  490   1.135   1.612  -0.049
  163SOL     OW  491   0.822   1.002   1.372
  163SOL    HW1  492   0.862   1.001   1.280
  163SOL    HW2  493   0.832   1.094   1.412
  164SOL     OW  494   0.916   0.910   0.291
  164SOL    HW1  495   0.979   0.948   0.223
  164SOL    HW2  496   0.956   0.827   0.330
  165SOL     OW  497   1.504   1.607   0.044
  165SOL    HW1  498   1.412   1.644   0.051
  165SOL    HW2  499   1.542   1.627  -0.046
  166SOL     OW  500   0.372   1.288   1.490
  166SOL    HW1  501   0.359   1.381   1.456
  166SOL    HW2  502   0.288   1.236   1.477
  167SOL     OW  503   1.614   1.292   1.289
  167SOL    HW1  504   1.674   1.295   1.369
  167SOL    HW2  505   1.539   1.356   1.302
  168SOL     OW  506   1.039   1.098   0.696
  168SOL    HW1  507   0.969   1.051   0.750
  168SOL    HW2  508   1.098   1.030   0.653
  169SOL     OW  509   1.014   0.236   0.971
  169SOL    HW1  510   1.006   0.200   0.878
  169SOL    HW2  511   1.012   0.160   1.036
  170SOL     OW  512   0.590   1.487   0.491
  170SOL    HW1  513   0.632   1.429   0.421
  170SOL    HW2  514   0.546   1.566   0.447
  171SOL     OW  515   1.709   0.385   1.381
  171SOL    HW1  516   1.782   0.454   1.385
  171SOL    HW2  517   1.737   0.310   1.322
  172SOL     OW  518   0.255   1.348   0.290
  172SOL    HW1  519   0.159   1.349   0.263
  172SOL    HW2  520   0.267   1.401   0.374
  173SOL     OW  521   0.105   1.013   1.726
  173SOL    HW1  522   0.028   0.980   1.780
  173SOL    HW2  523   0.190   0.983   1.768
  174SOL     OW  524   0.672   0.203   1.489
  174SOL    HW1  525   0.762   0.187   1.449
  174SOL    HW2  526   0.680   0.208   1.588
  175SOL     OW  527   0.075   0.345   0.033
  175SOL    HW1  528  -0.017   0.317   0.004
  175SOL    HW2  529   0.106   0.422  -0.023
  176SOL     OW  530   1.440   0.856   1.398
  176SOL    HW1  531   1.383   0.908   1.335
  176SOL    HW2  532   1.536   0.868   1.374
  177SOL     OW  533   0.072   0.166   0.318
  177SOL    HW1  534   0.055   0.249   0.264
  177SOL    HW2  535   0.162   0.129   0.296
  178SOL     OW  536   1.183   1.335   0.119
  178SOL    HW1  537   1.084   1.324   0.121
  178SOL    HW2  538   1.217   1.350   0.212
  179SOL     OW  539   0.613   0.842   1.431
  179SOL    HW1  540   0.669   0.923   1.414
  179SOL    HW2  541   0.672   0.762   1.434
  180SOL     OW  542   1.493   1.767   0.959
  180SOL    HW1  543   1.526   1.831   0.890
  180SOL    HW2  544   1.559   1.761   1.034
  181SOL     OW  545   0.716   0.565   1.708
  181SOL    HW1  546   0.735   0.630   1.782
  181SOL    HW2  547   0.776   0.485   1.717
  182SOL     OW  548   1.450   1.220   1.633
  182SOL    HW1  549   1.441   1.210   1.732
  182SOL    HW2  550   1.546   1.213   1.607
  183SOL     OW  551   0.390   1.741   1.560
  183SOL    HW1  552   0.299   1.782   1.558
  183SOL    HW2  553   0.383   1.647   1.592
  184SOL     OW  554   1.674   0.883   1.254
  184SOL    HW1  555   1.647   0.794   1.217
  184SOL    HW2  556   1.675   0.951   1.181
  185SOL     OW  557   1.225   0.325   0.449
  185SOL    HW1  558   1.290   0.251   0.438
  185SOL    HW2  559   1.245   0.375   0.533
  186SOL     OW  560   0.594   0.745   0.652
  186SOL    HW1  561   0.644   0.830   0.633
  186SOL    HW2  562   0.506   0.747   0.604
  187SOL     OW  563   1.777   0.342   1.642
  187SOL    HW1  564   1.760   0.373   1.548
  187SOL    HW2  565   1.693   0.305   1.680
  188SOL     OW  566   1.730   0.934   1.517
  188SOL    HW1  567   1.768   1.025   1.532
  188SOL    HW2  568   1.722   0.917   1.418
  189SOL     OW  569   0.859   1.374   0.016
  189SOL    HW1  570   0.813   1.389   0.104
  189SOL    HW2  571   0.903   1.459  -0.014
  190SOL     OW  572   0.661   1.790   0.953
  190SOL    HW1  573   0.615   1.878   0.940
  190SOL    HW2  574   0.760   1.802   0.946
  191SOL     OW  575   0.859   0.956   0.861
  191SOL    HW1  576   0.913   0.887   0.909
  191SOL    HW2  577   0.827   1.025   0.927
  192SOL     OW  578   1.083   0.984   0.087
  192SOL    HW1  579   1.060   1.037   0.005
  192SOL    HW2  580   1.164   0.928   0.068
  193SOL     OW  581   1.861   1.569   0.851
  193SOL    HW1  582   1.790   1.557   0.781
  193SOL    HW2  583   1.862   1.490   0.911
  194SOL     OW  584   0.221   1.314   1.844
  194SOL    HW1  585   0.156   1.241   1.823
  194SOL    HW2  586   0.225   1.328   1.942
  195SOL     OW  587   0.079   1.240   0.653
  195SOL    HW1  588   0.078   1.193   0.741
  195SOL    HW2  589   0.161   1.212   0.602
  196SOL     OW  590   0.672   1.391   1.624
  196SOL    HW1  591   0.594   1.341   1.662
  196SOL    HW2  592   0.669   1.486   1.655
  197SOL     OW  593   1.824   0.192   1.227
  197SOL    HW1  594   1.820   0.102   1.271
  197SOL    HW2  595   1.827   0.181   1.128
  198SOL     OW  596   0.428   0.424   0.520
  198SOL    HW1  597   0.458   0.352   0.458
  198SOL    HW2  598   0.389   0.384   0.603
  199SOL     OW  599   1.705   1.487   1.104
  199SOL    HW1  600   1.612   1.462   1.077
  199SOL    HW2  601   1.731   1.437   1.186
  200SOL     OW  602   0.317   0.547   1.280
  200SOL    HW1  603   0.355   0.488   1.352
  200SOL    HW2  604   0.357   0.521   1.192
  201SOL     OW  605   0.812   1.586   0.687
  201SOL    HW1  606   0.844   1.596   0.593
  201SOL    HW2  607   0.733   1.524   0.689
  202SOL     OW  608   1.424   0.214   1.112
  202SOL    HW1  609   1.476   0.149   1.167
  202SOL    HW2  610   1.375   0.277   1.173
  203SOL     OW  611   1.001   0.034   1.154
  203SOL    HW1  612   0.938  -0.038   1.123
  203SOL    HW2  613   1.094  -0.002   1.154
  204SOL     OW  614   0.770   1.330   0.301
  204SOL    HW1  615   0.724   1.243   0.318
  204SOL    HW2  616   0.861   1.327   0.342
  205SOL     OW  617   0.618   1.567   1.284
  205SOL    HW1  618   0.613   1.649   1.341
  205SOL    HW2  619   0.707   1.564   1.239
  206SOL     OW  620   1.352   0.052   0.168
  206SOL    HW1  621   1.387   0.011   0.084
  206SOL    HW2  622   1.262   0.014   0.188
  207SOL     OW  623   1.300   0.453   0.691
  207SOL    HW1  624   1.241   0.533   0.695
  207SOL    HW2  625   1.315   0.418   0.784
  208SOL     OW  626   1.593   0.221   0.882
  208SOL    HW1  627   1.509   0.220   0.936
  208SOL    HW2  628   1.595   0.304   0.826
  209SOL     OW  629   0.039   1.077   0.300
  209SOL    HW1  630   0.138   1.066   0.291
  209SOL    HW2  631  -0.001   0.991   0.332
  210SOL     OW  632   0.875   1.646   0.337
  210SOL    HW1  633   0.798   1.611   0.283
  210SOL    HW2  634   0.843   1.717   0.399
  211SOL     OW  635   0.230   0.628   1.975
  211SOL    HW1  636   0.137   0.626   2.012
  211SOL    HW2  637   0.231   0.589   1.883
  212SOL     OW  638   1.755   0.607   2.093
  212SOL    HW1  639   1.743   0.594   1.994
  212SOL    HW2  640   1.725   0.526   2.142
  213SOL     OW  641   0.231   1.713   2.345
  213SOL    HW1  642   0.265   1.790   2.399
  213SOL    HW2  643   0.275   1.713   2.255
  214SOL     OW  644   0.230   1.434   2.400
  214SOL    HW1  645   0.204   1.530   2.400
  214SOL    HW2  646   0.159   1.380   2.445
  215SOL     OW  647   0.606   0.964   1.985
  215SOL    HW1  648   0.613   1.048   1.931
  215SOL    HW2  649   0.652   0.977   2.073
  216SOL     OW  650   1.842   1.767   2.221
  216SOL    HW1  651   1.896   1.738   2.301
  216SOL    HW2  652   1.872   1.857   2.192
  217SOL     OW  653   0.027   1.596   1.979
  217SOL    HW1  654   0.008   1.500   2.000
  217SOL    HW2  655  -0.006   1.654   2.054
  218SOL     OW  656   1.689   0.922   2.474
  218SOL    HW1  657   1.784   0.893   2.482
  218SOL    HW2  658   1.681   0.987   2.399
  219SOL     OW  659   1.641   1.108   2.294
  219SOL    HW1  660   1.727   1.110   2.242
  219SOL    HW2  661   1.655   1.155   2.382
  220SOL     OW  662   0.809   0.004   2.364
  220SOL    HW1  663   0.849   0.095   2.355
  220SOL    HW2  664   0.709   0.012   2.370
  221SOL     OW  665   1.525   0.999   2.052
  221SOL    HW1  666   1.462   0.923   2.065
  221SOL    HW2  667   1.573   1.017   2.138
  222SOL     OW  668   0.598   0.729   2.132
  222SOL    HW1  669   0.622   0.798   2.064
  222SOL    HW2  670   0.520   0.762   2.186
  223SOL     OW  671   1.576   1.662   2.169
  223SOL    HW1  672   1.665   1.708   2.172
  223SOL    HW2  673   1.555   1.638   2.074
  224SOL     OW  674   0.865   0.348   2.057
  224SOL    HW1  675   0.924   0.411   2.008
  224SOL    HW2  676   0.884   0.254   2.028
  225SOL     OW  677   0.321   0.943   2.104
  225SOL    HW1  678   0.403   0.982   2.062
  225SOL    HW2  679   0.294   0.861   2.055
  226SOL     OW  680   1.458   0.735   2.590
  226SOL    HW1  681   1.453   0.670   2.665
  226SOL    HW2  682   1.538   0.794   2.603
  227SOL     OW  683   1.111   1.776   2.099
  227SOL    HW1  684   1.051   1.714   2.149
  227SOL    HW2  685   1.142   1.732   2.014
  228SOL     OW  686   1.632   1.377   1.943
  228SOL    HW1  687   1.600   1.471   1.933
  228SOL    HW2  688   1.556   1.314   1.931
  229SOL     OW  689   0.464   1.743   2.185
  229SOL    HW1  690   0.497   1.782   2.271
  229SOL    HW2  691   0.540   1.736   2.120
  230SOL     OW  692   1.400   0.107   2.288
  230SOL    HW1  693   1.376   0.070   2.198
  230SOL    HW2  694   1.499   0.123   2.292
  231SOL     OW  695   0.614   0.122   1.979
  231SOL    HW1  696   0.712   0.100   1.986
  231SOL    HW2  697   0.583   0.105   1.886
  232SOL     OW  698   1.434   1.188   1.903
  232SOL    HW1  699   1.466   1.112   1.960
  232SOL    HW2  700   1.342   1.215   1.933
  233SOL     OW  701   0.297   0.035   2.033
  233SOL    HW1  702   0.346   0.119   2.012
  233SOL    HW2  703   0.359  -0.030   2.078
  234SOL     OW  704   0.935   0.236   2.342
  234SOL    HW1  705   0.887   0.277   2.264
  234SOL    HW2  706   1.034   0.234   2.323
  235SOL     OW  707   0.459   1.152   2.603
  235SOL    HW1  708   0.388   1.125   2.668
  235SOL    HW2  709   0.433   1.124   2.510
  236SOL     OW  710   1.271   1.797   2.453
  236SOL    HW1  711   1.315   1.861   2.389
  236SOL    HW2  712   1.221   1.849   2.523
  237SOL     OW  713   1.032   0.549   1.878
  237SOL    HW1  714   0.991   0.631   1.839
  237SOL    HW2  715   1.096   0.575   1.951
  238SOL     OW  716   1.429   1.173   2.729
  238SOL    HW1  717   1.374   1.089   2.722
  238SOL    HW2  718   1.455   1.202   2.637
  239SOL     OW  719   1.857   0.833   2.239
  239SOL    HW1  720   1.899   0.769   2.303
  239SOL    HW2  721   1.819   0.782   2.161
  240SOL     OW  722   0.488   1.385   2.036
  240SOL    HW1  723   0.401   1.370   2.083
  240SOL    HW2  724   0.471   1.411   1.941
  241SOL     OW  725   1.390   0.575   1.940
  241SOL    HW1  726   1.336   0.554   2.021
  241SOL    HW2  727   1.481   0.534   1.949
  242SOL     OW  728   0.527   0.256   2.190
  242SOL    HW1  729   0.554   0.197   2.115
  242SOL    HW2  730   0.527   0.351   2.159
  243SOL     OW  731   0.705   1.050   2.230
  243SOL    HW1  732   0.691   1.057   2.329
  243SOL    HW2  733   0.789   0.999   2.212
  244SOL     OW  734   0.367   1.100   2.363
  244SOL    HW1  735   0.360   1.183   2.307
  244SOL    HW2  736   0.371   1.020   2.303
  245SOL     OW  737   1.252   1.348   2.250
  245SOL    HW1  738   1.302   1.425   2.290
  245SOL    HW2  739   1.157   1.350   2.282
  246SOL     OW  740   1.582   0.639   2.334
  246SOL    HW1  741   1.551   0.700   2.407
  246SOL    HW2  742   1.632   0.691   2.265
  247SOL     OW  743   1.209   0.525   2.137
  247SOL    HW1  744   1.222   0.441   2.191
  247SOL    HW2  745   1.180   0.599   2.197
  248SOL     OW  746   1.622   0.367   2.236
  248SOL    HW1  747   1.624   0.291   2.300
  248SOL    HW2  748   1.574   0.444   2.276
  249SOL     OW  749   1.540   0.274   1.987
  249SOL    HW1  750   1.479   0.199   2.010
  249SOL    HW2  751   1.562   0.326   2.070
  250SOL     OW  752   1.303   0.838   1.904
  250SOL    HW1  753   1.337   0.745   1.919
  250SOL    HW2  754   1.321   0.865   1.809
  251SOL     OW  755   0.008   1.326   2.062
  251SOL    HW1  756  -0.085   1.347   2.031
  251SOL    HW2  757   0.018   1.227   2.075
  252SOL     OW  758   0.815   0.572   2.187
  252SOL    HW1  759   0.822   0.483   2.141
  252SOL    HW2  760   0.721   0.606   2.179
  253SOL     OW  761   0.473   0.500   2.053
  253SOL    HW1  762   0.534   0.580   2.057
  253SOL    HW2  763   0.378   0.531   2.060
  254SOL     OW  764   1.302   0.855   2.171
  254SOL    HW1  765   1.216   0.824   2.213
  254SOL    HW2  766   1.298   0.841   2.072
  255SOL     OW  767   1.726   0.135   2.385
  255SOL    HW1  768   1.799   0.118   2.318
  255SOL    HW2  769   1.695   0.048   2.423
  256SOL     OW  770   0.672   1.616   2.016
  256SOL    HW1  771   0.681   1.626   1.917
  256SOL    HW2  772   0.632   1.527   2.037
  257SOL     OW  773   1.194   1.612   1.893
  257SOL    HW1  774   1.200   1.519   1.930
  257SOL    HW2  775   1.135   1.612   1.813
  258SOL     OW  776   0.916   0.910   2.153
  258SOL    HW1  777   0.979   0.948   2.085
  258SOL    HW2  778   0.956   0.827   2.192
  259SOL     OW  779   1.504   1.607   1.906
  259SOL    HW1  780   1.412   1.644   1.913
  259SOL    HW2  781   1.542   1.627   1.816
  260SOL     OW  782   0.590   1.487   2.353
  260SOL    HW1  783   0.632   1.429   2.283
  260SOL    HW2  784   0.546   1.566   2.309
  261SOL     OW  785   0.255   1.348   2.152
  261SOL    HW1  786   0.159   1.349   2.125
  261SOL    HW2  787   0.267   1.401   2.236
  262SOL     OW  788   0.075   0.345   1.895
  262SOL    HW1  789  -0.017   0.317   1.866
  262SOL    HW2  790   0.106   0.422   1.839
  263SOL     OW  791   0.072   0.166   2.180
  263SOL    HW1  792   0.055   0.249   2.126
  263SOL    HW2  793   0.162   0.129   2.158
  264SOL     OW  794   1.183   1.335   1.981
  264SOL    HW1  795   1.084   1.324   1.983
  264SOL    HW2  796   1.217   1.350   2.074
  265SOL     OW  797   1.225   0.325   2.311
  265SOL    HW1  798   1.290   0.251   2.300
  265SOL    HW2  799   1.245   0.375   2.395
  266SOL     OW  800   0.859   1.374   1.878
  266SOL    HW1  801   0.813   1.389   1.966
  266SOL    HW2  802   0.903   1.459   1.848
  267SOL     OW  803   1.083   0.984   1.949
  267SOL    HW1  804   1.060   1.037   1.867
  267SOL    HW2  805   1.164   0.928   1.930
  268SOL     OW  806   0.428   0.424   2.382
  268SOL    HW1  807   0.458   0.352   2.320
  268SOL    HW2  808   0.389   0.384   2.465
  269SOL     OW  809   0.770   1.330   2.163
  269SOL    HW1  810   0.724   1.243   2.180
  269SOL    HW2  811   0.861   1.327   2.204
  270SOL     OW  812   1.352   0.052   2.030
  270SOL    HW1  813   1.387   0.011   1.946
  270SOL    HW2  814   1.262   0.014   2.050
  271SOL     OW  815   0.039   1.077   2.162
  271SOL    HW1  816   0.138   1.066   2.153
  271SOL    HW2  817  -0.001   0.991   2.194
  272SOL     OW  818   0.875   1.646   2.199
  272SOL    HW1  819   0.798   1.611   2.145
  272SOL    HW2  820   0.843   1.717   2.261
  273SOL     OW  821   0.225   2.137   0.996
  273SOL    HW1  822   0.260   2.120   1.088
  273SOL    HW2  823   0.137   2.092   0.984
  274SOL     OW  824   0.019   2.230   0.647
  274SOL    HW1  825  -0.063   2.273   0.686
  274SOL    HW2  826  -0.009   2.157   0.584
  275SOL     OW  827   1.755   2.469   0.231
  275SOL    HW1  828   1.743   2.456   0.132
  275SOL    HW2  829   1.725   2.388   0.280
  276SOL     OW  830   0.438   2.254   1.499
  276SOL    HW1  831   0.520   2.198   1.508
  276SOL    HW2  832   0.357   2.196   1.503
  277SOL     OW  833   1.603   2.309   0.737
  277SOL    HW1  834   1.529   2.355   0.687
  277SOL    HW2  835   1.654   2.377   0.790
  278SOL     OW  836   1.594   1.976   1.480
  278SOL    HW1  837   1.576   2.043   1.408
  278SOL    HW2  838   1.591   2.022   1.569
  279SOL     OW  839   0.122   2.505   0.563
  279SOL    HW1  840   0.077   2.417   0.580
  279SOL    HW2  841   0.121   2.559   0.647
  280SOL     OW  842   0.809   1.866   0.502
  280SOL    HW1  843   0.849   1.957   0.493
  280SOL    HW2  844   0.709   1.874   0.508
  281SOL     OW  845   0.317   2.113   1.801
  281SOL    HW1  846   0.388   2.184   1.807
  281SOL    HW2  847   0.229   2.152   1.829
  282SOL     OW  848   1.281   2.207   0.944
  282SOL    HW1  849   1.195   2.157   0.931
  282SOL    HW2  850   1.343   2.153   1.000
  283SOL     OW  851   1.394   2.331   1.674
  283SOL    HW1  852   1.374   2.374   1.762
  283SOL    HW2  853   1.472   2.269   1.683
  284SOL     OW  854   0.973   2.752   1.572
  284SOL    HW1  855   1.019   2.668   1.543
  284SOL    HW2  856   0.917   2.786   1.497
  285SOL     OW  857   0.991   2.272   1.242
  285SOL    HW1  858   0.914   2.306   1.296
  285SOL    HW2  859   0.957   2.221   1.163
  286SOL     OW  860   0.865   2.210   0.195
  286SOL    HW1  861   0.924   2.273   0.146
  286SOL    HW2  862   0.884   2.116   0.166
  287SOL     OW  863   1.719   2.447   1.831
  287SOL    HW1  864   1.693   2.536   1.795
  287SOL    HW2  865   1.717   2.379   1.758
  288SOL     OW  866   0.550   2.058   0.885
  288SOL    HW1  867   0.545   2.053   0.985
  288SOL    HW2  868   0.552   2.154   0.856
  289SOL     OW  869   0.202   2.147   1.498
  289SOL    HW1  870   0.122   2.207   1.485
  289SOL    HW2  871   0.192   2.098   1.584
  290SOL     OW  872   1.400   1.969   0.426
  290SOL    HW1  873   1.376   1.932   0.336
  290SOL    HW2  874   1.499   1.985   0.430
  291SOL     OW  875   1.547   2.084   1.729
  291SOL    HW1  876   1.542   2.121   1.821
  291SOL    HW2  877   1.475   2.015   1.717
  292SOL     OW  878   0.614   1.984   0.117
  292SOL    HW1  879   0.712   1.962   0.124
  292SOL    HW2  880   0.583   1.967   0.024
  293SOL     OW  881   0.781   2.126   1.749
  293SOL    HW1  882   0.848   2.065   1.792
  293SOL    HW2  883   0.708   2.145   1.814
  294SOL     OW  884   1.351   2.452   1.433
  294SOL    HW1  885   1.379   2.409   1.518
  294SOL    HW2  886   1.376   2.548   1.434
  295SOL     OW  887   0.539   1.926   0.512
  295SOL    HW1  888   0.458   1.927   0.570
  295SOL    HW2  889   0.542   2.009   0.457
  296SOL     OW  890   0.297   1.897   0.171
  296SOL    HW1  891   0.346   1.981   0.150
  296SOL    HW2  892   0.359   1.832   0.216
  297SOL     OW  893   0.935   2.098   0.480
  297SOL    HW1  894   0.887   2.139   0.402
  297SOL    HW2  895   1.034   2.096   0.461
  298SOL     OW  896   0.078   2.418   1.386
  298SOL    HW1  897   0.170   2.417   1.345
  298SOL    HW2  898   0.072   2.492   1.453
  299SOL     OW  899   0.561   2.084   1.147
  299SOL    HW1  900   0.599   2.000   1.184
  299SOL    HW2  901   0.473   2.103   1.191
  300SOL     OW  902   1.017   1.901   0.753
  300SOL    HW1  903   0.945   1.906   0.684
  300SOL    HW2  904   0.993   1.832   0.822
  301SOL     OW  905   1.466   2.452   0.992
  301SOL    HW1  906   1.436   2.357   0.999
  301SOL    HW2  907   1.539   2.468   1.058
  302SOL     OW  908   0.527   2.118   0.328
  302SOL    HW1  909   0.554   2.059   0.253
  302SOL    HW2  910   0.527   2.213   0.297
  303SOL     OW  911   0.915   1.951   1.402
  303SOL    HW1  912   0.940   1.931   1.307
  303SOL    HW2  913   0.987   2.007   1.444
  304SOL     OW  914   1.274   2.248   1.262
  304SOL    HW1  915   1.295   2.322   1.326
  304SOL    HW2  916   1.185   2.265   1.219
  305SOL     OW  917   0.566   2.399   0.865
  305SOL    HW1  918   0.578   2.465   0.791
  305SOL    HW2  919   0.612   2.433   0.948
  306SOL     OW  920   1.013   1.967   1.770
  306SOL    HW1  921   1.019   2.052   1.718
  306SOL    HW2  922   1.045   1.891   1.713
  307SOL     OW  923   0.504   1.912   1.740
  307SOL    HW1  924   0.462   1.855   1.670
  307SOL    HW2  925   0.438   1.981   1.772
  308SOL     OW  926   0.307   2.075   1.231
  308SOL    HW1  927   0.284   2.112   1.321
  308SOL    HW2  928   0.277   1.980   1.225
  309SOL     OW  929   0.732   2.496   1.064
  309SOL    HW1  930   0.791   2.470   0.988
  309SOL    HW2  931   0.704   2.592   1.053
  310SOL     OW  932   0.307   1.925   0.618
  310SOL    HW1  933   0.296   2.019   0.651
  310SOL    HW2  934   0.302   1.862   0.695
  311SOL     OW  935   1.622   2.229   0.374
  311SOL    HW1  936   1.624   2.153   0.438
  311SOL    HW2  937   1.574   2.306   0.414
  312SOL     OW  938   1.540   2.136   0.125
  312SOL    HW1  939   1.479   2.061   0.148
  312SOL    HW2  940   1.562   2.188   0.208
  313SOL     OW  941   0.339   2.371   1.006
  313SOL    HW1  942   0.287   2.288   0.989
  313SOL    HW2  943   0.416   2.376   0.942
  314SOL     OW  944   1.138   2.242   1.678
  314SOL    HW1  945   1.093   2.305   1.742
  314SOL    HW2  946   1.231   2.273   1.661
  315SOL     OW  947   1.160   2.069   1.477
  315SOL    HW1  948   1.160   2.133   1.554
  315SOL    HW2  949   1.188   2.117   1.394
  316SOL     OW  950   0.040   2.406   1.114
  316SOL    HW1  951   0.125   2.373   1.073
  316SOL    HW2  952   0.053   2.421   1.212
  317SOL     OW  953   0.189   2.382   1.722
  317SOL    HW1  954   0.248   2.342   1.652
  317SOL    HW2  955   0.131   2.453   1.681
  318SOL     OW  956   0.815   2.434   0.325
  318SOL    HW1  957   0.822   2.345   0.279
  318SOL    HW2  958   0.721   2.468   0.317
  319SOL     OW  959   1.657   2.466   1.206
  319SOL    HW1  960   1.619   2.397   1.268
  319SOL    HW2  961   1.739   2.430   1.162
  320SOL     OW  962   0.671   2.326   1.269
  320SOL    HW1  963   0.637   2.237   1.239
  320SOL    HW2  964   0.697   2.380   1.189
  321SOL     OW  965   0.903   1.948   0.133
  321SOL    HW1  966   0.954   1.949   0.047
  321SOL    HW2  967   0.959   1.906   0.204
  322SOL     OW  968   1.726   1.997   0.523
  322SOL    HW1  969   1.799   1.980   0.456
  322SOL    HW2  970   1.695   1.910   0.561
  323SOL     OW  971   1.841   2.037   0.963
  323SOL    HW1  972   1.880   1.952   0.927
  323SOL    HW2  973   1.743   2.039   0.944
  324SOL     OW  974   0.263   2.188   0.720
  324SOL    HW1  975   0.184   2.239   0.686
  324SOL    HW2  976   0.254   2.173   0.818
  325SOL     OW  977   1.014   2.098   0.971
  325SOL    HW1  978   1.006   2.062   0.878
  325SOL    HW2  979   1.012   2.022   1.036
  326SOL     OW  980   1.709   2.247   1.381
  326SOL    HW1  981   1.782   2.316   1.385
  326SOL    HW2  982   1.737   2.172   1.322
  327SOL     OW  983   0.672   2.065   1.489
  327SOL    HW1  984   0.762   2.049   1.449
  327SOL    HW2  985   0.680   2.070   1.588
  328SOL     OW  986   0.075   2.207   0.033
  328SOL    HW1  987  -0.017   2.179   0.004
  328SOL    HW2  988   0.106   2.284  -0.023
  329SOL     OW  989   0.072   2.028   0.318
  329SOL    HW1  990   0.055   2.111   0.264
  329SOL    HW2  991   0.162   1.991   0.296
  330SOL     OW  992   0.716   2.427   1.708
  330SOL    HW1  993   0.735   2.492   1.782
  330SOL    HW2  994   0.776   2.347   1.717
  331SOL     OW  995   1.225   2.187   0.449
  331SOL    HW1  996   1.290   2.113   0.438
  331SOL    HW2  997   1.245   2.237   0.533
  332SOL     OW  998   1.777   2.204   1.642
  332SOL    HW1  999   1.760   2.235   1.548
  332SOL    HW2 1000   1.693   2.167   1.680
  333SOL     OW 1001   1.824   2.054   1.227
  333SOL    HW1 1002   1.820   1.964   1.271
  333SOL    HW2 1003   1.827   2.043   1.128
  334SOL     OW 1004   0.428   2.286   0.520
  334SOL    HW1 1005   0.458   2.214   0.458
  334SOL    HW2 1006   0.389   2.246   0.603
  335SOL     OW 1007   1.424   2.076   1.112
  335SOL    HW1 1008   1.476   2.011   1.167
  335SOL    HW2 1009   1.375   2.139   1.173
  336SOL     OW 1010   1.001   1.896   1.154
  336SOL    HW1 1011   0.938   1.824   1.123
  336SOL    HW2 1012   1.094   1.860   1.154
  337SOL     OW 1013   1.300   2.315   0.691
  337SOL    HW1 1014   1.241   2.395   0.695
  337SOL    HW2 1015   1.315   2.280   0.784
  338SOL     OW 1016   1.593   2.083   0.882
  338SOL    HW1 1017   1.509   2.082   0.936
  338SOL    HW2 1018   1.595   2.166   0.826
  339SOL     OW 1019   1.135   2.565   2.579
  339SOL    HW1 1020   1.192   2.643   2.554
  339SOL    HW2 1021   1.075   2.591   2.655
  340SOL     OW 1022   1.755   2.469   2.093
  340SOL    HW1 1023   1.743   2.456   1.994
  340SOL    HW2 1024   1.725   2.388   2.142
  341SOL     OW 1025   0.122   2.505   2.425
  341SOL    HW1 1026   0.077   2.417   2.442
  341SOL    HW2 1027   0.121   2.559   2.509
  342SOL     OW 1028   0.809   1.866   2.364
  342SOL    HW1 1029   0.849   1.957   2.355
  342SOL    HW2 1030   0.709   1.874   2.370
  343SOL     OW 1031   0.865   2.210   2.057
  343SOL    HW1 1032   0.924   2.273   2.008
  343SOL    HW2 1033   0.884   2.116   2.028
  344SOL     OW 1034   1.400   1.969   2.288
  344SOL    HW1 1035   1.376   1.932   2.198
  344SOL    HW2 1036   1.499   1.985   2.292
  345SOL     OW 1037   0.382   2.562   2.342
  345SOL    HW1 1038   0.427   2.472   2.339
  345SOL    HW2 1039   0.288   2.551   2.375
  346SOL     OW 1040   0.614   1.984   1.979
  346SOL    HW1 1041   0.712   1.962   1.986
  346SOL    HW2 1042   0.583   1.967   1.886
  347SOL     OW 1043   0.297   1.897   2.033
  347SOL    HW1 1044   0.346   1.981   2.012
  347SOL    HW2 1045   0.359   1.832   2.078
  348SOL     OW 1046   0.935   2.098   2.342
  348SOL    HW1 1047   0.887   2.139   2.264
  348SOL    HW2 1048   1.034   2.096   2.323
  349SOL     OW 1049   0.527   2.118   2.190
  349SOL    HW1 1050   0.554   2.059   2.115
  349SOL    HW2 1051   0.527   2.213   2.159
  350SOL     OW 1052   1.622   2.229   2.236
  350SOL    HW1 1053   1.624   2.153   2.300
  350SOL    HW2 1054   1.574   2.306   2.276
  351SOL     OW 1055   1.540   2.136   1.987
  351SOL    HW1 1056   1.479   2.061   2.010
  351SOL    HW2 1057   1.562   2.188   2.070
  352SOL     OW 1058   1.303   2.700   1.904
  352SOL    HW1 1059   1.337   2.607   1.919
  352SOL    HW2 1060   1.321   2.727   1.809
  353SOL     OW 1061   0.815   2.434   2.187
  353SOL    HW1 1062   0.822   2.345   2.141
  353SOL    HW2 1063   0.721   2.468   2.179
  354SOL     OW 1064   1.726   1.997   2.385
  354SOL    HW1 1065   1.799   1.980   2.318
  354SOL    HW2 1066   1.695   1.910   2.423
  355SOL     OW 1067   0.075   2.207   1.895
  355SOL    HW1 1068  -0.017   2.179   1.866
  355SOL    HW2 1069   0.106   2.284   1.839
  356SOL     OW 1070   0.072   2.028   2.180
  356SOL    HW1 1071   0.055   2.111   2.126
  356SOL    HW2 1072   0.162   1.991   2.158
  357SOL     OW 1073   1.225   2.187   2.311
  357SOL    HW1 1074   1.290   2.113   2.300
  357SOL    HW2 1075   1.245   2.237   2.395
  358SOL     OW 1076   0.428   2.286   2.382
  358SOL    HW1 1077   0.458   2.214   2.320
  358SOL    HW2 1078   0.389   2.246   2.465
  359SOL     OW 1079   1.352   1.914   2.030
  359SOL    HW1 1080   1.387   1.873   1.946
  359SOL    HW2 1081   1.262   1.876   2.050
  360SOL     OW 1082   2.092   0.628   0.113
  360SOL    HW1 1083   1.999   0.626   0.150
  360SOL    HW2 1084   2.093   0.589   0.021
  361SOL     OW 1085   2.087   0.275   0.996
  361SOL    HW1 1086   2.122   0.258   1.088
  361SOL    HW2 1087   1.999   0.230   0.984
  362SOL     OW 1088   1.881   0.368   0.647
  362SOL    HW1 1089   1.799   0.411   0.686
  362SOL    HW2 1090   1.853   0.295   0.584
  363SOL     OW 1091   2.197   1.435   1.061
  363SOL    HW1 1092   2.119   1.404   1.008
  363SOL    HW2 1093   2.255   1.493   1.004
  364SOL     OW 1094   2.300   0.392   1.499
  364SOL    HW1 1095   2.382   0.336   1.508
  364SOL    HW2 1096   2.219   0.334   1.503
  365SOL     OW 1097   2.093   1.713   0.483
  365SOL    HW1 1098   2.127   1.790   0.537
  365SOL    HW2 1099   2.137   1.713   0.393
  366SOL     OW 1100   2.092   1.434   0.538
  366SOL    HW1 1101   2.066   1.530   0.538
  366SOL    HW2 1102   2.021   1.380   0.583
  367SOL     OW 1103   2.102   1.091   0.886
  367SOL    HW1 1104   2.116   1.007   0.938
  367SOL    HW2 1105   2.047   1.155   0.941
  368SOL     OW 1106   1.984   0.643   0.563
  368SOL    HW1 1107   1.939   0.555   0.580
  368SOL    HW2 1108   1.983   0.697   0.647
  369SOL     OW 1109   1.889   1.596   0.117
  369SOL    HW1 1110   1.870   1.500   0.138
  369SOL    HW2 1111   1.856   1.654   0.192
  370SOL     OW 1112   1.975   0.737   1.597
  370SOL    HW1 1113   2.063   0.724   1.642
  370SOL    HW2 1114   1.962   0.834   1.575
  371SOL     OW 1115   2.059   0.976   1.264
  371SOL    HW1 1116   2.148   0.931   1.250
  371SOL    HW2 1117   1.986   0.911   1.245
  372SOL     OW 1118   2.179   0.251   1.801
  372SOL    HW1 1119   2.250   0.322   1.807
  372SOL    HW2 1120   2.091   0.290   1.829
  373SOL     OW 1121   2.460   0.729   0.270
  373SOL    HW1 1122   2.484   0.798   0.202
  373SOL    HW2 1123   2.382   0.762   0.324
  374SOL     OW 1124   1.938   0.811   0.789
  374SOL    HW1 1125   2.037   0.799   0.798
  374SOL    HW2 1126   1.914   0.906   0.810
  375SOL     OW 1127   1.992   1.821   1.571
  375SOL    HW1 1128   1.982   1.806   1.670
  375SOL    HW2 1129   1.906   1.857   1.535
  376SOL     OW 1130   2.412   0.196   0.885
  376SOL    HW1 1131   2.407   0.191   0.985
  376SOL    HW2 1132   2.414   0.292   0.856
  377SOL     OW 1133   2.213   1.801   0.853
  377SOL    HW1 1134   2.263   1.715   0.859
  377SOL    HW2 1135   2.278   1.878   0.850
  378SOL     OW 1136   2.183   0.943   0.242
  378SOL    HW1 1137   2.265   0.982   0.200
  378SOL    HW2 1138   2.156   0.861   0.193
  379SOL     OW 1139   2.323   1.266   1.727
  379SOL    HW1 1140   2.273   1.267   1.641
  379SOL    HW2 1141   2.260   1.248   1.803
  380SOL     OW 1142   2.064   0.285   1.498
  380SOL    HW1 1143   1.984   0.345   1.485
  380SOL    HW2 1144   2.054   0.236   1.584
  381SOL     OW 1145   2.111   1.785   1.241
  381SOL    HW1 1146   2.168   1.720   1.291
  381SOL    HW2 1147   2.095   1.752   1.148
  382SOL     OW 1148   2.244   0.700   0.480
  382SOL    HW1 1149   2.289   0.610   0.477
  382SOL    HW2 1150   2.150   0.689   0.513
  383SOL     OW 1151   2.159   0.035   0.171
  383SOL    HW1 1152   2.208   0.119   0.150
  383SOL    HW2 1153   2.221  -0.030   0.216
  384SOL     OW 1154   2.321   1.152   0.741
  384SOL    HW1 1155   2.250   1.125   0.806
  384SOL    HW2 1156   2.295   1.124   0.648
  385SOL     OW 1157   1.940   0.556   1.386
  385SOL    HW1 1158   2.032   0.555   1.345
  385SOL    HW2 1159   1.934   0.630   1.453
  386SOL     OW 1160   2.423   0.222   1.147
  386SOL    HW1 1161   2.461   0.138   1.184
  386SOL    HW2 1162   2.335   0.241   1.191
  387SOL     OW 1163   2.272   0.813   1.251
  387SOL    HW1 1164   2.358   0.825   1.301
  387SOL    HW2 1165   2.230   0.726   1.278
  388SOL     OW 1166   1.926   1.564   1.331
  388SOL    HW1 1167   1.880   1.646   1.297
  388SOL    HW2 1168   2.024   1.583   1.340
  389SOL     OW 1169   2.229   1.100   0.501
  389SOL    HW1 1170   2.222   1.183   0.445
  389SOL    HW2 1171   2.233   1.020   0.441
  390SOL     OW 1172   2.428   0.537   0.865
  390SOL    HW1 1173   2.440   0.603   0.791
  390SOL    HW2 1174   2.474   0.571   0.948
  391SOL     OW 1175   2.216   1.510   1.329
  391SOL    HW1 1176   2.195   1.466   1.242
  391SOL    HW2 1177   2.313   1.536   1.332
  392SOL     OW 1178   2.264   0.751   1.598
  392SOL    HW1 1179   2.332   0.806   1.551
  392SOL    HW2 1180   2.304   0.663   1.625
  393SOL     OW 1181   2.366   0.050   1.740
  393SOL    HW1 1182   2.324  -0.007   1.670
  393SOL    HW2 1183   2.300   0.119   1.772
  394SOL     OW 1184   2.435   0.870   1.029
  394SOL    HW1 1185   2.479   0.959   1.020
  394SOL    HW2 1186   2.372   0.870   1.106
  395SOL     OW 1187   2.169   0.213   1.231
  395SOL    HW1 1188   2.146   0.250   1.321
  395SOL    HW2 1189   2.139   0.118   1.225
  396SOL     OW 1190   1.899   1.310   1.282
  396SOL    HW1 1191   1.952   1.261   1.350
  396SOL    HW2 1192   1.921   1.408   1.287
  397SOL     OW 1193   2.169   0.063   0.618
  397SOL    HW1 1194   2.158   0.157   0.651
  397SOL    HW2 1195   2.164   0.000   0.695
  398SOL     OW 1196   2.212   0.898   1.804
  398SOL    HW1 1197   2.288   0.942   1.852
  398SOL    HW2 1198   2.247   0.851   1.722
  399SOL     OW 1199   2.181   0.810   0.949
  399SOL    HW1 1200   2.274   0.846   0.954
  399SOL    HW2 1201   2.175   0.725   1.001
  400SOL     OW 1202   2.201   0.509   1.006
  400SOL    HW1 1203   2.149   0.426   0.989
  400SOL    HW2 1204   2.278   0.514   0.942
  401SOL     OW 1205   1.870   1.326   0.200
  401SOL    HW1 1206   1.777   1.347   0.169
  401SOL    HW2 1207   1.880   1.227   0.213
  402SOL     OW 1208   1.950   1.801   0.927
  402SOL    HW1 1209   1.908   1.715   0.900
  402SOL    HW2 1210   2.044   1.804   0.893
  403SOL     OW 1211   1.902   0.544   1.114
  403SOL    HW1 1212   1.987   0.511   1.073
  403SOL    HW2 1213   1.915   0.559   1.212
  404SOL     OW 1214   2.051   0.520   1.722
  404SOL    HW1 1215   2.110   0.480   1.652
  404SOL    HW2 1216   1.993   0.591   1.681
  405SOL     OW 1217   2.677   0.572   0.325
  405SOL    HW1 1218   2.684   0.483   0.279
  405SOL    HW2 1219   2.583   0.606   0.317
  406SOL     OW 1220   2.114   1.564   1.744
  406SOL    HW1 1221   2.084   1.621   1.820
  406SOL    HW2 1222   2.107   1.467   1.770
  407SOL     OW 1223   2.335   0.500   0.191
  407SOL    HW1 1224   2.396   0.580   0.195
  407SOL    HW2 1225   2.240   0.531   0.198
  408SOL     OW 1226   2.021   1.137   1.466
  408SOL    HW1 1227   2.043   1.076   1.542
  408SOL    HW2 1228   2.031   1.088   1.380
  409SOL     OW 1229   1.945   1.258   1.022
  409SOL    HW1 1230   1.940   1.257   1.122
  409SOL    HW2 1231   1.862   1.217   0.984
  410SOL     OW 1232   1.992   1.794   1.851
  410SOL    HW1 1233   1.951   1.720   1.904
  410SOL    HW2 1234   2.056   1.845   1.909
  411SOL     OW 1235   2.125   0.326   0.720
  411SOL    HW1 1236   2.046   0.377   0.686
  411SOL    HW2 1237   2.116   0.311   0.818
  412SOL     OW 1238   2.234   1.288   1.490
  412SOL    HW1 1239   2.221   1.381   1.456
  412SOL    HW2 1240   2.150   1.236   1.477
  413SOL     OW 1241   2.452   1.487   0.491
  413SOL    HW1 1242   2.494   1.429   0.421
  413SOL    HW2 1243   2.408   1.566   0.447
  414SOL     OW 1244   2.117   1.348   0.290
  414SOL    HW1 1245   2.021   1.349   0.263
  414SOL    HW2 1246   2.129   1.401   0.374
  415SOL     OW 1247   1.967   1.013   1.726
  415SOL    HW1 1248   1.890   0.980   1.780
  415SOL    HW2 1249   2.052   0.983   1.768
  416SOL     OW 1250   1.937   0.345   0.033
  416SOL    HW1 1251   1.845   0.317   0.004
  416SOL    HW2 1252   1.968   0.422  -0.023
  417SOL     OW 1253   1.934   0.166   0.318
  417SOL    HW1 1254   1.917   0.249   0.264
  417SOL    HW2 1255   2.024   0.129   0.296
  418SOL     OW 1256   2.252   1.741   1.560
  418SOL    HW1 1257   2.161   1.782   1.558
  418SOL    HW2 1258   2.245   1.647   1.592
  419SOL     OW 1259   2.083   1.314   1.844
  419SOL    HW1 1260   2.018   1.241   1.823
  419SOL    HW2 1261   2.087   1.328   1.942
  420SOL     OW 1262   1.941   1.240   0.653
  420SOL    HW1 1263   1.940   1.193   0.741
  420SOL    HW2 1264   2.023   1.212   0.602
  421SOL     OW 1265   2.534   1.391   1.624
  421SOL    HW1 1266   2.456   1.341   1.662
  421SOL    HW2 1267   2.531   1.486   1.655
  422SOL     OW 1268   2.290   0.424   0.520
  422SOL    HW1 1269   2.320   0.352   0.458
  422SOL    HW2 1270   2.251   0.384   0.603
  423SOL     OW 1271   2.179   0.547   1.280
  423SOL    HW1 1272   2.217   0.488   1.352
  423SOL    HW2 1273   2.219   0.521   1.192
  424SOL     OW 1274   1.901   1.077   0.300
  424SOL    HW1 1275   2.000   1.066   0.291
  424SOL    HW2 1276   1.861   0.991   0.332
  425SOL     OW 1277   2.092   0.628   1.975
  425SOL    HW1 1278   1.999   0.626   2.012
  425SOL    HW2 1279   2.093   0.589   1.883
  426SOL     OW 1280   2.547   1.012   2.527
  426SOL    HW1 1281   2.616   0.996   2.597
  426SOL    HW2 1282   2.474   1.069   2.565
  427SOL     OW 1283   2.093   1.713   2.345
  427SOL    HW1 1284   2.127   1.790   2.399
  427SOL    HW2 1285   2.137   1.713   2.255
  428SOL     OW 1286   2.092   1.434   2.400
  428SOL    HW1 1287   2.066   1.530   2.400
  428SOL    HW2 1288   2.021   1.380   2.445
  429SOL     OW 1289   1.889   1.596   1.979
  429SOL    HW1 1290   1.870   1.500   2.000
  429SOL    HW2 1291   1.856   1.654   2.054
  430SOL     OW 1292   2.460   0.729   2.132
  430SOL    HW1 1293   2.484   0.798   2.064
  430SOL    HW2 1294   2.382   0.762   2.186
  431SOL     OW 1295   2.183   0.943   2.104
  431SOL    HW1 1296   2.265   0.982   2.062
  431SOL    HW2 1297   2.156   0.861   2.055
  432SOL     OW 1298   2.476   0.122   1.979
  432SOL    HW1 1299   2.574   0.100   1.986
  432SOL    HW2 1300   2.445   0.105   1.886
  433SOL     OW 1301   2.159   0.035   2.033
  433SOL    HW1 1302   2.208   0.119   2.012
  433SOL    HW2 1303   2.221  -0.030   2.078
  434SOL     OW 1304   2.229   1.100   2.363
  434SOL    HW1 1305   2.222   1.183   2.307
  434SOL    HW2 1306   2.233   1.020   2.303
  435SOL     OW 1307   1.870   1.326   2.062
  435SOL    HW1 1308   1.777   1.347   2.031
  435SOL    HW2 1309   1.880   1.227   2.075
  436SOL     OW 1310   2.677   0.572   2.187
  436SOL    HW1 1311   2.684   0.483   2.141
  436SOL    HW2 1312   2.583   0.606   2.179
  437SOL     OW 1313   2.335   0.500   2.053
  437SOL    HW1 1314   2.396   0.580   2.057
  437SOL    HW2 1315   2.240   0.531   2.060
  438SOL     OW 1316   2.452   1.487   2.353
  438SOL    HW1 1317   2.494   1.429   2.283
  438SOL    HW2 1318   2.408   1.566   2.309
  439SOL     OW 1319   2.117   1.348   2.152
  439SOL    HW1 1320   2.021   1.349   2.125
  439SOL    HW2 1321   2.129   1.401   2.236
  440SOL     OW 1322   1.937   0.345   1.895
  440SOL    HW1 1323   1.845   0.317   1.866
  440SOL    HW2 1324   1.968   0.422   1.839
  441SOL     OW 1325   1.934   0.166   2.180
  441SOL    HW1 1326   1.917   0.249   2.126
  441SOL    HW2 1327   2.024   0.129   2.158
  442SOL     OW 1328   2.290   0.424   2.382
  442SOL    HW1 1329   2.320   0.352   2.320
  442SOL    HW2 1330   2.251   0.384   2.465
  443SOL     OW 1331   1.901   1.077   2.162
  443SOL    HW1 1332   2.000   1.066   2.153
  443SOL    HW2 1333   1.861   0.991   2.194
  444SOL     OW 1334   2.087   2.137   0.996
  444SOL    HW1 1335   2.122   2.120   1.088
  444SOL    HW2 1336   1.999   2.092   0.984
  445SOL     OW 1337   1.881   2.230   0.647
  445SOL    HW1 1338   1.799   2.273   0.686
  445SOL    HW2 1339   1.853   2.157   0.584
  446SOL     OW 1340   2.300   2.254   1.499
  446SOL    HW1 1341   2.382   2.198   1.508
  446SOL    HW2 1342   2.219   2.196   1.503
  447SOL     OW 1343   1.984   2.505   0.563
  447SOL    HW1 1344   1.939   2.417   0.580
  447SOL    HW2 1345   1.983   2.559   0.647
  448SOL     OW 1346   2.179   2.113   1.801
  448SOL    HW1 1347   2.250   2.184   1.807
  448SOL    HW2 1348   2.091   2.152   1.829
  449SOL     OW 1349   2.412   2.058   0.885
  449SOL    HW1 1350   2.407   2.053   0.985
  449SOL    HW2 1351   2.414   2.154   0.856
  450SOL     OW 1352   2.064   2.147   1.498
  450SOL    HW1 1353   1.984   2.207   1.485
  450SOL    HW2 1354   2.054   2.098   1.584
  451SOL     OW 1355   2.476   1.984   0.117
  451SOL    HW1 1356   2.574   1.962   0.124
  451SOL    HW2 1357   2.445   1.967   0.024
  452SOL     OW 1358   2.401   1.926   0.512
  452SOL    HW1 1359   2.320   1.927   0.570
  452SOL    HW2 1360   2.404   2.009   0.457
  453SOL     OW 1361   2.159   1.897   0.171
  453SOL    HW1 1362   2.208   1.981   0.150
  453SOL    HW2 1363   2.221   1.832   0.216
  454SOL     OW 1364   1.940   2.418   1.386
  454SOL    HW1 1365   2.032   2.417   1.345
  454SOL    HW2 1366   1.934   2.492   1.453
  455SOL     OW 1367   2.423   2.084   1.147
  455SOL    HW1 1368   2.461   2.000   1.184
  455SOL    HW2 1369   2.335   2.103   1.191
  456SOL     OW 1370   2.428   2.399   0.865
  456SOL    HW1 1371   2.440   2.465   0.791
  456SOL    HW2 1372   2.474   2.433   0.948
  457SOL     OW 1373   2.366   1.912   1.740
  457SOL    HW1 1374   2.324   1.855   1.670
  457SOL    HW2 1375   2.300   1.981   1.772
  458SOL     OW 1376   2.169   2.075   1.231
  458SOL    HW1 1377   2.146   2.112   1.321
  458SOL    HW2 1378   2.139   1.980   1.225
  459SOL     OW 1379   2.169   1.925   0.618
  459SOL    HW1 1380   2.158   2.019   0.651
  459SOL    HW2 1381   2.164   1.862   0.695
  460SOL     OW 1382   2.201   2.371   1.006
  460SOL    HW1 1383   2.149   2.288   0.989
  460SOL    HW2 1384   2.278   2.376   0.942
  461SOL     OW 1385   1.902   2.406   1.114
  461SOL    HW1 1386   1.987   2.373   1.073
  461SOL    HW2 1387   1.915   2.421   1.212
  462SOL     OW 1388   2.051   2.382   1.722
  462SOL    HW1 1389   2.110   2.342   1.652
  462SOL    HW2 1390   1.993   2.453   1.681
  463SOL     OW 1391   2.125   2.188   0.720
  463SOL    HW1 1392   2.046   2.239   0.686
  463SOL    HW2 1393   2.116   2.173   0.818
  464SOL     OW 1394   1.937   2.207   0.033
  464SOL    HW1 1395   1.845   2.179   0.004
  464SOL    HW2 1396   1.968   2.284  -0.023
  465SOL     OW 1397   1.934   2.028   0.318
  465SOL    HW1 1398   1.917   2.111   0.264
  465SOL    HW2 1399   2.024   1.991   0.296
  466SOL     OW 1400   2.290   2.286   0.520
  466SOL    HW1 1401   2.320   2.214   0.458
  466SOL    HW2 1402   2.251   2.246   0.603
  467SOL     OW 1403   1.984   2.505   2.425
  467SOL    HW1 1404   1.939   2.417   2.442
  467SOL    HW2 1405   1.983   2.559   2.509
  468SOL     OW 1406   2.244   2.562   2.342
  468SOL    HW1 1407   2.289   2.472   2.339
  468SOL    HW2 1408   2.150   2.551   2.375
  469SOL     OW 1409   2.476   1.984   1.979
  469SOL    HW1 1410   2.574   1.962   1.986
  469SOL    HW2 1411   2.445   1.967   1.886
  470SOL     OW 1412   2.159   1.897   2.033
  470SOL    HW1 1413   2.208   1.981   2.012
  470SOL    HW2 1414   2.221   1.832   2.078
  471SOL     OW 1415   2.428   2.399   2.727
  471SOL    HW1 1416   2.440   2.465   2.653
  471SOL    HW2 1417   2.474   2.433   2.810
  472SOL     OW 1418   1.937   2.207   1.895
  472SOL    HW1 1419   1.845   2.179   1.866
  472SOL    HW2 1420   1.968   2.284   1.839
  473SOL     OW 1421   1.934   2.028   2.180
  473SOL    HW1 1422   1.917   2.111   2.126
  473SOL    HW2 1423   2.024   1.991   2.158
  474SOL     OW 1424   2.290   2.286   2.382
  474SOL    HW1 1425   2.320   2.214   2.320
  474SOL    HW2 1426   2.251   2.246   2.465
   2.42486   2.42486   2.42486
