; mobley_2197088_GMX.itp created by acpype (v: 2023.10.27) on Thu May 14 13:37:26 2026

[ atomtypes ]
;name   bond_type     mass     charge   ptype   sigma         epsilon       Amb
 c3       c3          0.00000  0.00000   A     3.39771e-01   4.51035e-01 ; 1.91  0.1078
 hc       hc          0.00000  0.00000   A     2.60018e-01   8.70272e-02 ; 1.46  0.0208

[ moleculetype ]
;name            nrexcl
 mobley_2197088   3

[ atoms ]
;   nr  type  resi  res  atom  cgnr     charge      mass       ; qtot   bond_type
     1   c3     1   MOL    C1    1    -0.095100     12.01000 ; qtot -0.095
     2   c3     1   MOL    C2    2    -0.095100     12.01000 ; qtot -0.190
     3   c3     1   MOL    C3    3    -0.080400     12.01000 ; qtot -0.271
     4   c3     1   MOL    C4    4    -0.080400     12.01000 ; qtot -0.351
     5   c3     1   MOL    C5    5    -0.079400     12.01000 ; qtot -0.430
     6   c3     1   MOL    C6    6    -0.079400     12.01000 ; qtot -0.510
     7   c3     1   MOL    C7    7    -0.079400     12.01000 ; qtot -0.589
     8   c3     1   MOL    C8    8    -0.079400     12.01000 ; qtot -0.669
     9   c3     1   MOL    C9    9    -0.079400     12.01000 ; qtot -0.748
    10   c3     1   MOL   C10   10    -0.079400     12.01000 ; qtot -0.827
    11   hc     1   MOL    H1   11     0.032700      1.00800 ; qtot -0.795
    12   hc     1   MOL    H2   12     0.032700      1.00800 ; qtot -0.762
    13   hc     1   MOL    H3   13     0.032700      1.00800 ; qtot -0.729
    14   hc     1   MOL    H4   14     0.032700      1.00800 ; qtot -0.697
    15   hc     1   MOL    H5   15     0.032700      1.00800 ; qtot -0.664
    16   hc     1   MOL    H6   16     0.032700      1.00800 ; qtot -0.631
    17   hc     1   MOL    H7   17     0.038700      1.00800 ; qtot -0.593
    18   hc     1   MOL    H8   18     0.038700      1.00800 ; qtot -0.554
    19   hc     1   MOL    H9   19     0.038700      1.00800 ; qtot -0.515
    20   hc     1   MOL   H10   20     0.038700      1.00800 ; qtot -0.476
    21   hc     1   MOL   H11   21     0.039700      1.00800 ; qtot -0.437
    22   hc     1   MOL   H12   22     0.039700      1.00800 ; qtot -0.397
    23   hc     1   MOL   H13   23     0.039700      1.00800 ; qtot -0.357
    24   hc     1   MOL   H14   24     0.039700      1.00800 ; qtot -0.318
    25   hc     1   MOL   H15   25     0.039700      1.00800 ; qtot -0.278
    26   hc     1   MOL   H16   26     0.039700      1.00800 ; qtot -0.238
    27   hc     1   MOL   H17   27     0.039700      1.00800 ; qtot -0.199
    28   hc     1   MOL   H18   28     0.039700      1.00800 ; qtot -0.159
    29   hc     1   MOL   H19   29     0.039700      1.00800 ; qtot -0.119
    30   hc     1   MOL   H20   30     0.039700      1.00800 ; qtot -0.079
    31   hc     1   MOL   H21   31     0.039700      1.00800 ; qtot -0.040
    32   hc     1   MOL   H22   32     0.039700      1.00800 ; qtot -0.000

[ bonds ]
;   ai     aj funct   r             k
     1      3   1    1.5354e-01    1.9154e+05 ;     C1 - C3    
     1     11   1    1.0962e-01    2.8891e+05 ;     C1 - H1    
     1     12   1    1.0962e-01    2.8891e+05 ;     C1 - H2    
     1     13   1    1.0962e-01    2.8891e+05 ;     C1 - H3    
     2      4   1    1.5354e-01    1.9154e+05 ;     C2 - C4    
     2     14   1    1.0962e-01    2.8891e+05 ;     C2 - H4    
     2     15   1    1.0962e-01    2.8891e+05 ;     C2 - H5    
     2     16   1    1.0962e-01    2.8891e+05 ;     C2 - H6    
     3      5   1    1.5354e-01    1.9154e+05 ;     C3 - C5    
     3     17   1    1.0962e-01    2.8891e+05 ;     C3 - H7    
     3     18   1    1.0962e-01    2.8891e+05 ;     C3 - H8    
     4      6   1    1.5354e-01    1.9154e+05 ;     C4 - C6    
     4     19   1    1.0962e-01    2.8891e+05 ;     C4 - H9    
     4     20   1    1.0962e-01    2.8891e+05 ;     C4 - H10   
     5      7   1    1.5354e-01    1.9154e+05 ;     C5 - C7    
     5     21   1    1.0962e-01    2.8891e+05 ;     C5 - H11   
     5     22   1    1.0962e-01    2.8891e+05 ;     C5 - H12   
     6      8   1    1.5354e-01    1.9154e+05 ;     C6 - C8    
     6     23   1    1.0962e-01    2.8891e+05 ;     C6 - H13   
     6     24   1    1.0962e-01    2.8891e+05 ;     C6 - H14   
     7      9   1    1.5354e-01    1.9154e+05 ;     C7 - C9    
     7     25   1    1.0962e-01    2.8891e+05 ;     C7 - H15   
     7     26   1    1.0962e-01    2.8891e+05 ;     C7 - H16   
     8     10   1    1.5354e-01    1.9154e+05 ;     C8 - C10   
     8     27   1    1.0962e-01    2.8891e+05 ;     C8 - H17   
     8     28   1    1.0962e-01    2.8891e+05 ;     C8 - H18   
     9     10   1    1.5354e-01    1.9154e+05 ;     C9 - C10   
     9     29   1    1.0962e-01    2.8891e+05 ;     C9 - H19   
     9     30   1    1.0962e-01    2.8891e+05 ;     C9 - H20   
    10     31   1    1.0962e-01    2.8891e+05 ;    C10 - H21   
    10     32   1    1.0962e-01    2.8891e+05 ;    C10 - H22   

[ pairs ]
;   ai     aj    funct
     1      7      1 ;     C1 - C7    
     1     21      1 ;     C1 - H11   
     1     22      1 ;     C1 - H12   
     2      8      1 ;     C2 - C8    
     2     23      1 ;     C2 - H13   
     2     24      1 ;     C2 - H14   
     3      9      1 ;     C3 - C9    
     3     25      1 ;     C3 - H15   
     3     26      1 ;     C3 - H16   
     4     10      1 ;     C4 - C10   
     4     27      1 ;     C4 - H17   
     4     28      1 ;     C4 - H18   
     5     10      1 ;     C5 - C10   
     5     29      1 ;     C5 - H19   
     5     30      1 ;     C5 - H20   
     6      9      1 ;     C6 - C9    
     6     14      1 ;     C6 - H4    
     6     15      1 ;     C6 - H5    
     6     16      1 ;     C6 - H6    
     6     31      1 ;     C6 - H21   
     6     32      1 ;     C6 - H22   
     7      8      1 ;     C7 - C8    
     7     17      1 ;     C7 - H7    
     7     18      1 ;     C7 - H8    
     7     31      1 ;     C7 - H21   
     7     32      1 ;     C7 - H22   
     8     19      1 ;     C8 - H9    
     8     20      1 ;     C8 - H10   
     8     29      1 ;     C8 - H19   
     8     30      1 ;     C8 - H20   
     9     21      1 ;     C9 - H11   
     9     22      1 ;     C9 - H12   
     9     27      1 ;     C9 - H17   
     9     28      1 ;     C9 - H18   
    10     23      1 ;    C10 - H13   
    10     24      1 ;    C10 - H14   
    10     25      1 ;    C10 - H15   
    10     26      1 ;    C10 - H16   
    11      5      1 ;     H1 - C5    
    11     17      1 ;     H1 - H7    
    11     18      1 ;     H1 - H8    
    12      5      1 ;     H2 - C5    
    12     17      1 ;     H2 - H7    
    12     18      1 ;     H2 - H8    
    13      5      1 ;     H3 - C5    
    13     17      1 ;     H3 - H7    
    13     18      1 ;     H3 - H8    
    14     19      1 ;     H4 - H9    
    14     20      1 ;     H4 - H10   
    15     19      1 ;     H5 - H9    
    15     20      1 ;     H5 - H10   
    16     19      1 ;     H6 - H9    
    16     20      1 ;     H6 - H10   
    17     21      1 ;     H7 - H11   
    17     22      1 ;     H7 - H12   
    18     21      1 ;     H8 - H11   
    18     22      1 ;     H8 - H12   
    19     23      1 ;     H9 - H13   
    19     24      1 ;     H9 - H14   
    20     23      1 ;    H10 - H13   
    20     24      1 ;    H10 - H14   
    21     25      1 ;    H11 - H15   
    21     26      1 ;    H11 - H16   
    22     25      1 ;    H12 - H15   
    22     26      1 ;    H12 - H16   
    23     27      1 ;    H13 - H17   
    23     28      1 ;    H13 - H18   
    24     27      1 ;    H14 - H17   
    24     28      1 ;    H14 - H18   
    25     29      1 ;    H15 - H19   
    25     30      1 ;    H15 - H20   
    26     29      1 ;    H16 - H19   
    26     30      1 ;    H16 - H20   
    27     31      1 ;    H17 - H21   
    27     32      1 ;    H17 - H22   
    28     31      1 ;    H18 - H21   
    28     32      1 ;    H18 - H22   
    29     31      1 ;    H19 - H21   
    29     32      1 ;    H19 - H22   
    30     31      1 ;    H20 - H21   
    30     32      1 ;    H20 - H22   

[ angles ]
;   ai     aj     ak    funct   theta         cth
     1      3      5      1    1.1263e+02    5.0099e+02 ;     C1 - C3     - C5    
     1      3     17      1    1.0968e+02    3.6208e+02 ;     C1 - C3     - H7    
     1      3     18      1    1.0968e+02    3.6208e+02 ;     C1 - C3     - H8    
     2      4      6      1    1.1263e+02    5.0099e+02 ;     C2 - C4     - C6    
     2      4     19      1    1.0968e+02    3.6208e+02 ;     C2 - C4     - H9    
     2      4     20      1    1.0968e+02    3.6208e+02 ;     C2 - C4     - H10   
     3      1     11      1    1.0968e+02    3.6208e+02 ;     C3 - C1     - H1    
     3      1     12      1    1.0968e+02    3.6208e+02 ;     C3 - C1     - H2    
     3      1     13      1    1.0968e+02    3.6208e+02 ;     C3 - C1     - H3    
     3      5      7      1    1.1263e+02    5.0099e+02 ;     C3 - C5     - C7    
     3      5     21      1    1.0968e+02    3.6208e+02 ;     C3 - C5     - H11   
     3      5     22      1    1.0968e+02    3.6208e+02 ;     C3 - C5     - H12   
     4      2     14      1    1.0968e+02    3.6208e+02 ;     C4 - C2     - H4    
     4      2     15      1    1.0968e+02    3.6208e+02 ;     C4 - C2     - H5    
     4      2     16      1    1.0968e+02    3.6208e+02 ;     C4 - C2     - H6    
     4      6      8      1    1.1263e+02    5.0099e+02 ;     C4 - C6     - C8    
     4      6     23      1    1.0968e+02    3.6208e+02 ;     C4 - C6     - H13   
     4      6     24      1    1.0968e+02    3.6208e+02 ;     C4 - C6     - H14   
     5      3     17      1    1.0968e+02    3.6208e+02 ;     C5 - C3     - H7    
     5      3     18      1    1.0968e+02    3.6208e+02 ;     C5 - C3     - H8    
     5      7      9      1    1.1263e+02    5.0099e+02 ;     C5 - C7     - C9    
     5      7     25      1    1.0968e+02    3.6208e+02 ;     C5 - C7     - H15   
     5      7     26      1    1.0968e+02    3.6208e+02 ;     C5 - C7     - H16   
     6      4     19      1    1.0968e+02    3.6208e+02 ;     C6 - C4     - H9    
     6      4     20      1    1.0968e+02    3.6208e+02 ;     C6 - C4     - H10   
     6      8     10      1    1.1263e+02    5.0099e+02 ;     C6 - C8     - C10   
     6      8     27      1    1.0968e+02    3.6208e+02 ;     C6 - C8     - H17   
     6      8     28      1    1.0968e+02    3.6208e+02 ;     C6 - C8     - H18   
     7      5     21      1    1.0968e+02    3.6208e+02 ;     C7 - C5     - H11   
     7      5     22      1    1.0968e+02    3.6208e+02 ;     C7 - C5     - H12   
     7      9     10      1    1.1263e+02    5.0099e+02 ;     C7 - C9     - C10   
     7      9     29      1    1.0968e+02    3.6208e+02 ;     C7 - C9     - H19   
     7      9     30      1    1.0968e+02    3.6208e+02 ;     C7 - C9     - H20   
     8      6     23      1    1.0968e+02    3.6208e+02 ;     C8 - C6     - H13   
     8      6     24      1    1.0968e+02    3.6208e+02 ;     C8 - C6     - H14   
     8     10      9      1    1.1263e+02    5.0099e+02 ;     C8 - C10    - C9    
     8     10     31      1    1.0968e+02    3.6208e+02 ;     C8 - C10    - H21   
     8     10     32      1    1.0968e+02    3.6208e+02 ;     C8 - C10    - H22   
     9      7     25      1    1.0968e+02    3.6208e+02 ;     C9 - C7     - H15   
     9      7     26      1    1.0968e+02    3.6208e+02 ;     C9 - C7     - H16   
     9     10     31      1    1.0968e+02    3.6208e+02 ;     C9 - C10    - H21   
     9     10     32      1    1.0968e+02    3.6208e+02 ;     C9 - C10    - H22   
    10      8     27      1    1.0968e+02    3.6208e+02 ;    C10 - C8     - H17   
    10      8     28      1    1.0968e+02    3.6208e+02 ;    C10 - C8     - H18   
    10      9     29      1    1.0968e+02    3.6208e+02 ;    C10 - C9     - H19   
    10      9     30      1    1.0968e+02    3.6208e+02 ;    C10 - C9     - H20   
    11      1     12      1    1.0773e+02    2.9957e+02 ;     H1 - C1     - H2    
    11      1     13      1    1.0773e+02    2.9957e+02 ;     H1 - C1     - H3    
    12      1     13      1    1.0773e+02    2.9957e+02 ;     H2 - C1     - H3    
    14      2     15      1    1.0773e+02    2.9957e+02 ;     H4 - C2     - H5    
    14      2     16      1    1.0773e+02    2.9957e+02 ;     H4 - C2     - H6    
    15      2     16      1    1.0773e+02    2.9957e+02 ;     H5 - C2     - H6    
    17      3     18      1    1.0773e+02    2.9957e+02 ;     H7 - C3     - H8    
    19      4     20      1    1.0773e+02    2.9957e+02 ;     H9 - C4     - H10   
    21      5     22      1    1.0773e+02    2.9957e+02 ;    H11 - C5     - H12   
    23      6     24      1    1.0773e+02    2.9957e+02 ;    H13 - C6     - H14   
    25      7     26      1    1.0773e+02    2.9957e+02 ;    H15 - C7     - H16   
    27      8     28      1    1.0773e+02    2.9957e+02 ;    H17 - C8     - H18   
    29      9     30      1    1.0773e+02    2.9957e+02 ;    H19 - C9     - H20   
    31     10     32      1    1.0773e+02    2.9957e+02 ;    H21 - C10    - H22   

[ dihedrals ] ; propers
; for gromacs 4.5 or higher, using funct 9
;    i      j      k      l   func   phase     kd      pn
     1      3      5      7      9     0.00   2.17568   3 ;     C1-    C3-    C5-    C7
     1      3      5     21      9     0.00   0.54392   3 ;     C1-    C3-    C5-   H11
     1      3      5     22      9     0.00   0.54392   3 ;     C1-    C3-    C5-   H12
     2      4      6      8      9     0.00   2.17568   3 ;     C2-    C4-    C6-    C8
     2      4      6     23      9     0.00   0.54392   3 ;     C2-    C4-    C6-   H13
     2      4      6     24      9     0.00   0.54392   3 ;     C2-    C4-    C6-   H14
     3      5      7      9      9     0.00   2.17568   3 ;     C3-    C5-    C7-    C9
     3      5      7     25      9     0.00   0.54392   3 ;     C3-    C5-    C7-   H15
     3      5      7     26      9     0.00   0.54392   3 ;     C3-    C5-    C7-   H16
     4      6      8     10      9     0.00   2.17568   3 ;     C4-    C6-    C8-   C10
     4      6      8     27      9     0.00   0.54392   3 ;     C4-    C6-    C8-   H17
     4      6      8     28      9     0.00   0.54392   3 ;     C4-    C6-    C8-   H18
     5      7      9     10      9     0.00   2.17568   3 ;     C5-    C7-    C9-   C10
     5      7      9     29      9     0.00   0.54392   3 ;     C5-    C7-    C9-   H19
     5      7      9     30      9     0.00   0.54392   3 ;     C5-    C7-    C9-   H20
     6      4      2     14      9     0.00   0.54392   3 ;     C6-    C4-    C2-    H4
     6      4      2     15      9     0.00   0.54392   3 ;     C6-    C4-    C2-    H5
     6      4      2     16      9     0.00   0.54392   3 ;     C6-    C4-    C2-    H6
     6      8     10      9      9     0.00   2.17568   3 ;     C6-    C8-   C10-    C9
     6      8     10     31      9     0.00   0.54392   3 ;     C6-    C8-   C10-   H21
     6      8     10     32      9     0.00   0.54392   3 ;     C6-    C8-   C10-   H22
     7      5      3     17      9     0.00   0.54392   3 ;     C7-    C5-    C3-    H7
     7      5      3     18      9     0.00   0.54392   3 ;     C7-    C5-    C3-    H8
     7      9     10      8      9     0.00   2.17568   3 ;     C7-    C9-   C10-    C8
     7      9     10     31      9     0.00   0.54392   3 ;     C7-    C9-   C10-   H21
     7      9     10     32      9     0.00   0.54392   3 ;     C7-    C9-   C10-   H22
     8      6      4     19      9     0.00   0.54392   3 ;     C8-    C6-    C4-    H9
     8      6      4     20      9     0.00   0.54392   3 ;     C8-    C6-    C4-   H10
     8     10      9     29      9     0.00   0.54392   3 ;     C8-   C10-    C9-   H19
     8     10      9     30      9     0.00   0.54392   3 ;     C8-   C10-    C9-   H20
     9      7      5     21      9     0.00   0.54392   3 ;     C9-    C7-    C5-   H11
     9      7      5     22      9     0.00   0.54392   3 ;     C9-    C7-    C5-   H12
     9     10      8     27      9     0.00   0.54392   3 ;     C9-   C10-    C8-   H17
     9     10      8     28      9     0.00   0.54392   3 ;     C9-   C10-    C8-   H18
    10      8      6     23      9     0.00   0.54392   3 ;    C10-    C8-    C6-   H13
    10      8      6     24      9     0.00   0.54392   3 ;    C10-    C8-    C6-   H14
    10      9      7     25      9     0.00   0.54392   3 ;    C10-    C9-    C7-   H15
    10      9      7     26      9     0.00   0.54392   3 ;    C10-    C9-    C7-   H16
    11      1      3      5      9     0.00   0.54392   3 ;     H1-    C1-    C3-    C5
    11      1      3     17      9     0.00   0.50208   3 ;     H1-    C1-    C3-    H7
    11      1      3     18      9     0.00   0.50208   3 ;     H1-    C1-    C3-    H8
    12      1      3      5      9     0.00   0.54392   3 ;     H2-    C1-    C3-    C5
    12      1      3     17      9     0.00   0.50208   3 ;     H2-    C1-    C3-    H7
    12      1      3     18      9     0.00   0.50208   3 ;     H2-    C1-    C3-    H8
    13      1      3      5      9     0.00   0.54392   3 ;     H3-    C1-    C3-    C5
    13      1      3     17      9     0.00   0.50208   3 ;     H3-    C1-    C3-    H7
    13      1      3     18      9     0.00   0.50208   3 ;     H3-    C1-    C3-    H8
    14      2      4     19      9     0.00   0.50208   3 ;     H4-    C2-    C4-    H9
    14      2      4     20      9     0.00   0.50208   3 ;     H4-    C2-    C4-   H10
    15      2      4     19      9     0.00   0.50208   3 ;     H5-    C2-    C4-    H9
    15      2      4     20      9     0.00   0.50208   3 ;     H5-    C2-    C4-   H10
    16      2      4     19      9     0.00   0.50208   3 ;     H6-    C2-    C4-    H9
    16      2      4     20      9     0.00   0.50208   3 ;     H6-    C2-    C4-   H10
    17      3      5     21      9     0.00   0.50208   3 ;     H7-    C3-    C5-   H11
    17      3      5     22      9     0.00   0.50208   3 ;     H7-    C3-    C5-   H12
    18      3      5     21      9     0.00   0.50208   3 ;     H8-    C3-    C5-   H11
    18      3      5     22      9     0.00   0.50208   3 ;     H8-    C3-    C5-   H12
    19      4      6     23      9     0.00   0.50208   3 ;     H9-    C4-    C6-   H13
    19      4      6     24      9     0.00   0.50208   3 ;     H9-    C4-    C6-   H14
    20      4      6     23      9     0.00   0.50208   3 ;    H10-    C4-    C6-   H13
    20      4      6     24      9     0.00   0.50208   3 ;    H10-    C4-    C6-   H14
    21      5      7     25      9     0.00   0.50208   3 ;    H11-    C5-    C7-   H15
    21      5      7     26      9     0.00   0.50208   3 ;    H11-    C5-    C7-   H16
    22      5      7     25      9     0.00   0.50208   3 ;    H12-    C5-    C7-   H15
    22      5      7     26      9     0.00   0.50208   3 ;    H12-    C5-    C7-   H16
    23      6      8     27      9     0.00   0.50208   3 ;    H13-    C6-    C8-   H17
    23      6      8     28      9     0.00   0.50208   3 ;    H13-    C6-    C8-   H18
    24      6      8     27      9     0.00   0.50208   3 ;    H14-    C6-    C8-   H17
    24      6      8     28      9     0.00   0.50208   3 ;    H14-    C6-    C8-   H18
    25      7      9     29      9     0.00   0.50208   3 ;    H15-    C7-    C9-   H19
    25      7      9     30      9     0.00   0.50208   3 ;    H15-    C7-    C9-   H20
    26      7      9     29      9     0.00   0.50208   3 ;    H16-    C7-    C9-   H19
    26      7      9     30      9     0.00   0.50208   3 ;    H16-    C7-    C9-   H20
    27      8     10     31      9     0.00   0.50208   3 ;    H17-    C8-   C10-   H21
    27      8     10     32      9     0.00   0.50208   3 ;    H17-    C8-   C10-   H22
    28      8     10     31      9     0.00   0.50208   3 ;    H18-    C8-   C10-   H21
    28      8     10     32      9     0.00   0.50208   3 ;    H18-    C8-   C10-   H22
    29      9     10     31      9     0.00   0.50208   3 ;    H19-    C9-   C10-   H21
    29      9     10     32      9     0.00   0.50208   3 ;    H19-    C9-   C10-   H22
    30      9     10     31      9     0.00   0.50208   3 ;    H20-    C9-   C10-   H21
    30      9     10     32      9     0.00   0.50208   3 ;    H20-    C9-   C10-   H22
