; mobley_172879_GMX.itp created by acpype (v: 2023.10.27) on Thu May 14 13:53:23 2026

[ atomtypes ]
;name   bond_type     mass     charge   ptype   sigma         epsilon       Amb
 ca       ca          0.00000  0.00000   A     3.31521e-01   4.13379e-01 ; 1.86  0.0988
 os       os          0.00000  0.00000   A     3.15610e-01   3.03758e-01 ; 1.77  0.0726
 ha       ha          0.00000  0.00000   A     2.62548e-01   6.73624e-02 ; 1.47  0.0161

[ moleculetype ]
;name            nrexcl
 mobley_172879    3

[ atoms ]
;   nr  type  resi  res  atom  cgnr     charge      mass       ; qtot   bond_type
     1   ca     1   MOL    C1    1    -0.128000     12.01000 ; qtot -0.128
     2   ca     1   MOL    C2    2    -0.128000     12.01000 ; qtot -0.256
     3   ca     1   MOL    C3    3    -0.128000     12.01000 ; qtot -0.384
     4   ca     1   MOL    C4    4    -0.128000     12.01000 ; qtot -0.512
     5   ca     1   MOL    C5    5    -0.182300     12.01000 ; qtot -0.694
     6   ca     1   MOL    C6    6    -0.182300     12.01000 ; qtot -0.877
     7   ca     1   MOL    C7    7    -0.182300     12.01000 ; qtot -1.059
     8   ca     1   MOL    C8    8    -0.182300     12.01000 ; qtot -1.241
     9   ca     1   MOL    C9    9     0.212700     12.01000 ; qtot -1.028
    10   ca     1   MOL   C10   10     0.212700     12.01000 ; qtot -0.816
    11   ca     1   MOL   C11   11     0.212700     12.01000 ; qtot -0.603
    12   ca     1   MOL   C12   12     0.212700     12.01000 ; qtot -0.390
    13   os     1   MOL    O1   13    -0.390800     16.00000 ; qtot -0.781
    14   os     1   MOL    O2   14    -0.390800     16.00000 ; qtot -1.172
    15   ha     1   MOL    H1   15     0.139000      1.00800 ; qtot -1.033
    16   ha     1   MOL    H2   16     0.139000      1.00800 ; qtot -0.894
    17   ha     1   MOL    H3   17     0.139000      1.00800 ; qtot -0.755
    18   ha     1   MOL    H4   18     0.139000      1.00800 ; qtot -0.616
    19   ha     1   MOL    H5   19     0.154000      1.00800 ; qtot -0.462
    20   ha     1   MOL    H6   20     0.154000      1.00800 ; qtot -0.308
    21   ha     1   MOL    H7   21     0.154000      1.00800 ; qtot -0.154
    22   ha     1   MOL    H8   22     0.154000      1.00800 ; qtot 0.000

[ bonds ]
;   ai     aj funct   r             k
     1      2   1    1.3986e-01    2.9644e+05 ;     C1 - C2    
     1      5   1    1.3986e-01    2.9644e+05 ;     C1 - C5    
     1     15   1    1.0860e-01    3.0183e+05 ;     C1 - H1    
     2      6   1    1.3986e-01    2.9644e+05 ;     C2 - C6    
     2     16   1    1.0860e-01    3.0183e+05 ;     C2 - H2    
     3      4   1    1.3986e-01    2.9644e+05 ;     C3 - C4    
     3      7   1    1.3986e-01    2.9644e+05 ;     C3 - C7    
     3     17   1    1.0860e-01    3.0183e+05 ;     C3 - H3    
     4      8   1    1.3986e-01    2.9644e+05 ;     C4 - C8    
     4     18   1    1.0860e-01    3.0183e+05 ;     C4 - H4    
     5      9   1    1.3986e-01    2.9644e+05 ;     C5 - C9    
     5     19   1    1.0860e-01    3.0183e+05 ;     C5 - H5    
     6     10   1    1.3986e-01    2.9644e+05 ;     C6 - C10   
     6     20   1    1.0860e-01    3.0183e+05 ;     C6 - H6    
     7     11   1    1.3986e-01    2.9644e+05 ;     C7 - C11   
     7     21   1    1.0860e-01    3.0183e+05 ;     C7 - H7    
     8     12   1    1.3986e-01    2.9644e+05 ;     C8 - C12   
     8     22   1    1.0860e-01    3.0183e+05 ;     C8 - H8    
     9     10   1    1.3986e-01    2.9644e+05 ;     C9 - C10   
     9     13   1    1.3688e-01    2.8731e+05 ;     C9 - O1    
    10     14   1    1.3688e-01    2.8731e+05 ;    C10 - O2    
    11     12   1    1.3986e-01    2.9644e+05 ;    C11 - C12   
    11     13   1    1.3688e-01    2.8731e+05 ;    C11 - O1    
    12     14   1    1.3688e-01    2.8731e+05 ;    C12 - O2    

[ pairs ]
;   ai     aj    funct
     1     10      1 ;     C1 - C10   
     1     13      1 ;     C1 - O1    
     1     20      1 ;     C1 - H6    
     2      9      1 ;     C2 - C9    
     2     14      1 ;     C2 - O2    
     2     19      1 ;     C2 - H5    
     3     12      1 ;     C3 - C12   
     3     13      1 ;     C3 - O1    
     3     22      1 ;     C3 - H8    
     4     11      1 ;     C4 - C11   
     4     14      1 ;     C4 - O2    
     4     21      1 ;     C4 - H7    
     5      6      1 ;     C5 - C6    
     5     11      1 ;     C5 - C11   
     5     14      1 ;     C5 - O2    
     5     16      1 ;     C5 - H2    
     6     12      1 ;     C6 - C12   
     6     13      1 ;     C6 - O1    
     7      8      1 ;     C7 - C8    
     7      9      1 ;     C7 - C9    
     7     14      1 ;     C7 - O2    
     7     18      1 ;     C7 - H4    
     8     10      1 ;     C8 - C10   
     8     13      1 ;     C8 - O1    
     8     17      1 ;     C8 - H3    
     9     12      1 ;     C9 - C12   
     9     20      1 ;     C9 - H6    
    10     11      1 ;    C10 - C11   
    10     16      1 ;    C10 - H2    
    10     19      1 ;    C10 - H5    
    11     17      1 ;    C11 - H3    
    11     22      1 ;    C11 - H8    
    12     18      1 ;    C12 - H4    
    12     21      1 ;    C12 - H7    
    13     14      1 ;     O1 - O2    
    13     19      1 ;     O1 - H5    
    13     21      1 ;     O1 - H7    
    14     20      1 ;     O2 - H6    
    14     22      1 ;     O2 - H8    
    15      6      1 ;     H1 - C6    
    15      9      1 ;     H1 - C9    
    15     16      1 ;     H1 - H2    
    15     19      1 ;     H1 - H5    
    16     20      1 ;     H2 - H6    
    17     18      1 ;     H3 - H4    
    17     21      1 ;     H3 - H7    
    18     22      1 ;     H4 - H8    

[ angles ]
;   ai     aj     ak    funct   theta         cth
     1      2      6      1    1.2002e+02    5.3279e+02 ;     C1 - C2     - C6    
     1      2     16      1    1.1988e+02    3.7572e+02 ;     C1 - C2     - H2    
     1      5      9      1    1.2002e+02    5.3279e+02 ;     C1 - C5     - C9    
     1      5     19      1    1.1988e+02    3.7572e+02 ;     C1 - C5     - H5    
     2      1      5      1    1.2002e+02    5.3279e+02 ;     C2 - C1     - C5    
     2      1     15      1    1.1988e+02    3.7572e+02 ;     C2 - C1     - H1    
     2      6     10      1    1.2002e+02    5.3279e+02 ;     C2 - C6     - C10   
     2      6     20      1    1.1988e+02    3.7572e+02 ;     C2 - C6     - H6    
     3      4      8      1    1.2002e+02    5.3279e+02 ;     C3 - C4     - C8    
     3      4     18      1    1.1988e+02    3.7572e+02 ;     C3 - C4     - H4    
     3      7     11      1    1.2002e+02    5.3279e+02 ;     C3 - C7     - C11   
     3      7     21      1    1.1988e+02    3.7572e+02 ;     C3 - C7     - H7    
     4      3      7      1    1.2002e+02    5.3279e+02 ;     C4 - C3     - C7    
     4      3     17      1    1.1988e+02    3.7572e+02 ;     C4 - C3     - H3    
     4      8     12      1    1.2002e+02    5.3279e+02 ;     C4 - C8     - C12   
     4      8     22      1    1.1988e+02    3.7572e+02 ;     C4 - C8     - H8    
     5      1     15      1    1.1988e+02    3.7572e+02 ;     C5 - C1     - H1    
     5      9     10      1    1.2002e+02    5.3279e+02 ;     C5 - C9     - C10   
     5      9     13      1    1.1911e+02    6.6107e+02 ;     C5 - C9     - O1    
     6      2     16      1    1.1988e+02    3.7572e+02 ;     C6 - C2     - H2    
     6     10      9      1    1.2002e+02    5.3279e+02 ;     C6 - C10    - C9    
     6     10     14      1    1.1911e+02    6.6107e+02 ;     C6 - C10    - O2    
     7      3     17      1    1.1988e+02    3.7572e+02 ;     C7 - C3     - H3    
     7     11     12      1    1.2002e+02    5.3279e+02 ;     C7 - C11    - C12   
     7     11     13      1    1.1911e+02    6.6107e+02 ;     C7 - C11    - O1    
     8      4     18      1    1.1988e+02    3.7572e+02 ;     C8 - C4     - H4    
     8     12     11      1    1.2002e+02    5.3279e+02 ;     C8 - C12    - C11   
     8     12     14      1    1.1911e+02    6.6107e+02 ;     C8 - C12    - O2    
     9      5     19      1    1.1988e+02    3.7572e+02 ;     C9 - C5     - H5    
     9     10     14      1    1.1911e+02    6.6107e+02 ;     C9 - C10    - O2    
     9     13     11      1    1.1987e+02    7.5036e+02 ;     C9 - O1     - C11   
    10      6     20      1    1.1988e+02    3.7572e+02 ;    C10 - C6     - H6    
    10      9     13      1    1.1911e+02    6.6107e+02 ;    C10 - C9     - O1    
    10     14     12      1    1.1987e+02    7.5036e+02 ;    C10 - O2     - C12   
    11      7     21      1    1.1988e+02    3.7572e+02 ;    C11 - C7     - H7    
    11     12     14      1    1.1911e+02    6.6107e+02 ;    C11 - C12    - O2    
    12      8     22      1    1.1988e+02    3.7572e+02 ;    C12 - C8     - H8    
    12     11     13      1    1.1911e+02    6.6107e+02 ;    C12 - C11    - O1    

[ dihedrals ] ; propers
; for gromacs 4.5 or higher, using funct 9
;    i      j      k      l   func   phase     kd      pn
     1      2      6     10      9   180.00  15.16700   2 ;     C1-    C2-    C6-   C10
     1      2      6     20      9   180.00  15.16700   2 ;     C1-    C2-    C6-    H6
     1      5      9     10      9   180.00  15.16700   2 ;     C1-    C5-    C9-   C10
     1      5      9     13      9   180.00  15.16700   2 ;     C1-    C5-    C9-    O1
     2      1      5      9      9   180.00  15.16700   2 ;     C2-    C1-    C5-    C9
     2      1      5     19      9   180.00  15.16700   2 ;     C2-    C1-    C5-    H5
     2      6     10      9      9   180.00  15.16700   2 ;     C2-    C6-   C10-    C9
     2      6     10     14      9   180.00  15.16700   2 ;     C2-    C6-   C10-    O2
     3      4      8     12      9   180.00  15.16700   2 ;     C3-    C4-    C8-   C12
     3      4      8     22      9   180.00  15.16700   2 ;     C3-    C4-    C8-    H8
     3      7     11     12      9   180.00  15.16700   2 ;     C3-    C7-   C11-   C12
     3      7     11     13      9   180.00  15.16700   2 ;     C3-    C7-   C11-    O1
     4      3      7     11      9   180.00  15.16700   2 ;     C4-    C3-    C7-   C11
     4      3      7     21      9   180.00  15.16700   2 ;     C4-    C3-    C7-    H7
     4      8     12     11      9   180.00  15.16700   2 ;     C4-    C8-   C12-   C11
     4      8     12     14      9   180.00  15.16700   2 ;     C4-    C8-   C12-    O2
     5      1      2      6      9   180.00  15.16700   2 ;     C5-    C1-    C2-    C6
     5      1      2     16      9   180.00  15.16700   2 ;     C5-    C1-    C2-    H2
     5      9     10      6      9   180.00  15.16700   2 ;     C5-    C9-   C10-    C6
     5      9     10     14      9   180.00  15.16700   2 ;     C5-    C9-   C10-    O2
     5      9     13     11      9   180.00   3.76560   2 ;     C5-    C9-    O1-   C11
     6     10      9     13      9   180.00  15.16700   2 ;     C6-   C10-    C9-    O1
     6     10     14     12      9   180.00   3.76560   2 ;     C6-   C10-    O2-   C12
     7      3      4      8      9   180.00  15.16700   2 ;     C7-    C3-    C4-    C8
     7      3      4     18      9   180.00  15.16700   2 ;     C7-    C3-    C4-    H4
     7     11     12      8      9   180.00  15.16700   2 ;     C7-   C11-   C12-    C8
     7     11     12     14      9   180.00  15.16700   2 ;     C7-   C11-   C12-    O2
     7     11     13      9      9   180.00   3.76560   2 ;     C7-   C11-    O1-    C9
     8      4      3     17      9   180.00  15.16700   2 ;     C8-    C4-    C3-    H3
     8     12     11     13      9   180.00  15.16700   2 ;     C8-   C12-   C11-    O1
     8     12     14     10      9   180.00   3.76560   2 ;     C8-   C12-    O2-   C10
     9     10      6     20      9   180.00  15.16700   2 ;     C9-   C10-    C6-    H6
     9     10     14     12      9   180.00   3.76560   2 ;     C9-   C10-    O2-   C12
     9     13     11     12      9   180.00   3.76560   2 ;     C9-    O1-   C11-   C12
    10      6      2     16      9   180.00  15.16700   2 ;    C10-    C6-    C2-    H2
    10      9      5     19      9   180.00  15.16700   2 ;    C10-    C9-    C5-    H5
    10      9     13     11      9   180.00   3.76560   2 ;    C10-    C9-    O1-   C11
    10     14     12     11      9   180.00   3.76560   2 ;    C10-    O2-   C12-   C11
    11      7      3     17      9   180.00  15.16700   2 ;    C11-    C7-    C3-    H3
    11     12      8     22      9   180.00  15.16700   2 ;    C11-   C12-    C8-    H8
    12      8      4     18      9   180.00  15.16700   2 ;    C12-    C8-    C4-    H4
    12     11      7     21      9   180.00  15.16700   2 ;    C12-   C11-    C7-    H7
    13      9      5     19      9   180.00  15.16700   2 ;     O1-    C9-    C5-    H5
    13      9     10     14      9   180.00  15.16700   2 ;     O1-    C9-   C10-    O2
    13     11      7     21      9   180.00  15.16700   2 ;     O1-   C11-    C7-    H7
    13     11     12     14      9   180.00  15.16700   2 ;     O1-   C11-   C12-    O2
    14     10      6     20      9   180.00  15.16700   2 ;     O2-   C10-    C6-    H6
    14     12      8     22      9   180.00  15.16700   2 ;     O2-   C12-    C8-    H8
    15      1      2      6      9   180.00  15.16700   2 ;     H1-    C1-    C2-    C6
    15      1      2     16      9   180.00  15.16700   2 ;     H1-    C1-    C2-    H2
    15      1      5      9      9   180.00  15.16700   2 ;     H1-    C1-    C5-    C9
    15      1      5     19      9   180.00  15.16700   2 ;     H1-    C1-    C5-    H5
    16      2      6     20      9   180.00  15.16700   2 ;     H2-    C2-    C6-    H6
    17      3      4     18      9   180.00  15.16700   2 ;     H3-    C3-    C4-    H4
    17      3      7     21      9   180.00  15.16700   2 ;     H3-    C3-    C7-    H7
    18      4      8     22      9   180.00  15.16700   2 ;     H4-    C4-    C8-    H8

[ dihedrals ] ; impropers
; treated as propers in GROMACS to use correct AMBER analytical function
;    i      j      k      l   func   phase     kd      pn
     1      6      2     16      4   180.00   4.60240   2 ;     C1-    C6-    C2-    H2
     1      9      5     19      4   180.00   4.60240   2 ;     C1-    C9-    C5-    H5
     2     10      6     20      4   180.00   4.60240   2 ;     C2-   C10-    C6-    H6
     3      8      4     18      4   180.00   4.60240   2 ;     C3-    C8-    C4-    H4
     3     11      7     21      4   180.00   4.60240   2 ;     C3-   C11-    C7-    H7
     4      7      3     17      4   180.00   4.60240   2 ;     C4-    C7-    C3-    H3
     4     12      8     22      4   180.00   4.60240   2 ;     C4-   C12-    C8-    H8
     5     10      9     13      4   180.00   4.60240   2 ;     C5-   C10-    C9-    O1
     6      9     10     14      4   180.00   4.60240   2 ;     C6-    C9-   C10-    O2
     7     12     11     13      4   180.00   4.60240   2 ;     C7-   C12-   C11-    O1
     8     11     12     14      4   180.00   4.60240   2 ;     C8-   C11-   C12-    O2
    15      1      5      2      4   180.00   4.60240   2 ;     H1-    C1-    C5-    C2
