mobley_3999471_GMX.gro created by acpype (v: 2023.10.27) on Thu May 14 13:50:19 2026
 1328
    1MOL     C1    1   1.161   1.197   1.107
    1MOL     C2    2   1.199   1.162   1.250
    1MOL    CL1    3   1.119   1.271   1.365
    1MOL    CL2    4   1.376   1.170   1.270
    1MOL     H1    5   1.191   1.299   1.082
    1MOL     H2    6   1.208   1.129   1.036
    1MOL     H3    7   1.053   1.190   1.093
    1MOL     H4    8   1.168   1.060   1.274
    2SOL     OW    9   0.230   0.628   0.113
    2SOL    HW1   10   0.137   0.626   0.150
    2SOL    HW2   11   0.231   0.589   0.021
    3SOL     OW   12   0.225   0.275   0.996
    3SOL    HW1   13   0.260   0.258   1.088
    3SOL    HW2   14   0.137   0.230   0.984
    4SOL     OW   15   0.019   0.368   0.647
    4SOL    HW1   16  -0.063   0.411   0.686
    4SOL    HW2   17  -0.009   0.295   0.584
    5SOL     OW   18   0.569   1.275   1.165
    5SOL    HW1   19   0.476   1.268   1.128
    5SOL    HW2   20   0.580   1.364   1.209
    6SOL     OW   21   1.555   1.511   0.703
    6SOL    HW1   22   1.498   1.495   0.784
    6SOL    HW2   23   1.496   1.521   0.623
    7SOL     OW   24   1.135   0.703   0.717
    7SOL    HW1   25   1.192   0.781   0.692
    7SOL    HW2   26   1.075   0.729   0.793
    8SOL     OW   27   1.755   0.607   0.231
    8SOL    HW1   28   1.743   0.594   0.132
    8SOL    HW2   29   1.725   0.526   0.280
    9SOL     OW   30   0.768   1.144   1.023
    9SOL    HW1   31   0.690   1.161   1.083
    9SOL    HW2   32   0.802   1.231   0.987
   10SOL     OW   33   0.850   0.798   1.823
   10SOL    HW1   34   0.846   0.874   1.888
   10SOL    HW2   35   0.872   0.834   1.732
   11SOL     OW   36   0.685   1.012   0.665
   11SOL    HW1   37   0.754   0.996   0.735
   11SOL    HW2   38   0.612   1.069   0.703
   12SOL     OW   39   0.686   1.161   1.803
   12SOL    HW1   40   0.746   1.240   1.817
   12SOL    HW2   41   0.600   1.192   1.762
   13SOL     OW   42   0.335   1.435   1.061
   13SOL    HW1   43   0.257   1.404   1.008
   13SOL    HW2   44   0.393   1.493   1.004
   14SOL     OW   45   1.460   1.505   1.339
   14SOL    HW1   46   1.484   1.599   1.365
   14SOL    HW2   47   1.444   1.451   1.421
   15SOL     OW   48   0.438   0.392   1.499
   15SOL    HW1   49   0.520   0.336   1.508
   15SOL    HW2   50   0.357   0.334   1.503
   16SOL     OW   51   1.603   0.447   0.737
   16SOL    HW1   52   1.529   0.493   0.687
   16SOL    HW2   53   1.654   0.515   0.790
   17SOL     OW   54   0.231   1.713   0.483
   17SOL    HW1   55   0.265   1.790   0.537
   17SOL    HW2   56   0.275   1.713   0.393
   18SOL     OW   57   1.127   1.341   1.690
   18SOL    HW1   58   1.174   1.341   1.778
   18SOL    HW2   59   1.079   1.254   1.679
   19SOL     OW   60   0.230   1.434   0.538
   19SOL    HW1   61   0.204   1.530   0.538
   19SOL    HW2   62   0.159   1.380   0.583
   20SOL     OW   63   0.240   1.091   0.886
   20SOL    HW1   64   0.254   1.007   0.938
   20SOL    HW2   65   0.185   1.155   0.941
   21SOL     OW   66   0.620   1.786   1.439
   21SOL    HW1   67   0.528   1.769   1.474
   21SOL    HW2   68   0.648   1.878   1.465
   22SOL     OW   69   0.606   0.964   0.123
   22SOL    HW1   70   0.613   1.048   0.069
   22SOL    HW2   71   0.652   0.977   0.211
   23SOL     OW   72   1.594   0.114   1.480
   23SOL    HW1   73   1.576   0.181   1.408
   23SOL    HW2   74   1.591   0.160   1.569
   24SOL     OW   75   0.122   0.643   0.563
   24SOL    HW1   76   0.077   0.555   0.580
   24SOL    HW2   77   0.121   0.697   0.647
   25SOL     OW   78   1.842   1.767   0.359
   25SOL    HW1   79   1.896   1.738   0.439
   25SOL    HW2   80   1.872   1.857   0.330
   26SOL     OW   81   0.027   1.596   0.117
   26SOL    HW1   82   0.008   1.500   0.138
   26SOL    HW2   83  -0.006   1.654   0.192
   27SOL     OW   84   1.689   0.922   0.612
   27SOL    HW1   85   1.784   0.893   0.620
   27SOL    HW2   86   1.681   0.987   0.537
   28SOL     OW   87   1.641   1.108   0.432
   28SOL    HW1   88   1.727   1.110   0.380
   28SOL    HW2   89   1.655   1.155   0.520
   29SOL     OW   90   0.113   0.737   1.597
   29SOL    HW1   91   0.201   0.724   1.642
   29SOL    HW2   92   0.100   0.834   1.575
   30SOL     OW   93   0.613   1.365   0.726
   30SOL    HW1   94   0.564   1.278   0.735
   30SOL    HW2   95   0.590   1.408   0.639
   31SOL     OW   96   0.809   0.004   0.502
   31SOL    HW1   97   0.849   0.095   0.493
   31SOL    HW2   98   0.709   0.012   0.508
   32SOL     OW   99   0.197   0.976   1.264
   32SOL    HW1  100   0.286   0.931   1.250
   32SOL    HW2  101   0.124   0.911   1.245
   33SOL     OW  102   1.525   0.999   0.190
   33SOL    HW1  103   1.462   0.923   0.203
   33SOL    HW2  104   1.573   1.017   0.276
   34SOL     OW  105   1.187   1.792   1.616
   34SOL    HW1  106   1.211   1.852   1.540
   34SOL    HW2  107   1.194   1.697   1.586
   35SOL     OW  108   0.317   0.251   1.801
   35SOL    HW1  109   0.388   0.322   1.807
   35SOL    HW2  110   0.229   0.290   1.829
   36SOL     OW  111   1.466   1.417   0.953
   36SOL    HW1  112   1.407   1.423   1.033
   36SOL    HW2  113   1.451   1.329   0.907
   37SOL     OW  114   1.667   1.714   0.572
   37SOL    HW1  115   1.626   1.691   0.484
   37SOL    HW2  116   1.649   1.640   0.637
   38SOL     OW  117   0.598   0.729   0.270
   38SOL    HW1  118   0.622   0.798   0.202
   38SOL    HW2  119   0.520   0.762   0.324
   39SOL     OW  120   1.281   0.345   0.944
   39SOL    HW1  121   1.195   0.295   0.931
   39SOL    HW2  122   1.343   0.291   1.000
   40SOL     OW  123   1.576   1.662   0.307
   40SOL    HW1  124   1.665   1.708   0.310
   40SOL    HW2  125   1.555   1.638   0.212
   41SOL     OW  126   0.807   0.605   1.465
   41SOL    HW1  127   0.760   0.602   1.554
   41SOL    HW2  128   0.756   0.550   1.399
   42SOL     OW  129   1.394   0.469   1.674
   42SOL    HW1  130   1.374   0.512   1.762
   42SOL    HW2  131   1.472   0.407   1.683
   43SOL     OW  132   0.973   0.890   1.572
   43SOL    HW1  133   1.019   0.806   1.543
   43SOL    HW2  134   0.917   0.924   1.497
   44SOL     OW  135   0.991   0.410   1.242
   44SOL    HW1  136   0.914   0.444   1.296
   44SOL    HW2  137   0.957   0.359   1.163
   45SOL     OW  138   1.041   0.701   0.429
   45SOL    HW1  139   1.067   0.697   0.525
   45SOL    HW2  140   0.956   0.650   0.415
   46SOL     OW  141   0.076   0.811   0.789
   46SOL    HW1  142   0.175   0.799   0.798
   46SOL    HW2  143   0.052   0.906   0.810
   47SOL     OW  144   0.130   1.821   1.571
   47SOL    HW1  145   0.120   1.806   1.670
   47SOL    HW2  146   0.044   1.857   1.535
   48SOL     OW  147   0.865   0.348   0.195
   48SOL    HW1  148   0.924   0.411   0.146
   48SOL    HW2  149   0.884   0.254   0.166
   49SOL     OW  150   1.719   0.585   1.831
   49SOL    HW1  151   1.693   0.674   1.795
   49SOL    HW2  152   1.717   0.517   1.758
   50SOL     OW  153   1.362   1.144   0.545
   50SOL    HW1  154   1.445   1.115   0.497
   50SOL    HW2  155   1.313   1.211   0.489
   51SOL     OW  156   0.550   0.196   0.885
   51SOL    HW1  157   0.545   0.191   0.985
   51SOL    HW2  158   0.552   0.292   0.856
   52SOL     OW  159   1.008   1.456   0.477
   52SOL    HW1  160   0.962   1.528   0.425
   52SOL    HW2  161   1.004   1.476   0.575
   53SOL     OW  162   0.351   1.801   0.853
   53SOL    HW1  163   0.401   1.715   0.859
   53SOL    HW2  164   0.416   1.878   0.850
   54SOL     OW  165   1.795   1.066   0.873
   54SOL    HW1  166   1.733   1.051   0.797
   54SOL    HW2  167   1.743   1.077   0.958
   55SOL     OW  168   1.227   1.550   1.506
   55SOL    HW1  169   1.233   1.473   1.570
   55SOL    HW2  170   1.175   1.524   1.426
   56SOL     OW  171   0.321   0.943   0.242
   56SOL    HW1  172   0.403   0.982   0.200
   56SOL    HW2  173   0.294   0.861   0.193
   57SOL     OW  174   1.458   0.735   0.728
   57SOL    HW1  175   1.453   0.670   0.803
   57SOL    HW2  176   1.538   0.794   0.741
   58SOL     OW  177   0.461   1.266   1.727
   58SOL    HW1  178   0.411   1.267   1.641
   58SOL    HW2  179   0.398   1.248   1.803
   59SOL     OW  180   1.111   1.776   0.237
   59SOL    HW1  181   1.051   1.714   0.287
   59SOL    HW2  182   1.142   1.732   0.152
   60SOL     OW  183   0.202   0.285   1.498
   60SOL    HW1  184   0.122   0.345   1.485
   60SOL    HW2  185   0.192   0.236   1.584
   61SOL     OW  186   1.632   1.377   0.081
   61SOL    HW1  187   1.600   1.471   0.071
   61SOL    HW2  188   1.556   1.314   0.069
   62SOL     OW  189   0.464   1.743   0.323
   62SOL    HW1  190   0.497   1.782   0.409
   62SOL    HW2  191   0.540   1.736   0.258
   63SOL     OW  192   1.400   0.107   0.426
   63SOL    HW1  193   1.376   0.070   0.336
   63SOL    HW2  194   1.499   0.123   0.430
   64SOL     OW  195   0.249   1.785   1.241
   64SOL    HW1  196   0.306   1.720   1.291
   64SOL    HW2  197   0.233   1.752   1.148
   65SOL     OW  198   0.940   1.698   0.904
   65SOL    HW1  199   1.020   1.641   0.925
   65SOL    HW2  200   0.891   1.658   0.827
   66SOL     OW  201   0.382   0.700   0.480
   66SOL    HW1  202   0.427   0.610   0.477
   66SOL    HW2  203   0.288   0.689   0.513
   67SOL     OW  204   1.547   0.222   1.729
   67SOL    HW1  205   1.542   0.259   1.821
   67SOL    HW2  206   1.475   0.153   1.717
   68SOL     OW  207   0.614   0.122   0.117
   68SOL    HW1  208   0.712   0.100   0.124
   68SOL    HW2  209   0.583   0.105   0.024
   69SOL     OW  210   0.781   0.264   1.749
   69SOL    HW1  211   0.848   0.203   1.792
   69SOL    HW2  212   0.708   0.283   1.814
   70SOL     OW  213   0.888   1.514   1.195
   70SOL    HW1  214   0.865   1.489   1.101
   70SOL    HW2  215   0.949   1.445   1.234
   71SOL     OW  216   1.351   0.590   1.433
   71SOL    HW1  217   1.379   0.547   1.518
   71SOL    HW2  218   1.376   0.686   1.434
   72SOL     OW  219   0.803   1.402   0.924
   72SOL    HW1  220   0.893   1.416   0.882
   72SOL    HW2  221   0.732   1.404   0.853
   73SOL     OW  222   0.922   0.503   0.899
   73SOL    HW1  223   0.897   0.494   0.803
   73SOL    HW2  224   0.970   0.421   0.930
   74SOL     OW  225   0.539   0.064   0.512
   74SOL    HW1  226   0.458   0.065   0.570
   74SOL    HW2  227   0.542   0.147   0.457
   75SOL     OW  228   1.434   1.188   0.041
   75SOL    HW1  229   1.466   1.112   0.098
   75SOL    HW2  230   1.342   1.215   0.071
   76SOL     OW  231   0.297   0.035   0.171
   76SOL    HW1  232   0.346   0.119   0.150
   76SOL    HW2  233   0.359  -0.030   0.216
   77SOL     OW  234   0.935   0.236   0.480
   77SOL    HW1  235   0.887   0.277   0.402
   77SOL    HW2  236   1.034   0.234   0.461
   78SOL     OW  237   1.076   0.683   1.464
   78SOL    HW1  238   0.996   0.622   1.467
   78SOL    HW2  239   1.157   0.630   1.440
   79SOL     OW  240   1.227   1.570   0.793
   79SOL    HW1  241   1.248   1.644   0.728
   79SOL    HW2  242   1.295   1.570   0.866
   80SOL     OW  243   0.459   1.152   0.741
   80SOL    HW1  244   0.388   1.125   0.806
   80SOL    HW2  245   0.433   1.124   0.648
   81SOL     OW  246   1.271   1.797   0.591
   81SOL    HW1  247   1.315   1.861   0.527
   81SOL    HW2  248   1.221   1.849   0.661
   82SOL     OW  249   1.032   0.549   0.016
   82SOL    HW1  250   0.991   0.631  -0.023
   82SOL    HW2  251   1.096   0.575   0.089
   83SOL     OW  252   0.078   0.556   1.386
   83SOL    HW1  253   0.170   0.555   1.345
   83SOL    HW2  254   0.072   0.630   1.453
   84SOL     OW  255   0.561   0.222   1.147
   84SOL    HW1  256   0.599   0.138   1.184
   84SOL    HW2  257   0.473   0.241   1.191
   85SOL     OW  258   0.866   0.454   0.642
   85SOL    HW1  259   0.834   0.526   0.580
   85SOL    HW2  260   0.890   0.373   0.589
   86SOL     OW  261   1.017   0.039   0.753
   86SOL    HW1  262   0.945   0.044   0.684
   86SOL    HW2  263   0.993  -0.030   0.822
   87SOL     OW  264   1.429   1.173   0.867
   87SOL    HW1  265   1.374   1.089   0.860
   87SOL    HW2  266   1.455   1.202   0.775
   88SOL     OW  267   1.466   0.590   0.992
   88SOL    HW1  268   1.436   0.495   0.999
   88SOL    HW2  269   1.539   0.606   1.058
   89SOL     OW  270   1.857   0.833   0.377
   89SOL    HW1  271   1.899   0.769   0.441
   89SOL    HW2  272   1.819   0.782   0.299
   90SOL     OW  273   0.488   1.385   0.174
   90SOL    HW1  274   0.401   1.370   0.221
   90SOL    HW2  275   0.471   1.411   0.079
   91SOL     OW  276   1.664   1.280   0.657
   91SOL    HW1  277   1.763   1.288   0.671
   91SOL    HW2  278   1.619   1.364   0.688
   92SOL     OW  279   1.390   0.575   0.078
   92SOL    HW1  280   1.336   0.554   0.159
   92SOL    HW2  281   1.481   0.534   0.087
   93SOL     OW  282   0.527   0.256   0.328
   93SOL    HW1  283   0.554   0.197   0.253
   93SOL    HW2  284   0.527   0.351   0.297
   94SOL     OW  285   1.754   1.223   1.588
   94SOL    HW1  286   1.845   1.184   1.575
   94SOL    HW2  287   1.762   1.319   1.612
   95SOL     OW  288   1.592   1.629   1.625
   95SOL    HW1  289   1.619   1.663   1.535
   95SOL    HW2  290   1.671   1.591   1.671
   96SOL     OW  291   1.638   1.099   1.079
   96SOL    HW1  292   1.643   1.180   1.138
   96SOL    HW2  293   1.552   1.101   1.028
   97SOL     OW  294   0.915   0.089   1.402
   97SOL    HW1  295   0.940   0.069   1.307
   97SOL    HW2  296   0.987   0.145   1.444
   98SOL     OW  297   0.980   1.116   1.719
   98SOL    HW1  298   0.881   1.122   1.729
   98SOL    HW2  299   1.003   1.036   1.663
   99SOL     OW  300   0.705   1.050   0.368
   99SOL    HW1  301   0.691   1.057   0.467
   99SOL    HW2  302   0.789   0.999   0.350
  100SOL     OW  303   0.410   0.813   1.251
  100SOL    HW1  304   0.496   0.825   1.301
  100SOL    HW2  305   0.368   0.726   1.278
  101SOL     OW  306   1.274   0.386   1.262
  101SOL    HW1  307   1.295   0.460   1.326
  101SOL    HW2  308   1.185   0.403   1.219
  102SOL     OW  309   0.064   1.564   1.331
  102SOL    HW1  310   0.018   1.646   1.297
  102SOL    HW2  311   0.162   1.583   1.340
  103SOL     OW  312   0.367   1.100   0.501
  103SOL    HW1  313   0.360   1.183   0.445
  103SOL    HW2  314   0.371   1.020   0.441
  104SOL     OW  315   0.566   0.537   0.865
  104SOL    HW1  316   0.578   0.603   0.791
  104SOL    HW2  317   0.612   0.571   0.948
  105SOL     OW  318   1.252   1.348   0.388
  105SOL    HW1  319   1.302   1.425   0.428
  105SOL    HW2  320   1.157   1.350   0.420
  106SOL     OW  321   1.582   0.639   0.472
  106SOL    HW1  322   1.551   0.700   0.545
  106SOL    HW2  323   1.632   0.691   0.403
  107SOL     OW  324   0.354   1.510   1.329
  107SOL    HW1  325   0.333   1.466   1.242
  107SOL    HW2  326   0.451   1.536   1.332
  108SOL     OW  327   0.402   0.751   1.598
  108SOL    HW1  328   0.470   0.806   1.551
  108SOL    HW2  329   0.442   0.663   1.625
  109SOL     OW  330   1.587   0.779   1.670
  109SOL    HW1  331   1.495   0.817   1.665
  109SOL    HW2  332   1.647   0.826   1.605
  110SOL     OW  333   1.013   0.105   1.770
  110SOL    HW1  334   1.019   0.190   1.718
  110SOL    HW2  335   1.045   0.029   1.713
  111SOL     OW  336   0.504   0.050   1.740
  111SOL    HW1  337   0.462  -0.007   1.670
  111SOL    HW2  338   0.438   0.119   1.772
  112SOL     OW  339   0.573   0.870   1.029
  112SOL    HW1  340   0.617   0.959   1.020
  112SOL    HW2  341   0.510   0.870   1.106
  113SOL     OW  342   1.360   0.862   1.045
  113SOL    HW1  343   1.285   0.862   0.979
  113SOL    HW2  344   1.397   0.770   1.054
  114SOL     OW  345   1.209   0.525   0.275
  114SOL    HW1  346   1.222   0.441   0.329
  114SOL    HW2  347   1.180   0.599   0.335
  115SOL     OW  348   0.307   0.213   1.231
  115SOL    HW1  349   0.284   0.250   1.321
  115SOL    HW2  350   0.277   0.118   1.225
  116SOL     OW  351   0.037   1.310   1.282
  116SOL    HW1  352   0.090   1.261   1.350
  116SOL    HW2  353   0.059   1.408   1.287
  117SOL     OW  354   0.732   0.634   1.064
  117SOL    HW1  355   0.791   0.608   0.988
  117SOL    HW2  356   0.704   0.730   1.053
  118SOL     OW  357   1.728   0.935   1.854
  118SOL    HW1  358   1.682   0.928   1.765
  118SOL    HW2  359   1.666   0.979   1.920
  119SOL     OW  360   0.307   0.063   0.618
  119SOL    HW1  361   0.296   0.157   0.651
  119SOL    HW2  362   0.302   0.000   0.695
  120SOL     OW  363   1.622   0.367   0.374
  120SOL    HW1  364   1.624   0.291   0.438
  120SOL    HW2  365   1.574   0.444   0.414
  121SOL     OW  366   1.023   0.766   0.966
  121SOL    HW1  367   1.038   0.787   1.062
  121SOL    HW2  368   0.993   0.671   0.957
  122SOL     OW  369   0.980   1.573   1.700
  122SOL    HW1  370   0.960   1.617   1.612
  122SOL    HW2  371   1.019   1.482   1.684
  123SOL     OW  372   1.859   1.518   1.605
  123SOL    HW1  373   1.873   1.545   1.510
  123SOL    HW2  374   1.942   1.540   1.658
  124SOL     OW  375   0.350   0.898   1.804
  124SOL    HW1  376   0.426   0.942   1.852
  124SOL    HW2  377   0.385   0.851   1.722
  125SOL     OW  378   1.540   0.274   0.125
  125SOL    HW1  379   1.479   0.199   0.148
  125SOL    HW2  380   1.562   0.326   0.208
  126SOL     OW  381   1.303   0.838   0.042
  126SOL    HW1  382   1.337   0.745   0.057
  126SOL    HW2  383   1.321   0.865  -0.053
  127SOL     OW  384   1.068   1.333   0.849
  127SOL    HW1  385   1.075   1.249   0.794
  127SOL    HW2  386   1.130   1.402   0.813
  128SOL     OW  387   0.319   0.810   0.949
  128SOL    HW1  388   0.412   0.846   0.954
  128SOL    HW2  389   0.313   0.725   1.001
  129SOL     OW  390   0.339   0.509   1.006
  129SOL    HW1  391   0.287   0.426   0.989
  129SOL    HW2  392   0.416   0.514   0.942
  130SOL     OW  393   1.138   0.380   1.678
  130SOL    HW1  394   1.093   0.443   1.742
  130SOL    HW2  395   1.231   0.411   1.661
  131SOL     OW  396   1.160   0.207   1.477
  131SOL    HW1  397   1.160   0.271   1.554
  131SOL    HW2  398   1.188   0.255   1.394
  132SOL     OW  399   0.008   1.326   0.200
  132SOL    HW1  400  -0.085   1.347   0.169
  132SOL    HW2  401   0.018   1.227   0.213
  133SOL     OW  402   0.088   1.801   0.927
  133SOL    HW1  403   0.046   1.715   0.900
  133SOL    HW2  404   0.182   1.804   0.893
  134SOL     OW  405   0.504   1.568   0.910
  134SOL    HW1  406   0.570   1.642   0.919
  134SOL    HW2  407   0.548   1.489   0.868
  135SOL     OW  408   1.002   0.796   1.238
  135SOL    HW1  409   1.043   0.764   1.324
  135SOL    HW2  410   0.906   0.769   1.235
  136SOL     OW  411   0.040   0.544   1.114
  136SOL    HW1  412   0.125   0.511   1.073
  136SOL    HW2  413   0.053   0.559   1.212
  137SOL     OW  414   0.189   0.520   1.722
  137SOL    HW1  415   0.248   0.480   1.652
  137SOL    HW2  416   0.131   0.591   1.681
  138SOL     OW  417   1.369   0.950   1.660
  138SOL    HW1  418   1.408   1.039   1.680
  138SOL    HW2  419   1.379   0.930   1.563
  139SOL     OW  420   0.815   0.572   0.325
  139SOL    HW1  421   0.822   0.483   0.279
  139SOL    HW2  422   0.721   0.606   0.317
  140SOL     OW  423   1.657   0.604   1.206
  140SOL    HW1  424   1.619   0.535   1.268
  140SOL    HW2  425   1.739   0.568   1.162
  141SOL     OW  426   0.252   1.564   1.744
  141SOL    HW1  427   0.222   1.621   1.820
  141SOL    HW2  428   0.245   1.467   1.770
  142SOL     OW  429   0.671   0.464   1.269
  142SOL    HW1  430   0.637   0.375   1.239
  142SOL    HW2  431   0.697   0.518   1.189
  143SOL     OW  432   0.930   1.678   1.465
  143SOL    HW1  433   0.906   1.660   1.370
  143SOL    HW2  434   0.960   1.772   1.475
  144SOL     OW  435   0.473   0.500   0.191
  144SOL    HW1  436   0.534   0.580   0.195
  144SOL    HW2  437   0.378   0.531   0.198
  145SOL     OW  438   0.159   1.137   1.466
  145SOL    HW1  439   0.181   1.076   1.542
  145SOL    HW2  440   0.169   1.088   1.380
  146SOL     OW  441   1.302   0.855   0.309
  146SOL    HW1  442   1.216   0.824   0.351
  146SOL    HW2  443   1.298   0.841   0.210
  147SOL     OW  444   1.759   1.747   1.154
  147SOL    HW1  445   1.820   1.777   1.081
  147SOL    HW2  446   1.721   1.658   1.132
  148SOL     OW  447   1.252   1.731   1.128
  148SOL    HW1  448   1.336   1.736   1.074
  148SOL    HW2  449   1.229   1.635   1.146
  149SOL     OW  450   0.083   1.258   1.022
  149SOL    HW1  451   0.078   1.257   1.122
  149SOL    HW2  452   0.000   1.217   0.984
  150SOL     OW  453   0.688   1.662   1.716
  150SOL    HW1  454   0.632   1.743   1.725
  150SOL    HW2  455   0.740   1.666   1.630
  151SOL     OW  456   0.903   0.086   0.133
  151SOL    HW1  457   0.954   0.087   0.047
  151SOL    HW2  458   0.959   0.044   0.204
  152SOL     OW  459   1.726   0.135   0.523
  152SOL    HW1  460   1.799   0.118   0.456
  152SOL    HW2  461   1.695   0.048   0.561
  153SOL     OW  462   1.388   1.573   0.477
  153SOL    HW1  463   1.455   1.585   0.403
  153SOL    HW2  464   1.348   1.662   0.500
  154SOL     OW  465   0.130   1.794   1.851
  154SOL    HW1  466   0.089   1.720   1.904
  154SOL    HW2  467   0.194   1.845   1.909
  155SOL     OW  468   1.280   0.927   0.672
  155SOL    HW1  469   1.340   0.846   0.674
  155SOL    HW2  470   1.320   0.996   0.612
  156SOL     OW  471   0.830   1.273   1.422
  156SOL    HW1  472   0.825   1.306   1.517
  156SOL    HW2  473   0.744   1.292   1.376
  157SOL     OW  474   0.672   1.616   0.154
  157SOL    HW1  475   0.681   1.626   0.055
  157SOL    HW2  476   0.632   1.527   0.175
  158SOL     OW  477   1.650   1.720   1.394
  158SOL    HW1  478   1.703   1.730   1.310
  158SOL    HW2  479   1.623   1.810   1.428
  159SOL     OW  480   1.841   0.175   0.963
  159SOL    HW1  481   1.880   0.090   0.927
  159SOL    HW2  482   1.743   0.177   0.944
  160SOL     OW  483   0.263   0.326   0.720
  160SOL    HW1  484   0.184   0.377   0.686
  160SOL    HW2  485   0.254   0.311   0.818
  161SOL     OW  486   1.194   1.612   0.031
  161SOL    HW1  487   1.200   1.519   0.068
  161SOL    HW2  488   1.135   1.612  -0.049
  162SOL     OW  489   0.822   1.002   1.372
  162SOL    HW1  490   0.862   1.001   1.280
  162SOL    HW2  491   0.832   1.094   1.412
  163SOL     OW  492   0.916   0.910   0.291
  163SOL    HW1  493   0.979   0.948   0.223
  163SOL    HW2  494   0.956   0.827   0.330
  164SOL     OW  495   1.504   1.607   0.044
  164SOL    HW1  496   1.412   1.644   0.051
  164SOL    HW2  497   1.542   1.627  -0.046
  165SOL     OW  498   0.372   1.288   1.490
  165SOL    HW1  499   0.359   1.381   1.456
  165SOL    HW2  500   0.288   1.236   1.477
  166SOL     OW  501   1.614   1.292   1.289
  166SOL    HW1  502   1.674   1.295   1.369
  166SOL    HW2  503   1.539   1.356   1.302
  167SOL     OW  504   1.039   1.098   0.696
  167SOL    HW1  505   0.969   1.051   0.750
  167SOL    HW2  506   1.098   1.030   0.653
  168SOL     OW  507   1.014   0.236   0.971
  168SOL    HW1  508   1.006   0.200   0.878
  168SOL    HW2  509   1.012   0.160   1.036
  169SOL     OW  510   0.590   1.487   0.491
  169SOL    HW1  511   0.632   1.429   0.421
  169SOL    HW2  512   0.546   1.566   0.447
  170SOL     OW  513   1.709   0.385   1.381
  170SOL    HW1  514   1.782   0.454   1.385
  170SOL    HW2  515   1.737   0.310   1.322
  171SOL     OW  516   0.255   1.348   0.290
  171SOL    HW1  517   0.159   1.349   0.263
  171SOL    HW2  518   0.267   1.401   0.374
  172SOL     OW  519   0.105   1.013   1.726
  172SOL    HW1  520   0.028   0.980   1.780
  172SOL    HW2  521   0.190   0.983   1.768
  173SOL     OW  522   0.672   0.203   1.489
  173SOL    HW1  523   0.762   0.187   1.449
  173SOL    HW2  524   0.680   0.208   1.588
  174SOL     OW  525   0.075   0.345   0.033
  174SOL    HW1  526  -0.017   0.317   0.004
  174SOL    HW2  527   0.106   0.422  -0.023
  175SOL     OW  528   1.440   0.856   1.398
  175SOL    HW1  529   1.383   0.908   1.335
  175SOL    HW2  530   1.536   0.868   1.374
  176SOL     OW  531   0.072   0.166   0.318
  176SOL    HW1  532   0.055   0.249   0.264
  176SOL    HW2  533   0.162   0.129   0.296
  177SOL     OW  534   1.183   1.335   0.119
  177SOL    HW1  535   1.084   1.324   0.121
  177SOL    HW2  536   1.217   1.350   0.212
  178SOL     OW  537   0.613   0.842   1.431
  178SOL    HW1  538   0.669   0.923   1.414
  178SOL    HW2  539   0.672   0.762   1.434
  179SOL     OW  540   1.493   1.767   0.959
  179SOL    HW1  541   1.526   1.831   0.890
  179SOL    HW2  542   1.559   1.761   1.034
  180SOL     OW  543   0.716   0.565   1.708
  180SOL    HW1  544   0.735   0.630   1.782
  180SOL    HW2  545   0.776   0.485   1.717
  181SOL     OW  546   1.450   1.220   1.633
  181SOL    HW1  547   1.441   1.210   1.732
  181SOL    HW2  548   1.546   1.213   1.607
  182SOL     OW  549   0.390   1.741   1.560
  182SOL    HW1  550   0.299   1.782   1.558
  182SOL    HW2  551   0.383   1.647   1.592
  183SOL     OW  552   1.674   0.883   1.254
  183SOL    HW1  553   1.647   0.794   1.217
  183SOL    HW2  554   1.675   0.951   1.181
  184SOL     OW  555   1.225   0.325   0.449
  184SOL    HW1  556   1.290   0.251   0.438
  184SOL    HW2  557   1.245   0.375   0.533
  185SOL     OW  558   0.594   0.745   0.652
  185SOL    HW1  559   0.644   0.830   0.633
  185SOL    HW2  560   0.506   0.747   0.604
  186SOL     OW  561   1.777   0.342   1.642
  186SOL    HW1  562   1.760   0.373   1.548
  186SOL    HW2  563   1.693   0.305   1.680
  187SOL     OW  564   1.730   0.934   1.517
  187SOL    HW1  565   1.768   1.025   1.532
  187SOL    HW2  566   1.722   0.917   1.418
  188SOL     OW  567   0.859   1.374   0.016
  188SOL    HW1  568   0.813   1.389   0.104
  188SOL    HW2  569   0.903   1.459  -0.014
  189SOL     OW  570   0.661   1.790   0.953
  189SOL    HW1  571   0.615   1.878   0.940
  189SOL    HW2  572   0.760   1.802   0.946
  190SOL     OW  573   0.859   0.956   0.861
  190SOL    HW1  574   0.913   0.887   0.909
  190SOL    HW2  575   0.827   1.025   0.927
  191SOL     OW  576   1.083   0.984   0.087
  191SOL    HW1  577   1.060   1.037   0.005
  191SOL    HW2  578   1.164   0.928   0.068
  192SOL     OW  579   1.861   1.569   0.851
  192SOL    HW1  580   1.790   1.557   0.781
  192SOL    HW2  581   1.862   1.490   0.911
  193SOL     OW  582   0.221   1.314   1.844
  193SOL    HW1  583   0.156   1.241   1.823
  193SOL    HW2  584   0.225   1.328   1.942
  194SOL     OW  585   0.079   1.240   0.653
  194SOL    HW1  586   0.078   1.193   0.741
  194SOL    HW2  587   0.161   1.212   0.602
  195SOL     OW  588   0.672   1.391   1.624
  195SOL    HW1  589   0.594   1.341   1.662
  195SOL    HW2  590   0.669   1.486   1.655
  196SOL     OW  591   1.824   0.192   1.227
  196SOL    HW1  592   1.820   0.102   1.271
  196SOL    HW2  593   1.827   0.181   1.128
  197SOL     OW  594   0.428   0.424   0.520
  197SOL    HW1  595   0.458   0.352   0.458
  197SOL    HW2  596   0.389   0.384   0.603
  198SOL     OW  597   1.705   1.487   1.104
  198SOL    HW1  598   1.612   1.462   1.077
  198SOL    HW2  599   1.731   1.437   1.186
  199SOL     OW  600   0.317   0.547   1.280
  199SOL    HW1  601   0.355   0.488   1.352
  199SOL    HW2  602   0.357   0.521   1.192
  200SOL     OW  603   0.812   1.586   0.687
  200SOL    HW1  604   0.844   1.596   0.593
  200SOL    HW2  605   0.733   1.524   0.689
  201SOL     OW  606   1.424   0.214   1.112
  201SOL    HW1  607   1.476   0.149   1.167
  201SOL    HW2  608   1.375   0.277   1.173
  202SOL     OW  609   1.001   0.034   1.154
  202SOL    HW1  610   0.938  -0.038   1.123
  202SOL    HW2  611   1.094  -0.002   1.154
  203SOL     OW  612   0.770   1.330   0.301
  203SOL    HW1  613   0.724   1.243   0.318
  203SOL    HW2  614   0.861   1.327   0.342
  204SOL     OW  615   0.618   1.567   1.284
  204SOL    HW1  616   0.613   1.649   1.341
  204SOL    HW2  617   0.707   1.564   1.239
  205SOL     OW  618   1.352   0.052   0.168
  205SOL    HW1  619   1.387   0.011   0.084
  205SOL    HW2  620   1.262   0.014   0.188
  206SOL     OW  621   1.300   0.453   0.691
  206SOL    HW1  622   1.241   0.533   0.695
  206SOL    HW2  623   1.315   0.418   0.784
  207SOL     OW  624   1.593   0.221   0.882
  207SOL    HW1  625   1.509   0.220   0.936
  207SOL    HW2  626   1.595   0.304   0.826
  208SOL     OW  627   0.039   1.077   0.300
  208SOL    HW1  628   0.138   1.066   0.291
  208SOL    HW2  629  -0.001   0.991   0.332
  209SOL     OW  630   0.875   1.646   0.337
  209SOL    HW1  631   0.798   1.611   0.283
  209SOL    HW2  632   0.843   1.717   0.399
  210SOL     OW  633   0.230   0.628   1.975
  210SOL    HW1  634   0.137   0.626   2.012
  210SOL    HW2  635   0.231   0.589   1.883
  211SOL     OW  636   1.755   0.607   2.093
  211SOL    HW1  637   1.743   0.594   1.994
  211SOL    HW2  638   1.725   0.526   2.142
  212SOL     OW  639   0.231   1.713   2.345
  212SOL    HW1  640   0.265   1.790   2.399
  212SOL    HW2  641   0.275   1.713   2.255
  213SOL     OW  642   0.230   1.434   2.400
  213SOL    HW1  643   0.204   1.530   2.400
  213SOL    HW2  644   0.159   1.380   2.445
  214SOL     OW  645   0.606   0.964   1.985
  214SOL    HW1  646   0.613   1.048   1.931
  214SOL    HW2  647   0.652   0.977   2.073
  215SOL     OW  648   1.842   1.767   2.221
  215SOL    HW1  649   1.896   1.738   2.301
  215SOL    HW2  650   1.872   1.857   2.192
  216SOL     OW  651   0.027   1.596   1.979
  216SOL    HW1  652   0.008   1.500   2.000
  216SOL    HW2  653  -0.006   1.654   2.054
  217SOL     OW  654   1.689   0.922   2.474
  217SOL    HW1  655   1.784   0.893   2.482
  217SOL    HW2  656   1.681   0.987   2.399
  218SOL     OW  657   1.641   1.108   2.294
  218SOL    HW1  658   1.727   1.110   2.242
  218SOL    HW2  659   1.655   1.155   2.382
  219SOL     OW  660   1.525   0.999   2.052
  219SOL    HW1  661   1.462   0.923   2.065
  219SOL    HW2  662   1.573   1.017   2.138
  220SOL     OW  663   0.598   0.729   2.132
  220SOL    HW1  664   0.622   0.798   2.064
  220SOL    HW2  665   0.520   0.762   2.186
  221SOL     OW  666   1.576   1.662   2.169
  221SOL    HW1  667   1.665   1.708   2.172
  221SOL    HW2  668   1.555   1.638   2.074
  222SOL     OW  669   0.865   0.348   2.057
  222SOL    HW1  670   0.924   0.411   2.008
  222SOL    HW2  671   0.884   0.254   2.028
  223SOL     OW  672   0.321   0.943   2.104
  223SOL    HW1  673   0.403   0.982   2.062
  223SOL    HW2  674   0.294   0.861   2.055
  224SOL     OW  675   1.458   0.735   2.590
  224SOL    HW1  676   1.453   0.670   2.665
  224SOL    HW2  677   1.538   0.794   2.603
  225SOL     OW  678   1.111   1.776   2.099
  225SOL    HW1  679   1.051   1.714   2.149
  225SOL    HW2  680   1.142   1.732   2.014
  226SOL     OW  681   1.632   1.377   1.943
  226SOL    HW1  682   1.600   1.471   1.933
  226SOL    HW2  683   1.556   1.314   1.931
  227SOL     OW  684   0.464   1.743   2.185
  227SOL    HW1  685   0.497   1.782   2.271
  227SOL    HW2  686   0.540   1.736   2.120
  228SOL     OW  687   1.400   0.107   2.288
  228SOL    HW1  688   1.376   0.070   2.198
  228SOL    HW2  689   1.499   0.123   2.292
  229SOL     OW  690   0.614   0.122   1.979
  229SOL    HW1  691   0.712   0.100   1.986
  229SOL    HW2  692   0.583   0.105   1.886
  230SOL     OW  693   1.434   1.188   1.903
  230SOL    HW1  694   1.466   1.112   1.960
  230SOL    HW2  695   1.342   1.215   1.933
  231SOL     OW  696   0.297   0.035   2.033
  231SOL    HW1  697   0.346   0.119   2.012
  231SOL    HW2  698   0.359  -0.030   2.078
  232SOL     OW  699   0.935   0.236   2.342
  232SOL    HW1  700   0.887   0.277   2.264
  232SOL    HW2  701   1.034   0.234   2.323
  233SOL     OW  702   0.459   1.152   2.603
  233SOL    HW1  703   0.388   1.125   2.668
  233SOL    HW2  704   0.433   1.124   2.510
  234SOL     OW  705   1.271   1.797   2.453
  234SOL    HW1  706   1.315   1.861   2.389
  234SOL    HW2  707   1.221   1.849   2.523
  235SOL     OW  708   1.032   0.549   1.878
  235SOL    HW1  709   0.991   0.631   1.839
  235SOL    HW2  710   1.096   0.575   1.951
  236SOL     OW  711   1.857   0.833   2.239
  236SOL    HW1  712   1.899   0.769   2.303
  236SOL    HW2  713   1.819   0.782   2.161
  237SOL     OW  714   0.488   1.385   2.036
  237SOL    HW1  715   0.401   1.370   2.083
  237SOL    HW2  716   0.471   1.411   1.941
  238SOL     OW  717   1.390   0.575   1.940
  238SOL    HW1  718   1.336   0.554   2.021
  238SOL    HW2  719   1.481   0.534   1.949
  239SOL     OW  720   0.527   0.256   2.190
  239SOL    HW1  721   0.554   0.197   2.115
  239SOL    HW2  722   0.527   0.351   2.159
  240SOL     OW  723   0.367   1.100   2.363
  240SOL    HW1  724   0.360   1.183   2.307
  240SOL    HW2  725   0.371   1.020   2.303
  241SOL     OW  726   1.252   1.348   2.250
  241SOL    HW1  727   1.302   1.425   2.290
  241SOL    HW2  728   1.157   1.350   2.282
  242SOL     OW  729   1.582   0.639   2.334
  242SOL    HW1  730   1.551   0.700   2.407
  242SOL    HW2  731   1.632   0.691   2.265
  243SOL     OW  732   1.209   0.525   2.137
  243SOL    HW1  733   1.222   0.441   2.191
  243SOL    HW2  734   1.180   0.599   2.197
  244SOL     OW  735   1.622   0.367   2.236
  244SOL    HW1  736   1.624   0.291   2.300
  244SOL    HW2  737   1.574   0.444   2.276
  245SOL     OW  738   1.540   0.274   1.987
  245SOL    HW1  739   1.479   0.199   2.010
  245SOL    HW2  740   1.562   0.326   2.070
  246SOL     OW  741   1.303   0.838   1.904
  246SOL    HW1  742   1.337   0.745   1.919
  246SOL    HW2  743   1.321   0.865   1.809
  247SOL     OW  744   0.008   1.326   2.062
  247SOL    HW1  745  -0.085   1.347   2.031
  247SOL    HW2  746   0.018   1.227   2.075
  248SOL     OW  747   0.815   0.572   2.187
  248SOL    HW1  748   0.822   0.483   2.141
  248SOL    HW2  749   0.721   0.606   2.179
  249SOL     OW  750   0.473   0.500   2.053
  249SOL    HW1  751   0.534   0.580   2.057
  249SOL    HW2  752   0.378   0.531   2.060
  250SOL     OW  753   1.726   0.135   2.385
  250SOL    HW1  754   1.799   0.118   2.318
  250SOL    HW2  755   1.695   0.048   2.423
  251SOL     OW  756   0.672   1.616   2.016
  251SOL    HW1  757   0.681   1.626   1.917
  251SOL    HW2  758   0.632   1.527   2.037
  252SOL     OW  759   0.263   0.326   2.582
  252SOL    HW1  760   0.184   0.377   2.548
  252SOL    HW2  761   0.254   0.311   2.680
  253SOL     OW  762   1.194   1.612   1.893
  253SOL    HW1  763   1.200   1.519   1.930
  253SOL    HW2  764   1.135   1.612   1.813
  254SOL     OW  765   0.916   0.910   2.153
  254SOL    HW1  766   0.979   0.948   2.085
  254SOL    HW2  767   0.956   0.827   2.192
  255SOL     OW  768   1.504   1.607   1.906
  255SOL    HW1  769   1.412   1.644   1.913
  255SOL    HW2  770   1.542   1.627   1.816
  256SOL     OW  771   0.590   1.487   2.353
  256SOL    HW1  772   0.632   1.429   2.283
  256SOL    HW2  773   0.546   1.566   2.309
  257SOL     OW  774   0.255   1.348   2.152
  257SOL    HW1  775   0.159   1.349   2.125
  257SOL    HW2  776   0.267   1.401   2.236
  258SOL     OW  777   0.075   0.345   1.895
  258SOL    HW1  778  -0.017   0.317   1.866
  258SOL    HW2  779   0.106   0.422   1.839
  259SOL     OW  780   0.072   0.166   2.180
  259SOL    HW1  781   0.055   0.249   2.126
  259SOL    HW2  782   0.162   0.129   2.158
  260SOL     OW  783   1.183   1.335   1.981
  260SOL    HW1  784   1.084   1.324   1.983
  260SOL    HW2  785   1.217   1.350   2.074
  261SOL     OW  786   1.225   0.325   2.311
  261SOL    HW1  787   1.290   0.251   2.300
  261SOL    HW2  788   1.245   0.375   2.395
  262SOL     OW  789   0.859   1.374   1.878
  262SOL    HW1  790   0.813   1.389   1.966
  262SOL    HW2  791   0.903   1.459   1.848
  263SOL     OW  792   1.083   0.984   1.949
  263SOL    HW1  793   1.060   1.037   1.867
  263SOL    HW2  794   1.164   0.928   1.930
  264SOL     OW  795   0.428   0.424   2.382
  264SOL    HW1  796   0.458   0.352   2.320
  264SOL    HW2  797   0.389   0.384   2.465
  265SOL     OW  798   0.770   1.330   2.163
  265SOL    HW1  799   0.724   1.243   2.180
  265SOL    HW2  800   0.861   1.327   2.204
  266SOL     OW  801   1.352   0.052   2.030
  266SOL    HW1  802   1.387   0.011   1.946
  266SOL    HW2  803   1.262   0.014   2.050
  267SOL     OW  804   0.039   1.077   2.162
  267SOL    HW1  805   0.138   1.066   2.153
  267SOL    HW2  806  -0.001   0.991   2.194
  268SOL     OW  807   0.875   1.646   2.199
  268SOL    HW1  808   0.798   1.611   2.145
  268SOL    HW2  809   0.843   1.717   2.261
  269SOL     OW  810   0.225   2.137   0.996
  269SOL    HW1  811   0.260   2.120   1.088
  269SOL    HW2  812   0.137   2.092   0.984
  270SOL     OW  813   0.019   2.230   0.647
  270SOL    HW1  814  -0.063   2.273   0.686
  270SOL    HW2  815  -0.009   2.157   0.584
  271SOL     OW  816   0.438   2.254   1.499
  271SOL    HW1  817   0.520   2.198   1.508
  271SOL    HW2  818   0.357   2.196   1.503
  272SOL     OW  819   1.603   2.309   0.737
  272SOL    HW1  820   1.529   2.355   0.687
  272SOL    HW2  821   1.654   2.377   0.790
  273SOL     OW  822   1.594   1.976   1.480
  273SOL    HW1  823   1.576   2.043   1.408
  273SOL    HW2  824   1.591   2.022   1.569
  274SOL     OW  825   0.122   2.505   0.563
  274SOL    HW1  826   0.077   2.417   0.580
  274SOL    HW2  827   0.121   2.559   0.647
  275SOL     OW  828   0.809   1.866   0.502
  275SOL    HW1  829   0.849   1.957   0.493
  275SOL    HW2  830   0.709   1.874   0.508
  276SOL     OW  831   0.317   2.113   1.801
  276SOL    HW1  832   0.388   2.184   1.807
  276SOL    HW2  833   0.229   2.152   1.829
  277SOL     OW  834   1.281   2.207   0.944
  277SOL    HW1  835   1.195   2.157   0.931
  277SOL    HW2  836   1.343   2.153   1.000
  278SOL     OW  837   1.394   2.331   1.674
  278SOL    HW1  838   1.374   2.374   1.762
  278SOL    HW2  839   1.472   2.269   1.683
  279SOL     OW  840   0.865   2.210   0.195
  279SOL    HW1  841   0.924   2.273   0.146
  279SOL    HW2  842   0.884   2.116   0.166
  280SOL     OW  843   1.719   2.447   1.831
  280SOL    HW1  844   1.693   2.536   1.795
  280SOL    HW2  845   1.717   2.379   1.758
  281SOL     OW  846   0.550   2.058   0.885
  281SOL    HW1  847   0.545   2.053   0.985
  281SOL    HW2  848   0.552   2.154   0.856
  282SOL     OW  849   0.202   2.147   1.498
  282SOL    HW1  850   0.122   2.207   1.485
  282SOL    HW2  851   0.192   2.098   1.584
  283SOL     OW  852   1.400   1.969   0.426
  283SOL    HW1  853   1.376   1.932   0.336
  283SOL    HW2  854   1.499   1.985   0.430
  284SOL     OW  855   1.547   2.084   1.729
  284SOL    HW1  856   1.542   2.121   1.821
  284SOL    HW2  857   1.475   2.015   1.717
  285SOL     OW  858   0.614   1.984   0.117
  285SOL    HW1  859   0.712   1.962   0.124
  285SOL    HW2  860   0.583   1.967   0.024
  286SOL     OW  861   0.781   2.126   1.749
  286SOL    HW1  862   0.848   2.065   1.792
  286SOL    HW2  863   0.708   2.145   1.814
  287SOL     OW  864   1.351   2.452   1.433
  287SOL    HW1  865   1.379   2.409   1.518
  287SOL    HW2  866   1.376   2.548   1.434
  288SOL     OW  867   0.539   1.926   0.512
  288SOL    HW1  868   0.458   1.927   0.570
  288SOL    HW2  869   0.542   2.009   0.457
  289SOL     OW  870   0.297   1.897   0.171
  289SOL    HW1  871   0.346   1.981   0.150
  289SOL    HW2  872   0.359   1.832   0.216
  290SOL     OW  873   0.935   2.098   0.480
  290SOL    HW1  874   0.887   2.139   0.402
  290SOL    HW2  875   1.034   2.096   0.461
  291SOL     OW  876   0.078   2.418   1.386
  291SOL    HW1  877   0.170   2.417   1.345
  291SOL    HW2  878   0.072   2.492   1.453
  292SOL     OW  879   0.561   2.084   1.147
  292SOL    HW1  880   0.599   2.000   1.184
  292SOL    HW2  881   0.473   2.103   1.191
  293SOL     OW  882   1.017   1.901   0.753
  293SOL    HW1  883   0.945   1.906   0.684
  293SOL    HW2  884   0.993   1.832   0.822
  294SOL     OW  885   0.527   2.118   0.328
  294SOL    HW1  886   0.554   2.059   0.253
  294SOL    HW2  887   0.527   2.213   0.297
  295SOL     OW  888   0.915   1.951   1.402
  295SOL    HW1  889   0.940   1.931   1.307
  295SOL    HW2  890   0.987   2.007   1.444
  296SOL     OW  891   1.274   2.248   1.262
  296SOL    HW1  892   1.295   2.322   1.326
  296SOL    HW2  893   1.185   2.265   1.219
  297SOL     OW  894   1.013   1.967   1.770
  297SOL    HW1  895   1.019   2.052   1.718
  297SOL    HW2  896   1.045   1.891   1.713
  298SOL     OW  897   0.504   1.912   1.740
  298SOL    HW1  898   0.462   1.855   1.670
  298SOL    HW2  899   0.438   1.981   1.772
  299SOL     OW  900   0.307   2.075   1.231
  299SOL    HW1  901   0.284   2.112   1.321
  299SOL    HW2  902   0.277   1.980   1.225
  300SOL     OW  903   0.732   2.496   1.064
  300SOL    HW1  904   0.791   2.470   0.988
  300SOL    HW2  905   0.704   2.592   1.053
  301SOL     OW  906   0.307   1.925   0.618
  301SOL    HW1  907   0.296   2.019   0.651
  301SOL    HW2  908   0.302   1.862   0.695
  302SOL     OW  909   1.622   2.229   0.374
  302SOL    HW1  910   1.624   2.153   0.438
  302SOL    HW2  911   1.574   2.306   0.414
  303SOL     OW  912   1.540   2.136   0.125
  303SOL    HW1  913   1.479   2.061   0.148
  303SOL    HW2  914   1.562   2.188   0.208
  304SOL     OW  915   0.339   2.371   1.006
  304SOL    HW1  916   0.287   2.288   0.989
  304SOL    HW2  917   0.416   2.376   0.942
  305SOL     OW  918   1.160   2.069   1.477
  305SOL    HW1  919   1.160   2.133   1.554
  305SOL    HW2  920   1.188   2.117   1.394
  306SOL     OW  921   0.040   2.406   1.114
  306SOL    HW1  922   0.125   2.373   1.073
  306SOL    HW2  923   0.053   2.421   1.212
  307SOL     OW  924   0.189   2.382   1.722
  307SOL    HW1  925   0.248   2.342   1.652
  307SOL    HW2  926   0.131   2.453   1.681
  308SOL     OW  927   0.815   2.434   0.325
  308SOL    HW1  928   0.822   2.345   0.279
  308SOL    HW2  929   0.721   2.468   0.317
  309SOL     OW  930   1.657   2.466   1.206
  309SOL    HW1  931   1.619   2.397   1.268
  309SOL    HW2  932   1.739   2.430   1.162
  310SOL     OW  933   0.671   2.326   1.269
  310SOL    HW1  934   0.637   2.237   1.239
  310SOL    HW2  935   0.697   2.380   1.189
  311SOL     OW  936   0.903   1.948   0.133
  311SOL    HW1  937   0.954   1.949   0.047
  311SOL    HW2  938   0.959   1.906   0.204
  312SOL     OW  939   1.726   1.997   0.523
  312SOL    HW1  940   1.799   1.980   0.456
  312SOL    HW2  941   1.695   1.910   0.561
  313SOL     OW  942   1.841   2.037   0.963
  313SOL    HW1  943   1.880   1.952   0.927
  313SOL    HW2  944   1.743   2.039   0.944
  314SOL     OW  945   0.263   2.188   0.720
  314SOL    HW1  946   0.184   2.239   0.686
  314SOL    HW2  947   0.254   2.173   0.818
  315SOL     OW  948   1.014   2.098   0.971
  315SOL    HW1  949   1.006   2.062   0.878
  315SOL    HW2  950   1.012   2.022   1.036
  316SOL     OW  951   1.709   2.247   1.381
  316SOL    HW1  952   1.782   2.316   1.385
  316SOL    HW2  953   1.737   2.172   1.322
  317SOL     OW  954   0.672   2.065   1.489
  317SOL    HW1  955   0.762   2.049   1.449
  317SOL    HW2  956   0.680   2.070   1.588
  318SOL     OW  957   0.075   2.207   0.033
  318SOL    HW1  958  -0.017   2.179   0.004
  318SOL    HW2  959   0.106   2.284  -0.023
  319SOL     OW  960   0.072   2.028   0.318
  319SOL    HW1  961   0.055   2.111   0.264
  319SOL    HW2  962   0.162   1.991   0.296
  320SOL     OW  963   1.225   2.187   0.449
  320SOL    HW1  964   1.290   2.113   0.438
  320SOL    HW2  965   1.245   2.237   0.533
  321SOL     OW  966   0.594   2.607   0.652
  321SOL    HW1  967   0.644   2.692   0.633
  321SOL    HW2  968   0.506   2.609   0.604
  322SOL     OW  969   1.777   2.204   1.642
  322SOL    HW1  970   1.760   2.235   1.548
  322SOL    HW2  971   1.693   2.167   1.680
  323SOL     OW  972   1.824   2.054   1.227
  323SOL    HW1  973   1.820   1.964   1.271
  323SOL    HW2  974   1.827   2.043   1.128
  324SOL     OW  975   0.428   2.286   0.520
  324SOL    HW1  976   0.458   2.214   0.458
  324SOL    HW2  977   0.389   2.246   0.603
  325SOL     OW  978   1.424   2.076   1.112
  325SOL    HW1  979   1.476   2.011   1.167
  325SOL    HW2  980   1.375   2.139   1.173
  326SOL     OW  981   1.001   1.896   1.154
  326SOL    HW1  982   0.938   1.824   1.123
  326SOL    HW2  983   1.094   1.860   1.154
  327SOL     OW  984   1.300   2.315   0.691
  327SOL    HW1  985   1.241   2.395   0.695
  327SOL    HW2  986   1.315   2.280   0.784
  328SOL     OW  987   1.593   2.083   0.882
  328SOL    HW1  988   1.509   2.082   0.936
  328SOL    HW2  989   1.595   2.166   0.826
  329SOL     OW  990   1.135   2.565   2.579
  329SOL    HW1  991   1.192   2.643   2.554
  329SOL    HW2  992   1.075   2.591   2.655
  330SOL     OW  993   1.755   2.469   2.093
  330SOL    HW1  994   1.743   2.456   1.994
  330SOL    HW2  995   1.725   2.388   2.142
  331SOL     OW  996   0.122   2.505   2.425
  331SOL    HW1  997   0.077   2.417   2.442
  331SOL    HW2  998   0.121   2.559   2.509
  332SOL     OW  999   0.865   2.210   2.057
  332SOL    HW1 1000   0.924   2.273   2.008
  332SOL    HW2 1001   0.884   2.116   2.028
  333SOL     OW 1002   1.400   1.969   2.288
  333SOL    HW1 1003   1.376   1.932   2.198
  333SOL    HW2 1004   1.499   1.985   2.292
  334SOL     OW 1005   0.382   2.562   2.342
  334SOL    HW1 1006   0.427   2.472   2.339
  334SOL    HW2 1007   0.288   2.551   2.375
  335SOL     OW 1008   0.614   1.984   1.979
  335SOL    HW1 1009   0.712   1.962   1.986
  335SOL    HW2 1010   0.583   1.967   1.886
  336SOL     OW 1011   0.297   1.897   2.033
  336SOL    HW1 1012   0.346   1.981   2.012
  336SOL    HW2 1013   0.359   1.832   2.078
  337SOL     OW 1014   0.935   2.098   2.342
  337SOL    HW1 1015   0.887   2.139   2.264
  337SOL    HW2 1016   1.034   2.096   2.323
  338SOL     OW 1017   0.527   2.118   2.190
  338SOL    HW1 1018   0.554   2.059   2.115
  338SOL    HW2 1019   0.527   2.213   2.159
  339SOL     OW 1020   1.622   2.229   2.236
  339SOL    HW1 1021   1.624   2.153   2.300
  339SOL    HW2 1022   1.574   2.306   2.276
  340SOL     OW 1023   1.540   2.136   1.987
  340SOL    HW1 1024   1.479   2.061   2.010
  340SOL    HW2 1025   1.562   2.188   2.070
  341SOL     OW 1026   1.303   2.700   1.904
  341SOL    HW1 1027   1.337   2.607   1.919
  341SOL    HW2 1028   1.321   2.727   1.809
  342SOL     OW 1029   0.815   2.434   2.187
  342SOL    HW1 1030   0.822   2.345   2.141
  342SOL    HW2 1031   0.721   2.468   2.179
  343SOL     OW 1032   1.726   1.997   2.385
  343SOL    HW1 1033   1.799   1.980   2.318
  343SOL    HW2 1034   1.695   1.910   2.423
  344SOL     OW 1035   0.263   2.188   2.582
  344SOL    HW1 1036   0.184   2.239   2.548
  344SOL    HW2 1037   0.254   2.173   2.680
  345SOL     OW 1038   0.075   2.207   1.895
  345SOL    HW1 1039  -0.017   2.179   1.866
  345SOL    HW2 1040   0.106   2.284   1.839
  346SOL     OW 1041   0.072   2.028   2.180
  346SOL    HW1 1042   0.055   2.111   2.126
  346SOL    HW2 1043   0.162   1.991   2.158
  347SOL     OW 1044   1.225   2.187   2.311
  347SOL    HW1 1045   1.290   2.113   2.300
  347SOL    HW2 1046   1.245   2.237   2.395
  348SOL     OW 1047   0.428   2.286   2.382
  348SOL    HW1 1048   0.458   2.214   2.320
  348SOL    HW2 1049   0.389   2.246   2.465
  349SOL     OW 1050   1.352   1.914   2.030
  349SOL    HW1 1051   1.387   1.873   1.946
  349SOL    HW2 1052   1.262   1.876   2.050
  350SOL     OW 1053   2.092   0.628   0.113
  350SOL    HW1 1054   1.999   0.626   0.150
  350SOL    HW2 1055   2.093   0.589   0.021
  351SOL     OW 1056   2.087   0.275   0.996
  351SOL    HW1 1057   2.122   0.258   1.088
  351SOL    HW2 1058   1.999   0.230   0.984
  352SOL     OW 1059   1.881   0.368   0.647
  352SOL    HW1 1060   1.799   0.411   0.686
  352SOL    HW2 1061   1.853   0.295   0.584
  353SOL     OW 1062   2.197   1.435   1.061
  353SOL    HW1 1063   2.119   1.404   1.008
  353SOL    HW2 1064   2.255   1.493   1.004
  354SOL     OW 1065   2.093   1.713   0.483
  354SOL    HW1 1066   2.127   1.790   0.537
  354SOL    HW2 1067   2.137   1.713   0.393
  355SOL     OW 1068   2.092   1.434   0.538
  355SOL    HW1 1069   2.066   1.530   0.538
  355SOL    HW2 1070   2.021   1.380   0.583
  356SOL     OW 1071   2.102   1.091   0.886
  356SOL    HW1 1072   2.116   1.007   0.938
  356SOL    HW2 1073   2.047   1.155   0.941
  357SOL     OW 1074   1.984   0.643   0.563
  357SOL    HW1 1075   1.939   0.555   0.580
  357SOL    HW2 1076   1.983   0.697   0.647
  358SOL     OW 1077   1.889   1.596   0.117
  358SOL    HW1 1078   1.870   1.500   0.138
  358SOL    HW2 1079   1.856   1.654   0.192
  359SOL     OW 1080   1.975   0.737   1.597
  359SOL    HW1 1081   2.063   0.724   1.642
  359SOL    HW2 1082   1.962   0.834   1.575
  360SOL     OW 1083   2.059   0.976   1.264
  360SOL    HW1 1084   2.148   0.931   1.250
  360SOL    HW2 1085   1.986   0.911   1.245
  361SOL     OW 1086   2.460   0.729   0.270
  361SOL    HW1 1087   2.484   0.798   0.202
  361SOL    HW2 1088   2.382   0.762   0.324
  362SOL     OW 1089   1.938   0.811   0.789
  362SOL    HW1 1090   2.037   0.799   0.798
  362SOL    HW2 1091   1.914   0.906   0.810
  363SOL     OW 1092   1.992   1.821   1.571
  363SOL    HW1 1093   1.982   1.806   1.670
  363SOL    HW2 1094   1.906   1.857   1.535
  364SOL     OW 1095   2.213   1.801   0.853
  364SOL    HW1 1096   2.263   1.715   0.859
  364SOL    HW2 1097   2.278   1.878   0.850
  365SOL     OW 1098   2.183   0.943   0.242
  365SOL    HW1 1099   2.265   0.982   0.200
  365SOL    HW2 1100   2.156   0.861   0.193
  366SOL     OW 1101   2.323   1.266   1.727
  366SOL    HW1 1102   2.273   1.267   1.641
  366SOL    HW2 1103   2.260   1.248   1.803
  367SOL     OW 1104   2.064   0.285   1.498
  367SOL    HW1 1105   1.984   0.345   1.485
  367SOL    HW2 1106   2.054   0.236   1.584
  368SOL     OW 1107   2.111   1.785   1.241
  368SOL    HW1 1108   2.168   1.720   1.291
  368SOL    HW2 1109   2.095   1.752   1.148
  369SOL     OW 1110   2.244   0.700   0.480
  369SOL    HW1 1111   2.289   0.610   0.477
  369SOL    HW2 1112   2.150   0.689   0.513
  370SOL     OW 1113   2.159   0.035   0.171
  370SOL    HW1 1114   2.208   0.119   0.150
  370SOL    HW2 1115   2.221  -0.030   0.216
  371SOL     OW 1116   1.940   0.556   1.386
  371SOL    HW1 1117   2.032   0.555   1.345
  371SOL    HW2 1118   1.934   0.630   1.453
  372SOL     OW 1119   2.272   0.813   1.251
  372SOL    HW1 1120   2.358   0.825   1.301
  372SOL    HW2 1121   2.230   0.726   1.278
  373SOL     OW 1122   1.926   1.564   1.331
  373SOL    HW1 1123   1.880   1.646   1.297
  373SOL    HW2 1124   2.024   1.583   1.340
  374SOL     OW 1125   2.229   1.100   0.501
  374SOL    HW1 1126   2.222   1.183   0.445
  374SOL    HW2 1127   2.233   1.020   0.441
  375SOL     OW 1128   2.428   0.537   0.865
  375SOL    HW1 1129   2.440   0.603   0.791
  375SOL    HW2 1130   2.474   0.571   0.948
  376SOL     OW 1131   2.264   0.751   1.598
  376SOL    HW1 1132   2.332   0.806   1.551
  376SOL    HW2 1133   2.304   0.663   1.625
  377SOL     OW 1134   2.435   0.870   1.029
  377SOL    HW1 1135   2.479   0.959   1.020
  377SOL    HW2 1136   2.372   0.870   1.106
  378SOL     OW 1137   2.169   0.213   1.231
  378SOL    HW1 1138   2.146   0.250   1.321
  378SOL    HW2 1139   2.139   0.118   1.225
  379SOL     OW 1140   1.899   1.310   1.282
  379SOL    HW1 1141   1.952   1.261   1.350
  379SOL    HW2 1142   1.921   1.408   1.287
  380SOL     OW 1143   2.169   0.063   0.618
  380SOL    HW1 1144   2.158   0.157   0.651
  380SOL    HW2 1145   2.164   0.000   0.695
  381SOL     OW 1146   2.181   0.810   0.949
  381SOL    HW1 1147   2.274   0.846   0.954
  381SOL    HW2 1148   2.175   0.725   1.001
  382SOL     OW 1149   2.201   0.509   1.006
  382SOL    HW1 1150   2.149   0.426   0.989
  382SOL    HW2 1151   2.278   0.514   0.942
  383SOL     OW 1152   1.870   1.326   0.200
  383SOL    HW1 1153   1.777   1.347   0.169
  383SOL    HW2 1154   1.880   1.227   0.213
  384SOL     OW 1155   1.950   1.801   0.927
  384SOL    HW1 1156   1.908   1.715   0.900
  384SOL    HW2 1157   2.044   1.804   0.893
  385SOL     OW 1158   1.902   0.544   1.114
  385SOL    HW1 1159   1.987   0.511   1.073
  385SOL    HW2 1160   1.915   0.559   1.212
  386SOL     OW 1161   2.051   0.520   1.722
  386SOL    HW1 1162   2.110   0.480   1.652
  386SOL    HW2 1163   1.993   0.591   1.681
  387SOL     OW 1164   2.114   1.564   1.744
  387SOL    HW1 1165   2.084   1.621   1.820
  387SOL    HW2 1166   2.107   1.467   1.770
  388SOL     OW 1167   2.021   1.137   1.466
  388SOL    HW1 1168   2.043   1.076   1.542
  388SOL    HW2 1169   2.031   1.088   1.380
  389SOL     OW 1170   1.945   1.258   1.022
  389SOL    HW1 1171   1.940   1.257   1.122
  389SOL    HW2 1172   1.862   1.217   0.984
  390SOL     OW 1173   1.992   1.794   1.851
  390SOL    HW1 1174   1.951   1.720   1.904
  390SOL    HW2 1175   2.056   1.845   1.909
  391SOL     OW 1176   2.125   0.326   0.720
  391SOL    HW1 1177   2.046   0.377   0.686
  391SOL    HW2 1178   2.116   0.311   0.818
  392SOL     OW 1179   2.234   1.288   1.490
  392SOL    HW1 1180   2.221   1.381   1.456
  392SOL    HW2 1181   2.150   1.236   1.477
  393SOL     OW 1182   2.117   1.348   0.290
  393SOL    HW1 1183   2.021   1.349   0.263
  393SOL    HW2 1184   2.129   1.401   0.374
  394SOL     OW 1185   1.967   1.013   1.726
  394SOL    HW1 1186   1.890   0.980   1.780
  394SOL    HW2 1187   2.052   0.983   1.768
  395SOL     OW 1188   1.937   0.345   0.033
  395SOL    HW1 1189   1.845   0.317   0.004
  395SOL    HW2 1190   1.968   0.422  -0.023
  396SOL     OW 1191   1.934   0.166   0.318
  396SOL    HW1 1192   1.917   0.249   0.264
  396SOL    HW2 1193   2.024   0.129   0.296
  397SOL     OW 1194   2.252   1.741   1.560
  397SOL    HW1 1195   2.161   1.782   1.558
  397SOL    HW2 1196   2.245   1.647   1.592
  398SOL     OW 1197   2.083   1.314   1.844
  398SOL    HW1 1198   2.018   1.241   1.823
  398SOL    HW2 1199   2.087   1.328   1.942
  399SOL     OW 1200   1.941   1.240   0.653
  399SOL    HW1 1201   1.940   1.193   0.741
  399SOL    HW2 1202   2.023   1.212   0.602
  400SOL     OW 1203   2.179   0.547   1.280
  400SOL    HW1 1204   2.217   0.488   1.352
  400SOL    HW2 1205   2.219   0.521   1.192
  401SOL     OW 1206   2.674   1.586   0.687
  401SOL    HW1 1207   2.706   1.596   0.593
  401SOL    HW2 1208   2.595   1.524   0.689
  402SOL     OW 1209   1.901   1.077   0.300
  402SOL    HW1 1210   2.000   1.066   0.291
  402SOL    HW2 1211   1.861   0.991   0.332
  403SOL     OW 1212   2.092   0.628   1.975
  403SOL    HW1 1213   1.999   0.626   2.012
  403SOL    HW2 1214   2.093   0.589   1.883
  404SOL     OW 1215   2.093   1.713   2.345
  404SOL    HW1 1216   2.127   1.790   2.399
  404SOL    HW2 1217   2.137   1.713   2.255
  405SOL     OW 1218   2.092   1.434   2.400
  405SOL    HW1 1219   2.066   1.530   2.400
  405SOL    HW2 1220   2.021   1.380   2.445
  406SOL     OW 1221   1.889   1.596   1.979
  406SOL    HW1 1222   1.870   1.500   2.000
  406SOL    HW2 1223   1.856   1.654   2.054
  407SOL     OW 1224   2.460   0.729   2.132
  407SOL    HW1 1225   2.484   0.798   2.064
  407SOL    HW2 1226   2.382   0.762   2.186
  408SOL     OW 1227   2.183   0.943   2.104
  408SOL    HW1 1228   2.265   0.982   2.062
  408SOL    HW2 1229   2.156   0.861   2.055
  409SOL     OW 1230   2.159   0.035   2.033
  409SOL    HW1 1231   2.208   0.119   2.012
  409SOL    HW2 1232   2.221  -0.030   2.078
  410SOL     OW 1233   2.229   1.100   2.363
  410SOL    HW1 1234   2.222   1.183   2.307
  410SOL    HW2 1235   2.233   1.020   2.303
  411SOL     OW 1236   1.870   1.326   2.062
  411SOL    HW1 1237   1.777   1.347   2.031
  411SOL    HW2 1238   1.880   1.227   2.075
  412SOL     OW 1239   2.125   0.326   2.582
  412SOL    HW1 1240   2.046   0.377   2.548
  412SOL    HW2 1241   2.116   0.311   2.680
  413SOL     OW 1242   2.117   1.348   2.152
  413SOL    HW1 1243   2.021   1.349   2.125
  413SOL    HW2 1244   2.129   1.401   2.236
  414SOL     OW 1245   1.937   0.345   1.895
  414SOL    HW1 1246   1.845   0.317   1.866
  414SOL    HW2 1247   1.968   0.422   1.839
  415SOL     OW 1248   1.934   0.166   2.180
  415SOL    HW1 1249   1.917   0.249   2.126
  415SOL    HW2 1250   2.024   0.129   2.158
  416SOL     OW 1251   2.674   1.586   2.549
  416SOL    HW1 1252   2.706   1.596   2.455
  416SOL    HW2 1253   2.595   1.524   2.551
  417SOL     OW 1254   1.901   1.077   2.162
  417SOL    HW1 1255   2.000   1.066   2.153
  417SOL    HW2 1256   1.861   0.991   2.194
  418SOL     OW 1257   2.087   2.137   0.996
  418SOL    HW1 1258   2.122   2.120   1.088
  418SOL    HW2 1259   1.999   2.092   0.984
  419SOL     OW 1260   1.881   2.230   0.647
  419SOL    HW1 1261   1.799   2.273   0.686
  419SOL    HW2 1262   1.853   2.157   0.584
  420SOL     OW 1263   1.984   2.505   0.563
  420SOL    HW1 1264   1.939   2.417   0.580
  420SOL    HW2 1265   1.983   2.559   0.647
  421SOL     OW 1266   2.064   2.147   1.498
  421SOL    HW1 1267   1.984   2.207   1.485
  421SOL    HW2 1268   2.054   2.098   1.584
  422SOL     OW 1269   2.244   2.562   0.480
  422SOL    HW1 1270   2.289   2.472   0.477
  422SOL    HW2 1271   2.150   2.551   0.513
  423SOL     OW 1272   2.159   1.897   0.171
  423SOL    HW1 1273   2.208   1.981   0.150
  423SOL    HW2 1274   2.221   1.832   0.216
  424SOL     OW 1275   1.940   2.418   1.386
  424SOL    HW1 1276   2.032   2.417   1.345
  424SOL    HW2 1277   1.934   2.492   1.453
  425SOL     OW 1278   2.423   2.084   1.147
  425SOL    HW1 1279   2.461   2.000   1.184
  425SOL    HW2 1280   2.335   2.103   1.191
  426SOL     OW 1281   2.428   2.399   0.865
  426SOL    HW1 1282   2.440   2.465   0.791
  426SOL    HW2 1283   2.474   2.433   0.948
  427SOL     OW 1284   2.264   2.613   1.598
  427SOL    HW1 1285   2.332   2.668   1.551
  427SOL    HW2 1286   2.304   2.525   1.625
  428SOL     OW 1287   2.366   1.912   1.740
  428SOL    HW1 1288   2.324   1.855   1.670
  428SOL    HW2 1289   2.300   1.981   1.772
  429SOL     OW 1290   2.169   2.075   1.231
  429SOL    HW1 1291   2.146   2.112   1.321
  429SOL    HW2 1292   2.139   1.980   1.225
  430SOL     OW 1293   2.169   1.925   0.618
  430SOL    HW1 1294   2.158   2.019   0.651
  430SOL    HW2 1295   2.164   1.862   0.695
  431SOL     OW 1296   2.201   2.371   1.006
  431SOL    HW1 1297   2.149   2.288   0.989
  431SOL    HW2 1298   2.278   2.376   0.942
  432SOL     OW 1299   2.051   2.382   1.722
  432SOL    HW1 1300   2.110   2.342   1.652
  432SOL    HW2 1301   1.993   2.453   1.681
  433SOL     OW 1302   2.125   2.188   0.720
  433SOL    HW1 1303   2.046   2.239   0.686
  433SOL    HW2 1304   2.116   2.173   0.818
  434SOL     OW 1305   1.937   2.207   0.033
  434SOL    HW1 1306   1.845   2.179   0.004
  434SOL    HW2 1307   1.968   2.284  -0.023
  435SOL     OW 1308   1.934   2.028   0.318
  435SOL    HW1 1309   1.917   2.111   0.264
  435SOL    HW2 1310   2.024   1.991   0.296
  436SOL     OW 1311   1.984   2.505   2.425
  436SOL    HW1 1312   1.939   2.417   2.442
  436SOL    HW2 1313   1.983   2.559   2.509
  437SOL     OW 1314   2.244   2.562   2.342
  437SOL    HW1 1315   2.289   2.472   2.339
  437SOL    HW2 1316   2.150   2.551   2.375
  438SOL     OW 1317   2.159   1.897   2.033
  438SOL    HW1 1318   2.208   1.981   2.012
  438SOL    HW2 1319   2.221   1.832   2.078
  439SOL     OW 1320   2.125   2.188   2.582
  439SOL    HW1 1321   2.046   2.239   2.548
  439SOL    HW2 1322   2.116   2.173   2.680
  440SOL     OW 1323   1.937   2.207   1.895
  440SOL    HW1 1324   1.845   2.179   1.866
  440SOL    HW2 1325   1.968   2.284   1.839
  441SOL     OW 1326   1.934   2.028   2.180
  441SOL    HW1 1327   1.917   2.111   2.126
  441SOL    HW2 1328   2.024   1.991   2.158
   2.36922   2.36922   2.36922
