; mobley_4630641_GMX.itp created by acpype (v: 2023.10.27) on Thu May 14 13:25:31 2026

[ atomtypes ]
;name   bond_type     mass     charge   ptype   sigma         epsilon       Amb
 c3       c3          0.00000  0.00000   A     3.39771e-01   4.51035e-01 ; 1.91  0.1078
 os       os          0.00000  0.00000   A     3.15610e-01   3.03758e-01 ; 1.77  0.0726
 h1       h1          0.00000  0.00000   A     2.42200e-01   8.70272e-02 ; 1.36  0.0208

[ moleculetype ]
;name            nrexcl
 mobley_4630641   3

[ atoms ]
;   nr  type  resi  res  atom  cgnr     charge      mass       ; qtot   bond_type
     1   c3     1   MOL    C1    1     0.117700     12.01000 ; qtot 0.118
     2   c3     1   MOL    C2    2     0.117700     12.01000 ; qtot 0.235
     3   c3     1   MOL    C3    3     0.123400     12.01000 ; qtot 0.359
     4   c3     1   MOL    C4    4     0.123400     12.01000 ; qtot 0.482
     5   os     1   MOL    O1    5    -0.425599     16.00000 ; qtot 0.057
     6   os     1   MOL    O2    6    -0.425599     16.00000 ; qtot -0.369
     7   h1     1   MOL    H1    7     0.033033      1.00800 ; qtot -0.336
     8   h1     1   MOL    H2    8     0.033033      1.00800 ; qtot -0.303
     9   h1     1   MOL    H3    9     0.033033      1.00800 ; qtot -0.270
    10   h1     1   MOL    H4   10     0.033033      1.00800 ; qtot -0.237
    11   h1     1   MOL    H5   11     0.033033      1.00800 ; qtot -0.204
    12   h1     1   MOL    H6   12     0.033033      1.00800 ; qtot -0.171
    13   h1     1   MOL    H7   13     0.042700      1.00800 ; qtot -0.128
    14   h1     1   MOL    H8   14     0.042700      1.00800 ; qtot -0.085
    15   h1     1   MOL    H9   15     0.042700      1.00800 ; qtot -0.043
    16   h1     1   MOL   H10   16     0.042700      1.00800 ; qtot -0.000

[ bonds ]
;   ai     aj funct   r             k
     1      5   1    1.4273e-01    2.3620e+05 ;     C1 - O1    
     1      7   1    1.0969e-01    2.8804e+05 ;     C1 - H1    
     1      8   1    1.0969e-01    2.8804e+05 ;     C1 - H2    
     1      9   1    1.0969e-01    2.8804e+05 ;     C1 - H3    
     2      6   1    1.4273e-01    2.3620e+05 ;     C2 - O2    
     2     10   1    1.0969e-01    2.8804e+05 ;     C2 - H4    
     2     11   1    1.0969e-01    2.8804e+05 ;     C2 - H5    
     2     12   1    1.0969e-01    2.8804e+05 ;     C2 - H6    
     3      4   1    1.5354e-01    1.9154e+05 ;     C3 - C4    
     3      5   1    1.4273e-01    2.3620e+05 ;     C3 - O1    
     3     13   1    1.0969e-01    2.8804e+05 ;     C3 - H7    
     3     14   1    1.0969e-01    2.8804e+05 ;     C3 - H8    
     4      6   1    1.4273e-01    2.3620e+05 ;     C4 - O2    
     4     15   1    1.0969e-01    2.8804e+05 ;     C4 - H9    
     4     16   1    1.0969e-01    2.8804e+05 ;     C4 - H10   

[ pairs ]
;   ai     aj    funct
     1      4      1 ;     C1 - C4    
     1     13      1 ;     C1 - H7    
     1     14      1 ;     C1 - H8    
     2      3      1 ;     C2 - C3    
     2     15      1 ;     C2 - H9    
     2     16      1 ;     C2 - H10   
     4     10      1 ;     C4 - H4    
     4     11      1 ;     C4 - H5    
     4     12      1 ;     C4 - H6    
     5      6      1 ;     O1 - O2    
     5     15      1 ;     O1 - H9    
     5     16      1 ;     O1 - H10   
     6     13      1 ;     O2 - H7    
     6     14      1 ;     O2 - H8    
     7      3      1 ;     H1 - C3    
     8      3      1 ;     H2 - C3    
     9      3      1 ;     H3 - C3    
    13     15      1 ;     H7 - H9    
    13     16      1 ;     H7 - H10   
    14     15      1 ;     H8 - H9    
    14     16      1 ;     H8 - H10   

[ angles ]
;   ai     aj     ak    funct   theta         cth
     1      5      3      1    1.1360e+02    7.3915e+02 ;     C1 - O1     - C3    
     2      6      4      1    1.1360e+02    7.3915e+02 ;     C2 - O2     - C4    
     3      4      6      1    1.0762e+02    6.4802e+02 ;     C3 - C4     - O2    
     3      4     15      1    1.0959e+02    3.6217e+02 ;     C3 - C4     - H9    
     3      4     16      1    1.0959e+02    3.6217e+02 ;     C3 - C4     - H10   
     4      3      5      1    1.0762e+02    6.4802e+02 ;     C4 - C3     - O1    
     4      3     13      1    1.0959e+02    3.6217e+02 ;     C4 - C3     - H7    
     4      3     14      1    1.0959e+02    3.6217e+02 ;     C4 - C3     - H8    
     5      1      7      1    1.1034e+02    4.7028e+02 ;     O1 - C1     - H1    
     5      1      8      1    1.1034e+02    4.7028e+02 ;     O1 - C1     - H2    
     5      1      9      1    1.1034e+02    4.7028e+02 ;     O1 - C1     - H3    
     5      3     13      1    1.1034e+02    4.7028e+02 ;     O1 - C3     - H7    
     5      3     14      1    1.1034e+02    4.7028e+02 ;     O1 - C3     - H8    
     6      2     10      1    1.1034e+02    4.7028e+02 ;     O2 - C2     - H4    
     6      2     11      1    1.1034e+02    4.7028e+02 ;     O2 - C2     - H5    
     6      2     12      1    1.1034e+02    4.7028e+02 ;     O2 - C2     - H6    
     6      4     15      1    1.1034e+02    4.7028e+02 ;     O2 - C4     - H9    
     6      4     16      1    1.1034e+02    4.7028e+02 ;     O2 - C4     - H10   
     7      1      8      1    1.0855e+02    2.9824e+02 ;     H1 - C1     - H2    
     7      1      9      1    1.0855e+02    2.9824e+02 ;     H1 - C1     - H3    
     8      1      9      1    1.0855e+02    2.9824e+02 ;     H2 - C1     - H3    
    10      2     11      1    1.0855e+02    2.9824e+02 ;     H4 - C2     - H5    
    10      2     12      1    1.0855e+02    2.9824e+02 ;     H4 - C2     - H6    
    11      2     12      1    1.0855e+02    2.9824e+02 ;     H5 - C2     - H6    
    13      3     14      1    1.0855e+02    2.9824e+02 ;     H7 - C3     - H8    
    15      4     16      1    1.0855e+02    2.9824e+02 ;     H9 - C4     - H10   

[ dihedrals ] ; propers
; for gromacs 4.5 or higher, using funct 9
;    i      j      k      l   func   phase     kd      pn
     1      5      3      4      9     0.00   0.33472   2 ;     C1-    O1-    C3-    C4
     1      5      3      4      9     0.00   3.13800   3 ;     C1-    O1-    C3-    C4
     1      5      3      4      9   180.00   3.68192   1 ;     C1-    O1-    C3-    C4
     1      5      3     13      9     0.00   1.41001   3 ;     C1-    O1-    C3-    H7
     1      5      3     14      9     0.00   1.41001   3 ;     C1-    O1-    C3-    H8
     2      6      4      3      9     0.00   0.33472   2 ;     C2-    O2-    C4-    C3
     2      6      4      3      9     0.00   3.13800   3 ;     C2-    O2-    C4-    C3
     2      6      4      3      9   180.00   3.68192   1 ;     C2-    O2-    C4-    C3
     2      6      4     15      9     0.00   1.41001   3 ;     C2-    O2-    C4-    H9
     2      6      4     16      9     0.00   1.41001   3 ;     C2-    O2-    C4-   H10
     4      6      2     10      9     0.00   1.41001   3 ;     C4-    O2-    C2-    H4
     4      6      2     11      9     0.00   1.41001   3 ;     C4-    O2-    C2-    H5
     4      6      2     12      9     0.00   1.41001   3 ;     C4-    O2-    C2-    H6
     5      3      4      6      9     0.00   0.75312   1 ;     O1-    C3-    C4-    O2
     5      3      4      6      9     0.00   2.09200   3 ;     O1-    C3-    C4-    O2
     5      3      4      6      9     0.00   3.76560   2 ;     O1-    C3-    C4-    O2
     5      3      4     15      9     0.00   0.00000   0 ;     O1-    C3-    C4-    H9
     5      3      4     15      9     0.00   1.04600   1 ;     O1-    C3-    C4-    H9
     5      3      4     16      9     0.00   0.00000   0 ;     O1-    C3-    C4-   H10
     5      3      4     16      9     0.00   1.04600   1 ;     O1-    C3-    C4-   H10
     6      4      3     13      9     0.00   0.00000   0 ;     O2-    C4-    C3-    H7
     6      4      3     13      9     0.00   1.04600   1 ;     O2-    C4-    C3-    H7
     6      4      3     14      9     0.00   0.00000   0 ;     O2-    C4-    C3-    H8
     6      4      3     14      9     0.00   1.04600   1 ;     O2-    C4-    C3-    H8
     7      1      5      3      9     0.00   1.41001   3 ;     H1-    C1-    O1-    C3
     8      1      5      3      9     0.00   1.41001   3 ;     H2-    C1-    O1-    C3
     9      1      5      3      9     0.00   1.41001   3 ;     H3-    C1-    O1-    C3
    13      3      4     15      9     0.00   0.65084   3 ;     H7-    C3-    C4-    H9
    13      3      4     16      9     0.00   0.65084   3 ;     H7-    C3-    C4-   H10
    14      3      4     15      9     0.00   0.65084   3 ;     H8-    C3-    C4-    H9
    14      3      4     16      9     0.00   0.65084   3 ;     H8-    C3-    C4-   H10
