mobley_3378420_GMX.gro created by acpype (v: 2023.10.27) on Thu May 14 13:46:13 2026
 3258
    1MOL     C1    1   1.670   1.341   2.067
    1MOL     C2    2   1.614   1.352   1.926
    1MOL     C3    3   1.645   1.489   1.865
    1MOL     C4    4   1.599   1.502   1.719
    1MOL     C5    5   1.632   1.634   1.650
    1MOL     C6    6   1.586   1.640   1.504
    1MOL     C7    7   1.624   1.774   1.439
    1MOL     C8    8   1.580   1.779   1.293
    1MOL     C9    9   1.615   1.912   1.227
    1MOL     O1   10   1.571   1.912   1.092
    1MOL     H1   11   1.646   1.243   2.110
    1MOL     H2   12   1.778   1.354   2.068
    1MOL     H3   13   1.626   1.418   2.133
    1MOL     H4   14   1.506   1.335   1.930
    1MOL     H5   15   1.658   1.273   1.864
    1MOL     H6   16   1.600   1.568   1.925
    1MOL     H7   17   1.753   1.506   1.867
    1MOL     H8   18   1.490   1.486   1.715
    1MOL     H9   19   1.644   1.420   1.661
    1MOL    H10   20   1.583   1.715   1.706
    1MOL    H11   21   1.739   1.654   1.656
    1MOL    H12   22   1.477   1.627   1.499
    1MOL    H13   23   1.631   1.559   1.447
    1MOL    H14   24   1.577   1.856   1.494
    1MOL    H15   25   1.732   1.788   1.447
    1MOL    H16   26   1.630   1.697   1.238
    1MOL    H17   27   1.472   1.763   1.286
    1MOL    H18   28   1.565   1.994   1.279
    1MOL    H19   29   1.723   1.929   1.229
    1MOL    H20   30   1.474   1.912   1.094
    2SOL     OW   31   0.230   0.628   0.113
    2SOL    HW1   32   0.137   0.626   0.150
    2SOL    HW2   33   0.231   0.589   0.021
    3SOL     OW   34   0.225   0.275   0.996
    3SOL    HW1   35   0.260   0.258   1.088
    3SOL    HW2   36   0.137   0.230   0.984
    4SOL     OW   37   0.019   0.368   0.647
    4SOL    HW1   38  -0.063   0.411   0.686
    4SOL    HW2   39  -0.009   0.295   0.584
    5SOL     OW   40   0.569   1.275   1.165
    5SOL    HW1   41   0.476   1.268   1.128
    5SOL    HW2   42   0.580   1.364   1.209
    6SOL     OW   43   1.555   1.511   0.703
    6SOL    HW1   44   1.498   1.495   0.784
    6SOL    HW2   45   1.496   1.521   0.623
    7SOL     OW   46   1.135   0.703   0.717
    7SOL    HW1   47   1.192   0.781   0.692
    7SOL    HW2   48   1.075   0.729   0.793
    8SOL     OW   49   1.755   0.607   0.231
    8SOL    HW1   50   1.743   0.594   0.132
    8SOL    HW2   51   1.725   0.526   0.280
    9SOL     OW   52   0.768   1.144   1.023
    9SOL    HW1   53   0.690   1.161   1.083
    9SOL    HW2   54   0.802   1.231   0.987
   10SOL     OW   55   0.850   0.798   1.823
   10SOL    HW1   56   0.846   0.874   1.888
   10SOL    HW2   57   0.872   0.834   1.732
   11SOL     OW   58   0.685   1.012   0.665
   11SOL    HW1   59   0.754   0.996   0.735
   11SOL    HW2   60   0.612   1.069   0.703
   12SOL     OW   61   0.686   1.161   1.803
   12SOL    HW1   62   0.746   1.240   1.817
   12SOL    HW2   63   0.600   1.192   1.762
   13SOL     OW   64   0.335   1.435   1.061
   13SOL    HW1   65   0.257   1.404   1.008
   13SOL    HW2   66   0.393   1.493   1.004
   14SOL     OW   67   1.460   1.505   1.339
   14SOL    HW1   68   1.484   1.599   1.365
   14SOL    HW2   69   1.444   1.451   1.421
   15SOL     OW   70   0.438   0.392   1.499
   15SOL    HW1   71   0.520   0.336   1.508
   15SOL    HW2   72   0.357   0.334   1.503
   16SOL     OW   73   1.603   0.447   0.737
   16SOL    HW1   74   1.529   0.493   0.687
   16SOL    HW2   75   1.654   0.515   0.790
   17SOL     OW   76   0.231   1.713   0.483
   17SOL    HW1   77   0.265   1.790   0.537
   17SOL    HW2   78   0.275   1.713   0.393
   18SOL     OW   79   1.127   1.341   1.690
   18SOL    HW1   80   1.174   1.341   1.778
   18SOL    HW2   81   1.079   1.254   1.679
   19SOL     OW   82   0.230   1.434   0.538
   19SOL    HW1   83   0.204   1.530   0.538
   19SOL    HW2   84   0.159   1.380   0.583
   20SOL     OW   85   0.240   1.091   0.886
   20SOL    HW1   86   0.254   1.007   0.938
   20SOL    HW2   87   0.185   1.155   0.941
   21SOL     OW   88   0.620   1.786   1.439
   21SOL    HW1   89   0.528   1.769   1.474
   21SOL    HW2   90   0.648   1.878   1.465
   22SOL     OW   91   0.606   0.964   0.123
   22SOL    HW1   92   0.613   1.048   0.069
   22SOL    HW2   93   0.652   0.977   0.211
   23SOL     OW   94   1.594   0.114   1.480
   23SOL    HW1   95   1.576   0.181   1.408
   23SOL    HW2   96   1.591   0.160   1.569
   24SOL     OW   97   0.122   0.643   0.563
   24SOL    HW1   98   0.077   0.555   0.580
   24SOL    HW2   99   0.121   0.697   0.647
   25SOL     OW  100   1.842   1.767   0.359
   25SOL    HW1  101   1.896   1.738   0.439
   25SOL    HW2  102   1.872   1.857   0.330
   26SOL     OW  103   0.027   1.596   0.117
   26SOL    HW1  104   0.008   1.500   0.138
   26SOL    HW2  105  -0.006   1.654   0.192
   27SOL     OW  106   1.689   0.922   0.612
   27SOL    HW1  107   1.784   0.893   0.620
   27SOL    HW2  108   1.681   0.987   0.537
   28SOL     OW  109   1.641   1.108   0.432
   28SOL    HW1  110   1.727   1.110   0.380
   28SOL    HW2  111   1.655   1.155   0.520
   29SOL     OW  112   0.113   0.737   1.597
   29SOL    HW1  113   0.201   0.724   1.642
   29SOL    HW2  114   0.100   0.834   1.575
   30SOL     OW  115   0.613   1.365   0.726
   30SOL    HW1  116   0.564   1.278   0.735
   30SOL    HW2  117   0.590   1.408   0.639
   31SOL     OW  118   1.293   1.228   1.423
   31SOL    HW1  119   1.330   1.155   1.365
   31SOL    HW2  120   1.345   1.233   1.508
   32SOL     OW  121   0.809   0.004   0.502
   32SOL    HW1  122   0.849   0.095   0.493
   32SOL    HW2  123   0.709   0.012   0.508
   33SOL     OW  124   0.197   0.976   1.264
   33SOL    HW1  125   0.286   0.931   1.250
   33SOL    HW2  126   0.124   0.911   1.245
   34SOL     OW  127   1.525   0.999   0.190
   34SOL    HW1  128   1.462   0.923   0.203
   34SOL    HW2  129   1.573   1.017   0.276
   35SOL     OW  130   1.187   1.792   1.616
   35SOL    HW1  131   1.211   1.852   1.540
   35SOL    HW2  132   1.194   1.697   1.586
   36SOL     OW  133   0.317   0.251   1.801
   36SOL    HW1  134   0.388   0.322   1.807
   36SOL    HW2  135   0.229   0.290   1.829
   37SOL     OW  136   1.466   1.417   0.953
   37SOL    HW1  137   1.407   1.423   1.033
   37SOL    HW2  138   1.451   1.329   0.907
   38SOL     OW  139   1.667   1.714   0.572
   38SOL    HW1  140   1.626   1.691   0.484
   38SOL    HW2  141   1.649   1.640   0.637
   39SOL     OW  142   0.598   0.729   0.270
   39SOL    HW1  143   0.622   0.798   0.202
   39SOL    HW2  144   0.520   0.762   0.324
   40SOL     OW  145   1.281   0.345   0.944
   40SOL    HW1  146   1.195   0.295   0.931
   40SOL    HW2  147   1.343   0.291   1.000
   41SOL     OW  148   1.576   1.662   0.307
   41SOL    HW1  149   1.665   1.708   0.310
   41SOL    HW2  150   1.555   1.638   0.212
   42SOL     OW  151   0.807   0.605   1.465
   42SOL    HW1  152   0.760   0.602   1.554
   42SOL    HW2  153   0.756   0.550   1.399
   43SOL     OW  154   1.394   0.469   1.674
   43SOL    HW1  155   1.374   0.512   1.762
   43SOL    HW2  156   1.472   0.407   1.683
   44SOL     OW  157   0.973   0.890   1.572
   44SOL    HW1  158   1.019   0.806   1.543
   44SOL    HW2  159   0.917   0.924   1.497
   45SOL     OW  160   0.991   0.410   1.242
   45SOL    HW1  161   0.914   0.444   1.296
   45SOL    HW2  162   0.957   0.359   1.163
   46SOL     OW  163   1.041   0.701   0.429
   46SOL    HW1  164   1.067   0.697   0.525
   46SOL    HW2  165   0.956   0.650   0.415
   47SOL     OW  166   0.076   0.811   0.789
   47SOL    HW1  167   0.175   0.799   0.798
   47SOL    HW2  168   0.052   0.906   0.810
   48SOL     OW  169   0.130   1.821   1.571
   48SOL    HW1  170   0.120   1.806   1.670
   48SOL    HW2  171   0.044   1.857   1.535
   49SOL     OW  172   0.865   0.348   0.195
   49SOL    HW1  173   0.924   0.411   0.146
   49SOL    HW2  174   0.884   0.254   0.166
   50SOL     OW  175   1.719   0.585   1.831
   50SOL    HW1  176   1.693   0.674   1.795
   50SOL    HW2  177   1.717   0.517   1.758
   51SOL     OW  178   1.362   1.144   0.545
   51SOL    HW1  179   1.445   1.115   0.497
   51SOL    HW2  180   1.313   1.211   0.489
   52SOL     OW  181   0.550   0.196   0.885
   52SOL    HW1  182   0.545   0.191   0.985
   52SOL    HW2  183   0.552   0.292   0.856
   53SOL     OW  184   1.008   1.456   0.477
   53SOL    HW1  185   0.962   1.528   0.425
   53SOL    HW2  186   1.004   1.476   0.575
   54SOL     OW  187   0.351   1.801   0.853
   54SOL    HW1  188   0.401   1.715   0.859
   54SOL    HW2  189   0.416   1.878   0.850
   55SOL     OW  190   1.795   1.066   0.873
   55SOL    HW1  191   1.733   1.051   0.797
   55SOL    HW2  192   1.743   1.077   0.958
   56SOL     OW  193   1.227   1.550   1.506
   56SOL    HW1  194   1.233   1.473   1.570
   56SOL    HW2  195   1.175   1.524   1.426
   57SOL     OW  196   0.321   0.943   0.242
   57SOL    HW1  197   0.403   0.982   0.200
   57SOL    HW2  198   0.294   0.861   0.193
   58SOL     OW  199   1.458   0.735   0.728
   58SOL    HW1  200   1.453   0.670   0.803
   58SOL    HW2  201   1.538   0.794   0.741
   59SOL     OW  202   0.461   1.266   1.727
   59SOL    HW1  203   0.411   1.267   1.641
   59SOL    HW2  204   0.398   1.248   1.803
   60SOL     OW  205   1.111   1.776   0.237
   60SOL    HW1  206   1.051   1.714   0.287
   60SOL    HW2  207   1.142   1.732   0.152
   61SOL     OW  208   0.202   0.285   1.498
   61SOL    HW1  209   0.122   0.345   1.485
   61SOL    HW2  210   0.192   0.236   1.584
   62SOL     OW  211   1.632   1.377   0.081
   62SOL    HW1  212   1.600   1.471   0.071
   62SOL    HW2  213   1.556   1.314   0.069
   63SOL     OW  214   0.464   1.743   0.323
   63SOL    HW1  215   0.497   1.782   0.409
   63SOL    HW2  216   0.540   1.736   0.258
   64SOL     OW  217   1.400   0.107   0.426
   64SOL    HW1  218   1.376   0.070   0.336
   64SOL    HW2  219   1.499   0.123   0.430
   65SOL     OW  220   0.249   1.785   1.241
   65SOL    HW1  221   0.306   1.720   1.291
   65SOL    HW2  222   0.233   1.752   1.148
   66SOL     OW  223   0.940   1.698   0.904
   66SOL    HW1  224   1.020   1.641   0.925
   66SOL    HW2  225   0.891   1.658   0.827
   67SOL     OW  226   0.382   0.700   0.480
   67SOL    HW1  227   0.427   0.610   0.477
   67SOL    HW2  228   0.288   0.689   0.513
   68SOL     OW  229   1.547   0.222   1.729
   68SOL    HW1  230   1.542   0.259   1.821
   68SOL    HW2  231   1.475   0.153   1.717
   69SOL     OW  232   0.614   0.122   0.117
   69SOL    HW1  233   0.712   0.100   0.124
   69SOL    HW2  234   0.583   0.105   0.024
   70SOL     OW  235   0.781   0.264   1.749
   70SOL    HW1  236   0.848   0.203   1.792
   70SOL    HW2  237   0.708   0.283   1.814
   71SOL     OW  238   0.888   1.514   1.195
   71SOL    HW1  239   0.865   1.489   1.101
   71SOL    HW2  240   0.949   1.445   1.234
   72SOL     OW  241   1.351   0.590   1.433
   72SOL    HW1  242   1.379   0.547   1.518
   72SOL    HW2  243   1.376   0.686   1.434
   73SOL     OW  244   0.803   1.402   0.924
   73SOL    HW1  245   0.893   1.416   0.882
   73SOL    HW2  246   0.732   1.404   0.853
   74SOL     OW  247   0.922   0.503   0.899
   74SOL    HW1  248   0.897   0.494   0.803
   74SOL    HW2  249   0.970   0.421   0.930
   75SOL     OW  250   0.539   0.064   0.512
   75SOL    HW1  251   0.458   0.065   0.570
   75SOL    HW2  252   0.542   0.147   0.457
   76SOL     OW  253   1.434   1.188   0.041
   76SOL    HW1  254   1.466   1.112   0.098
   76SOL    HW2  255   1.342   1.215   0.071
   77SOL     OW  256   0.297   0.035   0.171
   77SOL    HW1  257   0.346   0.119   0.150
   77SOL    HW2  258   0.359  -0.030   0.216
   78SOL     OW  259   0.935   0.236   0.480
   78SOL    HW1  260   0.887   0.277   0.402
   78SOL    HW2  261   1.034   0.234   0.461
   79SOL     OW  262   1.076   0.683   1.464
   79SOL    HW1  263   0.996   0.622   1.467
   79SOL    HW2  264   1.157   0.630   1.440
   80SOL     OW  265   1.227   1.570   0.793
   80SOL    HW1  266   1.248   1.644   0.728
   80SOL    HW2  267   1.295   1.570   0.866
   81SOL     OW  268   0.459   1.152   0.741
   81SOL    HW1  269   0.388   1.125   0.806
   81SOL    HW2  270   0.433   1.124   0.648
   82SOL     OW  271   1.271   1.797   0.591
   82SOL    HW1  272   1.315   1.861   0.527
   82SOL    HW2  273   1.221   1.849   0.661
   83SOL     OW  274   1.032   0.549   0.016
   83SOL    HW1  275   0.991   0.631  -0.023
   83SOL    HW2  276   1.096   0.575   0.089
   84SOL     OW  277   0.078   0.556   1.386
   84SOL    HW1  278   0.170   0.555   1.345
   84SOL    HW2  279   0.072   0.630   1.453
   85SOL     OW  280   0.561   0.222   1.147
   85SOL    HW1  281   0.599   0.138   1.184
   85SOL    HW2  282   0.473   0.241   1.191
   86SOL     OW  283   0.866   0.454   0.642
   86SOL    HW1  284   0.834   0.526   0.580
   86SOL    HW2  285   0.890   0.373   0.589
   87SOL     OW  286   1.017   0.039   0.753
   87SOL    HW1  287   0.945   0.044   0.684
   87SOL    HW2  288   0.993  -0.030   0.822
   88SOL     OW  289   1.429   1.173   0.867
   88SOL    HW1  290   1.374   1.089   0.860
   88SOL    HW2  291   1.455   1.202   0.775
   89SOL     OW  292   1.466   0.590   0.992
   89SOL    HW1  293   1.436   0.495   0.999
   89SOL    HW2  294   1.539   0.606   1.058
   90SOL     OW  295   1.857   0.833   0.377
   90SOL    HW1  296   1.899   0.769   0.441
   90SOL    HW2  297   1.819   0.782   0.299
   91SOL     OW  298   0.488   1.385   0.174
   91SOL    HW1  299   0.401   1.370   0.221
   91SOL    HW2  300   0.471   1.411   0.079
   92SOL     OW  301   1.664   1.280   0.657
   92SOL    HW1  302   1.763   1.288   0.671
   92SOL    HW2  303   1.619   1.364   0.688
   93SOL     OW  304   1.390   0.575   0.078
   93SOL    HW1  305   1.336   0.554   0.159
   93SOL    HW2  306   1.481   0.534   0.087
   94SOL     OW  307   0.527   0.256   0.328
   94SOL    HW1  308   0.554   0.197   0.253
   94SOL    HW2  309   0.527   0.351   0.297
   95SOL     OW  310   1.754   1.223   1.588
   95SOL    HW1  311   1.845   1.184   1.575
   95SOL    HW2  312   1.762   1.319   1.612
   96SOL     OW  313   1.064   1.347   1.340
   96SOL    HW1  314   0.984   1.324   1.395
   96SOL    HW2  315   1.147   1.321   1.389
   97SOL     OW  316   1.111   1.195   1.100
   97SOL    HW1  317   1.071   1.239   1.181
   97SOL    HW2  318   1.070   1.232   1.017
   98SOL     OW  319   1.638   1.099   1.079
   98SOL    HW1  320   1.643   1.180   1.138
   98SOL    HW2  321   1.552   1.101   1.028
   99SOL     OW  322   0.915   0.089   1.402
   99SOL    HW1  323   0.940   0.069   1.307
   99SOL    HW2  324   0.987   0.145   1.444
  100SOL     OW  325   0.980   1.116   1.719
  100SOL    HW1  326   0.881   1.122   1.729
  100SOL    HW2  327   1.003   1.036   1.663
  101SOL     OW  328   0.705   1.050   0.368
  101SOL    HW1  329   0.691   1.057   0.467
  101SOL    HW2  330   0.789   0.999   0.350
  102SOL     OW  331   0.410   0.813   1.251
  102SOL    HW1  332   0.496   0.825   1.301
  102SOL    HW2  333   0.368   0.726   1.278
  103SOL     OW  334   1.274   0.386   1.262
  103SOL    HW1  335   1.295   0.460   1.326
  103SOL    HW2  336   1.185   0.403   1.219
  104SOL     OW  337   0.064   1.564   1.331
  104SOL    HW1  338   0.018   1.646   1.297
  104SOL    HW2  339   0.162   1.583   1.340
  105SOL     OW  340   0.367   1.100   0.501
  105SOL    HW1  341   0.360   1.183   0.445
  105SOL    HW2  342   0.371   1.020   0.441
  106SOL     OW  343   0.566   0.537   0.865
  106SOL    HW1  344   0.578   0.603   0.791
  106SOL    HW2  345   0.612   0.571   0.948
  107SOL     OW  346   1.252   1.348   0.388
  107SOL    HW1  347   1.302   1.425   0.428
  107SOL    HW2  348   1.157   1.350   0.420
  108SOL     OW  349   1.272   1.445   1.142
  108SOL    HW1  350   1.319   1.458   1.229
  108SOL    HW2  351   1.206   1.371   1.151
  109SOL     OW  352   1.582   0.639   0.472
  109SOL    HW1  353   1.551   0.700   0.545
  109SOL    HW2  354   1.632   0.691   0.403
  110SOL     OW  355   0.354   1.510   1.329
  110SOL    HW1  356   0.333   1.466   1.242
  110SOL    HW2  357   0.451   1.536   1.332
  111SOL     OW  358   0.402   0.751   1.598
  111SOL    HW1  359   0.470   0.806   1.551
  111SOL    HW2  360   0.442   0.663   1.625
  112SOL     OW  361   1.587   0.779   1.670
  112SOL    HW1  362   1.495   0.817   1.665
  112SOL    HW2  363   1.647   0.826   1.605
  113SOL     OW  364   1.013   0.105   1.770
  113SOL    HW1  365   1.019   0.190   1.718
  113SOL    HW2  366   1.045   0.029   1.713
  114SOL     OW  367   0.504   0.050   1.740
  114SOL    HW1  368   0.462  -0.007   1.670
  114SOL    HW2  369   0.438   0.119   1.772
  115SOL     OW  370   0.573   0.870   1.029
  115SOL    HW1  371   0.617   0.959   1.020
  115SOL    HW2  372   0.510   0.870   1.106
  116SOL     OW  373   1.360   0.862   1.045
  116SOL    HW1  374   1.285   0.862   0.979
  116SOL    HW2  375   1.397   0.770   1.054
  117SOL     OW  376   1.209   0.525   0.275
  117SOL    HW1  377   1.222   0.441   0.329
  117SOL    HW2  378   1.180   0.599   0.335
  118SOL     OW  379   0.307   0.213   1.231
  118SOL    HW1  380   0.284   0.250   1.321
  118SOL    HW2  381   0.277   0.118   1.225
  119SOL     OW  382   0.037   1.310   1.282
  119SOL    HW1  383   0.090   1.261   1.350
  119SOL    HW2  384   0.059   1.408   1.287
  120SOL     OW  385   0.732   0.634   1.064
  120SOL    HW1  386   0.791   0.608   0.988
  120SOL    HW2  387   0.704   0.730   1.053
  121SOL     OW  388   1.728   0.935   1.854
  121SOL    HW1  389   1.682   0.928   1.765
  121SOL    HW2  390   1.666   0.979   1.920
  122SOL     OW  391   0.307   0.063   0.618
  122SOL    HW1  392   0.296   0.157   0.651
  122SOL    HW2  393   0.302   0.000   0.695
  123SOL     OW  394   1.622   0.367   0.374
  123SOL    HW1  395   1.624   0.291   0.438
  123SOL    HW2  396   1.574   0.444   0.414
  124SOL     OW  397   1.023   0.766   0.966
  124SOL    HW1  398   1.038   0.787   1.062
  124SOL    HW2  399   0.993   0.671   0.957
  125SOL     OW  400   0.980   1.573   1.700
  125SOL    HW1  401   0.960   1.617   1.612
  125SOL    HW2  402   1.019   1.482   1.684
  126SOL     OW  403   1.859   1.518   1.605
  126SOL    HW1  404   1.873   1.545   1.510
  126SOL    HW2  405   1.942   1.540   1.658
  127SOL     OW  406   0.350   0.898   1.804
  127SOL    HW1  407   0.426   0.942   1.852
  127SOL    HW2  408   0.385   0.851   1.722
  128SOL     OW  409   1.540   0.274   0.125
  128SOL    HW1  410   1.479   0.199   0.148
  128SOL    HW2  411   1.562   0.326   0.208
  129SOL     OW  412   1.303   0.838   0.042
  129SOL    HW1  413   1.337   0.745   0.057
  129SOL    HW2  414   1.321   0.865  -0.053
  130SOL     OW  415   1.068   1.333   0.849
  130SOL    HW1  416   1.075   1.249   0.794
  130SOL    HW2  417   1.130   1.402   0.813
  131SOL     OW  418   0.319   0.810   0.949
  131SOL    HW1  419   0.412   0.846   0.954
  131SOL    HW2  420   0.313   0.725   1.001
  132SOL     OW  421   0.339   0.509   1.006
  132SOL    HW1  422   0.287   0.426   0.989
  132SOL    HW2  423   0.416   0.514   0.942
  133SOL     OW  424   1.138   0.380   1.678
  133SOL    HW1  425   1.093   0.443   1.742
  133SOL    HW2  426   1.231   0.411   1.661
  134SOL     OW  427   1.160   0.207   1.477
  134SOL    HW1  428   1.160   0.271   1.554
  134SOL    HW2  429   1.188   0.255   1.394
  135SOL     OW  430   0.008   1.326   0.200
  135SOL    HW1  431  -0.085   1.347   0.169
  135SOL    HW2  432   0.018   1.227   0.213
  136SOL     OW  433   0.088   1.801   0.927
  136SOL    HW1  434   0.046   1.715   0.900
  136SOL    HW2  435   0.182   1.804   0.893
  137SOL     OW  436   0.504   1.568   0.910
  137SOL    HW1  437   0.570   1.642   0.919
  137SOL    HW2  438   0.548   1.489   0.868
  138SOL     OW  439   1.002   0.796   1.238
  138SOL    HW1  440   1.043   0.764   1.324
  138SOL    HW2  441   0.906   0.769   1.235
  139SOL     OW  442   0.040   0.544   1.114
  139SOL    HW1  443   0.125   0.511   1.073
  139SOL    HW2  444   0.053   0.559   1.212
  140SOL     OW  445   0.189   0.520   1.722
  140SOL    HW1  446   0.248   0.480   1.652
  140SOL    HW2  447   0.131   0.591   1.681
  141SOL     OW  448   1.369   0.950   1.660
  141SOL    HW1  449   1.408   1.039   1.680
  141SOL    HW2  450   1.379   0.930   1.563
  142SOL     OW  451   0.815   0.572   0.325
  142SOL    HW1  452   0.822   0.483   0.279
  142SOL    HW2  453   0.721   0.606   0.317
  143SOL     OW  454   1.657   0.604   1.206
  143SOL    HW1  455   1.619   0.535   1.268
  143SOL    HW2  456   1.739   0.568   1.162
  144SOL     OW  457   0.252   1.564   1.744
  144SOL    HW1  458   0.222   1.621   1.820
  144SOL    HW2  459   0.245   1.467   1.770
  145SOL     OW  460   0.671   0.464   1.269
  145SOL    HW1  461   0.637   0.375   1.239
  145SOL    HW2  462   0.697   0.518   1.189
  146SOL     OW  463   0.930   1.678   1.465
  146SOL    HW1  464   0.906   1.660   1.370
  146SOL    HW2  465   0.960   1.772   1.475
  147SOL     OW  466   0.473   0.500   0.191
  147SOL    HW1  467   0.534   0.580   0.195
  147SOL    HW2  468   0.378   0.531   0.198
  148SOL     OW  469   0.159   1.137   1.466
  148SOL    HW1  470   0.181   1.076   1.542
  148SOL    HW2  471   0.169   1.088   1.380
  149SOL     OW  472   1.347   1.059   1.234
  149SOL    HW1  473   1.371   0.996   1.160
  149SOL    HW2  474   1.257   1.099   1.216
  150SOL     OW  475   1.302   0.855   0.309
  150SOL    HW1  476   1.216   0.824   0.351
  150SOL    HW2  477   1.298   0.841   0.210
  151SOL     OW  478   1.759   1.747   1.154
  151SOL    HW1  479   1.820   1.777   1.081
  151SOL    HW2  480   1.721   1.658   1.132
  152SOL     OW  481   1.252   1.731   1.128
  152SOL    HW1  482   1.336   1.736   1.074
  152SOL    HW2  483   1.229   1.635   1.146
  153SOL     OW  484   0.083   1.258   1.022
  153SOL    HW1  485   0.078   1.257   1.122
  153SOL    HW2  486   0.000   1.217   0.984
  154SOL     OW  487   0.688   1.662   1.716
  154SOL    HW1  488   0.632   1.743   1.725
  154SOL    HW2  489   0.740   1.666   1.630
  155SOL     OW  490   0.903   0.086   0.133
  155SOL    HW1  491   0.954   0.087   0.047
  155SOL    HW2  492   0.959   0.044   0.204
  156SOL     OW  493   1.726   0.135   0.523
  156SOL    HW1  494   1.799   0.118   0.456
  156SOL    HW2  495   1.695   0.048   0.561
  157SOL     OW  496   1.388   1.573   0.477
  157SOL    HW1  497   1.455   1.585   0.403
  157SOL    HW2  498   1.348   1.662   0.500
  158SOL     OW  499   0.130   1.794   1.851
  158SOL    HW1  500   0.089   1.720   1.904
  158SOL    HW2  501   0.194   1.845   1.909
  159SOL     OW  502   1.280   0.927   0.672
  159SOL    HW1  503   1.340   0.846   0.674
  159SOL    HW2  504   1.320   0.996   0.612
  160SOL     OW  505   0.830   1.273   1.422
  160SOL    HW1  506   0.825   1.306   1.517
  160SOL    HW2  507   0.744   1.292   1.376
  161SOL     OW  508   0.672   1.616   0.154
  161SOL    HW1  509   0.681   1.626   0.055
  161SOL    HW2  510   0.632   1.527   0.175
  162SOL     OW  511   1.841   0.175   0.963
  162SOL    HW1  512   1.880   0.090   0.927
  162SOL    HW2  513   1.743   0.177   0.944
  163SOL     OW  514   0.263   0.326   0.720
  163SOL    HW1  515   0.184   0.377   0.686
  163SOL    HW2  516   0.254   0.311   0.818
  164SOL     OW  517   1.194   1.612   0.031
  164SOL    HW1  518   1.200   1.519   0.068
  164SOL    HW2  519   1.135   1.612  -0.049
  165SOL     OW  520   0.822   1.002   1.372
  165SOL    HW1  521   0.862   1.001   1.280
  165SOL    HW2  522   0.832   1.094   1.412
  166SOL     OW  523   0.916   0.910   0.291
  166SOL    HW1  524   0.979   0.948   0.223
  166SOL    HW2  525   0.956   0.827   0.330
  167SOL     OW  526   1.504   1.607   0.044
  167SOL    HW1  527   1.412   1.644   0.051
  167SOL    HW2  528   1.542   1.627  -0.046
  168SOL     OW  529   0.372   1.288   1.490
  168SOL    HW1  530   0.359   1.381   1.456
  168SOL    HW2  531   0.288   1.236   1.477
  169SOL     OW  532   1.614   1.292   1.289
  169SOL    HW1  533   1.674   1.295   1.369
  169SOL    HW2  534   1.539   1.356   1.302
  170SOL     OW  535   1.039   1.098   0.696
  170SOL    HW1  536   0.969   1.051   0.750
  170SOL    HW2  537   1.098   1.030   0.653
  171SOL     OW  538   1.014   0.236   0.971
  171SOL    HW1  539   1.006   0.200   0.878
  171SOL    HW2  540   1.012   0.160   1.036
  172SOL     OW  541   0.590   1.487   0.491
  172SOL    HW1  542   0.632   1.429   0.421
  172SOL    HW2  543   0.546   1.566   0.447
  173SOL     OW  544   1.709   0.385   1.381
  173SOL    HW1  545   1.782   0.454   1.385
  173SOL    HW2  546   1.737   0.310   1.322
  174SOL     OW  547   0.255   1.348   0.290
  174SOL    HW1  548   0.159   1.349   0.263
  174SOL    HW2  549   0.267   1.401   0.374
  175SOL     OW  550   0.105   1.013   1.726
  175SOL    HW1  551   0.028   0.980   1.780
  175SOL    HW2  552   0.190   0.983   1.768
  176SOL     OW  553   0.672   0.203   1.489
  176SOL    HW1  554   0.762   0.187   1.449
  176SOL    HW2  555   0.680   0.208   1.588
  177SOL     OW  556   0.075   0.345   0.033
  177SOL    HW1  557  -0.017   0.317   0.004
  177SOL    HW2  558   0.106   0.422  -0.023
  178SOL     OW  559   1.440   0.856   1.398
  178SOL    HW1  560   1.383   0.908   1.335
  178SOL    HW2  561   1.536   0.868   1.374
  179SOL     OW  562   0.072   0.166   0.318
  179SOL    HW1  563   0.055   0.249   0.264
  179SOL    HW2  564   0.162   0.129   0.296
  180SOL     OW  565   1.183   1.335   0.119
  180SOL    HW1  566   1.084   1.324   0.121
  180SOL    HW2  567   1.217   1.350   0.212
  181SOL     OW  568   0.613   0.842   1.431
  181SOL    HW1  569   0.669   0.923   1.414
  181SOL    HW2  570   0.672   0.762   1.434
  182SOL     OW  571   1.493   1.767   0.959
  182SOL    HW1  572   1.526   1.831   0.890
  182SOL    HW2  573   1.559   1.761   1.034
  183SOL     OW  574   0.716   0.565   1.708
  183SOL    HW1  575   0.735   0.630   1.782
  183SOL    HW2  576   0.776   0.485   1.717
  184SOL     OW  577   1.450   1.220   1.633
  184SOL    HW1  578   1.441   1.210   1.732
  184SOL    HW2  579   1.546   1.213   1.607
  185SOL     OW  580   0.390   1.741   1.560
  185SOL    HW1  581   0.299   1.782   1.558
  185SOL    HW2  582   0.383   1.647   1.592
  186SOL     OW  583   1.674   0.883   1.254
  186SOL    HW1  584   1.647   0.794   1.217
  186SOL    HW2  585   1.675   0.951   1.181
  187SOL     OW  586   1.225   0.325   0.449
  187SOL    HW1  587   1.290   0.251   0.438
  187SOL    HW2  588   1.245   0.375   0.533
  188SOL     OW  589   0.594   0.745   0.652
  188SOL    HW1  590   0.644   0.830   0.633
  188SOL    HW2  591   0.506   0.747   0.604
  189SOL     OW  592   1.777   0.342   1.642
  189SOL    HW1  593   1.760   0.373   1.548
  189SOL    HW2  594   1.693   0.305   1.680
  190SOL     OW  595   1.730   0.934   1.517
  190SOL    HW1  596   1.768   1.025   1.532
  190SOL    HW2  597   1.722   0.917   1.418
  191SOL     OW  598   0.859   1.374   0.016
  191SOL    HW1  599   0.813   1.389   0.104
  191SOL    HW2  600   0.903   1.459  -0.014
  192SOL     OW  601   0.661   1.790   0.953
  192SOL    HW1  602   0.615   1.878   0.940
  192SOL    HW2  603   0.760   1.802   0.946
  193SOL     OW  604   0.859   0.956   0.861
  193SOL    HW1  605   0.913   0.887   0.909
  193SOL    HW2  606   0.827   1.025   0.927
  194SOL     OW  607   1.083   0.984   0.087
  194SOL    HW1  608   1.060   1.037   0.005
  194SOL    HW2  609   1.164   0.928   0.068
  195SOL     OW  610   1.861   1.569   0.851
  195SOL    HW1  611   1.790   1.557   0.781
  195SOL    HW2  612   1.862   1.490   0.911
  196SOL     OW  613   0.221   1.314   1.844
  196SOL    HW1  614   0.156   1.241   1.823
  196SOL    HW2  615   0.225   1.328   1.942
  197SOL     OW  616   0.079   1.240   0.653
  197SOL    HW1  617   0.078   1.193   0.741
  197SOL    HW2  618   0.161   1.212   0.602
  198SOL     OW  619   0.672   1.391   1.624
  198SOL    HW1  620   0.594   1.341   1.662
  198SOL    HW2  621   0.669   1.486   1.655
  199SOL     OW  622   1.824   0.192   1.227
  199SOL    HW1  623   1.820   0.102   1.271
  199SOL    HW2  624   1.827   0.181   1.128
  200SOL     OW  625   0.428   0.424   0.520
  200SOL    HW1  626   0.458   0.352   0.458
  200SOL    HW2  627   0.389   0.384   0.603
  201SOL     OW  628   1.705   1.487   1.104
  201SOL    HW1  629   1.612   1.462   1.077
  201SOL    HW2  630   1.731   1.437   1.186
  202SOL     OW  631   0.317   0.547   1.280
  202SOL    HW1  632   0.355   0.488   1.352
  202SOL    HW2  633   0.357   0.521   1.192
  203SOL     OW  634   0.812   1.586   0.687
  203SOL    HW1  635   0.844   1.596   0.593
  203SOL    HW2  636   0.733   1.524   0.689
  204SOL     OW  637   1.424   0.214   1.112
  204SOL    HW1  638   1.476   0.149   1.167
  204SOL    HW2  639   1.375   0.277   1.173
  205SOL     OW  640   1.001   0.034   1.154
  205SOL    HW1  641   0.938  -0.038   1.123
  205SOL    HW2  642   1.094  -0.002   1.154
  206SOL     OW  643   0.770   1.330   0.301
  206SOL    HW1  644   0.724   1.243   0.318
  206SOL    HW2  645   0.861   1.327   0.342
  207SOL     OW  646   0.618   1.567   1.284
  207SOL    HW1  647   0.613   1.649   1.341
  207SOL    HW2  648   0.707   1.564   1.239
  208SOL     OW  649   1.352   0.052   0.168
  208SOL    HW1  650   1.387   0.011   0.084
  208SOL    HW2  651   1.262   0.014   0.188
  209SOL     OW  652   1.300   0.453   0.691
  209SOL    HW1  653   1.241   0.533   0.695
  209SOL    HW2  654   1.315   0.418   0.784
  210SOL     OW  655   1.593   0.221   0.882
  210SOL    HW1  656   1.509   0.220   0.936
  210SOL    HW2  657   1.595   0.304   0.826
  211SOL     OW  658   0.039   1.077   0.300
  211SOL    HW1  659   0.138   1.066   0.291
  211SOL    HW2  660  -0.001   0.991   0.332
  212SOL     OW  661   0.875   1.646   0.337
  212SOL    HW1  662   0.798   1.611   0.283
  212SOL    HW2  663   0.843   1.717   0.399
  213SOL     OW  664   0.230   0.628   1.975
  213SOL    HW1  665   0.137   0.626   2.012
  213SOL    HW2  666   0.231   0.589   1.883
  214SOL     OW  667   0.225   0.275   2.858
  214SOL    HW1  668   0.260   0.258   2.950
  214SOL    HW2  669   0.137   0.230   2.846
  215SOL     OW  670   0.019   0.368   2.509
  215SOL    HW1  671  -0.063   0.411   2.548
  215SOL    HW2  672  -0.009   0.295   2.446
  216SOL     OW  673   0.569   1.275   3.027
  216SOL    HW1  674   0.476   1.268   2.990
  216SOL    HW2  675   0.580   1.364   3.071
  217SOL     OW  676   1.555   1.511   2.565
  217SOL    HW1  677   1.498   1.495   2.646
  217SOL    HW2  678   1.496   1.521   2.485
  218SOL     OW  679   1.135   0.703   2.579
  218SOL    HW1  680   1.192   0.781   2.554
  218SOL    HW2  681   1.075   0.729   2.655
  219SOL     OW  682   1.755   0.607   2.093
  219SOL    HW1  683   1.743   0.594   1.994
  219SOL    HW2  684   1.725   0.526   2.142
  220SOL     OW  685   0.768   1.144   2.885
  220SOL    HW1  686   0.690   1.161   2.945
  220SOL    HW2  687   0.802   1.231   2.849
  221SOL     OW  688   0.685   1.012   2.527
  221SOL    HW1  689   0.754   0.996   2.597
  221SOL    HW2  690   0.612   1.069   2.565
  222SOL     OW  691   0.335   1.435   2.923
  222SOL    HW1  692   0.257   1.404   2.870
  222SOL    HW2  693   0.393   1.493   2.866
  223SOL     OW  694   1.603   0.447   2.599
  223SOL    HW1  695   1.529   0.493   2.549
  223SOL    HW2  696   1.654   0.515   2.652
  224SOL     OW  697   0.231   1.713   2.345
  224SOL    HW1  698   0.265   1.790   2.399
  224SOL    HW2  699   0.275   1.713   2.255
  225SOL     OW  700   0.230   1.434   2.400
  225SOL    HW1  701   0.204   1.530   2.400
  225SOL    HW2  702   0.159   1.380   2.445
  226SOL     OW  703   0.240   1.091   2.748
  226SOL    HW1  704   0.254   1.007   2.800
  226SOL    HW2  705   0.185   1.155   2.803
  227SOL     OW  706   0.620   1.786   3.301
  227SOL    HW1  707   0.528   1.769   3.336
  227SOL    HW2  708   0.648   1.878   3.327
  228SOL     OW  709   0.606   0.964   1.985
  228SOL    HW1  710   0.613   1.048   1.931
  228SOL    HW2  711   0.652   0.977   2.073
  229SOL     OW  712   0.122   0.643   2.425
  229SOL    HW1  713   0.077   0.555   2.442
  229SOL    HW2  714   0.121   0.697   2.509
  230SOL     OW  715   1.842   1.767   2.221
  230SOL    HW1  716   1.896   1.738   2.301
  230SOL    HW2  717   1.872   1.857   2.192
  231SOL     OW  718   0.027   1.596   1.979
  231SOL    HW1  719   0.008   1.500   2.000
  231SOL    HW2  720  -0.006   1.654   2.054
  232SOL     OW  721   1.689   0.922   2.474
  232SOL    HW1  722   1.784   0.893   2.482
  232SOL    HW2  723   1.681   0.987   2.399
  233SOL     OW  724   1.641   1.108   2.294
  233SOL    HW1  725   1.727   1.110   2.242
  233SOL    HW2  726   1.655   1.155   2.382
  234SOL     OW  727   0.613   1.365   2.588
  234SOL    HW1  728   0.564   1.278   2.597
  234SOL    HW2  729   0.590   1.408   2.501
  235SOL     OW  730   0.809   0.004   2.364
  235SOL    HW1  731   0.849   0.095   2.355
  235SOL    HW2  732   0.709   0.012   2.370
  236SOL     OW  733   0.197   0.976   3.126
  236SOL    HW1  734   0.286   0.931   3.112
  236SOL    HW2  735   0.124   0.911   3.107
  237SOL     OW  736   1.525   0.999   2.052
  237SOL    HW1  737   1.462   0.923   2.065
  237SOL    HW2  738   1.573   1.017   2.138
  238SOL     OW  739   1.466   1.417   2.815
  238SOL    HW1  740   1.407   1.423   2.895
  238SOL    HW2  741   1.451   1.329   2.769
  239SOL     OW  742   1.667   1.714   2.434
  239SOL    HW1  743   1.626   1.691   2.346
  239SOL    HW2  744   1.649   1.640   2.499
  240SOL     OW  745   0.598   0.729   2.132
  240SOL    HW1  746   0.622   0.798   2.064
  240SOL    HW2  747   0.520   0.762   2.186
  241SOL     OW  748   1.281   0.345   2.806
  241SOL    HW1  749   1.195   0.295   2.793
  241SOL    HW2  750   1.343   0.291   2.862
  242SOL     OW  751   1.576   1.662   2.169
  242SOL    HW1  752   1.665   1.708   2.172
  242SOL    HW2  753   1.555   1.638   2.074
  243SOL     OW  754   0.991   0.410   3.104
  243SOL    HW1  755   0.914   0.444   3.158
  243SOL    HW2  756   0.957   0.359   3.025
  244SOL     OW  757   1.041   0.701   2.291
  244SOL    HW1  758   1.067   0.697   2.387
  244SOL    HW2  759   0.956   0.650   2.277
  245SOL     OW  760   0.076   0.811   2.651
  245SOL    HW1  761   0.175   0.799   2.660
  245SOL    HW2  762   0.052   0.906   2.672
  246SOL     OW  763   0.130   1.821   3.433
  246SOL    HW1  764   0.120   1.806   3.532
  246SOL    HW2  765   0.044   1.857   3.397
  247SOL     OW  766   0.865   0.348   2.057
  247SOL    HW1  767   0.924   0.411   2.008
  247SOL    HW2  768   0.884   0.254   2.028
  248SOL     OW  769   1.362   1.144   2.407
  248SOL    HW1  770   1.445   1.115   2.359
  248SOL    HW2  771   1.313   1.211   2.351
  249SOL     OW  772   0.550   0.196   2.747
  249SOL    HW1  773   0.545   0.191   2.847
  249SOL    HW2  774   0.552   0.292   2.718
  250SOL     OW  775   1.008   1.456   2.339
  250SOL    HW1  776   0.962   1.528   2.287
  250SOL    HW2  777   1.004   1.476   2.437
  251SOL     OW  778   0.351   1.801   2.715
  251SOL    HW1  779   0.401   1.715   2.721
  251SOL    HW2  780   0.416   1.878   2.712
  252SOL     OW  781   1.795   1.066   2.735
  252SOL    HW1  782   1.733   1.051   2.659
  252SOL    HW2  783   1.743   1.077   2.820
  253SOL     OW  784   0.321   0.943   2.104
  253SOL    HW1  785   0.403   0.982   2.062
  253SOL    HW2  786   0.294   0.861   2.055
  254SOL     OW  787   1.458   0.735   2.590
  254SOL    HW1  788   1.453   0.670   2.665
  254SOL    HW2  789   1.538   0.794   2.603
  255SOL     OW  790   1.111   1.776   2.099
  255SOL    HW1  791   1.051   1.714   2.149
  255SOL    HW2  792   1.142   1.732   2.014
  256SOL     OW  793   0.464   1.743   2.185
  256SOL    HW1  794   0.497   1.782   2.271
  256SOL    HW2  795   0.540   1.736   2.120
  257SOL     OW  796   1.400   0.107   2.288
  257SOL    HW1  797   1.376   0.070   2.198
  257SOL    HW2  798   1.499   0.123   2.292
  258SOL     OW  799   0.249   1.785   3.103
  258SOL    HW1  800   0.306   1.720   3.153
  258SOL    HW2  801   0.233   1.752   3.010
  259SOL     OW  802   0.940   1.698   2.766
  259SOL    HW1  803   1.020   1.641   2.787
  259SOL    HW2  804   0.891   1.658   2.689
  260SOL     OW  805   0.382   0.700   2.342
  260SOL    HW1  806   0.427   0.610   2.339
  260SOL    HW2  807   0.288   0.689   2.375
  261SOL     OW  808   0.614   0.122   1.979
  261SOL    HW1  809   0.712   0.100   1.986
  261SOL    HW2  810   0.583   0.105   1.886
  262SOL     OW  811   0.803   1.402   2.786
  262SOL    HW1  812   0.893   1.416   2.744
  262SOL    HW2  813   0.732   1.404   2.715
  263SOL     OW  814   0.922   0.503   2.761
  263SOL    HW1  815   0.897   0.494   2.665
  263SOL    HW2  816   0.970   0.421   2.792
  264SOL     OW  817   0.539   0.064   2.374
  264SOL    HW1  818   0.458   0.065   2.432
  264SOL    HW2  819   0.542   0.147   2.319
  265SOL     OW  820   1.434   1.188   1.903
  265SOL    HW1  821   1.466   1.112   1.960
  265SOL    HW2  822   1.342   1.215   1.933
  266SOL     OW  823   0.297   0.035   2.033
  266SOL    HW1  824   0.346   0.119   2.012
  266SOL    HW2  825   0.359  -0.030   2.078
  267SOL     OW  826   0.935   0.236   2.342
  267SOL    HW1  827   0.887   0.277   2.264
  267SOL    HW2  828   1.034   0.234   2.323
  268SOL     OW  829   1.227   1.570   2.655
  268SOL    HW1  830   1.248   1.644   2.590
  268SOL    HW2  831   1.295   1.570   2.728
  269SOL     OW  832   0.459   1.152   2.603
  269SOL    HW1  833   0.388   1.125   2.668
  269SOL    HW2  834   0.433   1.124   2.510
  270SOL     OW  835   1.271   1.797   2.453
  270SOL    HW1  836   1.315   1.861   2.389
  270SOL    HW2  837   1.221   1.849   2.523
  271SOL     OW  838   1.032   0.549   1.878
  271SOL    HW1  839   0.991   0.631   1.839
  271SOL    HW2  840   1.096   0.575   1.951
  272SOL     OW  841   0.561   0.222   3.009
  272SOL    HW1  842   0.599   0.138   3.046
  272SOL    HW2  843   0.473   0.241   3.053
  273SOL     OW  844   0.866   0.454   2.504
  273SOL    HW1  845   0.834   0.526   2.442
  273SOL    HW2  846   0.890   0.373   2.451
  274SOL     OW  847   1.017   0.039   2.615
  274SOL    HW1  848   0.945   0.044   2.546
  274SOL    HW2  849   0.993  -0.030   2.684
  275SOL     OW  850   1.429   1.173   2.729
  275SOL    HW1  851   1.374   1.089   2.722
  275SOL    HW2  852   1.455   1.202   2.637
  276SOL     OW  853   1.466   0.590   2.854
  276SOL    HW1  854   1.436   0.495   2.861
  276SOL    HW2  855   1.539   0.606   2.920
  277SOL     OW  856   1.857   0.833   2.239
  277SOL    HW1  857   1.899   0.769   2.303
  277SOL    HW2  858   1.819   0.782   2.161
  278SOL     OW  859   0.488   1.385   2.036
  278SOL    HW1  860   0.401   1.370   2.083
  278SOL    HW2  861   0.471   1.411   1.941
  279SOL     OW  862   1.664   1.280   2.519
  279SOL    HW1  863   1.763   1.288   2.533
  279SOL    HW2  864   1.619   1.364   2.550
  280SOL     OW  865   1.390   0.575   1.940
  280SOL    HW1  866   1.336   0.554   2.021
  280SOL    HW2  867   1.481   0.534   1.949
  281SOL     OW  868   0.527   0.256   2.190
  281SOL    HW1  869   0.554   0.197   2.115
  281SOL    HW2  870   0.527   0.351   2.159
  282SOL     OW  871   1.111   1.195   2.962
  282SOL    HW1  872   1.071   1.239   3.043
  282SOL    HW2  873   1.070   1.232   2.879
  283SOL     OW  874   1.638   1.099   2.941
  283SOL    HW1  875   1.643   1.180   3.000
  283SOL    HW2  876   1.552   1.101   2.890
  284SOL     OW  877   0.705   1.050   2.230
  284SOL    HW1  878   0.691   1.057   2.329
  284SOL    HW2  879   0.789   0.999   2.212
  285SOL     OW  880   0.410   0.813   3.113
  285SOL    HW1  881   0.496   0.825   3.163
  285SOL    HW2  882   0.368   0.726   3.140
  286SOL     OW  883   1.274   0.386   3.124
  286SOL    HW1  884   1.295   0.460   3.188
  286SOL    HW2  885   1.185   0.403   3.081
  287SOL     OW  886   0.367   1.100   2.363
  287SOL    HW1  887   0.360   1.183   2.307
  287SOL    HW2  888   0.371   1.020   2.303
  288SOL     OW  889   0.566   0.537   2.727
  288SOL    HW1  890   0.578   0.603   2.653
  288SOL    HW2  891   0.612   0.571   2.810
  289SOL     OW  892   1.252   1.348   2.250
  289SOL    HW1  893   1.302   1.425   2.290
  289SOL    HW2  894   1.157   1.350   2.282
  290SOL     OW  895   1.272   1.445   3.004
  290SOL    HW1  896   1.319   1.458   3.091
  290SOL    HW2  897   1.206   1.371   3.013
  291SOL     OW  898   1.582   0.639   2.334
  291SOL    HW1  899   1.551   0.700   2.407
  291SOL    HW2  900   1.632   0.691   2.265
  292SOL     OW  901   0.354   1.510   3.191
  292SOL    HW1  902   0.333   1.466   3.104
  292SOL    HW2  903   0.451   1.536   3.194
  293SOL     OW  904   0.573   0.870   2.891
  293SOL    HW1  905   0.617   0.959   2.882
  293SOL    HW2  906   0.510   0.870   2.968
  294SOL     OW  907   1.360   0.862   2.907
  294SOL    HW1  908   1.285   0.862   2.841
  294SOL    HW2  909   1.397   0.770   2.916
  295SOL     OW  910   1.209   0.525   2.137
  295SOL    HW1  911   1.222   0.441   2.191
  295SOL    HW2  912   1.180   0.599   2.197
  296SOL     OW  913   0.307   0.213   3.093
  296SOL    HW1  914   0.284   0.250   3.183
  296SOL    HW2  915   0.277   0.118   3.087
  297SOL     OW  916   0.037   1.310   3.144
  297SOL    HW1  917   0.090   1.261   3.212
  297SOL    HW2  918   0.059   1.408   3.149
  298SOL     OW  919   0.732   0.634   2.926
  298SOL    HW1  920   0.791   0.608   2.850
  298SOL    HW2  921   0.704   0.730   2.915
  299SOL     OW  922   0.307   0.063   2.480
  299SOL    HW1  923   0.296   0.157   2.513
  299SOL    HW2  924   0.302   0.000   2.557
  300SOL     OW  925   1.622   0.367   2.236
  300SOL    HW1  926   1.624   0.291   2.300
  300SOL    HW2  927   1.574   0.444   2.276
  301SOL     OW  928   1.023   0.766   2.828
  301SOL    HW1  929   1.038   0.787   2.924
  301SOL    HW2  930   0.993   0.671   2.819
  302SOL     OW  931   1.540   0.274   1.987
  302SOL    HW1  932   1.479   0.199   2.010
  302SOL    HW2  933   1.562   0.326   2.070
  303SOL     OW  934   1.303   0.838   1.904
  303SOL    HW1  935   1.337   0.745   1.919
  303SOL    HW2  936   1.321   0.865   1.809
  304SOL     OW  937   1.068   1.333   2.711
  304SOL    HW1  938   1.075   1.249   2.656
  304SOL    HW2  939   1.130   1.402   2.675
  305SOL     OW  940   0.319   0.810   2.811
  305SOL    HW1  941   0.412   0.846   2.816
  305SOL    HW2  942   0.313   0.725   2.863
  306SOL     OW  943   0.339   0.509   2.868
  306SOL    HW1  944   0.287   0.426   2.851
  306SOL    HW2  945   0.416   0.514   2.804
  307SOL     OW  946   1.160   0.207   3.339
  307SOL    HW1  947   1.160   0.271   3.416
  307SOL    HW2  948   1.188   0.255   3.256
  308SOL     OW  949   0.008   1.326   2.062
  308SOL    HW1  950  -0.085   1.347   2.031
  308SOL    HW2  951   0.018   1.227   2.075
  309SOL     OW  952   0.088   1.801   2.789
  309SOL    HW1  953   0.046   1.715   2.762
  309SOL    HW2  954   0.182   1.804   2.755
  310SOL     OW  955   0.504   1.568   2.772
  310SOL    HW1  956   0.570   1.642   2.781
  310SOL    HW2  957   0.548   1.489   2.730
  311SOL     OW  958   1.002   0.796   3.100
  311SOL    HW1  959   1.043   0.764   3.186
  311SOL    HW2  960   0.906   0.769   3.097
  312SOL     OW  961   0.040   0.544   2.976
  312SOL    HW1  962   0.125   0.511   2.935
  312SOL    HW2  963   0.053   0.559   3.074
  313SOL     OW  964   0.815   0.572   2.187
  313SOL    HW1  965   0.822   0.483   2.141
  313SOL    HW2  966   0.721   0.606   2.179
  314SOL     OW  967   1.657   0.604   3.068
  314SOL    HW1  968   1.619   0.535   3.130
  314SOL    HW2  969   1.739   0.568   3.024
  315SOL     OW  970   0.671   0.464   3.131
  315SOL    HW1  971   0.637   0.375   3.101
  315SOL    HW2  972   0.697   0.518   3.051
  316SOL     OW  973   0.930   1.678   3.327
  316SOL    HW1  974   0.906   1.660   3.232
  316SOL    HW2  975   0.960   1.772   3.337
  317SOL     OW  976   0.473   0.500   2.053
  317SOL    HW1  977   0.534   0.580   2.057
  317SOL    HW2  978   0.378   0.531   2.060
  318SOL     OW  979   1.347   1.059   3.096
  318SOL    HW1  980   1.371   0.996   3.022
  318SOL    HW2  981   1.257   1.099   3.078
  319SOL     OW  982   1.302   0.855   2.171
  319SOL    HW1  983   1.216   0.824   2.213
  319SOL    HW2  984   1.298   0.841   2.072
  320SOL     OW  985   1.759   1.747   3.016
  320SOL    HW1  986   1.820   1.777   2.943
  320SOL    HW2  987   1.721   1.658   2.994
  321SOL     OW  988   1.252   1.731   2.990
  321SOL    HW1  989   1.336   1.736   2.936
  321SOL    HW2  990   1.229   1.635   3.008
  322SOL     OW  991   0.083   1.258   2.884
  322SOL    HW1  992   0.078   1.257   2.984
  322SOL    HW2  993   0.000   1.217   2.846
  323SOL     OW  994   1.726   0.135   2.385
  323SOL    HW1  995   1.799   0.118   2.318
  323SOL    HW2  996   1.695   0.048   2.423
  324SOL     OW  997   1.388   1.573   2.339
  324SOL    HW1  998   1.455   1.585   2.265
  324SOL    HW2  999   1.348   1.662   2.362
  325SOL     OW 1000   1.280   0.927   2.534
  325SOL    HW1 1001   1.340   0.846   2.536
  325SOL    HW2 1002   1.320   0.996   2.474
  326SOL     OW 1003   0.672   1.616   2.016
  326SOL    HW1 1004   0.681   1.626   1.917
  326SOL    HW2 1005   0.632   1.527   2.037
  327SOL     OW 1006   1.650   1.720   3.256
  327SOL    HW1 1007   1.703   1.730   3.172
  327SOL    HW2 1008   1.623   1.810   3.290
  328SOL     OW 1009   1.841   0.175   2.825
  328SOL    HW1 1010   1.880   0.090   2.789
  328SOL    HW2 1011   1.743   0.177   2.806
  329SOL     OW 1012   0.263   0.326   2.582
  329SOL    HW1 1013   0.184   0.377   2.548
  329SOL    HW2 1014   0.254   0.311   2.680
  330SOL     OW 1015   1.194   1.612   1.893
  330SOL    HW1 1016   1.200   1.519   1.930
  330SOL    HW2 1017   1.135   1.612   1.813
  331SOL     OW 1018   0.822   1.002   3.234
  331SOL    HW1 1019   0.862   1.001   3.142
  331SOL    HW2 1020   0.832   1.094   3.274
  332SOL     OW 1021   0.916   0.910   2.153
  332SOL    HW1 1022   0.979   0.948   2.085
  332SOL    HW2 1023   0.956   0.827   2.192
  333SOL     OW 1024   1.039   1.098   2.558
  333SOL    HW1 1025   0.969   1.051   2.612
  333SOL    HW2 1026   1.098   1.030   2.515
  334SOL     OW 1027   1.014   0.236   2.833
  334SOL    HW1 1028   1.006   0.200   2.740
  334SOL    HW2 1029   1.012   0.160   2.898
  335SOL     OW 1030   0.590   1.487   2.353
  335SOL    HW1 1031   0.632   1.429   2.283
  335SOL    HW2 1032   0.546   1.566   2.309
  336SOL     OW 1033   1.709   0.385   3.243
  336SOL    HW1 1034   1.782   0.454   3.247
  336SOL    HW2 1035   1.737   0.310   3.184
  337SOL     OW 1036   0.255   1.348   2.152
  337SOL    HW1 1037   0.159   1.349   2.125
  337SOL    HW2 1038   0.267   1.401   2.236
  338SOL     OW 1039   0.075   0.345   1.895
  338SOL    HW1 1040  -0.017   0.317   1.866
  338SOL    HW2 1041   0.106   0.422   1.839
  339SOL     OW 1042   0.072   0.166   2.180
  339SOL    HW1 1043   0.055   0.249   2.126
  339SOL    HW2 1044   0.162   0.129   2.158
  340SOL     OW 1045   1.183   1.335   1.981
  340SOL    HW1 1046   1.084   1.324   1.983
  340SOL    HW2 1047   1.217   1.350   2.074
  341SOL     OW 1048   1.493   1.767   2.821
  341SOL    HW1 1049   1.526   1.831   2.752
  341SOL    HW2 1050   1.559   1.761   2.896
  342SOL     OW 1051   1.450   1.220   3.495
  342SOL    HW1 1052   1.441   1.210   3.594
  342SOL    HW2 1053   1.546   1.213   3.469
  343SOL     OW 1054   1.674   0.883   3.116
  343SOL    HW1 1055   1.647   0.794   3.079
  343SOL    HW2 1056   1.675   0.951   3.043
  344SOL     OW 1057   1.225   0.325   2.311
  344SOL    HW1 1058   1.290   0.251   2.300
  344SOL    HW2 1059   1.245   0.375   2.395
  345SOL     OW 1060   0.594   0.745   2.514
  345SOL    HW1 1061   0.644   0.830   2.495
  345SOL    HW2 1062   0.506   0.747   2.466
  346SOL     OW 1063   1.730   0.934   3.379
  346SOL    HW1 1064   1.768   1.025   3.394
  346SOL    HW2 1065   1.722   0.917   3.280
  347SOL     OW 1066   0.859   1.374   1.878
  347SOL    HW1 1067   0.813   1.389   1.966
  347SOL    HW2 1068   0.903   1.459   1.848
  348SOL     OW 1069   0.661   1.790   2.815
  348SOL    HW1 1070   0.615   1.878   2.802
  348SOL    HW2 1071   0.760   1.802   2.808
  349SOL     OW 1072   0.859   0.956   2.723
  349SOL    HW1 1073   0.913   0.887   2.771
  349SOL    HW2 1074   0.827   1.025   2.789
  350SOL     OW 1075   1.083   0.984   1.949
  350SOL    HW1 1076   1.060   1.037   1.867
  350SOL    HW2 1077   1.164   0.928   1.930
  351SOL     OW 1078   1.861   1.569   2.713
  351SOL    HW1 1079   1.790   1.557   2.643
  351SOL    HW2 1080   1.862   1.490   2.773
  352SOL     OW 1081   0.079   1.240   2.515
  352SOL    HW1 1082   0.078   1.193   2.603
  352SOL    HW2 1083   0.161   1.212   2.464
  353SOL     OW 1084   1.824   0.192   3.089
  353SOL    HW1 1085   1.820   0.102   3.133
  353SOL    HW2 1086   1.827   0.181   2.990
  354SOL     OW 1087   0.428   0.424   2.382
  354SOL    HW1 1088   0.458   0.352   2.320
  354SOL    HW2 1089   0.389   0.384   2.465
  355SOL     OW 1090   1.705   1.487   2.966
  355SOL    HW1 1091   1.612   1.462   2.939
  355SOL    HW2 1092   1.731   1.437   3.048
  356SOL     OW 1093   0.812   1.586   2.549
  356SOL    HW1 1094   0.844   1.596   2.455
  356SOL    HW2 1095   0.733   1.524   2.551
  357SOL     OW 1096   1.424   0.214   2.974
  357SOL    HW1 1097   1.476   0.149   3.029
  357SOL    HW2 1098   1.375   0.277   3.035
  358SOL     OW 1099   1.001   0.034   3.016
  358SOL    HW1 1100   0.938  -0.038   2.985
  358SOL    HW2 1101   1.094  -0.002   3.016
  359SOL     OW 1102   0.770   1.330   2.163
  359SOL    HW1 1103   0.724   1.243   2.180
  359SOL    HW2 1104   0.861   1.327   2.204
  360SOL     OW 1105   1.352   0.052   2.030
  360SOL    HW1 1106   1.387   0.011   1.946
  360SOL    HW2 1107   1.262   0.014   2.050
  361SOL     OW 1108   1.300   0.453   2.553
  361SOL    HW1 1109   1.241   0.533   2.557
  361SOL    HW2 1110   1.315   0.418   2.646
  362SOL     OW 1111   1.593   0.221   2.744
  362SOL    HW1 1112   1.509   0.220   2.798
  362SOL    HW2 1113   1.595   0.304   2.688
  363SOL     OW 1114   0.039   1.077   2.162
  363SOL    HW1 1115   0.138   1.066   2.153
  363SOL    HW2 1116  -0.001   0.991   2.194
  364SOL     OW 1117   0.875   1.646   2.199
  364SOL    HW1 1118   0.798   1.611   2.145
  364SOL    HW2 1119   0.843   1.717   2.261
  365SOL     OW 1120   0.230   2.490   0.113
  365SOL    HW1 1121   0.137   2.488   0.150
  365SOL    HW2 1122   0.231   2.451   0.021
  366SOL     OW 1123   0.225   2.137   0.996
  366SOL    HW1 1124   0.260   2.120   1.088
  366SOL    HW2 1125   0.137   2.092   0.984
  367SOL     OW 1126   0.019   2.230   0.647
  367SOL    HW1 1127  -0.063   2.273   0.686
  367SOL    HW2 1128  -0.009   2.157   0.584
  368SOL     OW 1129   0.569   3.137   1.165
  368SOL    HW1 1130   0.476   3.130   1.128
  368SOL    HW2 1131   0.580   3.226   1.209
  369SOL     OW 1132   1.555   3.373   0.703
  369SOL    HW1 1133   1.498   3.357   0.784
  369SOL    HW2 1134   1.496   3.383   0.623
  370SOL     OW 1135   1.135   2.565   0.717
  370SOL    HW1 1136   1.192   2.643   0.692
  370SOL    HW2 1137   1.075   2.591   0.793
  371SOL     OW 1138   1.755   2.469   0.231
  371SOL    HW1 1139   1.743   2.456   0.132
  371SOL    HW2 1140   1.725   2.388   0.280
  372SOL     OW 1141   0.768   3.006   1.023
  372SOL    HW1 1142   0.690   3.023   1.083
  372SOL    HW2 1143   0.802   3.093   0.987
  373SOL     OW 1144   0.850   2.660   1.823
  373SOL    HW1 1145   0.846   2.736   1.888
  373SOL    HW2 1146   0.872   2.696   1.732
  374SOL     OW 1147   0.685   2.874   0.665
  374SOL    HW1 1148   0.754   2.858   0.735
  374SOL    HW2 1149   0.612   2.931   0.703
  375SOL     OW 1150   0.686   3.023   1.803
  375SOL    HW1 1151   0.746   3.102   1.817
  375SOL    HW2 1152   0.600   3.054   1.762
  376SOL     OW 1153   0.335   3.297   1.061
  376SOL    HW1 1154   0.257   3.266   1.008
  376SOL    HW2 1155   0.393   3.355   1.004
  377SOL     OW 1156   0.438   2.254   1.499
  377SOL    HW1 1157   0.520   2.198   1.508
  377SOL    HW2 1158   0.357   2.196   1.503
  378SOL     OW 1159   1.603   2.309   0.737
  378SOL    HW1 1160   1.529   2.355   0.687
  378SOL    HW2 1161   1.654   2.377   0.790
  379SOL     OW 1162   0.240   2.953   0.886
  379SOL    HW1 1163   0.254   2.869   0.938
  379SOL    HW2 1164   0.185   3.017   0.941
  380SOL     OW 1165   0.606   2.826   0.123
  380SOL    HW1 1166   0.613   2.910   0.069
  380SOL    HW2 1167   0.652   2.839   0.211
  381SOL     OW 1168   0.122   2.505   0.563
  381SOL    HW1 1169   0.077   2.417   0.580
  381SOL    HW2 1170   0.121   2.559   0.647
  382SOL     OW 1171   1.689   2.784   0.612
  382SOL    HW1 1172   1.784   2.755   0.620
  382SOL    HW2 1173   1.681   2.849   0.537
  383SOL     OW 1174   1.641   2.970   0.432
  383SOL    HW1 1175   1.727   2.972   0.380
  383SOL    HW2 1176   1.655   3.017   0.520
  384SOL     OW 1177   0.113   2.599   1.597
  384SOL    HW1 1178   0.201   2.586   1.642
  384SOL    HW2 1179   0.100   2.696   1.575
  385SOL     OW 1180   1.293   3.090   1.423
  385SOL    HW1 1181   1.330   3.017   1.365
  385SOL    HW2 1182   1.345   3.095   1.508
  386SOL     OW 1183   0.809   1.866   0.502
  386SOL    HW1 1184   0.849   1.957   0.493
  386SOL    HW2 1185   0.709   1.874   0.508
  387SOL     OW 1186   0.197   2.838   1.264
  387SOL    HW1 1187   0.286   2.793   1.250
  387SOL    HW2 1188   0.124   2.773   1.245
  388SOL     OW 1189   1.525   2.861   0.190
  388SOL    HW1 1190   1.462   2.785   0.203
  388SOL    HW2 1191   1.573   2.879   0.276
  389SOL     OW 1192   0.317   2.113   1.801
  389SOL    HW1 1193   0.388   2.184   1.807
  389SOL    HW2 1194   0.229   2.152   1.829
  390SOL     OW 1195   1.466   3.279   0.953
  390SOL    HW1 1196   1.407   3.285   1.033
  390SOL    HW2 1197   1.451   3.191   0.907
  391SOL     OW 1198   0.598   2.591   0.270
  391SOL    HW1 1199   0.622   2.660   0.202
  391SOL    HW2 1200   0.520   2.624   0.324
  392SOL     OW 1201   1.281   2.207   0.944
  392SOL    HW1 1202   1.195   2.157   0.931
  392SOL    HW2 1203   1.343   2.153   1.000
  393SOL     OW 1204   0.807   2.467   1.465
  393SOL    HW1 1205   0.760   2.464   1.554
  393SOL    HW2 1206   0.756   2.412   1.399
  394SOL     OW 1207   1.394   2.331   1.674
  394SOL    HW1 1208   1.374   2.374   1.762
  394SOL    HW2 1209   1.472   2.269   1.683
  395SOL     OW 1210   0.973   2.752   1.572
  395SOL    HW1 1211   1.019   2.668   1.543
  395SOL    HW2 1212   0.917   2.786   1.497
  396SOL     OW 1213   0.991   2.272   1.242
  396SOL    HW1 1214   0.914   2.306   1.296
  396SOL    HW2 1215   0.957   2.221   1.163
  397SOL     OW 1216   1.041   2.563   0.429
  397SOL    HW1 1217   1.067   2.559   0.525
  397SOL    HW2 1218   0.956   2.512   0.415
  398SOL     OW 1219   0.076   2.673   0.789
  398SOL    HW1 1220   0.175   2.661   0.798
  398SOL    HW2 1221   0.052   2.768   0.810
  399SOL     OW 1222   0.865   2.210   0.195
  399SOL    HW1 1223   0.924   2.273   0.146
  399SOL    HW2 1224   0.884   2.116   0.166
  400SOL     OW 1225   1.719   2.447   1.831
  400SOL    HW1 1226   1.693   2.536   1.795
  400SOL    HW2 1227   1.717   2.379   1.758
  401SOL     OW 1228   1.362   3.006   0.545
  401SOL    HW1 1229   1.445   2.977   0.497
  401SOL    HW2 1230   1.313   3.073   0.489
  402SOL     OW 1231   0.550   2.058   0.885
  402SOL    HW1 1232   0.545   2.053   0.985
  402SOL    HW2 1233   0.552   2.154   0.856
  403SOL     OW 1234   1.795   2.928   0.873
  403SOL    HW1 1235   1.733   2.913   0.797
  403SOL    HW2 1236   1.743   2.939   0.958
  404SOL     OW 1237   0.321   2.805   0.242
  404SOL    HW1 1238   0.403   2.844   0.200
  404SOL    HW2 1239   0.294   2.723   0.193
  405SOL     OW 1240   1.458   2.597   0.728
  405SOL    HW1 1241   1.453   2.532   0.803
  405SOL    HW2 1242   1.538   2.656   0.741
  406SOL     OW 1243   0.202   2.147   1.498
  406SOL    HW1 1244   0.122   2.207   1.485
  406SOL    HW2 1245   0.192   2.098   1.584
  407SOL     OW 1246   1.632   3.239   0.081
  407SOL    HW1 1247   1.600   3.333   0.071
  407SOL    HW2 1248   1.556   3.176   0.069
  408SOL     OW 1249   1.400   1.969   0.426
  408SOL    HW1 1250   1.376   1.932   0.336
  408SOL    HW2 1251   1.499   1.985   0.430
  409SOL     OW 1252   0.382   2.562   0.480
  409SOL    HW1 1253   0.427   2.472   0.477
  409SOL    HW2 1254   0.288   2.551   0.513
  410SOL     OW 1255   1.547   2.084   1.729
  410SOL    HW1 1256   1.542   2.121   1.821
  410SOL    HW2 1257   1.475   2.015   1.717
  411SOL     OW 1258   0.781   2.126   1.749
  411SOL    HW1 1259   0.848   2.065   1.792
  411SOL    HW2 1260   0.708   2.145   1.814
  412SOL     OW 1261   1.351   2.452   1.433
  412SOL    HW1 1262   1.379   2.409   1.518
  412SOL    HW2 1263   1.376   2.548   1.434
  413SOL     OW 1264   0.803   3.264   0.924
  413SOL    HW1 1265   0.893   3.278   0.882
  413SOL    HW2 1266   0.732   3.266   0.853
  414SOL     OW 1267   0.922   2.365   0.899
  414SOL    HW1 1268   0.897   2.356   0.803
  414SOL    HW2 1269   0.970   2.283   0.930
  415SOL     OW 1270   0.539   1.926   0.512
  415SOL    HW1 1271   0.458   1.927   0.570
  415SOL    HW2 1272   0.542   2.009   0.457
  416SOL     OW 1273   1.434   3.050   0.041
  416SOL    HW1 1274   1.466   2.974   0.098
  416SOL    HW2 1275   1.342   3.077   0.071
  417SOL     OW 1276   0.297   1.897   0.171
  417SOL    HW1 1277   0.346   1.981   0.150
  417SOL    HW2 1278   0.359   1.832   0.216
  418SOL     OW 1279   0.935   2.098   0.480
  418SOL    HW1 1280   0.887   2.139   0.402
  418SOL    HW2 1281   1.034   2.096   0.461
  419SOL     OW 1282   1.076   2.545   1.464
  419SOL    HW1 1283   0.996   2.484   1.467
  419SOL    HW2 1284   1.157   2.492   1.440
  420SOL     OW 1285   1.227   3.432   0.793
  420SOL    HW1 1286   1.248   3.506   0.728
  420SOL    HW2 1287   1.295   3.432   0.866
  421SOL     OW 1288   0.459   3.014   0.741
  421SOL    HW1 1289   0.388   2.987   0.806
  421SOL    HW2 1290   0.433   2.986   0.648
  422SOL     OW 1291   1.032   2.411   0.016
  422SOL    HW1 1292   0.991   2.493  -0.023
  422SOL    HW2 1293   1.096   2.437   0.089
  423SOL     OW 1294   0.078   2.418   1.386
  423SOL    HW1 1295   0.170   2.417   1.345
  423SOL    HW2 1296   0.072   2.492   1.453
  424SOL     OW 1297   0.561   2.084   1.147
  424SOL    HW1 1298   0.599   2.000   1.184
  424SOL    HW2 1299   0.473   2.103   1.191
  425SOL     OW 1300   0.866   2.316   0.642
  425SOL    HW1 1301   0.834   2.388   0.580
  425SOL    HW2 1302   0.890   2.235   0.589
  426SOL     OW 1303   1.017   1.901   0.753
  426SOL    HW1 1304   0.945   1.906   0.684
  426SOL    HW2 1305   0.993   1.832   0.822
  427SOL     OW 1306   1.429   3.035   0.867
  427SOL    HW1 1307   1.374   2.951   0.860
  427SOL    HW2 1308   1.455   3.064   0.775
  428SOL     OW 1309   1.466   2.452   0.992
  428SOL    HW1 1310   1.436   2.357   0.999
  428SOL    HW2 1311   1.539   2.468   1.058
  429SOL     OW 1312   1.857   2.695   0.377
  429SOL    HW1 1313   1.899   2.631   0.441
  429SOL    HW2 1314   1.819   2.644   0.299
  430SOL     OW 1315   1.664   3.142   0.657
  430SOL    HW1 1316   1.763   3.150   0.671
  430SOL    HW2 1317   1.619   3.226   0.688
  431SOL     OW 1318   1.390   2.437   0.078
  431SOL    HW1 1319   1.336   2.416   0.159
  431SOL    HW2 1320   1.481   2.396   0.087
  432SOL     OW 1321   0.527   2.118   0.328
  432SOL    HW1 1322   0.554   2.059   0.253
  432SOL    HW2 1323   0.527   2.213   0.297
  433SOL     OW 1324   1.754   3.085   1.588
  433SOL    HW1 1325   1.845   3.046   1.575
  433SOL    HW2 1326   1.762   3.181   1.612
  434SOL     OW 1327   1.638   2.961   1.079
  434SOL    HW1 1328   1.643   3.042   1.138
  434SOL    HW2 1329   1.552   2.963   1.028
  435SOL     OW 1330   0.915   1.951   1.402
  435SOL    HW1 1331   0.940   1.931   1.307
  435SOL    HW2 1332   0.987   2.007   1.444
  436SOL     OW 1333   0.980   2.978   1.719
  436SOL    HW1 1334   0.881   2.984   1.729
  436SOL    HW2 1335   1.003   2.898   1.663
  437SOL     OW 1336   0.705   2.912   0.368
  437SOL    HW1 1337   0.691   2.919   0.467
  437SOL    HW2 1338   0.789   2.861   0.350
  438SOL     OW 1339   0.410   2.675   1.251
  438SOL    HW1 1340   0.496   2.687   1.301
  438SOL    HW2 1341   0.368   2.588   1.278
  439SOL     OW 1342   1.274   2.248   1.262
  439SOL    HW1 1343   1.295   2.322   1.326
  439SOL    HW2 1344   1.185   2.265   1.219
  440SOL     OW 1345   0.367   2.962   0.501
  440SOL    HW1 1346   0.360   3.045   0.445
  440SOL    HW2 1347   0.371   2.882   0.441
  441SOL     OW 1348   0.566   2.399   0.865
  441SOL    HW1 1349   0.578   2.465   0.791
  441SOL    HW2 1350   0.612   2.433   0.948
  442SOL     OW 1351   1.582   2.501   0.472
  442SOL    HW1 1352   1.551   2.562   0.545
  442SOL    HW2 1353   1.632   2.553   0.403
  443SOL     OW 1354   0.402   2.613   1.598
  443SOL    HW1 1355   0.470   2.668   1.551
  443SOL    HW2 1356   0.442   2.525   1.625
  444SOL     OW 1357   1.587   2.641   1.670
  444SOL    HW1 1358   1.495   2.679   1.665
  444SOL    HW2 1359   1.647   2.688   1.605
  445SOL     OW 1360   1.013   1.967   1.770
  445SOL    HW1 1361   1.019   2.052   1.718
  445SOL    HW2 1362   1.045   1.891   1.713
  446SOL     OW 1363   0.504   1.912   1.740
  446SOL    HW1 1364   0.462   1.855   1.670
  446SOL    HW2 1365   0.438   1.981   1.772
  447SOL     OW 1366   0.573   2.732   1.029
  447SOL    HW1 1367   0.617   2.821   1.020
  447SOL    HW2 1368   0.510   2.732   1.106
  448SOL     OW 1369   1.360   2.724   1.045
  448SOL    HW1 1370   1.285   2.724   0.979
  448SOL    HW2 1371   1.397   2.632   1.054
  449SOL     OW 1372   1.209   2.387   0.275
  449SOL    HW1 1373   1.222   2.303   0.329
  449SOL    HW2 1374   1.180   2.461   0.335
  450SOL     OW 1375   0.307   2.075   1.231
  450SOL    HW1 1376   0.284   2.112   1.321
  450SOL    HW2 1377   0.277   1.980   1.225
  451SOL     OW 1378   0.037   3.172   1.282
  451SOL    HW1 1379   0.090   3.123   1.350
  451SOL    HW2 1380   0.059   3.270   1.287
  452SOL     OW 1381   0.732   2.496   1.064
  452SOL    HW1 1382   0.791   2.470   0.988
  452SOL    HW2 1383   0.704   2.592   1.053
  453SOL     OW 1384   1.728   2.797   1.854
  453SOL    HW1 1385   1.682   2.790   1.765
  453SOL    HW2 1386   1.666   2.841   1.920
  454SOL     OW 1387   0.307   1.925   0.618
  454SOL    HW1 1388   0.296   2.019   0.651
  454SOL    HW2 1389   0.302   1.862   0.695
  455SOL     OW 1390   1.622   2.229   0.374
  455SOL    HW1 1391   1.624   2.153   0.438
  455SOL    HW2 1392   1.574   2.306   0.414
  456SOL     OW 1393   1.023   2.628   0.966
  456SOL    HW1 1394   1.038   2.649   1.062
  456SOL    HW2 1395   0.993   2.533   0.957
  457SOL     OW 1396   1.859   3.380   1.605
  457SOL    HW1 1397   1.873   3.407   1.510
  457SOL    HW2 1398   1.942   3.402   1.658
  458SOL     OW 1399   0.350   2.760   1.804
  458SOL    HW1 1400   0.426   2.804   1.852
  458SOL    HW2 1401   0.385   2.713   1.722
  459SOL     OW 1402   1.540   2.136   0.125
  459SOL    HW1 1403   1.479   2.061   0.148
  459SOL    HW2 1404   1.562   2.188   0.208
  460SOL     OW 1405   1.303   2.700   0.042
  460SOL    HW1 1406   1.337   2.607   0.057
  460SOL    HW2 1407   1.321   2.727  -0.053
  461SOL     OW 1408   0.319   2.672   0.949
  461SOL    HW1 1409   0.412   2.708   0.954
  461SOL    HW2 1410   0.313   2.587   1.001
  462SOL     OW 1411   0.339   2.371   1.006
  462SOL    HW1 1412   0.287   2.288   0.989
  462SOL    HW2 1413   0.416   2.376   0.942
  463SOL     OW 1414   1.138   2.242   1.678
  463SOL    HW1 1415   1.093   2.305   1.742
  463SOL    HW2 1416   1.231   2.273   1.661
  464SOL     OW 1417   1.160   2.069   1.477
  464SOL    HW1 1418   1.160   2.133   1.554
  464SOL    HW2 1419   1.188   2.117   1.394
  465SOL     OW 1420   0.008   3.188   0.200
  465SOL    HW1 1421  -0.085   3.209   0.169
  465SOL    HW2 1422   0.018   3.089   0.213
  466SOL     OW 1423   1.002   2.658   1.238
  466SOL    HW1 1424   1.043   2.626   1.324
  466SOL    HW2 1425   0.906   2.631   1.235
  467SOL     OW 1426   0.040   2.406   1.114
  467SOL    HW1 1427   0.125   2.373   1.073
  467SOL    HW2 1428   0.053   2.421   1.212
  468SOL     OW 1429   0.189   2.382   1.722
  468SOL    HW1 1430   0.248   2.342   1.652
  468SOL    HW2 1431   0.131   2.453   1.681
  469SOL     OW 1432   1.369   2.812   1.660
  469SOL    HW1 1433   1.408   2.901   1.680
  469SOL    HW2 1434   1.379   2.792   1.563
  470SOL     OW 1435   0.815   2.434   0.325
  470SOL    HW1 1436   0.822   2.345   0.279
  470SOL    HW2 1437   0.721   2.468   0.317
  471SOL     OW 1438   1.657   2.466   1.206
  471SOL    HW1 1439   1.619   2.397   1.268
  471SOL    HW2 1440   1.739   2.430   1.162
  472SOL     OW 1441   0.671   2.326   1.269
  472SOL    HW1 1442   0.637   2.237   1.239
  472SOL    HW2 1443   0.697   2.380   1.189
  473SOL     OW 1444   0.473   2.362   0.191
  473SOL    HW1 1445   0.534   2.442   0.195
  473SOL    HW2 1446   0.378   2.393   0.198
  474SOL     OW 1447   0.159   2.999   1.466
  474SOL    HW1 1448   0.181   2.938   1.542
  474SOL    HW2 1449   0.169   2.950   1.380
  475SOL     OW 1450   1.347   2.921   1.234
  475SOL    HW1 1451   1.371   2.858   1.160
  475SOL    HW2 1452   1.257   2.961   1.216
  476SOL     OW 1453   1.302   2.717   0.309
  476SOL    HW1 1454   1.216   2.686   0.351
  476SOL    HW2 1455   1.298   2.703   0.210
  477SOL     OW 1456   0.083   3.120   1.022
  477SOL    HW1 1457   0.078   3.119   1.122
  477SOL    HW2 1458   0.000   3.079   0.984
  478SOL     OW 1459   0.903   1.948   0.133
  478SOL    HW1 1460   0.954   1.949   0.047
  478SOL    HW2 1461   0.959   1.906   0.204
  479SOL     OW 1462   1.726   1.997   0.523
  479SOL    HW1 1463   1.799   1.980   0.456
  479SOL    HW2 1464   1.695   1.910   0.561
  480SOL     OW 1465   1.280   2.789   0.672
  480SOL    HW1 1466   1.340   2.708   0.674
  480SOL    HW2 1467   1.320   2.858   0.612
  481SOL     OW 1468   0.830   3.135   1.422
  481SOL    HW1 1469   0.825   3.168   1.517
  481SOL    HW2 1470   0.744   3.154   1.376
  482SOL     OW 1471   1.841   2.037   0.963
  482SOL    HW1 1472   1.880   1.952   0.927
  482SOL    HW2 1473   1.743   2.039   0.944
  483SOL     OW 1474   0.263   2.188   0.720
  483SOL    HW1 1475   0.184   2.239   0.686
  483SOL    HW2 1476   0.254   2.173   0.818
  484SOL     OW 1477   0.822   2.864   1.372
  484SOL    HW1 1478   0.862   2.863   1.280
  484SOL    HW2 1479   0.832   2.956   1.412
  485SOL     OW 1480   0.916   2.772   0.291
  485SOL    HW1 1481   0.979   2.810   0.223
  485SOL    HW2 1482   0.956   2.689   0.330
  486SOL     OW 1483   0.372   3.150   1.490
  486SOL    HW1 1484   0.359   3.243   1.456
  486SOL    HW2 1485   0.288   3.098   1.477
  487SOL     OW 1486   1.614   3.154   1.289
  487SOL    HW1 1487   1.674   3.157   1.369
  487SOL    HW2 1488   1.539   3.218   1.302
  488SOL     OW 1489   1.039   2.960   0.696
  488SOL    HW1 1490   0.969   2.913   0.750
  488SOL    HW2 1491   1.098   2.892   0.653
  489SOL     OW 1492   1.014   2.098   0.971
  489SOL    HW1 1493   1.006   2.062   0.878
  489SOL    HW2 1494   1.012   2.022   1.036
  490SOL     OW 1495   1.709   2.247   1.381
  490SOL    HW1 1496   1.782   2.316   1.385
  490SOL    HW2 1497   1.737   2.172   1.322
  491SOL     OW 1498   0.105   2.875   1.726
  491SOL    HW1 1499   0.028   2.842   1.780
  491SOL    HW2 1500   0.190   2.845   1.768
  492SOL     OW 1501   0.672   2.065   1.489
  492SOL    HW1 1502   0.762   2.049   1.449
  492SOL    HW2 1503   0.680   2.070   1.588
  493SOL     OW 1504   0.075   2.207   0.033
  493SOL    HW1 1505  -0.017   2.179   0.004
  493SOL    HW2 1506   0.106   2.284  -0.023
  494SOL     OW 1507   1.440   2.718   1.398
  494SOL    HW1 1508   1.383   2.770   1.335
  494SOL    HW2 1509   1.536   2.730   1.374
  495SOL     OW 1510   0.072   2.028   0.318
  495SOL    HW1 1511   0.055   2.111   0.264
  495SOL    HW2 1512   0.162   1.991   0.296
  496SOL     OW 1513   0.613   2.704   1.431
  496SOL    HW1 1514   0.669   2.785   1.414
  496SOL    HW2 1515   0.672   2.624   1.434
  497SOL     OW 1516   0.716   2.427   1.708
  497SOL    HW1 1517   0.735   2.492   1.782
  497SOL    HW2 1518   0.776   2.347   1.717
  498SOL     OW 1519   1.450   3.082   1.633
  498SOL    HW1 1520   1.441   3.072   1.732
  498SOL    HW2 1521   1.546   3.075   1.607
  499SOL     OW 1522   1.674   2.745   1.254
  499SOL    HW1 1523   1.647   2.656   1.217
  499SOL    HW2 1524   1.675   2.813   1.181
  500SOL     OW 1525   1.225   2.187   0.449
  500SOL    HW1 1526   1.290   2.113   0.438
  500SOL    HW2 1527   1.245   2.237   0.533
  501SOL     OW 1528   0.594   2.607   0.652
  501SOL    HW1 1529   0.644   2.692   0.633
  501SOL    HW2 1530   0.506   2.609   0.604
  502SOL     OW 1531   1.777   2.204   1.642
  502SOL    HW1 1532   1.760   2.235   1.548
  502SOL    HW2 1533   1.693   2.167   1.680
  503SOL     OW 1534   1.730   2.796   1.517
  503SOL    HW1 1535   1.768   2.887   1.532
  503SOL    HW2 1536   1.722   2.779   1.418
  504SOL     OW 1537   0.859   2.818   0.861
  504SOL    HW1 1538   0.913   2.749   0.909
  504SOL    HW2 1539   0.827   2.887   0.927
  505SOL     OW 1540   1.083   2.846   0.087
  505SOL    HW1 1541   1.060   2.899   0.005
  505SOL    HW2 1542   1.164   2.790   0.068
  506SOL     OW 1543   0.079   3.102   0.653
  506SOL    HW1 1544   0.078   3.055   0.741
  506SOL    HW2 1545   0.161   3.074   0.602
  507SOL     OW 1546   0.428   2.286   0.520
  507SOL    HW1 1547   0.458   2.214   0.458
  507SOL    HW2 1548   0.389   2.246   0.603
  508SOL     OW 1549   0.317   2.409   1.280
  508SOL    HW1 1550   0.355   2.350   1.352
  508SOL    HW2 1551   0.357   2.383   1.192
  509SOL     OW 1552   1.001   1.896   1.154
  509SOL    HW1 1553   0.938   1.824   1.123
  509SOL    HW2 1554   1.094   1.860   1.154
  510SOL     OW 1555   0.770   3.192   0.301
  510SOL    HW1 1556   0.724   3.105   0.318
  510SOL    HW2 1557   0.861   3.189   0.342
  511SOL     OW 1558   1.352   1.914   0.168
  511SOL    HW1 1559   1.387   1.873   0.084
  511SOL    HW2 1560   1.262   1.876   0.188
  512SOL     OW 1561   1.300   2.315   0.691
  512SOL    HW1 1562   1.241   2.395   0.695
  512SOL    HW2 1563   1.315   2.280   0.784
  513SOL     OW 1564   1.593   2.083   0.882
  513SOL    HW1 1565   1.509   2.082   0.936
  513SOL    HW2 1566   1.595   2.166   0.826
  514SOL     OW 1567   0.039   2.939   0.300
  514SOL    HW1 1568   0.138   2.928   0.291
  514SOL    HW2 1569  -0.001   2.853   0.332
  515SOL     OW 1570   0.230   2.490   1.975
  515SOL    HW1 1571   0.137   2.488   2.012
  515SOL    HW2 1572   0.231   2.451   1.883
  516SOL     OW 1573   0.225   2.137   2.858
  516SOL    HW1 1574   0.260   2.120   2.950
  516SOL    HW2 1575   0.137   2.092   2.846
  517SOL     OW 1576   0.019   2.230   2.509
  517SOL    HW1 1577  -0.063   2.273   2.548
  517SOL    HW2 1578  -0.009   2.157   2.446
  518SOL     OW 1579   0.569   3.137   3.027
  518SOL    HW1 1580   0.476   3.130   2.990
  518SOL    HW2 1581   0.580   3.226   3.071
  519SOL     OW 1582   1.555   3.373   2.565
  519SOL    HW1 1583   1.498   3.357   2.646
  519SOL    HW2 1584   1.496   3.383   2.485
  520SOL     OW 1585   1.135   2.565   2.579
  520SOL    HW1 1586   1.192   2.643   2.554
  520SOL    HW2 1587   1.075   2.591   2.655
  521SOL     OW 1588   1.755   2.469   2.093
  521SOL    HW1 1589   1.743   2.456   1.994
  521SOL    HW2 1590   1.725   2.388   2.142
  522SOL     OW 1591   0.768   3.006   2.885
  522SOL    HW1 1592   0.690   3.023   2.945
  522SOL    HW2 1593   0.802   3.093   2.849
  523SOL     OW 1594   0.685   2.874   2.527
  523SOL    HW1 1595   0.754   2.858   2.597
  523SOL    HW2 1596   0.612   2.931   2.565
  524SOL     OW 1597   0.335   3.297   2.923
  524SOL    HW1 1598   0.257   3.266   2.870
  524SOL    HW2 1599   0.393   3.355   2.866
  525SOL     OW 1600   1.603   2.309   2.599
  525SOL    HW1 1601   1.529   2.355   2.549
  525SOL    HW2 1602   1.654   2.377   2.652
  526SOL     OW 1603   0.240   2.953   2.748
  526SOL    HW1 1604   0.254   2.869   2.800
  526SOL    HW2 1605   0.185   3.017   2.803
  527SOL     OW 1606   0.606   2.826   1.985
  527SOL    HW1 1607   0.613   2.910   1.931
  527SOL    HW2 1608   0.652   2.839   2.073
  528SOL     OW 1609   0.122   2.505   2.425
  528SOL    HW1 1610   0.077   2.417   2.442
  528SOL    HW2 1611   0.121   2.559   2.509
  529SOL     OW 1612   1.689   2.784   2.474
  529SOL    HW1 1613   1.784   2.755   2.482
  529SOL    HW2 1614   1.681   2.849   2.399
  530SOL     OW 1615   1.641   2.970   2.294
  530SOL    HW1 1616   1.727   2.972   2.242
  530SOL    HW2 1617   1.655   3.017   2.382
  531SOL     OW 1618   0.809   1.866   2.364
  531SOL    HW1 1619   0.849   1.957   2.355
  531SOL    HW2 1620   0.709   1.874   2.370
  532SOL     OW 1621   0.197   2.838   3.126
  532SOL    HW1 1622   0.286   2.793   3.112
  532SOL    HW2 1623   0.124   2.773   3.107
  533SOL     OW 1624   1.525   2.861   2.052
  533SOL    HW1 1625   1.462   2.785   2.065
  533SOL    HW2 1626   1.573   2.879   2.138
  534SOL     OW 1627   1.466   3.279   2.815
  534SOL    HW1 1628   1.407   3.285   2.895
  534SOL    HW2 1629   1.451   3.191   2.769
  535SOL     OW 1630   0.598   2.591   2.132
  535SOL    HW1 1631   0.622   2.660   2.064
  535SOL    HW2 1632   0.520   2.624   2.186
  536SOL     OW 1633   1.281   2.207   2.806
  536SOL    HW1 1634   1.195   2.157   2.793
  536SOL    HW2 1635   1.343   2.153   2.862
  537SOL     OW 1636   0.991   2.272   3.104
  537SOL    HW1 1637   0.914   2.306   3.158
  537SOL    HW2 1638   0.957   2.221   3.025
  538SOL     OW 1639   1.041   2.563   2.291
  538SOL    HW1 1640   1.067   2.559   2.387
  538SOL    HW2 1641   0.956   2.512   2.277
  539SOL     OW 1642   0.076   2.673   2.651
  539SOL    HW1 1643   0.175   2.661   2.660
  539SOL    HW2 1644   0.052   2.768   2.672
  540SOL     OW 1645   0.865   2.210   2.057
  540SOL    HW1 1646   0.924   2.273   2.008
  540SOL    HW2 1647   0.884   2.116   2.028
  541SOL     OW 1648   1.362   3.006   2.407
  541SOL    HW1 1649   1.445   2.977   2.359
  541SOL    HW2 1650   1.313   3.073   2.351
  542SOL     OW 1651   0.550   2.058   2.747
  542SOL    HW1 1652   0.545   2.053   2.847
  542SOL    HW2 1653   0.552   2.154   2.718
  543SOL     OW 1654   1.795   2.928   2.735
  543SOL    HW1 1655   1.733   2.913   2.659
  543SOL    HW2 1656   1.743   2.939   2.820
  544SOL     OW 1657   0.321   2.805   2.104
  544SOL    HW1 1658   0.403   2.844   2.062
  544SOL    HW2 1659   0.294   2.723   2.055
  545SOL     OW 1660   1.458   2.597   2.590
  545SOL    HW1 1661   1.453   2.532   2.665
  545SOL    HW2 1662   1.538   2.656   2.603
  546SOL     OW 1663   1.632   3.239   1.943
  546SOL    HW1 1664   1.600   3.333   1.933
  546SOL    HW2 1665   1.556   3.176   1.931
  547SOL     OW 1666   1.400   1.969   2.288
  547SOL    HW1 1667   1.376   1.932   2.198
  547SOL    HW2 1668   1.499   1.985   2.292
  548SOL     OW 1669   0.382   2.562   2.342
  548SOL    HW1 1670   0.427   2.472   2.339
  548SOL    HW2 1671   0.288   2.551   2.375
  549SOL     OW 1672   0.614   1.984   1.979
  549SOL    HW1 1673   0.712   1.962   1.986
  549SOL    HW2 1674   0.583   1.967   1.886
  550SOL     OW 1675   0.803   3.264   2.786
  550SOL    HW1 1676   0.893   3.278   2.744
  550SOL    HW2 1677   0.732   3.266   2.715
  551SOL     OW 1678   0.922   2.365   2.761
  551SOL    HW1 1679   0.897   2.356   2.665
  551SOL    HW2 1680   0.970   2.283   2.792
  552SOL     OW 1681   0.539   1.926   2.374
  552SOL    HW1 1682   0.458   1.927   2.432
  552SOL    HW2 1683   0.542   2.009   2.319
  553SOL     OW 1684   1.434   3.050   1.903
  553SOL    HW1 1685   1.466   2.974   1.960
  553SOL    HW2 1686   1.342   3.077   1.933
  554SOL     OW 1687   0.297   1.897   2.033
  554SOL    HW1 1688   0.346   1.981   2.012
  554SOL    HW2 1689   0.359   1.832   2.078
  555SOL     OW 1690   0.935   2.098   2.342
  555SOL    HW1 1691   0.887   2.139   2.264
  555SOL    HW2 1692   1.034   2.096   2.323
  556SOL     OW 1693   1.227   3.432   2.655
  556SOL    HW1 1694   1.248   3.506   2.590
  556SOL    HW2 1695   1.295   3.432   2.728
  557SOL     OW 1696   0.459   3.014   2.603
  557SOL    HW1 1697   0.388   2.987   2.668
  557SOL    HW2 1698   0.433   2.986   2.510
  558SOL     OW 1699   1.032   2.411   1.878
  558SOL    HW1 1700   0.991   2.493   1.839
  558SOL    HW2 1701   1.096   2.437   1.951
  559SOL     OW 1702   0.561   2.084   3.009
  559SOL    HW1 1703   0.599   2.000   3.046
  559SOL    HW2 1704   0.473   2.103   3.053
  560SOL     OW 1705   0.866   2.316   2.504
  560SOL    HW1 1706   0.834   2.388   2.442
  560SOL    HW2 1707   0.890   2.235   2.451
  561SOL     OW 1708   1.017   1.901   2.615
  561SOL    HW1 1709   0.945   1.906   2.546
  561SOL    HW2 1710   0.993   1.832   2.684
  562SOL     OW 1711   1.429   3.035   2.729
  562SOL    HW1 1712   1.374   2.951   2.722
  562SOL    HW2 1713   1.455   3.064   2.637
  563SOL     OW 1714   1.466   2.452   2.854
  563SOL    HW1 1715   1.436   2.357   2.861
  563SOL    HW2 1716   1.539   2.468   2.920
  564SOL     OW 1717   1.857   2.695   2.239
  564SOL    HW1 1718   1.899   2.631   2.303
  564SOL    HW2 1719   1.819   2.644   2.161
  565SOL     OW 1720   1.664   3.142   2.519
  565SOL    HW1 1721   1.763   3.150   2.533
  565SOL    HW2 1722   1.619   3.226   2.550
  566SOL     OW 1723   1.390   2.437   1.940
  566SOL    HW1 1724   1.336   2.416   2.021
  566SOL    HW2 1725   1.481   2.396   1.949
  567SOL     OW 1726   0.527   2.118   2.190
  567SOL    HW1 1727   0.554   2.059   2.115
  567SOL    HW2 1728   0.527   2.213   2.159
  568SOL     OW 1729   1.638   2.961   2.941
  568SOL    HW1 1730   1.643   3.042   3.000
  568SOL    HW2 1731   1.552   2.963   2.890
  569SOL     OW 1732   0.705   2.912   2.230
  569SOL    HW1 1733   0.691   2.919   2.329
  569SOL    HW2 1734   0.789   2.861   2.212
  570SOL     OW 1735   0.410   2.675   3.113
  570SOL    HW1 1736   0.496   2.687   3.163
  570SOL    HW2 1737   0.368   2.588   3.140
  571SOL     OW 1738   1.274   2.248   3.124
  571SOL    HW1 1739   1.295   2.322   3.188
  571SOL    HW2 1740   1.185   2.265   3.081
  572SOL     OW 1741   0.367   2.962   2.363
  572SOL    HW1 1742   0.360   3.045   2.307
  572SOL    HW2 1743   0.371   2.882   2.303
  573SOL     OW 1744   0.566   2.399   2.727
  573SOL    HW1 1745   0.578   2.465   2.653
  573SOL    HW2 1746   0.612   2.433   2.810
  574SOL     OW 1747   1.582   2.501   2.334
  574SOL    HW1 1748   1.551   2.562   2.407
  574SOL    HW2 1749   1.632   2.553   2.265
  575SOL     OW 1750   0.573   2.732   2.891
  575SOL    HW1 1751   0.617   2.821   2.882
  575SOL    HW2 1752   0.510   2.732   2.968
  576SOL     OW 1753   1.360   2.724   2.907
  576SOL    HW1 1754   1.285   2.724   2.841
  576SOL    HW2 1755   1.397   2.632   2.916
  577SOL     OW 1756   1.209   2.387   2.137
  577SOL    HW1 1757   1.222   2.303   2.191
  577SOL    HW2 1758   1.180   2.461   2.197
  578SOL     OW 1759   0.307   2.075   3.093
  578SOL    HW1 1760   0.284   2.112   3.183
  578SOL    HW2 1761   0.277   1.980   3.087
  579SOL     OW 1762   0.037   3.172   3.144
  579SOL    HW1 1763   0.090   3.123   3.212
  579SOL    HW2 1764   0.059   3.270   3.149
  580SOL     OW 1765   0.732   2.496   2.926
  580SOL    HW1 1766   0.791   2.470   2.850
  580SOL    HW2 1767   0.704   2.592   2.915
  581SOL     OW 1768   0.307   1.925   2.480
  581SOL    HW1 1769   0.296   2.019   2.513
  581SOL    HW2 1770   0.302   1.862   2.557
  582SOL     OW 1771   1.622   2.229   2.236
  582SOL    HW1 1772   1.624   2.153   2.300
  582SOL    HW2 1773   1.574   2.306   2.276
  583SOL     OW 1774   1.023   2.628   2.828
  583SOL    HW1 1775   1.038   2.649   2.924
  583SOL    HW2 1776   0.993   2.533   2.819
  584SOL     OW 1777   1.540   2.136   1.987
  584SOL    HW1 1778   1.479   2.061   2.010
  584SOL    HW2 1779   1.562   2.188   2.070
  585SOL     OW 1780   1.303   2.700   1.904
  585SOL    HW1 1781   1.337   2.607   1.919
  585SOL    HW2 1782   1.321   2.727   1.809
  586SOL     OW 1783   0.319   2.672   2.811
  586SOL    HW1 1784   0.412   2.708   2.816
  586SOL    HW2 1785   0.313   2.587   2.863
  587SOL     OW 1786   0.339   2.371   2.868
  587SOL    HW1 1787   0.287   2.288   2.851
  587SOL    HW2 1788   0.416   2.376   2.804
  588SOL     OW 1789   1.160   2.069   3.339
  588SOL    HW1 1790   1.160   2.133   3.416
  588SOL    HW2 1791   1.188   2.117   3.256
  589SOL     OW 1792   0.008   3.188   2.062
  589SOL    HW1 1793  -0.085   3.209   2.031
  589SOL    HW2 1794   0.018   3.089   2.075
  590SOL     OW 1795   1.002   2.658   3.100
  590SOL    HW1 1796   1.043   2.626   3.186
  590SOL    HW2 1797   0.906   2.631   3.097
  591SOL     OW 1798   0.040   2.406   2.976
  591SOL    HW1 1799   0.125   2.373   2.935
  591SOL    HW2 1800   0.053   2.421   3.074
  592SOL     OW 1801   0.815   2.434   2.187
  592SOL    HW1 1802   0.822   2.345   2.141
  592SOL    HW2 1803   0.721   2.468   2.179
  593SOL     OW 1804   1.657   2.466   3.068
  593SOL    HW1 1805   1.619   2.397   3.130
  593SOL    HW2 1806   1.739   2.430   3.024
  594SOL     OW 1807   0.671   2.326   3.131
  594SOL    HW1 1808   0.637   2.237   3.101
  594SOL    HW2 1809   0.697   2.380   3.051
  595SOL     OW 1810   0.473   2.362   2.053
  595SOL    HW1 1811   0.534   2.442   2.057
  595SOL    HW2 1812   0.378   2.393   2.060
  596SOL     OW 1813   1.347   2.921   3.096
  596SOL    HW1 1814   1.371   2.858   3.022
  596SOL    HW2 1815   1.257   2.961   3.078
  597SOL     OW 1816   1.302   2.717   2.171
  597SOL    HW1 1817   1.216   2.686   2.213
  597SOL    HW2 1818   1.298   2.703   2.072
  598SOL     OW 1819   0.083   3.120   2.884
  598SOL    HW1 1820   0.078   3.119   2.984
  598SOL    HW2 1821   0.000   3.079   2.846
  599SOL     OW 1822   1.726   1.997   2.385
  599SOL    HW1 1823   1.799   1.980   2.318
  599SOL    HW2 1824   1.695   1.910   2.423
  600SOL     OW 1825   1.280   2.789   2.534
  600SOL    HW1 1826   1.340   2.708   2.536
  600SOL    HW2 1827   1.320   2.858   2.474
  601SOL     OW 1828   0.830   3.135   3.284
  601SOL    HW1 1829   0.825   3.168   3.379
  601SOL    HW2 1830   0.744   3.154   3.238
  602SOL     OW 1831   1.841   2.037   2.825
  602SOL    HW1 1832   1.880   1.952   2.789
  602SOL    HW2 1833   1.743   2.039   2.806
  603SOL     OW 1834   0.263   2.188   2.582
  603SOL    HW1 1835   0.184   2.239   2.548
  603SOL    HW2 1836   0.254   2.173   2.680
  604SOL     OW 1837   1.194   3.474   1.893
  604SOL    HW1 1838   1.200   3.381   1.930
  604SOL    HW2 1839   1.135   3.474   1.813
  605SOL     OW 1840   0.822   2.864   3.234
  605SOL    HW1 1841   0.862   2.863   3.142
  605SOL    HW2 1842   0.832   2.956   3.274
  606SOL     OW 1843   0.916   2.772   2.153
  606SOL    HW1 1844   0.979   2.810   2.085
  606SOL    HW2 1845   0.956   2.689   2.192
  607SOL     OW 1846   1.039   2.960   2.558
  607SOL    HW1 1847   0.969   2.913   2.612
  607SOL    HW2 1848   1.098   2.892   2.515
  608SOL     OW 1849   1.014   2.098   2.833
  608SOL    HW1 1850   1.006   2.062   2.740
  608SOL    HW2 1851   1.012   2.022   2.898
  609SOL     OW 1852   1.709   2.247   3.243
  609SOL    HW1 1853   1.782   2.316   3.247
  609SOL    HW2 1854   1.737   2.172   3.184
  610SOL     OW 1855   0.075   2.207   1.895
  610SOL    HW1 1856  -0.017   2.179   1.866
  610SOL    HW2 1857   0.106   2.284   1.839
  611SOL     OW 1858   0.072   2.028   2.180
  611SOL    HW1 1859   0.055   2.111   2.126
  611SOL    HW2 1860   0.162   1.991   2.158
  612SOL     OW 1861   1.450   3.082   3.495
  612SOL    HW1 1862   1.441   3.072   3.594
  612SOL    HW2 1863   1.546   3.075   3.469
  613SOL     OW 1864   1.674   2.745   3.116
  613SOL    HW1 1865   1.647   2.656   3.079
  613SOL    HW2 1866   1.675   2.813   3.043
  614SOL     OW 1867   1.225   2.187   2.311
  614SOL    HW1 1868   1.290   2.113   2.300
  614SOL    HW2 1869   1.245   2.237   2.395
  615SOL     OW 1870   0.594   2.607   2.514
  615SOL    HW1 1871   0.644   2.692   2.495
  615SOL    HW2 1872   0.506   2.609   2.466
  616SOL     OW 1873   1.730   2.796   3.379
  616SOL    HW1 1874   1.768   2.887   3.394
  616SOL    HW2 1875   1.722   2.779   3.280
  617SOL     OW 1876   0.859   2.818   2.723
  617SOL    HW1 1877   0.913   2.749   2.771
  617SOL    HW2 1878   0.827   2.887   2.789
  618SOL     OW 1879   1.083   2.846   1.949
  618SOL    HW1 1880   1.060   2.899   1.867
  618SOL    HW2 1881   1.164   2.790   1.930
  619SOL     OW 1882   0.079   3.102   2.515
  619SOL    HW1 1883   0.078   3.055   2.603
  619SOL    HW2 1884   0.161   3.074   2.464
  620SOL     OW 1885   1.824   2.054   3.089
  620SOL    HW1 1886   1.820   1.964   3.133
  620SOL    HW2 1887   1.827   2.043   2.990
  621SOL     OW 1888   0.428   2.286   2.382
  621SOL    HW1 1889   0.458   2.214   2.320
  621SOL    HW2 1890   0.389   2.246   2.465
  622SOL     OW 1891   1.424   2.076   2.974
  622SOL    HW1 1892   1.476   2.011   3.029
  622SOL    HW2 1893   1.375   2.139   3.035
  623SOL     OW 1894   1.001   1.896   3.016
  623SOL    HW1 1895   0.938   1.824   2.985
  623SOL    HW2 1896   1.094   1.860   3.016
  624SOL     OW 1897   0.770   3.192   2.163
  624SOL    HW1 1898   0.724   3.105   2.180
  624SOL    HW2 1899   0.861   3.189   2.204
  625SOL     OW 1900   1.352   1.914   2.030
  625SOL    HW1 1901   1.387   1.873   1.946
  625SOL    HW2 1902   1.262   1.876   2.050
  626SOL     OW 1903   1.300   2.315   2.553
  626SOL    HW1 1904   1.241   2.395   2.557
  626SOL    HW2 1905   1.315   2.280   2.646
  627SOL     OW 1906   1.593   2.083   2.744
  627SOL    HW1 1907   1.509   2.082   2.798
  627SOL    HW2 1908   1.595   2.166   2.688
  628SOL     OW 1909   0.039   2.939   2.162
  628SOL    HW1 1910   0.138   2.928   2.153
  628SOL    HW2 1911  -0.001   2.853   2.194
  629SOL     OW 1912   2.092   0.628   0.113
  629SOL    HW1 1913   1.999   0.626   0.150
  629SOL    HW2 1914   2.093   0.589   0.021
  630SOL     OW 1915   2.087   0.275   0.996
  630SOL    HW1 1916   2.122   0.258   1.088
  630SOL    HW2 1917   1.999   0.230   0.984
  631SOL     OW 1918   1.881   0.368   0.647
  631SOL    HW1 1919   1.799   0.411   0.686
  631SOL    HW2 1920   1.853   0.295   0.584
  632SOL     OW 1921   2.431   1.275   1.165
  632SOL    HW1 1922   2.338   1.268   1.128
  632SOL    HW2 1923   2.442   1.364   1.209
  633SOL     OW 1924   2.997   0.703   0.717
  633SOL    HW1 1925   3.054   0.781   0.692
  633SOL    HW2 1926   2.937   0.729   0.793
  634SOL     OW 1927   2.630   1.144   1.023
  634SOL    HW1 1928   2.552   1.161   1.083
  634SOL    HW2 1929   2.664   1.231   0.987
  635SOL     OW 1930   2.712   0.798   1.823
  635SOL    HW1 1931   2.708   0.874   1.888
  635SOL    HW2 1932   2.734   0.834   1.732
  636SOL     OW 1933   2.547   1.012   0.665
  636SOL    HW1 1934   2.616   0.996   0.735
  636SOL    HW2 1935   2.474   1.069   0.703
  637SOL     OW 1936   2.548   1.161   1.803
  637SOL    HW1 1937   2.608   1.240   1.817
  637SOL    HW2 1938   2.462   1.192   1.762
  638SOL     OW 1939   2.197   1.435   1.061
  638SOL    HW1 1940   2.119   1.404   1.008
  638SOL    HW2 1941   2.255   1.493   1.004
  639SOL     OW 1942   2.300   0.392   1.499
  639SOL    HW1 1943   2.382   0.336   1.508
  639SOL    HW2 1944   2.219   0.334   1.503
  640SOL     OW 1945   2.093   1.713   0.483
  640SOL    HW1 1946   2.127   1.790   0.537
  640SOL    HW2 1947   2.137   1.713   0.393
  641SOL     OW 1948   2.989   1.341   1.690
  641SOL    HW1 1949   3.036   1.341   1.778
  641SOL    HW2 1950   2.941   1.254   1.679
  642SOL     OW 1951   2.092   1.434   0.538
  642SOL    HW1 1952   2.066   1.530   0.538
  642SOL    HW2 1953   2.021   1.380   0.583
  643SOL     OW 1954   2.102   1.091   0.886
  643SOL    HW1 1955   2.116   1.007   0.938
  643SOL    HW2 1956   2.047   1.155   0.941
  644SOL     OW 1957   2.482   1.786   1.439
  644SOL    HW1 1958   2.390   1.769   1.474
  644SOL    HW2 1959   2.510   1.878   1.465
  645SOL     OW 1960   2.468   0.964   0.123
  645SOL    HW1 1961   2.475   1.048   0.069
  645SOL    HW2 1962   2.514   0.977   0.211
  646SOL     OW 1963   1.984   0.643   0.563
  646SOL    HW1 1964   1.939   0.555   0.580
  646SOL    HW2 1965   1.983   0.697   0.647
  647SOL     OW 1966   1.889   1.596   0.117
  647SOL    HW1 1967   1.870   1.500   0.138
  647SOL    HW2 1968   1.856   1.654   0.192
  648SOL     OW 1969   1.975   0.737   1.597
  648SOL    HW1 1970   2.063   0.724   1.642
  648SOL    HW2 1971   1.962   0.834   1.575
  649SOL     OW 1972   2.475   1.365   0.726
  649SOL    HW1 1973   2.426   1.278   0.735
  649SOL    HW2 1974   2.452   1.408   0.639
  650SOL     OW 1975   3.155   1.228   1.423
  650SOL    HW1 1976   3.192   1.155   1.365
  650SOL    HW2 1977   3.207   1.233   1.508
  651SOL     OW 1978   2.671   0.004   0.502
  651SOL    HW1 1979   2.711   0.095   0.493
  651SOL    HW2 1980   2.571   0.012   0.508
  652SOL     OW 1981   2.059   0.976   1.264
  652SOL    HW1 1982   2.148   0.931   1.250
  652SOL    HW2 1983   1.986   0.911   1.245
  653SOL     OW 1984   3.049   1.792   1.616
  653SOL    HW1 1985   3.073   1.852   1.540
  653SOL    HW2 1986   3.056   1.697   1.586
  654SOL     OW 1987   2.179   0.251   1.801
  654SOL    HW1 1988   2.250   0.322   1.807
  654SOL    HW2 1989   2.091   0.290   1.829
  655SOL     OW 1990   2.460   0.729   0.270
  655SOL    HW1 1991   2.484   0.798   0.202
  655SOL    HW2 1992   2.382   0.762   0.324
  656SOL     OW 1993   3.143   0.345   0.944
  656SOL    HW1 1994   3.057   0.295   0.931
  656SOL    HW2 1995   3.205   0.291   1.000
  657SOL     OW 1996   2.669   0.605   1.465
  657SOL    HW1 1997   2.622   0.602   1.554
  657SOL    HW2 1998   2.618   0.550   1.399
  658SOL     OW 1999   2.835   0.890   1.572
  658SOL    HW1 2000   2.881   0.806   1.543
  658SOL    HW2 2001   2.779   0.924   1.497
  659SOL     OW 2002   2.853   0.410   1.242
  659SOL    HW1 2003   2.776   0.444   1.296
  659SOL    HW2 2004   2.819   0.359   1.163
  660SOL     OW 2005   2.903   0.701   0.429
  660SOL    HW1 2006   2.929   0.697   0.525
  660SOL    HW2 2007   2.818   0.650   0.415
  661SOL     OW 2008   1.938   0.811   0.789
  661SOL    HW1 2009   2.037   0.799   0.798
  661SOL    HW2 2010   1.914   0.906   0.810
  662SOL     OW 2011   1.992   1.821   1.571
  662SOL    HW1 2012   1.982   1.806   1.670
  662SOL    HW2 2013   1.906   1.857   1.535
  663SOL     OW 2014   2.727   0.348   0.195
  663SOL    HW1 2015   2.786   0.411   0.146
  663SOL    HW2 2016   2.746   0.254   0.166
  664SOL     OW 2017   2.412   0.196   0.885
  664SOL    HW1 2018   2.407   0.191   0.985
  664SOL    HW2 2019   2.414   0.292   0.856
  665SOL     OW 2020   2.870   1.456   0.477
  665SOL    HW1 2021   2.824   1.528   0.425
  665SOL    HW2 2022   2.866   1.476   0.575
  666SOL     OW 2023   2.213   1.801   0.853
  666SOL    HW1 2024   2.263   1.715   0.859
  666SOL    HW2 2025   2.278   1.878   0.850
  667SOL     OW 2026   3.089   1.550   1.506
  667SOL    HW1 2027   3.095   1.473   1.570
  667SOL    HW2 2028   3.037   1.524   1.426
  668SOL     OW 2029   2.183   0.943   0.242
  668SOL    HW1 2030   2.265   0.982   0.200
  668SOL    HW2 2031   2.156   0.861   0.193
  669SOL     OW 2032   2.323   1.266   1.727
  669SOL    HW1 2033   2.273   1.267   1.641
  669SOL    HW2 2034   2.260   1.248   1.803
  670SOL     OW 2035   2.973   1.776   0.237
  670SOL    HW1 2036   2.913   1.714   0.287
  670SOL    HW2 2037   3.004   1.732   0.152
  671SOL     OW 2038   2.064   0.285   1.498
  671SOL    HW1 2039   1.984   0.345   1.485
  671SOL    HW2 2040   2.054   0.236   1.584
  672SOL     OW 2041   3.494   1.377   0.081
  672SOL    HW1 2042   3.462   1.471   0.071
  672SOL    HW2 2043   3.418   1.314   0.069
  673SOL     OW 2044   2.326   1.743   0.323
  673SOL    HW1 2045   2.359   1.782   0.409
  673SOL    HW2 2046   2.402   1.736   0.258
  674SOL     OW 2047   2.111   1.785   1.241
  674SOL    HW1 2048   2.168   1.720   1.291
  674SOL    HW2 2049   2.095   1.752   1.148
  675SOL     OW 2050   2.802   1.698   0.904
  675SOL    HW1 2051   2.882   1.641   0.925
  675SOL    HW2 2052   2.753   1.658   0.827
  676SOL     OW 2053   2.244   0.700   0.480
  676SOL    HW1 2054   2.289   0.610   0.477
  676SOL    HW2 2055   2.150   0.689   0.513
  677SOL     OW 2056   2.476   0.122   0.117
  677SOL    HW1 2057   2.574   0.100   0.124
  677SOL    HW2 2058   2.445   0.105   0.024
  678SOL     OW 2059   2.643   0.264   1.749
  678SOL    HW1 2060   2.710   0.203   1.792
  678SOL    HW2 2061   2.570   0.283   1.814
  679SOL     OW 2062   2.750   1.514   1.195
  679SOL    HW1 2063   2.727   1.489   1.101
  679SOL    HW2 2064   2.811   1.445   1.234
  680SOL     OW 2065   2.665   1.402   0.924
  680SOL    HW1 2066   2.755   1.416   0.882
  680SOL    HW2 2067   2.594   1.404   0.853
  681SOL     OW 2068   2.784   0.503   0.899
  681SOL    HW1 2069   2.759   0.494   0.803
  681SOL    HW2 2070   2.832   0.421   0.930
  682SOL     OW 2071   2.401   0.064   0.512
  682SOL    HW1 2072   2.320   0.065   0.570
  682SOL    HW2 2073   2.404   0.147   0.457
  683SOL     OW 2074   2.159   0.035   0.171
  683SOL    HW1 2075   2.208   0.119   0.150
  683SOL    HW2 2076   2.221  -0.030   0.216
  684SOL     OW 2077   2.797   0.236   0.480
  684SOL    HW1 2078   2.749   0.277   0.402
  684SOL    HW2 2079   2.896   0.234   0.461
  685SOL     OW 2080   2.938   0.683   1.464
  685SOL    HW1 2081   2.858   0.622   1.467
  685SOL    HW2 2082   3.019   0.630   1.440
  686SOL     OW 2083   3.089   1.570   0.793
  686SOL    HW1 2084   3.110   1.644   0.728
  686SOL    HW2 2085   3.157   1.570   0.866
  687SOL     OW 2086   2.321   1.152   0.741
  687SOL    HW1 2087   2.250   1.125   0.806
  687SOL    HW2 2088   2.295   1.124   0.648
  688SOL     OW 2089   3.133   1.797   0.591
  688SOL    HW1 2090   3.177   1.861   0.527
  688SOL    HW2 2091   3.083   1.849   0.661
  689SOL     OW 2092   2.894   0.549   0.016
  689SOL    HW1 2093   2.853   0.631  -0.023
  689SOL    HW2 2094   2.958   0.575   0.089
  690SOL     OW 2095   1.940   0.556   1.386
  690SOL    HW1 2096   2.032   0.555   1.345
  690SOL    HW2 2097   1.934   0.630   1.453
  691SOL     OW 2098   2.423   0.222   1.147
  691SOL    HW1 2099   2.461   0.138   1.184
  691SOL    HW2 2100   2.335   0.241   1.191
  692SOL     OW 2101   2.728   0.454   0.642
  692SOL    HW1 2102   2.696   0.526   0.580
  692SOL    HW2 2103   2.752   0.373   0.589
  693SOL     OW 2104   2.879   0.039   0.753
  693SOL    HW1 2105   2.807   0.044   0.684
  693SOL    HW2 2106   2.855  -0.030   0.822
  694SOL     OW 2107   2.350   1.385   0.174
  694SOL    HW1 2108   2.263   1.370   0.221
  694SOL    HW2 2109   2.333   1.411   0.079
  695SOL     OW 2110   3.526   1.280   0.657
  695SOL    HW1 2111   3.625   1.288   0.671
  695SOL    HW2 2112   3.481   1.364   0.688
  696SOL     OW 2113   2.389   0.256   0.328
  696SOL    HW1 2114   2.416   0.197   0.253
  696SOL    HW2 2115   2.389   0.351   0.297
  697SOL     OW 2116   2.926   1.347   1.340
  697SOL    HW1 2117   2.846   1.324   1.395
  697SOL    HW2 2118   3.009   1.321   1.389
  698SOL     OW 2119   2.973   1.195   1.100
  698SOL    HW1 2120   2.933   1.239   1.181
  698SOL    HW2 2121   2.932   1.232   1.017
  699SOL     OW 2122   2.777   0.089   1.402
  699SOL    HW1 2123   2.802   0.069   1.307
  699SOL    HW2 2124   2.849   0.145   1.444
  700SOL     OW 2125   2.842   1.116   1.719
  700SOL    HW1 2126   2.743   1.122   1.729
  700SOL    HW2 2127   2.865   1.036   1.663
  701SOL     OW 2128   2.567   1.050   0.368
  701SOL    HW1 2129   2.553   1.057   0.467
  701SOL    HW2 2130   2.651   0.999   0.350
  702SOL     OW 2131   2.272   0.813   1.251
  702SOL    HW1 2132   2.358   0.825   1.301
  702SOL    HW2 2133   2.230   0.726   1.278
  703SOL     OW 2134   3.136   0.386   1.262
  703SOL    HW1 2135   3.157   0.460   1.326
  703SOL    HW2 2136   3.047   0.403   1.219
  704SOL     OW 2137   1.926   1.564   1.331
  704SOL    HW1 2138   1.880   1.646   1.297
  704SOL    HW2 2139   2.024   1.583   1.340
  705SOL     OW 2140   2.229   1.100   0.501
  705SOL    HW1 2141   2.222   1.183   0.445
  705SOL    HW2 2142   2.233   1.020   0.441
  706SOL     OW 2143   2.428   0.537   0.865
  706SOL    HW1 2144   2.440   0.603   0.791
  706SOL    HW2 2145   2.474   0.571   0.948
  707SOL     OW 2146   3.114   1.348   0.388
  707SOL    HW1 2147   3.164   1.425   0.428
  707SOL    HW2 2148   3.019   1.350   0.420
  708SOL     OW 2149   2.216   1.510   1.329
  708SOL    HW1 2150   2.195   1.466   1.242
  708SOL    HW2 2151   2.313   1.536   1.332
  709SOL     OW 2152   2.264   0.751   1.598
  709SOL    HW1 2153   2.332   0.806   1.551
  709SOL    HW2 2154   2.304   0.663   1.625
  710SOL     OW 2155   2.875   0.105   1.770
  710SOL    HW1 2156   2.881   0.190   1.718
  710SOL    HW2 2157   2.907   0.029   1.713
  711SOL     OW 2158   2.366   0.050   1.740
  711SOL    HW1 2159   2.324  -0.007   1.670
  711SOL    HW2 2160   2.300   0.119   1.772
  712SOL     OW 2161   2.435   0.870   1.029
  712SOL    HW1 2162   2.479   0.959   1.020
  712SOL    HW2 2163   2.372   0.870   1.106
  713SOL     OW 2164   3.222   0.862   1.045
  713SOL    HW1 2165   3.147   0.862   0.979
  713SOL    HW2 2166   3.259   0.770   1.054
  714SOL     OW 2167   3.071   0.525   0.275
  714SOL    HW1 2168   3.084   0.441   0.329
  714SOL    HW2 2169   3.042   0.599   0.335
  715SOL     OW 2170   2.169   0.213   1.231
  715SOL    HW1 2171   2.146   0.250   1.321
  715SOL    HW2 2172   2.139   0.118   1.225
  716SOL     OW 2173   1.899   1.310   1.282
  716SOL    HW1 2174   1.952   1.261   1.350
  716SOL    HW2 2175   1.921   1.408   1.287
  717SOL     OW 2176   2.594   0.634   1.064
  717SOL    HW1 2177   2.653   0.608   0.988
  717SOL    HW2 2178   2.566   0.730   1.053
  718SOL     OW 2179   2.169   0.063   0.618
  718SOL    HW1 2180   2.158   0.157   0.651
  718SOL    HW2 2181   2.164   0.000   0.695
  719SOL     OW 2182   3.484   0.367   0.374
  719SOL    HW1 2183   3.486   0.291   0.438
  719SOL    HW2 2184   3.436   0.444   0.414
  720SOL     OW 2185   2.885   0.766   0.966
  720SOL    HW1 2186   2.900   0.787   1.062
  720SOL    HW2 2187   2.855   0.671   0.957
  721SOL     OW 2188   2.842   1.573   1.700
  721SOL    HW1 2189   2.822   1.617   1.612
  721SOL    HW2 2190   2.881   1.482   1.684
  722SOL     OW 2191   2.212   0.898   1.804
  722SOL    HW1 2192   2.288   0.942   1.852
  722SOL    HW2 2193   2.247   0.851   1.722
  723SOL     OW 2194   3.165   0.838   0.042
  723SOL    HW1 2195   3.199   0.745   0.057
  723SOL    HW2 2196   3.183   0.865  -0.053
  724SOL     OW 2197   2.930   1.333   0.849
  724SOL    HW1 2198   2.937   1.249   0.794
  724SOL    HW2 2199   2.992   1.402   0.813
  725SOL     OW 2200   2.181   0.810   0.949
  725SOL    HW1 2201   2.274   0.846   0.954
  725SOL    HW2 2202   2.175   0.725   1.001
  726SOL     OW 2203   2.201   0.509   1.006
  726SOL    HW1 2204   2.149   0.426   0.989
  726SOL    HW2 2205   2.278   0.514   0.942
  727SOL     OW 2206   3.000   0.380   1.678
  727SOL    HW1 2207   2.955   0.443   1.742
  727SOL    HW2 2208   3.093   0.411   1.661
  728SOL     OW 2209   3.022   0.207   1.477
  728SOL    HW1 2210   3.022   0.271   1.554
  728SOL    HW2 2211   3.050   0.255   1.394
  729SOL     OW 2212   1.950   1.801   0.927
  729SOL    HW1 2213   1.908   1.715   0.900
  729SOL    HW2 2214   2.044   1.804   0.893
  730SOL     OW 2215   2.366   1.568   0.910
  730SOL    HW1 2216   2.432   1.642   0.919
  730SOL    HW2 2217   2.410   1.489   0.868
  731SOL     OW 2218   2.864   0.796   1.238
  731SOL    HW1 2219   2.905   0.764   1.324
  731SOL    HW2 2220   2.768   0.769   1.235
  732SOL     OW 2221   1.902   0.544   1.114
  732SOL    HW1 2222   1.987   0.511   1.073
  732SOL    HW2 2223   1.915   0.559   1.212
  733SOL     OW 2224   2.051   0.520   1.722
  733SOL    HW1 2225   2.110   0.480   1.652
  733SOL    HW2 2226   1.993   0.591   1.681
  734SOL     OW 2227   2.677   0.572   0.325
  734SOL    HW1 2228   2.684   0.483   0.279
  734SOL    HW2 2229   2.583   0.606   0.317
  735SOL     OW 2230   2.114   1.564   1.744
  735SOL    HW1 2231   2.084   1.621   1.820
  735SOL    HW2 2232   2.107   1.467   1.770
  736SOL     OW 2233   2.533   0.464   1.269
  736SOL    HW1 2234   2.499   0.375   1.239
  736SOL    HW2 2235   2.559   0.518   1.189
  737SOL     OW 2236   2.792   1.678   1.465
  737SOL    HW1 2237   2.768   1.660   1.370
  737SOL    HW2 2238   2.822   1.772   1.475
  738SOL     OW 2239   2.335   0.500   0.191
  738SOL    HW1 2240   2.396   0.580   0.195
  738SOL    HW2 2241   2.240   0.531   0.198
  739SOL     OW 2242   2.021   1.137   1.466
  739SOL    HW1 2243   2.043   1.076   1.542
  739SOL    HW2 2244   2.031   1.088   1.380
  740SOL     OW 2245   3.209   1.059   1.234
  740SOL    HW1 2246   3.233   0.996   1.160
  740SOL    HW2 2247   3.119   1.099   1.216
  741SOL     OW 2248   3.114   1.731   1.128
  741SOL    HW1 2249   3.198   1.736   1.074
  741SOL    HW2 2250   3.091   1.635   1.146
  742SOL     OW 2251   1.945   1.258   1.022
  742SOL    HW1 2252   1.940   1.257   1.122
  742SOL    HW2 2253   1.862   1.217   0.984
  743SOL     OW 2254   2.550   1.662   1.716
  743SOL    HW1 2255   2.494   1.743   1.725
  743SOL    HW2 2256   2.602   1.666   1.630
  744SOL     OW 2257   2.765   0.086   0.133
  744SOL    HW1 2258   2.816   0.087   0.047
  744SOL    HW2 2259   2.821   0.044   0.204
  745SOL     OW 2260   3.250   1.573   0.477
  745SOL    HW1 2261   3.317   1.585   0.403
  745SOL    HW2 2262   3.210   1.662   0.500
  746SOL     OW 2263   1.992   1.794   1.851
  746SOL    HW1 2264   1.951   1.720   1.904
  746SOL    HW2 2265   2.056   1.845   1.909
  747SOL     OW 2266   3.142   0.927   0.672
  747SOL    HW1 2267   3.202   0.846   0.674
  747SOL    HW2 2268   3.182   0.996   0.612
  748SOL     OW 2269   2.692   1.273   1.422
  748SOL    HW1 2270   2.687   1.306   1.517
  748SOL    HW2 2271   2.606   1.292   1.376
  749SOL     OW 2272   2.534   1.616   0.154
  749SOL    HW1 2273   2.543   1.626   0.055
  749SOL    HW2 2274   2.494   1.527   0.175
  750SOL     OW 2275   2.125   0.326   0.720
  750SOL    HW1 2276   2.046   0.377   0.686
  750SOL    HW2 2277   2.116   0.311   0.818
  751SOL     OW 2278   3.056   1.612   0.031
  751SOL    HW1 2279   3.062   1.519   0.068
  751SOL    HW2 2280   2.997   1.612  -0.049
  752SOL     OW 2281   2.684   1.002   1.372
  752SOL    HW1 2282   2.724   1.001   1.280
  752SOL    HW2 2283   2.694   1.094   1.412
  753SOL     OW 2284   2.778   0.910   0.291
  753SOL    HW1 2285   2.841   0.948   0.223
  753SOL    HW2 2286   2.818   0.827   0.330
  754SOL     OW 2287   2.234   1.288   1.490
  754SOL    HW1 2288   2.221   1.381   1.456
  754SOL    HW2 2289   2.150   1.236   1.477
  755SOL     OW 2290   2.901   1.098   0.696
  755SOL    HW1 2291   2.831   1.051   0.750
  755SOL    HW2 2292   2.960   1.030   0.653
  756SOL     OW 2293   2.876   0.236   0.971
  756SOL    HW1 2294   2.868   0.200   0.878
  756SOL    HW2 2295   2.874   0.160   1.036
  757SOL     OW 2296   2.452   1.487   0.491
  757SOL    HW1 2297   2.494   1.429   0.421
  757SOL    HW2 2298   2.408   1.566   0.447
  758SOL     OW 2299   2.117   1.348   0.290
  758SOL    HW1 2300   2.021   1.349   0.263
  758SOL    HW2 2301   2.129   1.401   0.374
  759SOL     OW 2302   1.967   1.013   1.726
  759SOL    HW1 2303   1.890   0.980   1.780
  759SOL    HW2 2304   2.052   0.983   1.768
  760SOL     OW 2305   2.534   0.203   1.489
  760SOL    HW1 2306   2.624   0.187   1.449
  760SOL    HW2 2307   2.542   0.208   1.588
  761SOL     OW 2308   3.302   0.856   1.398
  761SOL    HW1 2309   3.245   0.908   1.335
  761SOL    HW2 2310   3.398   0.868   1.374
  762SOL     OW 2311   1.934   0.166   0.318
  762SOL    HW1 2312   1.917   0.249   0.264
  762SOL    HW2 2313   2.024   0.129   0.296
  763SOL     OW 2314   2.475   0.842   1.431
  763SOL    HW1 2315   2.531   0.923   1.414
  763SOL    HW2 2316   2.534   0.762   1.434
  764SOL     OW 2317   2.578   0.565   1.708
  764SOL    HW1 2318   2.597   0.630   1.782
  764SOL    HW2 2319   2.638   0.485   1.717
  765SOL     OW 2320   2.252   1.741   1.560
  765SOL    HW1 2321   2.161   1.782   1.558
  765SOL    HW2 2322   2.245   1.647   1.592
  766SOL     OW 2323   3.087   0.325   0.449
  766SOL    HW1 2324   3.152   0.251   0.438
  766SOL    HW2 2325   3.107   0.375   0.533
  767SOL     OW 2326   2.456   0.745   0.652
  767SOL    HW1 2327   2.506   0.830   0.633
  767SOL    HW2 2328   2.368   0.747   0.604
  768SOL     OW 2329   2.721   1.374   0.016
  768SOL    HW1 2330   2.675   1.389   0.104
  768SOL    HW2 2331   2.765   1.459  -0.014
  769SOL     OW 2332   2.523   1.790   0.953
  769SOL    HW1 2333   2.477   1.878   0.940
  769SOL    HW2 2334   2.622   1.802   0.946
  770SOL     OW 2335   2.721   0.956   0.861
  770SOL    HW1 2336   2.775   0.887   0.909
  770SOL    HW2 2337   2.689   1.025   0.927
  771SOL     OW 2338   2.945   0.984   0.087
  771SOL    HW1 2339   2.922   1.037   0.005
  771SOL    HW2 2340   3.026   0.928   0.068
  772SOL     OW 2341   2.083   1.314   1.844
  772SOL    HW1 2342   2.018   1.241   1.823
  772SOL    HW2 2343   2.087   1.328   1.942
  773SOL     OW 2344   1.941   1.240   0.653
  773SOL    HW1 2345   1.940   1.193   0.741
  773SOL    HW2 2346   2.023   1.212   0.602
  774SOL     OW 2347   2.534   1.391   1.624
  774SOL    HW1 2348   2.456   1.341   1.662
  774SOL    HW2 2349   2.531   1.486   1.655
  775SOL     OW 2350   2.290   0.424   0.520
  775SOL    HW1 2351   2.320   0.352   0.458
  775SOL    HW2 2352   2.251   0.384   0.603
  776SOL     OW 2353   2.179   0.547   1.280
  776SOL    HW1 2354   2.217   0.488   1.352
  776SOL    HW2 2355   2.219   0.521   1.192
  777SOL     OW 2356   2.674   1.586   0.687
  777SOL    HW1 2357   2.706   1.596   0.593
  777SOL    HW2 2358   2.595   1.524   0.689
  778SOL     OW 2359   2.863   0.034   1.154
  778SOL    HW1 2360   2.800  -0.038   1.123
  778SOL    HW2 2361   2.956  -0.002   1.154
  779SOL     OW 2362   2.632   1.330   0.301
  779SOL    HW1 2363   2.586   1.243   0.318
  779SOL    HW2 2364   2.723   1.327   0.342
  780SOL     OW 2365   2.480   1.567   1.284
  780SOL    HW1 2366   2.475   1.649   1.341
  780SOL    HW2 2367   2.569   1.564   1.239
  781SOL     OW 2368   1.901   1.077   0.300
  781SOL    HW1 2369   2.000   1.066   0.291
  781SOL    HW2 2370   1.861   0.991   0.332
  782SOL     OW 2371   2.737   1.646   0.337
  782SOL    HW1 2372   2.660   1.611   0.283
  782SOL    HW2 2373   2.705   1.717   0.399
  783SOL     OW 2374   2.092   0.628   1.975
  783SOL    HW1 2375   1.999   0.626   2.012
  783SOL    HW2 2376   2.093   0.589   1.883
  784SOL     OW 2377   2.087   0.275   2.858
  784SOL    HW1 2378   2.122   0.258   2.950
  784SOL    HW2 2379   1.999   0.230   2.846
  785SOL     OW 2380   1.881   0.368   2.509
  785SOL    HW1 2381   1.799   0.411   2.548
  785SOL    HW2 2382   1.853   0.295   2.446
  786SOL     OW 2383   2.431   1.275   3.027
  786SOL    HW1 2384   2.338   1.268   2.990
  786SOL    HW2 2385   2.442   1.364   3.071
  787SOL     OW 2386   2.997   0.703   2.579
  787SOL    HW1 2387   3.054   0.781   2.554
  787SOL    HW2 2388   2.937   0.729   2.655
  788SOL     OW 2389   2.630   1.144   2.885
  788SOL    HW1 2390   2.552   1.161   2.945
  788SOL    HW2 2391   2.664   1.231   2.849
  789SOL     OW 2392   2.547   1.012   2.527
  789SOL    HW1 2393   2.616   0.996   2.597
  789SOL    HW2 2394   2.474   1.069   2.565
  790SOL     OW 2395   2.197   1.435   2.923
  790SOL    HW1 2396   2.119   1.404   2.870
  790SOL    HW2 2397   2.255   1.493   2.866
  791SOL     OW 2398   2.093   1.713   2.345
  791SOL    HW1 2399   2.127   1.790   2.399
  791SOL    HW2 2400   2.137   1.713   2.255
  792SOL     OW 2401   2.092   1.434   2.400
  792SOL    HW1 2402   2.066   1.530   2.400
  792SOL    HW2 2403   2.021   1.380   2.445
  793SOL     OW 2404   2.102   1.091   2.748
  793SOL    HW1 2405   2.116   1.007   2.800
  793SOL    HW2 2406   2.047   1.155   2.803
  794SOL     OW 2407   2.482   1.786   3.301
  794SOL    HW1 2408   2.390   1.769   3.336
  794SOL    HW2 2409   2.510   1.878   3.327
  795SOL     OW 2410   2.468   0.964   1.985
  795SOL    HW1 2411   2.475   1.048   1.931
  795SOL    HW2 2412   2.514   0.977   2.073
  796SOL     OW 2413   1.984   0.643   2.425
  796SOL    HW1 2414   1.939   0.555   2.442
  796SOL    HW2 2415   1.983   0.697   2.509
  797SOL     OW 2416   1.889   1.596   1.979
  797SOL    HW1 2417   1.870   1.500   2.000
  797SOL    HW2 2418   1.856   1.654   2.054
  798SOL     OW 2419   2.475   1.365   2.588
  798SOL    HW1 2420   2.426   1.278   2.597
  798SOL    HW2 2421   2.452   1.408   2.501
  799SOL     OW 2422   2.671   0.004   2.364
  799SOL    HW1 2423   2.711   0.095   2.355
  799SOL    HW2 2424   2.571   0.012   2.370
  800SOL     OW 2425   2.059   0.976   3.126
  800SOL    HW1 2426   2.148   0.931   3.112
  800SOL    HW2 2427   1.986   0.911   3.107
  801SOL     OW 2428   2.460   0.729   2.132
  801SOL    HW1 2429   2.484   0.798   2.064
  801SOL    HW2 2430   2.382   0.762   2.186
  802SOL     OW 2431   3.143   0.345   2.806
  802SOL    HW1 2432   3.057   0.295   2.793
  802SOL    HW2 2433   3.205   0.291   2.862
  803SOL     OW 2434   2.853   0.410   3.104
  803SOL    HW1 2435   2.776   0.444   3.158
  803SOL    HW2 2436   2.819   0.359   3.025
  804SOL     OW 2437   2.903   0.701   2.291
  804SOL    HW1 2438   2.929   0.697   2.387
  804SOL    HW2 2439   2.818   0.650   2.277
  805SOL     OW 2440   1.938   0.811   2.651
  805SOL    HW1 2441   2.037   0.799   2.660
  805SOL    HW2 2442   1.914   0.906   2.672
  806SOL     OW 2443   2.727   0.348   2.057
  806SOL    HW1 2444   2.786   0.411   2.008
  806SOL    HW2 2445   2.746   0.254   2.028
  807SOL     OW 2446   2.412   0.196   2.747
  807SOL    HW1 2447   2.407   0.191   2.847
  807SOL    HW2 2448   2.414   0.292   2.718
  808SOL     OW 2449   2.870   1.456   2.339
  808SOL    HW1 2450   2.824   1.528   2.287
  808SOL    HW2 2451   2.866   1.476   2.437
  809SOL     OW 2452   2.213   1.801   2.715
  809SOL    HW1 2453   2.263   1.715   2.721
  809SOL    HW2 2454   2.278   1.878   2.712
  810SOL     OW 2455   2.183   0.943   2.104
  810SOL    HW1 2456   2.265   0.982   2.062
  810SOL    HW2 2457   2.156   0.861   2.055
  811SOL     OW 2458   2.973   1.776   2.099
  811SOL    HW1 2459   2.913   1.714   2.149
  811SOL    HW2 2460   3.004   1.732   2.014
  812SOL     OW 2461   2.326   1.743   2.185
  812SOL    HW1 2462   2.359   1.782   2.271
  812SOL    HW2 2463   2.402   1.736   2.120
  813SOL     OW 2464   2.111   1.785   3.103
  813SOL    HW1 2465   2.168   1.720   3.153
  813SOL    HW2 2466   2.095   1.752   3.010
  814SOL     OW 2467   2.802   1.698   2.766
  814SOL    HW1 2468   2.882   1.641   2.787
  814SOL    HW2 2469   2.753   1.658   2.689
  815SOL     OW 2470   2.244   0.700   2.342
  815SOL    HW1 2471   2.289   0.610   2.339
  815SOL    HW2 2472   2.150   0.689   2.375
  816SOL     OW 2473   2.476   0.122   1.979
  816SOL    HW1 2474   2.574   0.100   1.986
  816SOL    HW2 2475   2.445   0.105   1.886
  817SOL     OW 2476   2.665   1.402   2.786
  817SOL    HW1 2477   2.755   1.416   2.744
  817SOL    HW2 2478   2.594   1.404   2.715
  818SOL     OW 2479   2.784   0.503   2.761
  818SOL    HW1 2480   2.759   0.494   2.665
  818SOL    HW2 2481   2.832   0.421   2.792
  819SOL     OW 2482   2.401   0.064   2.374
  819SOL    HW1 2483   2.320   0.065   2.432
  819SOL    HW2 2484   2.404   0.147   2.319
  820SOL     OW 2485   2.159   0.035   2.033
  820SOL    HW1 2486   2.208   0.119   2.012
  820SOL    HW2 2487   2.221  -0.030   2.078
  821SOL     OW 2488   2.797   0.236   2.342
  821SOL    HW1 2489   2.749   0.277   2.264
  821SOL    HW2 2490   2.896   0.234   2.323
  822SOL     OW 2491   3.089   1.570   2.655
  822SOL    HW1 2492   3.110   1.644   2.590
  822SOL    HW2 2493   3.157   1.570   2.728
  823SOL     OW 2494   2.321   1.152   2.603
  823SOL    HW1 2495   2.250   1.125   2.668
  823SOL    HW2 2496   2.295   1.124   2.510
  824SOL     OW 2497   3.133   1.797   2.453
  824SOL    HW1 2498   3.177   1.861   2.389
  824SOL    HW2 2499   3.083   1.849   2.523
  825SOL     OW 2500   2.894   0.549   1.878
  825SOL    HW1 2501   2.853   0.631   1.839
  825SOL    HW2 2502   2.958   0.575   1.951
  826SOL     OW 2503   2.423   0.222   3.009
  826SOL    HW1 2504   2.461   0.138   3.046
  826SOL    HW2 2505   2.335   0.241   3.053
  827SOL     OW 2506   2.728   0.454   2.504
  827SOL    HW1 2507   2.696   0.526   2.442
  827SOL    HW2 2508   2.752   0.373   2.451
  828SOL     OW 2509   2.879   0.039   2.615
  828SOL    HW1 2510   2.807   0.044   2.546
  828SOL    HW2 2511   2.855  -0.030   2.684
  829SOL     OW 2512   2.350   1.385   2.036
  829SOL    HW1 2513   2.263   1.370   2.083
  829SOL    HW2 2514   2.333   1.411   1.941
  830SOL     OW 2515   3.526   1.280   2.519
  830SOL    HW1 2516   3.625   1.288   2.533
  830SOL    HW2 2517   3.481   1.364   2.550
  831SOL     OW 2518   2.389   0.256   2.190
  831SOL    HW1 2519   2.416   0.197   2.115
  831SOL    HW2 2520   2.389   0.351   2.159
  832SOL     OW 2521   3.454   1.629   3.487
  832SOL    HW1 2522   3.481   1.663   3.397
  832SOL    HW2 2523   3.533   1.591   3.533
  833SOL     OW 2524   2.973   1.195   2.962
  833SOL    HW1 2525   2.933   1.239   3.043
  833SOL    HW2 2526   2.932   1.232   2.879
  834SOL     OW 2527   2.567   1.050   2.230
  834SOL    HW1 2528   2.553   1.057   2.329
  834SOL    HW2 2529   2.651   0.999   2.212
  835SOL     OW 2530   2.272   0.813   3.113
  835SOL    HW1 2531   2.358   0.825   3.163
  835SOL    HW2 2532   2.230   0.726   3.140
  836SOL     OW 2533   2.229   1.100   2.363
  836SOL    HW1 2534   2.222   1.183   2.307
  836SOL    HW2 2535   2.233   1.020   2.303
  837SOL     OW 2536   2.428   0.537   2.727
  837SOL    HW1 2537   2.440   0.603   2.653
  837SOL    HW2 2538   2.474   0.571   2.810
  838SOL     OW 2539   3.114   1.348   2.250
  838SOL    HW1 2540   3.164   1.425   2.290
  838SOL    HW2 2541   3.019   1.350   2.282
  839SOL     OW 2542   2.216   1.510   3.191
  839SOL    HW1 2543   2.195   1.466   3.104
  839SOL    HW2 2544   2.313   1.536   3.194
  840SOL     OW 2545   2.435   0.870   2.891
  840SOL    HW1 2546   2.479   0.959   2.882
  840SOL    HW2 2547   2.372   0.870   2.968
  841SOL     OW 2548   3.222   0.862   2.907
  841SOL    HW1 2549   3.147   0.862   2.841
  841SOL    HW2 2550   3.259   0.770   2.916
  842SOL     OW 2551   3.071   0.525   2.137
  842SOL    HW1 2552   3.084   0.441   2.191
  842SOL    HW2 2553   3.042   0.599   2.197
  843SOL     OW 2554   2.169   0.213   3.093
  843SOL    HW1 2555   2.146   0.250   3.183
  843SOL    HW2 2556   2.139   0.118   3.087
  844SOL     OW 2557   1.899   1.310   3.144
  844SOL    HW1 2558   1.952   1.261   3.212
  844SOL    HW2 2559   1.921   1.408   3.149
  845SOL     OW 2560   2.594   0.634   2.926
  845SOL    HW1 2561   2.653   0.608   2.850
  845SOL    HW2 2562   2.566   0.730   2.915
  846SOL     OW 2563   2.169   0.063   2.480
  846SOL    HW1 2564   2.158   0.157   2.513
  846SOL    HW2 2565   2.164   0.000   2.557
  847SOL     OW 2566   3.484   0.367   2.236
  847SOL    HW1 2567   3.486   0.291   2.300
  847SOL    HW2 2568   3.436   0.444   2.276
  848SOL     OW 2569   2.885   0.766   2.828
  848SOL    HW1 2570   2.900   0.787   2.924
  848SOL    HW2 2571   2.855   0.671   2.819
  849SOL     OW 2572   3.165   0.838   1.904
  849SOL    HW1 2573   3.199   0.745   1.919
  849SOL    HW2 2574   3.183   0.865   1.809
  850SOL     OW 2575   2.930   1.333   2.711
  850SOL    HW1 2576   2.937   1.249   2.656
  850SOL    HW2 2577   2.992   1.402   2.675
  851SOL     OW 2578   2.181   0.810   2.811
  851SOL    HW1 2579   2.274   0.846   2.816
  851SOL    HW2 2580   2.175   0.725   2.863
  852SOL     OW 2581   2.201   0.509   2.868
  852SOL    HW1 2582   2.149   0.426   2.851
  852SOL    HW2 2583   2.278   0.514   2.804
  853SOL     OW 2584   3.022   0.207   3.339
  853SOL    HW1 2585   3.022   0.271   3.416
  853SOL    HW2 2586   3.050   0.255   3.256
  854SOL     OW 2587   1.950   1.801   2.789
  854SOL    HW1 2588   1.908   1.715   2.762
  854SOL    HW2 2589   2.044   1.804   2.755
  855SOL     OW 2590   2.366   1.568   2.772
  855SOL    HW1 2591   2.432   1.642   2.781
  855SOL    HW2 2592   2.410   1.489   2.730
  856SOL     OW 2593   2.864   0.796   3.100
  856SOL    HW1 2594   2.905   0.764   3.186
  856SOL    HW2 2595   2.768   0.769   3.097
  857SOL     OW 2596   1.902   0.544   2.976
  857SOL    HW1 2597   1.987   0.511   2.935
  857SOL    HW2 2598   1.915   0.559   3.074
  858SOL     OW 2599   2.677   0.572   2.187
  858SOL    HW1 2600   2.684   0.483   2.141
  858SOL    HW2 2601   2.583   0.606   2.179
  859SOL     OW 2602   2.533   0.464   3.131
  859SOL    HW1 2603   2.499   0.375   3.101
  859SOL    HW2 2604   2.559   0.518   3.051
  860SOL     OW 2605   2.792   1.678   3.327
  860SOL    HW1 2606   2.768   1.660   3.232
  860SOL    HW2 2607   2.822   1.772   3.337
  861SOL     OW 2608   2.335   0.500   2.053
  861SOL    HW1 2609   2.396   0.580   2.057
  861SOL    HW2 2610   2.240   0.531   2.060
  862SOL     OW 2611   3.209   1.059   3.096
  862SOL    HW1 2612   3.233   0.996   3.022
  862SOL    HW2 2613   3.119   1.099   3.078
  863SOL     OW 2614   3.114   1.731   2.990
  863SOL    HW1 2615   3.198   1.736   2.936
  863SOL    HW2 2616   3.091   1.635   3.008
  864SOL     OW 2617   1.945   1.258   2.884
  864SOL    HW1 2618   1.940   1.257   2.984
  864SOL    HW2 2619   1.862   1.217   2.846
  865SOL     OW 2620   3.250   1.573   2.339
  865SOL    HW1 2621   3.317   1.585   2.265
  865SOL    HW2 2622   3.210   1.662   2.362
  866SOL     OW 2623   3.142   0.927   2.534
  866SOL    HW1 2624   3.202   0.846   2.536
  866SOL    HW2 2625   3.182   0.996   2.474
  867SOL     OW 2626   2.534   1.616   2.016
  867SOL    HW1 2627   2.543   1.626   1.917
  867SOL    HW2 2628   2.494   1.527   2.037
  868SOL     OW 2629   2.125   0.326   2.582
  868SOL    HW1 2630   2.046   0.377   2.548
  868SOL    HW2 2631   2.116   0.311   2.680
  869SOL     OW 2632   3.056   1.612   1.893
  869SOL    HW1 2633   3.062   1.519   1.930
  869SOL    HW2 2634   2.997   1.612   1.813
  870SOL     OW 2635   2.684   1.002   3.234
  870SOL    HW1 2636   2.724   1.001   3.142
  870SOL    HW2 2637   2.694   1.094   3.274
  871SOL     OW 2638   2.778   0.910   2.153
  871SOL    HW1 2639   2.841   0.948   2.085
  871SOL    HW2 2640   2.818   0.827   2.192
  872SOL     OW 2641   2.901   1.098   2.558
  872SOL    HW1 2642   2.831   1.051   2.612
  872SOL    HW2 2643   2.960   1.030   2.515
  873SOL     OW 2644   2.876   0.236   2.833
  873SOL    HW1 2645   2.868   0.200   2.740
  873SOL    HW2 2646   2.874   0.160   2.898
  874SOL     OW 2647   2.452   1.487   2.353
  874SOL    HW1 2648   2.494   1.429   2.283
  874SOL    HW2 2649   2.408   1.566   2.309
  875SOL     OW 2650   2.117   1.348   2.152
  875SOL    HW1 2651   2.021   1.349   2.125
  875SOL    HW2 2652   2.129   1.401   2.236
  876SOL     OW 2653   1.937   0.345   1.895
  876SOL    HW1 2654   1.845   0.317   1.866
  876SOL    HW2 2655   1.968   0.422   1.839
  877SOL     OW 2656   1.934   0.166   2.180
  877SOL    HW1 2657   1.917   0.249   2.126
  877SOL    HW2 2658   2.024   0.129   2.158
  878SOL     OW 2659   3.087   0.325   2.311
  878SOL    HW1 2660   3.152   0.251   2.300
  878SOL    HW2 2661   3.107   0.375   2.395
  879SOL     OW 2662   2.456   0.745   2.514
  879SOL    HW1 2663   2.506   0.830   2.495
  879SOL    HW2 2664   2.368   0.747   2.466
  880SOL     OW 2665   2.721   1.374   1.878
  880SOL    HW1 2666   2.675   1.389   1.966
  880SOL    HW2 2667   2.765   1.459   1.848
  881SOL     OW 2668   2.523   1.790   2.815
  881SOL    HW1 2669   2.477   1.878   2.802
  881SOL    HW2 2670   2.622   1.802   2.808
  882SOL     OW 2671   2.721   0.956   2.723
  882SOL    HW1 2672   2.775   0.887   2.771
  882SOL    HW2 2673   2.689   1.025   2.789
  883SOL     OW 2674   2.945   0.984   1.949
  883SOL    HW1 2675   2.922   1.037   1.867
  883SOL    HW2 2676   3.026   0.928   1.930
  884SOL     OW 2677   1.941   1.240   2.515
  884SOL    HW1 2678   1.940   1.193   2.603
  884SOL    HW2 2679   2.023   1.212   2.464
  885SOL     OW 2680   2.290   0.424   2.382
  885SOL    HW1 2681   2.320   0.352   2.320
  885SOL    HW2 2682   2.251   0.384   2.465
  886SOL     OW 2683   2.674   1.586   2.549
  886SOL    HW1 2684   2.706   1.596   2.455
  886SOL    HW2 2685   2.595   1.524   2.551
  887SOL     OW 2686   2.863   0.034   3.016
  887SOL    HW1 2687   2.800  -0.038   2.985
  887SOL    HW2 2688   2.956  -0.002   3.016
  888SOL     OW 2689   2.632   1.330   2.163
  888SOL    HW1 2690   2.586   1.243   2.180
  888SOL    HW2 2691   2.723   1.327   2.204
  889SOL     OW 2692   1.901   1.077   2.162
  889SOL    HW1 2693   2.000   1.066   2.153
  889SOL    HW2 2694   1.861   0.991   2.194
  890SOL     OW 2695   2.737   1.646   2.199
  890SOL    HW1 2696   2.660   1.611   2.145
  890SOL    HW2 2697   2.705   1.717   2.261
  891SOL     OW 2698   2.092   2.490   0.113
  891SOL    HW1 2699   1.999   2.488   0.150
  891SOL    HW2 2700   2.093   2.451   0.021
  892SOL     OW 2701   2.087   2.137   0.996
  892SOL    HW1 2702   2.122   2.120   1.088
  892SOL    HW2 2703   1.999   2.092   0.984
  893SOL     OW 2704   1.881   2.230   0.647
  893SOL    HW1 2705   1.799   2.273   0.686
  893SOL    HW2 2706   1.853   2.157   0.584
  894SOL     OW 2707   2.431   3.137   1.165
  894SOL    HW1 2708   2.338   3.130   1.128
  894SOL    HW2 2709   2.442   3.226   1.209
  895SOL     OW 2710   2.997   2.565   0.717
  895SOL    HW1 2711   3.054   2.643   0.692
  895SOL    HW2 2712   2.937   2.591   0.793
  896SOL     OW 2713   2.630   3.006   1.023
  896SOL    HW1 2714   2.552   3.023   1.083
  896SOL    HW2 2715   2.664   3.093   0.987
  897SOL     OW 2716   2.712   2.660   1.823
  897SOL    HW1 2717   2.708   2.736   1.888
  897SOL    HW2 2718   2.734   2.696   1.732
  898SOL     OW 2719   2.547   2.874   0.665
  898SOL    HW1 2720   2.616   2.858   0.735
  898SOL    HW2 2721   2.474   2.931   0.703
  899SOL     OW 2722   2.548   3.023   1.803
  899SOL    HW1 2723   2.608   3.102   1.817
  899SOL    HW2 2724   2.462   3.054   1.762
  900SOL     OW 2725   2.197   3.297   1.061
  900SOL    HW1 2726   2.119   3.266   1.008
  900SOL    HW2 2727   2.255   3.355   1.004
  901SOL     OW 2728   2.300   2.254   1.499
  901SOL    HW1 2729   2.382   2.198   1.508
  901SOL    HW2 2730   2.219   2.196   1.503
  902SOL     OW 2731   2.102   2.953   0.886
  902SOL    HW1 2732   2.116   2.869   0.938
  902SOL    HW2 2733   2.047   3.017   0.941
  903SOL     OW 2734   2.468   2.826   0.123
  903SOL    HW1 2735   2.475   2.910   0.069
  903SOL    HW2 2736   2.514   2.839   0.211
  904SOL     OW 2737   1.984   2.505   0.563
  904SOL    HW1 2738   1.939   2.417   0.580
  904SOL    HW2 2739   1.983   2.559   0.647
  905SOL     OW 2740   1.975   2.599   1.597
  905SOL    HW1 2741   2.063   2.586   1.642
  905SOL    HW2 2742   1.962   2.696   1.575
  906SOL     OW 2743   3.155   3.090   1.423
  906SOL    HW1 2744   3.192   3.017   1.365
  906SOL    HW2 2745   3.207   3.095   1.508
  907SOL     OW 2746   2.671   1.866   0.502
  907SOL    HW1 2747   2.711   1.957   0.493
  907SOL    HW2 2748   2.571   1.874   0.508
  908SOL     OW 2749   2.059   2.838   1.264
  908SOL    HW1 2750   2.148   2.793   1.250
  908SOL    HW2 2751   1.986   2.773   1.245
  909SOL     OW 2752   2.179   2.113   1.801
  909SOL    HW1 2753   2.250   2.184   1.807
  909SOL    HW2 2754   2.091   2.152   1.829
  910SOL     OW 2755   2.460   2.591   0.270
  910SOL    HW1 2756   2.484   2.660   0.202
  910SOL    HW2 2757   2.382   2.624   0.324
  911SOL     OW 2758   3.143   2.207   0.944
  911SOL    HW1 2759   3.057   2.157   0.931
  911SOL    HW2 2760   3.205   2.153   1.000
  912SOL     OW 2761   2.669   2.467   1.465
  912SOL    HW1 2762   2.622   2.464   1.554
  912SOL    HW2 2763   2.618   2.412   1.399
  913SOL     OW 2764   2.835   2.752   1.572
  913SOL    HW1 2765   2.881   2.668   1.543
  913SOL    HW2 2766   2.779   2.786   1.497
  914SOL     OW 2767   2.853   2.272   1.242
  914SOL    HW1 2768   2.776   2.306   1.296
  914SOL    HW2 2769   2.819   2.221   1.163
  915SOL     OW 2770   2.903   2.563   0.429
  915SOL    HW1 2771   2.929   2.559   0.525
  915SOL    HW2 2772   2.818   2.512   0.415
  916SOL     OW 2773   1.938   2.673   0.789
  916SOL    HW1 2774   2.037   2.661   0.798
  916SOL    HW2 2775   1.914   2.768   0.810
  917SOL     OW 2776   2.727   2.210   0.195
  917SOL    HW1 2777   2.786   2.273   0.146
  917SOL    HW2 2778   2.746   2.116   0.166
  918SOL     OW 2779   2.412   2.058   0.885
  918SOL    HW1 2780   2.407   2.053   0.985
  918SOL    HW2 2781   2.414   2.154   0.856
  919SOL     OW 2782   2.183   2.805   0.242
  919SOL    HW1 2783   2.265   2.844   0.200
  919SOL    HW2 2784   2.156   2.723   0.193
  920SOL     OW 2785   2.064   2.147   1.498
  920SOL    HW1 2786   1.984   2.207   1.485
  920SOL    HW2 2787   2.054   2.098   1.584
  921SOL     OW 2788   2.244   2.562   0.480
  921SOL    HW1 2789   2.289   2.472   0.477
  921SOL    HW2 2790   2.150   2.551   0.513
  922SOL     OW 2791   2.643   2.126   1.749
  922SOL    HW1 2792   2.710   2.065   1.792
  922SOL    HW2 2793   2.570   2.145   1.814
  923SOL     OW 2794   2.665   3.264   0.924
  923SOL    HW1 2795   2.755   3.278   0.882
  923SOL    HW2 2796   2.594   3.266   0.853
  924SOL     OW 2797   2.784   2.365   0.899
  924SOL    HW1 2798   2.759   2.356   0.803
  924SOL    HW2 2799   2.832   2.283   0.930
  925SOL     OW 2800   2.401   1.926   0.512
  925SOL    HW1 2801   2.320   1.927   0.570
  925SOL    HW2 2802   2.404   2.009   0.457
  926SOL     OW 2803   2.159   1.897   0.171
  926SOL    HW1 2804   2.208   1.981   0.150
  926SOL    HW2 2805   2.221   1.832   0.216
  927SOL     OW 2806   2.797   2.098   0.480
  927SOL    HW1 2807   2.749   2.139   0.402
  927SOL    HW2 2808   2.896   2.096   0.461
  928SOL     OW 2809   2.938   2.545   1.464
  928SOL    HW1 2810   2.858   2.484   1.467
  928SOL    HW2 2811   3.019   2.492   1.440
  929SOL     OW 2812   3.089   3.432   0.793
  929SOL    HW1 2813   3.110   3.506   0.728
  929SOL    HW2 2814   3.157   3.432   0.866
  930SOL     OW 2815   2.321   3.014   0.741
  930SOL    HW1 2816   2.250   2.987   0.806
  930SOL    HW2 2817   2.295   2.986   0.648
  931SOL     OW 2818   2.894   2.411   0.016
  931SOL    HW1 2819   2.853   2.493  -0.023
  931SOL    HW2 2820   2.958   2.437   0.089
  932SOL     OW 2821   1.940   2.418   1.386
  932SOL    HW1 2822   2.032   2.417   1.345
  932SOL    HW2 2823   1.934   2.492   1.453
  933SOL     OW 2824   2.423   2.084   1.147
  933SOL    HW1 2825   2.461   2.000   1.184
  933SOL    HW2 2826   2.335   2.103   1.191
  934SOL     OW 2827   2.728   2.316   0.642
  934SOL    HW1 2828   2.696   2.388   0.580
  934SOL    HW2 2829   2.752   2.235   0.589
  935SOL     OW 2830   2.879   1.901   0.753
  935SOL    HW1 2831   2.807   1.906   0.684
  935SOL    HW2 2832   2.855   1.832   0.822
  936SOL     OW 2833   2.389   2.118   0.328
  936SOL    HW1 2834   2.416   2.059   0.253
  936SOL    HW2 2835   2.389   2.213   0.297
  937SOL     OW 2836   2.777   1.951   1.402
  937SOL    HW1 2837   2.802   1.931   1.307
  937SOL    HW2 2838   2.849   2.007   1.444
  938SOL     OW 2839   2.842   2.978   1.719
  938SOL    HW1 2840   2.743   2.984   1.729
  938SOL    HW2 2841   2.865   2.898   1.663
  939SOL     OW 2842   2.567   2.912   0.368
  939SOL    HW1 2843   2.553   2.919   0.467
  939SOL    HW2 2844   2.651   2.861   0.350
  940SOL     OW 2845   2.272   2.675   1.251
  940SOL    HW1 2846   2.358   2.687   1.301
  940SOL    HW2 2847   2.230   2.588   1.278
  941SOL     OW 2848   3.136   2.248   1.262
  941SOL    HW1 2849   3.157   2.322   1.326
  941SOL    HW2 2850   3.047   2.265   1.219
  942SOL     OW 2851   2.229   2.962   0.501
  942SOL    HW1 2852   2.222   3.045   0.445
  942SOL    HW2 2853   2.233   2.882   0.441
  943SOL     OW 2854   2.428   2.399   0.865
  943SOL    HW1 2855   2.440   2.465   0.791
  943SOL    HW2 2856   2.474   2.433   0.948
  944SOL     OW 2857   3.114   3.210   0.388
  944SOL    HW1 2858   3.164   3.287   0.428
  944SOL    HW2 2859   3.019   3.212   0.420
  945SOL     OW 2860   2.264   2.613   1.598
  945SOL    HW1 2861   2.332   2.668   1.551
  945SOL    HW2 2862   2.304   2.525   1.625
  946SOL     OW 2863   2.875   1.967   1.770
  946SOL    HW1 2864   2.881   2.052   1.718
  946SOL    HW2 2865   2.907   1.891   1.713
  947SOL     OW 2866   2.366   1.912   1.740
  947SOL    HW1 2867   2.324   1.855   1.670
  947SOL    HW2 2868   2.300   1.981   1.772
  948SOL     OW 2869   2.435   2.732   1.029
  948SOL    HW1 2870   2.479   2.821   1.020
  948SOL    HW2 2871   2.372   2.732   1.106
  949SOL     OW 2872   3.222   2.724   1.045
  949SOL    HW1 2873   3.147   2.724   0.979
  949SOL    HW2 2874   3.259   2.632   1.054
  950SOL     OW 2875   3.071   2.387   0.275
  950SOL    HW1 2876   3.084   2.303   0.329
  950SOL    HW2 2877   3.042   2.461   0.335
  951SOL     OW 2878   2.169   2.075   1.231
  951SOL    HW1 2879   2.146   2.112   1.321
  951SOL    HW2 2880   2.139   1.980   1.225
  952SOL     OW 2881   2.594   2.496   1.064
  952SOL    HW1 2882   2.653   2.470   0.988
  952SOL    HW2 2883   2.566   2.592   1.053
  953SOL     OW 2884   2.169   1.925   0.618
  953SOL    HW1 2885   2.158   2.019   0.651
  953SOL    HW2 2886   2.164   1.862   0.695
  954SOL     OW 2887   3.484   2.229   0.374
  954SOL    HW1 2888   3.486   2.153   0.438
  954SOL    HW2 2889   3.436   2.306   0.414
  955SOL     OW 2890   2.885   2.628   0.966
  955SOL    HW1 2891   2.900   2.649   1.062
  955SOL    HW2 2892   2.855   2.533   0.957
  956SOL     OW 2893   2.212   2.760   1.804
  956SOL    HW1 2894   2.288   2.804   1.852
  956SOL    HW2 2895   2.247   2.713   1.722
  957SOL     OW 2896   3.165   2.700   0.042
  957SOL    HW1 2897   3.199   2.607   0.057
  957SOL    HW2 2898   3.183   2.727  -0.053
  958SOL     OW 2899   2.181   2.672   0.949
  958SOL    HW1 2900   2.274   2.708   0.954
  958SOL    HW2 2901   2.175   2.587   1.001
  959SOL     OW 2902   2.201   2.371   1.006
  959SOL    HW1 2903   2.149   2.288   0.989
  959SOL    HW2 2904   2.278   2.376   0.942
  960SOL     OW 2905   3.000   2.242   1.678
  960SOL    HW1 2906   2.955   2.305   1.742
  960SOL    HW2 2907   3.093   2.273   1.661
  961SOL     OW 2908   3.022   2.069   1.477
  961SOL    HW1 2909   3.022   2.133   1.554
  961SOL    HW2 2910   3.050   2.117   1.394
  962SOL     OW 2911   2.864   2.658   1.238
  962SOL    HW1 2912   2.905   2.626   1.324
  962SOL    HW2 2913   2.768   2.631   1.235
  963SOL     OW 2914   1.902   2.406   1.114
  963SOL    HW1 2915   1.987   2.373   1.073
  963SOL    HW2 2916   1.915   2.421   1.212
  964SOL     OW 2917   2.051   2.382   1.722
  964SOL    HW1 2918   2.110   2.342   1.652
  964SOL    HW2 2919   1.993   2.453   1.681
  965SOL     OW 2920   2.677   2.434   0.325
  965SOL    HW1 2921   2.684   2.345   0.279
  965SOL    HW2 2922   2.583   2.468   0.317
  966SOL     OW 2923   2.533   2.326   1.269
  966SOL    HW1 2924   2.499   2.237   1.239
  966SOL    HW2 2925   2.559   2.380   1.189
  967SOL     OW 2926   2.335   2.362   0.191
  967SOL    HW1 2927   2.396   2.442   0.195
  967SOL    HW2 2928   2.240   2.393   0.198
  968SOL     OW 2929   2.021   2.999   1.466
  968SOL    HW1 2930   2.043   2.938   1.542
  968SOL    HW2 2931   2.031   2.950   1.380
  969SOL     OW 2932   3.209   2.921   1.234
  969SOL    HW1 2933   3.233   2.858   1.160
  969SOL    HW2 2934   3.119   2.961   1.216
  970SOL     OW 2935   1.945   3.120   1.022
  970SOL    HW1 2936   1.940   3.119   1.122
  970SOL    HW2 2937   1.862   3.079   0.984
  971SOL     OW 2938   2.765   1.948   0.133
  971SOL    HW1 2939   2.816   1.949   0.047
  971SOL    HW2 2940   2.821   1.906   0.204
  972SOL     OW 2941   3.142   2.789   0.672
  972SOL    HW1 2942   3.202   2.708   0.674
  972SOL    HW2 2943   3.182   2.858   0.612
  973SOL     OW 2944   2.692   3.135   1.422
  973SOL    HW1 2945   2.687   3.168   1.517
  973SOL    HW2 2946   2.606   3.154   1.376
  974SOL     OW 2947   2.125   2.188   0.720
  974SOL    HW1 2948   2.046   2.239   0.686
  974SOL    HW2 2949   2.116   2.173   0.818
  975SOL     OW 2950   2.684   2.864   1.372
  975SOL    HW1 2951   2.724   2.863   1.280
  975SOL    HW2 2952   2.694   2.956   1.412
  976SOL     OW 2953   2.778   2.772   0.291
  976SOL    HW1 2954   2.841   2.810   0.223
  976SOL    HW2 2955   2.818   2.689   0.330
  977SOL     OW 2956   2.234   3.150   1.490
  977SOL    HW1 2957   2.221   3.243   1.456
  977SOL    HW2 2958   2.150   3.098   1.477
  978SOL     OW 2959   2.901   2.960   0.696
  978SOL    HW1 2960   2.831   2.913   0.750
  978SOL    HW2 2961   2.960   2.892   0.653
  979SOL     OW 2962   2.876   2.098   0.971
  979SOL    HW1 2963   2.868   2.062   0.878
  979SOL    HW2 2964   2.874   2.022   1.036
  980SOL     OW 2965   1.967   2.875   1.726
  980SOL    HW1 2966   1.890   2.842   1.780
  980SOL    HW2 2967   2.052   2.845   1.768
  981SOL     OW 2968   2.534   2.065   1.489
  981SOL    HW1 2969   2.624   2.049   1.449
  981SOL    HW2 2970   2.542   2.070   1.588
  982SOL     OW 2971   3.302   2.718   1.398
  982SOL    HW1 2972   3.245   2.770   1.335
  982SOL    HW2 2973   3.398   2.730   1.374
  983SOL     OW 2974   1.934   2.028   0.318
  983SOL    HW1 2975   1.917   2.111   0.264
  983SOL    HW2 2976   2.024   1.991   0.296
  984SOL     OW 2977   2.475   2.704   1.431
  984SOL    HW1 2978   2.531   2.785   1.414
  984SOL    HW2 2979   2.534   2.624   1.434
  985SOL     OW 2980   2.578   2.427   1.708
  985SOL    HW1 2981   2.597   2.492   1.782
  985SOL    HW2 2982   2.638   2.347   1.717
  986SOL     OW 2983   3.312   3.082   1.633
  986SOL    HW1 2984   3.303   3.072   1.732
  986SOL    HW2 2985   3.408   3.075   1.607
  987SOL     OW 2986   3.087   2.187   0.449
  987SOL    HW1 2987   3.152   2.113   0.438
  987SOL    HW2 2988   3.107   2.237   0.533
  988SOL     OW 2989   2.456   2.607   0.652
  988SOL    HW1 2990   2.506   2.692   0.633
  988SOL    HW2 2991   2.368   2.609   0.604
  989SOL     OW 2992   2.721   2.818   0.861
  989SOL    HW1 2993   2.775   2.749   0.909
  989SOL    HW2 2994   2.689   2.887   0.927
  990SOL     OW 2995   2.945   2.846   0.087
  990SOL    HW1 2996   2.922   2.899   0.005
  990SOL    HW2 2997   3.026   2.790   0.068
  991SOL     OW 2998   1.941   3.102   0.653
  991SOL    HW1 2999   1.940   3.055   0.741
  991SOL    HW2 3000   2.023   3.074   0.602
  992SOL     OW 3001   2.290   2.286   0.520
  992SOL    HW1 3002   2.320   2.214   0.458
  992SOL    HW2 3003   2.251   2.246   0.603
  993SOL     OW 3004   2.179   2.409   1.280
  993SOL    HW1 3005   2.217   2.350   1.352
  993SOL    HW2 3006   2.219   2.383   1.192
  994SOL     OW 3007   2.863   1.896   1.154
  994SOL    HW1 3008   2.800   1.824   1.123
  994SOL    HW2 3009   2.956   1.860   1.154
  995SOL     OW 3010   2.632   3.192   0.301
  995SOL    HW1 3011   2.586   3.105   0.318
  995SOL    HW2 3012   2.723   3.189   0.342
  996SOL     OW 3013   1.901   2.939   0.300
  996SOL    HW1 3014   2.000   2.928   0.291
  996SOL    HW2 3015   1.861   2.853   0.332
  997SOL     OW 3016   2.092   2.490   1.975
  997SOL    HW1 3017   1.999   2.488   2.012
  997SOL    HW2 3018   2.093   2.451   1.883
  998SOL     OW 3019   2.087   2.137   2.858
  998SOL    HW1 3020   2.122   2.120   2.950
  998SOL    HW2 3021   1.999   2.092   2.846
  999SOL     OW 3022   1.881   2.230   2.509
  999SOL    HW1 3023   1.799   2.273   2.548
  999SOL    HW2 3024   1.853   2.157   2.446
 1000SOL     OW 3025   2.431   3.137   3.027
 1000SOL    HW1 3026   2.338   3.130   2.990
 1000SOL    HW2 3027   2.442   3.226   3.071
 1001SOL     OW 3028   2.997   2.565   2.579
 1001SOL    HW1 3029   3.054   2.643   2.554
 1001SOL    HW2 3030   2.937   2.591   2.655
 1002SOL     OW 3031   2.630   3.006   2.885
 1002SOL    HW1 3032   2.552   3.023   2.945
 1002SOL    HW2 3033   2.664   3.093   2.849
 1003SOL     OW 3034   2.547   2.874   2.527
 1003SOL    HW1 3035   2.616   2.858   2.597
 1003SOL    HW2 3036   2.474   2.931   2.565
 1004SOL     OW 3037   2.197   3.297   2.923
 1004SOL    HW1 3038   2.119   3.266   2.870
 1004SOL    HW2 3039   2.255   3.355   2.866
 1005SOL     OW 3040   2.102   2.953   2.748
 1005SOL    HW1 3041   2.116   2.869   2.800
 1005SOL    HW2 3042   2.047   3.017   2.803
 1006SOL     OW 3043   2.468   2.826   1.985
 1006SOL    HW1 3044   2.475   2.910   1.931
 1006SOL    HW2 3045   2.514   2.839   2.073
 1007SOL     OW 3046   1.984   2.505   2.425
 1007SOL    HW1 3047   1.939   2.417   2.442
 1007SOL    HW2 3048   1.983   2.559   2.509
 1008SOL     OW 3049   2.671   1.866   2.364
 1008SOL    HW1 3050   2.711   1.957   2.355
 1008SOL    HW2 3051   2.571   1.874   2.370
 1009SOL     OW 3052   2.059   2.838   3.126
 1009SOL    HW1 3053   2.148   2.793   3.112
 1009SOL    HW2 3054   1.986   2.773   3.107
 1010SOL     OW 3055   2.460   2.591   2.132
 1010SOL    HW1 3056   2.484   2.660   2.064
 1010SOL    HW2 3057   2.382   2.624   2.186
 1011SOL     OW 3058   3.143   2.207   2.806
 1011SOL    HW1 3059   3.057   2.157   2.793
 1011SOL    HW2 3060   3.205   2.153   2.862
 1012SOL     OW 3061   2.853   2.272   3.104
 1012SOL    HW1 3062   2.776   2.306   3.158
 1012SOL    HW2 3063   2.819   2.221   3.025
 1013SOL     OW 3064   2.903   2.563   2.291
 1013SOL    HW1 3065   2.929   2.559   2.387
 1013SOL    HW2 3066   2.818   2.512   2.277
 1014SOL     OW 3067   1.938   2.673   2.651
 1014SOL    HW1 3068   2.037   2.661   2.660
 1014SOL    HW2 3069   1.914   2.768   2.672
 1015SOL     OW 3070   2.727   2.210   2.057
 1015SOL    HW1 3071   2.786   2.273   2.008
 1015SOL    HW2 3072   2.746   2.116   2.028
 1016SOL     OW 3073   2.412   2.058   2.747
 1016SOL    HW1 3074   2.407   2.053   2.847
 1016SOL    HW2 3075   2.414   2.154   2.718
 1017SOL     OW 3076   2.183   2.805   2.104
 1017SOL    HW1 3077   2.265   2.844   2.062
 1017SOL    HW2 3078   2.156   2.723   2.055
 1018SOL     OW 3079   2.244   2.562   2.342
 1018SOL    HW1 3080   2.289   2.472   2.339
 1018SOL    HW2 3081   2.150   2.551   2.375
 1019SOL     OW 3082   2.476   1.984   1.979
 1019SOL    HW1 3083   2.574   1.962   1.986
 1019SOL    HW2 3084   2.445   1.967   1.886
 1020SOL     OW 3085   2.665   3.264   2.786
 1020SOL    HW1 3086   2.755   3.278   2.744
 1020SOL    HW2 3087   2.594   3.266   2.715
 1021SOL     OW 3088   2.784   2.365   2.761
 1021SOL    HW1 3089   2.759   2.356   2.665
 1021SOL    HW2 3090   2.832   2.283   2.792
 1022SOL     OW 3091   2.401   1.926   2.374
 1022SOL    HW1 3092   2.320   1.927   2.432
 1022SOL    HW2 3093   2.404   2.009   2.319
 1023SOL     OW 3094   3.296   3.050   1.903
 1023SOL    HW1 3095   3.328   2.974   1.960
 1023SOL    HW2 3096   3.204   3.077   1.933
 1024SOL     OW 3097   2.159   1.897   2.033
 1024SOL    HW1 3098   2.208   1.981   2.012
 1024SOL    HW2 3099   2.221   1.832   2.078
 1025SOL     OW 3100   2.797   2.098   2.342
 1025SOL    HW1 3101   2.749   2.139   2.264
 1025SOL    HW2 3102   2.896   2.096   2.323
 1026SOL     OW 3103   3.089   3.432   2.655
 1026SOL    HW1 3104   3.110   3.506   2.590
 1026SOL    HW2 3105   3.157   3.432   2.728
 1027SOL     OW 3106   2.321   3.014   2.603
 1027SOL    HW1 3107   2.250   2.987   2.668
 1027SOL    HW2 3108   2.295   2.986   2.510
 1028SOL     OW 3109   2.894   2.411   1.878
 1028SOL    HW1 3110   2.853   2.493   1.839
 1028SOL    HW2 3111   2.958   2.437   1.951
 1029SOL     OW 3112   2.423   2.084   3.009
 1029SOL    HW1 3113   2.461   2.000   3.046
 1029SOL    HW2 3114   2.335   2.103   3.053
 1030SOL     OW 3115   2.728   2.316   2.504
 1030SOL    HW1 3116   2.696   2.388   2.442
 1030SOL    HW2 3117   2.752   2.235   2.451
 1031SOL     OW 3118   2.879   1.901   2.615
 1031SOL    HW1 3119   2.807   1.906   2.546
 1031SOL    HW2 3120   2.855   1.832   2.684
 1032SOL     OW 3121   2.389   2.118   2.190
 1032SOL    HW1 3122   2.416   2.059   2.115
 1032SOL    HW2 3123   2.389   2.213   2.159
 1033SOL     OW 3124   2.567   2.912   2.230
 1033SOL    HW1 3125   2.553   2.919   2.329
 1033SOL    HW2 3126   2.651   2.861   2.212
 1034SOL     OW 3127   2.272   2.675   3.113
 1034SOL    HW1 3128   2.358   2.687   3.163
 1034SOL    HW2 3129   2.230   2.588   3.140
 1035SOL     OW 3130   2.229   2.962   2.363
 1035SOL    HW1 3131   2.222   3.045   2.307
 1035SOL    HW2 3132   2.233   2.882   2.303
 1036SOL     OW 3133   2.428   2.399   2.727
 1036SOL    HW1 3134   2.440   2.465   2.653
 1036SOL    HW2 3135   2.474   2.433   2.810
 1037SOL     OW 3136   3.114   3.210   2.250
 1037SOL    HW1 3137   3.164   3.287   2.290
 1037SOL    HW2 3138   3.019   3.212   2.282
 1038SOL     OW 3139   2.435   2.732   2.891
 1038SOL    HW1 3140   2.479   2.821   2.882
 1038SOL    HW2 3141   2.372   2.732   2.968
 1039SOL     OW 3142   3.222   2.724   2.907
 1039SOL    HW1 3143   3.147   2.724   2.841
 1039SOL    HW2 3144   3.259   2.632   2.916
 1040SOL     OW 3145   3.071   2.387   2.137
 1040SOL    HW1 3146   3.084   2.303   2.191
 1040SOL    HW2 3147   3.042   2.461   2.197
 1041SOL     OW 3148   2.169   2.075   3.093
 1041SOL    HW1 3149   2.146   2.112   3.183
 1041SOL    HW2 3150   2.139   1.980   3.087
 1042SOL     OW 3151   2.594   2.496   2.926
 1042SOL    HW1 3152   2.653   2.470   2.850
 1042SOL    HW2 3153   2.566   2.592   2.915
 1043SOL     OW 3154   2.169   1.925   2.480
 1043SOL    HW1 3155   2.158   2.019   2.513
 1043SOL    HW2 3156   2.164   1.862   2.557
 1044SOL     OW 3157   3.484   2.229   2.236
 1044SOL    HW1 3158   3.486   2.153   2.300
 1044SOL    HW2 3159   3.436   2.306   2.276
 1045SOL     OW 3160   2.885   2.628   2.828
 1045SOL    HW1 3161   2.900   2.649   2.924
 1045SOL    HW2 3162   2.855   2.533   2.819
 1046SOL     OW 3163   3.165   2.700   1.904
 1046SOL    HW1 3164   3.199   2.607   1.919
 1046SOL    HW2 3165   3.183   2.727   1.809
 1047SOL     OW 3166   2.181   2.672   2.811
 1047SOL    HW1 3167   2.274   2.708   2.816
 1047SOL    HW2 3168   2.175   2.587   2.863
 1048SOL     OW 3169   2.201   2.371   2.868
 1048SOL    HW1 3170   2.149   2.288   2.851
 1048SOL    HW2 3171   2.278   2.376   2.804
 1049SOL     OW 3172   3.022   2.069   3.339
 1049SOL    HW1 3173   3.022   2.133   3.416
 1049SOL    HW2 3174   3.050   2.117   3.256
 1050SOL     OW 3175   1.870   3.188   2.062
 1050SOL    HW1 3176   1.777   3.209   2.031
 1050SOL    HW2 3177   1.880   3.089   2.075
 1051SOL     OW 3178   2.864   2.658   3.100
 1051SOL    HW1 3179   2.905   2.626   3.186
 1051SOL    HW2 3180   2.768   2.631   3.097
 1052SOL     OW 3181   1.902   2.406   2.976
 1052SOL    HW1 3182   1.987   2.373   2.935
 1052SOL    HW2 3183   1.915   2.421   3.074
 1053SOL     OW 3184   2.677   2.434   2.187
 1053SOL    HW1 3185   2.684   2.345   2.141
 1053SOL    HW2 3186   2.583   2.468   2.179
 1054SOL     OW 3187   2.533   2.326   3.131
 1054SOL    HW1 3188   2.499   2.237   3.101
 1054SOL    HW2 3189   2.559   2.380   3.051
 1055SOL     OW 3190   2.335   2.362   2.053
 1055SOL    HW1 3191   2.396   2.442   2.057
 1055SOL    HW2 3192   2.240   2.393   2.060
 1056SOL     OW 3193   3.209   2.921   3.096
 1056SOL    HW1 3194   3.233   2.858   3.022
 1056SOL    HW2 3195   3.119   2.961   3.078
 1057SOL     OW 3196   1.945   3.120   2.884
 1057SOL    HW1 3197   1.940   3.119   2.984
 1057SOL    HW2 3198   1.862   3.079   2.846
 1058SOL     OW 3199   3.142   2.789   2.534
 1058SOL    HW1 3200   3.202   2.708   2.536
 1058SOL    HW2 3201   3.182   2.858   2.474
 1059SOL     OW 3202   2.692   3.135   3.284
 1059SOL    HW1 3203   2.687   3.168   3.379
 1059SOL    HW2 3204   2.606   3.154   3.238
 1060SOL     OW 3205   2.125   2.188   2.582
 1060SOL    HW1 3206   2.046   2.239   2.548
 1060SOL    HW2 3207   2.116   2.173   2.680
 1061SOL     OW 3208   3.056   3.474   1.893
 1061SOL    HW1 3209   3.062   3.381   1.930
 1061SOL    HW2 3210   2.997   3.474   1.813
 1062SOL     OW 3211   2.684   2.864   3.234
 1062SOL    HW1 3212   2.724   2.863   3.142
 1062SOL    HW2 3213   2.694   2.956   3.274
 1063SOL     OW 3214   2.778   2.772   2.153
 1063SOL    HW1 3215   2.841   2.810   2.085
 1063SOL    HW2 3216   2.818   2.689   2.192
 1064SOL     OW 3217   2.901   2.960   2.558
 1064SOL    HW1 3218   2.831   2.913   2.612
 1064SOL    HW2 3219   2.960   2.892   2.515
 1065SOL     OW 3220   2.876   2.098   2.833
 1065SOL    HW1 3221   2.868   2.062   2.740
 1065SOL    HW2 3222   2.874   2.022   2.898
 1066SOL     OW 3223   1.937   2.207   1.895
 1066SOL    HW1 3224   1.845   2.179   1.866
 1066SOL    HW2 3225   1.968   2.284   1.839
 1067SOL     OW 3226   1.934   2.028   2.180
 1067SOL    HW1 3227   1.917   2.111   2.126
 1067SOL    HW2 3228   2.024   1.991   2.158
 1068SOL     OW 3229   3.087   2.187   2.311
 1068SOL    HW1 3230   3.152   2.113   2.300
 1068SOL    HW2 3231   3.107   2.237   2.395
 1069SOL     OW 3232   2.456   2.607   2.514
 1069SOL    HW1 3233   2.506   2.692   2.495
 1069SOL    HW2 3234   2.368   2.609   2.466
 1070SOL     OW 3235   2.721   2.818   2.723
 1070SOL    HW1 3236   2.775   2.749   2.771
 1070SOL    HW2 3237   2.689   2.887   2.789
 1071SOL     OW 3238   2.945   2.846   1.949
 1071SOL    HW1 3239   2.922   2.899   1.867
 1071SOL    HW2 3240   3.026   2.790   1.930
 1072SOL     OW 3241   1.941   3.102   2.515
 1072SOL    HW1 3242   1.940   3.055   2.603
 1072SOL    HW2 3243   2.023   3.074   2.464
 1073SOL     OW 3244   2.290   2.286   2.382
 1073SOL    HW1 3245   2.320   2.214   2.320
 1073SOL    HW2 3246   2.251   2.246   2.465
 1074SOL     OW 3247   2.863   1.896   3.016
 1074SOL    HW1 3248   2.800   1.824   2.985
 1074SOL    HW2 3249   2.956   1.860   3.016
 1075SOL     OW 3250   2.632   3.192   2.163
 1075SOL    HW1 3251   2.586   3.105   2.180
 1075SOL    HW2 3252   2.723   3.189   2.204
 1076SOL     OW 3253   3.214   1.914   2.030
 1076SOL    HW1 3254   3.249   1.873   1.946
 1076SOL    HW2 3255   3.124   1.876   2.050
 1077SOL     OW 3256   1.901   2.939   2.162
 1077SOL    HW1 3257   2.000   2.928   2.153
 1077SOL    HW2 3258   1.861   2.853   2.194
   3.22858   3.22858   3.22858
