; mobley_8966374_GMX.itp created by acpype (v: 2023.10.27) on Thu May 14 13:44:20 2026

[ atomtypes ]
;name   bond_type     mass     charge   ptype   sigma         epsilon       Amb
 ca       ca          0.00000  0.00000   A     3.31521e-01   4.13379e-01 ; 1.86  0.0988
 c3       c3          0.00000  0.00000   A     3.39771e-01   4.51035e-01 ; 1.91  0.1078
 nb       nb          0.00000  0.00000   A     3.38417e-01   3.93714e-01 ; 1.90  0.0941
 h4       h4          0.00000  0.00000   A     2.53639e-01   6.73624e-02 ; 1.42  0.0161
 hc       hc          0.00000  0.00000   A     2.60018e-01   8.70272e-02 ; 1.46  0.0208

[ moleculetype ]
;name            nrexcl
 mobley_8966374   3

[ atoms ]
;   nr  type  resi  res  atom  cgnr     charge      mass       ; qtot   bond_type
     1   ca     1   MOL    C1    1     0.271900     12.01000 ; qtot 0.272
     2   ca     1   MOL    C2    2     0.286900     12.01000 ; qtot 0.559
     3   ca     1   MOL    C3    3     0.275900     12.01000 ; qtot 0.835
     4   ca     1   MOL    C4    4     0.301300     12.01000 ; qtot 1.136
     5   c3     1   MOL    C5    5    -0.146400     12.01000 ; qtot 0.990
     6   nb     1   MOL    N1    6    -0.626000     14.01000 ; qtot 0.364
     7   nb     1   MOL    N2    7    -0.633999     14.01000 ; qtot -0.270
     8   h4     1   MOL    H1    8     0.034100      1.00800 ; qtot -0.236
     9   h4     1   MOL    H2    9     0.033100      1.00800 ; qtot -0.203
    10   h4     1   MOL    H3   10     0.032100      1.00800 ; qtot -0.171
    11   hc     1   MOL    H4   11     0.057033      1.00800 ; qtot -0.114
    12   hc     1   MOL    H5   12     0.057033      1.00800 ; qtot -0.057
    13   hc     1   MOL    H6   13     0.057033      1.00800 ; qtot 0.000

[ bonds ]
;   ai     aj funct   r             k
     1      2   1    1.3986e-01    2.9644e+05 ;     C1 - C2    
     1      6   1    1.3392e-01    3.2341e+05 ;     C1 - N1    
     1      8   1    1.0885e-01    2.9859e+05 ;     C1 - H1    
     2      7   1    1.3392e-01    3.2341e+05 ;     C2 - N2    
     2      9   1    1.0885e-01    2.9859e+05 ;     C2 - H2    
     3      4   1    1.3986e-01    2.9644e+05 ;     C3 - C4    
     3      6   1    1.3392e-01    3.2341e+05 ;     C3 - N1    
     3     10   1    1.0885e-01    2.9859e+05 ;     C3 - H3    
     4      5   1    1.5147e-01    2.0410e+05 ;     C4 - C5    
     4      7   1    1.3392e-01    3.2341e+05 ;     C4 - N2    
     5     11   1    1.0962e-01    2.8891e+05 ;     C5 - H4    
     5     12   1    1.0962e-01    2.8891e+05 ;     C5 - H5    
     5     13   1    1.0962e-01    2.8891e+05 ;     C5 - H6    

[ pairs ]
;   ai     aj    funct
     1      4      1 ;     C1 - C4    
     1     10      1 ;     C1 - H3    
     2      3      1 ;     C2 - C3    
     2      5      1 ;     C2 - C5    
     3     11      1 ;     C3 - H4    
     3     12      1 ;     C3 - H5    
     3     13      1 ;     C3 - H6    
     4      9      1 ;     C4 - H2    
     5      6      1 ;     C5 - N1    
     5     10      1 ;     C5 - H3    
     6      7      1 ;     N1 - N2    
     6      9      1 ;     N1 - H2    
     7     10      1 ;     N2 - H3    
     7     11      1 ;     N2 - H4    
     7     12      1 ;     N2 - H5    
     7     13      1 ;     N2 - H6    
     8      3      1 ;     H1 - C3    
     8      7      1 ;     H1 - N2    
     8      9      1 ;     H1 - H2    

[ angles ]
;   ai     aj     ak    funct   theta         cth
     1      2      7      1    1.2294e+02    5.7045e+02 ;     C1 - C2     - N2    
     1      2      9      1    1.2032e+02    3.7489e+02 ;     C1 - C2     - H2    
     1      6      3      1    1.1724e+02    6.9580e+02 ;     C1 - N1     - C3    
     2      1      6      1    1.2294e+02    5.7045e+02 ;     C2 - C1     - N1    
     2      1      8      1    1.2032e+02    3.7489e+02 ;     C2 - C1     - H1    
     2      7      4      1    1.1724e+02    6.9580e+02 ;     C2 - N2     - C4    
     3      4      5      1    1.2083e+02    5.0827e+02 ;     C3 - C4     - C5    
     3      4      7      1    1.2294e+02    5.7045e+02 ;     C3 - C4     - N2    
     4      3      6      1    1.2294e+02    5.7045e+02 ;     C4 - C3     - N1    
     4      3     10      1    1.2032e+02    3.7489e+02 ;     C4 - C3     - H3    
     4      5     11      1    1.1063e+02    3.6493e+02 ;     C4 - C5     - H4    
     4      5     12      1    1.1063e+02    3.6493e+02 ;     C4 - C5     - H5    
     4      5     13      1    1.1063e+02    3.6493e+02 ;     C4 - C5     - H6    
     5      4      7      1    1.1664e+02    5.5815e+02 ;     C5 - C4     - N2    
     6      1      8      1    1.1602e+02    4.1924e+02 ;     N1 - C1     - H1    
     6      3     10      1    1.1602e+02    4.1924e+02 ;     N1 - C3     - H3    
     7      2      9      1    1.1602e+02    4.1924e+02 ;     N2 - C2     - H2    
    11      5     12      1    1.0773e+02    2.9957e+02 ;     H4 - C5     - H5    
    11      5     13      1    1.0773e+02    2.9957e+02 ;     H4 - C5     - H6    
    12      5     13      1    1.0773e+02    2.9957e+02 ;     H5 - C5     - H6    

[ dihedrals ] ; propers
; for gromacs 4.5 or higher, using funct 9
;    i      j      k      l   func   phase     kd      pn
     1      2      7      4      9   180.00  20.08320   2 ;     C1-    C2-    N2-    C4
     1      6      3      4      9   180.00  20.08320   2 ;     C1-    N1-    C3-    C4
     1      6      3     10      9   180.00  20.08320   2 ;     C1-    N1-    C3-    H3
     2      1      6      3      9   180.00  20.08320   2 ;     C2-    C1-    N1-    C3
     2      7      4      3      9   180.00  20.08320   2 ;     C2-    N2-    C4-    C3
     2      7      4      5      9   180.00  20.08320   2 ;     C2-    N2-    C4-    C5
     3      4      5     11      9     0.00   0.00000   0 ;     C3-    C4-    C5-    H4
     3      4      5     12      9     0.00   0.00000   0 ;     C3-    C4-    C5-    H5
     3      4      5     13      9     0.00   0.00000   0 ;     C3-    C4-    C5-    H6
     4      7      2      9      9   180.00  20.08320   2 ;     C4-    N2-    C2-    H2
     5      4      3      6      9   180.00  15.16700   2 ;     C5-    C4-    C3-    N1
     5      4      3     10      9   180.00  15.16700   2 ;     C5-    C4-    C3-    H3
     6      1      2      7      9   180.00  15.16700   2 ;     N1-    C1-    C2-    N2
     6      1      2      9      9   180.00  15.16700   2 ;     N1-    C1-    C2-    H2
     6      3      4      7      9   180.00  15.16700   2 ;     N1-    C3-    C4-    N2
     7      4      3     10      9   180.00  15.16700   2 ;     N2-    C4-    C3-    H3
     7      4      5     11      9     0.00   0.00000   0 ;     N2-    C4-    C5-    H4
     7      4      5     12      9     0.00   0.00000   0 ;     N2-    C4-    C5-    H5
     7      4      5     13      9     0.00   0.00000   0 ;     N2-    C4-    C5-    H6
     8      1      2      7      9   180.00  15.16700   2 ;     H1-    C1-    C2-    N2
     8      1      2      9      9   180.00  15.16700   2 ;     H1-    C1-    C2-    H2
     8      1      6      3      9   180.00  20.08320   2 ;     H1-    C1-    N1-    C3

[ dihedrals ] ; impropers
; treated as propers in GROMACS to use correct AMBER analytical function
;    i      j      k      l   func   phase     kd      pn
     1      9      2      7      4   180.00   4.60240   2 ;     C1-    H2-    C2-    N2
     4     10      3      6      4   180.00   4.60240   2 ;     C4-    H3-    C3-    N1
     5      3      4      7      4   180.00   4.60240   2 ;     C5-    C3-    C4-    N2
     6      1      8      2      4   180.00   4.60240   2 ;     N1-    C1-    H1-    C2
