mobley_3572203_GMX.gro created by acpype (v: 2023.10.27) on Thu May 14 13:22:08 2026
 3026
    1MOL     C1    1   1.733   1.548   1.366
    1MOL     C2    2   1.885   1.460   1.186
    1MOL     C3    3   1.294   1.715   1.938
    1MOL     C4    4   1.809   1.428   1.314
    1MOL     C5    5   1.374   1.609   1.864
    1MOL     C6    6   1.438   1.665   1.737
    1MOL     C7    7   1.521   1.559   1.665
    1MOL     C8    8   1.589   1.615   1.541
    1MOL     O1    9   1.732   1.659   1.315
    1MOL     O2   10   1.666   1.512   1.480
    1MOL     H1   11   1.958   1.540   1.203
    1MOL     H2   12   1.939   1.371   1.151
    1MOL     H3   13   1.817   1.492   1.107
    1MOL     H4   14   1.358   1.799   1.968
    1MOL     H5   15   1.213   1.754   1.875
    1MOL     H6   16   1.249   1.673   2.029
    1MOL     H7   17   1.880   1.395   1.391
    1MOL     H8   18   1.737   1.347   1.295
    1MOL     H9   19   1.308   1.525   1.839
    1MOL    H10   20   1.452   1.570   1.931
    1MOL    H11   21   1.360   1.703   1.670
    1MOL    H12   22   1.502   1.750   1.764
    1MOL    H13   23   1.458   1.474   1.637
    1MOL    H14   24   1.598   1.518   1.733
    1MOL    H15   25   1.656   1.698   1.567
    1MOL    H16   26   1.515   1.651   1.469
    2SOL     OW   27   0.230   0.628   0.113
    2SOL    HW1   28   0.137   0.626   0.150
    2SOL    HW2   29   0.231   0.589   0.021
    3SOL     OW   30   0.225   0.275   0.996
    3SOL    HW1   31   0.260   0.258   1.088
    3SOL    HW2   32   0.137   0.230   0.984
    4SOL     OW   33   0.019   0.368   0.647
    4SOL    HW1   34  -0.063   0.411   0.686
    4SOL    HW2   35  -0.009   0.295   0.584
    5SOL     OW   36   0.569   1.275   1.165
    5SOL    HW1   37   0.476   1.268   1.128
    5SOL    HW2   38   0.580   1.364   1.209
    6SOL     OW   39   1.555   1.511   0.703
    6SOL    HW1   40   1.498   1.495   0.784
    6SOL    HW2   41   1.496   1.521   0.623
    7SOL     OW   42   1.135   0.703   0.717
    7SOL    HW1   43   1.192   0.781   0.692
    7SOL    HW2   44   1.075   0.729   0.793
    8SOL     OW   45   1.755   0.607   0.231
    8SOL    HW1   46   1.743   0.594   0.132
    8SOL    HW2   47   1.725   0.526   0.280
    9SOL     OW   48   0.768   1.144   1.023
    9SOL    HW1   49   0.690   1.161   1.083
    9SOL    HW2   50   0.802   1.231   0.987
   10SOL     OW   51   0.850   0.798   1.823
   10SOL    HW1   52   0.846   0.874   1.888
   10SOL    HW2   53   0.872   0.834   1.732
   11SOL     OW   54   0.685   1.012   0.665
   11SOL    HW1   55   0.754   0.996   0.735
   11SOL    HW2   56   0.612   1.069   0.703
   12SOL     OW   57   0.686   1.161   1.803
   12SOL    HW1   58   0.746   1.240   1.817
   12SOL    HW2   59   0.600   1.192   1.762
   13SOL     OW   60   0.335   1.435   1.061
   13SOL    HW1   61   0.257   1.404   1.008
   13SOL    HW2   62   0.393   1.493   1.004
   14SOL     OW   63   0.438   0.392   1.499
   14SOL    HW1   64   0.520   0.336   1.508
   14SOL    HW2   65   0.357   0.334   1.503
   15SOL     OW   66   1.603   0.447   0.737
   15SOL    HW1   67   1.529   0.493   0.687
   15SOL    HW2   68   1.654   0.515   0.790
   16SOL     OW   69   0.231   1.713   0.483
   16SOL    HW1   70   0.265   1.790   0.537
   16SOL    HW2   71   0.275   1.713   0.393
   17SOL     OW   72   1.127   1.341   1.690
   17SOL    HW1   73   1.174   1.341   1.778
   17SOL    HW2   74   1.079   1.254   1.679
   18SOL     OW   75   0.230   1.434   0.538
   18SOL    HW1   76   0.204   1.530   0.538
   18SOL    HW2   77   0.159   1.380   0.583
   19SOL     OW   78   0.240   1.091   0.886
   19SOL    HW1   79   0.254   1.007   0.938
   19SOL    HW2   80   0.185   1.155   0.941
   20SOL     OW   81   0.620   1.786   1.439
   20SOL    HW1   82   0.528   1.769   1.474
   20SOL    HW2   83   0.648   1.878   1.465
   21SOL     OW   84   0.606   0.964   0.123
   21SOL    HW1   85   0.613   1.048   0.069
   21SOL    HW2   86   0.652   0.977   0.211
   22SOL     OW   87   1.594   0.114   1.480
   22SOL    HW1   88   1.576   0.181   1.408
   22SOL    HW2   89   1.591   0.160   1.569
   23SOL     OW   90   0.122   0.643   0.563
   23SOL    HW1   91   0.077   0.555   0.580
   23SOL    HW2   92   0.121   0.697   0.647
   24SOL     OW   93   1.842   1.767   0.359
   24SOL    HW1   94   1.896   1.738   0.439
   24SOL    HW2   95   1.872   1.857   0.330
   25SOL     OW   96   0.027   1.596   0.117
   25SOL    HW1   97   0.008   1.500   0.138
   25SOL    HW2   98  -0.006   1.654   0.192
   26SOL     OW   99   1.689   0.922   0.612
   26SOL    HW1  100   1.784   0.893   0.620
   26SOL    HW2  101   1.681   0.987   0.537
   27SOL     OW  102   1.641   1.108   0.432
   27SOL    HW1  103   1.727   1.110   0.380
   27SOL    HW2  104   1.655   1.155   0.520
   28SOL     OW  105   0.113   0.737   1.597
   28SOL    HW1  106   0.201   0.724   1.642
   28SOL    HW2  107   0.100   0.834   1.575
   29SOL     OW  108   0.613   1.365   0.726
   29SOL    HW1  109   0.564   1.278   0.735
   29SOL    HW2  110   0.590   1.408   0.639
   30SOL     OW  111   1.293   1.228   1.423
   30SOL    HW1  112   1.330   1.155   1.365
   30SOL    HW2  113   1.345   1.233   1.508
   31SOL     OW  114   0.809   0.004   0.502
   31SOL    HW1  115   0.849   0.095   0.493
   31SOL    HW2  116   0.709   0.012   0.508
   32SOL     OW  117   0.197   0.976   1.264
   32SOL    HW1  118   0.286   0.931   1.250
   32SOL    HW2  119   0.124   0.911   1.245
   33SOL     OW  120   1.525   0.999   0.190
   33SOL    HW1  121   1.462   0.923   0.203
   33SOL    HW2  122   1.573   1.017   0.276
   34SOL     OW  123   1.187   1.792   1.616
   34SOL    HW1  124   1.211   1.852   1.540
   34SOL    HW2  125   1.194   1.697   1.586
   35SOL     OW  126   0.317   0.251   1.801
   35SOL    HW1  127   0.388   0.322   1.807
   35SOL    HW2  128   0.229   0.290   1.829
   36SOL     OW  129   1.466   1.417   0.953
   36SOL    HW1  130   1.407   1.423   1.033
   36SOL    HW2  131   1.451   1.329   0.907
   37SOL     OW  132   1.667   1.714   0.572
   37SOL    HW1  133   1.626   1.691   0.484
   37SOL    HW2  134   1.649   1.640   0.637
   38SOL     OW  135   0.598   0.729   0.270
   38SOL    HW1  136   0.622   0.798   0.202
   38SOL    HW2  137   0.520   0.762   0.324
   39SOL     OW  138   1.281   0.345   0.944
   39SOL    HW1  139   1.195   0.295   0.931
   39SOL    HW2  140   1.343   0.291   1.000
   40SOL     OW  141   1.576   1.662   0.307
   40SOL    HW1  142   1.665   1.708   0.310
   40SOL    HW2  143   1.555   1.638   0.212
   41SOL     OW  144   0.807   0.605   1.465
   41SOL    HW1  145   0.760   0.602   1.554
   41SOL    HW2  146   0.756   0.550   1.399
   42SOL     OW  147   1.394   0.469   1.674
   42SOL    HW1  148   1.374   0.512   1.762
   42SOL    HW2  149   1.472   0.407   1.683
   43SOL     OW  150   0.973   0.890   1.572
   43SOL    HW1  151   1.019   0.806   1.543
   43SOL    HW2  152   0.917   0.924   1.497
   44SOL     OW  153   0.991   0.410   1.242
   44SOL    HW1  154   0.914   0.444   1.296
   44SOL    HW2  155   0.957   0.359   1.163
   45SOL     OW  156   1.041   0.701   0.429
   45SOL    HW1  157   1.067   0.697   0.525
   45SOL    HW2  158   0.956   0.650   0.415
   46SOL     OW  159   0.076   0.811   0.789
   46SOL    HW1  160   0.175   0.799   0.798
   46SOL    HW2  161   0.052   0.906   0.810
   47SOL     OW  162   0.130   1.821   1.571
   47SOL    HW1  163   0.120   1.806   1.670
   47SOL    HW2  164   0.044   1.857   1.535
   48SOL     OW  165   0.865   0.348   0.195
   48SOL    HW1  166   0.924   0.411   0.146
   48SOL    HW2  167   0.884   0.254   0.166
   49SOL     OW  168   1.719   0.585   1.831
   49SOL    HW1  169   1.693   0.674   1.795
   49SOL    HW2  170   1.717   0.517   1.758
   50SOL     OW  171   1.362   1.144   0.545
   50SOL    HW1  172   1.445   1.115   0.497
   50SOL    HW2  173   1.313   1.211   0.489
   51SOL     OW  174   0.550   0.196   0.885
   51SOL    HW1  175   0.545   0.191   0.985
   51SOL    HW2  176   0.552   0.292   0.856
   52SOL     OW  177   1.008   1.456   0.477
   52SOL    HW1  178   0.962   1.528   0.425
   52SOL    HW2  179   1.004   1.476   0.575
   53SOL     OW  180   0.351   1.801   0.853
   53SOL    HW1  181   0.401   1.715   0.859
   53SOL    HW2  182   0.416   1.878   0.850
   54SOL     OW  183   1.795   1.066   0.873
   54SOL    HW1  184   1.733   1.051   0.797
   54SOL    HW2  185   1.743   1.077   0.958
   55SOL     OW  186   1.227   1.550   1.506
   55SOL    HW1  187   1.233   1.473   1.570
   55SOL    HW2  188   1.175   1.524   1.426
   56SOL     OW  189   0.321   0.943   0.242
   56SOL    HW1  190   0.403   0.982   0.200
   56SOL    HW2  191   0.294   0.861   0.193
   57SOL     OW  192   1.458   0.735   0.728
   57SOL    HW1  193   1.453   0.670   0.803
   57SOL    HW2  194   1.538   0.794   0.741
   58SOL     OW  195   0.461   1.266   1.727
   58SOL    HW1  196   0.411   1.267   1.641
   58SOL    HW2  197   0.398   1.248   1.803
   59SOL     OW  198   1.111   1.776   0.237
   59SOL    HW1  199   1.051   1.714   0.287
   59SOL    HW2  200   1.142   1.732   0.152
   60SOL     OW  201   0.202   0.285   1.498
   60SOL    HW1  202   0.122   0.345   1.485
   60SOL    HW2  203   0.192   0.236   1.584
   61SOL     OW  204   1.632   1.377   0.081
   61SOL    HW1  205   1.600   1.471   0.071
   61SOL    HW2  206   1.556   1.314   0.069
   62SOL     OW  207   0.464   1.743   0.323
   62SOL    HW1  208   0.497   1.782   0.409
   62SOL    HW2  209   0.540   1.736   0.258
   63SOL     OW  210   1.400   0.107   0.426
   63SOL    HW1  211   1.376   0.070   0.336
   63SOL    HW2  212   1.499   0.123   0.430
   64SOL     OW  213   0.249   1.785   1.241
   64SOL    HW1  214   0.306   1.720   1.291
   64SOL    HW2  215   0.233   1.752   1.148
   65SOL     OW  216   0.940   1.698   0.904
   65SOL    HW1  217   1.020   1.641   0.925
   65SOL    HW2  218   0.891   1.658   0.827
   66SOL     OW  219   0.382   0.700   0.480
   66SOL    HW1  220   0.427   0.610   0.477
   66SOL    HW2  221   0.288   0.689   0.513
   67SOL     OW  222   1.547   0.222   1.729
   67SOL    HW1  223   1.542   0.259   1.821
   67SOL    HW2  224   1.475   0.153   1.717
   68SOL     OW  225   0.614   0.122   0.117
   68SOL    HW1  226   0.712   0.100   0.124
   68SOL    HW2  227   0.583   0.105   0.024
   69SOL     OW  228   0.781   0.264   1.749
   69SOL    HW1  229   0.848   0.203   1.792
   69SOL    HW2  230   0.708   0.283   1.814
   70SOL     OW  231   0.888   1.514   1.195
   70SOL    HW1  232   0.865   1.489   1.101
   70SOL    HW2  233   0.949   1.445   1.234
   71SOL     OW  234   1.351   0.590   1.433
   71SOL    HW1  235   1.379   0.547   1.518
   71SOL    HW2  236   1.376   0.686   1.434
   72SOL     OW  237   0.803   1.402   0.924
   72SOL    HW1  238   0.893   1.416   0.882
   72SOL    HW2  239   0.732   1.404   0.853
   73SOL     OW  240   0.922   0.503   0.899
   73SOL    HW1  241   0.897   0.494   0.803
   73SOL    HW2  242   0.970   0.421   0.930
   74SOL     OW  243   0.539   0.064   0.512
   74SOL    HW1  244   0.458   0.065   0.570
   74SOL    HW2  245   0.542   0.147   0.457
   75SOL     OW  246   1.434   1.188   0.041
   75SOL    HW1  247   1.466   1.112   0.098
   75SOL    HW2  248   1.342   1.215   0.071
   76SOL     OW  249   0.297   0.035   0.171
   76SOL    HW1  250   0.346   0.119   0.150
   76SOL    HW2  251   0.359  -0.030   0.216
   77SOL     OW  252   0.935   0.236   0.480
   77SOL    HW1  253   0.887   0.277   0.402
   77SOL    HW2  254   1.034   0.234   0.461
   78SOL     OW  255   1.076   0.683   1.464
   78SOL    HW1  256   0.996   0.622   1.467
   78SOL    HW2  257   1.157   0.630   1.440
   79SOL     OW  258   1.227   1.570   0.793
   79SOL    HW1  259   1.248   1.644   0.728
   79SOL    HW2  260   1.295   1.570   0.866
   80SOL     OW  261   0.459   1.152   0.741
   80SOL    HW1  262   0.388   1.125   0.806
   80SOL    HW2  263   0.433   1.124   0.648
   81SOL     OW  264   1.271   1.797   0.591
   81SOL    HW1  265   1.315   1.861   0.527
   81SOL    HW2  266   1.221   1.849   0.661
   82SOL     OW  267   1.032   0.549   0.016
   82SOL    HW1  268   0.991   0.631  -0.023
   82SOL    HW2  269   1.096   0.575   0.089
   83SOL     OW  270   0.078   0.556   1.386
   83SOL    HW1  271   0.170   0.555   1.345
   83SOL    HW2  272   0.072   0.630   1.453
   84SOL     OW  273   0.561   0.222   1.147
   84SOL    HW1  274   0.599   0.138   1.184
   84SOL    HW2  275   0.473   0.241   1.191
   85SOL     OW  276   0.866   0.454   0.642
   85SOL    HW1  277   0.834   0.526   0.580
   85SOL    HW2  278   0.890   0.373   0.589
   86SOL     OW  279   1.017   0.039   0.753
   86SOL    HW1  280   0.945   0.044   0.684
   86SOL    HW2  281   0.993  -0.030   0.822
   87SOL     OW  282   1.429   1.173   0.867
   87SOL    HW1  283   1.374   1.089   0.860
   87SOL    HW2  284   1.455   1.202   0.775
   88SOL     OW  285   1.466   0.590   0.992
   88SOL    HW1  286   1.436   0.495   0.999
   88SOL    HW2  287   1.539   0.606   1.058
   89SOL     OW  288   1.857   0.833   0.377
   89SOL    HW1  289   1.899   0.769   0.441
   89SOL    HW2  290   1.819   0.782   0.299
   90SOL     OW  291   0.488   1.385   0.174
   90SOL    HW1  292   0.401   1.370   0.221
   90SOL    HW2  293   0.471   1.411   0.079
   91SOL     OW  294   1.664   1.280   0.657
   91SOL    HW1  295   1.763   1.288   0.671
   91SOL    HW2  296   1.619   1.364   0.688
   92SOL     OW  297   1.390   0.575   0.078
   92SOL    HW1  298   1.336   0.554   0.159
   92SOL    HW2  299   1.481   0.534   0.087
   93SOL     OW  300   0.527   0.256   0.328
   93SOL    HW1  301   0.554   0.197   0.253
   93SOL    HW2  302   0.527   0.351   0.297
   94SOL     OW  303   1.754   1.223   1.588
   94SOL    HW1  304   1.845   1.184   1.575
   94SOL    HW2  305   1.762   1.319   1.612
   95SOL     OW  306   1.064   1.347   1.340
   95SOL    HW1  307   0.984   1.324   1.395
   95SOL    HW2  308   1.147   1.321   1.389
   96SOL     OW  309   1.111   1.195   1.100
   96SOL    HW1  310   1.071   1.239   1.181
   96SOL    HW2  311   1.070   1.232   1.017
   97SOL     OW  312   1.638   1.099   1.079
   97SOL    HW1  313   1.643   1.180   1.138
   97SOL    HW2  314   1.552   1.101   1.028
   98SOL     OW  315   0.915   0.089   1.402
   98SOL    HW1  316   0.940   0.069   1.307
   98SOL    HW2  317   0.987   0.145   1.444
   99SOL     OW  318   0.980   1.116   1.719
   99SOL    HW1  319   0.881   1.122   1.729
   99SOL    HW2  320   1.003   1.036   1.663
  100SOL     OW  321   0.705   1.050   0.368
  100SOL    HW1  322   0.691   1.057   0.467
  100SOL    HW2  323   0.789   0.999   0.350
  101SOL     OW  324   0.410   0.813   1.251
  101SOL    HW1  325   0.496   0.825   1.301
  101SOL    HW2  326   0.368   0.726   1.278
  102SOL     OW  327   1.274   0.386   1.262
  102SOL    HW1  328   1.295   0.460   1.326
  102SOL    HW2  329   1.185   0.403   1.219
  103SOL     OW  330   0.064   1.564   1.331
  103SOL    HW1  331   0.018   1.646   1.297
  103SOL    HW2  332   0.162   1.583   1.340
  104SOL     OW  333   0.367   1.100   0.501
  104SOL    HW1  334   0.360   1.183   0.445
  104SOL    HW2  335   0.371   1.020   0.441
  105SOL     OW  336   0.566   0.537   0.865
  105SOL    HW1  337   0.578   0.603   0.791
  105SOL    HW2  338   0.612   0.571   0.948
  106SOL     OW  339   1.252   1.348   0.388
  106SOL    HW1  340   1.302   1.425   0.428
  106SOL    HW2  341   1.157   1.350   0.420
  107SOL     OW  342   1.272   1.445   1.142
  107SOL    HW1  343   1.319   1.458   1.229
  107SOL    HW2  344   1.206   1.371   1.151
  108SOL     OW  345   1.582   0.639   0.472
  108SOL    HW1  346   1.551   0.700   0.545
  108SOL    HW2  347   1.632   0.691   0.403
  109SOL     OW  348   0.354   1.510   1.329
  109SOL    HW1  349   0.333   1.466   1.242
  109SOL    HW2  350   0.451   1.536   1.332
  110SOL     OW  351   0.402   0.751   1.598
  110SOL    HW1  352   0.470   0.806   1.551
  110SOL    HW2  353   0.442   0.663   1.625
  111SOL     OW  354   1.587   0.779   1.670
  111SOL    HW1  355   1.495   0.817   1.665
  111SOL    HW2  356   1.647   0.826   1.605
  112SOL     OW  357   1.013   0.105   1.770
  112SOL    HW1  358   1.019   0.190   1.718
  112SOL    HW2  359   1.045   0.029   1.713
  113SOL     OW  360   0.504   0.050   1.740
  113SOL    HW1  361   0.462  -0.007   1.670
  113SOL    HW2  362   0.438   0.119   1.772
  114SOL     OW  363   0.573   0.870   1.029
  114SOL    HW1  364   0.617   0.959   1.020
  114SOL    HW2  365   0.510   0.870   1.106
  115SOL     OW  366   1.360   0.862   1.045
  115SOL    HW1  367   1.285   0.862   0.979
  115SOL    HW2  368   1.397   0.770   1.054
  116SOL     OW  369   1.209   0.525   0.275
  116SOL    HW1  370   1.222   0.441   0.329
  116SOL    HW2  371   1.180   0.599   0.335
  117SOL     OW  372   0.307   0.213   1.231
  117SOL    HW1  373   0.284   0.250   1.321
  117SOL    HW2  374   0.277   0.118   1.225
  118SOL     OW  375   0.037   1.310   1.282
  118SOL    HW1  376   0.090   1.261   1.350
  118SOL    HW2  377   0.059   1.408   1.287
  119SOL     OW  378   0.732   0.634   1.064
  119SOL    HW1  379   0.791   0.608   0.988
  119SOL    HW2  380   0.704   0.730   1.053
  120SOL     OW  381   1.728   0.935   1.854
  120SOL    HW1  382   1.682   0.928   1.765
  120SOL    HW2  383   1.666   0.979   1.920
  121SOL     OW  384   0.307   0.063   0.618
  121SOL    HW1  385   0.296   0.157   0.651
  121SOL    HW2  386   0.302   0.000   0.695
  122SOL     OW  387   1.622   0.367   0.374
  122SOL    HW1  388   1.624   0.291   0.438
  122SOL    HW2  389   1.574   0.444   0.414
  123SOL     OW  390   1.023   0.766   0.966
  123SOL    HW1  391   1.038   0.787   1.062
  123SOL    HW2  392   0.993   0.671   0.957
  124SOL     OW  393   0.980   1.573   1.700
  124SOL    HW1  394   0.960   1.617   1.612
  124SOL    HW2  395   1.019   1.482   1.684
  125SOL     OW  396   1.859   1.518   1.605
  125SOL    HW1  397   1.873   1.545   1.510
  125SOL    HW2  398   1.942   1.540   1.658
  126SOL     OW  399   0.350   0.898   1.804
  126SOL    HW1  400   0.426   0.942   1.852
  126SOL    HW2  401   0.385   0.851   1.722
  127SOL     OW  402   1.540   0.274   0.125
  127SOL    HW1  403   1.479   0.199   0.148
  127SOL    HW2  404   1.562   0.326   0.208
  128SOL     OW  405   1.303   0.838   0.042
  128SOL    HW1  406   1.337   0.745   0.057
  128SOL    HW2  407   1.321   0.865  -0.053
  129SOL     OW  408   1.068   1.333   0.849
  129SOL    HW1  409   1.075   1.249   0.794
  129SOL    HW2  410   1.130   1.402   0.813
  130SOL     OW  411   0.319   0.810   0.949
  130SOL    HW1  412   0.412   0.846   0.954
  130SOL    HW2  413   0.313   0.725   1.001
  131SOL     OW  414   0.339   0.509   1.006
  131SOL    HW1  415   0.287   0.426   0.989
  131SOL    HW2  416   0.416   0.514   0.942
  132SOL     OW  417   1.138   0.380   1.678
  132SOL    HW1  418   1.093   0.443   1.742
  132SOL    HW2  419   1.231   0.411   1.661
  133SOL     OW  420   1.160   0.207   1.477
  133SOL    HW1  421   1.160   0.271   1.554
  133SOL    HW2  422   1.188   0.255   1.394
  134SOL     OW  423   0.008   1.326   0.200
  134SOL    HW1  424  -0.085   1.347   0.169
  134SOL    HW2  425   0.018   1.227   0.213
  135SOL     OW  426   0.088   1.801   0.927
  135SOL    HW1  427   0.046   1.715   0.900
  135SOL    HW2  428   0.182   1.804   0.893
  136SOL     OW  429   0.504   1.568   0.910
  136SOL    HW1  430   0.570   1.642   0.919
  136SOL    HW2  431   0.548   1.489   0.868
  137SOL     OW  432   1.002   0.796   1.238
  137SOL    HW1  433   1.043   0.764   1.324
  137SOL    HW2  434   0.906   0.769   1.235
  138SOL     OW  435   0.040   0.544   1.114
  138SOL    HW1  436   0.125   0.511   1.073
  138SOL    HW2  437   0.053   0.559   1.212
  139SOL     OW  438   0.189   0.520   1.722
  139SOL    HW1  439   0.248   0.480   1.652
  139SOL    HW2  440   0.131   0.591   1.681
  140SOL     OW  441   1.369   0.950   1.660
  140SOL    HW1  442   1.408   1.039   1.680
  140SOL    HW2  443   1.379   0.930   1.563
  141SOL     OW  444   0.815   0.572   0.325
  141SOL    HW1  445   0.822   0.483   0.279
  141SOL    HW2  446   0.721   0.606   0.317
  142SOL     OW  447   1.657   0.604   1.206
  142SOL    HW1  448   1.619   0.535   1.268
  142SOL    HW2  449   1.739   0.568   1.162
  143SOL     OW  450   0.252   1.564   1.744
  143SOL    HW1  451   0.222   1.621   1.820
  143SOL    HW2  452   0.245   1.467   1.770
  144SOL     OW  453   0.671   0.464   1.269
  144SOL    HW1  454   0.637   0.375   1.239
  144SOL    HW2  455   0.697   0.518   1.189
  145SOL     OW  456   0.930   1.678   1.465
  145SOL    HW1  457   0.906   1.660   1.370
  145SOL    HW2  458   0.960   1.772   1.475
  146SOL     OW  459   0.473   0.500   0.191
  146SOL    HW1  460   0.534   0.580   0.195
  146SOL    HW2  461   0.378   0.531   0.198
  147SOL     OW  462   0.159   1.137   1.466
  147SOL    HW1  463   0.181   1.076   1.542
  147SOL    HW2  464   0.169   1.088   1.380
  148SOL     OW  465   1.347   1.059   1.234
  148SOL    HW1  466   1.371   0.996   1.160
  148SOL    HW2  467   1.257   1.099   1.216
  149SOL     OW  468   1.302   0.855   0.309
  149SOL    HW1  469   1.216   0.824   0.351
  149SOL    HW2  470   1.298   0.841   0.210
  150SOL     OW  471   1.759   1.747   1.154
  150SOL    HW1  472   1.820   1.777   1.081
  150SOL    HW2  473   1.721   1.658   1.132
  151SOL     OW  474   1.252   1.731   1.128
  151SOL    HW1  475   1.336   1.736   1.074
  151SOL    HW2  476   1.229   1.635   1.146
  152SOL     OW  477   0.083   1.258   1.022
  152SOL    HW1  478   0.078   1.257   1.122
  152SOL    HW2  479   0.000   1.217   0.984
  153SOL     OW  480   0.688   1.662   1.716
  153SOL    HW1  481   0.632   1.743   1.725
  153SOL    HW2  482   0.740   1.666   1.630
  154SOL     OW  483   0.903   0.086   0.133
  154SOL    HW1  484   0.954   0.087   0.047
  154SOL    HW2  485   0.959   0.044   0.204
  155SOL     OW  486   1.726   0.135   0.523
  155SOL    HW1  487   1.799   0.118   0.456
  155SOL    HW2  488   1.695   0.048   0.561
  156SOL     OW  489   1.388   1.573   0.477
  156SOL    HW1  490   1.455   1.585   0.403
  156SOL    HW2  491   1.348   1.662   0.500
  157SOL     OW  492   0.130   1.794   1.851
  157SOL    HW1  493   0.089   1.720   1.904
  157SOL    HW2  494   0.194   1.845   1.909
  158SOL     OW  495   1.280   0.927   0.672
  158SOL    HW1  496   1.340   0.846   0.674
  158SOL    HW2  497   1.320   0.996   0.612
  159SOL     OW  498   0.830   1.273   1.422
  159SOL    HW1  499   0.825   1.306   1.517
  159SOL    HW2  500   0.744   1.292   1.376
  160SOL     OW  501   0.672   1.616   0.154
  160SOL    HW1  502   0.681   1.626   0.055
  160SOL    HW2  503   0.632   1.527   0.175
  161SOL     OW  504   1.841   0.175   0.963
  161SOL    HW1  505   1.880   0.090   0.927
  161SOL    HW2  506   1.743   0.177   0.944
  162SOL     OW  507   0.263   0.326   0.720
  162SOL    HW1  508   0.184   0.377   0.686
  162SOL    HW2  509   0.254   0.311   0.818
  163SOL     OW  510   1.194   1.612   0.031
  163SOL    HW1  511   1.200   1.519   0.068
  163SOL    HW2  512   1.135   1.612  -0.049
  164SOL     OW  513   0.822   1.002   1.372
  164SOL    HW1  514   0.862   1.001   1.280
  164SOL    HW2  515   0.832   1.094   1.412
  165SOL     OW  516   0.916   0.910   0.291
  165SOL    HW1  517   0.979   0.948   0.223
  165SOL    HW2  518   0.956   0.827   0.330
  166SOL     OW  519   1.504   1.607   0.044
  166SOL    HW1  520   1.412   1.644   0.051
  166SOL    HW2  521   1.542   1.627  -0.046
  167SOL     OW  522   0.372   1.288   1.490
  167SOL    HW1  523   0.359   1.381   1.456
  167SOL    HW2  524   0.288   1.236   1.477
  168SOL     OW  525   1.039   1.098   0.696
  168SOL    HW1  526   0.969   1.051   0.750
  168SOL    HW2  527   1.098   1.030   0.653
  169SOL     OW  528   1.014   0.236   0.971
  169SOL    HW1  529   1.006   0.200   0.878
  169SOL    HW2  530   1.012   0.160   1.036
  170SOL     OW  531   0.590   1.487   0.491
  170SOL    HW1  532   0.632   1.429   0.421
  170SOL    HW2  533   0.546   1.566   0.447
  171SOL     OW  534   1.709   0.385   1.381
  171SOL    HW1  535   1.782   0.454   1.385
  171SOL    HW2  536   1.737   0.310   1.322
  172SOL     OW  537   0.255   1.348   0.290
  172SOL    HW1  538   0.159   1.349   0.263
  172SOL    HW2  539   0.267   1.401   0.374
  173SOL     OW  540   0.105   1.013   1.726
  173SOL    HW1  541   0.028   0.980   1.780
  173SOL    HW2  542   0.190   0.983   1.768
  174SOL     OW  543   0.672   0.203   1.489
  174SOL    HW1  544   0.762   0.187   1.449
  174SOL    HW2  545   0.680   0.208   1.588
  175SOL     OW  546   0.075   0.345   0.033
  175SOL    HW1  547  -0.017   0.317   0.004
  175SOL    HW2  548   0.106   0.422  -0.023
  176SOL     OW  549   1.440   0.856   1.398
  176SOL    HW1  550   1.383   0.908   1.335
  176SOL    HW2  551   1.536   0.868   1.374
  177SOL     OW  552   0.072   0.166   0.318
  177SOL    HW1  553   0.055   0.249   0.264
  177SOL    HW2  554   0.162   0.129   0.296
  178SOL     OW  555   1.183   1.335   0.119
  178SOL    HW1  556   1.084   1.324   0.121
  178SOL    HW2  557   1.217   1.350   0.212
  179SOL     OW  558   0.613   0.842   1.431
  179SOL    HW1  559   0.669   0.923   1.414
  179SOL    HW2  560   0.672   0.762   1.434
  180SOL     OW  561   1.493   1.767   0.959
  180SOL    HW1  562   1.526   1.831   0.890
  180SOL    HW2  563   1.559   1.761   1.034
  181SOL     OW  564   0.716   0.565   1.708
  181SOL    HW1  565   0.735   0.630   1.782
  181SOL    HW2  566   0.776   0.485   1.717
  182SOL     OW  567   1.450   1.220   1.633
  182SOL    HW1  568   1.441   1.210   1.732
  182SOL    HW2  569   1.546   1.213   1.607
  183SOL     OW  570   0.390   1.741   1.560
  183SOL    HW1  571   0.299   1.782   1.558
  183SOL    HW2  572   0.383   1.647   1.592
  184SOL     OW  573   1.674   0.883   1.254
  184SOL    HW1  574   1.647   0.794   1.217
  184SOL    HW2  575   1.675   0.951   1.181
  185SOL     OW  576   1.225   0.325   0.449
  185SOL    HW1  577   1.290   0.251   0.438
  185SOL    HW2  578   1.245   0.375   0.533
  186SOL     OW  579   0.594   0.745   0.652
  186SOL    HW1  580   0.644   0.830   0.633
  186SOL    HW2  581   0.506   0.747   0.604
  187SOL     OW  582   1.777   0.342   1.642
  187SOL    HW1  583   1.760   0.373   1.548
  187SOL    HW2  584   1.693   0.305   1.680
  188SOL     OW  585   1.730   0.934   1.517
  188SOL    HW1  586   1.768   1.025   1.532
  188SOL    HW2  587   1.722   0.917   1.418
  189SOL     OW  588   0.859   1.374   0.016
  189SOL    HW1  589   0.813   1.389   0.104
  189SOL    HW2  590   0.903   1.459  -0.014
  190SOL     OW  591   0.661   1.790   0.953
  190SOL    HW1  592   0.615   1.878   0.940
  190SOL    HW2  593   0.760   1.802   0.946
  191SOL     OW  594   0.859   0.956   0.861
  191SOL    HW1  595   0.913   0.887   0.909
  191SOL    HW2  596   0.827   1.025   0.927
  192SOL     OW  597   1.083   0.984   0.087
  192SOL    HW1  598   1.060   1.037   0.005
  192SOL    HW2  599   1.164   0.928   0.068
  193SOL     OW  600   1.861   1.569   0.851
  193SOL    HW1  601   1.790   1.557   0.781
  193SOL    HW2  602   1.862   1.490   0.911
  194SOL     OW  603   0.221   1.314   1.844
  194SOL    HW1  604   0.156   1.241   1.823
  194SOL    HW2  605   0.225   1.328   1.942
  195SOL     OW  606   0.079   1.240   0.653
  195SOL    HW1  607   0.078   1.193   0.741
  195SOL    HW2  608   0.161   1.212   0.602
  196SOL     OW  609   0.672   1.391   1.624
  196SOL    HW1  610   0.594   1.341   1.662
  196SOL    HW2  611   0.669   1.486   1.655
  197SOL     OW  612   1.824   0.192   1.227
  197SOL    HW1  613   1.820   0.102   1.271
  197SOL    HW2  614   1.827   0.181   1.128
  198SOL     OW  615   0.428   0.424   0.520
  198SOL    HW1  616   0.458   0.352   0.458
  198SOL    HW2  617   0.389   0.384   0.603
  199SOL     OW  618   0.317   0.547   1.280
  199SOL    HW1  619   0.355   0.488   1.352
  199SOL    HW2  620   0.357   0.521   1.192
  200SOL     OW  621   0.812   1.586   0.687
  200SOL    HW1  622   0.844   1.596   0.593
  200SOL    HW2  623   0.733   1.524   0.689
  201SOL     OW  624   1.424   0.214   1.112
  201SOL    HW1  625   1.476   0.149   1.167
  201SOL    HW2  626   1.375   0.277   1.173
  202SOL     OW  627   1.001   0.034   1.154
  202SOL    HW1  628   0.938  -0.038   1.123
  202SOL    HW2  629   1.094  -0.002   1.154
  203SOL     OW  630   0.770   1.330   0.301
  203SOL    HW1  631   0.724   1.243   0.318
  203SOL    HW2  632   0.861   1.327   0.342
  204SOL     OW  633   0.618   1.567   1.284
  204SOL    HW1  634   0.613   1.649   1.341
  204SOL    HW2  635   0.707   1.564   1.239
  205SOL     OW  636   1.352   0.052   0.168
  205SOL    HW1  637   1.387   0.011   0.084
  205SOL    HW2  638   1.262   0.014   0.188
  206SOL     OW  639   1.300   0.453   0.691
  206SOL    HW1  640   1.241   0.533   0.695
  206SOL    HW2  641   1.315   0.418   0.784
  207SOL     OW  642   1.593   0.221   0.882
  207SOL    HW1  643   1.509   0.220   0.936
  207SOL    HW2  644   1.595   0.304   0.826
  208SOL     OW  645   0.039   1.077   0.300
  208SOL    HW1  646   0.138   1.066   0.291
  208SOL    HW2  647  -0.001   0.991   0.332
  209SOL     OW  648   0.875   1.646   0.337
  209SOL    HW1  649   0.798   1.611   0.283
  209SOL    HW2  650   0.843   1.717   0.399
  210SOL     OW  651   0.230   0.628   1.975
  210SOL    HW1  652   0.137   0.626   2.012
  210SOL    HW2  653   0.231   0.589   1.883
  211SOL     OW  654   0.225   0.275   2.858
  211SOL    HW1  655   0.260   0.258   2.950
  211SOL    HW2  656   0.137   0.230   2.846
  212SOL     OW  657   0.019   0.368   2.509
  212SOL    HW1  658  -0.063   0.411   2.548
  212SOL    HW2  659  -0.009   0.295   2.446
  213SOL     OW  660   0.569   1.275   3.027
  213SOL    HW1  661   0.476   1.268   2.990
  213SOL    HW2  662   0.580   1.364   3.071
  214SOL     OW  663   1.555   1.511   2.565
  214SOL    HW1  664   1.498   1.495   2.646
  214SOL    HW2  665   1.496   1.521   2.485
  215SOL     OW  666   1.135   0.703   2.579
  215SOL    HW1  667   1.192   0.781   2.554
  215SOL    HW2  668   1.075   0.729   2.655
  216SOL     OW  669   1.755   0.607   2.093
  216SOL    HW1  670   1.743   0.594   1.994
  216SOL    HW2  671   1.725   0.526   2.142
  217SOL     OW  672   0.768   1.144   2.885
  217SOL    HW1  673   0.690   1.161   2.945
  217SOL    HW2  674   0.802   1.231   2.849
  218SOL     OW  675   0.685   1.012   2.527
  218SOL    HW1  676   0.754   0.996   2.597
  218SOL    HW2  677   0.612   1.069   2.565
  219SOL     OW  678   0.335   1.435   2.923
  219SOL    HW1  679   0.257   1.404   2.870
  219SOL    HW2  680   0.393   1.493   2.866
  220SOL     OW  681   1.603   0.447   2.599
  220SOL    HW1  682   1.529   0.493   2.549
  220SOL    HW2  683   1.654   0.515   2.652
  221SOL     OW  684   0.231   1.713   2.345
  221SOL    HW1  685   0.265   1.790   2.399
  221SOL    HW2  686   0.275   1.713   2.255
  222SOL     OW  687   0.230   1.434   2.400
  222SOL    HW1  688   0.204   1.530   2.400
  222SOL    HW2  689   0.159   1.380   2.445
  223SOL     OW  690   0.240   1.091   2.748
  223SOL    HW1  691   0.254   1.007   2.800
  223SOL    HW2  692   0.185   1.155   2.803
  224SOL     OW  693   0.606   0.964   1.985
  224SOL    HW1  694   0.613   1.048   1.931
  224SOL    HW2  695   0.652   0.977   2.073
  225SOL     OW  696   0.122   0.643   2.425
  225SOL    HW1  697   0.077   0.555   2.442
  225SOL    HW2  698   0.121   0.697   2.509
  226SOL     OW  699   1.842   1.767   2.221
  226SOL    HW1  700   1.896   1.738   2.301
  226SOL    HW2  701   1.872   1.857   2.192
  227SOL     OW  702   0.027   1.596   1.979
  227SOL    HW1  703   0.008   1.500   2.000
  227SOL    HW2  704  -0.006   1.654   2.054
  228SOL     OW  705   1.689   0.922   2.474
  228SOL    HW1  706   1.784   0.893   2.482
  228SOL    HW2  707   1.681   0.987   2.399
  229SOL     OW  708   1.641   1.108   2.294
  229SOL    HW1  709   1.727   1.110   2.242
  229SOL    HW2  710   1.655   1.155   2.382
  230SOL     OW  711   0.613   1.365   2.588
  230SOL    HW1  712   0.564   1.278   2.597
  230SOL    HW2  713   0.590   1.408   2.501
  231SOL     OW  714   0.809   0.004   2.364
  231SOL    HW1  715   0.849   0.095   2.355
  231SOL    HW2  716   0.709   0.012   2.370
  232SOL     OW  717   0.197   0.976   3.126
  232SOL    HW1  718   0.286   0.931   3.112
  232SOL    HW2  719   0.124   0.911   3.107
  233SOL     OW  720   1.525   0.999   2.052
  233SOL    HW1  721   1.462   0.923   2.065
  233SOL    HW2  722   1.573   1.017   2.138
  234SOL     OW  723   1.466   1.417   2.815
  234SOL    HW1  724   1.407   1.423   2.895
  234SOL    HW2  725   1.451   1.329   2.769
  235SOL     OW  726   1.667   1.714   2.434
  235SOL    HW1  727   1.626   1.691   2.346
  235SOL    HW2  728   1.649   1.640   2.499
  236SOL     OW  729   0.598   0.729   2.132
  236SOL    HW1  730   0.622   0.798   2.064
  236SOL    HW2  731   0.520   0.762   2.186
  237SOL     OW  732   1.281   0.345   2.806
  237SOL    HW1  733   1.195   0.295   2.793
  237SOL    HW2  734   1.343   0.291   2.862
  238SOL     OW  735   1.576   1.662   2.169
  238SOL    HW1  736   1.665   1.708   2.172
  238SOL    HW2  737   1.555   1.638   2.074
  239SOL     OW  738   1.041   0.701   2.291
  239SOL    HW1  739   1.067   0.697   2.387
  239SOL    HW2  740   0.956   0.650   2.277
  240SOL     OW  741   0.076   0.811   2.651
  240SOL    HW1  742   0.175   0.799   2.660
  240SOL    HW2  743   0.052   0.906   2.672
  241SOL     OW  744   0.130   1.821   3.433
  241SOL    HW1  745   0.120   1.806   3.532
  241SOL    HW2  746   0.044   1.857   3.397
  242SOL     OW  747   0.865   0.348   2.057
  242SOL    HW1  748   0.924   0.411   2.008
  242SOL    HW2  749   0.884   0.254   2.028
  243SOL     OW  750   1.362   1.144   2.407
  243SOL    HW1  751   1.445   1.115   2.359
  243SOL    HW2  752   1.313   1.211   2.351
  244SOL     OW  753   0.550   0.196   2.747
  244SOL    HW1  754   0.545   0.191   2.847
  244SOL    HW2  755   0.552   0.292   2.718
  245SOL     OW  756   1.008   1.456   2.339
  245SOL    HW1  757   0.962   1.528   2.287
  245SOL    HW2  758   1.004   1.476   2.437
  246SOL     OW  759   0.351   1.801   2.715
  246SOL    HW1  760   0.401   1.715   2.721
  246SOL    HW2  761   0.416   1.878   2.712
  247SOL     OW  762   1.795   1.066   2.735
  247SOL    HW1  763   1.733   1.051   2.659
  247SOL    HW2  764   1.743   1.077   2.820
  248SOL     OW  765   0.321   0.943   2.104
  248SOL    HW1  766   0.403   0.982   2.062
  248SOL    HW2  767   0.294   0.861   2.055
  249SOL     OW  768   1.458   0.735   2.590
  249SOL    HW1  769   1.453   0.670   2.665
  249SOL    HW2  770   1.538   0.794   2.603
  250SOL     OW  771   1.632   1.377   1.943
  250SOL    HW1  772   1.600   1.471   1.933
  250SOL    HW2  773   1.556   1.314   1.931
  251SOL     OW  774   0.464   1.743   2.185
  251SOL    HW1  775   0.497   1.782   2.271
  251SOL    HW2  776   0.540   1.736   2.120
  252SOL     OW  777   1.400   0.107   2.288
  252SOL    HW1  778   1.376   0.070   2.198
  252SOL    HW2  779   1.499   0.123   2.292
  253SOL     OW  780   0.249   1.785   3.103
  253SOL    HW1  781   0.306   1.720   3.153
  253SOL    HW2  782   0.233   1.752   3.010
  254SOL     OW  783   0.940   1.698   2.766
  254SOL    HW1  784   1.020   1.641   2.787
  254SOL    HW2  785   0.891   1.658   2.689
  255SOL     OW  786   0.382   0.700   2.342
  255SOL    HW1  787   0.427   0.610   2.339
  255SOL    HW2  788   0.288   0.689   2.375
  256SOL     OW  789   0.614   0.122   1.979
  256SOL    HW1  790   0.712   0.100   1.986
  256SOL    HW2  791   0.583   0.105   1.886
  257SOL     OW  792   0.803   1.402   2.786
  257SOL    HW1  793   0.893   1.416   2.744
  257SOL    HW2  794   0.732   1.404   2.715
  258SOL     OW  795   0.922   0.503   2.761
  258SOL    HW1  796   0.897   0.494   2.665
  258SOL    HW2  797   0.970   0.421   2.792
  259SOL     OW  798   0.539   0.064   2.374
  259SOL    HW1  799   0.458   0.065   2.432
  259SOL    HW2  800   0.542   0.147   2.319
  260SOL     OW  801   1.434   1.188   1.903
  260SOL    HW1  802   1.466   1.112   1.960
  260SOL    HW2  803   1.342   1.215   1.933
  261SOL     OW  804   0.297   0.035   2.033
  261SOL    HW1  805   0.346   0.119   2.012
  261SOL    HW2  806   0.359  -0.030   2.078
  262SOL     OW  807   0.935   0.236   2.342
  262SOL    HW1  808   0.887   0.277   2.264
  262SOL    HW2  809   1.034   0.234   2.323
  263SOL     OW  810   1.227   1.570   2.655
  263SOL    HW1  811   1.248   1.644   2.590
  263SOL    HW2  812   1.295   1.570   2.728
  264SOL     OW  813   0.459   1.152   2.603
  264SOL    HW1  814   0.388   1.125   2.668
  264SOL    HW2  815   0.433   1.124   2.510
  265SOL     OW  816   1.271   1.797   2.453
  265SOL    HW1  817   1.315   1.861   2.389
  265SOL    HW2  818   1.221   1.849   2.523
  266SOL     OW  819   1.032   0.549   1.878
  266SOL    HW1  820   0.991   0.631   1.839
  266SOL    HW2  821   1.096   0.575   1.951
  267SOL     OW  822   0.561   0.222   3.009
  267SOL    HW1  823   0.599   0.138   3.046
  267SOL    HW2  824   0.473   0.241   3.053
  268SOL     OW  825   0.866   0.454   2.504
  268SOL    HW1  826   0.834   0.526   2.442
  268SOL    HW2  827   0.890   0.373   2.451
  269SOL     OW  828   1.017   0.039   2.615
  269SOL    HW1  829   0.945   0.044   2.546
  269SOL    HW2  830   0.993  -0.030   2.684
  270SOL     OW  831   1.429   1.173   2.729
  270SOL    HW1  832   1.374   1.089   2.722
  270SOL    HW2  833   1.455   1.202   2.637
  271SOL     OW  834   1.466   0.590   2.854
  271SOL    HW1  835   1.436   0.495   2.861
  271SOL    HW2  836   1.539   0.606   2.920
  272SOL     OW  837   1.857   0.833   2.239
  272SOL    HW1  838   1.899   0.769   2.303
  272SOL    HW2  839   1.819   0.782   2.161
  273SOL     OW  840   0.488   1.385   2.036
  273SOL    HW1  841   0.401   1.370   2.083
  273SOL    HW2  842   0.471   1.411   1.941
  274SOL     OW  843   1.664   1.280   2.519
  274SOL    HW1  844   1.763   1.288   2.533
  274SOL    HW2  845   1.619   1.364   2.550
  275SOL     OW  846   1.390   0.575   1.940
  275SOL    HW1  847   1.336   0.554   2.021
  275SOL    HW2  848   1.481   0.534   1.949
  276SOL     OW  849   0.527   0.256   2.190
  276SOL    HW1  850   0.554   0.197   2.115
  276SOL    HW2  851   0.527   0.351   2.159
  277SOL     OW  852   1.111   1.195   2.962
  277SOL    HW1  853   1.071   1.239   3.043
  277SOL    HW2  854   1.070   1.232   2.879
  278SOL     OW  855   1.638   1.099   2.941
  278SOL    HW1  856   1.643   1.180   3.000
  278SOL    HW2  857   1.552   1.101   2.890
  279SOL     OW  858   0.705   1.050   2.230
  279SOL    HW1  859   0.691   1.057   2.329
  279SOL    HW2  860   0.789   0.999   2.212
  280SOL     OW  861   0.410   0.813   3.113
  280SOL    HW1  862   0.496   0.825   3.163
  280SOL    HW2  863   0.368   0.726   3.140
  281SOL     OW  864   1.274   0.386   3.124
  281SOL    HW1  865   1.295   0.460   3.188
  281SOL    HW2  866   1.185   0.403   3.081
  282SOL     OW  867   0.367   1.100   2.363
  282SOL    HW1  868   0.360   1.183   2.307
  282SOL    HW2  869   0.371   1.020   2.303
  283SOL     OW  870   0.566   0.537   2.727
  283SOL    HW1  871   0.578   0.603   2.653
  283SOL    HW2  872   0.612   0.571   2.810
  284SOL     OW  873   1.252   1.348   2.250
  284SOL    HW1  874   1.302   1.425   2.290
  284SOL    HW2  875   1.157   1.350   2.282
  285SOL     OW  876   1.272   1.445   3.004
  285SOL    HW1  877   1.319   1.458   3.091
  285SOL    HW2  878   1.206   1.371   3.013
  286SOL     OW  879   1.582   0.639   2.334
  286SOL    HW1  880   1.551   0.700   2.407
  286SOL    HW2  881   1.632   0.691   2.265
  287SOL     OW  882   0.573   0.870   2.891
  287SOL    HW1  883   0.617   0.959   2.882
  287SOL    HW2  884   0.510   0.870   2.968
  288SOL     OW  885   1.360   0.862   2.907
  288SOL    HW1  886   1.285   0.862   2.841
  288SOL    HW2  887   1.397   0.770   2.916
  289SOL     OW  888   1.209   0.525   2.137
  289SOL    HW1  889   1.222   0.441   2.191
  289SOL    HW2  890   1.180   0.599   2.197
  290SOL     OW  891   0.307   0.213   3.093
  290SOL    HW1  892   0.284   0.250   3.183
  290SOL    HW2  893   0.277   0.118   3.087
  291SOL     OW  894   0.037   1.310   3.144
  291SOL    HW1  895   0.090   1.261   3.212
  291SOL    HW2  896   0.059   1.408   3.149
  292SOL     OW  897   0.732   0.634   2.926
  292SOL    HW1  898   0.791   0.608   2.850
  292SOL    HW2  899   0.704   0.730   2.915
  293SOL     OW  900   0.307   0.063   2.480
  293SOL    HW1  901   0.296   0.157   2.513
  293SOL    HW2  902   0.302   0.000   2.557
  294SOL     OW  903   1.622   0.367   2.236
  294SOL    HW1  904   1.624   0.291   2.300
  294SOL    HW2  905   1.574   0.444   2.276
  295SOL     OW  906   1.023   0.766   2.828
  295SOL    HW1  907   1.038   0.787   2.924
  295SOL    HW2  908   0.993   0.671   2.819
  296SOL     OW  909   1.540   0.274   1.987
  296SOL    HW1  910   1.479   0.199   2.010
  296SOL    HW2  911   1.562   0.326   2.070
  297SOL     OW  912   1.303   0.838   1.904
  297SOL    HW1  913   1.337   0.745   1.919
  297SOL    HW2  914   1.321   0.865   1.809
  298SOL     OW  915   1.068   1.333   2.711
  298SOL    HW1  916   1.075   1.249   2.656
  298SOL    HW2  917   1.130   1.402   2.675
  299SOL     OW  918   0.319   0.810   2.811
  299SOL    HW1  919   0.412   0.846   2.816
  299SOL    HW2  920   0.313   0.725   2.863
  300SOL     OW  921   0.339   0.509   2.868
  300SOL    HW1  922   0.287   0.426   2.851
  300SOL    HW2  923   0.416   0.514   2.804
  301SOL     OW  924   1.160   0.207   3.339
  301SOL    HW1  925   1.160   0.271   3.416
  301SOL    HW2  926   1.188   0.255   3.256
  302SOL     OW  927   0.008   1.326   2.062
  302SOL    HW1  928  -0.085   1.347   2.031
  302SOL    HW2  929   0.018   1.227   2.075
  303SOL     OW  930   0.088   1.801   2.789
  303SOL    HW1  931   0.046   1.715   2.762
  303SOL    HW2  932   0.182   1.804   2.755
  304SOL     OW  933   0.504   1.568   2.772
  304SOL    HW1  934   0.570   1.642   2.781
  304SOL    HW2  935   0.548   1.489   2.730
  305SOL     OW  936   1.002   0.796   3.100
  305SOL    HW1  937   1.043   0.764   3.186
  305SOL    HW2  938   0.906   0.769   3.097
  306SOL     OW  939   0.040   0.544   2.976
  306SOL    HW1  940   0.125   0.511   2.935
  306SOL    HW2  941   0.053   0.559   3.074
  307SOL     OW  942   0.815   0.572   2.187
  307SOL    HW1  943   0.822   0.483   2.141
  307SOL    HW2  944   0.721   0.606   2.179
  308SOL     OW  945   1.657   0.604   3.068
  308SOL    HW1  946   1.619   0.535   3.130
  308SOL    HW2  947   1.739   0.568   3.024
  309SOL     OW  948   0.671   0.464   3.131
  309SOL    HW1  949   0.637   0.375   3.101
  309SOL    HW2  950   0.697   0.518   3.051
  310SOL     OW  951   0.930   1.678   3.327
  310SOL    HW1  952   0.906   1.660   3.232
  310SOL    HW2  953   0.960   1.772   3.337
  311SOL     OW  954   0.473   0.500   2.053
  311SOL    HW1  955   0.534   0.580   2.057
  311SOL    HW2  956   0.378   0.531   2.060
  312SOL     OW  957   1.347   1.059   3.096
  312SOL    HW1  958   1.371   0.996   3.022
  312SOL    HW2  959   1.257   1.099   3.078
  313SOL     OW  960   1.302   0.855   2.171
  313SOL    HW1  961   1.216   0.824   2.213
  313SOL    HW2  962   1.298   0.841   2.072
  314SOL     OW  963   1.759   1.747   3.016
  314SOL    HW1  964   1.820   1.777   2.943
  314SOL    HW2  965   1.721   1.658   2.994
  315SOL     OW  966   1.252   1.731   2.990
  315SOL    HW1  967   1.336   1.736   2.936
  315SOL    HW2  968   1.229   1.635   3.008
  316SOL     OW  969   0.083   1.258   2.884
  316SOL    HW1  970   0.078   1.257   2.984
  316SOL    HW2  971   0.000   1.217   2.846
  317SOL     OW  972   1.726   0.135   2.385
  317SOL    HW1  973   1.799   0.118   2.318
  317SOL    HW2  974   1.695   0.048   2.423
  318SOL     OW  975   1.388   1.573   2.339
  318SOL    HW1  976   1.455   1.585   2.265
  318SOL    HW2  977   1.348   1.662   2.362
  319SOL     OW  978   1.280   0.927   2.534
  319SOL    HW1  979   1.340   0.846   2.536
  319SOL    HW2  980   1.320   0.996   2.474
  320SOL     OW  981   0.672   1.616   2.016
  320SOL    HW1  982   0.681   1.626   1.917
  320SOL    HW2  983   0.632   1.527   2.037
  321SOL     OW  984   1.650   1.720   3.256
  321SOL    HW1  985   1.703   1.730   3.172
  321SOL    HW2  986   1.623   1.810   3.290
  322SOL     OW  987   1.841   0.175   2.825
  322SOL    HW1  988   1.880   0.090   2.789
  322SOL    HW2  989   1.743   0.177   2.806
  323SOL     OW  990   0.263   0.326   2.582
  323SOL    HW1  991   0.184   0.377   2.548
  323SOL    HW2  992   0.254   0.311   2.680
  324SOL     OW  993   0.822   1.002   3.234
  324SOL    HW1  994   0.862   1.001   3.142
  324SOL    HW2  995   0.832   1.094   3.274
  325SOL     OW  996   0.916   0.910   2.153
  325SOL    HW1  997   0.979   0.948   2.085
  325SOL    HW2  998   0.956   0.827   2.192
  326SOL     OW  999   1.039   1.098   2.558
  326SOL    HW1 1000   0.969   1.051   2.612
  326SOL    HW2 1001   1.098   1.030   2.515
  327SOL     OW 1002   1.014   0.236   2.833
  327SOL    HW1 1003   1.006   0.200   2.740
  327SOL    HW2 1004   1.012   0.160   2.898
  328SOL     OW 1005   0.590   1.487   2.353
  328SOL    HW1 1006   0.632   1.429   2.283
  328SOL    HW2 1007   0.546   1.566   2.309
  329SOL     OW 1008   1.709   0.385   3.243
  329SOL    HW1 1009   1.782   0.454   3.247
  329SOL    HW2 1010   1.737   0.310   3.184
  330SOL     OW 1011   0.255   1.348   2.152
  330SOL    HW1 1012   0.159   1.349   2.125
  330SOL    HW2 1013   0.267   1.401   2.236
  331SOL     OW 1014   0.075   0.345   1.895
  331SOL    HW1 1015  -0.017   0.317   1.866
  331SOL    HW2 1016   0.106   0.422   1.839
  332SOL     OW 1017   0.072   0.166   2.180
  332SOL    HW1 1018   0.055   0.249   2.126
  332SOL    HW2 1019   0.162   0.129   2.158
  333SOL     OW 1020   1.183   1.335   1.981
  333SOL    HW1 1021   1.084   1.324   1.983
  333SOL    HW2 1022   1.217   1.350   2.074
  334SOL     OW 1023   1.493   1.767   2.821
  334SOL    HW1 1024   1.526   1.831   2.752
  334SOL    HW2 1025   1.559   1.761   2.896
  335SOL     OW 1026   1.674   0.883   3.116
  335SOL    HW1 1027   1.647   0.794   3.079
  335SOL    HW2 1028   1.675   0.951   3.043
  336SOL     OW 1029   1.225   0.325   2.311
  336SOL    HW1 1030   1.290   0.251   2.300
  336SOL    HW2 1031   1.245   0.375   2.395
  337SOL     OW 1032   0.594   0.745   2.514
  337SOL    HW1 1033   0.644   0.830   2.495
  337SOL    HW2 1034   0.506   0.747   2.466
  338SOL     OW 1035   1.730   0.934   3.379
  338SOL    HW1 1036   1.768   1.025   3.394
  338SOL    HW2 1037   1.722   0.917   3.280
  339SOL     OW 1038   0.859   1.374   1.878
  339SOL    HW1 1039   0.813   1.389   1.966
  339SOL    HW2 1040   0.903   1.459   1.848
  340SOL     OW 1041   0.661   1.790   2.815
  340SOL    HW1 1042   0.615   1.878   2.802
  340SOL    HW2 1043   0.760   1.802   2.808
  341SOL     OW 1044   0.859   0.956   2.723
  341SOL    HW1 1045   0.913   0.887   2.771
  341SOL    HW2 1046   0.827   1.025   2.789
  342SOL     OW 1047   1.083   0.984   1.949
  342SOL    HW1 1048   1.060   1.037   1.867
  342SOL    HW2 1049   1.164   0.928   1.930
  343SOL     OW 1050   1.861   1.569   2.713
  343SOL    HW1 1051   1.790   1.557   2.643
  343SOL    HW2 1052   1.862   1.490   2.773
  344SOL     OW 1053   0.079   1.240   2.515
  344SOL    HW1 1054   0.078   1.193   2.603
  344SOL    HW2 1055   0.161   1.212   2.464
  345SOL     OW 1056   1.824   0.192   3.089
  345SOL    HW1 1057   1.820   0.102   3.133
  345SOL    HW2 1058   1.827   0.181   2.990
  346SOL     OW 1059   0.428   0.424   2.382
  346SOL    HW1 1060   0.458   0.352   2.320
  346SOL    HW2 1061   0.389   0.384   2.465
  347SOL     OW 1062   1.705   1.487   2.966
  347SOL    HW1 1063   1.612   1.462   2.939
  347SOL    HW2 1064   1.731   1.437   3.048
  348SOL     OW 1065   0.812   1.586   2.549
  348SOL    HW1 1066   0.844   1.596   2.455
  348SOL    HW2 1067   0.733   1.524   2.551
  349SOL     OW 1068   1.424   0.214   2.974
  349SOL    HW1 1069   1.476   0.149   3.029
  349SOL    HW2 1070   1.375   0.277   3.035
  350SOL     OW 1071   1.001   0.034   3.016
  350SOL    HW1 1072   0.938  -0.038   2.985
  350SOL    HW2 1073   1.094  -0.002   3.016
  351SOL     OW 1074   0.770   1.330   2.163
  351SOL    HW1 1075   0.724   1.243   2.180
  351SOL    HW2 1076   0.861   1.327   2.204
  352SOL     OW 1077   1.352   0.052   2.030
  352SOL    HW1 1078   1.387   0.011   1.946
  352SOL    HW2 1079   1.262   0.014   2.050
  353SOL     OW 1080   1.300   0.453   2.553
  353SOL    HW1 1081   1.241   0.533   2.557
  353SOL    HW2 1082   1.315   0.418   2.646
  354SOL     OW 1083   1.593   0.221   2.744
  354SOL    HW1 1084   1.509   0.220   2.798
  354SOL    HW2 1085   1.595   0.304   2.688
  355SOL     OW 1086   0.039   1.077   2.162
  355SOL    HW1 1087   0.138   1.066   2.153
  355SOL    HW2 1088  -0.001   0.991   2.194
  356SOL     OW 1089   0.875   1.646   2.199
  356SOL    HW1 1090   0.798   1.611   2.145
  356SOL    HW2 1091   0.843   1.717   2.261
  357SOL     OW 1092   0.230   2.490   0.113
  357SOL    HW1 1093   0.137   2.488   0.150
  357SOL    HW2 1094   0.231   2.451   0.021
  358SOL     OW 1095   0.225   2.137   0.996
  358SOL    HW1 1096   0.260   2.120   1.088
  358SOL    HW2 1097   0.137   2.092   0.984
  359SOL     OW 1098   0.019   2.230   0.647
  359SOL    HW1 1099  -0.063   2.273   0.686
  359SOL    HW2 1100  -0.009   2.157   0.584
  360SOL     OW 1101   1.135   2.565   0.717
  360SOL    HW1 1102   1.192   2.643   0.692
  360SOL    HW2 1103   1.075   2.591   0.793
  361SOL     OW 1104   1.755   2.469   0.231
  361SOL    HW1 1105   1.743   2.456   0.132
  361SOL    HW2 1106   1.725   2.388   0.280
  362SOL     OW 1107   0.768   3.006   1.023
  362SOL    HW1 1108   0.690   3.023   1.083
  362SOL    HW2 1109   0.802   3.093   0.987
  363SOL     OW 1110   0.850   2.660   1.823
  363SOL    HW1 1111   0.846   2.736   1.888
  363SOL    HW2 1112   0.872   2.696   1.732
  364SOL     OW 1113   0.685   2.874   0.665
  364SOL    HW1 1114   0.754   2.858   0.735
  364SOL    HW2 1115   0.612   2.931   0.703
  365SOL     OW 1116   0.686   3.023   1.803
  365SOL    HW1 1117   0.746   3.102   1.817
  365SOL    HW2 1118   0.600   3.054   1.762
  366SOL     OW 1119   0.438   2.254   1.499
  366SOL    HW1 1120   0.520   2.198   1.508
  366SOL    HW2 1121   0.357   2.196   1.503
  367SOL     OW 1122   1.603   2.309   0.737
  367SOL    HW1 1123   1.529   2.355   0.687
  367SOL    HW2 1124   1.654   2.377   0.790
  368SOL     OW 1125   0.240   2.953   0.886
  368SOL    HW1 1126   0.254   2.869   0.938
  368SOL    HW2 1127   0.185   3.017   0.941
  369SOL     OW 1128   0.606   2.826   0.123
  369SOL    HW1 1129   0.613   2.910   0.069
  369SOL    HW2 1130   0.652   2.839   0.211
  370SOL     OW 1131   1.594   1.976   1.480
  370SOL    HW1 1132   1.576   2.043   1.408
  370SOL    HW2 1133   1.591   2.022   1.569
  371SOL     OW 1134   0.122   2.505   0.563
  371SOL    HW1 1135   0.077   2.417   0.580
  371SOL    HW2 1136   0.121   2.559   0.647
  372SOL     OW 1137   1.689   2.784   0.612
  372SOL    HW1 1138   1.784   2.755   0.620
  372SOL    HW2 1139   1.681   2.849   0.537
  373SOL     OW 1140   1.641   2.970   0.432
  373SOL    HW1 1141   1.727   2.972   0.380
  373SOL    HW2 1142   1.655   3.017   0.520
  374SOL     OW 1143   0.113   2.599   1.597
  374SOL    HW1 1144   0.201   2.586   1.642
  374SOL    HW2 1145   0.100   2.696   1.575
  375SOL     OW 1146   1.293   3.090   1.423
  375SOL    HW1 1147   1.330   3.017   1.365
  375SOL    HW2 1148   1.345   3.095   1.508
  376SOL     OW 1149   0.809   1.866   0.502
  376SOL    HW1 1150   0.849   1.957   0.493
  376SOL    HW2 1151   0.709   1.874   0.508
  377SOL     OW 1152   0.197   2.838   1.264
  377SOL    HW1 1153   0.286   2.793   1.250
  377SOL    HW2 1154   0.124   2.773   1.245
  378SOL     OW 1155   1.525   2.861   0.190
  378SOL    HW1 1156   1.462   2.785   0.203
  378SOL    HW2 1157   1.573   2.879   0.276
  379SOL     OW 1158   0.317   2.113   1.801
  379SOL    HW1 1159   0.388   2.184   1.807
  379SOL    HW2 1160   0.229   2.152   1.829
  380SOL     OW 1161   0.598   2.591   0.270
  380SOL    HW1 1162   0.622   2.660   0.202
  380SOL    HW2 1163   0.520   2.624   0.324
  381SOL     OW 1164   1.281   2.207   0.944
  381SOL    HW1 1165   1.195   2.157   0.931
  381SOL    HW2 1166   1.343   2.153   1.000
  382SOL     OW 1167   0.807   2.467   1.465
  382SOL    HW1 1168   0.760   2.464   1.554
  382SOL    HW2 1169   0.756   2.412   1.399
  383SOL     OW 1170   1.394   2.331   1.674
  383SOL    HW1 1171   1.374   2.374   1.762
  383SOL    HW2 1172   1.472   2.269   1.683
  384SOL     OW 1173   0.973   2.752   1.572
  384SOL    HW1 1174   1.019   2.668   1.543
  384SOL    HW2 1175   0.917   2.786   1.497
  385SOL     OW 1176   0.991   2.272   1.242
  385SOL    HW1 1177   0.914   2.306   1.296
  385SOL    HW2 1178   0.957   2.221   1.163
  386SOL     OW 1179   1.041   2.563   0.429
  386SOL    HW1 1180   1.067   2.559   0.525
  386SOL    HW2 1181   0.956   2.512   0.415
  387SOL     OW 1182   0.076   2.673   0.789
  387SOL    HW1 1183   0.175   2.661   0.798
  387SOL    HW2 1184   0.052   2.768   0.810
  388SOL     OW 1185   0.865   2.210   0.195
  388SOL    HW1 1186   0.924   2.273   0.146
  388SOL    HW2 1187   0.884   2.116   0.166
  389SOL     OW 1188   1.719   2.447   1.831
  389SOL    HW1 1189   1.693   2.536   1.795
  389SOL    HW2 1190   1.717   2.379   1.758
  390SOL     OW 1191   1.362   3.006   0.545
  390SOL    HW1 1192   1.445   2.977   0.497
  390SOL    HW2 1193   1.313   3.073   0.489
  391SOL     OW 1194   0.550   2.058   0.885
  391SOL    HW1 1195   0.545   2.053   0.985
  391SOL    HW2 1196   0.552   2.154   0.856
  392SOL     OW 1197   1.795   2.928   0.873
  392SOL    HW1 1198   1.733   2.913   0.797
  392SOL    HW2 1199   1.743   2.939   0.958
  393SOL     OW 1200   0.321   2.805   0.242
  393SOL    HW1 1201   0.403   2.844   0.200
  393SOL    HW2 1202   0.294   2.723   0.193
  394SOL     OW 1203   1.458   2.597   0.728
  394SOL    HW1 1204   1.453   2.532   0.803
  394SOL    HW2 1205   1.538   2.656   0.741
  395SOL     OW 1206   0.202   2.147   1.498
  395SOL    HW1 1207   0.122   2.207   1.485
  395SOL    HW2 1208   0.192   2.098   1.584
  396SOL     OW 1209   1.400   1.969   0.426
  396SOL    HW1 1210   1.376   1.932   0.336
  396SOL    HW2 1211   1.499   1.985   0.430
  397SOL     OW 1212   0.382   2.562   0.480
  397SOL    HW1 1213   0.427   2.472   0.477
  397SOL    HW2 1214   0.288   2.551   0.513
  398SOL     OW 1215   1.547   2.084   1.729
  398SOL    HW1 1216   1.542   2.121   1.821
  398SOL    HW2 1217   1.475   2.015   1.717
  399SOL     OW 1218   0.614   1.984   0.117
  399SOL    HW1 1219   0.712   1.962   0.124
  399SOL    HW2 1220   0.583   1.967   0.024
  400SOL     OW 1221   0.781   2.126   1.749
  400SOL    HW1 1222   0.848   2.065   1.792
  400SOL    HW2 1223   0.708   2.145   1.814
  401SOL     OW 1224   1.351   2.452   1.433
  401SOL    HW1 1225   1.379   2.409   1.518
  401SOL    HW2 1226   1.376   2.548   1.434
  402SOL     OW 1227   0.803   3.264   0.924
  402SOL    HW1 1228   0.893   3.278   0.882
  402SOL    HW2 1229   0.732   3.266   0.853
  403SOL     OW 1230   0.922   2.365   0.899
  403SOL    HW1 1231   0.897   2.356   0.803
  403SOL    HW2 1232   0.970   2.283   0.930
  404SOL     OW 1233   0.539   1.926   0.512
  404SOL    HW1 1234   0.458   1.927   0.570
  404SOL    HW2 1235   0.542   2.009   0.457
  405SOL     OW 1236   0.297   1.897   0.171
  405SOL    HW1 1237   0.346   1.981   0.150
  405SOL    HW2 1238   0.359   1.832   0.216
  406SOL     OW 1239   0.935   2.098   0.480
  406SOL    HW1 1240   0.887   2.139   0.402
  406SOL    HW2 1241   1.034   2.096   0.461
  407SOL     OW 1242   1.076   2.545   1.464
  407SOL    HW1 1243   0.996   2.484   1.467
  407SOL    HW2 1244   1.157   2.492   1.440
  408SOL     OW 1245   0.459   3.014   0.741
  408SOL    HW1 1246   0.388   2.987   0.806
  408SOL    HW2 1247   0.433   2.986   0.648
  409SOL     OW 1248   1.032   2.411   0.016
  409SOL    HW1 1249   0.991   2.493  -0.023
  409SOL    HW2 1250   1.096   2.437   0.089
  410SOL     OW 1251   0.078   2.418   1.386
  410SOL    HW1 1252   0.170   2.417   1.345
  410SOL    HW2 1253   0.072   2.492   1.453
  411SOL     OW 1254   0.561   2.084   1.147
  411SOL    HW1 1255   0.599   2.000   1.184
  411SOL    HW2 1256   0.473   2.103   1.191
  412SOL     OW 1257   0.866   2.316   0.642
  412SOL    HW1 1258   0.834   2.388   0.580
  412SOL    HW2 1259   0.890   2.235   0.589
  413SOL     OW 1260   1.017   1.901   0.753
  413SOL    HW1 1261   0.945   1.906   0.684
  413SOL    HW2 1262   0.993   1.832   0.822
  414SOL     OW 1263   1.429   3.035   0.867
  414SOL    HW1 1264   1.374   2.951   0.860
  414SOL    HW2 1265   1.455   3.064   0.775
  415SOL     OW 1266   1.466   2.452   0.992
  415SOL    HW1 1267   1.436   2.357   0.999
  415SOL    HW2 1268   1.539   2.468   1.058
  416SOL     OW 1269   1.857   2.695   0.377
  416SOL    HW1 1270   1.899   2.631   0.441
  416SOL    HW2 1271   1.819   2.644   0.299
  417SOL     OW 1272   1.390   2.437   0.078
  417SOL    HW1 1273   1.336   2.416   0.159
  417SOL    HW2 1274   1.481   2.396   0.087
  418SOL     OW 1275   0.527   2.118   0.328
  418SOL    HW1 1276   0.554   2.059   0.253
  418SOL    HW2 1277   0.527   2.213   0.297
  419SOL     OW 1278   1.754   3.085   1.588
  419SOL    HW1 1279   1.845   3.046   1.575
  419SOL    HW2 1280   1.762   3.181   1.612
  420SOL     OW 1281   1.638   2.961   1.079
  420SOL    HW1 1282   1.643   3.042   1.138
  420SOL    HW2 1283   1.552   2.963   1.028
  421SOL     OW 1284   0.915   1.951   1.402
  421SOL    HW1 1285   0.940   1.931   1.307
  421SOL    HW2 1286   0.987   2.007   1.444
  422SOL     OW 1287   0.980   2.978   1.719
  422SOL    HW1 1288   0.881   2.984   1.729
  422SOL    HW2 1289   1.003   2.898   1.663
  423SOL     OW 1290   0.705   2.912   0.368
  423SOL    HW1 1291   0.691   2.919   0.467
  423SOL    HW2 1292   0.789   2.861   0.350
  424SOL     OW 1293   0.410   2.675   1.251
  424SOL    HW1 1294   0.496   2.687   1.301
  424SOL    HW2 1295   0.368   2.588   1.278
  425SOL     OW 1296   1.274   2.248   1.262
  425SOL    HW1 1297   1.295   2.322   1.326
  425SOL    HW2 1298   1.185   2.265   1.219
  426SOL     OW 1299   0.367   2.962   0.501
  426SOL    HW1 1300   0.360   3.045   0.445
  426SOL    HW2 1301   0.371   2.882   0.441
  427SOL     OW 1302   0.566   2.399   0.865
  427SOL    HW1 1303   0.578   2.465   0.791
  427SOL    HW2 1304   0.612   2.433   0.948
  428SOL     OW 1305   1.582   2.501   0.472
  428SOL    HW1 1306   1.551   2.562   0.545
  428SOL    HW2 1307   1.632   2.553   0.403
  429SOL     OW 1308   0.402   2.613   1.598
  429SOL    HW1 1309   0.470   2.668   1.551
  429SOL    HW2 1310   0.442   2.525   1.625
  430SOL     OW 1311   1.587   2.641   1.670
  430SOL    HW1 1312   1.495   2.679   1.665
  430SOL    HW2 1313   1.647   2.688   1.605
  431SOL     OW 1314   1.013   1.967   1.770
  431SOL    HW1 1315   1.019   2.052   1.718
  431SOL    HW2 1316   1.045   1.891   1.713
  432SOL     OW 1317   0.504   1.912   1.740
  432SOL    HW1 1318   0.462   1.855   1.670
  432SOL    HW2 1319   0.438   1.981   1.772
  433SOL     OW 1320   0.573   2.732   1.029
  433SOL    HW1 1321   0.617   2.821   1.020
  433SOL    HW2 1322   0.510   2.732   1.106
  434SOL     OW 1323   1.360   2.724   1.045
  434SOL    HW1 1324   1.285   2.724   0.979
  434SOL    HW2 1325   1.397   2.632   1.054
  435SOL     OW 1326   1.209   2.387   0.275
  435SOL    HW1 1327   1.222   2.303   0.329
  435SOL    HW2 1328   1.180   2.461   0.335
  436SOL     OW 1329   0.307   2.075   1.231
  436SOL    HW1 1330   0.284   2.112   1.321
  436SOL    HW2 1331   0.277   1.980   1.225
  437SOL     OW 1332   0.037   3.172   1.282
  437SOL    HW1 1333   0.090   3.123   1.350
  437SOL    HW2 1334   0.059   3.270   1.287
  438SOL     OW 1335   0.732   2.496   1.064
  438SOL    HW1 1336   0.791   2.470   0.988
  438SOL    HW2 1337   0.704   2.592   1.053
  439SOL     OW 1338   1.728   2.797   1.854
  439SOL    HW1 1339   1.682   2.790   1.765
  439SOL    HW2 1340   1.666   2.841   1.920
  440SOL     OW 1341   0.307   1.925   0.618
  440SOL    HW1 1342   0.296   2.019   0.651
  440SOL    HW2 1343   0.302   1.862   0.695
  441SOL     OW 1344   1.622   2.229   0.374
  441SOL    HW1 1345   1.624   2.153   0.438
  441SOL    HW2 1346   1.574   2.306   0.414
  442SOL     OW 1347   1.023   2.628   0.966
  442SOL    HW1 1348   1.038   2.649   1.062
  442SOL    HW2 1349   0.993   2.533   0.957
  443SOL     OW 1350   0.350   2.760   1.804
  443SOL    HW1 1351   0.426   2.804   1.852
  443SOL    HW2 1352   0.385   2.713   1.722
  444SOL     OW 1353   1.540   2.136   0.125
  444SOL    HW1 1354   1.479   2.061   0.148
  444SOL    HW2 1355   1.562   2.188   0.208
  445SOL     OW 1356   1.303   2.700   0.042
  445SOL    HW1 1357   1.337   2.607   0.057
  445SOL    HW2 1358   1.321   2.727  -0.053
  446SOL     OW 1359   0.319   2.672   0.949
  446SOL    HW1 1360   0.412   2.708   0.954
  446SOL    HW2 1361   0.313   2.587   1.001
  447SOL     OW 1362   0.339   2.371   1.006
  447SOL    HW1 1363   0.287   2.288   0.989
  447SOL    HW2 1364   0.416   2.376   0.942
  448SOL     OW 1365   1.138   2.242   1.678
  448SOL    HW1 1366   1.093   2.305   1.742
  448SOL    HW2 1367   1.231   2.273   1.661
  449SOL     OW 1368   1.160   2.069   1.477
  449SOL    HW1 1369   1.160   2.133   1.554
  449SOL    HW2 1370   1.188   2.117   1.394
  450SOL     OW 1371   0.008   3.188   0.200
  450SOL    HW1 1372  -0.085   3.209   0.169
  450SOL    HW2 1373   0.018   3.089   0.213
  451SOL     OW 1374   1.002   2.658   1.238
  451SOL    HW1 1375   1.043   2.626   1.324
  451SOL    HW2 1376   0.906   2.631   1.235
  452SOL     OW 1377   0.040   2.406   1.114
  452SOL    HW1 1378   0.125   2.373   1.073
  452SOL    HW2 1379   0.053   2.421   1.212
  453SOL     OW 1380   0.189   2.382   1.722
  453SOL    HW1 1381   0.248   2.342   1.652
  453SOL    HW2 1382   0.131   2.453   1.681
  454SOL     OW 1383   1.369   2.812   1.660
  454SOL    HW1 1384   1.408   2.901   1.680
  454SOL    HW2 1385   1.379   2.792   1.563
  455SOL     OW 1386   0.815   2.434   0.325
  455SOL    HW1 1387   0.822   2.345   0.279
  455SOL    HW2 1388   0.721   2.468   0.317
  456SOL     OW 1389   1.657   2.466   1.206
  456SOL    HW1 1390   1.619   2.397   1.268
  456SOL    HW2 1391   1.739   2.430   1.162
  457SOL     OW 1392   0.671   2.326   1.269
  457SOL    HW1 1393   0.637   2.237   1.239
  457SOL    HW2 1394   0.697   2.380   1.189
  458SOL     OW 1395   0.473   2.362   0.191
  458SOL    HW1 1396   0.534   2.442   0.195
  458SOL    HW2 1397   0.378   2.393   0.198
  459SOL     OW 1398   0.159   2.999   1.466
  459SOL    HW1 1399   0.181   2.938   1.542
  459SOL    HW2 1400   0.169   2.950   1.380
  460SOL     OW 1401   1.347   2.921   1.234
  460SOL    HW1 1402   1.371   2.858   1.160
  460SOL    HW2 1403   1.257   2.961   1.216
  461SOL     OW 1404   1.302   2.717   0.309
  461SOL    HW1 1405   1.216   2.686   0.351
  461SOL    HW2 1406   1.298   2.703   0.210
  462SOL     OW 1407   0.083   3.120   1.022
  462SOL    HW1 1408   0.078   3.119   1.122
  462SOL    HW2 1409   0.000   3.079   0.984
  463SOL     OW 1410   1.726   1.997   0.523
  463SOL    HW1 1411   1.799   1.980   0.456
  463SOL    HW2 1412   1.695   1.910   0.561
  464SOL     OW 1413   1.280   2.789   0.672
  464SOL    HW1 1414   1.340   2.708   0.674
  464SOL    HW2 1415   1.320   2.858   0.612
  465SOL     OW 1416   1.841   2.037   0.963
  465SOL    HW1 1417   1.880   1.952   0.927
  465SOL    HW2 1418   1.743   2.039   0.944
  466SOL     OW 1419   0.263   2.188   0.720
  466SOL    HW1 1420   0.184   2.239   0.686
  466SOL    HW2 1421   0.254   2.173   0.818
  467SOL     OW 1422   0.822   2.864   1.372
  467SOL    HW1 1423   0.862   2.863   1.280
  467SOL    HW2 1424   0.832   2.956   1.412
  468SOL     OW 1425   0.916   2.772   0.291
  468SOL    HW1 1426   0.979   2.810   0.223
  468SOL    HW2 1427   0.956   2.689   0.330
  469SOL     OW 1428   0.372   3.150   1.490
  469SOL    HW1 1429   0.359   3.243   1.456
  469SOL    HW2 1430   0.288   3.098   1.477
  470SOL     OW 1431   1.614   3.154   1.289
  470SOL    HW1 1432   1.674   3.157   1.369
  470SOL    HW2 1433   1.539   3.218   1.302
  471SOL     OW 1434   1.039   2.960   0.696
  471SOL    HW1 1435   0.969   2.913   0.750
  471SOL    HW2 1436   1.098   2.892   0.653
  472SOL     OW 1437   1.014   2.098   0.971
  472SOL    HW1 1438   1.006   2.062   0.878
  472SOL    HW2 1439   1.012   2.022   1.036
  473SOL     OW 1440   1.709   2.247   1.381
  473SOL    HW1 1441   1.782   2.316   1.385
  473SOL    HW2 1442   1.737   2.172   1.322
  474SOL     OW 1443   0.105   2.875   1.726
  474SOL    HW1 1444   0.028   2.842   1.780
  474SOL    HW2 1445   0.190   2.845   1.768
  475SOL     OW 1446   0.672   2.065   1.489
  475SOL    HW1 1447   0.762   2.049   1.449
  475SOL    HW2 1448   0.680   2.070   1.588
  476SOL     OW 1449   0.075   2.207   0.033
  476SOL    HW1 1450  -0.017   2.179   0.004
  476SOL    HW2 1451   0.106   2.284  -0.023
  477SOL     OW 1452   1.440   2.718   1.398
  477SOL    HW1 1453   1.383   2.770   1.335
  477SOL    HW2 1454   1.536   2.730   1.374
  478SOL     OW 1455   0.072   2.028   0.318
  478SOL    HW1 1456   0.055   2.111   0.264
  478SOL    HW2 1457   0.162   1.991   0.296
  479SOL     OW 1458   0.613   2.704   1.431
  479SOL    HW1 1459   0.669   2.785   1.414
  479SOL    HW2 1460   0.672   2.624   1.434
  480SOL     OW 1461   0.716   2.427   1.708
  480SOL    HW1 1462   0.735   2.492   1.782
  480SOL    HW2 1463   0.776   2.347   1.717
  481SOL     OW 1464   1.450   3.082   1.633
  481SOL    HW1 1465   1.441   3.072   1.732
  481SOL    HW2 1466   1.546   3.075   1.607
  482SOL     OW 1467   1.674   2.745   1.254
  482SOL    HW1 1468   1.647   2.656   1.217
  482SOL    HW2 1469   1.675   2.813   1.181
  483SOL     OW 1470   1.225   2.187   0.449
  483SOL    HW1 1471   1.290   2.113   0.438
  483SOL    HW2 1472   1.245   2.237   0.533
  484SOL     OW 1473   0.594   2.607   0.652
  484SOL    HW1 1474   0.644   2.692   0.633
  484SOL    HW2 1475   0.506   2.609   0.604
  485SOL     OW 1476   1.777   2.204   1.642
  485SOL    HW1 1477   1.760   2.235   1.548
  485SOL    HW2 1478   1.693   2.167   1.680
  486SOL     OW 1479   1.730   2.796   1.517
  486SOL    HW1 1480   1.768   2.887   1.532
  486SOL    HW2 1481   1.722   2.779   1.418
  487SOL     OW 1482   0.859   2.818   0.861
  487SOL    HW1 1483   0.913   2.749   0.909
  487SOL    HW2 1484   0.827   2.887   0.927
  488SOL     OW 1485   1.083   2.846   0.087
  488SOL    HW1 1486   1.060   2.899   0.005
  488SOL    HW2 1487   1.164   2.790   0.068
  489SOL     OW 1488   0.079   3.102   0.653
  489SOL    HW1 1489   0.078   3.055   0.741
  489SOL    HW2 1490   0.161   3.074   0.602
  490SOL     OW 1491   1.824   2.054   1.227
  490SOL    HW1 1492   1.820   1.964   1.271
  490SOL    HW2 1493   1.827   2.043   1.128
  491SOL     OW 1494   0.428   2.286   0.520
  491SOL    HW1 1495   0.458   2.214   0.458
  491SOL    HW2 1496   0.389   2.246   0.603
  492SOL     OW 1497   0.317   2.409   1.280
  492SOL    HW1 1498   0.355   2.350   1.352
  492SOL    HW2 1499   0.357   2.383   1.192
  493SOL     OW 1500   1.424   2.076   1.112
  493SOL    HW1 1501   1.476   2.011   1.167
  493SOL    HW2 1502   1.375   2.139   1.173
  494SOL     OW 1503   1.001   1.896   1.154
  494SOL    HW1 1504   0.938   1.824   1.123
  494SOL    HW2 1505   1.094   1.860   1.154
  495SOL     OW 1506   0.770   3.192   0.301
  495SOL    HW1 1507   0.724   3.105   0.318
  495SOL    HW2 1508   0.861   3.189   0.342
  496SOL     OW 1509   1.352   1.914   0.168
  496SOL    HW1 1510   1.387   1.873   0.084
  496SOL    HW2 1511   1.262   1.876   0.188
  497SOL     OW 1512   1.300   2.315   0.691
  497SOL    HW1 1513   1.241   2.395   0.695
  497SOL    HW2 1514   1.315   2.280   0.784
  498SOL     OW 1515   1.593   2.083   0.882
  498SOL    HW1 1516   1.509   2.082   0.936
  498SOL    HW2 1517   1.595   2.166   0.826
  499SOL     OW 1518   0.039   2.939   0.300
  499SOL    HW1 1519   0.138   2.928   0.291
  499SOL    HW2 1520  -0.001   2.853   0.332
  500SOL     OW 1521   0.230   2.490   1.975
  500SOL    HW1 1522   0.137   2.488   2.012
  500SOL    HW2 1523   0.231   2.451   1.883
  501SOL     OW 1524   0.225   2.137   2.858
  501SOL    HW1 1525   0.260   2.120   2.950
  501SOL    HW2 1526   0.137   2.092   2.846
  502SOL     OW 1527   0.019   2.230   2.509
  502SOL    HW1 1528  -0.063   2.273   2.548
  502SOL    HW2 1529  -0.009   2.157   2.446
  503SOL     OW 1530   1.135   2.565   2.579
  503SOL    HW1 1531   1.192   2.643   2.554
  503SOL    HW2 1532   1.075   2.591   2.655
  504SOL     OW 1533   1.755   2.469   2.093
  504SOL    HW1 1534   1.743   2.456   1.994
  504SOL    HW2 1535   1.725   2.388   2.142
  505SOL     OW 1536   0.768   3.006   2.885
  505SOL    HW1 1537   0.690   3.023   2.945
  505SOL    HW2 1538   0.802   3.093   2.849
  506SOL     OW 1539   0.685   2.874   2.527
  506SOL    HW1 1540   0.754   2.858   2.597
  506SOL    HW2 1541   0.612   2.931   2.565
  507SOL     OW 1542   1.603   2.309   2.599
  507SOL    HW1 1543   1.529   2.355   2.549
  507SOL    HW2 1544   1.654   2.377   2.652
  508SOL     OW 1545   0.240   2.953   2.748
  508SOL    HW1 1546   0.254   2.869   2.800
  508SOL    HW2 1547   0.185   3.017   2.803
  509SOL     OW 1548   0.606   2.826   1.985
  509SOL    HW1 1549   0.613   2.910   1.931
  509SOL    HW2 1550   0.652   2.839   2.073
  510SOL     OW 1551   0.122   2.505   2.425
  510SOL    HW1 1552   0.077   2.417   2.442
  510SOL    HW2 1553   0.121   2.559   2.509
  511SOL     OW 1554   1.689   2.784   2.474
  511SOL    HW1 1555   1.784   2.755   2.482
  511SOL    HW2 1556   1.681   2.849   2.399
  512SOL     OW 1557   1.641   2.970   2.294
  512SOL    HW1 1558   1.727   2.972   2.242
  512SOL    HW2 1559   1.655   3.017   2.382
  513SOL     OW 1560   0.809   1.866   2.364
  513SOL    HW1 1561   0.849   1.957   2.355
  513SOL    HW2 1562   0.709   1.874   2.370
  514SOL     OW 1563   0.197   2.838   3.126
  514SOL    HW1 1564   0.286   2.793   3.112
  514SOL    HW2 1565   0.124   2.773   3.107
  515SOL     OW 1566   1.525   2.861   2.052
  515SOL    HW1 1567   1.462   2.785   2.065
  515SOL    HW2 1568   1.573   2.879   2.138
  516SOL     OW 1569   0.598   2.591   2.132
  516SOL    HW1 1570   0.622   2.660   2.064
  516SOL    HW2 1571   0.520   2.624   2.186
  517SOL     OW 1572   1.281   2.207   2.806
  517SOL    HW1 1573   1.195   2.157   2.793
  517SOL    HW2 1574   1.343   2.153   2.862
  518SOL     OW 1575   1.041   2.563   2.291
  518SOL    HW1 1576   1.067   2.559   2.387
  518SOL    HW2 1577   0.956   2.512   2.277
  519SOL     OW 1578   0.076   2.673   2.651
  519SOL    HW1 1579   0.175   2.661   2.660
  519SOL    HW2 1580   0.052   2.768   2.672
  520SOL     OW 1581   0.865   2.210   2.057
  520SOL    HW1 1582   0.924   2.273   2.008
  520SOL    HW2 1583   0.884   2.116   2.028
  521SOL     OW 1584   1.362   3.006   2.407
  521SOL    HW1 1585   1.445   2.977   2.359
  521SOL    HW2 1586   1.313   3.073   2.351
  522SOL     OW 1587   0.550   2.058   2.747
  522SOL    HW1 1588   0.545   2.053   2.847
  522SOL    HW2 1589   0.552   2.154   2.718
  523SOL     OW 1590   1.795   2.928   2.735
  523SOL    HW1 1591   1.733   2.913   2.659
  523SOL    HW2 1592   1.743   2.939   2.820
  524SOL     OW 1593   0.321   2.805   2.104
  524SOL    HW1 1594   0.403   2.844   2.062
  524SOL    HW2 1595   0.294   2.723   2.055
  525SOL     OW 1596   1.458   2.597   2.590
  525SOL    HW1 1597   1.453   2.532   2.665
  525SOL    HW2 1598   1.538   2.656   2.603
  526SOL     OW 1599   1.400   1.969   2.288
  526SOL    HW1 1600   1.376   1.932   2.198
  526SOL    HW2 1601   1.499   1.985   2.292
  527SOL     OW 1602   0.382   2.562   2.342
  527SOL    HW1 1603   0.427   2.472   2.339
  527SOL    HW2 1604   0.288   2.551   2.375
  528SOL     OW 1605   0.614   1.984   1.979
  528SOL    HW1 1606   0.712   1.962   1.986
  528SOL    HW2 1607   0.583   1.967   1.886
  529SOL     OW 1608   0.803   3.264   2.786
  529SOL    HW1 1609   0.893   3.278   2.744
  529SOL    HW2 1610   0.732   3.266   2.715
  530SOL     OW 1611   0.922   2.365   2.761
  530SOL    HW1 1612   0.897   2.356   2.665
  530SOL    HW2 1613   0.970   2.283   2.792
  531SOL     OW 1614   0.539   1.926   2.374
  531SOL    HW1 1615   0.458   1.927   2.432
  531SOL    HW2 1616   0.542   2.009   2.319
  532SOL     OW 1617   0.297   1.897   2.033
  532SOL    HW1 1618   0.346   1.981   2.012
  532SOL    HW2 1619   0.359   1.832   2.078
  533SOL     OW 1620   0.935   2.098   2.342
  533SOL    HW1 1621   0.887   2.139   2.264
  533SOL    HW2 1622   1.034   2.096   2.323
  534SOL     OW 1623   0.459   3.014   2.603
  534SOL    HW1 1624   0.388   2.987   2.668
  534SOL    HW2 1625   0.433   2.986   2.510
  535SOL     OW 1626   1.032   2.411   1.878
  535SOL    HW1 1627   0.991   2.493   1.839
  535SOL    HW2 1628   1.096   2.437   1.951
  536SOL     OW 1629   0.561   2.084   3.009
  536SOL    HW1 1630   0.599   2.000   3.046
  536SOL    HW2 1631   0.473   2.103   3.053
  537SOL     OW 1632   0.866   2.316   2.504
  537SOL    HW1 1633   0.834   2.388   2.442
  537SOL    HW2 1634   0.890   2.235   2.451
  538SOL     OW 1635   1.017   1.901   2.615
  538SOL    HW1 1636   0.945   1.906   2.546
  538SOL    HW2 1637   0.993   1.832   2.684
  539SOL     OW 1638   1.429   3.035   2.729
  539SOL    HW1 1639   1.374   2.951   2.722
  539SOL    HW2 1640   1.455   3.064   2.637
  540SOL     OW 1641   1.466   2.452   2.854
  540SOL    HW1 1642   1.436   2.357   2.861
  540SOL    HW2 1643   1.539   2.468   2.920
  541SOL     OW 1644   1.857   2.695   2.239
  541SOL    HW1 1645   1.899   2.631   2.303
  541SOL    HW2 1646   1.819   2.644   2.161
  542SOL     OW 1647   1.390   2.437   1.940
  542SOL    HW1 1648   1.336   2.416   2.021
  542SOL    HW2 1649   1.481   2.396   1.949
  543SOL     OW 1650   0.527   2.118   2.190
  543SOL    HW1 1651   0.554   2.059   2.115
  543SOL    HW2 1652   0.527   2.213   2.159
  544SOL     OW 1653   1.638   2.961   2.941
  544SOL    HW1 1654   1.643   3.042   3.000
  544SOL    HW2 1655   1.552   2.963   2.890
  545SOL     OW 1656   0.915   1.951   3.264
  545SOL    HW1 1657   0.940   1.931   3.169
  545SOL    HW2 1658   0.987   2.007   3.306
  546SOL     OW 1659   0.705   2.912   2.230
  546SOL    HW1 1660   0.691   2.919   2.329
  546SOL    HW2 1661   0.789   2.861   2.212
  547SOL     OW 1662   0.410   2.675   3.113
  547SOL    HW1 1663   0.496   2.687   3.163
  547SOL    HW2 1664   0.368   2.588   3.140
  548SOL     OW 1665   1.274   2.248   3.124
  548SOL    HW1 1666   1.295   2.322   3.188
  548SOL    HW2 1667   1.185   2.265   3.081
  549SOL     OW 1668   0.367   2.962   2.363
  549SOL    HW1 1669   0.360   3.045   2.307
  549SOL    HW2 1670   0.371   2.882   2.303
  550SOL     OW 1671   0.566   2.399   2.727
  550SOL    HW1 1672   0.578   2.465   2.653
  550SOL    HW2 1673   0.612   2.433   2.810
  551SOL     OW 1674   1.582   2.501   2.334
  551SOL    HW1 1675   1.551   2.562   2.407
  551SOL    HW2 1676   1.632   2.553   2.265
  552SOL     OW 1677   0.573   2.732   2.891
  552SOL    HW1 1678   0.617   2.821   2.882
  552SOL    HW2 1679   0.510   2.732   2.968
  553SOL     OW 1680   1.360   2.724   2.907
  553SOL    HW1 1681   1.285   2.724   2.841
  553SOL    HW2 1682   1.397   2.632   2.916
  554SOL     OW 1683   1.209   2.387   2.137
  554SOL    HW1 1684   1.222   2.303   2.191
  554SOL    HW2 1685   1.180   2.461   2.197
  555SOL     OW 1686   0.307   2.075   3.093
  555SOL    HW1 1687   0.284   2.112   3.183
  555SOL    HW2 1688   0.277   1.980   3.087
  556SOL     OW 1689   0.037   3.172   3.144
  556SOL    HW1 1690   0.090   3.123   3.212
  556SOL    HW2 1691   0.059   3.270   3.149
  557SOL     OW 1692   0.732   2.496   2.926
  557SOL    HW1 1693   0.791   2.470   2.850
  557SOL    HW2 1694   0.704   2.592   2.915
  558SOL     OW 1695   0.307   1.925   2.480
  558SOL    HW1 1696   0.296   2.019   2.513
  558SOL    HW2 1697   0.302   1.862   2.557
  559SOL     OW 1698   1.622   2.229   2.236
  559SOL    HW1 1699   1.624   2.153   2.300
  559SOL    HW2 1700   1.574   2.306   2.276
  560SOL     OW 1701   1.023   2.628   2.828
  560SOL    HW1 1702   1.038   2.649   2.924
  560SOL    HW2 1703   0.993   2.533   2.819
  561SOL     OW 1704   1.540   2.136   1.987
  561SOL    HW1 1705   1.479   2.061   2.010
  561SOL    HW2 1706   1.562   2.188   2.070
  562SOL     OW 1707   1.303   2.700   1.904
  562SOL    HW1 1708   1.337   2.607   1.919
  562SOL    HW2 1709   1.321   2.727   1.809
  563SOL     OW 1710   0.319   2.672   2.811
  563SOL    HW1 1711   0.412   2.708   2.816
  563SOL    HW2 1712   0.313   2.587   2.863
  564SOL     OW 1713   0.339   2.371   2.868
  564SOL    HW1 1714   0.287   2.288   2.851
  564SOL    HW2 1715   0.416   2.376   2.804
  565SOL     OW 1716   1.160   2.069   3.339
  565SOL    HW1 1717   1.160   2.133   3.416
  565SOL    HW2 1718   1.188   2.117   3.256
  566SOL     OW 1719   0.008   3.188   2.062
  566SOL    HW1 1720  -0.085   3.209   2.031
  566SOL    HW2 1721   0.018   3.089   2.075
  567SOL     OW 1722   1.002   2.658   3.100
  567SOL    HW1 1723   1.043   2.626   3.186
  567SOL    HW2 1724   0.906   2.631   3.097
  568SOL     OW 1725   0.040   2.406   2.976
  568SOL    HW1 1726   0.125   2.373   2.935
  568SOL    HW2 1727   0.053   2.421   3.074
  569SOL     OW 1728   0.815   2.434   2.187
  569SOL    HW1 1729   0.822   2.345   2.141
  569SOL    HW2 1730   0.721   2.468   2.179
  570SOL     OW 1731   1.657   2.466   3.068
  570SOL    HW1 1732   1.619   2.397   3.130
  570SOL    HW2 1733   1.739   2.430   3.024
  571SOL     OW 1734   0.671   2.326   3.131
  571SOL    HW1 1735   0.637   2.237   3.101
  571SOL    HW2 1736   0.697   2.380   3.051
  572SOL     OW 1737   0.473   2.362   2.053
  572SOL    HW1 1738   0.534   2.442   2.057
  572SOL    HW2 1739   0.378   2.393   2.060
  573SOL     OW 1740   1.347   2.921   3.096
  573SOL    HW1 1741   1.371   2.858   3.022
  573SOL    HW2 1742   1.257   2.961   3.078
  574SOL     OW 1743   1.302   2.717   2.171
  574SOL    HW1 1744   1.216   2.686   2.213
  574SOL    HW2 1745   1.298   2.703   2.072
  575SOL     OW 1746   0.083   3.120   2.884
  575SOL    HW1 1747   0.078   3.119   2.984
  575SOL    HW2 1748   0.000   3.079   2.846
  576SOL     OW 1749   1.726   1.997   2.385
  576SOL    HW1 1750   1.799   1.980   2.318
  576SOL    HW2 1751   1.695   1.910   2.423
  577SOL     OW 1752   1.280   2.789   2.534
  577SOL    HW1 1753   1.340   2.708   2.536
  577SOL    HW2 1754   1.320   2.858   2.474
  578SOL     OW 1755   1.841   2.037   2.825
  578SOL    HW1 1756   1.880   1.952   2.789
  578SOL    HW2 1757   1.743   2.039   2.806
  579SOL     OW 1758   0.263   2.188   2.582
  579SOL    HW1 1759   0.184   2.239   2.548
  579SOL    HW2 1760   0.254   2.173   2.680
  580SOL     OW 1761   0.822   2.864   3.234
  580SOL    HW1 1762   0.862   2.863   3.142
  580SOL    HW2 1763   0.832   2.956   3.274
  581SOL     OW 1764   0.916   2.772   2.153
  581SOL    HW1 1765   0.979   2.810   2.085
  581SOL    HW2 1766   0.956   2.689   2.192
  582SOL     OW 1767   1.614   3.154   3.151
  582SOL    HW1 1768   1.674   3.157   3.231
  582SOL    HW2 1769   1.539   3.218   3.164
  583SOL     OW 1770   1.039   2.960   2.558
  583SOL    HW1 1771   0.969   2.913   2.612
  583SOL    HW2 1772   1.098   2.892   2.515
  584SOL     OW 1773   1.014   2.098   2.833
  584SOL    HW1 1774   1.006   2.062   2.740
  584SOL    HW2 1775   1.012   2.022   2.898
  585SOL     OW 1776   1.709   2.247   3.243
  585SOL    HW1 1777   1.782   2.316   3.247
  585SOL    HW2 1778   1.737   2.172   3.184
  586SOL     OW 1779   0.075   2.207   1.895
  586SOL    HW1 1780  -0.017   2.179   1.866
  586SOL    HW2 1781   0.106   2.284   1.839
  587SOL     OW 1782   0.072   2.028   2.180
  587SOL    HW1 1783   0.055   2.111   2.126
  587SOL    HW2 1784   0.162   1.991   2.158
  588SOL     OW 1785   1.674   2.745   3.116
  588SOL    HW1 1786   1.647   2.656   3.079
  588SOL    HW2 1787   1.675   2.813   3.043
  589SOL     OW 1788   1.225   2.187   2.311
  589SOL    HW1 1789   1.290   2.113   2.300
  589SOL    HW2 1790   1.245   2.237   2.395
  590SOL     OW 1791   0.594   2.607   2.514
  590SOL    HW1 1792   0.644   2.692   2.495
  590SOL    HW2 1793   0.506   2.609   2.466
  591SOL     OW 1794   1.730   2.796   3.379
  591SOL    HW1 1795   1.768   2.887   3.394
  591SOL    HW2 1796   1.722   2.779   3.280
  592SOL     OW 1797   0.859   2.818   2.723
  592SOL    HW1 1798   0.913   2.749   2.771
  592SOL    HW2 1799   0.827   2.887   2.789
  593SOL     OW 1800   1.083   2.846   1.949
  593SOL    HW1 1801   1.060   2.899   1.867
  593SOL    HW2 1802   1.164   2.790   1.930
  594SOL     OW 1803   0.079   3.102   2.515
  594SOL    HW1 1804   0.078   3.055   2.603
  594SOL    HW2 1805   0.161   3.074   2.464
  595SOL     OW 1806   1.824   2.054   3.089
  595SOL    HW1 1807   1.820   1.964   3.133
  595SOL    HW2 1808   1.827   2.043   2.990
  596SOL     OW 1809   0.428   2.286   2.382
  596SOL    HW1 1810   0.458   2.214   2.320
  596SOL    HW2 1811   0.389   2.246   2.465
  597SOL     OW 1812   1.424   2.076   2.974
  597SOL    HW1 1813   1.476   2.011   3.029
  597SOL    HW2 1814   1.375   2.139   3.035
  598SOL     OW 1815   1.001   1.896   3.016
  598SOL    HW1 1816   0.938   1.824   2.985
  598SOL    HW2 1817   1.094   1.860   3.016
  599SOL     OW 1818   0.770   3.192   2.163
  599SOL    HW1 1819   0.724   3.105   2.180
  599SOL    HW2 1820   0.861   3.189   2.204
  600SOL     OW 1821   1.300   2.315   2.553
  600SOL    HW1 1822   1.241   2.395   2.557
  600SOL    HW2 1823   1.315   2.280   2.646
  601SOL     OW 1824   1.593   2.083   2.744
  601SOL    HW1 1825   1.509   2.082   2.798
  601SOL    HW2 1826   1.595   2.166   2.688
  602SOL     OW 1827   0.039   2.939   2.162
  602SOL    HW1 1828   0.138   2.928   2.153
  602SOL    HW2 1829  -0.001   2.853   2.194
  603SOL     OW 1830   2.092   0.628   0.113
  603SOL    HW1 1831   1.999   0.626   0.150
  603SOL    HW2 1832   2.093   0.589   0.021
  604SOL     OW 1833   2.087   0.275   0.996
  604SOL    HW1 1834   2.122   0.258   1.088
  604SOL    HW2 1835   1.999   0.230   0.984
  605SOL     OW 1836   1.881   0.368   0.647
  605SOL    HW1 1837   1.799   0.411   0.686
  605SOL    HW2 1838   1.853   0.295   0.584
  606SOL     OW 1839   2.431   1.275   1.165
  606SOL    HW1 1840   2.338   1.268   1.128
  606SOL    HW2 1841   2.442   1.364   1.209
  607SOL     OW 1842   2.997   0.703   0.717
  607SOL    HW1 1843   3.054   0.781   0.692
  607SOL    HW2 1844   2.937   0.729   0.793
  608SOL     OW 1845   2.630   1.144   1.023
  608SOL    HW1 1846   2.552   1.161   1.083
  608SOL    HW2 1847   2.664   1.231   0.987
  609SOL     OW 1848   2.712   0.798   1.823
  609SOL    HW1 1849   2.708   0.874   1.888
  609SOL    HW2 1850   2.734   0.834   1.732
  610SOL     OW 1851   2.547   1.012   0.665
  610SOL    HW1 1852   2.616   0.996   0.735
  610SOL    HW2 1853   2.474   1.069   0.703
  611SOL     OW 1854   2.548   1.161   1.803
  611SOL    HW1 1855   2.608   1.240   1.817
  611SOL    HW2 1856   2.462   1.192   1.762
  612SOL     OW 1857   2.197   1.435   1.061
  612SOL    HW1 1858   2.119   1.404   1.008
  612SOL    HW2 1859   2.255   1.493   1.004
  613SOL     OW 1860   2.300   0.392   1.499
  613SOL    HW1 1861   2.382   0.336   1.508
  613SOL    HW2 1862   2.219   0.334   1.503
  614SOL     OW 1863   2.093   1.713   0.483
  614SOL    HW1 1864   2.127   1.790   0.537
  614SOL    HW2 1865   2.137   1.713   0.393
  615SOL     OW 1866   2.989   1.341   1.690
  615SOL    HW1 1867   3.036   1.341   1.778
  615SOL    HW2 1868   2.941   1.254   1.679
  616SOL     OW 1869   2.092   1.434   0.538
  616SOL    HW1 1870   2.066   1.530   0.538
  616SOL    HW2 1871   2.021   1.380   0.583
  617SOL     OW 1872   2.102   1.091   0.886
  617SOL    HW1 1873   2.116   1.007   0.938
  617SOL    HW2 1874   2.047   1.155   0.941
  618SOL     OW 1875   2.482   1.786   1.439
  618SOL    HW1 1876   2.390   1.769   1.474
  618SOL    HW2 1877   2.510   1.878   1.465
  619SOL     OW 1878   2.468   0.964   0.123
  619SOL    HW1 1879   2.475   1.048   0.069
  619SOL    HW2 1880   2.514   0.977   0.211
  620SOL     OW 1881   1.984   0.643   0.563
  620SOL    HW1 1882   1.939   0.555   0.580
  620SOL    HW2 1883   1.983   0.697   0.647
  621SOL     OW 1884   1.889   1.596   0.117
  621SOL    HW1 1885   1.870   1.500   0.138
  621SOL    HW2 1886   1.856   1.654   0.192
  622SOL     OW 1887   1.975   0.737   1.597
  622SOL    HW1 1888   2.063   0.724   1.642
  622SOL    HW2 1889   1.962   0.834   1.575
  623SOL     OW 1890   2.475   1.365   0.726
  623SOL    HW1 1891   2.426   1.278   0.735
  623SOL    HW2 1892   2.452   1.408   0.639
  624SOL     OW 1893   2.671   0.004   0.502
  624SOL    HW1 1894   2.711   0.095   0.493
  624SOL    HW2 1895   2.571   0.012   0.508
  625SOL     OW 1896   2.059   0.976   1.264
  625SOL    HW1 1897   2.148   0.931   1.250
  625SOL    HW2 1898   1.986   0.911   1.245
  626SOL     OW 1899   2.179   0.251   1.801
  626SOL    HW1 1900   2.250   0.322   1.807
  626SOL    HW2 1901   2.091   0.290   1.829
  627SOL     OW 1902   2.460   0.729   0.270
  627SOL    HW1 1903   2.484   0.798   0.202
  627SOL    HW2 1904   2.382   0.762   0.324
  628SOL     OW 1905   2.669   0.605   1.465
  628SOL    HW1 1906   2.622   0.602   1.554
  628SOL    HW2 1907   2.618   0.550   1.399
  629SOL     OW 1908   2.835   0.890   1.572
  629SOL    HW1 1909   2.881   0.806   1.543
  629SOL    HW2 1910   2.779   0.924   1.497
  630SOL     OW 1911   2.853   0.410   1.242
  630SOL    HW1 1912   2.776   0.444   1.296
  630SOL    HW2 1913   2.819   0.359   1.163
  631SOL     OW 1914   2.903   0.701   0.429
  631SOL    HW1 1915   2.929   0.697   0.525
  631SOL    HW2 1916   2.818   0.650   0.415
  632SOL     OW 1917   1.938   0.811   0.789
  632SOL    HW1 1918   2.037   0.799   0.798
  632SOL    HW2 1919   1.914   0.906   0.810
  633SOL     OW 1920   1.992   1.821   1.571
  633SOL    HW1 1921   1.982   1.806   1.670
  633SOL    HW2 1922   1.906   1.857   1.535
  634SOL     OW 1923   2.727   0.348   0.195
  634SOL    HW1 1924   2.786   0.411   0.146
  634SOL    HW2 1925   2.746   0.254   0.166
  635SOL     OW 1926   2.412   0.196   0.885
  635SOL    HW1 1927   2.407   0.191   0.985
  635SOL    HW2 1928   2.414   0.292   0.856
  636SOL     OW 1929   2.870   1.456   0.477
  636SOL    HW1 1930   2.824   1.528   0.425
  636SOL    HW2 1931   2.866   1.476   0.575
  637SOL     OW 1932   2.213   1.801   0.853
  637SOL    HW1 1933   2.263   1.715   0.859
  637SOL    HW2 1934   2.278   1.878   0.850
  638SOL     OW 1935   3.089   1.550   1.506
  638SOL    HW1 1936   3.095   1.473   1.570
  638SOL    HW2 1937   3.037   1.524   1.426
  639SOL     OW 1938   2.183   0.943   0.242
  639SOL    HW1 1939   2.265   0.982   0.200
  639SOL    HW2 1940   2.156   0.861   0.193
  640SOL     OW 1941   2.323   1.266   1.727
  640SOL    HW1 1942   2.273   1.267   1.641
  640SOL    HW2 1943   2.260   1.248   1.803
  641SOL     OW 1944   2.973   1.776   0.237
  641SOL    HW1 1945   2.913   1.714   0.287
  641SOL    HW2 1946   3.004   1.732   0.152
  642SOL     OW 1947   2.064   0.285   1.498
  642SOL    HW1 1948   1.984   0.345   1.485
  642SOL    HW2 1949   2.054   0.236   1.584
  643SOL     OW 1950   2.326   1.743   0.323
  643SOL    HW1 1951   2.359   1.782   0.409
  643SOL    HW2 1952   2.402   1.736   0.258
  644SOL     OW 1953   2.111   1.785   1.241
  644SOL    HW1 1954   2.168   1.720   1.291
  644SOL    HW2 1955   2.095   1.752   1.148
  645SOL     OW 1956   2.802   1.698   0.904
  645SOL    HW1 1957   2.882   1.641   0.925
  645SOL    HW2 1958   2.753   1.658   0.827
  646SOL     OW 1959   2.244   0.700   0.480
  646SOL    HW1 1960   2.289   0.610   0.477
  646SOL    HW2 1961   2.150   0.689   0.513
  647SOL     OW 1962   2.476   0.122   0.117
  647SOL    HW1 1963   2.574   0.100   0.124
  647SOL    HW2 1964   2.445   0.105   0.024
  648SOL     OW 1965   2.643   0.264   1.749
  648SOL    HW1 1966   2.710   0.203   1.792
  648SOL    HW2 1967   2.570   0.283   1.814
  649SOL     OW 1968   2.750   1.514   1.195
  649SOL    HW1 1969   2.727   1.489   1.101
  649SOL    HW2 1970   2.811   1.445   1.234
  650SOL     OW 1971   2.665   1.402   0.924
  650SOL    HW1 1972   2.755   1.416   0.882
  650SOL    HW2 1973   2.594   1.404   0.853
  651SOL     OW 1974   2.784   0.503   0.899
  651SOL    HW1 1975   2.759   0.494   0.803
  651SOL    HW2 1976   2.832   0.421   0.930
  652SOL     OW 1977   2.401   0.064   0.512
  652SOL    HW1 1978   2.320   0.065   0.570
  652SOL    HW2 1979   2.404   0.147   0.457
  653SOL     OW 1980   2.159   0.035   0.171
  653SOL    HW1 1981   2.208   0.119   0.150
  653SOL    HW2 1982   2.221  -0.030   0.216
  654SOL     OW 1983   2.797   0.236   0.480
  654SOL    HW1 1984   2.749   0.277   0.402
  654SOL    HW2 1985   2.896   0.234   0.461
  655SOL     OW 1986   2.938   0.683   1.464
  655SOL    HW1 1987   2.858   0.622   1.467
  655SOL    HW2 1988   3.019   0.630   1.440
  656SOL     OW 1989   3.089   1.570   0.793
  656SOL    HW1 1990   3.110   1.644   0.728
  656SOL    HW2 1991   3.157   1.570   0.866
  657SOL     OW 1992   2.321   1.152   0.741
  657SOL    HW1 1993   2.250   1.125   0.806
  657SOL    HW2 1994   2.295   1.124   0.648
  658SOL     OW 1995   3.133   1.797   0.591
  658SOL    HW1 1996   3.177   1.861   0.527
  658SOL    HW2 1997   3.083   1.849   0.661
  659SOL     OW 1998   2.894   0.549   0.016
  659SOL    HW1 1999   2.853   0.631  -0.023
  659SOL    HW2 2000   2.958   0.575   0.089
  660SOL     OW 2001   1.940   0.556   1.386
  660SOL    HW1 2002   2.032   0.555   1.345
  660SOL    HW2 2003   1.934   0.630   1.453
  661SOL     OW 2004   2.423   0.222   1.147
  661SOL    HW1 2005   2.461   0.138   1.184
  661SOL    HW2 2006   2.335   0.241   1.191
  662SOL     OW 2007   2.728   0.454   0.642
  662SOL    HW1 2008   2.696   0.526   0.580
  662SOL    HW2 2009   2.752   0.373   0.589
  663SOL     OW 2010   2.879   0.039   0.753
  663SOL    HW1 2011   2.807   0.044   0.684
  663SOL    HW2 2012   2.855  -0.030   0.822
  664SOL     OW 2013   2.350   1.385   0.174
  664SOL    HW1 2014   2.263   1.370   0.221
  664SOL    HW2 2015   2.333   1.411   0.079
  665SOL     OW 2016   2.389   0.256   0.328
  665SOL    HW1 2017   2.416   0.197   0.253
  665SOL    HW2 2018   2.389   0.351   0.297
  666SOL     OW 2019   2.926   1.347   1.340
  666SOL    HW1 2020   2.846   1.324   1.395
  666SOL    HW2 2021   3.009   1.321   1.389
  667SOL     OW 2022   2.973   1.195   1.100
  667SOL    HW1 2023   2.933   1.239   1.181
  667SOL    HW2 2024   2.932   1.232   1.017
  668SOL     OW 2025   2.777   0.089   1.402
  668SOL    HW1 2026   2.802   0.069   1.307
  668SOL    HW2 2027   2.849   0.145   1.444
  669SOL     OW 2028   2.842   1.116   1.719
  669SOL    HW1 2029   2.743   1.122   1.729
  669SOL    HW2 2030   2.865   1.036   1.663
  670SOL     OW 2031   2.567   1.050   0.368
  670SOL    HW1 2032   2.553   1.057   0.467
  670SOL    HW2 2033   2.651   0.999   0.350
  671SOL     OW 2034   2.272   0.813   1.251
  671SOL    HW1 2035   2.358   0.825   1.301
  671SOL    HW2 2036   2.230   0.726   1.278
  672SOL     OW 2037   2.229   1.100   0.501
  672SOL    HW1 2038   2.222   1.183   0.445
  672SOL    HW2 2039   2.233   1.020   0.441
  673SOL     OW 2040   2.428   0.537   0.865
  673SOL    HW1 2041   2.440   0.603   0.791
  673SOL    HW2 2042   2.474   0.571   0.948
  674SOL     OW 2043   3.114   1.348   0.388
  674SOL    HW1 2044   3.164   1.425   0.428
  674SOL    HW2 2045   3.019   1.350   0.420
  675SOL     OW 2046   2.216   1.510   1.329
  675SOL    HW1 2047   2.195   1.466   1.242
  675SOL    HW2 2048   2.313   1.536   1.332
  676SOL     OW 2049   2.264   0.751   1.598
  676SOL    HW1 2050   2.332   0.806   1.551
  676SOL    HW2 2051   2.304   0.663   1.625
  677SOL     OW 2052   2.875   0.105   1.770
  677SOL    HW1 2053   2.881   0.190   1.718
  677SOL    HW2 2054   2.907   0.029   1.713
  678SOL     OW 2055   2.366   0.050   1.740
  678SOL    HW1 2056   2.324  -0.007   1.670
  678SOL    HW2 2057   2.300   0.119   1.772
  679SOL     OW 2058   2.435   0.870   1.029
  679SOL    HW1 2059   2.479   0.959   1.020
  679SOL    HW2 2060   2.372   0.870   1.106
  680SOL     OW 2061   3.222   0.862   1.045
  680SOL    HW1 2062   3.147   0.862   0.979
  680SOL    HW2 2063   3.259   0.770   1.054
  681SOL     OW 2064   3.071   0.525   0.275
  681SOL    HW1 2065   3.084   0.441   0.329
  681SOL    HW2 2066   3.042   0.599   0.335
  682SOL     OW 2067   2.169   0.213   1.231
  682SOL    HW1 2068   2.146   0.250   1.321
  682SOL    HW2 2069   2.139   0.118   1.225
  683SOL     OW 2070   2.594   0.634   1.064
  683SOL    HW1 2071   2.653   0.608   0.988
  683SOL    HW2 2072   2.566   0.730   1.053
  684SOL     OW 2073   2.169   0.063   0.618
  684SOL    HW1 2074   2.158   0.157   0.651
  684SOL    HW2 2075   2.164   0.000   0.695
  685SOL     OW 2076   2.885   0.766   0.966
  685SOL    HW1 2077   2.900   0.787   1.062
  685SOL    HW2 2078   2.855   0.671   0.957
  686SOL     OW 2079   2.842   1.573   1.700
  686SOL    HW1 2080   2.822   1.617   1.612
  686SOL    HW2 2081   2.881   1.482   1.684
  687SOL     OW 2082   2.212   0.898   1.804
  687SOL    HW1 2083   2.288   0.942   1.852
  687SOL    HW2 2084   2.247   0.851   1.722
  688SOL     OW 2085   2.930   1.333   0.849
  688SOL    HW1 2086   2.937   1.249   0.794
  688SOL    HW2 2087   2.992   1.402   0.813
  689SOL     OW 2088   2.181   0.810   0.949
  689SOL    HW1 2089   2.274   0.846   0.954
  689SOL    HW2 2090   2.175   0.725   1.001
  690SOL     OW 2091   2.201   0.509   1.006
  690SOL    HW1 2092   2.149   0.426   0.989
  690SOL    HW2 2093   2.278   0.514   0.942
  691SOL     OW 2094   3.000   0.380   1.678
  691SOL    HW1 2095   2.955   0.443   1.742
  691SOL    HW2 2096   3.093   0.411   1.661
  692SOL     OW 2097   3.022   0.207   1.477
  692SOL    HW1 2098   3.022   0.271   1.554
  692SOL    HW2 2099   3.050   0.255   1.394
  693SOL     OW 2100   1.870   1.326   0.200
  693SOL    HW1 2101   1.777   1.347   0.169
  693SOL    HW2 2102   1.880   1.227   0.213
  694SOL     OW 2103   1.950   1.801   0.927
  694SOL    HW1 2104   1.908   1.715   0.900
  694SOL    HW2 2105   2.044   1.804   0.893
  695SOL     OW 2106   2.366   1.568   0.910
  695SOL    HW1 2107   2.432   1.642   0.919
  695SOL    HW2 2108   2.410   1.489   0.868
  696SOL     OW 2109   2.864   0.796   1.238
  696SOL    HW1 2110   2.905   0.764   1.324
  696SOL    HW2 2111   2.768   0.769   1.235
  697SOL     OW 2112   1.902   0.544   1.114
  697SOL    HW1 2113   1.987   0.511   1.073
  697SOL    HW2 2114   1.915   0.559   1.212
  698SOL     OW 2115   2.051   0.520   1.722
  698SOL    HW1 2116   2.110   0.480   1.652
  698SOL    HW2 2117   1.993   0.591   1.681
  699SOL     OW 2118   2.677   0.572   0.325
  699SOL    HW1 2119   2.684   0.483   0.279
  699SOL    HW2 2120   2.583   0.606   0.317
  700SOL     OW 2121   2.114   1.564   1.744
  700SOL    HW1 2122   2.084   1.621   1.820
  700SOL    HW2 2123   2.107   1.467   1.770
  701SOL     OW 2124   2.533   0.464   1.269
  701SOL    HW1 2125   2.499   0.375   1.239
  701SOL    HW2 2126   2.559   0.518   1.189
  702SOL     OW 2127   2.792   1.678   1.465
  702SOL    HW1 2128   2.768   1.660   1.370
  702SOL    HW2 2129   2.822   1.772   1.475
  703SOL     OW 2130   2.335   0.500   0.191
  703SOL    HW1 2131   2.396   0.580   0.195
  703SOL    HW2 2132   2.240   0.531   0.198
  704SOL     OW 2133   2.021   1.137   1.466
  704SOL    HW1 2134   2.043   1.076   1.542
  704SOL    HW2 2135   2.031   1.088   1.380
  705SOL     OW 2136   3.114   1.731   1.128
  705SOL    HW1 2137   3.198   1.736   1.074
  705SOL    HW2 2138   3.091   1.635   1.146
  706SOL     OW 2139   2.550   1.662   1.716
  706SOL    HW1 2140   2.494   1.743   1.725
  706SOL    HW2 2141   2.602   1.666   1.630
  707SOL     OW 2142   2.765   0.086   0.133
  707SOL    HW1 2143   2.816   0.087   0.047
  707SOL    HW2 2144   2.821   0.044   0.204
  708SOL     OW 2145   1.992   1.794   1.851
  708SOL    HW1 2146   1.951   1.720   1.904
  708SOL    HW2 2147   2.056   1.845   1.909
  709SOL     OW 2148   2.692   1.273   1.422
  709SOL    HW1 2149   2.687   1.306   1.517
  709SOL    HW2 2150   2.606   1.292   1.376
  710SOL     OW 2151   2.534   1.616   0.154
  710SOL    HW1 2152   2.543   1.626   0.055
  710SOL    HW2 2153   2.494   1.527   0.175
  711SOL     OW 2154   2.125   0.326   0.720
  711SOL    HW1 2155   2.046   0.377   0.686
  711SOL    HW2 2156   2.116   0.311   0.818
  712SOL     OW 2157   2.684   1.002   1.372
  712SOL    HW1 2158   2.724   1.001   1.280
  712SOL    HW2 2159   2.694   1.094   1.412
  713SOL     OW 2160   2.778   0.910   0.291
  713SOL    HW1 2161   2.841   0.948   0.223
  713SOL    HW2 2162   2.818   0.827   0.330
  714SOL     OW 2163   2.234   1.288   1.490
  714SOL    HW1 2164   2.221   1.381   1.456
  714SOL    HW2 2165   2.150   1.236   1.477
  715SOL     OW 2166   2.901   1.098   0.696
  715SOL    HW1 2167   2.831   1.051   0.750
  715SOL    HW2 2168   2.960   1.030   0.653
  716SOL     OW 2169   2.876   0.236   0.971
  716SOL    HW1 2170   2.868   0.200   0.878
  716SOL    HW2 2171   2.874   0.160   1.036
  717SOL     OW 2172   2.452   1.487   0.491
  717SOL    HW1 2173   2.494   1.429   0.421
  717SOL    HW2 2174   2.408   1.566   0.447
  718SOL     OW 2175   2.117   1.348   0.290
  718SOL    HW1 2176   2.021   1.349   0.263
  718SOL    HW2 2177   2.129   1.401   0.374
  719SOL     OW 2178   1.967   1.013   1.726
  719SOL    HW1 2179   1.890   0.980   1.780
  719SOL    HW2 2180   2.052   0.983   1.768
  720SOL     OW 2181   2.534   0.203   1.489
  720SOL    HW1 2182   2.624   0.187   1.449
  720SOL    HW2 2183   2.542   0.208   1.588
  721SOL     OW 2184   1.934   0.166   0.318
  721SOL    HW1 2185   1.917   0.249   0.264
  721SOL    HW2 2186   2.024   0.129   0.296
  722SOL     OW 2187   2.475   0.842   1.431
  722SOL    HW1 2188   2.531   0.923   1.414
  722SOL    HW2 2189   2.534   0.762   1.434
  723SOL     OW 2190   2.578   0.565   1.708
  723SOL    HW1 2191   2.597   0.630   1.782
  723SOL    HW2 2192   2.638   0.485   1.717
  724SOL     OW 2193   2.252   1.741   1.560
  724SOL    HW1 2194   2.161   1.782   1.558
  724SOL    HW2 2195   2.245   1.647   1.592
  725SOL     OW 2196   2.456   0.745   0.652
  725SOL    HW1 2197   2.506   0.830   0.633
  725SOL    HW2 2198   2.368   0.747   0.604
  726SOL     OW 2199   2.721   1.374   0.016
  726SOL    HW1 2200   2.675   1.389   0.104
  726SOL    HW2 2201   2.765   1.459  -0.014
  727SOL     OW 2202   2.523   1.790   0.953
  727SOL    HW1 2203   2.477   1.878   0.940
  727SOL    HW2 2204   2.622   1.802   0.946
  728SOL     OW 2205   2.721   0.956   0.861
  728SOL    HW1 2206   2.775   0.887   0.909
  728SOL    HW2 2207   2.689   1.025   0.927
  729SOL     OW 2208   2.945   0.984   0.087
  729SOL    HW1 2209   2.922   1.037   0.005
  729SOL    HW2 2210   3.026   0.928   0.068
  730SOL     OW 2211   2.083   1.314   1.844
  730SOL    HW1 2212   2.018   1.241   1.823
  730SOL    HW2 2213   2.087   1.328   1.942
  731SOL     OW 2214   1.941   1.240   0.653
  731SOL    HW1 2215   1.940   1.193   0.741
  731SOL    HW2 2216   2.023   1.212   0.602
  732SOL     OW 2217   2.534   1.391   1.624
  732SOL    HW1 2218   2.456   1.341   1.662
  732SOL    HW2 2219   2.531   1.486   1.655
  733SOL     OW 2220   2.290   0.424   0.520
  733SOL    HW1 2221   2.320   0.352   0.458
  733SOL    HW2 2222   2.251   0.384   0.603
  734SOL     OW 2223   2.179   0.547   1.280
  734SOL    HW1 2224   2.217   0.488   1.352
  734SOL    HW2 2225   2.219   0.521   1.192
  735SOL     OW 2226   2.674   1.586   0.687
  735SOL    HW1 2227   2.706   1.596   0.593
  735SOL    HW2 2228   2.595   1.524   0.689
  736SOL     OW 2229   2.863   0.034   1.154
  736SOL    HW1 2230   2.800  -0.038   1.123
  736SOL    HW2 2231   2.956  -0.002   1.154
  737SOL     OW 2232   2.632   1.330   0.301
  737SOL    HW1 2233   2.586   1.243   0.318
  737SOL    HW2 2234   2.723   1.327   0.342
  738SOL     OW 2235   2.480   1.567   1.284
  738SOL    HW1 2236   2.475   1.649   1.341
  738SOL    HW2 2237   2.569   1.564   1.239
  739SOL     OW 2238   1.901   1.077   0.300
  739SOL    HW1 2239   2.000   1.066   0.291
  739SOL    HW2 2240   1.861   0.991   0.332
  740SOL     OW 2241   2.737   1.646   0.337
  740SOL    HW1 2242   2.660   1.611   0.283
  740SOL    HW2 2243   2.705   1.717   0.399
  741SOL     OW 2244   2.092   0.628   1.975
  741SOL    HW1 2245   1.999   0.626   2.012
  741SOL    HW2 2246   2.093   0.589   1.883
  742SOL     OW 2247   2.087   0.275   2.858
  742SOL    HW1 2248   2.122   0.258   2.950
  742SOL    HW2 2249   1.999   0.230   2.846
  743SOL     OW 2250   1.881   0.368   2.509
  743SOL    HW1 2251   1.799   0.411   2.548
  743SOL    HW2 2252   1.853   0.295   2.446
  744SOL     OW 2253   2.431   1.275   3.027
  744SOL    HW1 2254   2.338   1.268   2.990
  744SOL    HW2 2255   2.442   1.364   3.071
  745SOL     OW 2256   2.997   0.703   2.579
  745SOL    HW1 2257   3.054   0.781   2.554
  745SOL    HW2 2258   2.937   0.729   2.655
  746SOL     OW 2259   2.630   1.144   2.885
  746SOL    HW1 2260   2.552   1.161   2.945
  746SOL    HW2 2261   2.664   1.231   2.849
  747SOL     OW 2262   2.547   1.012   2.527
  747SOL    HW1 2263   2.616   0.996   2.597
  747SOL    HW2 2264   2.474   1.069   2.565
  748SOL     OW 2265   2.197   1.435   2.923
  748SOL    HW1 2266   2.119   1.404   2.870
  748SOL    HW2 2267   2.255   1.493   2.866
  749SOL     OW 2268   2.093   1.713   2.345
  749SOL    HW1 2269   2.127   1.790   2.399
  749SOL    HW2 2270   2.137   1.713   2.255
  750SOL     OW 2271   2.092   1.434   2.400
  750SOL    HW1 2272   2.066   1.530   2.400
  750SOL    HW2 2273   2.021   1.380   2.445
  751SOL     OW 2274   2.102   1.091   2.748
  751SOL    HW1 2275   2.116   1.007   2.800
  751SOL    HW2 2276   2.047   1.155   2.803
  752SOL     OW 2277   2.468   0.964   1.985
  752SOL    HW1 2278   2.475   1.048   1.931
  752SOL    HW2 2279   2.514   0.977   2.073
  753SOL     OW 2280   1.984   0.643   2.425
  753SOL    HW1 2281   1.939   0.555   2.442
  753SOL    HW2 2282   1.983   0.697   2.509
  754SOL     OW 2283   1.889   1.596   1.979
  754SOL    HW1 2284   1.870   1.500   2.000
  754SOL    HW2 2285   1.856   1.654   2.054
  755SOL     OW 2286   2.475   1.365   2.588
  755SOL    HW1 2287   2.426   1.278   2.597
  755SOL    HW2 2288   2.452   1.408   2.501
  756SOL     OW 2289   2.671   0.004   2.364
  756SOL    HW1 2290   2.711   0.095   2.355
  756SOL    HW2 2291   2.571   0.012   2.370
  757SOL     OW 2292   2.059   0.976   3.126
  757SOL    HW1 2293   2.148   0.931   3.112
  757SOL    HW2 2294   1.986   0.911   3.107
  758SOL     OW 2295   2.460   0.729   2.132
  758SOL    HW1 2296   2.484   0.798   2.064
  758SOL    HW2 2297   2.382   0.762   2.186
  759SOL     OW 2298   2.903   0.701   2.291
  759SOL    HW1 2299   2.929   0.697   2.387
  759SOL    HW2 2300   2.818   0.650   2.277
  760SOL     OW 2301   1.938   0.811   2.651
  760SOL    HW1 2302   2.037   0.799   2.660
  760SOL    HW2 2303   1.914   0.906   2.672
  761SOL     OW 2304   2.727   0.348   2.057
  761SOL    HW1 2305   2.786   0.411   2.008
  761SOL    HW2 2306   2.746   0.254   2.028
  762SOL     OW 2307   2.412   0.196   2.747
  762SOL    HW1 2308   2.407   0.191   2.847
  762SOL    HW2 2309   2.414   0.292   2.718
  763SOL     OW 2310   2.870   1.456   2.339
  763SOL    HW1 2311   2.824   1.528   2.287
  763SOL    HW2 2312   2.866   1.476   2.437
  764SOL     OW 2313   2.213   1.801   2.715
  764SOL    HW1 2314   2.263   1.715   2.721
  764SOL    HW2 2315   2.278   1.878   2.712
  765SOL     OW 2316   2.183   0.943   2.104
  765SOL    HW1 2317   2.265   0.982   2.062
  765SOL    HW2 2318   2.156   0.861   2.055
  766SOL     OW 2319   2.973   1.776   2.099
  766SOL    HW1 2320   2.913   1.714   2.149
  766SOL    HW2 2321   3.004   1.732   2.014
  767SOL     OW 2322   2.326   1.743   2.185
  767SOL    HW1 2323   2.359   1.782   2.271
  767SOL    HW2 2324   2.402   1.736   2.120
  768SOL     OW 2325   2.111   1.785   3.103
  768SOL    HW1 2326   2.168   1.720   3.153
  768SOL    HW2 2327   2.095   1.752   3.010
  769SOL     OW 2328   2.802   1.698   2.766
  769SOL    HW1 2329   2.882   1.641   2.787
  769SOL    HW2 2330   2.753   1.658   2.689
  770SOL     OW 2331   2.244   0.700   2.342
  770SOL    HW1 2332   2.289   0.610   2.339
  770SOL    HW2 2333   2.150   0.689   2.375
  771SOL     OW 2334   2.476   0.122   1.979
  771SOL    HW1 2335   2.574   0.100   1.986
  771SOL    HW2 2336   2.445   0.105   1.886
  772SOL     OW 2337   2.665   1.402   2.786
  772SOL    HW1 2338   2.755   1.416   2.744
  772SOL    HW2 2339   2.594   1.404   2.715
  773SOL     OW 2340   2.784   0.503   2.761
  773SOL    HW1 2341   2.759   0.494   2.665
  773SOL    HW2 2342   2.832   0.421   2.792
  774SOL     OW 2343   2.401   0.064   2.374
  774SOL    HW1 2344   2.320   0.065   2.432
  774SOL    HW2 2345   2.404   0.147   2.319
  775SOL     OW 2346   2.159   0.035   2.033
  775SOL    HW1 2347   2.208   0.119   2.012
  775SOL    HW2 2348   2.221  -0.030   2.078
  776SOL     OW 2349   2.797   0.236   2.342
  776SOL    HW1 2350   2.749   0.277   2.264
  776SOL    HW2 2351   2.896   0.234   2.323
  777SOL     OW 2352   3.089   1.570   2.655
  777SOL    HW1 2353   3.110   1.644   2.590
  777SOL    HW2 2354   3.157   1.570   2.728
  778SOL     OW 2355   2.321   1.152   2.603
  778SOL    HW1 2356   2.250   1.125   2.668
  778SOL    HW2 2357   2.295   1.124   2.510
  779SOL     OW 2358   3.133   1.797   2.453
  779SOL    HW1 2359   3.177   1.861   2.389
  779SOL    HW2 2360   3.083   1.849   2.523
  780SOL     OW 2361   2.894   0.549   1.878
  780SOL    HW1 2362   2.853   0.631   1.839
  780SOL    HW2 2363   2.958   0.575   1.951
  781SOL     OW 2364   2.423   0.222   3.009
  781SOL    HW1 2365   2.461   0.138   3.046
  781SOL    HW2 2366   2.335   0.241   3.053
  782SOL     OW 2367   2.728   0.454   2.504
  782SOL    HW1 2368   2.696   0.526   2.442
  782SOL    HW2 2369   2.752   0.373   2.451
  783SOL     OW 2370   2.879   0.039   2.615
  783SOL    HW1 2371   2.807   0.044   2.546
  783SOL    HW2 2372   2.855  -0.030   2.684
  784SOL     OW 2373   2.350   1.385   2.036
  784SOL    HW1 2374   2.263   1.370   2.083
  784SOL    HW2 2375   2.333   1.411   1.941
  785SOL     OW 2376   2.389   0.256   2.190
  785SOL    HW1 2377   2.416   0.197   2.115
  785SOL    HW2 2378   2.389   0.351   2.159
  786SOL     OW 2379   2.973   1.195   2.962
  786SOL    HW1 2380   2.933   1.239   3.043
  786SOL    HW2 2381   2.932   1.232   2.879
  787SOL     OW 2382   2.567   1.050   2.230
  787SOL    HW1 2383   2.553   1.057   2.329
  787SOL    HW2 2384   2.651   0.999   2.212
  788SOL     OW 2385   2.272   0.813   3.113
  788SOL    HW1 2386   2.358   0.825   3.163
  788SOL    HW2 2387   2.230   0.726   3.140
  789SOL     OW 2388   2.229   1.100   2.363
  789SOL    HW1 2389   2.222   1.183   2.307
  789SOL    HW2 2390   2.233   1.020   2.303
  790SOL     OW 2391   2.428   0.537   2.727
  790SOL    HW1 2392   2.440   0.603   2.653
  790SOL    HW2 2393   2.474   0.571   2.810
  791SOL     OW 2394   3.114   1.348   2.250
  791SOL    HW1 2395   3.164   1.425   2.290
  791SOL    HW2 2396   3.019   1.350   2.282
  792SOL     OW 2397   2.435   0.870   2.891
  792SOL    HW1 2398   2.479   0.959   2.882
  792SOL    HW2 2399   2.372   0.870   2.968
  793SOL     OW 2400   3.222   0.862   2.907
  793SOL    HW1 2401   3.147   0.862   2.841
  793SOL    HW2 2402   3.259   0.770   2.916
  794SOL     OW 2403   3.071   0.525   2.137
  794SOL    HW1 2404   3.084   0.441   2.191
  794SOL    HW2 2405   3.042   0.599   2.197
  795SOL     OW 2406   2.169   0.213   3.093
  795SOL    HW1 2407   2.146   0.250   3.183
  795SOL    HW2 2408   2.139   0.118   3.087
  796SOL     OW 2409   1.899   1.310   3.144
  796SOL    HW1 2410   1.952   1.261   3.212
  796SOL    HW2 2411   1.921   1.408   3.149
  797SOL     OW 2412   2.594   0.634   2.926
  797SOL    HW1 2413   2.653   0.608   2.850
  797SOL    HW2 2414   2.566   0.730   2.915
  798SOL     OW 2415   2.169   0.063   2.480
  798SOL    HW1 2416   2.158   0.157   2.513
  798SOL    HW2 2417   2.164   0.000   2.557
  799SOL     OW 2418   2.885   0.766   2.828
  799SOL    HW1 2419   2.900   0.787   2.924
  799SOL    HW2 2420   2.855   0.671   2.819
  800SOL     OW 2421   3.402   0.274   1.987
  800SOL    HW1 2422   3.341   0.199   2.010
  800SOL    HW2 2423   3.424   0.326   2.070
  801SOL     OW 2424   2.930   1.333   2.711
  801SOL    HW1 2425   2.937   1.249   2.656
  801SOL    HW2 2426   2.992   1.402   2.675
  802SOL     OW 2427   2.181   0.810   2.811
  802SOL    HW1 2428   2.274   0.846   2.816
  802SOL    HW2 2429   2.175   0.725   2.863
  803SOL     OW 2430   2.201   0.509   2.868
  803SOL    HW1 2431   2.149   0.426   2.851
  803SOL    HW2 2432   2.278   0.514   2.804
  804SOL     OW 2433   3.022   0.207   3.339
  804SOL    HW1 2434   3.022   0.271   3.416
  804SOL    HW2 2435   3.050   0.255   3.256
  805SOL     OW 2436   1.870   1.326   2.062
  805SOL    HW1 2437   1.777   1.347   2.031
  805SOL    HW2 2438   1.880   1.227   2.075
  806SOL     OW 2439   1.950   1.801   2.789
  806SOL    HW1 2440   1.908   1.715   2.762
  806SOL    HW2 2441   2.044   1.804   2.755
  807SOL     OW 2442   2.366   1.568   2.772
  807SOL    HW1 2443   2.432   1.642   2.781
  807SOL    HW2 2444   2.410   1.489   2.730
  808SOL     OW 2445   2.864   0.796   3.100
  808SOL    HW1 2446   2.905   0.764   3.186
  808SOL    HW2 2447   2.768   0.769   3.097
  809SOL     OW 2448   1.902   0.544   2.976
  809SOL    HW1 2449   1.987   0.511   2.935
  809SOL    HW2 2450   1.915   0.559   3.074
  810SOL     OW 2451   2.677   0.572   2.187
  810SOL    HW1 2452   2.684   0.483   2.141
  810SOL    HW2 2453   2.583   0.606   2.179
  811SOL     OW 2454   2.533   0.464   3.131
  811SOL    HW1 2455   2.499   0.375   3.101
  811SOL    HW2 2456   2.559   0.518   3.051
  812SOL     OW 2457   2.792   1.678   3.327
  812SOL    HW1 2458   2.768   1.660   3.232
  812SOL    HW2 2459   2.822   1.772   3.337
  813SOL     OW 2460   2.335   0.500   2.053
  813SOL    HW1 2461   2.396   0.580   2.057
  813SOL    HW2 2462   2.240   0.531   2.060
  814SOL     OW 2463   3.114   1.731   2.990
  814SOL    HW1 2464   3.198   1.736   2.936
  814SOL    HW2 2465   3.091   1.635   3.008
  815SOL     OW 2466   1.945   1.258   2.884
  815SOL    HW1 2467   1.940   1.257   2.984
  815SOL    HW2 2468   1.862   1.217   2.846
  816SOL     OW 2469   2.534   1.616   2.016
  816SOL    HW1 2470   2.543   1.626   1.917
  816SOL    HW2 2471   2.494   1.527   2.037
  817SOL     OW 2472   2.125   0.326   2.582
  817SOL    HW1 2473   2.046   0.377   2.548
  817SOL    HW2 2474   2.116   0.311   2.680
  818SOL     OW 2475   2.684   1.002   3.234
  818SOL    HW1 2476   2.724   1.001   3.142
  818SOL    HW2 2477   2.694   1.094   3.274
  819SOL     OW 2478   2.778   0.910   2.153
  819SOL    HW1 2479   2.841   0.948   2.085
  819SOL    HW2 2480   2.818   0.827   2.192
  820SOL     OW 2481   3.476   1.292   3.151
  820SOL    HW1 2482   3.536   1.295   3.231
  820SOL    HW2 2483   3.401   1.356   3.164
  821SOL     OW 2484   2.901   1.098   2.558
  821SOL    HW1 2485   2.831   1.051   2.612
  821SOL    HW2 2486   2.960   1.030   2.515
  822SOL     OW 2487   2.876   0.236   2.833
  822SOL    HW1 2488   2.868   0.200   2.740
  822SOL    HW2 2489   2.874   0.160   2.898
  823SOL     OW 2490   2.452   1.487   2.353
  823SOL    HW1 2491   2.494   1.429   2.283
  823SOL    HW2 2492   2.408   1.566   2.309
  824SOL     OW 2493   2.117   1.348   2.152
  824SOL    HW1 2494   2.021   1.349   2.125
  824SOL    HW2 2495   2.129   1.401   2.236
  825SOL     OW 2496   1.937   0.345   1.895
  825SOL    HW1 2497   1.845   0.317   1.866
  825SOL    HW2 2498   1.968   0.422   1.839
  826SOL     OW 2499   1.934   0.166   2.180
  826SOL    HW1 2500   1.917   0.249   2.126
  826SOL    HW2 2501   2.024   0.129   2.158
  827SOL     OW 2502   2.456   0.745   2.514
  827SOL    HW1 2503   2.506   0.830   2.495
  827SOL    HW2 2504   2.368   0.747   2.466
  828SOL     OW 2505   2.721   1.374   1.878
  828SOL    HW1 2506   2.675   1.389   1.966
  828SOL    HW2 2507   2.765   1.459   1.848
  829SOL     OW 2508   2.523   1.790   2.815
  829SOL    HW1 2509   2.477   1.878   2.802
  829SOL    HW2 2510   2.622   1.802   2.808
  830SOL     OW 2511   2.721   0.956   2.723
  830SOL    HW1 2512   2.775   0.887   2.771
  830SOL    HW2 2513   2.689   1.025   2.789
  831SOL     OW 2514   2.945   0.984   1.949
  831SOL    HW1 2515   2.922   1.037   1.867
  831SOL    HW2 2516   3.026   0.928   1.930
  832SOL     OW 2517   1.941   1.240   2.515
  832SOL    HW1 2518   1.940   1.193   2.603
  832SOL    HW2 2519   2.023   1.212   2.464
  833SOL     OW 2520   2.290   0.424   2.382
  833SOL    HW1 2521   2.320   0.352   2.320
  833SOL    HW2 2522   2.251   0.384   2.465
  834SOL     OW 2523   2.674   1.586   2.549
  834SOL    HW1 2524   2.706   1.596   2.455
  834SOL    HW2 2525   2.595   1.524   2.551
  835SOL     OW 2526   2.863   0.034   3.016
  835SOL    HW1 2527   2.800  -0.038   2.985
  835SOL    HW2 2528   2.956  -0.002   3.016
  836SOL     OW 2529   2.632   1.330   2.163
  836SOL    HW1 2530   2.586   1.243   2.180
  836SOL    HW2 2531   2.723   1.327   2.204
  837SOL     OW 2532   1.901   1.077   2.162
  837SOL    HW1 2533   2.000   1.066   2.153
  837SOL    HW2 2534   1.861   0.991   2.194
  838SOL     OW 2535   2.737   1.646   2.199
  838SOL    HW1 2536   2.660   1.611   2.145
  838SOL    HW2 2537   2.705   1.717   2.261
  839SOL     OW 2538   2.092   2.490   0.113
  839SOL    HW1 2539   1.999   2.488   0.150
  839SOL    HW2 2540   2.093   2.451   0.021
  840SOL     OW 2541   2.087   2.137   0.996
  840SOL    HW1 2542   2.122   2.120   1.088
  840SOL    HW2 2543   1.999   2.092   0.984
  841SOL     OW 2544   1.881   2.230   0.647
  841SOL    HW1 2545   1.799   2.273   0.686
  841SOL    HW2 2546   1.853   2.157   0.584
  842SOL     OW 2547   2.997   2.565   0.717
  842SOL    HW1 2548   3.054   2.643   0.692
  842SOL    HW2 2549   2.937   2.591   0.793
  843SOL     OW 2550   2.630   3.006   1.023
  843SOL    HW1 2551   2.552   3.023   1.083
  843SOL    HW2 2552   2.664   3.093   0.987
  844SOL     OW 2553   2.712   2.660   1.823
  844SOL    HW1 2554   2.708   2.736   1.888
  844SOL    HW2 2555   2.734   2.696   1.732
  845SOL     OW 2556   2.547   2.874   0.665
  845SOL    HW1 2557   2.616   2.858   0.735
  845SOL    HW2 2558   2.474   2.931   0.703
  846SOL     OW 2559   2.548   3.023   1.803
  846SOL    HW1 2560   2.608   3.102   1.817
  846SOL    HW2 2561   2.462   3.054   1.762
  847SOL     OW 2562   2.300   2.254   1.499
  847SOL    HW1 2563   2.382   2.198   1.508
  847SOL    HW2 2564   2.219   2.196   1.503
  848SOL     OW 2565   2.102   2.953   0.886
  848SOL    HW1 2566   2.116   2.869   0.938
  848SOL    HW2 2567   2.047   3.017   0.941
  849SOL     OW 2568   2.468   2.826   0.123
  849SOL    HW1 2569   2.475   2.910   0.069
  849SOL    HW2 2570   2.514   2.839   0.211
  850SOL     OW 2571   1.984   2.505   0.563
  850SOL    HW1 2572   1.939   2.417   0.580
  850SOL    HW2 2573   1.983   2.559   0.647
  851SOL     OW 2574   1.889   3.458   0.117
  851SOL    HW1 2575   1.870   3.362   0.138
  851SOL    HW2 2576   1.856   3.516   0.192
  852SOL     OW 2577   1.975   2.599   1.597
  852SOL    HW1 2578   2.063   2.586   1.642
  852SOL    HW2 2579   1.962   2.696   1.575
  853SOL     OW 2580   2.671   1.866   0.502
  853SOL    HW1 2581   2.711   1.957   0.493
  853SOL    HW2 2582   2.571   1.874   0.508
  854SOL     OW 2583   2.059   2.838   1.264
  854SOL    HW1 2584   2.148   2.793   1.250
  854SOL    HW2 2585   1.986   2.773   1.245
  855SOL     OW 2586   2.179   2.113   1.801
  855SOL    HW1 2587   2.250   2.184   1.807
  855SOL    HW2 2588   2.091   2.152   1.829
  856SOL     OW 2589   2.460   2.591   0.270
  856SOL    HW1 2590   2.484   2.660   0.202
  856SOL    HW2 2591   2.382   2.624   0.324
  857SOL     OW 2592   2.669   2.467   1.465
  857SOL    HW1 2593   2.622   2.464   1.554
  857SOL    HW2 2594   2.618   2.412   1.399
  858SOL     OW 2595   2.835   2.752   1.572
  858SOL    HW1 2596   2.881   2.668   1.543
  858SOL    HW2 2597   2.779   2.786   1.497
  859SOL     OW 2598   2.853   2.272   1.242
  859SOL    HW1 2599   2.776   2.306   1.296
  859SOL    HW2 2600   2.819   2.221   1.163
  860SOL     OW 2601   2.903   2.563   0.429
  860SOL    HW1 2602   2.929   2.559   0.525
  860SOL    HW2 2603   2.818   2.512   0.415
  861SOL     OW 2604   1.938   2.673   0.789
  861SOL    HW1 2605   2.037   2.661   0.798
  861SOL    HW2 2606   1.914   2.768   0.810
  862SOL     OW 2607   2.727   2.210   0.195
  862SOL    HW1 2608   2.786   2.273   0.146
  862SOL    HW2 2609   2.746   2.116   0.166
  863SOL     OW 2610   2.412   2.058   0.885
  863SOL    HW1 2611   2.407   2.053   0.985
  863SOL    HW2 2612   2.414   2.154   0.856
  864SOL     OW 2613   2.183   2.805   0.242
  864SOL    HW1 2614   2.265   2.844   0.200
  864SOL    HW2 2615   2.156   2.723   0.193
  865SOL     OW 2616   2.064   2.147   1.498
  865SOL    HW1 2617   1.984   2.207   1.485
  865SOL    HW2 2618   2.054   2.098   1.584
  866SOL     OW 2619   2.244   2.562   0.480
  866SOL    HW1 2620   2.289   2.472   0.477
  866SOL    HW2 2621   2.150   2.551   0.513
  867SOL     OW 2622   2.476   1.984   0.117
  867SOL    HW1 2623   2.574   1.962   0.124
  867SOL    HW2 2624   2.445   1.967   0.024
  868SOL     OW 2625   2.643   2.126   1.749
  868SOL    HW1 2626   2.710   2.065   1.792
  868SOL    HW2 2627   2.570   2.145   1.814
  869SOL     OW 2628   2.665   3.264   0.924
  869SOL    HW1 2629   2.755   3.278   0.882
  869SOL    HW2 2630   2.594   3.266   0.853
  870SOL     OW 2631   2.784   2.365   0.899
  870SOL    HW1 2632   2.759   2.356   0.803
  870SOL    HW2 2633   2.832   2.283   0.930
  871SOL     OW 2634   2.401   1.926   0.512
  871SOL    HW1 2635   2.320   1.927   0.570
  871SOL    HW2 2636   2.404   2.009   0.457
  872SOL     OW 2637   2.159   1.897   0.171
  872SOL    HW1 2638   2.208   1.981   0.150
  872SOL    HW2 2639   2.221   1.832   0.216
  873SOL     OW 2640   2.797   2.098   0.480
  873SOL    HW1 2641   2.749   2.139   0.402
  873SOL    HW2 2642   2.896   2.096   0.461
  874SOL     OW 2643   2.938   2.545   1.464
  874SOL    HW1 2644   2.858   2.484   1.467
  874SOL    HW2 2645   3.019   2.492   1.440
  875SOL     OW 2646   2.321   3.014   0.741
  875SOL    HW1 2647   2.250   2.987   0.806
  875SOL    HW2 2648   2.295   2.986   0.648
  876SOL     OW 2649   2.894   2.411   0.016
  876SOL    HW1 2650   2.853   2.493  -0.023
  876SOL    HW2 2651   2.958   2.437   0.089
  877SOL     OW 2652   1.940   2.418   1.386
  877SOL    HW1 2653   2.032   2.417   1.345
  877SOL    HW2 2654   1.934   2.492   1.453
  878SOL     OW 2655   2.423   2.084   1.147
  878SOL    HW1 2656   2.461   2.000   1.184
  878SOL    HW2 2657   2.335   2.103   1.191
  879SOL     OW 2658   2.728   2.316   0.642
  879SOL    HW1 2659   2.696   2.388   0.580
  879SOL    HW2 2660   2.752   2.235   0.589
  880SOL     OW 2661   2.879   1.901   0.753
  880SOL    HW1 2662   2.807   1.906   0.684
  880SOL    HW2 2663   2.855   1.832   0.822
  881SOL     OW 2664   2.389   2.118   0.328
  881SOL    HW1 2665   2.416   2.059   0.253
  881SOL    HW2 2666   2.389   2.213   0.297
  882SOL     OW 2667   2.777   1.951   1.402
  882SOL    HW1 2668   2.802   1.931   1.307
  882SOL    HW2 2669   2.849   2.007   1.444
  883SOL     OW 2670   2.842   2.978   1.719
  883SOL    HW1 2671   2.743   2.984   1.729
  883SOL    HW2 2672   2.865   2.898   1.663
  884SOL     OW 2673   2.567   2.912   0.368
  884SOL    HW1 2674   2.553   2.919   0.467
  884SOL    HW2 2675   2.651   2.861   0.350
  885SOL     OW 2676   2.272   2.675   1.251
  885SOL    HW1 2677   2.358   2.687   1.301
  885SOL    HW2 2678   2.230   2.588   1.278
  886SOL     OW 2679   2.229   2.962   0.501
  886SOL    HW1 2680   2.222   3.045   0.445
  886SOL    HW2 2681   2.233   2.882   0.441
  887SOL     OW 2682   2.428   2.399   0.865
  887SOL    HW1 2683   2.440   2.465   0.791
  887SOL    HW2 2684   2.474   2.433   0.948
  888SOL     OW 2685   2.264   2.613   1.598
  888SOL    HW1 2686   2.332   2.668   1.551
  888SOL    HW2 2687   2.304   2.525   1.625
  889SOL     OW 2688   2.875   1.967   1.770
  889SOL    HW1 2689   2.881   2.052   1.718
  889SOL    HW2 2690   2.907   1.891   1.713
  890SOL     OW 2691   2.366   1.912   1.740
  890SOL    HW1 2692   2.324   1.855   1.670
  890SOL    HW2 2693   2.300   1.981   1.772
  891SOL     OW 2694   2.435   2.732   1.029
  891SOL    HW1 2695   2.479   2.821   1.020
  891SOL    HW2 2696   2.372   2.732   1.106
  892SOL     OW 2697   3.222   2.724   1.045
  892SOL    HW1 2698   3.147   2.724   0.979
  892SOL    HW2 2699   3.259   2.632   1.054
  893SOL     OW 2700   3.071   2.387   0.275
  893SOL    HW1 2701   3.084   2.303   0.329
  893SOL    HW2 2702   3.042   2.461   0.335
  894SOL     OW 2703   2.169   2.075   1.231
  894SOL    HW1 2704   2.146   2.112   1.321
  894SOL    HW2 2705   2.139   1.980   1.225
  895SOL     OW 2706   2.594   2.496   1.064
  895SOL    HW1 2707   2.653   2.470   0.988
  895SOL    HW2 2708   2.566   2.592   1.053
  896SOL     OW 2709   2.169   1.925   0.618
  896SOL    HW1 2710   2.158   2.019   0.651
  896SOL    HW2 2711   2.164   1.862   0.695
  897SOL     OW 2712   2.885   2.628   0.966
  897SOL    HW1 2713   2.900   2.649   1.062
  897SOL    HW2 2714   2.855   2.533   0.957
  898SOL     OW 2715   2.212   2.760   1.804
  898SOL    HW1 2716   2.288   2.804   1.852
  898SOL    HW2 2717   2.247   2.713   1.722
  899SOL     OW 2718   2.181   2.672   0.949
  899SOL    HW1 2719   2.274   2.708   0.954
  899SOL    HW2 2720   2.175   2.587   1.001
  900SOL     OW 2721   2.201   2.371   1.006
  900SOL    HW1 2722   2.149   2.288   0.989
  900SOL    HW2 2723   2.278   2.376   0.942
  901SOL     OW 2724   3.000   2.242   1.678
  901SOL    HW1 2725   2.955   2.305   1.742
  901SOL    HW2 2726   3.093   2.273   1.661
  902SOL     OW 2727   3.022   2.069   1.477
  902SOL    HW1 2728   3.022   2.133   1.554
  902SOL    HW2 2729   3.050   2.117   1.394
  903SOL     OW 2730   1.870   3.188   0.200
  903SOL    HW1 2731   1.777   3.209   0.169
  903SOL    HW2 2732   1.880   3.089   0.213
  904SOL     OW 2733   2.864   2.658   1.238
  904SOL    HW1 2734   2.905   2.626   1.324
  904SOL    HW2 2735   2.768   2.631   1.235
  905SOL     OW 2736   1.902   2.406   1.114
  905SOL    HW1 2737   1.987   2.373   1.073
  905SOL    HW2 2738   1.915   2.421   1.212
  906SOL     OW 2739   2.051   2.382   1.722
  906SOL    HW1 2740   2.110   2.342   1.652
  906SOL    HW2 2741   1.993   2.453   1.681
  907SOL     OW 2742   2.677   2.434   0.325
  907SOL    HW1 2743   2.684   2.345   0.279
  907SOL    HW2 2744   2.583   2.468   0.317
  908SOL     OW 2745   2.533   2.326   1.269
  908SOL    HW1 2746   2.499   2.237   1.239
  908SOL    HW2 2747   2.559   2.380   1.189
  909SOL     OW 2748   2.335   2.362   0.191
  909SOL    HW1 2749   2.396   2.442   0.195
  909SOL    HW2 2750   2.240   2.393   0.198
  910SOL     OW 2751   2.021   2.999   1.466
  910SOL    HW1 2752   2.043   2.938   1.542
  910SOL    HW2 2753   2.031   2.950   1.380
  911SOL     OW 2754   1.945   3.120   1.022
  911SOL    HW1 2755   1.940   3.119   1.122
  911SOL    HW2 2756   1.862   3.079   0.984
  912SOL     OW 2757   2.125   2.188   0.720
  912SOL    HW1 2758   2.046   2.239   0.686
  912SOL    HW2 2759   2.116   2.173   0.818
  913SOL     OW 2760   2.684   2.864   1.372
  913SOL    HW1 2761   2.724   2.863   1.280
  913SOL    HW2 2762   2.694   2.956   1.412
  914SOL     OW 2763   2.778   2.772   0.291
  914SOL    HW1 2764   2.841   2.810   0.223
  914SOL    HW2 2765   2.818   2.689   0.330
  915SOL     OW 2766   2.234   3.150   1.490
  915SOL    HW1 2767   2.221   3.243   1.456
  915SOL    HW2 2768   2.150   3.098   1.477
  916SOL     OW 2769   2.901   2.960   0.696
  916SOL    HW1 2770   2.831   2.913   0.750
  916SOL    HW2 2771   2.960   2.892   0.653
  917SOL     OW 2772   2.876   2.098   0.971
  917SOL    HW1 2773   2.868   2.062   0.878
  917SOL    HW2 2774   2.874   2.022   1.036
  918SOL     OW 2775   1.967   2.875   1.726
  918SOL    HW1 2776   1.890   2.842   1.780
  918SOL    HW2 2777   2.052   2.845   1.768
  919SOL     OW 2778   2.534   2.065   1.489
  919SOL    HW1 2779   2.624   2.049   1.449
  919SOL    HW2 2780   2.542   2.070   1.588
  920SOL     OW 2781   1.934   2.028   0.318
  920SOL    HW1 2782   1.917   2.111   0.264
  920SOL    HW2 2783   2.024   1.991   0.296
  921SOL     OW 2784   2.475   2.704   1.431
  921SOL    HW1 2785   2.531   2.785   1.414
  921SOL    HW2 2786   2.534   2.624   1.434
  922SOL     OW 2787   2.578   2.427   1.708
  922SOL    HW1 2788   2.597   2.492   1.782
  922SOL    HW2 2789   2.638   2.347   1.717
  923SOL     OW 2790   3.312   3.082   1.633
  923SOL    HW1 2791   3.303   3.072   1.732
  923SOL    HW2 2792   3.408   3.075   1.607
  924SOL     OW 2793   2.456   2.607   0.652
  924SOL    HW1 2794   2.506   2.692   0.633
  924SOL    HW2 2795   2.368   2.609   0.604
  925SOL     OW 2796   2.721   2.818   0.861
  925SOL    HW1 2797   2.775   2.749   0.909
  925SOL    HW2 2798   2.689   2.887   0.927
  926SOL     OW 2799   2.945   2.846   0.087
  926SOL    HW1 2800   2.922   2.899   0.005
  926SOL    HW2 2801   3.026   2.790   0.068
  927SOL     OW 2802   1.941   3.102   0.653
  927SOL    HW1 2803   1.940   3.055   0.741
  927SOL    HW2 2804   2.023   3.074   0.602
  928SOL     OW 2805   2.290   2.286   0.520
  928SOL    HW1 2806   2.320   2.214   0.458
  928SOL    HW2 2807   2.251   2.246   0.603
  929SOL     OW 2808   2.179   2.409   1.280
  929SOL    HW1 2809   2.217   2.350   1.352
  929SOL    HW2 2810   2.219   2.383   1.192
  930SOL     OW 2811   2.863   1.896   1.154
  930SOL    HW1 2812   2.800   1.824   1.123
  930SOL    HW2 2813   2.956   1.860   1.154
  931SOL     OW 2814   2.632   3.192   0.301
  931SOL    HW1 2815   2.586   3.105   0.318
  931SOL    HW2 2816   2.723   3.189   0.342
  932SOL     OW 2817   1.901   2.939   0.300
  932SOL    HW1 2818   2.000   2.928   0.291
  932SOL    HW2 2819   1.861   2.853   0.332
  933SOL     OW 2820   2.092   2.490   1.975
  933SOL    HW1 2821   1.999   2.488   2.012
  933SOL    HW2 2822   2.093   2.451   1.883
  934SOL     OW 2823   2.087   2.137   2.858
  934SOL    HW1 2824   2.122   2.120   2.950
  934SOL    HW2 2825   1.999   2.092   2.846
  935SOL     OW 2826   1.881   2.230   2.509
  935SOL    HW1 2827   1.799   2.273   2.548
  935SOL    HW2 2828   1.853   2.157   2.446
  936SOL     OW 2829   2.997   2.565   2.579
  936SOL    HW1 2830   3.054   2.643   2.554
  936SOL    HW2 2831   2.937   2.591   2.655
  937SOL     OW 2832   2.630   3.006   2.885
  937SOL    HW1 2833   2.552   3.023   2.945
  937SOL    HW2 2834   2.664   3.093   2.849
  938SOL     OW 2835   2.547   2.874   2.527
  938SOL    HW1 2836   2.616   2.858   2.597
  938SOL    HW2 2837   2.474   2.931   2.565
  939SOL     OW 2838   2.102   2.953   2.748
  939SOL    HW1 2839   2.116   2.869   2.800
  939SOL    HW2 2840   2.047   3.017   2.803
  940SOL     OW 2841   2.468   2.826   1.985
  940SOL    HW1 2842   2.475   2.910   1.931
  940SOL    HW2 2843   2.514   2.839   2.073
  941SOL     OW 2844   1.984   2.505   2.425
  941SOL    HW1 2845   1.939   2.417   2.442
  941SOL    HW2 2846   1.983   2.559   2.509
  942SOL     OW 2847   2.671   1.866   2.364
  942SOL    HW1 2848   2.711   1.957   2.355
  942SOL    HW2 2849   2.571   1.874   2.370
  943SOL     OW 2850   2.059   2.838   3.126
  943SOL    HW1 2851   2.148   2.793   3.112
  943SOL    HW2 2852   1.986   2.773   3.107
  944SOL     OW 2853   2.460   2.591   2.132
  944SOL    HW1 2854   2.484   2.660   2.064
  944SOL    HW2 2855   2.382   2.624   2.186
  945SOL     OW 2856   2.903   2.563   2.291
  945SOL    HW1 2857   2.929   2.559   2.387
  945SOL    HW2 2858   2.818   2.512   2.277
  946SOL     OW 2859   1.938   2.673   2.651
  946SOL    HW1 2860   2.037   2.661   2.660
  946SOL    HW2 2861   1.914   2.768   2.672
  947SOL     OW 2862   2.727   2.210   2.057
  947SOL    HW1 2863   2.786   2.273   2.008
  947SOL    HW2 2864   2.746   2.116   2.028
  948SOL     OW 2865   2.412   2.058   2.747
  948SOL    HW1 2866   2.407   2.053   2.847
  948SOL    HW2 2867   2.414   2.154   2.718
  949SOL     OW 2868   2.183   2.805   2.104
  949SOL    HW1 2869   2.265   2.844   2.062
  949SOL    HW2 2870   2.156   2.723   2.055
  950SOL     OW 2871   2.244   2.562   2.342
  950SOL    HW1 2872   2.289   2.472   2.339
  950SOL    HW2 2873   2.150   2.551   2.375
  951SOL     OW 2874   2.476   1.984   1.979
  951SOL    HW1 2875   2.574   1.962   1.986
  951SOL    HW2 2876   2.445   1.967   1.886
  952SOL     OW 2877   2.665   3.264   2.786
  952SOL    HW1 2878   2.755   3.278   2.744
  952SOL    HW2 2879   2.594   3.266   2.715
  953SOL     OW 2880   2.784   2.365   2.761
  953SOL    HW1 2881   2.759   2.356   2.665
  953SOL    HW2 2882   2.832   2.283   2.792
  954SOL     OW 2883   2.401   1.926   2.374
  954SOL    HW1 2884   2.320   1.927   2.432
  954SOL    HW2 2885   2.404   2.009   2.319
  955SOL     OW 2886   3.296   3.050   1.903
  955SOL    HW1 2887   3.328   2.974   1.960
  955SOL    HW2 2888   3.204   3.077   1.933
  956SOL     OW 2889   2.159   1.897   2.033
  956SOL    HW1 2890   2.208   1.981   2.012
  956SOL    HW2 2891   2.221   1.832   2.078
  957SOL     OW 2892   2.797   2.098   2.342
  957SOL    HW1 2893   2.749   2.139   2.264
  957SOL    HW2 2894   2.896   2.096   2.323
  958SOL     OW 2895   2.321   3.014   2.603
  958SOL    HW1 2896   2.250   2.987   2.668
  958SOL    HW2 2897   2.295   2.986   2.510
  959SOL     OW 2898   2.894   2.411   1.878
  959SOL    HW1 2899   2.853   2.493   1.839
  959SOL    HW2 2900   2.958   2.437   1.951
  960SOL     OW 2901   2.423   2.084   3.009
  960SOL    HW1 2902   2.461   2.000   3.046
  960SOL    HW2 2903   2.335   2.103   3.053
  961SOL     OW 2904   2.728   2.316   2.504
  961SOL    HW1 2905   2.696   2.388   2.442
  961SOL    HW2 2906   2.752   2.235   2.451
  962SOL     OW 2907   2.879   1.901   2.615
  962SOL    HW1 2908   2.807   1.906   2.546
  962SOL    HW2 2909   2.855   1.832   2.684
  963SOL     OW 2910   2.389   2.118   2.190
  963SOL    HW1 2911   2.416   2.059   2.115
  963SOL    HW2 2912   2.389   2.213   2.159
  964SOL     OW 2913   2.777   1.951   3.264
  964SOL    HW1 2914   2.802   1.931   3.169
  964SOL    HW2 2915   2.849   2.007   3.306
  965SOL     OW 2916   2.567   2.912   2.230
  965SOL    HW1 2917   2.553   2.919   2.329
  965SOL    HW2 2918   2.651   2.861   2.212
  966SOL     OW 2919   2.272   2.675   3.113
  966SOL    HW1 2920   2.358   2.687   3.163
  966SOL    HW2 2921   2.230   2.588   3.140
  967SOL     OW 2922   2.229   2.962   2.363
  967SOL    HW1 2923   2.222   3.045   2.307
  967SOL    HW2 2924   2.233   2.882   2.303
  968SOL     OW 2925   2.428   2.399   2.727
  968SOL    HW1 2926   2.440   2.465   2.653
  968SOL    HW2 2927   2.474   2.433   2.810
  969SOL     OW 2928   2.435   2.732   2.891
  969SOL    HW1 2929   2.479   2.821   2.882
  969SOL    HW2 2930   2.372   2.732   2.968
  970SOL     OW 2931   3.222   2.724   2.907
  970SOL    HW1 2932   3.147   2.724   2.841
  970SOL    HW2 2933   3.259   2.632   2.916
  971SOL     OW 2934   3.071   2.387   2.137
  971SOL    HW1 2935   3.084   2.303   2.191
  971SOL    HW2 2936   3.042   2.461   2.197
  972SOL     OW 2937   2.169   2.075   3.093
  972SOL    HW1 2938   2.146   2.112   3.183
  972SOL    HW2 2939   2.139   1.980   3.087
  973SOL     OW 2940   2.594   2.496   2.926
  973SOL    HW1 2941   2.653   2.470   2.850
  973SOL    HW2 2942   2.566   2.592   2.915
  974SOL     OW 2943   2.169   1.925   2.480
  974SOL    HW1 2944   2.158   2.019   2.513
  974SOL    HW2 2945   2.164   1.862   2.557
  975SOL     OW 2946   2.885   2.628   2.828
  975SOL    HW1 2947   2.900   2.649   2.924
  975SOL    HW2 2948   2.855   2.533   2.819
  976SOL     OW 2949   3.402   2.136   1.987
  976SOL    HW1 2950   3.341   2.061   2.010
  976SOL    HW2 2951   3.424   2.188   2.070
  977SOL     OW 2952   2.181   2.672   2.811
  977SOL    HW1 2953   2.274   2.708   2.816
  977SOL    HW2 2954   2.175   2.587   2.863
  978SOL     OW 2955   2.201   2.371   2.868
  978SOL    HW1 2956   2.149   2.288   2.851
  978SOL    HW2 2957   2.278   2.376   2.804
  979SOL     OW 2958   3.022   2.069   3.339
  979SOL    HW1 2959   3.022   2.133   3.416
  979SOL    HW2 2960   3.050   2.117   3.256
  980SOL     OW 2961   1.870   3.188   2.062
  980SOL    HW1 2962   1.777   3.209   2.031
  980SOL    HW2 2963   1.880   3.089   2.075
  981SOL     OW 2964   2.864   2.658   3.100
  981SOL    HW1 2965   2.905   2.626   3.186
  981SOL    HW2 2966   2.768   2.631   3.097
  982SOL     OW 2967   1.902   2.406   2.976
  982SOL    HW1 2968   1.987   2.373   2.935
  982SOL    HW2 2969   1.915   2.421   3.074
  983SOL     OW 2970   2.677   2.434   2.187
  983SOL    HW1 2971   2.684   2.345   2.141
  983SOL    HW2 2972   2.583   2.468   2.179
  984SOL     OW 2973   2.533   2.326   3.131
  984SOL    HW1 2974   2.499   2.237   3.101
  984SOL    HW2 2975   2.559   2.380   3.051
  985SOL     OW 2976   2.335   2.362   2.053
  985SOL    HW1 2977   2.396   2.442   2.057
  985SOL    HW2 2978   2.240   2.393   2.060
  986SOL     OW 2979   1.945   3.120   2.884
  986SOL    HW1 2980   1.940   3.119   2.984
  986SOL    HW2 2981   1.862   3.079   2.846
  987SOL     OW 2982   2.125   2.188   2.582
  987SOL    HW1 2983   2.046   2.239   2.548
  987SOL    HW2 2984   2.116   2.173   2.680
  988SOL     OW 2985   2.684   2.864   3.234
  988SOL    HW1 2986   2.724   2.863   3.142
  988SOL    HW2 2987   2.694   2.956   3.274
  989SOL     OW 2988   2.778   2.772   2.153
  989SOL    HW1 2989   2.841   2.810   2.085
  989SOL    HW2 2990   2.818   2.689   2.192
  990SOL     OW 2991   2.901   2.960   2.558
  990SOL    HW1 2992   2.831   2.913   2.612
  990SOL    HW2 2993   2.960   2.892   2.515
  991SOL     OW 2994   2.876   2.098   2.833
  991SOL    HW1 2995   2.868   2.062   2.740
  991SOL    HW2 2996   2.874   2.022   2.898
  992SOL     OW 2997   1.937   2.207   1.895
  992SOL    HW1 2998   1.845   2.179   1.866
  992SOL    HW2 2999   1.968   2.284   1.839
  993SOL     OW 3000   1.934   2.028   2.180
  993SOL    HW1 3001   1.917   2.111   2.126
  993SOL    HW2 3002   2.024   1.991   2.158
  994SOL     OW 3003   2.456   2.607   2.514
  994SOL    HW1 3004   2.506   2.692   2.495
  994SOL    HW2 3005   2.368   2.609   2.466
  995SOL     OW 3006   2.721   2.818   2.723
  995SOL    HW1 3007   2.775   2.749   2.771
  995SOL    HW2 3008   2.689   2.887   2.789
  996SOL     OW 3009   2.945   2.846   1.949
  996SOL    HW1 3010   2.922   2.899   1.867
  996SOL    HW2 3011   3.026   2.790   1.930
  997SOL     OW 3012   1.941   3.102   2.515
  997SOL    HW1 3013   1.940   3.055   2.603
  997SOL    HW2 3014   2.023   3.074   2.464
  998SOL     OW 3015   2.290   2.286   2.382
  998SOL    HW1 3016   2.320   2.214   2.320
  998SOL    HW2 3017   2.251   2.246   2.465
  999SOL     OW 3018   2.863   1.896   3.016
  999SOL    HW1 3019   2.800   1.824   2.985
  999SOL    HW2 3020   2.956   1.860   3.016
 1000SOL     OW 3021   2.632   3.192   2.163
 1000SOL    HW1 3022   2.586   3.105   2.180
 1000SOL    HW2 3023   2.723   3.189   2.204
 1001SOL     OW 3024   1.901   2.939   2.162
 1001SOL    HW1 3025   2.000   2.928   2.153
 1001SOL    HW2 3026   1.861   2.853   2.194
   3.15680   3.15680   3.15680
