; mobley_7860938_GMX.itp created by acpype (v: 2023.10.27) on Thu May 14 13:18:28 2026

[ atomtypes ]
;name   bond_type     mass     charge   ptype   sigma         epsilon       Amb
 c3       c3          0.00000  0.00000   A     3.39771e-01   4.51035e-01 ; 1.91  0.1078
 n7       n7          0.00000  0.00000   A     3.50765e-01   2.18405e-01 ; 1.97  0.0522
 hc       hc          0.00000  0.00000   A     2.60018e-01   8.70272e-02 ; 1.46  0.0208
 h1       h1          0.00000  0.00000   A     2.42200e-01   8.70272e-02 ; 1.36  0.0208
 hn       hn          0.00000  0.00000   A     1.10650e-01   4.18400e-02 ; 0.62  0.0100

[ moleculetype ]
;name            nrexcl
 mobley_7860938   3

[ atoms ]
;   nr  type  resi  res  atom  cgnr     charge      mass       ; qtot   bond_type
     1   c3     1   MOL    C1    1    -0.093100     12.01000 ; qtot -0.093
     2   c3     1   MOL    C2    2    -0.093100     12.01000 ; qtot -0.186
     3   c3     1   MOL    C3    3    -0.079400     12.01000 ; qtot -0.266
     4   c3     1   MOL    C4    4    -0.079400     12.01000 ; qtot -0.345
     5   c3     1   MOL    C5    5    -0.084400     12.01000 ; qtot -0.429
     6   c3     1   MOL    C6    6    -0.084400     12.01000 ; qtot -0.514
     7   c3     1   MOL    C7    7     0.164800     12.01000 ; qtot -0.349
     8   c3     1   MOL    C8    8     0.164800     12.01000 ; qtot -0.184
     9   n7     1   MOL    N1    9    -0.823200     14.01000 ; qtot -1.007
    10   hc     1   MOL    H1   10     0.033700      1.00800 ; qtot -0.974
    11   hc     1   MOL    H2   11     0.033700      1.00800 ; qtot -0.940
    12   hc     1   MOL    H3   12     0.033700      1.00800 ; qtot -0.906
    13   hc     1   MOL    H4   13     0.033700      1.00800 ; qtot -0.873
    14   hc     1   MOL    H5   14     0.033700      1.00800 ; qtot -0.839
    15   hc     1   MOL    H6   15     0.033700      1.00800 ; qtot -0.805
    16   hc     1   MOL    H7   16     0.039200      1.00800 ; qtot -0.766
    17   hc     1   MOL    H8   17     0.039200      1.00800 ; qtot -0.727
    18   hc     1   MOL    H9   18     0.039200      1.00800 ; qtot -0.688
    19   hc     1   MOL   H10   19     0.039200      1.00800 ; qtot -0.648
    20   hc     1   MOL   H11   20     0.046200      1.00800 ; qtot -0.602
    21   hc     1   MOL   H12   21     0.046200      1.00800 ; qtot -0.556
    22   hc     1   MOL   H13   22     0.046200      1.00800 ; qtot -0.510
    23   hc     1   MOL   H14   23     0.046200      1.00800 ; qtot -0.464
    24   h1     1   MOL   H15   24     0.027200      1.00800 ; qtot -0.436
    25   h1     1   MOL   H16   25     0.027200      1.00800 ; qtot -0.409
    26   h1     1   MOL   H17   26     0.027200      1.00800 ; qtot -0.382
    27   h1     1   MOL   H18   27     0.027200      1.00800 ; qtot -0.355
    28   hn     1   MOL   H19   28     0.354800      1.00800 ; qtot -0.000

[ bonds ]
;   ai     aj funct   r             k
     1      3   1    1.5354e-01    1.9154e+05 ;     C1 - C3    
     1     10   1    1.0962e-01    2.8891e+05 ;     C1 - H1    
     1     11   1    1.0962e-01    2.8891e+05 ;     C1 - H2    
     1     12   1    1.0962e-01    2.8891e+05 ;     C1 - H3    
     2      4   1    1.5354e-01    1.9154e+05 ;     C2 - C4    
     2     13   1    1.0962e-01    2.8891e+05 ;     C2 - H4    
     2     14   1    1.0962e-01    2.8891e+05 ;     C2 - H5    
     2     15   1    1.0962e-01    2.8891e+05 ;     C2 - H6    
     3      5   1    1.5354e-01    1.9154e+05 ;     C3 - C5    
     3     16   1    1.0962e-01    2.8891e+05 ;     C3 - H7    
     3     17   1    1.0962e-01    2.8891e+05 ;     C3 - H8    
     4      6   1    1.5354e-01    1.9154e+05 ;     C4 - C6    
     4     18   1    1.0962e-01    2.8891e+05 ;     C4 - H9    
     4     19   1    1.0962e-01    2.8891e+05 ;     C4 - H10   
     5      7   1    1.5354e-01    1.9154e+05 ;     C5 - C7    
     5     20   1    1.0962e-01    2.8891e+05 ;     C5 - H11   
     5     21   1    1.0962e-01    2.8891e+05 ;     C5 - H12   
     6      8   1    1.5354e-01    1.9154e+05 ;     C6 - C8    
     6     22   1    1.0962e-01    2.8891e+05 ;     C6 - H13   
     6     23   1    1.0962e-01    2.8891e+05 ;     C6 - H14   
     7      9   1    1.4630e-01    2.1382e+05 ;     C7 - N1    
     7     24   1    1.0969e-01    2.8804e+05 ;     C7 - H15   
     7     25   1    1.0969e-01    2.8804e+05 ;     C7 - H16   
     8      9   1    1.4630e-01    2.1382e+05 ;     C8 - N1    
     8     26   1    1.0969e-01    2.8804e+05 ;     C8 - H17   
     8     27   1    1.0969e-01    2.8804e+05 ;     C8 - H18   
     9     28   1    1.0195e-01    3.8497e+05 ;     N1 - H19   

[ pairs ]
;   ai     aj    funct
     1      7      1 ;     C1 - C7    
     1     20      1 ;     C1 - H11   
     1     21      1 ;     C1 - H12   
     2      8      1 ;     C2 - C8    
     2     22      1 ;     C2 - H13   
     2     23      1 ;     C2 - H14   
     3      9      1 ;     C3 - N1    
     3     24      1 ;     C3 - H15   
     3     25      1 ;     C3 - H16   
     4      9      1 ;     C4 - N1    
     4     26      1 ;     C4 - H17   
     4     27      1 ;     C4 - H18   
     5      8      1 ;     C5 - C8    
     5     28      1 ;     C5 - H19   
     6      7      1 ;     C6 - C7    
     6     13      1 ;     C6 - H4    
     6     14      1 ;     C6 - H5    
     6     15      1 ;     C6 - H6    
     6     28      1 ;     C6 - H19   
     7     16      1 ;     C7 - H7    
     7     17      1 ;     C7 - H8    
     7     26      1 ;     C7 - H17   
     7     27      1 ;     C7 - H18   
     8     18      1 ;     C8 - H9    
     8     19      1 ;     C8 - H10   
     8     24      1 ;     C8 - H15   
     8     25      1 ;     C8 - H16   
     9     20      1 ;     N1 - H11   
     9     21      1 ;     N1 - H12   
     9     22      1 ;     N1 - H13   
     9     23      1 ;     N1 - H14   
    10      5      1 ;     H1 - C5    
    10     16      1 ;     H1 - H7    
    10     17      1 ;     H1 - H8    
    11      5      1 ;     H2 - C5    
    11     16      1 ;     H2 - H7    
    11     17      1 ;     H2 - H8    
    12      5      1 ;     H3 - C5    
    12     16      1 ;     H3 - H7    
    12     17      1 ;     H3 - H8    
    13     18      1 ;     H4 - H9    
    13     19      1 ;     H4 - H10   
    14     18      1 ;     H5 - H9    
    14     19      1 ;     H5 - H10   
    15     18      1 ;     H6 - H9    
    15     19      1 ;     H6 - H10   
    16     20      1 ;     H7 - H11   
    16     21      1 ;     H7 - H12   
    17     20      1 ;     H8 - H11   
    17     21      1 ;     H8 - H12   
    18     22      1 ;     H9 - H13   
    18     23      1 ;     H9 - H14   
    19     22      1 ;    H10 - H13   
    19     23      1 ;    H10 - H14   
    20     24      1 ;    H11 - H15   
    20     25      1 ;    H11 - H16   
    21     24      1 ;    H12 - H15   
    21     25      1 ;    H12 - H16   
    22     26      1 ;    H13 - H17   
    22     27      1 ;    H13 - H18   
    23     26      1 ;    H14 - H17   
    23     27      1 ;    H14 - H18   
    24     28      1 ;    H15 - H19   
    25     28      1 ;    H16 - H19   
    26     28      1 ;    H17 - H19   
    27     28      1 ;    H18 - H19   

[ angles ]
;   ai     aj     ak    funct   theta         cth
     1      3      5      1    1.1263e+02    5.0099e+02 ;     C1 - C3     - C5    
     1      3     16      1    1.0968e+02    3.6208e+02 ;     C1 - C3     - H7    
     1      3     17      1    1.0968e+02    3.6208e+02 ;     C1 - C3     - H8    
     2      4      6      1    1.1263e+02    5.0099e+02 ;     C2 - C4     - C6    
     2      4     18      1    1.0968e+02    3.6208e+02 ;     C2 - C4     - H9    
     2      4     19      1    1.0968e+02    3.6208e+02 ;     C2 - C4     - H10   
     3      1     10      1    1.0968e+02    3.6208e+02 ;     C3 - C1     - H1    
     3      1     11      1    1.0968e+02    3.6208e+02 ;     C3 - C1     - H2    
     3      1     12      1    1.0968e+02    3.6208e+02 ;     C3 - C1     - H3    
     3      5      7      1    1.1263e+02    5.0099e+02 ;     C3 - C5     - C7    
     3      5     20      1    1.0968e+02    3.6208e+02 ;     C3 - C5     - H11   
     3      5     21      1    1.0968e+02    3.6208e+02 ;     C3 - C5     - H12   
     4      2     13      1    1.0968e+02    3.6208e+02 ;     C4 - C2     - H4    
     4      2     14      1    1.0968e+02    3.6208e+02 ;     C4 - C2     - H5    
     4      2     15      1    1.0968e+02    3.6208e+02 ;     C4 - C2     - H6    
     4      6      8      1    1.1263e+02    5.0099e+02 ;     C4 - C6     - C8    
     4      6     22      1    1.0968e+02    3.6208e+02 ;     C4 - C6     - H13   
     4      6     23      1    1.0968e+02    3.6208e+02 ;     C4 - C6     - H14   
     5      3     16      1    1.0968e+02    3.6208e+02 ;     C5 - C3     - H7    
     5      3     17      1    1.0968e+02    3.6208e+02 ;     C5 - C3     - H8    
     5      7      9      1    1.1022e+02    5.4994e+02 ;     C5 - C7     - N1    
     5      7     24      1    1.0959e+02    3.6217e+02 ;     C5 - C7     - H15   
     5      7     25      1    1.0959e+02    3.6217e+02 ;     C5 - C7     - H16   
     6      4     18      1    1.0968e+02    3.6208e+02 ;     C6 - C4     - H9    
     6      4     19      1    1.0968e+02    3.6208e+02 ;     C6 - C4     - H10   
     6      8      9      1    1.1022e+02    5.4994e+02 ;     C6 - C8     - N1    
     6      8     26      1    1.0959e+02    3.6217e+02 ;     C6 - C8     - H17   
     6      8     27      1    1.0959e+02    3.6217e+02 ;     C6 - C8     - H18   
     7      5     20      1    1.0968e+02    3.6208e+02 ;     C7 - C5     - H11   
     7      5     21      1    1.0968e+02    3.6208e+02 ;     C7 - C5     - H12   
     7      9      8      1    1.1458e+02    6.4425e+02 ;     C7 - N1     - C8    
     7      9     28      1    1.0886e+02    4.7229e+02 ;     C7 - N1     - H19   
     8      6     22      1    1.0968e+02    3.6208e+02 ;     C8 - C6     - H13   
     8      6     23      1    1.0968e+02    3.6208e+02 ;     C8 - C6     - H14   
     8      9     28      1    1.0886e+02    4.7229e+02 ;     C8 - N1     - H19   
     9      7     24      1    1.1029e+02    3.9991e+02 ;     N1 - C7     - H15   
     9      7     25      1    1.1029e+02    3.9991e+02 ;     N1 - C7     - H16   
     9      8     26      1    1.1029e+02    3.9991e+02 ;     N1 - C8     - H17   
     9      8     27      1    1.1029e+02    3.9991e+02 ;     N1 - C8     - H18   
    10      1     11      1    1.0773e+02    2.9957e+02 ;     H1 - C1     - H2    
    10      1     12      1    1.0773e+02    2.9957e+02 ;     H1 - C1     - H3    
    11      1     12      1    1.0773e+02    2.9957e+02 ;     H2 - C1     - H3    
    13      2     14      1    1.0773e+02    2.9957e+02 ;     H4 - C2     - H5    
    13      2     15      1    1.0773e+02    2.9957e+02 ;     H4 - C2     - H6    
    14      2     15      1    1.0773e+02    2.9957e+02 ;     H5 - C2     - H6    
    16      3     17      1    1.0773e+02    2.9957e+02 ;     H7 - C3     - H8    
    18      4     19      1    1.0773e+02    2.9957e+02 ;     H9 - C4     - H10   
    20      5     21      1    1.0773e+02    2.9957e+02 ;    H11 - C5     - H12   
    22      6     23      1    1.0773e+02    2.9957e+02 ;    H13 - C6     - H14   
    24      7     25      1    1.0855e+02    2.9824e+02 ;    H15 - C7     - H16   
    26      8     27      1    1.0855e+02    2.9824e+02 ;    H17 - C8     - H18   

[ dihedrals ] ; propers
; for gromacs 4.5 or higher, using funct 9
;    i      j      k      l   func   phase     kd      pn
     1      3      5      7      9     0.00   2.17568   3 ;     C1-    C3-    C5-    C7
     1      3      5     20      9     0.00   0.54392   3 ;     C1-    C3-    C5-   H11
     1      3      5     21      9     0.00   0.54392   3 ;     C1-    C3-    C5-   H12
     2      4      6      8      9     0.00   2.17568   3 ;     C2-    C4-    C6-    C8
     2      4      6     22      9     0.00   0.54392   3 ;     C2-    C4-    C6-   H13
     2      4      6     23      9     0.00   0.54392   3 ;     C2-    C4-    C6-   H14
     3      5      7      9      9     0.00   0.87864   3 ;     C3-    C5-    C7-    N1
     3      5      7     24      9     0.00   0.65084   3 ;     C3-    C5-    C7-   H15
     3      5      7     25      9     0.00   0.65084   3 ;     C3-    C5-    C7-   H16
     4      6      8      9      9     0.00   0.87864   3 ;     C4-    C6-    C8-    N1
     4      6      8     26      9     0.00   0.65084   3 ;     C4-    C6-    C8-   H17
     4      6      8     27      9     0.00   0.65084   3 ;     C4-    C6-    C8-   H18
     5      7      9      8      9     0.00   0.58576   3 ;     C5-    C7-    N1-    C8
     5      7      9     28      9     0.00   0.90793   3 ;     C5-    C7-    N1-   H19
     6      4      2     13      9     0.00   0.54392   3 ;     C6-    C4-    C2-    H4
     6      4      2     14      9     0.00   0.54392   3 ;     C6-    C4-    C2-    H5
     6      4      2     15      9     0.00   0.54392   3 ;     C6-    C4-    C2-    H6
     6      8      9      7      9     0.00   0.58576   3 ;     C6-    C8-    N1-    C7
     6      8      9     28      9     0.00   0.90793   3 ;     C6-    C8-    N1-   H19
     7      5      3     16      9     0.00   0.54392   3 ;     C7-    C5-    C3-    H7
     7      5      3     17      9     0.00   0.54392   3 ;     C7-    C5-    C3-    H8
     7      9      8     26      9     0.00   0.89956   3 ;     C7-    N1-    C8-   H17
     7      9      8     27      9     0.00   0.89956   3 ;     C7-    N1-    C8-   H18
     8      6      4     18      9     0.00   0.54392   3 ;     C8-    C6-    C4-    H9
     8      6      4     19      9     0.00   0.54392   3 ;     C8-    C6-    C4-   H10
     8      9      7     24      9     0.00   0.89956   3 ;     C8-    N1-    C7-   H15
     8      9      7     25      9     0.00   0.89956   3 ;     C8-    N1-    C7-   H16
     9      7      5     20      9     0.00   0.41840   3 ;     N1-    C7-    C5-   H11
     9      7      5     21      9     0.00   0.41840   3 ;     N1-    C7-    C5-   H12
     9      8      6     22      9     0.00   0.41840   3 ;     N1-    C8-    C6-   H13
     9      8      6     23      9     0.00   0.41840   3 ;     N1-    C8-    C6-   H14
    10      1      3      5      9     0.00   0.54392   3 ;     H1-    C1-    C3-    C5
    10      1      3     16      9     0.00   0.50208   3 ;     H1-    C1-    C3-    H7
    10      1      3     17      9     0.00   0.50208   3 ;     H1-    C1-    C3-    H8
    11      1      3      5      9     0.00   0.54392   3 ;     H2-    C1-    C3-    C5
    11      1      3     16      9     0.00   0.50208   3 ;     H2-    C1-    C3-    H7
    11      1      3     17      9     0.00   0.50208   3 ;     H2-    C1-    C3-    H8
    12      1      3      5      9     0.00   0.54392   3 ;     H3-    C1-    C3-    C5
    12      1      3     16      9     0.00   0.50208   3 ;     H3-    C1-    C3-    H7
    12      1      3     17      9     0.00   0.50208   3 ;     H3-    C1-    C3-    H8
    13      2      4     18      9     0.00   0.50208   3 ;     H4-    C2-    C4-    H9
    13      2      4     19      9     0.00   0.50208   3 ;     H4-    C2-    C4-   H10
    14      2      4     18      9     0.00   0.50208   3 ;     H5-    C2-    C4-    H9
    14      2      4     19      9     0.00   0.50208   3 ;     H5-    C2-    C4-   H10
    15      2      4     18      9     0.00   0.50208   3 ;     H6-    C2-    C4-    H9
    15      2      4     19      9     0.00   0.50208   3 ;     H6-    C2-    C4-   H10
    16      3      5     20      9     0.00   0.50208   3 ;     H7-    C3-    C5-   H11
    16      3      5     21      9     0.00   0.50208   3 ;     H7-    C3-    C5-   H12
    17      3      5     20      9     0.00   0.50208   3 ;     H8-    C3-    C5-   H11
    17      3      5     21      9     0.00   0.50208   3 ;     H8-    C3-    C5-   H12
    18      4      6     22      9     0.00   0.50208   3 ;     H9-    C4-    C6-   H13
    18      4      6     23      9     0.00   0.50208   3 ;     H9-    C4-    C6-   H14
    19      4      6     22      9     0.00   0.50208   3 ;    H10-    C4-    C6-   H13
    19      4      6     23      9     0.00   0.50208   3 ;    H10-    C4-    C6-   H14
    20      5      7     24      9     0.00   0.65084   3 ;    H11-    C5-    C7-   H15
    20      5      7     25      9     0.00   0.65084   3 ;    H11-    C5-    C7-   H16
    21      5      7     24      9     0.00   0.65084   3 ;    H12-    C5-    C7-   H15
    21      5      7     25      9     0.00   0.65084   3 ;    H12-    C5-    C7-   H16
    22      6      8     26      9     0.00   0.65084   3 ;    H13-    C6-    C8-   H17
    22      6      8     27      9     0.00   0.65084   3 ;    H13-    C6-    C8-   H18
    23      6      8     26      9     0.00   0.65084   3 ;    H14-    C6-    C8-   H17
    23      6      8     27      9     0.00   0.65084   3 ;    H14-    C6-    C8-   H18
    24      7      9     28      9     0.00   1.25520   3 ;    H15-    C7-    N1-   H19
    25      7      9     28      9     0.00   1.25520   3 ;    H16-    C7-    N1-   H19
    26      8      9     28      9     0.00   1.25520   3 ;    H17-    C8-    N1-   H19
    27      8      9     28      9     0.00   1.25520   3 ;    H18-    C8-    N1-   H19
