mobley_5600967_GMX.gro created by acpype (v: 2023.10.27) on Thu May 14 13:49:52 2026
 2654
    1MOL     C1    1   1.386   1.494   1.527
    1MOL     C2    2   1.597   1.378   1.534
    1MOL     C3    3   1.385   1.503   1.666
    1MOL     C4    4   1.596   1.386   1.674
    1MOL     C5    5   1.491   1.432   1.461
    1MOL     C6    6   1.491   1.448   1.739
    1MOL     C7    7   1.492   1.423   1.316
    1MOL     C8    8   1.557   1.524   1.096
    1MOL     C9    9   1.612   1.643   1.305
    1MOL    C10   10   1.379   1.522   1.936
    1MOL     N1   11   1.551   1.526   1.241
    1MOL     O1   12   1.439   1.323   1.265
    1MOL     O2   13   1.490   1.457   1.875
    1MOL     H1   14   1.303   1.537   1.470
    1MOL     H2   15   1.680   1.328   1.484
    1MOL     H3   16   1.302   1.552   1.717
    1MOL     H4   17   1.679   1.344   1.730
    1MOL     H5   18   1.660   1.544   1.064
    1MOL     H6   19   1.490   1.601   1.057
    1MOL     H7   20   1.525   1.426   1.061
    1MOL     H8   21   1.535   1.695   1.363
    1MOL     H9   22   1.651   1.709   1.228
    1MOL    H10   23   1.693   1.610   1.371
    1MOL    H11   24   1.297   1.450   1.947
    1MOL    H12   25   1.347   1.606   1.874
    1MOL    H13   26   1.409   1.559   2.034
    2SOL     OW   27   0.230   0.628   0.113
    2SOL    HW1   28   0.137   0.626   0.150
    2SOL    HW2   29   0.231   0.589   0.021
    3SOL     OW   30   0.225   0.275   0.996
    3SOL    HW1   31   0.260   0.258   1.088
    3SOL    HW2   32   0.137   0.230   0.984
    4SOL     OW   33   0.019   0.368   0.647
    4SOL    HW1   34  -0.063   0.411   0.686
    4SOL    HW2   35  -0.009   0.295   0.584
    5SOL     OW   36   0.569   1.275   1.165
    5SOL    HW1   37   0.476   1.268   1.128
    5SOL    HW2   38   0.580   1.364   1.209
    6SOL     OW   39   1.555   1.511   0.703
    6SOL    HW1   40   1.498   1.495   0.784
    6SOL    HW2   41   1.496   1.521   0.623
    7SOL     OW   42   1.135   0.703   0.717
    7SOL    HW1   43   1.192   0.781   0.692
    7SOL    HW2   44   1.075   0.729   0.793
    8SOL     OW   45   1.755   0.607   0.231
    8SOL    HW1   46   1.743   0.594   0.132
    8SOL    HW2   47   1.725   0.526   0.280
    9SOL     OW   48   0.768   1.144   1.023
    9SOL    HW1   49   0.690   1.161   1.083
    9SOL    HW2   50   0.802   1.231   0.987
   10SOL     OW   51   0.850   0.798   1.823
   10SOL    HW1   52   0.846   0.874   1.888
   10SOL    HW2   53   0.872   0.834   1.732
   11SOL     OW   54   0.685   1.012   0.665
   11SOL    HW1   55   0.754   0.996   0.735
   11SOL    HW2   56   0.612   1.069   0.703
   12SOL     OW   57   0.686   1.161   1.803
   12SOL    HW1   58   0.746   1.240   1.817
   12SOL    HW2   59   0.600   1.192   1.762
   13SOL     OW   60   0.335   1.435   1.061
   13SOL    HW1   61   0.257   1.404   1.008
   13SOL    HW2   62   0.393   1.493   1.004
   14SOL     OW   63   0.438   0.392   1.499
   14SOL    HW1   64   0.520   0.336   1.508
   14SOL    HW2   65   0.357   0.334   1.503
   15SOL     OW   66   1.603   0.447   0.737
   15SOL    HW1   67   1.529   0.493   0.687
   15SOL    HW2   68   1.654   0.515   0.790
   16SOL     OW   69   0.231   1.713   0.483
   16SOL    HW1   70   0.265   1.790   0.537
   16SOL    HW2   71   0.275   1.713   0.393
   17SOL     OW   72   1.127   1.341   1.690
   17SOL    HW1   73   1.174   1.341   1.778
   17SOL    HW2   74   1.079   1.254   1.679
   18SOL     OW   75   0.230   1.434   0.538
   18SOL    HW1   76   0.204   1.530   0.538
   18SOL    HW2   77   0.159   1.380   0.583
   19SOL     OW   78   0.240   1.091   0.886
   19SOL    HW1   79   0.254   1.007   0.938
   19SOL    HW2   80   0.185   1.155   0.941
   20SOL     OW   81   0.620   1.786   1.439
   20SOL    HW1   82   0.528   1.769   1.474
   20SOL    HW2   83   0.648   1.878   1.465
   21SOL     OW   84   0.606   0.964   0.123
   21SOL    HW1   85   0.613   1.048   0.069
   21SOL    HW2   86   0.652   0.977   0.211
   22SOL     OW   87   1.594   0.114   1.480
   22SOL    HW1   88   1.576   0.181   1.408
   22SOL    HW2   89   1.591   0.160   1.569
   23SOL     OW   90   0.122   0.643   0.563
   23SOL    HW1   91   0.077   0.555   0.580
   23SOL    HW2   92   0.121   0.697   0.647
   24SOL     OW   93   1.842   1.767   0.359
   24SOL    HW1   94   1.896   1.738   0.439
   24SOL    HW2   95   1.872   1.857   0.330
   25SOL     OW   96   0.027   1.596   0.117
   25SOL    HW1   97   0.008   1.500   0.138
   25SOL    HW2   98  -0.006   1.654   0.192
   26SOL     OW   99   1.689   0.922   0.612
   26SOL    HW1  100   1.784   0.893   0.620
   26SOL    HW2  101   1.681   0.987   0.537
   27SOL     OW  102   1.641   1.108   0.432
   27SOL    HW1  103   1.727   1.110   0.380
   27SOL    HW2  104   1.655   1.155   0.520
   28SOL     OW  105   0.113   0.737   1.597
   28SOL    HW1  106   0.201   0.724   1.642
   28SOL    HW2  107   0.100   0.834   1.575
   29SOL     OW  108   0.613   1.365   0.726
   29SOL    HW1  109   0.564   1.278   0.735
   29SOL    HW2  110   0.590   1.408   0.639
   30SOL     OW  111   1.293   1.228   1.423
   30SOL    HW1  112   1.330   1.155   1.365
   30SOL    HW2  113   1.345   1.233   1.508
   31SOL     OW  114   0.809   0.004   0.502
   31SOL    HW1  115   0.849   0.095   0.493
   31SOL    HW2  116   0.709   0.012   0.508
   32SOL     OW  117   0.197   0.976   1.264
   32SOL    HW1  118   0.286   0.931   1.250
   32SOL    HW2  119   0.124   0.911   1.245
   33SOL     OW  120   1.525   0.999   0.190
   33SOL    HW1  121   1.462   0.923   0.203
   33SOL    HW2  122   1.573   1.017   0.276
   34SOL     OW  123   1.187   1.792   1.616
   34SOL    HW1  124   1.211   1.852   1.540
   34SOL    HW2  125   1.194   1.697   1.586
   35SOL     OW  126   0.317   0.251   1.801
   35SOL    HW1  127   0.388   0.322   1.807
   35SOL    HW2  128   0.229   0.290   1.829
   36SOL     OW  129   1.667   1.714   0.572
   36SOL    HW1  130   1.626   1.691   0.484
   36SOL    HW2  131   1.649   1.640   0.637
   37SOL     OW  132   0.598   0.729   0.270
   37SOL    HW1  133   0.622   0.798   0.202
   37SOL    HW2  134   0.520   0.762   0.324
   38SOL     OW  135   1.281   0.345   0.944
   38SOL    HW1  136   1.195   0.295   0.931
   38SOL    HW2  137   1.343   0.291   1.000
   39SOL     OW  138   1.576   1.662   0.307
   39SOL    HW1  139   1.665   1.708   0.310
   39SOL    HW2  140   1.555   1.638   0.212
   40SOL     OW  141   0.807   0.605   1.465
   40SOL    HW1  142   0.760   0.602   1.554
   40SOL    HW2  143   0.756   0.550   1.399
   41SOL     OW  144   1.394   0.469   1.674
   41SOL    HW1  145   1.374   0.512   1.762
   41SOL    HW2  146   1.472   0.407   1.683
   42SOL     OW  147   0.973   0.890   1.572
   42SOL    HW1  148   1.019   0.806   1.543
   42SOL    HW2  149   0.917   0.924   1.497
   43SOL     OW  150   0.991   0.410   1.242
   43SOL    HW1  151   0.914   0.444   1.296
   43SOL    HW2  152   0.957   0.359   1.163
   44SOL     OW  153   1.041   0.701   0.429
   44SOL    HW1  154   1.067   0.697   0.525
   44SOL    HW2  155   0.956   0.650   0.415
   45SOL     OW  156   0.076   0.811   0.789
   45SOL    HW1  157   0.175   0.799   0.798
   45SOL    HW2  158   0.052   0.906   0.810
   46SOL     OW  159   0.130   1.821   1.571
   46SOL    HW1  160   0.120   1.806   1.670
   46SOL    HW2  161   0.044   1.857   1.535
   47SOL     OW  162   0.865   0.348   0.195
   47SOL    HW1  163   0.924   0.411   0.146
   47SOL    HW2  164   0.884   0.254   0.166
   48SOL     OW  165   1.719   0.585   1.831
   48SOL    HW1  166   1.693   0.674   1.795
   48SOL    HW2  167   1.717   0.517   1.758
   49SOL     OW  168   1.362   1.144   0.545
   49SOL    HW1  169   1.445   1.115   0.497
   49SOL    HW2  170   1.313   1.211   0.489
   50SOL     OW  171   0.550   0.196   0.885
   50SOL    HW1  172   0.545   0.191   0.985
   50SOL    HW2  173   0.552   0.292   0.856
   51SOL     OW  174   1.008   1.456   0.477
   51SOL    HW1  175   0.962   1.528   0.425
   51SOL    HW2  176   1.004   1.476   0.575
   52SOL     OW  177   0.351   1.801   0.853
   52SOL    HW1  178   0.401   1.715   0.859
   52SOL    HW2  179   0.416   1.878   0.850
   53SOL     OW  180   1.795   1.066   0.873
   53SOL    HW1  181   1.733   1.051   0.797
   53SOL    HW2  182   1.743   1.077   0.958
   54SOL     OW  183   0.321   0.943   0.242
   54SOL    HW1  184   0.403   0.982   0.200
   54SOL    HW2  185   0.294   0.861   0.193
   55SOL     OW  186   1.458   0.735   0.728
   55SOL    HW1  187   1.453   0.670   0.803
   55SOL    HW2  188   1.538   0.794   0.741
   56SOL     OW  189   0.461   1.266   1.727
   56SOL    HW1  190   0.411   1.267   1.641
   56SOL    HW2  191   0.398   1.248   1.803
   57SOL     OW  192   1.111   1.776   0.237
   57SOL    HW1  193   1.051   1.714   0.287
   57SOL    HW2  194   1.142   1.732   0.152
   58SOL     OW  195   0.202   0.285   1.498
   58SOL    HW1  196   0.122   0.345   1.485
   58SOL    HW2  197   0.192   0.236   1.584
   59SOL     OW  198   1.632   1.377   0.081
   59SOL    HW1  199   1.600   1.471   0.071
   59SOL    HW2  200   1.556   1.314   0.069
   60SOL     OW  201   0.464   1.743   0.323
   60SOL    HW1  202   0.497   1.782   0.409
   60SOL    HW2  203   0.540   1.736   0.258
   61SOL     OW  204   1.400   0.107   0.426
   61SOL    HW1  205   1.376   0.070   0.336
   61SOL    HW2  206   1.499   0.123   0.430
   62SOL     OW  207   0.249   1.785   1.241
   62SOL    HW1  208   0.306   1.720   1.291
   62SOL    HW2  209   0.233   1.752   1.148
   63SOL     OW  210   0.940   1.698   0.904
   63SOL    HW1  211   1.020   1.641   0.925
   63SOL    HW2  212   0.891   1.658   0.827
   64SOL     OW  213   0.382   0.700   0.480
   64SOL    HW1  214   0.427   0.610   0.477
   64SOL    HW2  215   0.288   0.689   0.513
   65SOL     OW  216   1.547   0.222   1.729
   65SOL    HW1  217   1.542   0.259   1.821
   65SOL    HW2  218   1.475   0.153   1.717
   66SOL     OW  219   0.614   0.122   0.117
   66SOL    HW1  220   0.712   0.100   0.124
   66SOL    HW2  221   0.583   0.105   0.024
   67SOL     OW  222   0.781   0.264   1.749
   67SOL    HW1  223   0.848   0.203   1.792
   67SOL    HW2  224   0.708   0.283   1.814
   68SOL     OW  225   0.888   1.514   1.195
   68SOL    HW1  226   0.865   1.489   1.101
   68SOL    HW2  227   0.949   1.445   1.234
   69SOL     OW  228   1.351   0.590   1.433
   69SOL    HW1  229   1.379   0.547   1.518
   69SOL    HW2  230   1.376   0.686   1.434
   70SOL     OW  231   0.803   1.402   0.924
   70SOL    HW1  232   0.893   1.416   0.882
   70SOL    HW2  233   0.732   1.404   0.853
   71SOL     OW  234   0.922   0.503   0.899
   71SOL    HW1  235   0.897   0.494   0.803
   71SOL    HW2  236   0.970   0.421   0.930
   72SOL     OW  237   0.539   0.064   0.512
   72SOL    HW1  238   0.458   0.065   0.570
   72SOL    HW2  239   0.542   0.147   0.457
   73SOL     OW  240   1.434   1.188   0.041
   73SOL    HW1  241   1.466   1.112   0.098
   73SOL    HW2  242   1.342   1.215   0.071
   74SOL     OW  243   0.297   0.035   0.171
   74SOL    HW1  244   0.346   0.119   0.150
   74SOL    HW2  245   0.359  -0.030   0.216
   75SOL     OW  246   0.935   0.236   0.480
   75SOL    HW1  247   0.887   0.277   0.402
   75SOL    HW2  248   1.034   0.234   0.461
   76SOL     OW  249   1.076   0.683   1.464
   76SOL    HW1  250   0.996   0.622   1.467
   76SOL    HW2  251   1.157   0.630   1.440
   77SOL     OW  252   1.227   1.570   0.793
   77SOL    HW1  253   1.248   1.644   0.728
   77SOL    HW2  254   1.295   1.570   0.866
   78SOL     OW  255   0.459   1.152   0.741
   78SOL    HW1  256   0.388   1.125   0.806
   78SOL    HW2  257   0.433   1.124   0.648
   79SOL     OW  258   1.271   1.797   0.591
   79SOL    HW1  259   1.315   1.861   0.527
   79SOL    HW2  260   1.221   1.849   0.661
   80SOL     OW  261   1.032   0.549   0.016
   80SOL    HW1  262   0.991   0.631  -0.023
   80SOL    HW2  263   1.096   0.575   0.089
   81SOL     OW  264   0.078   0.556   1.386
   81SOL    HW1  265   0.170   0.555   1.345
   81SOL    HW2  266   0.072   0.630   1.453
   82SOL     OW  267   0.561   0.222   1.147
   82SOL    HW1  268   0.599   0.138   1.184
   82SOL    HW2  269   0.473   0.241   1.191
   83SOL     OW  270   0.866   0.454   0.642
   83SOL    HW1  271   0.834   0.526   0.580
   83SOL    HW2  272   0.890   0.373   0.589
   84SOL     OW  273   1.017   0.039   0.753
   84SOL    HW1  274   0.945   0.044   0.684
   84SOL    HW2  275   0.993  -0.030   0.822
   85SOL     OW  276   1.429   1.173   0.867
   85SOL    HW1  277   1.374   1.089   0.860
   85SOL    HW2  278   1.455   1.202   0.775
   86SOL     OW  279   1.466   0.590   0.992
   86SOL    HW1  280   1.436   0.495   0.999
   86SOL    HW2  281   1.539   0.606   1.058
   87SOL     OW  282   1.857   0.833   0.377
   87SOL    HW1  283   1.899   0.769   0.441
   87SOL    HW2  284   1.819   0.782   0.299
   88SOL     OW  285   0.488   1.385   0.174
   88SOL    HW1  286   0.401   1.370   0.221
   88SOL    HW2  287   0.471   1.411   0.079
   89SOL     OW  288   1.664   1.280   0.657
   89SOL    HW1  289   1.763   1.288   0.671
   89SOL    HW2  290   1.619   1.364   0.688
   90SOL     OW  291   1.390   0.575   0.078
   90SOL    HW1  292   1.336   0.554   0.159
   90SOL    HW2  293   1.481   0.534   0.087
   91SOL     OW  294   0.527   0.256   0.328
   91SOL    HW1  295   0.554   0.197   0.253
   91SOL    HW2  296   0.527   0.351   0.297
   92SOL     OW  297   1.754   1.223   1.588
   92SOL    HW1  298   1.845   1.184   1.575
   92SOL    HW2  299   1.762   1.319   1.612
   93SOL     OW  300   1.064   1.347   1.340
   93SOL    HW1  301   0.984   1.324   1.395
   93SOL    HW2  302   1.147   1.321   1.389
   94SOL     OW  303   1.592   1.629   1.625
   94SOL    HW1  304   1.619   1.663   1.535
   94SOL    HW2  305   1.671   1.591   1.671
   95SOL     OW  306   1.111   1.195   1.100
   95SOL    HW1  307   1.071   1.239   1.181
   95SOL    HW2  308   1.070   1.232   1.017
   96SOL     OW  309   1.638   1.099   1.079
   96SOL    HW1  310   1.643   1.180   1.138
   96SOL    HW2  311   1.552   1.101   1.028
   97SOL     OW  312   0.915   0.089   1.402
   97SOL    HW1  313   0.940   0.069   1.307
   97SOL    HW2  314   0.987   0.145   1.444
   98SOL     OW  315   0.980   1.116   1.719
   98SOL    HW1  316   0.881   1.122   1.729
   98SOL    HW2  317   1.003   1.036   1.663
   99SOL     OW  318   0.705   1.050   0.368
   99SOL    HW1  319   0.691   1.057   0.467
   99SOL    HW2  320   0.789   0.999   0.350
  100SOL     OW  321   0.410   0.813   1.251
  100SOL    HW1  322   0.496   0.825   1.301
  100SOL    HW2  323   0.368   0.726   1.278
  101SOL     OW  324   1.274   0.386   1.262
  101SOL    HW1  325   1.295   0.460   1.326
  101SOL    HW2  326   1.185   0.403   1.219
  102SOL     OW  327   0.064   1.564   1.331
  102SOL    HW1  328   0.018   1.646   1.297
  102SOL    HW2  329   0.162   1.583   1.340
  103SOL     OW  330   0.367   1.100   0.501
  103SOL    HW1  331   0.360   1.183   0.445
  103SOL    HW2  332   0.371   1.020   0.441
  104SOL     OW  333   0.566   0.537   0.865
  104SOL    HW1  334   0.578   0.603   0.791
  104SOL    HW2  335   0.612   0.571   0.948
  105SOL     OW  336   1.252   1.348   0.388
  105SOL    HW1  337   1.302   1.425   0.428
  105SOL    HW2  338   1.157   1.350   0.420
  106SOL     OW  339   1.272   1.445   1.142
  106SOL    HW1  340   1.319   1.458   1.229
  106SOL    HW2  341   1.206   1.371   1.151
  107SOL     OW  342   1.582   0.639   0.472
  107SOL    HW1  343   1.551   0.700   0.545
  107SOL    HW2  344   1.632   0.691   0.403
  108SOL     OW  345   0.354   1.510   1.329
  108SOL    HW1  346   0.333   1.466   1.242
  108SOL    HW2  347   0.451   1.536   1.332
  109SOL     OW  348   0.402   0.751   1.598
  109SOL    HW1  349   0.470   0.806   1.551
  109SOL    HW2  350   0.442   0.663   1.625
  110SOL     OW  351   1.587   0.779   1.670
  110SOL    HW1  352   1.495   0.817   1.665
  110SOL    HW2  353   1.647   0.826   1.605
  111SOL     OW  354   1.013   0.105   1.770
  111SOL    HW1  355   1.019   0.190   1.718
  111SOL    HW2  356   1.045   0.029   1.713
  112SOL     OW  357   0.504   0.050   1.740
  112SOL    HW1  358   0.462  -0.007   1.670
  112SOL    HW2  359   0.438   0.119   1.772
  113SOL     OW  360   0.573   0.870   1.029
  113SOL    HW1  361   0.617   0.959   1.020
  113SOL    HW2  362   0.510   0.870   1.106
  114SOL     OW  363   1.360   0.862   1.045
  114SOL    HW1  364   1.285   0.862   0.979
  114SOL    HW2  365   1.397   0.770   1.054
  115SOL     OW  366   1.209   0.525   0.275
  115SOL    HW1  367   1.222   0.441   0.329
  115SOL    HW2  368   1.180   0.599   0.335
  116SOL     OW  369   0.307   0.213   1.231
  116SOL    HW1  370   0.284   0.250   1.321
  116SOL    HW2  371   0.277   0.118   1.225
  117SOL     OW  372   0.037   1.310   1.282
  117SOL    HW1  373   0.090   1.261   1.350
  117SOL    HW2  374   0.059   1.408   1.287
  118SOL     OW  375   0.732   0.634   1.064
  118SOL    HW1  376   0.791   0.608   0.988
  118SOL    HW2  377   0.704   0.730   1.053
  119SOL     OW  378   1.728   0.935   1.854
  119SOL    HW1  379   1.682   0.928   1.765
  119SOL    HW2  380   1.666   0.979   1.920
  120SOL     OW  381   0.307   0.063   0.618
  120SOL    HW1  382   0.296   0.157   0.651
  120SOL    HW2  383   0.302   0.000   0.695
  121SOL     OW  384   1.622   0.367   0.374
  121SOL    HW1  385   1.624   0.291   0.438
  121SOL    HW2  386   1.574   0.444   0.414
  122SOL     OW  387   1.023   0.766   0.966
  122SOL    HW1  388   1.038   0.787   1.062
  122SOL    HW2  389   0.993   0.671   0.957
  123SOL     OW  390   0.980   1.573   1.700
  123SOL    HW1  391   0.960   1.617   1.612
  123SOL    HW2  392   1.019   1.482   1.684
  124SOL     OW  393   1.859   1.518   1.605
  124SOL    HW1  394   1.873   1.545   1.510
  124SOL    HW2  395   1.942   1.540   1.658
  125SOL     OW  396   0.350   0.898   1.804
  125SOL    HW1  397   0.426   0.942   1.852
  125SOL    HW2  398   0.385   0.851   1.722
  126SOL     OW  399   1.540   0.274   0.125
  126SOL    HW1  400   1.479   0.199   0.148
  126SOL    HW2  401   1.562   0.326   0.208
  127SOL     OW  402   1.303   0.838   0.042
  127SOL    HW1  403   1.337   0.745   0.057
  127SOL    HW2  404   1.321   0.865  -0.053
  128SOL     OW  405   1.068   1.333   0.849
  128SOL    HW1  406   1.075   1.249   0.794
  128SOL    HW2  407   1.130   1.402   0.813
  129SOL     OW  408   0.319   0.810   0.949
  129SOL    HW1  409   0.412   0.846   0.954
  129SOL    HW2  410   0.313   0.725   1.001
  130SOL     OW  411   0.339   0.509   1.006
  130SOL    HW1  412   0.287   0.426   0.989
  130SOL    HW2  413   0.416   0.514   0.942
  131SOL     OW  414   1.138   0.380   1.678
  131SOL    HW1  415   1.093   0.443   1.742
  131SOL    HW2  416   1.231   0.411   1.661
  132SOL     OW  417   1.160   0.207   1.477
  132SOL    HW1  418   1.160   0.271   1.554
  132SOL    HW2  419   1.188   0.255   1.394
  133SOL     OW  420   0.008   1.326   0.200
  133SOL    HW1  421  -0.085   1.347   0.169
  133SOL    HW2  422   0.018   1.227   0.213
  134SOL     OW  423   0.088   1.801   0.927
  134SOL    HW1  424   0.046   1.715   0.900
  134SOL    HW2  425   0.182   1.804   0.893
  135SOL     OW  426   0.504   1.568   0.910
  135SOL    HW1  427   0.570   1.642   0.919
  135SOL    HW2  428   0.548   1.489   0.868
  136SOL     OW  429   1.002   0.796   1.238
  136SOL    HW1  430   1.043   0.764   1.324
  136SOL    HW2  431   0.906   0.769   1.235
  137SOL     OW  432   0.040   0.544   1.114
  137SOL    HW1  433   0.125   0.511   1.073
  137SOL    HW2  434   0.053   0.559   1.212
  138SOL     OW  435   0.189   0.520   1.722
  138SOL    HW1  436   0.248   0.480   1.652
  138SOL    HW2  437   0.131   0.591   1.681
  139SOL     OW  438   1.369   0.950   1.660
  139SOL    HW1  439   1.408   1.039   1.680
  139SOL    HW2  440   1.379   0.930   1.563
  140SOL     OW  441   0.815   0.572   0.325
  140SOL    HW1  442   0.822   0.483   0.279
  140SOL    HW2  443   0.721   0.606   0.317
  141SOL     OW  444   1.657   0.604   1.206
  141SOL    HW1  445   1.619   0.535   1.268
  141SOL    HW2  446   1.739   0.568   1.162
  142SOL     OW  447   0.252   1.564   1.744
  142SOL    HW1  448   0.222   1.621   1.820
  142SOL    HW2  449   0.245   1.467   1.770
  143SOL     OW  450   0.671   0.464   1.269
  143SOL    HW1  451   0.637   0.375   1.239
  143SOL    HW2  452   0.697   0.518   1.189
  144SOL     OW  453   0.930   1.678   1.465
  144SOL    HW1  454   0.906   1.660   1.370
  144SOL    HW2  455   0.960   1.772   1.475
  145SOL     OW  456   0.473   0.500   0.191
  145SOL    HW1  457   0.534   0.580   0.195
  145SOL    HW2  458   0.378   0.531   0.198
  146SOL     OW  459   0.159   1.137   1.466
  146SOL    HW1  460   0.181   1.076   1.542
  146SOL    HW2  461   0.169   1.088   1.380
  147SOL     OW  462   1.347   1.059   1.234
  147SOL    HW1  463   1.371   0.996   1.160
  147SOL    HW2  464   1.257   1.099   1.216
  148SOL     OW  465   1.302   0.855   0.309
  148SOL    HW1  466   1.216   0.824   0.351
  148SOL    HW2  467   1.298   0.841   0.210
  149SOL     OW  468   1.252   1.731   1.128
  149SOL    HW1  469   1.336   1.736   1.074
  149SOL    HW2  470   1.229   1.635   1.146
  150SOL     OW  471   0.083   1.258   1.022
  150SOL    HW1  472   0.078   1.257   1.122
  150SOL    HW2  473   0.000   1.217   0.984
  151SOL     OW  474   0.688   1.662   1.716
  151SOL    HW1  475   0.632   1.743   1.725
  151SOL    HW2  476   0.740   1.666   1.630
  152SOL     OW  477   0.903   0.086   0.133
  152SOL    HW1  478   0.954   0.087   0.047
  152SOL    HW2  479   0.959   0.044   0.204
  153SOL     OW  480   1.726   0.135   0.523
  153SOL    HW1  481   1.799   0.118   0.456
  153SOL    HW2  482   1.695   0.048   0.561
  154SOL     OW  483   1.388   1.573   0.477
  154SOL    HW1  484   1.455   1.585   0.403
  154SOL    HW2  485   1.348   1.662   0.500
  155SOL     OW  486   0.130   1.794   1.851
  155SOL    HW1  487   0.089   1.720   1.904
  155SOL    HW2  488   0.194   1.845   1.909
  156SOL     OW  489   1.280   0.927   0.672
  156SOL    HW1  490   1.340   0.846   0.674
  156SOL    HW2  491   1.320   0.996   0.612
  157SOL     OW  492   0.830   1.273   1.422
  157SOL    HW1  493   0.825   1.306   1.517
  157SOL    HW2  494   0.744   1.292   1.376
  158SOL     OW  495   0.672   1.616   0.154
  158SOL    HW1  496   0.681   1.626   0.055
  158SOL    HW2  497   0.632   1.527   0.175
  159SOL     OW  498   1.841   0.175   0.963
  159SOL    HW1  499   1.880   0.090   0.927
  159SOL    HW2  500   1.743   0.177   0.944
  160SOL     OW  501   0.263   0.326   0.720
  160SOL    HW1  502   0.184   0.377   0.686
  160SOL    HW2  503   0.254   0.311   0.818
  161SOL     OW  504   1.194   1.612   0.031
  161SOL    HW1  505   1.200   1.519   0.068
  161SOL    HW2  506   1.135   1.612  -0.049
  162SOL     OW  507   0.822   1.002   1.372
  162SOL    HW1  508   0.862   1.001   1.280
  162SOL    HW2  509   0.832   1.094   1.412
  163SOL     OW  510   0.916   0.910   0.291
  163SOL    HW1  511   0.979   0.948   0.223
  163SOL    HW2  512   0.956   0.827   0.330
  164SOL     OW  513   1.504   1.607   0.044
  164SOL    HW1  514   1.412   1.644   0.051
  164SOL    HW2  515   1.542   1.627  -0.046
  165SOL     OW  516   0.372   1.288   1.490
  165SOL    HW1  517   0.359   1.381   1.456
  165SOL    HW2  518   0.288   1.236   1.477
  166SOL     OW  519   1.039   1.098   0.696
  166SOL    HW1  520   0.969   1.051   0.750
  166SOL    HW2  521   1.098   1.030   0.653
  167SOL     OW  522   1.014   0.236   0.971
  167SOL    HW1  523   1.006   0.200   0.878
  167SOL    HW2  524   1.012   0.160   1.036
  168SOL     OW  525   0.590   1.487   0.491
  168SOL    HW1  526   0.632   1.429   0.421
  168SOL    HW2  527   0.546   1.566   0.447
  169SOL     OW  528   1.709   0.385   1.381
  169SOL    HW1  529   1.782   0.454   1.385
  169SOL    HW2  530   1.737   0.310   1.322
  170SOL     OW  531   0.255   1.348   0.290
  170SOL    HW1  532   0.159   1.349   0.263
  170SOL    HW2  533   0.267   1.401   0.374
  171SOL     OW  534   0.105   1.013   1.726
  171SOL    HW1  535   0.028   0.980   1.780
  171SOL    HW2  536   0.190   0.983   1.768
  172SOL     OW  537   0.672   0.203   1.489
  172SOL    HW1  538   0.762   0.187   1.449
  172SOL    HW2  539   0.680   0.208   1.588
  173SOL     OW  540   0.075   0.345   0.033
  173SOL    HW1  541  -0.017   0.317   0.004
  173SOL    HW2  542   0.106   0.422  -0.023
  174SOL     OW  543   1.440   0.856   1.398
  174SOL    HW1  544   1.383   0.908   1.335
  174SOL    HW2  545   1.536   0.868   1.374
  175SOL     OW  546   0.072   0.166   0.318
  175SOL    HW1  547   0.055   0.249   0.264
  175SOL    HW2  548   0.162   0.129   0.296
  176SOL     OW  549   1.183   1.335   0.119
  176SOL    HW1  550   1.084   1.324   0.121
  176SOL    HW2  551   1.217   1.350   0.212
  177SOL     OW  552   0.613   0.842   1.431
  177SOL    HW1  553   0.669   0.923   1.414
  177SOL    HW2  554   0.672   0.762   1.434
  178SOL     OW  555   1.493   1.767   0.959
  178SOL    HW1  556   1.526   1.831   0.890
  178SOL    HW2  557   1.559   1.761   1.034
  179SOL     OW  558   0.716   0.565   1.708
  179SOL    HW1  559   0.735   0.630   1.782
  179SOL    HW2  560   0.776   0.485   1.717
  180SOL     OW  561   1.450   1.220   1.633
  180SOL    HW1  562   1.441   1.210   1.732
  180SOL    HW2  563   1.546   1.213   1.607
  181SOL     OW  564   0.390   1.741   1.560
  181SOL    HW1  565   0.299   1.782   1.558
  181SOL    HW2  566   0.383   1.647   1.592
  182SOL     OW  567   1.674   0.883   1.254
  182SOL    HW1  568   1.647   0.794   1.217
  182SOL    HW2  569   1.675   0.951   1.181
  183SOL     OW  570   1.225   0.325   0.449
  183SOL    HW1  571   1.290   0.251   0.438
  183SOL    HW2  572   1.245   0.375   0.533
  184SOL     OW  573   0.594   0.745   0.652
  184SOL    HW1  574   0.644   0.830   0.633
  184SOL    HW2  575   0.506   0.747   0.604
  185SOL     OW  576   1.777   0.342   1.642
  185SOL    HW1  577   1.760   0.373   1.548
  185SOL    HW2  578   1.693   0.305   1.680
  186SOL     OW  579   1.730   0.934   1.517
  186SOL    HW1  580   1.768   1.025   1.532
  186SOL    HW2  581   1.722   0.917   1.418
  187SOL     OW  582   0.859   1.374   0.016
  187SOL    HW1  583   0.813   1.389   0.104
  187SOL    HW2  584   0.903   1.459  -0.014
  188SOL     OW  585   0.661   1.790   0.953
  188SOL    HW1  586   0.615   1.878   0.940
  188SOL    HW2  587   0.760   1.802   0.946
  189SOL     OW  588   0.859   0.956   0.861
  189SOL    HW1  589   0.913   0.887   0.909
  189SOL    HW2  590   0.827   1.025   0.927
  190SOL     OW  591   1.083   0.984   0.087
  190SOL    HW1  592   1.060   1.037   0.005
  190SOL    HW2  593   1.164   0.928   0.068
  191SOL     OW  594   1.861   1.569   0.851
  191SOL    HW1  595   1.790   1.557   0.781
  191SOL    HW2  596   1.862   1.490   0.911
  192SOL     OW  597   0.221   1.314   1.844
  192SOL    HW1  598   0.156   1.241   1.823
  192SOL    HW2  599   0.225   1.328   1.942
  193SOL     OW  600   0.079   1.240   0.653
  193SOL    HW1  601   0.078   1.193   0.741
  193SOL    HW2  602   0.161   1.212   0.602
  194SOL     OW  603   0.672   1.391   1.624
  194SOL    HW1  604   0.594   1.341   1.662
  194SOL    HW2  605   0.669   1.486   1.655
  195SOL     OW  606   1.824   0.192   1.227
  195SOL    HW1  607   1.820   0.102   1.271
  195SOL    HW2  608   1.827   0.181   1.128
  196SOL     OW  609   0.428   0.424   0.520
  196SOL    HW1  610   0.458   0.352   0.458
  196SOL    HW2  611   0.389   0.384   0.603
  197SOL     OW  612   0.317   0.547   1.280
  197SOL    HW1  613   0.355   0.488   1.352
  197SOL    HW2  614   0.357   0.521   1.192
  198SOL     OW  615   0.812   1.586   0.687
  198SOL    HW1  616   0.844   1.596   0.593
  198SOL    HW2  617   0.733   1.524   0.689
  199SOL     OW  618   1.424   0.214   1.112
  199SOL    HW1  619   1.476   0.149   1.167
  199SOL    HW2  620   1.375   0.277   1.173
  200SOL     OW  621   1.001   0.034   1.154
  200SOL    HW1  622   0.938  -0.038   1.123
  200SOL    HW2  623   1.094  -0.002   1.154
  201SOL     OW  624   0.770   1.330   0.301
  201SOL    HW1  625   0.724   1.243   0.318
  201SOL    HW2  626   0.861   1.327   0.342
  202SOL     OW  627   0.618   1.567   1.284
  202SOL    HW1  628   0.613   1.649   1.341
  202SOL    HW2  629   0.707   1.564   1.239
  203SOL     OW  630   1.352   0.052   0.168
  203SOL    HW1  631   1.387   0.011   0.084
  203SOL    HW2  632   1.262   0.014   0.188
  204SOL     OW  633   1.300   0.453   0.691
  204SOL    HW1  634   1.241   0.533   0.695
  204SOL    HW2  635   1.315   0.418   0.784
  205SOL     OW  636   1.593   0.221   0.882
  205SOL    HW1  637   1.509   0.220   0.936
  205SOL    HW2  638   1.595   0.304   0.826
  206SOL     OW  639   0.039   1.077   0.300
  206SOL    HW1  640   0.138   1.066   0.291
  206SOL    HW2  641  -0.001   0.991   0.332
  207SOL     OW  642   0.875   1.646   0.337
  207SOL    HW1  643   0.798   1.611   0.283
  207SOL    HW2  644   0.843   1.717   0.399
  208SOL     OW  645   0.230   0.628   1.975
  208SOL    HW1  646   0.137   0.626   2.012
  208SOL    HW2  647   0.231   0.589   1.883
  209SOL     OW  648   0.225   0.275   2.858
  209SOL    HW1  649   0.260   0.258   2.950
  209SOL    HW2  650   0.137   0.230   2.846
  210SOL     OW  651   0.019   0.368   2.509
  210SOL    HW1  652  -0.063   0.411   2.548
  210SOL    HW2  653  -0.009   0.295   2.446
  211SOL     OW  654   1.555   1.511   2.565
  211SOL    HW1  655   1.498   1.495   2.646
  211SOL    HW2  656   1.496   1.521   2.485
  212SOL     OW  657   1.135   0.703   2.579
  212SOL    HW1  658   1.192   0.781   2.554
  212SOL    HW2  659   1.075   0.729   2.655
  213SOL     OW  660   1.755   0.607   2.093
  213SOL    HW1  661   1.743   0.594   1.994
  213SOL    HW2  662   1.725   0.526   2.142
  214SOL     OW  663   0.768   1.144   2.885
  214SOL    HW1  664   0.690   1.161   2.945
  214SOL    HW2  665   0.802   1.231   2.849
  215SOL     OW  666   0.685   1.012   2.527
  215SOL    HW1  667   0.754   0.996   2.597
  215SOL    HW2  668   0.612   1.069   2.565
  216SOL     OW  669   0.335   1.435   2.923
  216SOL    HW1  670   0.257   1.404   2.870
  216SOL    HW2  671   0.393   1.493   2.866
  217SOL     OW  672   1.603   0.447   2.599
  217SOL    HW1  673   1.529   0.493   2.549
  217SOL    HW2  674   1.654   0.515   2.652
  218SOL     OW  675   0.231   1.713   2.345
  218SOL    HW1  676   0.265   1.790   2.399
  218SOL    HW2  677   0.275   1.713   2.255
  219SOL     OW  678   0.230   1.434   2.400
  219SOL    HW1  679   0.204   1.530   2.400
  219SOL    HW2  680   0.159   1.380   2.445
  220SOL     OW  681   0.240   1.091   2.748
  220SOL    HW1  682   0.254   1.007   2.800
  220SOL    HW2  683   0.185   1.155   2.803
  221SOL     OW  684   0.606   0.964   1.985
  221SOL    HW1  685   0.613   1.048   1.931
  221SOL    HW2  686   0.652   0.977   2.073
  222SOL     OW  687   0.122   0.643   2.425
  222SOL    HW1  688   0.077   0.555   2.442
  222SOL    HW2  689   0.121   0.697   2.509
  223SOL     OW  690   1.842   1.767   2.221
  223SOL    HW1  691   1.896   1.738   2.301
  223SOL    HW2  692   1.872   1.857   2.192
  224SOL     OW  693   0.027   1.596   1.979
  224SOL    HW1  694   0.008   1.500   2.000
  224SOL    HW2  695  -0.006   1.654   2.054
  225SOL     OW  696   1.689   0.922   2.474
  225SOL    HW1  697   1.784   0.893   2.482
  225SOL    HW2  698   1.681   0.987   2.399
  226SOL     OW  699   1.641   1.108   2.294
  226SOL    HW1  700   1.727   1.110   2.242
  226SOL    HW2  701   1.655   1.155   2.382
  227SOL     OW  702   0.613   1.365   2.588
  227SOL    HW1  703   0.564   1.278   2.597
  227SOL    HW2  704   0.590   1.408   2.501
  228SOL     OW  705   0.809   0.004   2.364
  228SOL    HW1  706   0.849   0.095   2.355
  228SOL    HW2  707   0.709   0.012   2.370
  229SOL     OW  708   1.525   0.999   2.052
  229SOL    HW1  709   1.462   0.923   2.065
  229SOL    HW2  710   1.573   1.017   2.138
  230SOL     OW  711   1.466   1.417   2.815
  230SOL    HW1  712   1.407   1.423   2.895
  230SOL    HW2  713   1.451   1.329   2.769
  231SOL     OW  714   1.667   1.714   2.434
  231SOL    HW1  715   1.626   1.691   2.346
  231SOL    HW2  716   1.649   1.640   2.499
  232SOL     OW  717   0.598   0.729   2.132
  232SOL    HW1  718   0.622   0.798   2.064
  232SOL    HW2  719   0.520   0.762   2.186
  233SOL     OW  720   1.281   0.345   2.806
  233SOL    HW1  721   1.195   0.295   2.793
  233SOL    HW2  722   1.343   0.291   2.862
  234SOL     OW  723   1.576   1.662   2.169
  234SOL    HW1  724   1.665   1.708   2.172
  234SOL    HW2  725   1.555   1.638   2.074
  235SOL     OW  726   1.041   0.701   2.291
  235SOL    HW1  727   1.067   0.697   2.387
  235SOL    HW2  728   0.956   0.650   2.277
  236SOL     OW  729   0.076   0.811   2.651
  236SOL    HW1  730   0.175   0.799   2.660
  236SOL    HW2  731   0.052   0.906   2.672
  237SOL     OW  732   0.865   0.348   2.057
  237SOL    HW1  733   0.924   0.411   2.008
  237SOL    HW2  734   0.884   0.254   2.028
  238SOL     OW  735   1.362   1.144   2.407
  238SOL    HW1  736   1.445   1.115   2.359
  238SOL    HW2  737   1.313   1.211   2.351
  239SOL     OW  738   0.550   0.196   2.747
  239SOL    HW1  739   0.545   0.191   2.847
  239SOL    HW2  740   0.552   0.292   2.718
  240SOL     OW  741   1.008   1.456   2.339
  240SOL    HW1  742   0.962   1.528   2.287
  240SOL    HW2  743   1.004   1.476   2.437
  241SOL     OW  744   0.351   1.801   2.715
  241SOL    HW1  745   0.401   1.715   2.721
  241SOL    HW2  746   0.416   1.878   2.712
  242SOL     OW  747   1.795   1.066   2.735
  242SOL    HW1  748   1.733   1.051   2.659
  242SOL    HW2  749   1.743   1.077   2.820
  243SOL     OW  750   0.321   0.943   2.104
  243SOL    HW1  751   0.403   0.982   2.062
  243SOL    HW2  752   0.294   0.861   2.055
  244SOL     OW  753   1.458   0.735   2.590
  244SOL    HW1  754   1.453   0.670   2.665
  244SOL    HW2  755   1.538   0.794   2.603
  245SOL     OW  756   1.111   1.776   2.099
  245SOL    HW1  757   1.051   1.714   2.149
  245SOL    HW2  758   1.142   1.732   2.014
  246SOL     OW  759   0.464   1.743   2.185
  246SOL    HW1  760   0.497   1.782   2.271
  246SOL    HW2  761   0.540   1.736   2.120
  247SOL     OW  762   1.400   0.107   2.288
  247SOL    HW1  763   1.376   0.070   2.198
  247SOL    HW2  764   1.499   0.123   2.292
  248SOL     OW  765   0.249   1.785   3.103
  248SOL    HW1  766   0.306   1.720   3.153
  248SOL    HW2  767   0.233   1.752   3.010
  249SOL     OW  768   0.940   1.698   2.766
  249SOL    HW1  769   1.020   1.641   2.787
  249SOL    HW2  770   0.891   1.658   2.689
  250SOL     OW  771   0.382   0.700   2.342
  250SOL    HW1  772   0.427   0.610   2.339
  250SOL    HW2  773   0.288   0.689   2.375
  251SOL     OW  774   0.614   0.122   1.979
  251SOL    HW1  775   0.712   0.100   1.986
  251SOL    HW2  776   0.583   0.105   1.886
  252SOL     OW  777   0.803   1.402   2.786
  252SOL    HW1  778   0.893   1.416   2.744
  252SOL    HW2  779   0.732   1.404   2.715
  253SOL     OW  780   0.922   0.503   2.761
  253SOL    HW1  781   0.897   0.494   2.665
  253SOL    HW2  782   0.970   0.421   2.792
  254SOL     OW  783   0.539   0.064   2.374
  254SOL    HW1  784   0.458   0.065   2.432
  254SOL    HW2  785   0.542   0.147   2.319
  255SOL     OW  786   1.434   1.188   1.903
  255SOL    HW1  787   1.466   1.112   1.960
  255SOL    HW2  788   1.342   1.215   1.933
  256SOL     OW  789   0.297   0.035   2.033
  256SOL    HW1  790   0.346   0.119   2.012
  256SOL    HW2  791   0.359  -0.030   2.078
  257SOL     OW  792   0.935   0.236   2.342
  257SOL    HW1  793   0.887   0.277   2.264
  257SOL    HW2  794   1.034   0.234   2.323
  258SOL     OW  795   1.227   1.570   2.655
  258SOL    HW1  796   1.248   1.644   2.590
  258SOL    HW2  797   1.295   1.570   2.728
  259SOL     OW  798   0.459   1.152   2.603
  259SOL    HW1  799   0.388   1.125   2.668
  259SOL    HW2  800   0.433   1.124   2.510
  260SOL     OW  801   1.271   1.797   2.453
  260SOL    HW1  802   1.315   1.861   2.389
  260SOL    HW2  803   1.221   1.849   2.523
  261SOL     OW  804   1.032   0.549   1.878
  261SOL    HW1  805   0.991   0.631   1.839
  261SOL    HW2  806   1.096   0.575   1.951
  262SOL     OW  807   0.866   0.454   2.504
  262SOL    HW1  808   0.834   0.526   2.442
  262SOL    HW2  809   0.890   0.373   2.451
  263SOL     OW  810   1.017   0.039   2.615
  263SOL    HW1  811   0.945   0.044   2.546
  263SOL    HW2  812   0.993  -0.030   2.684
  264SOL     OW  813   1.429   1.173   2.729
  264SOL    HW1  814   1.374   1.089   2.722
  264SOL    HW2  815   1.455   1.202   2.637
  265SOL     OW  816   1.466   0.590   2.854
  265SOL    HW1  817   1.436   0.495   2.861
  265SOL    HW2  818   1.539   0.606   2.920
  266SOL     OW  819   1.857   0.833   2.239
  266SOL    HW1  820   1.899   0.769   2.303
  266SOL    HW2  821   1.819   0.782   2.161
  267SOL     OW  822   0.488   1.385   2.036
  267SOL    HW1  823   0.401   1.370   2.083
  267SOL    HW2  824   0.471   1.411   1.941
  268SOL     OW  825   1.664   1.280   2.519
  268SOL    HW1  826   1.763   1.288   2.533
  268SOL    HW2  827   1.619   1.364   2.550
  269SOL     OW  828   1.390   0.575   1.940
  269SOL    HW1  829   1.336   0.554   2.021
  269SOL    HW2  830   1.481   0.534   1.949
  270SOL     OW  831   0.527   0.256   2.190
  270SOL    HW1  832   0.554   0.197   2.115
  270SOL    HW2  833   0.527   0.351   2.159
  271SOL     OW  834   1.638   1.099   2.941
  271SOL    HW1  835   1.643   1.180   3.000
  271SOL    HW2  836   1.552   1.101   2.890
  272SOL     OW  837   0.705   1.050   2.230
  272SOL    HW1  838   0.691   1.057   2.329
  272SOL    HW2  839   0.789   0.999   2.212
  273SOL     OW  840   0.367   1.100   2.363
  273SOL    HW1  841   0.360   1.183   2.307
  273SOL    HW2  842   0.371   1.020   2.303
  274SOL     OW  843   0.566   0.537   2.727
  274SOL    HW1  844   0.578   0.603   2.653
  274SOL    HW2  845   0.612   0.571   2.810
  275SOL     OW  846   1.252   1.348   2.250
  275SOL    HW1  847   1.302   1.425   2.290
  275SOL    HW2  848   1.157   1.350   2.282
  276SOL     OW  849   1.582   0.639   2.334
  276SOL    HW1  850   1.551   0.700   2.407
  276SOL    HW2  851   1.632   0.691   2.265
  277SOL     OW  852   0.573   0.870   2.891
  277SOL    HW1  853   0.617   0.959   2.882
  277SOL    HW2  854   0.510   0.870   2.968
  278SOL     OW  855   1.209   0.525   2.137
  278SOL    HW1  856   1.222   0.441   2.191
  278SOL    HW2  857   1.180   0.599   2.197
  279SOL     OW  858   0.732   0.634   2.926
  279SOL    HW1  859   0.791   0.608   2.850
  279SOL    HW2  860   0.704   0.730   2.915
  280SOL     OW  861   0.307   0.063   2.480
  280SOL    HW1  862   0.296   0.157   2.513
  280SOL    HW2  863   0.302   0.000   2.557
  281SOL     OW  864   1.622   0.367   2.236
  281SOL    HW1  865   1.624   0.291   2.300
  281SOL    HW2  866   1.574   0.444   2.276
  282SOL     OW  867   1.023   0.766   2.828
  282SOL    HW1  868   1.038   0.787   2.924
  282SOL    HW2  869   0.993   0.671   2.819
  283SOL     OW  870   1.540   0.274   1.987
  283SOL    HW1  871   1.479   0.199   2.010
  283SOL    HW2  872   1.562   0.326   2.070
  284SOL     OW  873   1.303   0.838   1.904
  284SOL    HW1  874   1.337   0.745   1.919
  284SOL    HW2  875   1.321   0.865   1.809
  285SOL     OW  876   1.068   1.333   2.711
  285SOL    HW1  877   1.075   1.249   2.656
  285SOL    HW2  878   1.130   1.402   2.675
  286SOL     OW  879   0.319   0.810   2.811
  286SOL    HW1  880   0.412   0.846   2.816
  286SOL    HW2  881   0.313   0.725   2.863
  287SOL     OW  882   0.339   0.509   2.868
  287SOL    HW1  883   0.287   0.426   2.851
  287SOL    HW2  884   0.416   0.514   2.804
  288SOL     OW  885   0.008   1.326   2.062
  288SOL    HW1  886  -0.085   1.347   2.031
  288SOL    HW2  887   0.018   1.227   2.075
  289SOL     OW  888   0.088   1.801   2.789
  289SOL    HW1  889   0.046   1.715   2.762
  289SOL    HW2  890   0.182   1.804   2.755
  290SOL     OW  891   0.504   1.568   2.772
  290SOL    HW1  892   0.570   1.642   2.781
  290SOL    HW2  893   0.548   1.489   2.730
  291SOL     OW  894   1.002   0.796   3.100
  291SOL    HW1  895   1.043   0.764   3.186
  291SOL    HW2  896   0.906   0.769   3.097
  292SOL     OW  897   0.815   0.572   2.187
  292SOL    HW1  898   0.822   0.483   2.141
  292SOL    HW2  899   0.721   0.606   2.179
  293SOL     OW  900   0.671   0.464   3.131
  293SOL    HW1  901   0.637   0.375   3.101
  293SOL    HW2  902   0.697   0.518   3.051
  294SOL     OW  903   0.473   0.500   2.053
  294SOL    HW1  904   0.534   0.580   2.057
  294SOL    HW2  905   0.378   0.531   2.060
  295SOL     OW  906   1.302   0.855   2.171
  295SOL    HW1  907   1.216   0.824   2.213
  295SOL    HW2  908   1.298   0.841   2.072
  296SOL     OW  909   1.759   1.747   3.016
  296SOL    HW1  910   1.820   1.777   2.943
  296SOL    HW2  911   1.721   1.658   2.994
  297SOL     OW  912   0.083   1.258   2.884
  297SOL    HW1  913   0.078   1.257   2.984
  297SOL    HW2  914   0.000   1.217   2.846
  298SOL     OW  915   1.726   0.135   2.385
  298SOL    HW1  916   1.799   0.118   2.318
  298SOL    HW2  917   1.695   0.048   2.423
  299SOL     OW  918   1.388   1.573   2.339
  299SOL    HW1  919   1.455   1.585   2.265
  299SOL    HW2  920   1.348   1.662   2.362
  300SOL     OW  921   1.280   0.927   2.534
  300SOL    HW1  922   1.340   0.846   2.536
  300SOL    HW2  923   1.320   0.996   2.474
  301SOL     OW  924   0.672   1.616   2.016
  301SOL    HW1  925   0.681   1.626   1.917
  301SOL    HW2  926   0.632   1.527   2.037
  302SOL     OW  927   1.841   0.175   2.825
  302SOL    HW1  928   1.880   0.090   2.789
  302SOL    HW2  929   1.743   0.177   2.806
  303SOL     OW  930   0.263   0.326   2.582
  303SOL    HW1  931   0.184   0.377   2.548
  303SOL    HW2  932   0.254   0.311   2.680
  304SOL     OW  933   0.916   0.910   2.153
  304SOL    HW1  934   0.979   0.948   2.085
  304SOL    HW2  935   0.956   0.827   2.192
  305SOL     OW  936   1.039   1.098   2.558
  305SOL    HW1  937   0.969   1.051   2.612
  305SOL    HW2  938   1.098   1.030   2.515
  306SOL     OW  939   1.014   0.236   2.833
  306SOL    HW1  940   1.006   0.200   2.740
  306SOL    HW2  941   1.012   0.160   2.898
  307SOL     OW  942   0.590   1.487   2.353
  307SOL    HW1  943   0.632   1.429   2.283
  307SOL    HW2  944   0.546   1.566   2.309
  308SOL     OW  945   0.255   1.348   2.152
  308SOL    HW1  946   0.159   1.349   2.125
  308SOL    HW2  947   0.267   1.401   2.236
  309SOL     OW  948   0.075   0.345   1.895
  309SOL    HW1  949  -0.017   0.317   1.866
  309SOL    HW2  950   0.106   0.422   1.839
  310SOL     OW  951   0.072   0.166   2.180
  310SOL    HW1  952   0.055   0.249   2.126
  310SOL    HW2  953   0.162   0.129   2.158
  311SOL     OW  954   1.183   1.335   1.981
  311SOL    HW1  955   1.084   1.324   1.983
  311SOL    HW2  956   1.217   1.350   2.074
  312SOL     OW  957   1.493   1.767   2.821
  312SOL    HW1  958   1.526   1.831   2.752
  312SOL    HW2  959   1.559   1.761   2.896
  313SOL     OW  960   1.674   0.883   3.116
  313SOL    HW1  961   1.647   0.794   3.079
  313SOL    HW2  962   1.675   0.951   3.043
  314SOL     OW  963   1.225   0.325   2.311
  314SOL    HW1  964   1.290   0.251   2.300
  314SOL    HW2  965   1.245   0.375   2.395
  315SOL     OW  966   0.594   0.745   2.514
  315SOL    HW1  967   0.644   0.830   2.495
  315SOL    HW2  968   0.506   0.747   2.466
  316SOL     OW  969   0.859   1.374   1.878
  316SOL    HW1  970   0.813   1.389   1.966
  316SOL    HW2  971   0.903   1.459   1.848
  317SOL     OW  972   0.661   1.790   2.815
  317SOL    HW1  973   0.615   1.878   2.802
  317SOL    HW2  974   0.760   1.802   2.808
  318SOL     OW  975   0.859   0.956   2.723
  318SOL    HW1  976   0.913   0.887   2.771
  318SOL    HW2  977   0.827   1.025   2.789
  319SOL     OW  978   1.083   0.984   1.949
  319SOL    HW1  979   1.060   1.037   1.867
  319SOL    HW2  980   1.164   0.928   1.930
  320SOL     OW  981   1.861   1.569   2.713
  320SOL    HW1  982   1.790   1.557   2.643
  320SOL    HW2  983   1.862   1.490   2.773
  321SOL     OW  984   0.079   1.240   2.515
  321SOL    HW1  985   0.078   1.193   2.603
  321SOL    HW2  986   0.161   1.212   2.464
  322SOL     OW  987   1.824   0.192   3.089
  322SOL    HW1  988   1.820   0.102   3.133
  322SOL    HW2  989   1.827   0.181   2.990
  323SOL     OW  990   0.428   0.424   2.382
  323SOL    HW1  991   0.458   0.352   2.320
  323SOL    HW2  992   0.389   0.384   2.465
  324SOL     OW  993   0.812   1.586   2.549
  324SOL    HW1  994   0.844   1.596   2.455
  324SOL    HW2  995   0.733   1.524   2.551
  325SOL     OW  996   0.770   1.330   2.163
  325SOL    HW1  997   0.724   1.243   2.180
  325SOL    HW2  998   0.861   1.327   2.204
  326SOL     OW  999   1.352   0.052   2.030
  326SOL    HW1 1000   1.387   0.011   1.946
  326SOL    HW2 1001   1.262   0.014   2.050
  327SOL     OW 1002   1.300   0.453   2.553
  327SOL    HW1 1003   1.241   0.533   2.557
  327SOL    HW2 1004   1.315   0.418   2.646
  328SOL     OW 1005   1.593   0.221   2.744
  328SOL    HW1 1006   1.509   0.220   2.798
  328SOL    HW2 1007   1.595   0.304   2.688
  329SOL     OW 1008   0.039   1.077   2.162
  329SOL    HW1 1009   0.138   1.066   2.153
  329SOL    HW2 1010  -0.001   0.991   2.194
  330SOL     OW 1011   0.875   1.646   2.199
  330SOL    HW1 1012   0.798   1.611   2.145
  330SOL    HW2 1013   0.843   1.717   2.261
  331SOL     OW 1014   0.230   2.490   0.113
  331SOL    HW1 1015   0.137   2.488   0.150
  331SOL    HW2 1016   0.231   2.451   0.021
  332SOL     OW 1017   0.225   2.137   0.996
  332SOL    HW1 1018   0.260   2.120   1.088
  332SOL    HW2 1019   0.137   2.092   0.984
  333SOL     OW 1020   0.019   2.230   0.647
  333SOL    HW1 1021  -0.063   2.273   0.686
  333SOL    HW2 1022  -0.009   2.157   0.584
  334SOL     OW 1023   1.135   2.565   0.717
  334SOL    HW1 1024   1.192   2.643   0.692
  334SOL    HW2 1025   1.075   2.591   0.793
  335SOL     OW 1026   1.755   2.469   0.231
  335SOL    HW1 1027   1.743   2.456   0.132
  335SOL    HW2 1028   1.725   2.388   0.280
  336SOL     OW 1029   0.768   3.006   1.023
  336SOL    HW1 1030   0.690   3.023   1.083
  336SOL    HW2 1031   0.802   3.093   0.987
  337SOL     OW 1032   0.850   2.660   1.823
  337SOL    HW1 1033   0.846   2.736   1.888
  337SOL    HW2 1034   0.872   2.696   1.732
  338SOL     OW 1035   0.685   2.874   0.665
  338SOL    HW1 1036   0.754   2.858   0.735
  338SOL    HW2 1037   0.612   2.931   0.703
  339SOL     OW 1038   0.438   2.254   1.499
  339SOL    HW1 1039   0.520   2.198   1.508
  339SOL    HW2 1040   0.357   2.196   1.503
  340SOL     OW 1041   1.603   2.309   0.737
  340SOL    HW1 1042   1.529   2.355   0.687
  340SOL    HW2 1043   1.654   2.377   0.790
  341SOL     OW 1044   0.230   3.296   0.538
  341SOL    HW1 1045   0.204   3.392   0.538
  341SOL    HW2 1046   0.159   3.242   0.583
  342SOL     OW 1047   0.240   2.953   0.886
  342SOL    HW1 1048   0.254   2.869   0.938
  342SOL    HW2 1049   0.185   3.017   0.941
  343SOL     OW 1050   0.606   2.826   0.123
  343SOL    HW1 1051   0.613   2.910   0.069
  343SOL    HW2 1052   0.652   2.839   0.211
  344SOL     OW 1053   1.594   1.976   1.480
  344SOL    HW1 1054   1.576   2.043   1.408
  344SOL    HW2 1055   1.591   2.022   1.569
  345SOL     OW 1056   0.122   2.505   0.563
  345SOL    HW1 1057   0.077   2.417   0.580
  345SOL    HW2 1058   0.121   2.559   0.647
  346SOL     OW 1059   1.689   2.784   0.612
  346SOL    HW1 1060   1.784   2.755   0.620
  346SOL    HW2 1061   1.681   2.849   0.537
  347SOL     OW 1062   0.113   2.599   1.597
  347SOL    HW1 1063   0.201   2.586   1.642
  347SOL    HW2 1064   0.100   2.696   1.575
  348SOL     OW 1065   0.613   3.227   0.726
  348SOL    HW1 1066   0.564   3.140   0.735
  348SOL    HW2 1067   0.590   3.270   0.639
  349SOL     OW 1068   1.293   3.090   1.423
  349SOL    HW1 1069   1.330   3.017   1.365
  349SOL    HW2 1070   1.345   3.095   1.508
  350SOL     OW 1071   0.809   1.866   0.502
  350SOL    HW1 1072   0.849   1.957   0.493
  350SOL    HW2 1073   0.709   1.874   0.508
  351SOL     OW 1074   0.197   2.838   1.264
  351SOL    HW1 1075   0.286   2.793   1.250
  351SOL    HW2 1076   0.124   2.773   1.245
  352SOL     OW 1077   1.525   2.861   0.190
  352SOL    HW1 1078   1.462   2.785   0.203
  352SOL    HW2 1079   1.573   2.879   0.276
  353SOL     OW 1080   0.317   2.113   1.801
  353SOL    HW1 1081   0.388   2.184   1.807
  353SOL    HW2 1082   0.229   2.152   1.829
  354SOL     OW 1083   0.598   2.591   0.270
  354SOL    HW1 1084   0.622   2.660   0.202
  354SOL    HW2 1085   0.520   2.624   0.324
  355SOL     OW 1086   1.281   2.207   0.944
  355SOL    HW1 1087   1.195   2.157   0.931
  355SOL    HW2 1088   1.343   2.153   1.000
  356SOL     OW 1089   0.807   2.467   1.465
  356SOL    HW1 1090   0.760   2.464   1.554
  356SOL    HW2 1091   0.756   2.412   1.399
  357SOL     OW 1092   1.394   2.331   1.674
  357SOL    HW1 1093   1.374   2.374   1.762
  357SOL    HW2 1094   1.472   2.269   1.683
  358SOL     OW 1095   0.973   2.752   1.572
  358SOL    HW1 1096   1.019   2.668   1.543
  358SOL    HW2 1097   0.917   2.786   1.497
  359SOL     OW 1098   0.991   2.272   1.242
  359SOL    HW1 1099   0.914   2.306   1.296
  359SOL    HW2 1100   0.957   2.221   1.163
  360SOL     OW 1101   1.041   2.563   0.429
  360SOL    HW1 1102   1.067   2.559   0.525
  360SOL    HW2 1103   0.956   2.512   0.415
  361SOL     OW 1104   0.076   2.673   0.789
  361SOL    HW1 1105   0.175   2.661   0.798
  361SOL    HW2 1106   0.052   2.768   0.810
  362SOL     OW 1107   0.865   2.210   0.195
  362SOL    HW1 1108   0.924   2.273   0.146
  362SOL    HW2 1109   0.884   2.116   0.166
  363SOL     OW 1110   1.719   2.447   1.831
  363SOL    HW1 1111   1.693   2.536   1.795
  363SOL    HW2 1112   1.717   2.379   1.758
  364SOL     OW 1113   0.550   2.058   0.885
  364SOL    HW1 1114   0.545   2.053   0.985
  364SOL    HW2 1115   0.552   2.154   0.856
  365SOL     OW 1116   1.795   2.928   0.873
  365SOL    HW1 1117   1.733   2.913   0.797
  365SOL    HW2 1118   1.743   2.939   0.958
  366SOL     OW 1119   1.458   2.597   0.728
  366SOL    HW1 1120   1.453   2.532   0.803
  366SOL    HW2 1121   1.538   2.656   0.741
  367SOL     OW 1122   0.202   2.147   1.498
  367SOL    HW1 1123   0.122   2.207   1.485
  367SOL    HW2 1124   0.192   2.098   1.584
  368SOL     OW 1125   1.400   1.969   0.426
  368SOL    HW1 1126   1.376   1.932   0.336
  368SOL    HW2 1127   1.499   1.985   0.430
  369SOL     OW 1128   0.382   2.562   0.480
  369SOL    HW1 1129   0.427   2.472   0.477
  369SOL    HW2 1130   0.288   2.551   0.513
  370SOL     OW 1131   1.547   2.084   1.729
  370SOL    HW1 1132   1.542   2.121   1.821
  370SOL    HW2 1133   1.475   2.015   1.717
  371SOL     OW 1134   0.614   1.984   0.117
  371SOL    HW1 1135   0.712   1.962   0.124
  371SOL    HW2 1136   0.583   1.967   0.024
  372SOL     OW 1137   0.781   2.126   1.749
  372SOL    HW1 1138   0.848   2.065   1.792
  372SOL    HW2 1139   0.708   2.145   1.814
  373SOL     OW 1140   1.351   2.452   1.433
  373SOL    HW1 1141   1.379   2.409   1.518
  373SOL    HW2 1142   1.376   2.548   1.434
  374SOL     OW 1143   0.922   2.365   0.899
  374SOL    HW1 1144   0.897   2.356   0.803
  374SOL    HW2 1145   0.970   2.283   0.930
  375SOL     OW 1146   0.539   1.926   0.512
  375SOL    HW1 1147   0.458   1.927   0.570
  375SOL    HW2 1148   0.542   2.009   0.457
  376SOL     OW 1149   0.935   2.098   0.480
  376SOL    HW1 1150   0.887   2.139   0.402
  376SOL    HW2 1151   1.034   2.096   0.461
  377SOL     OW 1152   1.076   2.545   1.464
  377SOL    HW1 1153   0.996   2.484   1.467
  377SOL    HW2 1154   1.157   2.492   1.440
  378SOL     OW 1155   1.032   2.411   0.016
  378SOL    HW1 1156   0.991   2.493  -0.023
  378SOL    HW2 1157   1.096   2.437   0.089
  379SOL     OW 1158   0.078   2.418   1.386
  379SOL    HW1 1159   0.170   2.417   1.345
  379SOL    HW2 1160   0.072   2.492   1.453
  380SOL     OW 1161   0.561   2.084   1.147
  380SOL    HW1 1162   0.599   2.000   1.184
  380SOL    HW2 1163   0.473   2.103   1.191
  381SOL     OW 1164   0.866   2.316   0.642
  381SOL    HW1 1165   0.834   2.388   0.580
  381SOL    HW2 1166   0.890   2.235   0.589
  382SOL     OW 1167   1.017   1.901   0.753
  382SOL    HW1 1168   0.945   1.906   0.684
  382SOL    HW2 1169   0.993   1.832   0.822
  383SOL     OW 1170   1.429   3.035   0.867
  383SOL    HW1 1171   1.374   2.951   0.860
  383SOL    HW2 1172   1.455   3.064   0.775
  384SOL     OW 1173   1.466   2.452   0.992
  384SOL    HW1 1174   1.436   2.357   0.999
  384SOL    HW2 1175   1.539   2.468   1.058
  385SOL     OW 1176   1.857   2.695   0.377
  385SOL    HW1 1177   1.899   2.631   0.441
  385SOL    HW2 1178   1.819   2.644   0.299
  386SOL     OW 1179   1.390   2.437   0.078
  386SOL    HW1 1180   1.336   2.416   0.159
  386SOL    HW2 1181   1.481   2.396   0.087
  387SOL     OW 1182   0.527   2.118   0.328
  387SOL    HW1 1183   0.554   2.059   0.253
  387SOL    HW2 1184   0.527   2.213   0.297
  388SOL     OW 1185   1.754   3.085   1.588
  388SOL    HW1 1186   1.845   3.046   1.575
  388SOL    HW2 1187   1.762   3.181   1.612
  389SOL     OW 1188   1.638   2.961   1.079
  389SOL    HW1 1189   1.643   3.042   1.138
  389SOL    HW2 1190   1.552   2.963   1.028
  390SOL     OW 1191   0.915   1.951   1.402
  390SOL    HW1 1192   0.940   1.931   1.307
  390SOL    HW2 1193   0.987   2.007   1.444
  391SOL     OW 1194   0.410   2.675   1.251
  391SOL    HW1 1195   0.496   2.687   1.301
  391SOL    HW2 1196   0.368   2.588   1.278
  392SOL     OW 1197   1.274   2.248   1.262
  392SOL    HW1 1198   1.295   2.322   1.326
  392SOL    HW2 1199   1.185   2.265   1.219
  393SOL     OW 1200   0.566   2.399   0.865
  393SOL    HW1 1201   0.578   2.465   0.791
  393SOL    HW2 1202   0.612   2.433   0.948
  394SOL     OW 1203   1.582   2.501   0.472
  394SOL    HW1 1204   1.551   2.562   0.545
  394SOL    HW2 1205   1.632   2.553   0.403
  395SOL     OW 1206   0.402   2.613   1.598
  395SOL    HW1 1207   0.470   2.668   1.551
  395SOL    HW2 1208   0.442   2.525   1.625
  396SOL     OW 1209   1.587   2.641   1.670
  396SOL    HW1 1210   1.495   2.679   1.665
  396SOL    HW2 1211   1.647   2.688   1.605
  397SOL     OW 1212   1.013   1.967   1.770
  397SOL    HW1 1213   1.019   2.052   1.718
  397SOL    HW2 1214   1.045   1.891   1.713
  398SOL     OW 1215   0.504   1.912   1.740
  398SOL    HW1 1216   0.462   1.855   1.670
  398SOL    HW2 1217   0.438   1.981   1.772
  399SOL     OW 1218   0.573   2.732   1.029
  399SOL    HW1 1219   0.617   2.821   1.020
  399SOL    HW2 1220   0.510   2.732   1.106
  400SOL     OW 1221   1.360   2.724   1.045
  400SOL    HW1 1222   1.285   2.724   0.979
  400SOL    HW2 1223   1.397   2.632   1.054
  401SOL     OW 1224   1.209   2.387   0.275
  401SOL    HW1 1225   1.222   2.303   0.329
  401SOL    HW2 1226   1.180   2.461   0.335
  402SOL     OW 1227   0.307   2.075   1.231
  402SOL    HW1 1228   0.284   2.112   1.321
  402SOL    HW2 1229   0.277   1.980   1.225
  403SOL     OW 1230   0.037   3.172   1.282
  403SOL    HW1 1231   0.090   3.123   1.350
  403SOL    HW2 1232   0.059   3.270   1.287
  404SOL     OW 1233   0.732   2.496   1.064
  404SOL    HW1 1234   0.791   2.470   0.988
  404SOL    HW2 1235   0.704   2.592   1.053
  405SOL     OW 1236   1.728   2.797   1.854
  405SOL    HW1 1237   1.682   2.790   1.765
  405SOL    HW2 1238   1.666   2.841   1.920
  406SOL     OW 1239   0.307   1.925   0.618
  406SOL    HW1 1240   0.296   2.019   0.651
  406SOL    HW2 1241   0.302   1.862   0.695
  407SOL     OW 1242   1.622   2.229   0.374
  407SOL    HW1 1243   1.624   2.153   0.438
  407SOL    HW2 1244   1.574   2.306   0.414
  408SOL     OW 1245   1.023   2.628   0.966
  408SOL    HW1 1246   1.038   2.649   1.062
  408SOL    HW2 1247   0.993   2.533   0.957
  409SOL     OW 1248   0.350   2.760   1.804
  409SOL    HW1 1249   0.426   2.804   1.852
  409SOL    HW2 1250   0.385   2.713   1.722
  410SOL     OW 1251   1.540   2.136   0.125
  410SOL    HW1 1252   1.479   2.061   0.148
  410SOL    HW2 1253   1.562   2.188   0.208
  411SOL     OW 1254   1.303   2.700   0.042
  411SOL    HW1 1255   1.337   2.607   0.057
  411SOL    HW2 1256   1.321   2.727  -0.053
  412SOL     OW 1257   0.319   2.672   0.949
  412SOL    HW1 1258   0.412   2.708   0.954
  412SOL    HW2 1259   0.313   2.587   1.001
  413SOL     OW 1260   0.339   2.371   1.006
  413SOL    HW1 1261   0.287   2.288   0.989
  413SOL    HW2 1262   0.416   2.376   0.942
  414SOL     OW 1263   1.138   2.242   1.678
  414SOL    HW1 1264   1.093   2.305   1.742
  414SOL    HW2 1265   1.231   2.273   1.661
  415SOL     OW 1266   1.160   2.069   1.477
  415SOL    HW1 1267   1.160   2.133   1.554
  415SOL    HW2 1268   1.188   2.117   1.394
  416SOL     OW 1269   1.002   2.658   1.238
  416SOL    HW1 1270   1.043   2.626   1.324
  416SOL    HW2 1271   0.906   2.631   1.235
  417SOL     OW 1272   0.040   2.406   1.114
  417SOL    HW1 1273   0.125   2.373   1.073
  417SOL    HW2 1274   0.053   2.421   1.212
  418SOL     OW 1275   0.189   2.382   1.722
  418SOL    HW1 1276   0.248   2.342   1.652
  418SOL    HW2 1277   0.131   2.453   1.681
  419SOL     OW 1278   1.369   2.812   1.660
  419SOL    HW1 1279   1.408   2.901   1.680
  419SOL    HW2 1280   1.379   2.792   1.563
  420SOL     OW 1281   0.815   2.434   0.325
  420SOL    HW1 1282   0.822   2.345   0.279
  420SOL    HW2 1283   0.721   2.468   0.317
  421SOL     OW 1284   1.657   2.466   1.206
  421SOL    HW1 1285   1.619   2.397   1.268
  421SOL    HW2 1286   1.739   2.430   1.162
  422SOL     OW 1287   0.671   2.326   1.269
  422SOL    HW1 1288   0.637   2.237   1.239
  422SOL    HW2 1289   0.697   2.380   1.189
  423SOL     OW 1290   0.473   2.362   0.191
  423SOL    HW1 1291   0.534   2.442   0.195
  423SOL    HW2 1292   0.378   2.393   0.198
  424SOL     OW 1293   0.159   2.999   1.466
  424SOL    HW1 1294   0.181   2.938   1.542
  424SOL    HW2 1295   0.169   2.950   1.380
  425SOL     OW 1296   1.347   2.921   1.234
  425SOL    HW1 1297   1.371   2.858   1.160
  425SOL    HW2 1298   1.257   2.961   1.216
  426SOL     OW 1299   1.302   2.717   0.309
  426SOL    HW1 1300   1.216   2.686   0.351
  426SOL    HW2 1301   1.298   2.703   0.210
  427SOL     OW 1302   0.903   1.948   0.133
  427SOL    HW1 1303   0.954   1.949   0.047
  427SOL    HW2 1304   0.959   1.906   0.204
  428SOL     OW 1305   1.726   1.997   0.523
  428SOL    HW1 1306   1.799   1.980   0.456
  428SOL    HW2 1307   1.695   1.910   0.561
  429SOL     OW 1308   1.280   2.789   0.672
  429SOL    HW1 1309   1.340   2.708   0.674
  429SOL    HW2 1310   1.320   2.858   0.612
  430SOL     OW 1311   1.841   2.037   0.963
  430SOL    HW1 1312   1.880   1.952   0.927
  430SOL    HW2 1313   1.743   2.039   0.944
  431SOL     OW 1314   0.263   2.188   0.720
  431SOL    HW1 1315   0.184   2.239   0.686
  431SOL    HW2 1316   0.254   2.173   0.818
  432SOL     OW 1317   0.822   2.864   1.372
  432SOL    HW1 1318   0.862   2.863   1.280
  432SOL    HW2 1319   0.832   2.956   1.412
  433SOL     OW 1320   0.916   2.772   0.291
  433SOL    HW1 1321   0.979   2.810   0.223
  433SOL    HW2 1322   0.956   2.689   0.330
  434SOL     OW 1323   1.014   2.098   0.971
  434SOL    HW1 1324   1.006   2.062   0.878
  434SOL    HW2 1325   1.012   2.022   1.036
  435SOL     OW 1326   1.709   2.247   1.381
  435SOL    HW1 1327   1.782   2.316   1.385
  435SOL    HW2 1328   1.737   2.172   1.322
  436SOL     OW 1329   0.105   2.875   1.726
  436SOL    HW1 1330   0.028   2.842   1.780
  436SOL    HW2 1331   0.190   2.845   1.768
  437SOL     OW 1332   0.672   2.065   1.489
  437SOL    HW1 1333   0.762   2.049   1.449
  437SOL    HW2 1334   0.680   2.070   1.588
  438SOL     OW 1335   0.075   2.207   0.033
  438SOL    HW1 1336  -0.017   2.179   0.004
  438SOL    HW2 1337   0.106   2.284  -0.023
  439SOL     OW 1338   1.440   2.718   1.398
  439SOL    HW1 1339   1.383   2.770   1.335
  439SOL    HW2 1340   1.536   2.730   1.374
  440SOL     OW 1341   0.072   2.028   0.318
  440SOL    HW1 1342   0.055   2.111   0.264
  440SOL    HW2 1343   0.162   1.991   0.296
  441SOL     OW 1344   1.183   3.197   0.119
  441SOL    HW1 1345   1.084   3.186   0.121
  441SOL    HW2 1346   1.217   3.212   0.212
  442SOL     OW 1347   0.613   2.704   1.431
  442SOL    HW1 1348   0.669   2.785   1.414
  442SOL    HW2 1349   0.672   2.624   1.434
  443SOL     OW 1350   0.716   2.427   1.708
  443SOL    HW1 1351   0.735   2.492   1.782
  443SOL    HW2 1352   0.776   2.347   1.717
  444SOL     OW 1353   1.674   2.745   1.254
  444SOL    HW1 1354   1.647   2.656   1.217
  444SOL    HW2 1355   1.675   2.813   1.181
  445SOL     OW 1356   1.225   2.187   0.449
  445SOL    HW1 1357   1.290   2.113   0.438
  445SOL    HW2 1358   1.245   2.237   0.533
  446SOL     OW 1359   0.594   2.607   0.652
  446SOL    HW1 1360   0.644   2.692   0.633
  446SOL    HW2 1361   0.506   2.609   0.604
  447SOL     OW 1362   1.777   2.204   1.642
  447SOL    HW1 1363   1.760   2.235   1.548
  447SOL    HW2 1364   1.693   2.167   1.680
  448SOL     OW 1365   1.730   2.796   1.517
  448SOL    HW1 1366   1.768   2.887   1.532
  448SOL    HW2 1367   1.722   2.779   1.418
  449SOL     OW 1368   0.859   2.818   0.861
  449SOL    HW1 1369   0.913   2.749   0.909
  449SOL    HW2 1370   0.827   2.887   0.927
  450SOL     OW 1371   1.083   2.846   0.087
  450SOL    HW1 1372   1.060   2.899   0.005
  450SOL    HW2 1373   1.164   2.790   0.068
  451SOL     OW 1374   1.824   2.054   1.227
  451SOL    HW1 1375   1.820   1.964   1.271
  451SOL    HW2 1376   1.827   2.043   1.128
  452SOL     OW 1377   0.428   2.286   0.520
  452SOL    HW1 1378   0.458   2.214   0.458
  452SOL    HW2 1379   0.389   2.246   0.603
  453SOL     OW 1380   0.317   2.409   1.280
  453SOL    HW1 1381   0.355   2.350   1.352
  453SOL    HW2 1382   0.357   2.383   1.192
  454SOL     OW 1383   1.424   2.076   1.112
  454SOL    HW1 1384   1.476   2.011   1.167
  454SOL    HW2 1385   1.375   2.139   1.173
  455SOL     OW 1386   1.001   1.896   1.154
  455SOL    HW1 1387   0.938   1.824   1.123
  455SOL    HW2 1388   1.094   1.860   1.154
  456SOL     OW 1389   1.352   1.914   0.168
  456SOL    HW1 1390   1.387   1.873   0.084
  456SOL    HW2 1391   1.262   1.876   0.188
  457SOL     OW 1392   1.300   2.315   0.691
  457SOL    HW1 1393   1.241   2.395   0.695
  457SOL    HW2 1394   1.315   2.280   0.784
  458SOL     OW 1395   1.593   2.083   0.882
  458SOL    HW1 1396   1.509   2.082   0.936
  458SOL    HW2 1397   1.595   2.166   0.826
  459SOL     OW 1398   0.039   2.939   0.300
  459SOL    HW1 1399   0.138   2.928   0.291
  459SOL    HW2 1400  -0.001   2.853   0.332
  460SOL     OW 1401   0.230   2.490   1.975
  460SOL    HW1 1402   0.137   2.488   2.012
  460SOL    HW2 1403   0.231   2.451   1.883
  461SOL     OW 1404   0.225   2.137   2.858
  461SOL    HW1 1405   0.260   2.120   2.950
  461SOL    HW2 1406   0.137   2.092   2.846
  462SOL     OW 1407   0.019   2.230   2.509
  462SOL    HW1 1408  -0.063   2.273   2.548
  462SOL    HW2 1409  -0.009   2.157   2.446
  463SOL     OW 1410   1.135   2.565   2.579
  463SOL    HW1 1411   1.192   2.643   2.554
  463SOL    HW2 1412   1.075   2.591   2.655
  464SOL     OW 1413   1.755   2.469   2.093
  464SOL    HW1 1414   1.743   2.456   1.994
  464SOL    HW2 1415   1.725   2.388   2.142
  465SOL     OW 1416   0.768   3.006   2.885
  465SOL    HW1 1417   0.690   3.023   2.945
  465SOL    HW2 1418   0.802   3.093   2.849
  466SOL     OW 1419   0.685   2.874   2.527
  466SOL    HW1 1420   0.754   2.858   2.597
  466SOL    HW2 1421   0.612   2.931   2.565
  467SOL     OW 1422   1.603   2.309   2.599
  467SOL    HW1 1423   1.529   2.355   2.549
  467SOL    HW2 1424   1.654   2.377   2.652
  468SOL     OW 1425   0.230   3.296   2.400
  468SOL    HW1 1426   0.204   3.392   2.400
  468SOL    HW2 1427   0.159   3.242   2.445
  469SOL     OW 1428   0.240   2.953   2.748
  469SOL    HW1 1429   0.254   2.869   2.800
  469SOL    HW2 1430   0.185   3.017   2.803
  470SOL     OW 1431   0.606   2.826   1.985
  470SOL    HW1 1432   0.613   2.910   1.931
  470SOL    HW2 1433   0.652   2.839   2.073
  471SOL     OW 1434   0.122   2.505   2.425
  471SOL    HW1 1435   0.077   2.417   2.442
  471SOL    HW2 1436   0.121   2.559   2.509
  472SOL     OW 1437   1.689   2.784   2.474
  472SOL    HW1 1438   1.784   2.755   2.482
  472SOL    HW2 1439   1.681   2.849   2.399
  473SOL     OW 1440   0.613   3.227   2.588
  473SOL    HW1 1441   0.564   3.140   2.597
  473SOL    HW2 1442   0.590   3.270   2.501
  474SOL     OW 1443   0.809   1.866   2.364
  474SOL    HW1 1444   0.849   1.957   2.355
  474SOL    HW2 1445   0.709   1.874   2.370
  475SOL     OW 1446   0.197   2.838   3.126
  475SOL    HW1 1447   0.286   2.793   3.112
  475SOL    HW2 1448   0.124   2.773   3.107
  476SOL     OW 1449   1.525   2.861   2.052
  476SOL    HW1 1450   1.462   2.785   2.065
  476SOL    HW2 1451   1.573   2.879   2.138
  477SOL     OW 1452   0.598   2.591   2.132
  477SOL    HW1 1453   0.622   2.660   2.064
  477SOL    HW2 1454   0.520   2.624   2.186
  478SOL     OW 1455   1.281   2.207   2.806
  478SOL    HW1 1456   1.195   2.157   2.793
  478SOL    HW2 1457   1.343   2.153   2.862
  479SOL     OW 1458   1.041   2.563   2.291
  479SOL    HW1 1459   1.067   2.559   2.387
  479SOL    HW2 1460   0.956   2.512   2.277
  480SOL     OW 1461   0.076   2.673   2.651
  480SOL    HW1 1462   0.175   2.661   2.660
  480SOL    HW2 1463   0.052   2.768   2.672
  481SOL     OW 1464   0.865   2.210   2.057
  481SOL    HW1 1465   0.924   2.273   2.008
  481SOL    HW2 1466   0.884   2.116   2.028
  482SOL     OW 1467   0.550   2.058   2.747
  482SOL    HW1 1468   0.545   2.053   2.847
  482SOL    HW2 1469   0.552   2.154   2.718
  483SOL     OW 1470   1.795   2.928   2.735
  483SOL    HW1 1471   1.733   2.913   2.659
  483SOL    HW2 1472   1.743   2.939   2.820
  484SOL     OW 1473   1.458   2.597   2.590
  484SOL    HW1 1474   1.453   2.532   2.665
  484SOL    HW2 1475   1.538   2.656   2.603
  485SOL     OW 1476   1.400   1.969   2.288
  485SOL    HW1 1477   1.376   1.932   2.198
  485SOL    HW2 1478   1.499   1.985   2.292
  486SOL     OW 1479   0.382   2.562   2.342
  486SOL    HW1 1480   0.427   2.472   2.339
  486SOL    HW2 1481   0.288   2.551   2.375
  487SOL     OW 1482   0.614   1.984   1.979
  487SOL    HW1 1483   0.712   1.962   1.986
  487SOL    HW2 1484   0.583   1.967   1.886
  488SOL     OW 1485   0.922   2.365   2.761
  488SOL    HW1 1486   0.897   2.356   2.665
  488SOL    HW2 1487   0.970   2.283   2.792
  489SOL     OW 1488   0.539   1.926   2.374
  489SOL    HW1 1489   0.458   1.927   2.432
  489SOL    HW2 1490   0.542   2.009   2.319
  490SOL     OW 1491   0.297   1.897   2.033
  490SOL    HW1 1492   0.346   1.981   2.012
  490SOL    HW2 1493   0.359   1.832   2.078
  491SOL     OW 1494   0.935   2.098   2.342
  491SOL    HW1 1495   0.887   2.139   2.264
  491SOL    HW2 1496   1.034   2.096   2.323
  492SOL     OW 1497   1.032   2.411   1.878
  492SOL    HW1 1498   0.991   2.493   1.839
  492SOL    HW2 1499   1.096   2.437   1.951
  493SOL     OW 1500   0.866   2.316   2.504
  493SOL    HW1 1501   0.834   2.388   2.442
  493SOL    HW2 1502   0.890   2.235   2.451
  494SOL     OW 1503   1.017   1.901   2.615
  494SOL    HW1 1504   0.945   1.906   2.546
  494SOL    HW2 1505   0.993   1.832   2.684
  495SOL     OW 1506   1.429   3.035   2.729
  495SOL    HW1 1507   1.374   2.951   2.722
  495SOL    HW2 1508   1.455   3.064   2.637
  496SOL     OW 1509   1.466   2.452   2.854
  496SOL    HW1 1510   1.436   2.357   2.861
  496SOL    HW2 1511   1.539   2.468   2.920
  497SOL     OW 1512   1.857   2.695   2.239
  497SOL    HW1 1513   1.899   2.631   2.303
  497SOL    HW2 1514   1.819   2.644   2.161
  498SOL     OW 1515   1.390   2.437   1.940
  498SOL    HW1 1516   1.336   2.416   2.021
  498SOL    HW2 1517   1.481   2.396   1.949
  499SOL     OW 1518   0.527   2.118   2.190
  499SOL    HW1 1519   0.554   2.059   2.115
  499SOL    HW2 1520   0.527   2.213   2.159
  500SOL     OW 1521   1.638   2.961   2.941
  500SOL    HW1 1522   1.643   3.042   3.000
  500SOL    HW2 1523   1.552   2.963   2.890
  501SOL     OW 1524   0.566   2.399   2.727
  501SOL    HW1 1525   0.578   2.465   2.653
  501SOL    HW2 1526   0.612   2.433   2.810
  502SOL     OW 1527   1.582   2.501   2.334
  502SOL    HW1 1528   1.551   2.562   2.407
  502SOL    HW2 1529   1.632   2.553   2.265
  503SOL     OW 1530   0.573   2.732   2.891
  503SOL    HW1 1531   0.617   2.821   2.882
  503SOL    HW2 1532   0.510   2.732   2.968
  504SOL     OW 1533   1.209   2.387   2.137
  504SOL    HW1 1534   1.222   2.303   2.191
  504SOL    HW2 1535   1.180   2.461   2.197
  505SOL     OW 1536   0.307   2.075   3.093
  505SOL    HW1 1537   0.284   2.112   3.183
  505SOL    HW2 1538   0.277   1.980   3.087
  506SOL     OW 1539   0.732   2.496   2.926
  506SOL    HW1 1540   0.791   2.470   2.850
  506SOL    HW2 1541   0.704   2.592   2.915
  507SOL     OW 1542   0.307   1.925   2.480
  507SOL    HW1 1543   0.296   2.019   2.513
  507SOL    HW2 1544   0.302   1.862   2.557
  508SOL     OW 1545   1.622   2.229   2.236
  508SOL    HW1 1546   1.624   2.153   2.300
  508SOL    HW2 1547   1.574   2.306   2.276
  509SOL     OW 1548   1.023   2.628   2.828
  509SOL    HW1 1549   1.038   2.649   2.924
  509SOL    HW2 1550   0.993   2.533   2.819
  510SOL     OW 1551   1.540   2.136   1.987
  510SOL    HW1 1552   1.479   2.061   2.010
  510SOL    HW2 1553   1.562   2.188   2.070
  511SOL     OW 1554   1.303   2.700   1.904
  511SOL    HW1 1555   1.337   2.607   1.919
  511SOL    HW2 1556   1.321   2.727   1.809
  512SOL     OW 1557   0.319   2.672   2.811
  512SOL    HW1 1558   0.412   2.708   2.816
  512SOL    HW2 1559   0.313   2.587   2.863
  513SOL     OW 1560   0.339   2.371   2.868
  513SOL    HW1 1561   0.287   2.288   2.851
  513SOL    HW2 1562   0.416   2.376   2.804
  514SOL     OW 1563   1.002   2.658   3.100
  514SOL    HW1 1564   1.043   2.626   3.186
  514SOL    HW2 1565   0.906   2.631   3.097
  515SOL     OW 1566   0.815   2.434   2.187
  515SOL    HW1 1567   0.822   2.345   2.141
  515SOL    HW2 1568   0.721   2.468   2.179
  516SOL     OW 1569   0.671   2.326   3.131
  516SOL    HW1 1570   0.637   2.237   3.101
  516SOL    HW2 1571   0.697   2.380   3.051
  517SOL     OW 1572   0.473   2.362   2.053
  517SOL    HW1 1573   0.534   2.442   2.057
  517SOL    HW2 1574   0.378   2.393   2.060
  518SOL     OW 1575   1.302   2.717   2.171
  518SOL    HW1 1576   1.216   2.686   2.213
  518SOL    HW2 1577   1.298   2.703   2.072
  519SOL     OW 1578   1.726   1.997   2.385
  519SOL    HW1 1579   1.799   1.980   2.318
  519SOL    HW2 1580   1.695   1.910   2.423
  520SOL     OW 1581   1.280   2.789   2.534
  520SOL    HW1 1582   1.340   2.708   2.536
  520SOL    HW2 1583   1.320   2.858   2.474
  521SOL     OW 1584   1.841   2.037   2.825
  521SOL    HW1 1585   1.880   1.952   2.789
  521SOL    HW2 1586   1.743   2.039   2.806
  522SOL     OW 1587   0.263   2.188   2.582
  522SOL    HW1 1588   0.184   2.239   2.548
  522SOL    HW2 1589   0.254   2.173   2.680
  523SOL     OW 1590   0.916   2.772   2.153
  523SOL    HW1 1591   0.979   2.810   2.085
  523SOL    HW2 1592   0.956   2.689   2.192
  524SOL     OW 1593   1.014   2.098   2.833
  524SOL    HW1 1594   1.006   2.062   2.740
  524SOL    HW2 1595   1.012   2.022   2.898
  525SOL     OW 1596   0.075   2.207   1.895
  525SOL    HW1 1597  -0.017   2.179   1.866
  525SOL    HW2 1598   0.106   2.284   1.839
  526SOL     OW 1599   0.072   2.028   2.180
  526SOL    HW1 1600   0.055   2.111   2.126
  526SOL    HW2 1601   0.162   1.991   2.158
  527SOL     OW 1602   1.183   3.197   1.981
  527SOL    HW1 1603   1.084   3.186   1.983
  527SOL    HW2 1604   1.217   3.212   2.074
  528SOL     OW 1605   1.674   2.745   3.116
  528SOL    HW1 1606   1.647   2.656   3.079
  528SOL    HW2 1607   1.675   2.813   3.043
  529SOL     OW 1608   1.225   2.187   2.311
  529SOL    HW1 1609   1.290   2.113   2.300
  529SOL    HW2 1610   1.245   2.237   2.395
  530SOL     OW 1611   0.594   2.607   2.514
  530SOL    HW1 1612   0.644   2.692   2.495
  530SOL    HW2 1613   0.506   2.609   2.466
  531SOL     OW 1614   0.859   2.818   2.723
  531SOL    HW1 1615   0.913   2.749   2.771
  531SOL    HW2 1616   0.827   2.887   2.789
  532SOL     OW 1617   1.083   2.846   1.949
  532SOL    HW1 1618   1.060   2.899   1.867
  532SOL    HW2 1619   1.164   2.790   1.930
  533SOL     OW 1620   1.824   2.054   3.089
  533SOL    HW1 1621   1.820   1.964   3.133
  533SOL    HW2 1622   1.827   2.043   2.990
  534SOL     OW 1623   0.428   2.286   2.382
  534SOL    HW1 1624   0.458   2.214   2.320
  534SOL    HW2 1625   0.389   2.246   2.465
  535SOL     OW 1626   1.352   1.914   2.030
  535SOL    HW1 1627   1.387   1.873   1.946
  535SOL    HW2 1628   1.262   1.876   2.050
  536SOL     OW 1629   1.300   2.315   2.553
  536SOL    HW1 1630   1.241   2.395   2.557
  536SOL    HW2 1631   1.315   2.280   2.646
  537SOL     OW 1632   1.593   2.083   2.744
  537SOL    HW1 1633   1.509   2.082   2.798
  537SOL    HW2 1634   1.595   2.166   2.688
  538SOL     OW 1635   0.039   2.939   2.162
  538SOL    HW1 1636   0.138   2.928   2.153
  538SOL    HW2 1637  -0.001   2.853   2.194
  539SOL     OW 1638   2.092   0.628   0.113
  539SOL    HW1 1639   1.999   0.626   0.150
  539SOL    HW2 1640   2.093   0.589   0.021
  540SOL     OW 1641   2.087   0.275   0.996
  540SOL    HW1 1642   2.122   0.258   1.088
  540SOL    HW2 1643   1.999   0.230   0.984
  541SOL     OW 1644   1.881   0.368   0.647
  541SOL    HW1 1645   1.799   0.411   0.686
  541SOL    HW2 1646   1.853   0.295   0.584
  542SOL     OW 1647   2.431   1.275   1.165
  542SOL    HW1 1648   2.338   1.268   1.128
  542SOL    HW2 1649   2.442   1.364   1.209
  543SOL     OW 1650   2.630   1.144   1.023
  543SOL    HW1 1651   2.552   1.161   1.083
  543SOL    HW2 1652   2.664   1.231   0.987
  544SOL     OW 1653   2.712   0.798   1.823
  544SOL    HW1 1654   2.708   0.874   1.888
  544SOL    HW2 1655   2.734   0.834   1.732
  545SOL     OW 1656   2.547   1.012   0.665
  545SOL    HW1 1657   2.616   0.996   0.735
  545SOL    HW2 1658   2.474   1.069   0.703
  546SOL     OW 1659   2.548   1.161   1.803
  546SOL    HW1 1660   2.608   1.240   1.817
  546SOL    HW2 1661   2.462   1.192   1.762
  547SOL     OW 1662   2.197   1.435   1.061
  547SOL    HW1 1663   2.119   1.404   1.008
  547SOL    HW2 1664   2.255   1.493   1.004
  548SOL     OW 1665   2.300   0.392   1.499
  548SOL    HW1 1666   2.382   0.336   1.508
  548SOL    HW2 1667   2.219   0.334   1.503
  549SOL     OW 1668   2.093   1.713   0.483
  549SOL    HW1 1669   2.127   1.790   0.537
  549SOL    HW2 1670   2.137   1.713   0.393
  550SOL     OW 1671   2.989   1.341   1.690
  550SOL    HW1 1672   3.036   1.341   1.778
  550SOL    HW2 1673   2.941   1.254   1.679
  551SOL     OW 1674   2.092   1.434   0.538
  551SOL    HW1 1675   2.066   1.530   0.538
  551SOL    HW2 1676   2.021   1.380   0.583
  552SOL     OW 1677   2.102   1.091   0.886
  552SOL    HW1 1678   2.116   1.007   0.938
  552SOL    HW2 1679   2.047   1.155   0.941
  553SOL     OW 1680   2.482   1.786   1.439
  553SOL    HW1 1681   2.390   1.769   1.474
  553SOL    HW2 1682   2.510   1.878   1.465
  554SOL     OW 1683   2.468   0.964   0.123
  554SOL    HW1 1684   2.475   1.048   0.069
  554SOL    HW2 1685   2.514   0.977   0.211
  555SOL     OW 1686   1.984   0.643   0.563
  555SOL    HW1 1687   1.939   0.555   0.580
  555SOL    HW2 1688   1.983   0.697   0.647
  556SOL     OW 1689   1.889   1.596   0.117
  556SOL    HW1 1690   1.870   1.500   0.138
  556SOL    HW2 1691   1.856   1.654   0.192
  557SOL     OW 1692   1.975   0.737   1.597
  557SOL    HW1 1693   2.063   0.724   1.642
  557SOL    HW2 1694   1.962   0.834   1.575
  558SOL     OW 1695   2.475   1.365   0.726
  558SOL    HW1 1696   2.426   1.278   0.735
  558SOL    HW2 1697   2.452   1.408   0.639
  559SOL     OW 1698   2.671   0.004   0.502
  559SOL    HW1 1699   2.711   0.095   0.493
  559SOL    HW2 1700   2.571   0.012   0.508
  560SOL     OW 1701   2.059   0.976   1.264
  560SOL    HW1 1702   2.148   0.931   1.250
  560SOL    HW2 1703   1.986   0.911   1.245
  561SOL     OW 1704   2.179   0.251   1.801
  561SOL    HW1 1705   2.250   0.322   1.807
  561SOL    HW2 1706   2.091   0.290   1.829
  562SOL     OW 1707   2.460   0.729   0.270
  562SOL    HW1 1708   2.484   0.798   0.202
  562SOL    HW2 1709   2.382   0.762   0.324
  563SOL     OW 1710   2.669   0.605   1.465
  563SOL    HW1 1711   2.622   0.602   1.554
  563SOL    HW2 1712   2.618   0.550   1.399
  564SOL     OW 1713   2.835   0.890   1.572
  564SOL    HW1 1714   2.881   0.806   1.543
  564SOL    HW2 1715   2.779   0.924   1.497
  565SOL     OW 1716   2.853   0.410   1.242
  565SOL    HW1 1717   2.776   0.444   1.296
  565SOL    HW2 1718   2.819   0.359   1.163
  566SOL     OW 1719   2.903   0.701   0.429
  566SOL    HW1 1720   2.929   0.697   0.525
  566SOL    HW2 1721   2.818   0.650   0.415
  567SOL     OW 1722   1.938   0.811   0.789
  567SOL    HW1 1723   2.037   0.799   0.798
  567SOL    HW2 1724   1.914   0.906   0.810
  568SOL     OW 1725   1.992   1.821   1.571
  568SOL    HW1 1726   1.982   1.806   1.670
  568SOL    HW2 1727   1.906   1.857   1.535
  569SOL     OW 1728   2.727   0.348   0.195
  569SOL    HW1 1729   2.786   0.411   0.146
  569SOL    HW2 1730   2.746   0.254   0.166
  570SOL     OW 1731   2.412   0.196   0.885
  570SOL    HW1 1732   2.407   0.191   0.985
  570SOL    HW2 1733   2.414   0.292   0.856
  571SOL     OW 1734   2.870   1.456   0.477
  571SOL    HW1 1735   2.824   1.528   0.425
  571SOL    HW2 1736   2.866   1.476   0.575
  572SOL     OW 1737   2.213   1.801   0.853
  572SOL    HW1 1738   2.263   1.715   0.859
  572SOL    HW2 1739   2.278   1.878   0.850
  573SOL     OW 1740   2.183   0.943   0.242
  573SOL    HW1 1741   2.265   0.982   0.200
  573SOL    HW2 1742   2.156   0.861   0.193
  574SOL     OW 1743   2.323   1.266   1.727
  574SOL    HW1 1744   2.273   1.267   1.641
  574SOL    HW2 1745   2.260   1.248   1.803
  575SOL     OW 1746   2.064   0.285   1.498
  575SOL    HW1 1747   1.984   0.345   1.485
  575SOL    HW2 1748   2.054   0.236   1.584
  576SOL     OW 1749   2.326   1.743   0.323
  576SOL    HW1 1750   2.359   1.782   0.409
  576SOL    HW2 1751   2.402   1.736   0.258
  577SOL     OW 1752   2.111   1.785   1.241
  577SOL    HW1 1753   2.168   1.720   1.291
  577SOL    HW2 1754   2.095   1.752   1.148
  578SOL     OW 1755   2.802   1.698   0.904
  578SOL    HW1 1756   2.882   1.641   0.925
  578SOL    HW2 1757   2.753   1.658   0.827
  579SOL     OW 1758   2.244   0.700   0.480
  579SOL    HW1 1759   2.289   0.610   0.477
  579SOL    HW2 1760   2.150   0.689   0.513
  580SOL     OW 1761   2.476   0.122   0.117
  580SOL    HW1 1762   2.574   0.100   0.124
  580SOL    HW2 1763   2.445   0.105   0.024
  581SOL     OW 1764   2.643   0.264   1.749
  581SOL    HW1 1765   2.710   0.203   1.792
  581SOL    HW2 1766   2.570   0.283   1.814
  582SOL     OW 1767   2.750   1.514   1.195
  582SOL    HW1 1768   2.727   1.489   1.101
  582SOL    HW2 1769   2.811   1.445   1.234
  583SOL     OW 1770   2.665   1.402   0.924
  583SOL    HW1 1771   2.755   1.416   0.882
  583SOL    HW2 1772   2.594   1.404   0.853
  584SOL     OW 1773   2.784   0.503   0.899
  584SOL    HW1 1774   2.759   0.494   0.803
  584SOL    HW2 1775   2.832   0.421   0.930
  585SOL     OW 1776   2.401   0.064   0.512
  585SOL    HW1 1777   2.320   0.065   0.570
  585SOL    HW2 1778   2.404   0.147   0.457
  586SOL     OW 1779   3.296   1.188   0.041
  586SOL    HW1 1780   3.328   1.112   0.098
  586SOL    HW2 1781   3.204   1.215   0.071
  587SOL     OW 1782   2.159   0.035   0.171
  587SOL    HW1 1783   2.208   0.119   0.150
  587SOL    HW2 1784   2.221  -0.030   0.216
  588SOL     OW 1785   2.797   0.236   0.480
  588SOL    HW1 1786   2.749   0.277   0.402
  588SOL    HW2 1787   2.896   0.234   0.461
  589SOL     OW 1788   3.089   1.570   0.793
  589SOL    HW1 1789   3.110   1.644   0.728
  589SOL    HW2 1790   3.157   1.570   0.866
  590SOL     OW 1791   2.321   1.152   0.741
  590SOL    HW1 1792   2.250   1.125   0.806
  590SOL    HW2 1793   2.295   1.124   0.648
  591SOL     OW 1794   2.894   0.549   0.016
  591SOL    HW1 1795   2.853   0.631  -0.023
  591SOL    HW2 1796   2.958   0.575   0.089
  592SOL     OW 1797   1.940   0.556   1.386
  592SOL    HW1 1798   2.032   0.555   1.345
  592SOL    HW2 1799   1.934   0.630   1.453
  593SOL     OW 1800   2.423   0.222   1.147
  593SOL    HW1 1801   2.461   0.138   1.184
  593SOL    HW2 1802   2.335   0.241   1.191
  594SOL     OW 1803   2.728   0.454   0.642
  594SOL    HW1 1804   2.696   0.526   0.580
  594SOL    HW2 1805   2.752   0.373   0.589
  595SOL     OW 1806   2.879   0.039   0.753
  595SOL    HW1 1807   2.807   0.044   0.684
  595SOL    HW2 1808   2.855  -0.030   0.822
  596SOL     OW 1809   2.350   1.385   0.174
  596SOL    HW1 1810   2.263   1.370   0.221
  596SOL    HW2 1811   2.333   1.411   0.079
  597SOL     OW 1812   2.389   0.256   0.328
  597SOL    HW1 1813   2.416   0.197   0.253
  597SOL    HW2 1814   2.389   0.351   0.297
  598SOL     OW 1815   2.777   0.089   1.402
  598SOL    HW1 1816   2.802   0.069   1.307
  598SOL    HW2 1817   2.849   0.145   1.444
  599SOL     OW 1818   2.842   1.116   1.719
  599SOL    HW1 1819   2.743   1.122   1.729
  599SOL    HW2 1820   2.865   1.036   1.663
  600SOL     OW 1821   2.567   1.050   0.368
  600SOL    HW1 1822   2.553   1.057   0.467
  600SOL    HW2 1823   2.651   0.999   0.350
  601SOL     OW 1824   2.272   0.813   1.251
  601SOL    HW1 1825   2.358   0.825   1.301
  601SOL    HW2 1826   2.230   0.726   1.278
  602SOL     OW 1827   1.926   1.564   1.331
  602SOL    HW1 1828   1.880   1.646   1.297
  602SOL    HW2 1829   2.024   1.583   1.340
  603SOL     OW 1830   2.229   1.100   0.501
  603SOL    HW1 1831   2.222   1.183   0.445
  603SOL    HW2 1832   2.233   1.020   0.441
  604SOL     OW 1833   2.428   0.537   0.865
  604SOL    HW1 1834   2.440   0.603   0.791
  604SOL    HW2 1835   2.474   0.571   0.948
  605SOL     OW 1836   2.216   1.510   1.329
  605SOL    HW1 1837   2.195   1.466   1.242
  605SOL    HW2 1838   2.313   1.536   1.332
  606SOL     OW 1839   2.264   0.751   1.598
  606SOL    HW1 1840   2.332   0.806   1.551
  606SOL    HW2 1841   2.304   0.663   1.625
  607SOL     OW 1842   2.875   0.105   1.770
  607SOL    HW1 1843   2.881   0.190   1.718
  607SOL    HW2 1844   2.907   0.029   1.713
  608SOL     OW 1845   2.366   0.050   1.740
  608SOL    HW1 1846   2.324  -0.007   1.670
  608SOL    HW2 1847   2.300   0.119   1.772
  609SOL     OW 1848   2.435   0.870   1.029
  609SOL    HW1 1849   2.479   0.959   1.020
  609SOL    HW2 1850   2.372   0.870   1.106
  610SOL     OW 1851   3.071   0.525   0.275
  610SOL    HW1 1852   3.084   0.441   0.329
  610SOL    HW2 1853   3.042   0.599   0.335
  611SOL     OW 1854   2.169   0.213   1.231
  611SOL    HW1 1855   2.146   0.250   1.321
  611SOL    HW2 1856   2.139   0.118   1.225
  612SOL     OW 1857   1.899   1.310   1.282
  612SOL    HW1 1858   1.952   1.261   1.350
  612SOL    HW2 1859   1.921   1.408   1.287
  613SOL     OW 1860   2.594   0.634   1.064
  613SOL    HW1 1861   2.653   0.608   0.988
  613SOL    HW2 1862   2.566   0.730   1.053
  614SOL     OW 1863   2.169   0.063   0.618
  614SOL    HW1 1864   2.158   0.157   0.651
  614SOL    HW2 1865   2.164   0.000   0.695
  615SOL     OW 1866   2.885   0.766   0.966
  615SOL    HW1 1867   2.900   0.787   1.062
  615SOL    HW2 1868   2.855   0.671   0.957
  616SOL     OW 1869   2.842   1.573   1.700
  616SOL    HW1 1870   2.822   1.617   1.612
  616SOL    HW2 1871   2.881   1.482   1.684
  617SOL     OW 1872   2.212   0.898   1.804
  617SOL    HW1 1873   2.288   0.942   1.852
  617SOL    HW2 1874   2.247   0.851   1.722
  618SOL     OW 1875   2.930   1.333   0.849
  618SOL    HW1 1876   2.937   1.249   0.794
  618SOL    HW2 1877   2.992   1.402   0.813
  619SOL     OW 1878   2.181   0.810   0.949
  619SOL    HW1 1879   2.274   0.846   0.954
  619SOL    HW2 1880   2.175   0.725   1.001
  620SOL     OW 1881   2.201   0.509   1.006
  620SOL    HW1 1882   2.149   0.426   0.989
  620SOL    HW2 1883   2.278   0.514   0.942
  621SOL     OW 1884   3.000   0.380   1.678
  621SOL    HW1 1885   2.955   0.443   1.742
  621SOL    HW2 1886   3.093   0.411   1.661
  622SOL     OW 1887   1.870   1.326   0.200
  622SOL    HW1 1888   1.777   1.347   0.169
  622SOL    HW2 1889   1.880   1.227   0.213
  623SOL     OW 1890   1.950   1.801   0.927
  623SOL    HW1 1891   1.908   1.715   0.900
  623SOL    HW2 1892   2.044   1.804   0.893
  624SOL     OW 1893   2.366   1.568   0.910
  624SOL    HW1 1894   2.432   1.642   0.919
  624SOL    HW2 1895   2.410   1.489   0.868
  625SOL     OW 1896   2.864   0.796   1.238
  625SOL    HW1 1897   2.905   0.764   1.324
  625SOL    HW2 1898   2.768   0.769   1.235
  626SOL     OW 1899   1.902   0.544   1.114
  626SOL    HW1 1900   1.987   0.511   1.073
  626SOL    HW2 1901   1.915   0.559   1.212
  627SOL     OW 1902   2.051   0.520   1.722
  627SOL    HW1 1903   2.110   0.480   1.652
  627SOL    HW2 1904   1.993   0.591   1.681
  628SOL     OW 1905   2.677   0.572   0.325
  628SOL    HW1 1906   2.684   0.483   0.279
  628SOL    HW2 1907   2.583   0.606   0.317
  629SOL     OW 1908   2.114   1.564   1.744
  629SOL    HW1 1909   2.084   1.621   1.820
  629SOL    HW2 1910   2.107   1.467   1.770
  630SOL     OW 1911   2.533   0.464   1.269
  630SOL    HW1 1912   2.499   0.375   1.239
  630SOL    HW2 1913   2.559   0.518   1.189
  631SOL     OW 1914   2.792   1.678   1.465
  631SOL    HW1 1915   2.768   1.660   1.370
  631SOL    HW2 1916   2.822   1.772   1.475
  632SOL     OW 1917   2.335   0.500   0.191
  632SOL    HW1 1918   2.396   0.580   0.195
  632SOL    HW2 1919   2.240   0.531   0.198
  633SOL     OW 1920   2.021   1.137   1.466
  633SOL    HW1 1921   2.043   1.076   1.542
  633SOL    HW2 1922   2.031   1.088   1.380
  634SOL     OW 1923   3.164   0.855   0.309
  634SOL    HW1 1924   3.078   0.824   0.351
  634SOL    HW2 1925   3.160   0.841   0.210
  635SOL     OW 1926   1.945   1.258   1.022
  635SOL    HW1 1927   1.940   1.257   1.122
  635SOL    HW2 1928   1.862   1.217   0.984
  636SOL     OW 1929   2.550   1.662   1.716
  636SOL    HW1 1930   2.494   1.743   1.725
  636SOL    HW2 1931   2.602   1.666   1.630
  637SOL     OW 1932   2.765   0.086   0.133
  637SOL    HW1 1933   2.816   0.087   0.047
  637SOL    HW2 1934   2.821   0.044   0.204
  638SOL     OW 1935   1.992   1.794   1.851
  638SOL    HW1 1936   1.951   1.720   1.904
  638SOL    HW2 1937   2.056   1.845   1.909
  639SOL     OW 1938   2.692   1.273   1.422
  639SOL    HW1 1939   2.687   1.306   1.517
  639SOL    HW2 1940   2.606   1.292   1.376
  640SOL     OW 1941   2.534   1.616   0.154
  640SOL    HW1 1942   2.543   1.626   0.055
  640SOL    HW2 1943   2.494   1.527   0.175
  641SOL     OW 1944   2.125   0.326   0.720
  641SOL    HW1 1945   2.046   0.377   0.686
  641SOL    HW2 1946   2.116   0.311   0.818
  642SOL     OW 1947   2.684   1.002   1.372
  642SOL    HW1 1948   2.724   1.001   1.280
  642SOL    HW2 1949   2.694   1.094   1.412
  643SOL     OW 1950   2.778   0.910   0.291
  643SOL    HW1 1951   2.841   0.948   0.223
  643SOL    HW2 1952   2.818   0.827   0.330
  644SOL     OW 1953   2.234   1.288   1.490
  644SOL    HW1 1954   2.221   1.381   1.456
  644SOL    HW2 1955   2.150   1.236   1.477
  645SOL     OW 1956   2.901   1.098   0.696
  645SOL    HW1 1957   2.831   1.051   0.750
  645SOL    HW2 1958   2.960   1.030   0.653
  646SOL     OW 1959   2.876   0.236   0.971
  646SOL    HW1 1960   2.868   0.200   0.878
  646SOL    HW2 1961   2.874   0.160   1.036
  647SOL     OW 1962   2.452   1.487   0.491
  647SOL    HW1 1963   2.494   1.429   0.421
  647SOL    HW2 1964   2.408   1.566   0.447
  648SOL     OW 1965   2.117   1.348   0.290
  648SOL    HW1 1966   2.021   1.349   0.263
  648SOL    HW2 1967   2.129   1.401   0.374
  649SOL     OW 1968   1.967   1.013   1.726
  649SOL    HW1 1969   1.890   0.980   1.780
  649SOL    HW2 1970   2.052   0.983   1.768
  650SOL     OW 1971   2.534   0.203   1.489
  650SOL    HW1 1972   2.624   0.187   1.449
  650SOL    HW2 1973   2.542   0.208   1.588
  651SOL     OW 1974   1.934   0.166   0.318
  651SOL    HW1 1975   1.917   0.249   0.264
  651SOL    HW2 1976   2.024   0.129   0.296
  652SOL     OW 1977   2.475   0.842   1.431
  652SOL    HW1 1978   2.531   0.923   1.414
  652SOL    HW2 1979   2.534   0.762   1.434
  653SOL     OW 1980   2.578   0.565   1.708
  653SOL    HW1 1981   2.597   0.630   1.782
  653SOL    HW2 1982   2.638   0.485   1.717
  654SOL     OW 1983   2.252   1.741   1.560
  654SOL    HW1 1984   2.161   1.782   1.558
  654SOL    HW2 1985   2.245   1.647   1.592
  655SOL     OW 1986   2.456   0.745   0.652
  655SOL    HW1 1987   2.506   0.830   0.633
  655SOL    HW2 1988   2.368   0.747   0.604
  656SOL     OW 1989   2.721   1.374   0.016
  656SOL    HW1 1990   2.675   1.389   0.104
  656SOL    HW2 1991   2.765   1.459  -0.014
  657SOL     OW 1992   2.523   1.790   0.953
  657SOL    HW1 1993   2.477   1.878   0.940
  657SOL    HW2 1994   2.622   1.802   0.946
  658SOL     OW 1995   2.721   0.956   0.861
  658SOL    HW1 1996   2.775   0.887   0.909
  658SOL    HW2 1997   2.689   1.025   0.927
  659SOL     OW 1998   2.945   0.984   0.087
  659SOL    HW1 1999   2.922   1.037   0.005
  659SOL    HW2 2000   3.026   0.928   0.068
  660SOL     OW 2001   2.083   1.314   1.844
  660SOL    HW1 2002   2.018   1.241   1.823
  660SOL    HW2 2003   2.087   1.328   1.942
  661SOL     OW 2004   1.941   1.240   0.653
  661SOL    HW1 2005   1.940   1.193   0.741
  661SOL    HW2 2006   2.023   1.212   0.602
  662SOL     OW 2007   2.534   1.391   1.624
  662SOL    HW1 2008   2.456   1.341   1.662
  662SOL    HW2 2009   2.531   1.486   1.655
  663SOL     OW 2010   2.290   0.424   0.520
  663SOL    HW1 2011   2.320   0.352   0.458
  663SOL    HW2 2012   2.251   0.384   0.603
  664SOL     OW 2013   2.179   0.547   1.280
  664SOL    HW1 2014   2.217   0.488   1.352
  664SOL    HW2 2015   2.219   0.521   1.192
  665SOL     OW 2016   2.674   1.586   0.687
  665SOL    HW1 2017   2.706   1.596   0.593
  665SOL    HW2 2018   2.595   1.524   0.689
  666SOL     OW 2019   2.863   0.034   1.154
  666SOL    HW1 2020   2.800  -0.038   1.123
  666SOL    HW2 2021   2.956  -0.002   1.154
  667SOL     OW 2022   2.632   1.330   0.301
  667SOL    HW1 2023   2.586   1.243   0.318
  667SOL    HW2 2024   2.723   1.327   0.342
  668SOL     OW 2025   2.480   1.567   1.284
  668SOL    HW1 2026   2.475   1.649   1.341
  668SOL    HW2 2027   2.569   1.564   1.239
  669SOL     OW 2028   1.901   1.077   0.300
  669SOL    HW1 2029   2.000   1.066   0.291
  669SOL    HW2 2030   1.861   0.991   0.332
  670SOL     OW 2031   2.737   1.646   0.337
  670SOL    HW1 2032   2.660   1.611   0.283
  670SOL    HW2 2033   2.705   1.717   0.399
  671SOL     OW 2034   2.092   0.628   1.975
  671SOL    HW1 2035   1.999   0.626   2.012
  671SOL    HW2 2036   2.093   0.589   1.883
  672SOL     OW 2037   2.087   0.275   2.858
  672SOL    HW1 2038   2.122   0.258   2.950
  672SOL    HW2 2039   1.999   0.230   2.846
  673SOL     OW 2040   1.881   0.368   2.509
  673SOL    HW1 2041   1.799   0.411   2.548
  673SOL    HW2 2042   1.853   0.295   2.446
  674SOL     OW 2043   2.630   1.144   2.885
  674SOL    HW1 2044   2.552   1.161   2.945
  674SOL    HW2 2045   2.664   1.231   2.849
  675SOL     OW 2046   2.547   1.012   2.527
  675SOL    HW1 2047   2.616   0.996   2.597
  675SOL    HW2 2048   2.474   1.069   2.565
  676SOL     OW 2049   2.197   1.435   2.923
  676SOL    HW1 2050   2.119   1.404   2.870
  676SOL    HW2 2051   2.255   1.493   2.866
  677SOL     OW 2052   2.093   1.713   2.345
  677SOL    HW1 2053   2.127   1.790   2.399
  677SOL    HW2 2054   2.137   1.713   2.255
  678SOL     OW 2055   2.092   1.434   2.400
  678SOL    HW1 2056   2.066   1.530   2.400
  678SOL    HW2 2057   2.021   1.380   2.445
  679SOL     OW 2058   2.102   1.091   2.748
  679SOL    HW1 2059   2.116   1.007   2.800
  679SOL    HW2 2060   2.047   1.155   2.803
  680SOL     OW 2061   2.468   0.964   1.985
  680SOL    HW1 2062   2.475   1.048   1.931
  680SOL    HW2 2063   2.514   0.977   2.073
  681SOL     OW 2064   1.984   0.643   2.425
  681SOL    HW1 2065   1.939   0.555   2.442
  681SOL    HW2 2066   1.983   0.697   2.509
  682SOL     OW 2067   1.889   1.596   1.979
  682SOL    HW1 2068   1.870   1.500   2.000
  682SOL    HW2 2069   1.856   1.654   2.054
  683SOL     OW 2070   2.475   1.365   2.588
  683SOL    HW1 2071   2.426   1.278   2.597
  683SOL    HW2 2072   2.452   1.408   2.501
  684SOL     OW 2073   2.671   0.004   2.364
  684SOL    HW1 2074   2.711   0.095   2.355
  684SOL    HW2 2075   2.571   0.012   2.370
  685SOL     OW 2076   2.460   0.729   2.132
  685SOL    HW1 2077   2.484   0.798   2.064
  685SOL    HW2 2078   2.382   0.762   2.186
  686SOL     OW 2079   2.903   0.701   2.291
  686SOL    HW1 2080   2.929   0.697   2.387
  686SOL    HW2 2081   2.818   0.650   2.277
  687SOL     OW 2082   1.938   0.811   2.651
  687SOL    HW1 2083   2.037   0.799   2.660
  687SOL    HW2 2084   1.914   0.906   2.672
  688SOL     OW 2085   2.727   0.348   2.057
  688SOL    HW1 2086   2.786   0.411   2.008
  688SOL    HW2 2087   2.746   0.254   2.028
  689SOL     OW 2088   2.412   0.196   2.747
  689SOL    HW1 2089   2.407   0.191   2.847
  689SOL    HW2 2090   2.414   0.292   2.718
  690SOL     OW 2091   2.870   1.456   2.339
  690SOL    HW1 2092   2.824   1.528   2.287
  690SOL    HW2 2093   2.866   1.476   2.437
  691SOL     OW 2094   2.213   1.801   2.715
  691SOL    HW1 2095   2.263   1.715   2.721
  691SOL    HW2 2096   2.278   1.878   2.712
  692SOL     OW 2097   2.183   0.943   2.104
  692SOL    HW1 2098   2.265   0.982   2.062
  692SOL    HW2 2099   2.156   0.861   2.055
  693SOL     OW 2100   2.326   1.743   2.185
  693SOL    HW1 2101   2.359   1.782   2.271
  693SOL    HW2 2102   2.402   1.736   2.120
  694SOL     OW 2103   2.111   1.785   3.103
  694SOL    HW1 2104   2.168   1.720   3.153
  694SOL    HW2 2105   2.095   1.752   3.010
  695SOL     OW 2106   2.802   1.698   2.766
  695SOL    HW1 2107   2.882   1.641   2.787
  695SOL    HW2 2108   2.753   1.658   2.689
  696SOL     OW 2109   2.244   0.700   2.342
  696SOL    HW1 2110   2.289   0.610   2.339
  696SOL    HW2 2111   2.150   0.689   2.375
  697SOL     OW 2112   2.476   0.122   1.979
  697SOL    HW1 2113   2.574   0.100   1.986
  697SOL    HW2 2114   2.445   0.105   1.886
  698SOL     OW 2115   2.665   1.402   2.786
  698SOL    HW1 2116   2.755   1.416   2.744
  698SOL    HW2 2117   2.594   1.404   2.715
  699SOL     OW 2118   2.784   0.503   2.761
  699SOL    HW1 2119   2.759   0.494   2.665
  699SOL    HW2 2120   2.832   0.421   2.792
  700SOL     OW 2121   2.401   0.064   2.374
  700SOL    HW1 2122   2.320   0.065   2.432
  700SOL    HW2 2123   2.404   0.147   2.319
  701SOL     OW 2124   2.159   0.035   2.033
  701SOL    HW1 2125   2.208   0.119   2.012
  701SOL    HW2 2126   2.221  -0.030   2.078
  702SOL     OW 2127   2.797   0.236   2.342
  702SOL    HW1 2128   2.749   0.277   2.264
  702SOL    HW2 2129   2.896   0.234   2.323
  703SOL     OW 2130   3.089   1.570   2.655
  703SOL    HW1 2131   3.110   1.644   2.590
  703SOL    HW2 2132   3.157   1.570   2.728
  704SOL     OW 2133   2.321   1.152   2.603
  704SOL    HW1 2134   2.250   1.125   2.668
  704SOL    HW2 2135   2.295   1.124   2.510
  705SOL     OW 2136   2.894   0.549   1.878
  705SOL    HW1 2137   2.853   0.631   1.839
  705SOL    HW2 2138   2.958   0.575   1.951
  706SOL     OW 2139   2.728   0.454   2.504
  706SOL    HW1 2140   2.696   0.526   2.442
  706SOL    HW2 2141   2.752   0.373   2.451
  707SOL     OW 2142   2.879   0.039   2.615
  707SOL    HW1 2143   2.807   0.044   2.546
  707SOL    HW2 2144   2.855  -0.030   2.684
  708SOL     OW 2145   2.350   1.385   2.036
  708SOL    HW1 2146   2.263   1.370   2.083
  708SOL    HW2 2147   2.333   1.411   1.941
  709SOL     OW 2148   2.389   0.256   2.190
  709SOL    HW1 2149   2.416   0.197   2.115
  709SOL    HW2 2150   2.389   0.351   2.159
  710SOL     OW 2151   2.567   1.050   2.230
  710SOL    HW1 2152   2.553   1.057   2.329
  710SOL    HW2 2153   2.651   0.999   2.212
  711SOL     OW 2154   2.229   1.100   2.363
  711SOL    HW1 2155   2.222   1.183   2.307
  711SOL    HW2 2156   2.233   1.020   2.303
  712SOL     OW 2157   2.428   0.537   2.727
  712SOL    HW1 2158   2.440   0.603   2.653
  712SOL    HW2 2159   2.474   0.571   2.810
  713SOL     OW 2160   2.435   0.870   2.891
  713SOL    HW1 2161   2.479   0.959   2.882
  713SOL    HW2 2162   2.372   0.870   2.968
  714SOL     OW 2163   3.071   0.525   2.137
  714SOL    HW1 2164   3.084   0.441   2.191
  714SOL    HW2 2165   3.042   0.599   2.197
  715SOL     OW 2166   2.594   0.634   2.926
  715SOL    HW1 2167   2.653   0.608   2.850
  715SOL    HW2 2168   2.566   0.730   2.915
  716SOL     OW 2169   2.169   0.063   2.480
  716SOL    HW1 2170   2.158   0.157   2.513
  716SOL    HW2 2171   2.164   0.000   2.557
  717SOL     OW 2172   2.885   0.766   2.828
  717SOL    HW1 2173   2.900   0.787   2.924
  717SOL    HW2 2174   2.855   0.671   2.819
  718SOL     OW 2175   2.930   1.333   2.711
  718SOL    HW1 2176   2.937   1.249   2.656
  718SOL    HW2 2177   2.992   1.402   2.675
  719SOL     OW 2178   2.181   0.810   2.811
  719SOL    HW1 2179   2.274   0.846   2.816
  719SOL    HW2 2180   2.175   0.725   2.863
  720SOL     OW 2181   2.201   0.509   2.868
  720SOL    HW1 2182   2.149   0.426   2.851
  720SOL    HW2 2183   2.278   0.514   2.804
  721SOL     OW 2184   1.870   1.326   2.062
  721SOL    HW1 2185   1.777   1.347   2.031
  721SOL    HW2 2186   1.880   1.227   2.075
  722SOL     OW 2187   1.950   1.801   2.789
  722SOL    HW1 2188   1.908   1.715   2.762
  722SOL    HW2 2189   2.044   1.804   2.755
  723SOL     OW 2190   2.366   1.568   2.772
  723SOL    HW1 2191   2.432   1.642   2.781
  723SOL    HW2 2192   2.410   1.489   2.730
  724SOL     OW 2193   2.864   0.796   3.100
  724SOL    HW1 2194   2.905   0.764   3.186
  724SOL    HW2 2195   2.768   0.769   3.097
  725SOL     OW 2196   2.677   0.572   2.187
  725SOL    HW1 2197   2.684   0.483   2.141
  725SOL    HW2 2198   2.583   0.606   2.179
  726SOL     OW 2199   2.533   0.464   3.131
  726SOL    HW1 2200   2.499   0.375   3.101
  726SOL    HW2 2201   2.559   0.518   3.051
  727SOL     OW 2202   2.335   0.500   2.053
  727SOL    HW1 2203   2.396   0.580   2.057
  727SOL    HW2 2204   2.240   0.531   2.060
  728SOL     OW 2205   3.164   0.855   2.171
  728SOL    HW1 2206   3.078   0.824   2.213
  728SOL    HW2 2207   3.160   0.841   2.072
  729SOL     OW 2208   1.945   1.258   2.884
  729SOL    HW1 2209   1.940   1.257   2.984
  729SOL    HW2 2210   1.862   1.217   2.846
  730SOL     OW 2211   2.534   1.616   2.016
  730SOL    HW1 2212   2.543   1.626   1.917
  730SOL    HW2 2213   2.494   1.527   2.037
  731SOL     OW 2214   2.125   0.326   2.582
  731SOL    HW1 2215   2.046   0.377   2.548
  731SOL    HW2 2216   2.116   0.311   2.680
  732SOL     OW 2217   2.778   0.910   2.153
  732SOL    HW1 2218   2.841   0.948   2.085
  732SOL    HW2 2219   2.818   0.827   2.192
  733SOL     OW 2220   2.901   1.098   2.558
  733SOL    HW1 2221   2.831   1.051   2.612
  733SOL    HW2 2222   2.960   1.030   2.515
  734SOL     OW 2223   2.876   0.236   2.833
  734SOL    HW1 2224   2.868   0.200   2.740
  734SOL    HW2 2225   2.874   0.160   2.898
  735SOL     OW 2226   2.452   1.487   2.353
  735SOL    HW1 2227   2.494   1.429   2.283
  735SOL    HW2 2228   2.408   1.566   2.309
  736SOL     OW 2229   2.117   1.348   2.152
  736SOL    HW1 2230   2.021   1.349   2.125
  736SOL    HW2 2231   2.129   1.401   2.236
  737SOL     OW 2232   1.937   0.345   1.895
  737SOL    HW1 2233   1.845   0.317   1.866
  737SOL    HW2 2234   1.968   0.422   1.839
  738SOL     OW 2235   1.934   0.166   2.180
  738SOL    HW1 2236   1.917   0.249   2.126
  738SOL    HW2 2237   2.024   0.129   2.158
  739SOL     OW 2238   2.456   0.745   2.514
  739SOL    HW1 2239   2.506   0.830   2.495
  739SOL    HW2 2240   2.368   0.747   2.466
  740SOL     OW 2241   2.721   1.374   1.878
  740SOL    HW1 2242   2.675   1.389   1.966
  740SOL    HW2 2243   2.765   1.459   1.848
  741SOL     OW 2244   2.523   1.790   2.815
  741SOL    HW1 2245   2.477   1.878   2.802
  741SOL    HW2 2246   2.622   1.802   2.808
  742SOL     OW 2247   2.721   0.956   2.723
  742SOL    HW1 2248   2.775   0.887   2.771
  742SOL    HW2 2249   2.689   1.025   2.789
  743SOL     OW 2250   2.945   0.984   1.949
  743SOL    HW1 2251   2.922   1.037   1.867
  743SOL    HW2 2252   3.026   0.928   1.930
  744SOL     OW 2253   1.941   1.240   2.515
  744SOL    HW1 2254   1.940   1.193   2.603
  744SOL    HW2 2255   2.023   1.212   2.464
  745SOL     OW 2256   2.290   0.424   2.382
  745SOL    HW1 2257   2.320   0.352   2.320
  745SOL    HW2 2258   2.251   0.384   2.465
  746SOL     OW 2259   2.674   1.586   2.549
  746SOL    HW1 2260   2.706   1.596   2.455
  746SOL    HW2 2261   2.595   1.524   2.551
  747SOL     OW 2262   2.632   1.330   2.163
  747SOL    HW1 2263   2.586   1.243   2.180
  747SOL    HW2 2264   2.723   1.327   2.204
  748SOL     OW 2265   1.901   1.077   2.162
  748SOL    HW1 2266   2.000   1.066   2.153
  748SOL    HW2 2267   1.861   0.991   2.194
  749SOL     OW 2268   2.737   1.646   2.199
  749SOL    HW1 2269   2.660   1.611   2.145
  749SOL    HW2 2270   2.705   1.717   2.261
  750SOL     OW 2271   2.092   2.490   0.113
  750SOL    HW1 2272   1.999   2.488   0.150
  750SOL    HW2 2273   2.093   2.451   0.021
  751SOL     OW 2274   2.087   2.137   0.996
  751SOL    HW1 2275   2.122   2.120   1.088
  751SOL    HW2 2276   1.999   2.092   0.984
  752SOL     OW 2277   1.881   2.230   0.647
  752SOL    HW1 2278   1.799   2.273   0.686
  752SOL    HW2 2279   1.853   2.157   0.584
  753SOL     OW 2280   2.630   3.006   1.023
  753SOL    HW1 2281   2.552   3.023   1.083
  753SOL    HW2 2282   2.664   3.093   0.987
  754SOL     OW 2283   2.712   2.660   1.823
  754SOL    HW1 2284   2.708   2.736   1.888
  754SOL    HW2 2285   2.734   2.696   1.732
  755SOL     OW 2286   2.547   2.874   0.665
  755SOL    HW1 2287   2.616   2.858   0.735
  755SOL    HW2 2288   2.474   2.931   0.703
  756SOL     OW 2289   2.300   2.254   1.499
  756SOL    HW1 2290   2.382   2.198   1.508
  756SOL    HW2 2291   2.219   2.196   1.503
  757SOL     OW 2292   2.092   3.296   0.538
  757SOL    HW1 2293   2.066   3.392   0.538
  757SOL    HW2 2294   2.021   3.242   0.583
  758SOL     OW 2295   2.102   2.953   0.886
  758SOL    HW1 2296   2.116   2.869   0.938
  758SOL    HW2 2297   2.047   3.017   0.941
  759SOL     OW 2298   2.468   2.826   0.123
  759SOL    HW1 2299   2.475   2.910   0.069
  759SOL    HW2 2300   2.514   2.839   0.211
  760SOL     OW 2301   1.984   2.505   0.563
  760SOL    HW1 2302   1.939   2.417   0.580
  760SOL    HW2 2303   1.983   2.559   0.647
  761SOL     OW 2304   1.975   2.599   1.597
  761SOL    HW1 2305   2.063   2.586   1.642
  761SOL    HW2 2306   1.962   2.696   1.575
  762SOL     OW 2307   2.475   3.227   0.726
  762SOL    HW1 2308   2.426   3.140   0.735
  762SOL    HW2 2309   2.452   3.270   0.639
  763SOL     OW 2310   2.671   1.866   0.502
  763SOL    HW1 2311   2.711   1.957   0.493
  763SOL    HW2 2312   2.571   1.874   0.508
  764SOL     OW 2313   2.059   2.838   1.264
  764SOL    HW1 2314   2.148   2.793   1.250
  764SOL    HW2 2315   1.986   2.773   1.245
  765SOL     OW 2316   2.179   2.113   1.801
  765SOL    HW1 2317   2.250   2.184   1.807
  765SOL    HW2 2318   2.091   2.152   1.829
  766SOL     OW 2319   2.460   2.591   0.270
  766SOL    HW1 2320   2.484   2.660   0.202
  766SOL    HW2 2321   2.382   2.624   0.324
  767SOL     OW 2322   2.669   2.467   1.465
  767SOL    HW1 2323   2.622   2.464   1.554
  767SOL    HW2 2324   2.618   2.412   1.399
  768SOL     OW 2325   2.835   2.752   1.572
  768SOL    HW1 2326   2.881   2.668   1.543
  768SOL    HW2 2327   2.779   2.786   1.497
  769SOL     OW 2328   2.853   2.272   1.242
  769SOL    HW1 2329   2.776   2.306   1.296
  769SOL    HW2 2330   2.819   2.221   1.163
  770SOL     OW 2331   2.903   2.563   0.429
  770SOL    HW1 2332   2.929   2.559   0.525
  770SOL    HW2 2333   2.818   2.512   0.415
  771SOL     OW 2334   1.938   2.673   0.789
  771SOL    HW1 2335   2.037   2.661   0.798
  771SOL    HW2 2336   1.914   2.768   0.810
  772SOL     OW 2337   2.727   2.210   0.195
  772SOL    HW1 2338   2.786   2.273   0.146
  772SOL    HW2 2339   2.746   2.116   0.166
  773SOL     OW 2340   2.412   2.058   0.885
  773SOL    HW1 2341   2.407   2.053   0.985
  773SOL    HW2 2342   2.414   2.154   0.856
  774SOL     OW 2343   2.064   2.147   1.498
  774SOL    HW1 2344   1.984   2.207   1.485
  774SOL    HW2 2345   2.054   2.098   1.584
  775SOL     OW 2346   2.244   2.562   0.480
  775SOL    HW1 2347   2.289   2.472   0.477
  775SOL    HW2 2348   2.150   2.551   0.513
  776SOL     OW 2349   2.476   1.984   0.117
  776SOL    HW1 2350   2.574   1.962   0.124
  776SOL    HW2 2351   2.445   1.967   0.024
  777SOL     OW 2352   2.643   2.126   1.749
  777SOL    HW1 2353   2.710   2.065   1.792
  777SOL    HW2 2354   2.570   2.145   1.814
  778SOL     OW 2355   2.784   2.365   0.899
  778SOL    HW1 2356   2.759   2.356   0.803
  778SOL    HW2 2357   2.832   2.283   0.930
  779SOL     OW 2358   2.401   1.926   0.512
  779SOL    HW1 2359   2.320   1.927   0.570
  779SOL    HW2 2360   2.404   2.009   0.457
  780SOL     OW 2361   2.797   2.098   0.480
  780SOL    HW1 2362   2.749   2.139   0.402
  780SOL    HW2 2363   2.896   2.096   0.461
  781SOL     OW 2364   2.894   2.411   0.016
  781SOL    HW1 2365   2.853   2.493  -0.023
  781SOL    HW2 2366   2.958   2.437   0.089
  782SOL     OW 2367   1.940   2.418   1.386
  782SOL    HW1 2368   2.032   2.417   1.345
  782SOL    HW2 2369   1.934   2.492   1.453
  783SOL     OW 2370   2.423   2.084   1.147
  783SOL    HW1 2371   2.461   2.000   1.184
  783SOL    HW2 2372   2.335   2.103   1.191
  784SOL     OW 2373   2.728   2.316   0.642
  784SOL    HW1 2374   2.696   2.388   0.580
  784SOL    HW2 2375   2.752   2.235   0.589
  785SOL     OW 2376   2.879   1.901   0.753
  785SOL    HW1 2377   2.807   1.906   0.684
  785SOL    HW2 2378   2.855   1.832   0.822
  786SOL     OW 2379   2.389   2.118   0.328
  786SOL    HW1 2380   2.416   2.059   0.253
  786SOL    HW2 2381   2.389   2.213   0.297
  787SOL     OW 2382   2.777   1.951   1.402
  787SOL    HW1 2383   2.802   1.931   1.307
  787SOL    HW2 2384   2.849   2.007   1.444
  788SOL     OW 2385   2.272   2.675   1.251
  788SOL    HW1 2386   2.358   2.687   1.301
  788SOL    HW2 2387   2.230   2.588   1.278
  789SOL     OW 2388   2.428   2.399   0.865
  789SOL    HW1 2389   2.440   2.465   0.791
  789SOL    HW2 2390   2.474   2.433   0.948
  790SOL     OW 2391   2.264   2.613   1.598
  790SOL    HW1 2392   2.332   2.668   1.551
  790SOL    HW2 2393   2.304   2.525   1.625
  791SOL     OW 2394   2.875   1.967   1.770
  791SOL    HW1 2395   2.881   2.052   1.718
  791SOL    HW2 2396   2.907   1.891   1.713
  792SOL     OW 2397   2.366   1.912   1.740
  792SOL    HW1 2398   2.324   1.855   1.670
  792SOL    HW2 2399   2.300   1.981   1.772
  793SOL     OW 2400   2.435   2.732   1.029
  793SOL    HW1 2401   2.479   2.821   1.020
  793SOL    HW2 2402   2.372   2.732   1.106
  794SOL     OW 2403   3.071   2.387   0.275
  794SOL    HW1 2404   3.084   2.303   0.329
  794SOL    HW2 2405   3.042   2.461   0.335
  795SOL     OW 2406   2.169   2.075   1.231
  795SOL    HW1 2407   2.146   2.112   1.321
  795SOL    HW2 2408   2.139   1.980   1.225
  796SOL     OW 2409   2.594   2.496   1.064
  796SOL    HW1 2410   2.653   2.470   0.988
  796SOL    HW2 2411   2.566   2.592   1.053
  797SOL     OW 2412   2.169   1.925   0.618
  797SOL    HW1 2413   2.158   2.019   0.651
  797SOL    HW2 2414   2.164   1.862   0.695
  798SOL     OW 2415   2.885   2.628   0.966
  798SOL    HW1 2416   2.900   2.649   1.062
  798SOL    HW2 2417   2.855   2.533   0.957
  799SOL     OW 2418   2.212   2.760   1.804
  799SOL    HW1 2419   2.288   2.804   1.852
  799SOL    HW2 2420   2.247   2.713   1.722
  800SOL     OW 2421   2.181   2.672   0.949
  800SOL    HW1 2422   2.274   2.708   0.954
  800SOL    HW2 2423   2.175   2.587   1.001
  801SOL     OW 2424   2.201   2.371   1.006
  801SOL    HW1 2425   2.149   2.288   0.989
  801SOL    HW2 2426   2.278   2.376   0.942
  802SOL     OW 2427   3.000   2.242   1.678
  802SOL    HW1 2428   2.955   2.305   1.742
  802SOL    HW2 2429   3.093   2.273   1.661
  803SOL     OW 2430   3.022   2.069   1.477
  803SOL    HW1 2431   3.022   2.133   1.554
  803SOL    HW2 2432   3.050   2.117   1.394
  804SOL     OW 2433   2.864   2.658   1.238
  804SOL    HW1 2434   2.905   2.626   1.324
  804SOL    HW2 2435   2.768   2.631   1.235
  805SOL     OW 2436   1.902   2.406   1.114
  805SOL    HW1 2437   1.987   2.373   1.073
  805SOL    HW2 2438   1.915   2.421   1.212
  806SOL     OW 2439   2.051   2.382   1.722
  806SOL    HW1 2440   2.110   2.342   1.652
  806SOL    HW2 2441   1.993   2.453   1.681
  807SOL     OW 2442   2.677   2.434   0.325
  807SOL    HW1 2443   2.684   2.345   0.279
  807SOL    HW2 2444   2.583   2.468   0.317
  808SOL     OW 2445   2.533   2.326   1.269
  808SOL    HW1 2446   2.499   2.237   1.239
  808SOL    HW2 2447   2.559   2.380   1.189
  809SOL     OW 2448   2.335   2.362   0.191
  809SOL    HW1 2449   2.396   2.442   0.195
  809SOL    HW2 2450   2.240   2.393   0.198
  810SOL     OW 2451   2.021   2.999   1.466
  810SOL    HW1 2452   2.043   2.938   1.542
  810SOL    HW2 2453   2.031   2.950   1.380
  811SOL     OW 2454   2.765   1.948   0.133
  811SOL    HW1 2455   2.816   1.949   0.047
  811SOL    HW2 2456   2.821   1.906   0.204
  812SOL     OW 2457   2.125   2.188   0.720
  812SOL    HW1 2458   2.046   2.239   0.686
  812SOL    HW2 2459   2.116   2.173   0.818
  813SOL     OW 2460   2.684   2.864   1.372
  813SOL    HW1 2461   2.724   2.863   1.280
  813SOL    HW2 2462   2.694   2.956   1.412
  814SOL     OW 2463   2.778   2.772   0.291
  814SOL    HW1 2464   2.841   2.810   0.223
  814SOL    HW2 2465   2.818   2.689   0.330
  815SOL     OW 2466   2.876   2.098   0.971
  815SOL    HW1 2467   2.868   2.062   0.878
  815SOL    HW2 2468   2.874   2.022   1.036
  816SOL     OW 2469   1.967   2.875   1.726
  816SOL    HW1 2470   1.890   2.842   1.780
  816SOL    HW2 2471   2.052   2.845   1.768
  817SOL     OW 2472   2.534   2.065   1.489
  817SOL    HW1 2473   2.624   2.049   1.449
  817SOL    HW2 2474   2.542   2.070   1.588
  818SOL     OW 2475   1.934   2.028   0.318
  818SOL    HW1 2476   1.917   2.111   0.264
  818SOL    HW2 2477   2.024   1.991   0.296
  819SOL     OW 2478   2.475   2.704   1.431
  819SOL    HW1 2479   2.531   2.785   1.414
  819SOL    HW2 2480   2.534   2.624   1.434
  820SOL     OW 2481   2.578   2.427   1.708
  820SOL    HW1 2482   2.597   2.492   1.782
  820SOL    HW2 2483   2.638   2.347   1.717
  821SOL     OW 2484   2.456   2.607   0.652
  821SOL    HW1 2485   2.506   2.692   0.633
  821SOL    HW2 2486   2.368   2.609   0.604
  822SOL     OW 2487   2.721   2.818   0.861
  822SOL    HW1 2488   2.775   2.749   0.909
  822SOL    HW2 2489   2.689   2.887   0.927
  823SOL     OW 2490   2.290   2.286   0.520
  823SOL    HW1 2491   2.320   2.214   0.458
  823SOL    HW2 2492   2.251   2.246   0.603
  824SOL     OW 2493   2.179   2.409   1.280
  824SOL    HW1 2494   2.217   2.350   1.352
  824SOL    HW2 2495   2.219   2.383   1.192
  825SOL     OW 2496   2.863   1.896   1.154
  825SOL    HW1 2497   2.800   1.824   1.123
  825SOL    HW2 2498   2.956   1.860   1.154
  826SOL     OW 2499   1.901   2.939   0.300
  826SOL    HW1 2500   2.000   2.928   0.291
  826SOL    HW2 2501   1.861   2.853   0.332
  827SOL     OW 2502   2.092   2.490   1.975
  827SOL    HW1 2503   1.999   2.488   2.012
  827SOL    HW2 2504   2.093   2.451   1.883
  828SOL     OW 2505   2.087   2.137   2.858
  828SOL    HW1 2506   2.122   2.120   2.950
  828SOL    HW2 2507   1.999   2.092   2.846
  829SOL     OW 2508   1.881   2.230   2.509
  829SOL    HW1 2509   1.799   2.273   2.548
  829SOL    HW2 2510   1.853   2.157   2.446
  830SOL     OW 2511   2.630   3.006   2.885
  830SOL    HW1 2512   2.552   3.023   2.945
  830SOL    HW2 2513   2.664   3.093   2.849
  831SOL     OW 2514   2.547   2.874   2.527
  831SOL    HW1 2515   2.616   2.858   2.597
  831SOL    HW2 2516   2.474   2.931   2.565
  832SOL     OW 2517   2.092   3.296   2.400
  832SOL    HW1 2518   2.066   3.392   2.400
  832SOL    HW2 2519   2.021   3.242   2.445
  833SOL     OW 2520   2.102   2.953   2.748
  833SOL    HW1 2521   2.116   2.869   2.800
  833SOL    HW2 2522   2.047   3.017   2.803
  834SOL     OW 2523   2.468   2.826   1.985
  834SOL    HW1 2524   2.475   2.910   1.931
  834SOL    HW2 2525   2.514   2.839   2.073
  835SOL     OW 2526   1.984   2.505   2.425
  835SOL    HW1 2527   1.939   2.417   2.442
  835SOL    HW2 2528   1.983   2.559   2.509
  836SOL     OW 2529   2.475   3.227   2.588
  836SOL    HW1 2530   2.426   3.140   2.597
  836SOL    HW2 2531   2.452   3.270   2.501
  837SOL     OW 2532   2.671   1.866   2.364
  837SOL    HW1 2533   2.711   1.957   2.355
  837SOL    HW2 2534   2.571   1.874   2.370
  838SOL     OW 2535   2.059   2.838   3.126
  838SOL    HW1 2536   2.148   2.793   3.112
  838SOL    HW2 2537   1.986   2.773   3.107
  839SOL     OW 2538   2.460   2.591   2.132
  839SOL    HW1 2539   2.484   2.660   2.064
  839SOL    HW2 2540   2.382   2.624   2.186
  840SOL     OW 2541   2.903   2.563   2.291
  840SOL    HW1 2542   2.929   2.559   2.387
  840SOL    HW2 2543   2.818   2.512   2.277
  841SOL     OW 2544   1.938   2.673   2.651
  841SOL    HW1 2545   2.037   2.661   2.660
  841SOL    HW2 2546   1.914   2.768   2.672
  842SOL     OW 2547   2.727   2.210   2.057
  842SOL    HW1 2548   2.786   2.273   2.008
  842SOL    HW2 2549   2.746   2.116   2.028
  843SOL     OW 2550   2.412   2.058   2.747
  843SOL    HW1 2551   2.407   2.053   2.847
  843SOL    HW2 2552   2.414   2.154   2.718
  844SOL     OW 2553   2.244   2.562   2.342
  844SOL    HW1 2554   2.289   2.472   2.339
  844SOL    HW2 2555   2.150   2.551   2.375
  845SOL     OW 2556   2.476   1.984   1.979
  845SOL    HW1 2557   2.574   1.962   1.986
  845SOL    HW2 2558   2.445   1.967   1.886
  846SOL     OW 2559   2.784   2.365   2.761
  846SOL    HW1 2560   2.759   2.356   2.665
  846SOL    HW2 2561   2.832   2.283   2.792
  847SOL     OW 2562   2.401   1.926   2.374
  847SOL    HW1 2563   2.320   1.927   2.432
  847SOL    HW2 2564   2.404   2.009   2.319
  848SOL     OW 2565   2.159   1.897   2.033
  848SOL    HW1 2566   2.208   1.981   2.012
  848SOL    HW2 2567   2.221   1.832   2.078
  849SOL     OW 2568   2.797   2.098   2.342
  849SOL    HW1 2569   2.749   2.139   2.264
  849SOL    HW2 2570   2.896   2.096   2.323
  850SOL     OW 2571   2.894   2.411   1.878
  850SOL    HW1 2572   2.853   2.493   1.839
  850SOL    HW2 2573   2.958   2.437   1.951
  851SOL     OW 2574   2.728   2.316   2.504
  851SOL    HW1 2575   2.696   2.388   2.442
  851SOL    HW2 2576   2.752   2.235   2.451
  852SOL     OW 2577   2.879   1.901   2.615
  852SOL    HW1 2578   2.807   1.906   2.546
  852SOL    HW2 2579   2.855   1.832   2.684
  853SOL     OW 2580   2.389   2.118   2.190
  853SOL    HW1 2581   2.416   2.059   2.115
  853SOL    HW2 2582   2.389   2.213   2.159
  854SOL     OW 2583   2.428   2.399   2.727
  854SOL    HW1 2584   2.440   2.465   2.653
  854SOL    HW2 2585   2.474   2.433   2.810
  855SOL     OW 2586   2.435   2.732   2.891
  855SOL    HW1 2587   2.479   2.821   2.882
  855SOL    HW2 2588   2.372   2.732   2.968
  856SOL     OW 2589   3.071   2.387   2.137
  856SOL    HW1 2590   3.084   2.303   2.191
  856SOL    HW2 2591   3.042   2.461   2.197
  857SOL     OW 2592   2.169   2.075   3.093
  857SOL    HW1 2593   2.146   2.112   3.183
  857SOL    HW2 2594   2.139   1.980   3.087
  858SOL     OW 2595   2.594   2.496   2.926
  858SOL    HW1 2596   2.653   2.470   2.850
  858SOL    HW2 2597   2.566   2.592   2.915
  859SOL     OW 2598   2.169   1.925   2.480
  859SOL    HW1 2599   2.158   2.019   2.513
  859SOL    HW2 2600   2.164   1.862   2.557
  860SOL     OW 2601   2.885   2.628   2.828
  860SOL    HW1 2602   2.900   2.649   2.924
  860SOL    HW2 2603   2.855   2.533   2.819
  861SOL     OW 2604   2.181   2.672   2.811
  861SOL    HW1 2605   2.274   2.708   2.816
  861SOL    HW2 2606   2.175   2.587   2.863
  862SOL     OW 2607   2.201   2.371   2.868
  862SOL    HW1 2608   2.149   2.288   2.851
  862SOL    HW2 2609   2.278   2.376   2.804
  863SOL     OW 2610   2.864   2.658   3.100
  863SOL    HW1 2611   2.905   2.626   3.186
  863SOL    HW2 2612   2.768   2.631   3.097
  864SOL     OW 2613   2.677   2.434   2.187
  864SOL    HW1 2614   2.684   2.345   2.141
  864SOL    HW2 2615   2.583   2.468   2.179
  865SOL     OW 2616   2.533   2.326   3.131
  865SOL    HW1 2617   2.499   2.237   3.101
  865SOL    HW2 2618   2.559   2.380   3.051
  866SOL     OW 2619   2.335   2.362   2.053
  866SOL    HW1 2620   2.396   2.442   2.057
  866SOL    HW2 2621   2.240   2.393   2.060
  867SOL     OW 2622   3.164   2.717   2.171
  867SOL    HW1 2623   3.078   2.686   2.213
  867SOL    HW2 2624   3.160   2.703   2.072
  868SOL     OW 2625   2.125   2.188   2.582
  868SOL    HW1 2626   2.046   2.239   2.548
  868SOL    HW2 2627   2.116   2.173   2.680
  869SOL     OW 2628   2.778   2.772   2.153
  869SOL    HW1 2629   2.841   2.810   2.085
  869SOL    HW2 2630   2.818   2.689   2.192
  870SOL     OW 2631   2.876   2.098   2.833
  870SOL    HW1 2632   2.868   2.062   2.740
  870SOL    HW2 2633   2.874   2.022   2.898
  871SOL     OW 2634   1.937   2.207   1.895
  871SOL    HW1 2635   1.845   2.179   1.866
  871SOL    HW2 2636   1.968   2.284   1.839
  872SOL     OW 2637   1.934   2.028   2.180
  872SOL    HW1 2638   1.917   2.111   2.126
  872SOL    HW2 2639   2.024   1.991   2.158
  873SOL     OW 2640   2.456   2.607   2.514
  873SOL    HW1 2641   2.506   2.692   2.495
  873SOL    HW2 2642   2.368   2.609   2.466
  874SOL     OW 2643   2.721   2.818   2.723
  874SOL    HW1 2644   2.775   2.749   2.771
  874SOL    HW2 2645   2.689   2.887   2.789
  875SOL     OW 2646   2.945   2.846   1.949
  875SOL    HW1 2647   2.922   2.899   1.867
  875SOL    HW2 2648   3.026   2.790   1.930
  876SOL     OW 2649   2.290   2.286   2.382
  876SOL    HW1 2650   2.320   2.214   2.320
  876SOL    HW2 2651   2.251   2.246   2.465
  877SOL     OW 2652   1.901   2.939   2.162
  877SOL    HW1 2653   2.000   2.928   2.153
  877SOL    HW2 2654   1.861   2.853   2.194
   3.00206   3.00206   3.00206
