; mobley_2005792_GMX.itp created by acpype (v: 2023.10.27) on Thu May 14 13:30:22 2026

[ atomtypes ]
;name   bond_type     mass     charge   ptype   sigma         epsilon       Amb
 ca       ca          0.00000  0.00000   A     3.31521e-01   4.13379e-01 ; 1.86  0.0988
 cp       cp          0.00000  0.00000   A     3.31521e-01   4.13379e-01 ; 1.86  0.0988
 ha       ha          0.00000  0.00000   A     2.62548e-01   6.73624e-02 ; 1.47  0.0161

[ moleculetype ]
;name            nrexcl
 mobley_2005792   3

[ atoms ]
;   nr  type  resi  res  atom  cgnr     charge      mass       ; qtot   bond_type
     1   ca     1   MOL    C1    1    -0.128000     12.01000 ; qtot -0.128
     2   ca     1   MOL    C2    2    -0.131000     12.01000 ; qtot -0.259
     3   ca     1   MOL    C3    3    -0.119000     12.01000 ; qtot -0.378
     4   cp     1   MOL    C4    4    -0.037000     12.01000 ; qtot -0.415
     5   ca     1   MOL    C5    5    -0.119000     12.01000 ; qtot -0.534
     6   ca     1   MOL    C6    6    -0.131000     12.01000 ; qtot -0.665
     7   cp     1   MOL    C7    7    -0.037000     12.01000 ; qtot -0.702
     8   ca     1   MOL    C8    8    -0.119000     12.01000 ; qtot -0.821
     9   ca     1   MOL    C9    9    -0.131000     12.01000 ; qtot -0.952
    10   ca     1   MOL   C10   10    -0.128000     12.01000 ; qtot -1.080
    11   ca     1   MOL   C11   11    -0.131000     12.01000 ; qtot -1.211
    12   ca     1   MOL   C12   12    -0.119000     12.01000 ; qtot -1.330
    13   ha     1   MOL    H1   13     0.131000      1.00800 ; qtot -1.199
    14   ha     1   MOL    H2   14     0.132000      1.00800 ; qtot -1.067
    15   ha     1   MOL    H3   15     0.135000      1.00800 ; qtot -0.932
    16   ha     1   MOL    H4   16     0.135000      1.00800 ; qtot -0.797
    17   ha     1   MOL    H5   17     0.132000      1.00800 ; qtot -0.665
    18   ha     1   MOL    H6   18     0.135000      1.00800 ; qtot -0.530
    19   ha     1   MOL    H7   19     0.132000      1.00800 ; qtot -0.398
    20   ha     1   MOL    H8   20     0.131000      1.00800 ; qtot -0.267
    21   ha     1   MOL    H9   21     0.132000      1.00800 ; qtot -0.135
    22   ha     1   MOL   H10   22     0.135000      1.00800 ; qtot -0.000

[ bonds ]
;   ai     aj funct   r             k
     1      2   1    1.3986e-01    2.9644e+05 ;     C1 - C2    
     1      6   1    1.3986e-01    2.9644e+05 ;     C1 - C6    
     1     13   1    1.0860e-01    3.0183e+05 ;     C1 - H1    
     2      3   1    1.3986e-01    2.9644e+05 ;     C2 - C3    
     2     14   1    1.0860e-01    3.0183e+05 ;     C2 - H2    
     3      4   1    1.4056e-01    2.8959e+05 ;     C3 - C4    
     3     15   1    1.0860e-01    3.0183e+05 ;     C3 - H3    
     4      5   1    1.4056e-01    2.8959e+05 ;     C4 - C5    
     4      7   1    1.4829e-01    2.2541e+05 ;     C4 - C7    
     5      6   1    1.3986e-01    2.9644e+05 ;     C5 - C6    
     5     16   1    1.0860e-01    3.0183e+05 ;     C5 - H4    
     6     17   1    1.0860e-01    3.0183e+05 ;     C6 - H5    
     7      8   1    1.4056e-01    2.8959e+05 ;     C7 - C8    
     7     12   1    1.4056e-01    2.8959e+05 ;     C7 - C12   
     8      9   1    1.3986e-01    2.9644e+05 ;     C8 - C9    
     8     18   1    1.0860e-01    3.0183e+05 ;     C8 - H6    
     9     10   1    1.3986e-01    2.9644e+05 ;     C9 - C10   
     9     19   1    1.0860e-01    3.0183e+05 ;     C9 - H7    
    10     11   1    1.3986e-01    2.9644e+05 ;    C10 - C11   
    10     20   1    1.0860e-01    3.0183e+05 ;    C10 - H8    
    11     12   1    1.3986e-01    2.9644e+05 ;    C11 - C12   
    11     21   1    1.0860e-01    3.0183e+05 ;    C11 - H9    
    12     22   1    1.0860e-01    3.0183e+05 ;    C12 - H10   

[ pairs ]
;   ai     aj    funct
     1      4      1 ;     C1 - C4    
     1     15      1 ;     C1 - H3    
     1     16      1 ;     C1 - H4    
     2      5      1 ;     C2 - C5    
     2      7      1 ;     C2 - C7    
     2     17      1 ;     C2 - H5    
     3      8      1 ;     C3 - C8    
     3     12      1 ;     C3 - C12   
     3     16      1 ;     C3 - H4    
     4      9      1 ;     C4 - C9    
     4     11      1 ;     C4 - C11   
     4     14      1 ;     C4 - H2    
     4     17      1 ;     C4 - H5    
     4     18      1 ;     C4 - H6    
     4     22      1 ;     C4 - H10   
     5      8      1 ;     C5 - C8    
     5     12      1 ;     C5 - C12   
     5     15      1 ;     C5 - H3    
     6      3      1 ;     C6 - C3    
     6      7      1 ;     C6 - C7    
     6     14      1 ;     C6 - H2    
     7     10      1 ;     C7 - C10   
     7     15      1 ;     C7 - H3    
     7     16      1 ;     C7 - H4    
     7     19      1 ;     C7 - H7    
     7     21      1 ;     C7 - H9    
     8     11      1 ;     C8 - C11   
     8     20      1 ;     C8 - H8    
     8     22      1 ;     C8 - H10   
     9     12      1 ;     C9 - C12   
     9     21      1 ;     C9 - H9    
    10     18      1 ;    C10 - H6    
    10     22      1 ;    C10 - H10   
    11     19      1 ;    C11 - H7    
    12     18      1 ;    C12 - H6    
    12     20      1 ;    C12 - H8    
    13      3      1 ;     H1 - C3    
    13      5      1 ;     H1 - C5    
    13     14      1 ;     H1 - H2    
    13     17      1 ;     H1 - H5    
    14     15      1 ;     H2 - H3    
    16     17      1 ;     H4 - H5    
    18     19      1 ;     H6 - H7    
    19     20      1 ;     H7 - H8    
    20     21      1 ;     H8 - H9    
    21     22      1 ;     H9 - H10   

[ angles ]
;   ai     aj     ak    funct   theta         cth
     1      2      3      1    1.2002e+02    5.3279e+02 ;     C1 - C2     - C3    
     1      2     14      1    1.1988e+02    3.7572e+02 ;     C1 - C2     - H2    
     1      6      5      1    1.2002e+02    5.3279e+02 ;     C1 - C6     - C5    
     1      6     17      1    1.1988e+02    3.7572e+02 ;     C1 - C6     - H5    
     2      1      6      1    1.2002e+02    5.3279e+02 ;     C2 - C1     - C6    
     2      1     13      1    1.1988e+02    3.7572e+02 ;     C2 - C1     - H1    
     2      3      4      1    1.2073e+02    5.2995e+02 ;     C2 - C3     - C4    
     2      3     15      1    1.1988e+02    3.7572e+02 ;     C2 - C3     - H3    
     3      2     14      1    1.1988e+02    3.7572e+02 ;     C3 - C2     - H2    
     3      4      5      1    1.1841e+02    5.3379e+02 ;     C3 - C4     - C5    
     3      4      7      1    1.2110e+02    5.1296e+02 ;     C3 - C4     - C7    
     4      3     15      1    1.1982e+02    3.7430e+02 ;     C4 - C3     - H3    
     4      5      6      1    1.2073e+02    5.2995e+02 ;     C4 - C5     - C6    
     4      5     16      1    1.1982e+02    3.7430e+02 ;     C4 - C5     - H4    
     4      7      8      1    1.2110e+02    5.1296e+02 ;     C4 - C7     - C8    
     4      7     12      1    1.2110e+02    5.1296e+02 ;     C4 - C7     - C12   
     5      4      7      1    1.2110e+02    5.1296e+02 ;     C5 - C4     - C7    
     5      6     17      1    1.1988e+02    3.7572e+02 ;     C5 - C6     - H5    
     6      1     13      1    1.1988e+02    3.7572e+02 ;     C6 - C1     - H1    
     6      5     16      1    1.1988e+02    3.7572e+02 ;     C6 - C5     - H4    
     7      8      9      1    1.2073e+02    5.2995e+02 ;     C7 - C8     - C9    
     7      8     18      1    1.1982e+02    3.7430e+02 ;     C7 - C8     - H6    
     7     12     11      1    1.2073e+02    5.2995e+02 ;     C7 - C12    - C11   
     7     12     22      1    1.1982e+02    3.7430e+02 ;     C7 - C12    - H10   
     8      7     12      1    1.1841e+02    5.3379e+02 ;     C8 - C7     - C12   
     8      9     10      1    1.2002e+02    5.3279e+02 ;     C8 - C9     - C10   
     8      9     19      1    1.1988e+02    3.7572e+02 ;     C8 - C9     - H7    
     9      8     18      1    1.1988e+02    3.7572e+02 ;     C9 - C8     - H6    
     9     10     11      1    1.2002e+02    5.3279e+02 ;     C9 - C10    - C11   
     9     10     20      1    1.1988e+02    3.7572e+02 ;     C9 - C10    - H8    
    10      9     19      1    1.1988e+02    3.7572e+02 ;    C10 - C9     - H7    
    10     11     12      1    1.2002e+02    5.3279e+02 ;    C10 - C11    - C12   
    10     11     21      1    1.1988e+02    3.7572e+02 ;    C10 - C11    - H9    
    11     10     20      1    1.1988e+02    3.7572e+02 ;    C11 - C10    - H8    
    11     12     22      1    1.1988e+02    3.7572e+02 ;    C11 - C12    - H10   
    12     11     21      1    1.1988e+02    3.7572e+02 ;    C12 - C11    - H9    

[ dihedrals ] ; propers
; for gromacs 4.5 or higher, using funct 9
;    i      j      k      l   func   phase     kd      pn
     1      2      3      4      9   180.00  15.16700   2 ;     C1-    C2-    C3-    C4
     1      2      3     15      9   180.00  15.16700   2 ;     C1-    C2-    C3-    H3
     1      6      5      4      9   180.00  15.16700   2 ;     C1-    C6-    C5-    C4
     1      6      5     16      9   180.00  15.16700   2 ;     C1-    C6-    C5-    H4
     2      1      6      5      9   180.00  15.16700   2 ;     C2-    C1-    C6-    C5
     2      1      6     17      9   180.00  15.16700   2 ;     C2-    C1-    C6-    H5
     2      3      4      5      9   180.00  15.16700   2 ;     C2-    C3-    C4-    C5
     2      3      4      7      9   180.00  15.16700   2 ;     C2-    C3-    C4-    C7
     3      4      5      6      9   180.00  15.16700   2 ;     C3-    C4-    C5-    C6
     3      4      5     16      9   180.00  15.16700   2 ;     C3-    C4-    C5-    H4
     3      4      7      8      9   180.00   3.20076   2 ;     C3-    C4-    C7-    C8
     3      4      7     12      9   180.00   3.20076   2 ;     C3-    C4-    C7-   C12
     4      3      2     14      9   180.00  15.16700   2 ;     C4-    C3-    C2-    H2
     4      5      6     17      9   180.00  15.16700   2 ;     C4-    C5-    C6-    H5
     4      7      8      9      9   180.00  15.16700   2 ;     C4-    C7-    C8-    C9
     4      7      8     18      9   180.00  15.16700   2 ;     C4-    C7-    C8-    H6
     4      7     12     11      9   180.00  15.16700   2 ;     C4-    C7-   C12-   C11
     4      7     12     22      9   180.00  15.16700   2 ;     C4-    C7-   C12-   H10
     5      4      3     15      9   180.00  15.16700   2 ;     C5-    C4-    C3-    H3
     5      4      7      8      9   180.00   3.20076   2 ;     C5-    C4-    C7-    C8
     5      4      7     12      9   180.00   3.20076   2 ;     C5-    C4-    C7-   C12
     6      1      2      3      9   180.00  15.16700   2 ;     C6-    C1-    C2-    C3
     6      1      2     14      9   180.00  15.16700   2 ;     C6-    C1-    C2-    H2
     6      5      4      7      9   180.00  15.16700   2 ;     C6-    C5-    C4-    C7
     7      4      3     15      9   180.00  15.16700   2 ;     C7-    C4-    C3-    H3
     7      4      5     16      9   180.00  15.16700   2 ;     C7-    C4-    C5-    H4
     7      8      9     10      9   180.00  15.16700   2 ;     C7-    C8-    C9-   C10
     7      8      9     19      9   180.00  15.16700   2 ;     C7-    C8-    C9-    H7
     7     12     11     10      9   180.00  15.16700   2 ;     C7-   C12-   C11-   C10
     7     12     11     21      9   180.00  15.16700   2 ;     C7-   C12-   C11-    H9
     8      7     12     11      9   180.00  15.16700   2 ;     C8-    C7-   C12-   C11
     8      7     12     22      9   180.00  15.16700   2 ;     C8-    C7-   C12-   H10
     8      9     10     11      9   180.00  15.16700   2 ;     C8-    C9-   C10-   C11
     8      9     10     20      9   180.00  15.16700   2 ;     C8-    C9-   C10-    H8
     9      8      7     12      9   180.00  15.16700   2 ;     C9-    C8-    C7-   C12
     9     10     11     12      9   180.00  15.16700   2 ;     C9-   C10-   C11-   C12
     9     10     11     21      9   180.00  15.16700   2 ;     C9-   C10-   C11-    H9
    10      9      8     18      9   180.00  15.16700   2 ;    C10-    C9-    C8-    H6
    10     11     12     22      9   180.00  15.16700   2 ;    C10-   C11-   C12-   H10
    11     10      9     19      9   180.00  15.16700   2 ;    C11-   C10-    C9-    H7
    12      7      8     18      9   180.00  15.16700   2 ;    C12-    C7-    C8-    H6
    12     11     10     20      9   180.00  15.16700   2 ;    C12-   C11-   C10-    H8
    13      1      2      3      9   180.00  15.16700   2 ;     H1-    C1-    C2-    C3
    13      1      2     14      9   180.00  15.16700   2 ;     H1-    C1-    C2-    H2
    13      1      6      5      9   180.00  15.16700   2 ;     H1-    C1-    C6-    C5
    13      1      6     17      9   180.00  15.16700   2 ;     H1-    C1-    C6-    H5
    14      2      3     15      9   180.00  15.16700   2 ;     H2-    C2-    C3-    H3
    16      5      6     17      9   180.00  15.16700   2 ;     H4-    C5-    C6-    H5
    18      8      9     19      9   180.00  15.16700   2 ;     H6-    C8-    C9-    H7
    19      9     10     20      9   180.00  15.16700   2 ;     H7-    C9-   C10-    H8
    20     10     11     21      9   180.00  15.16700   2 ;     H8-   C10-   C11-    H9
    21     11     12     22      9   180.00  15.16700   2 ;     H9-   C11-   C12-   H10

[ dihedrals ] ; impropers
; treated as propers in GROMACS to use correct AMBER analytical function
;    i      j      k      l   func   phase     kd      pn
     1      3      2     14      4   180.00   4.60240   2 ;     C1-    C3-    C2-    H2
     1      5      6     17      4   180.00   4.60240   2 ;     C1-    C5-    C6-    H5
     2      4      3     15      4   180.00   4.60240   2 ;     C2-    C4-    C3-    H3
     3      5      4      7      4   180.00   4.60240   2 ;     C3-    C5-    C4-    C7
     6      4      5     16      4   180.00   4.60240   2 ;     C6-    C4-    C5-    H4
     8     10      9     19      4   180.00   4.60240   2 ;     C8-   C10-    C9-    H7
     8     12      7      4      4   180.00   4.60240   2 ;     C8-   C12-    C7-    C4
     9      7      8     18      4   180.00   4.60240   2 ;     C9-    C7-    C8-    H6
     9     11     10     20      4   180.00   4.60240   2 ;     C9-   C11-   C10-    H8
    10     12     11     21      4   180.00   4.60240   2 ;    C10-   C12-   C11-    H9
    11      7     12     22      4   180.00   4.60240   2 ;    C11-    C7-   C12-   H10
    13      1      6      2      4   180.00   4.60240   2 ;     H1-    C1-    C6-    C2
