; mobley_2792521_GMX.itp created by acpype (v: 2023.10.27) on Thu May 14 13:16:51 2026

[ atomtypes ]
;name   bond_type     mass     charge   ptype   sigma         epsilon       Amb
 ce       ce          0.00000  0.00000   A     3.31521e-01   4.13379e-01 ; 1.86  0.0988
 c2       c2          0.00000  0.00000   A     3.31521e-01   4.13379e-01 ; 1.86  0.0988
 c        c           0.00000  0.00000   A     3.31521e-01   4.13379e-01 ; 1.86  0.0988
 c3       c3          0.00000  0.00000   A     3.39771e-01   4.51035e-01 ; 1.91  0.1078
 o        o           0.00000  0.00000   A     3.04812e-01   6.12119e-01 ; 1.71  0.1463
 ha       ha          0.00000  0.00000   A     2.62548e-01   6.73624e-02 ; 1.47  0.0161
 h4       h4          0.00000  0.00000   A     2.53639e-01   6.73624e-02 ; 1.42  0.0161
 hc       hc          0.00000  0.00000   A     2.60018e-01   8.70272e-02 ; 1.46  0.0208

[ moleculetype ]
;name            nrexcl
 mobley_2792521   3

[ atoms ]
;   nr  type  resi  res  atom  cgnr     charge      mass       ; qtot   bond_type
     1   ce     1   MOL    C1    1    -0.280200     12.01000 ; qtot -0.280
     2   c2     1   MOL    C2    2    -0.090200     12.01000 ; qtot -0.370
     3    c     1   MOL    C3    3     0.560101     12.01000 ; qtot 0.190
     4   c3     1   MOL    C4    4    -0.094100     12.01000 ; qtot 0.096
     5   c3     1   MOL    C5    5    -0.065200     12.01000 ; qtot 0.030
     6   c3     1   MOL    C6    6    -0.078400     12.01000 ; qtot -0.048
     7    o     1   MOL    O1    7    -0.526100     16.00000 ; qtot -0.574
     8   ha     1   MOL    H1    8     0.149000      1.00800 ; qtot -0.425
     9   ha     1   MOL    H2    9     0.124000      1.00800 ; qtot -0.301
    10   h4     1   MOL    H3   10    -0.009800      1.00800 ; qtot -0.311
    11   hc     1   MOL    H4   11     0.036033      1.00800 ; qtot -0.275
    12   hc     1   MOL    H5   12     0.036033      1.00800 ; qtot -0.239
    13   hc     1   MOL    H6   13     0.036033      1.00800 ; qtot -0.203
    14   hc     1   MOL    H7   14     0.058200      1.00800 ; qtot -0.145
    15   hc     1   MOL    H8   15     0.058200      1.00800 ; qtot -0.086
    16   hc     1   MOL    H9   16     0.043200      1.00800 ; qtot -0.043
    17   hc     1   MOL   H10   17     0.043200      1.00800 ; qtot 0.000

[ bonds ]
;   ai     aj funct   r             k
     1      2   1    1.3457e-01    3.5505e+05 ;     C1 - C2    
     1      3   1    1.4848e-01    2.2406e+05 ;     C1 - C3    
     1      8   1    1.0880e-01    2.9923e+05 ;     C1 - H1    
     2      5   1    1.5088e-01    2.0786e+05 ;     C2 - C5    
     2      9   1    1.0882e-01    2.9898e+05 ;     C2 - H2    
     3      7   1    1.2190e-01    4.9421e+05 ;     C3 - O1    
     3     10   1    1.1123e-01    2.6984e+05 ;     C3 - H3    
     4      6   1    1.5354e-01    1.9154e+05 ;     C4 - C6    
     4     11   1    1.0962e-01    2.8891e+05 ;     C4 - H4    
     4     12   1    1.0962e-01    2.8891e+05 ;     C4 - H5    
     4     13   1    1.0962e-01    2.8891e+05 ;     C4 - H6    
     5      6   1    1.5354e-01    1.9154e+05 ;     C5 - C6    
     5     14   1    1.0962e-01    2.8891e+05 ;     C5 - H7    
     5     15   1    1.0962e-01    2.8891e+05 ;     C5 - H8    
     6     16   1    1.0962e-01    2.8891e+05 ;     C6 - H9    
     6     17   1    1.0962e-01    2.8891e+05 ;     C6 - H10   

[ pairs ]
;   ai     aj    funct
     1      6      1 ;     C1 - C6    
     1     14      1 ;     C1 - H7    
     1     15      1 ;     C1 - H8    
     2      4      1 ;     C2 - C4    
     2      7      1 ;     C2 - O1    
     2     10      1 ;     C2 - H3    
     2     16      1 ;     C2 - H9    
     2     17      1 ;     C2 - H10   
     3      5      1 ;     C3 - C5    
     3      9      1 ;     C3 - H2    
     4     14      1 ;     C4 - H7    
     4     15      1 ;     C4 - H8    
     5     11      1 ;     C5 - H4    
     5     12      1 ;     C5 - H5    
     5     13      1 ;     C5 - H6    
     6      9      1 ;     C6 - H2    
     8      5      1 ;     H1 - C5    
     8      7      1 ;     H1 - O1    
     8      9      1 ;     H1 - H2    
     8     10      1 ;     H1 - H3    
     9     14      1 ;     H2 - H7    
     9     15      1 ;     H2 - H8    
    11     16      1 ;     H4 - H9    
    11     17      1 ;     H4 - H10   
    12     16      1 ;     H5 - H9    
    12     17      1 ;     H5 - H10   
    13     16      1 ;     H6 - H9    
    13     17      1 ;     H6 - H10   
    14     16      1 ;     H7 - H9    
    14     17      1 ;     H7 - H10   
    15     16      1 ;     H8 - H9    
    15     17      1 ;     H8 - H10   

[ angles ]
;   ai     aj     ak    funct   theta         cth
     1      2      5      1    1.2558e+02    5.0710e+02 ;     C1 - C2     - C5    
     1      2      9      1    1.2049e+02    3.8618e+02 ;     C1 - C2     - H2    
     1      3      7      1    1.2324e+02    6.5262e+02 ;     C1 - C3     - O1    
     1      3     10      1    1.1489e+02    3.6376e+02 ;     C1 - C3     - H3    
     2      1      3      1    1.2200e+02    5.1974e+02 ;     C2 - C1     - C3    
     2      1      8      1    1.2000e+02    3.8694e+02 ;     C2 - C1     - H1    
     2      5      6      1    1.1258e+02    5.0543e+02 ;     C2 - C5     - C6    
     2      5     14      1    1.1065e+02    3.6618e+02 ;     C2 - C5     - H7    
     2      5     15      1    1.1065e+02    3.6618e+02 ;     C2 - C5     - H8    
     3      1      8      1    1.1641e+02    3.6242e+02 ;     C3 - C1     - H1    
     4      6      5      1    1.1263e+02    5.0099e+02 ;     C4 - C6     - C5    
     4      6     16      1    1.0968e+02    3.6208e+02 ;     C4 - C6     - H9    
     4      6     17      1    1.0968e+02    3.6208e+02 ;     C4 - C6     - H10   
     5      2      9      1    1.1505e+02    3.5941e+02 ;     C5 - C2     - H2    
     5      6     16      1    1.0968e+02    3.6208e+02 ;     C5 - C6     - H9    
     5      6     17      1    1.0968e+02    3.6208e+02 ;     C5 - C6     - H10   
     6      4     11      1    1.0968e+02    3.6208e+02 ;     C6 - C4     - H4    
     6      4     12      1    1.0968e+02    3.6208e+02 ;     C6 - C4     - H5    
     6      4     13      1    1.0968e+02    3.6208e+02 ;     C6 - C4     - H6    
     6      5     14      1    1.0968e+02    3.6208e+02 ;     C6 - C5     - H7    
     6      5     15      1    1.0968e+02    3.6208e+02 ;     C6 - C5     - H8    
     7      3     10      1    1.2062e+02    5.0191e+02 ;     O1 - C3     - H3    
    11      4     12      1    1.0773e+02    2.9957e+02 ;     H4 - C4     - H5    
    11      4     13      1    1.0773e+02    2.9957e+02 ;     H4 - C4     - H6    
    12      4     13      1    1.0773e+02    2.9957e+02 ;     H5 - C4     - H6    
    14      5     15      1    1.0773e+02    2.9957e+02 ;     H7 - C5     - H8    
    16      6     17      1    1.0773e+02    2.9957e+02 ;     H9 - C6     - H10   

[ dihedrals ] ; propers
; for gromacs 4.5 or higher, using funct 9
;    i      j      k      l   func   phase     kd      pn
     1      2      5      6      9     0.00   0.00000   0 ;     C1-    C2-    C5-    C6
     1      2      5     14      9     0.00   0.00000   0 ;     C1-    C2-    C5-    H7
     1      2      5     15      9     0.00   0.00000   0 ;     C1-    C2-    C5-    H8
     2      1      3      7      9   180.00   9.10020   2 ;     C2-    C1-    C3-    O1
     2      1      3     10      9   180.00   9.10020   2 ;     C2-    C1-    C3-    H3
     2      5      6      4      9     0.00   0.65084   3 ;     C2-    C5-    C6-    C4
     2      5      6     16      9     0.00   0.65084   3 ;     C2-    C5-    C6-    H9
     2      5      6     17      9     0.00   0.65084   3 ;     C2-    C5-    C6-   H10
     3      1      2      5      9   180.00  27.82360   2 ;     C3-    C1-    C2-    C5
     3      1      2      9      9   180.00  27.82360   2 ;     C3-    C1-    C2-    H2
     4      6      5     14      9     0.00   0.54392   3 ;     C4-    C6-    C5-    H7
     4      6      5     15      9     0.00   0.54392   3 ;     C4-    C6-    C5-    H8
     5      6      4     11      9     0.00   0.54392   3 ;     C5-    C6-    C4-    H4
     5      6      4     12      9     0.00   0.54392   3 ;     C5-    C6-    C4-    H5
     5      6      4     13      9     0.00   0.54392   3 ;     C5-    C6-    C4-    H6
     6      5      2      9      9     0.00   0.00000   0 ;     C6-    C5-    C2-    H2
     8      1      2      5      9   180.00  27.82360   2 ;     H1-    C1-    C2-    C5
     8      1      2      9      9   180.00  27.82360   2 ;     H1-    C1-    C2-    H2
     8      1      3      7      9   180.00   9.10020   2 ;     H1-    C1-    C3-    O1
     8      1      3     10      9   180.00   9.10020   2 ;     H1-    C1-    C3-    H3
     9      2      5     14      9     0.00   0.00000   0 ;     H2-    C2-    C5-    H7
     9      2      5     15      9     0.00   0.00000   0 ;     H2-    C2-    C5-    H8
    11      4      6     16      9     0.00   0.50208   3 ;     H4-    C4-    C6-    H9
    11      4      6     17      9     0.00   0.50208   3 ;     H4-    C4-    C6-   H10
    12      4      6     16      9     0.00   0.50208   3 ;     H5-    C4-    C6-    H9
    12      4      6     17      9     0.00   0.50208   3 ;     H5-    C4-    C6-   H10
    13      4      6     16      9     0.00   0.50208   3 ;     H6-    C4-    C6-    H9
    13      4      6     17      9     0.00   0.50208   3 ;     H6-    C4-    C6-   H10
    14      5      6     16      9     0.00   0.50208   3 ;     H7-    C5-    C6-    H9
    14      5      6     17      9     0.00   0.50208   3 ;     H7-    C5-    C6-   H10
    15      5      6     16      9     0.00   0.50208   3 ;     H8-    C5-    C6-    H9
    15      5      6     17      9     0.00   0.50208   3 ;     H8-    C5-    C6-   H10

[ dihedrals ] ; impropers
; treated as propers in GROMACS to use correct AMBER analytical function
;    i      j      k      l   func   phase     kd      pn
     1     10      3      7      4   180.00  43.93200   2 ;     C1-    H3-    C3-    O1
     5      1      2      9      4   180.00   4.60240   2 ;     C5-    C1-    C2-    H2
     8      1      2      3      4   180.00   4.60240   2 ;     H1-    C1-    C2-    C3
