mobley_547634_GMX.gro created by acpype (v: 2023.10.27) on Thu May 14 13:44:16 2026
 2169
    1MOL     C1    1   1.110   1.592   1.451
    1MOL     C2    2   1.201   1.695   1.425
    1MOL     C3    3   1.153   1.460   1.453
    1MOL     C4    4   1.335   1.665   1.403
    1MOL     C5    5   1.333   1.295   1.434
    1MOL     C6    6   1.515   1.500   1.383
    1MOL     C7    7   1.288   1.428   1.431
    1MOL     C8    8   1.380   1.532   1.406
    1MOL     C9    9   1.468   1.265   1.411
    1MOL    C10   10   1.559   1.368   1.386
    1MOL    C11   11   1.512   1.123   1.415
    1MOL    C12   12   1.703   1.338   1.362
    1MOL     H1   13   1.005   1.616   1.468
    1MOL     H2   14   1.167   1.798   1.423
    1MOL     H3   15   1.080   1.381   1.473
    1MOL     H4   16   1.404   1.747   1.383
    1MOL     H5   17   1.263   1.214   1.453
    1MOL     H6   18   1.587   1.579   1.363
    1MOL     H7   19   1.578   1.105   1.500
    1MOL     H8   20   1.426   1.055   1.423
    1MOL     H9   21   1.565   1.095   1.323
    1MOL    H10   22   1.762   1.361   1.451
    1MOL    H11   23   1.718   1.232   1.337
    1MOL    H12   24   1.742   1.396   1.277
    2SOL     OW   25   0.230   0.628   0.113
    2SOL    HW1   26   0.137   0.626   0.150
    2SOL    HW2   27   0.231   0.589   0.021
    3SOL     OW   28   0.225   0.275   0.996
    3SOL    HW1   29   0.260   0.258   1.088
    3SOL    HW2   30   0.137   0.230   0.984
    4SOL     OW   31   0.019   0.368   0.647
    4SOL    HW1   32  -0.063   0.411   0.686
    4SOL    HW2   33  -0.009   0.295   0.584
    5SOL     OW   34   0.569   1.275   1.165
    5SOL    HW1   35   0.476   1.268   1.128
    5SOL    HW2   36   0.580   1.364   1.209
    6SOL     OW   37   1.555   1.511   0.703
    6SOL    HW1   38   1.498   1.495   0.784
    6SOL    HW2   39   1.496   1.521   0.623
    7SOL     OW   40   1.135   0.703   0.717
    7SOL    HW1   41   1.192   0.781   0.692
    7SOL    HW2   42   1.075   0.729   0.793
    8SOL     OW   43   1.755   0.607   0.231
    8SOL    HW1   44   1.743   0.594   0.132
    8SOL    HW2   45   1.725   0.526   0.280
    9SOL     OW   46   0.768   1.144   1.023
    9SOL    HW1   47   0.690   1.161   1.083
    9SOL    HW2   48   0.802   1.231   0.987
   10SOL     OW   49   0.850   0.798   1.823
   10SOL    HW1   50   0.846   0.874   1.888
   10SOL    HW2   51   0.872   0.834   1.732
   11SOL     OW   52   0.685   1.012   0.665
   11SOL    HW1   53   0.754   0.996   0.735
   11SOL    HW2   54   0.612   1.069   0.703
   12SOL     OW   55   0.686   1.161   1.803
   12SOL    HW1   56   0.746   1.240   1.817
   12SOL    HW2   57   0.600   1.192   1.762
   13SOL     OW   58   0.335   1.435   1.061
   13SOL    HW1   59   0.257   1.404   1.008
   13SOL    HW2   60   0.393   1.493   1.004
   14SOL     OW   61   0.438   0.392   1.499
   14SOL    HW1   62   0.520   0.336   1.508
   14SOL    HW2   63   0.357   0.334   1.503
   15SOL     OW   64   1.603   0.447   0.737
   15SOL    HW1   65   1.529   0.493   0.687
   15SOL    HW2   66   1.654   0.515   0.790
   16SOL     OW   67   0.231   1.713   0.483
   16SOL    HW1   68   0.265   1.790   0.537
   16SOL    HW2   69   0.275   1.713   0.393
   17SOL     OW   70   1.127   1.341   1.690
   17SOL    HW1   71   1.174   1.341   1.778
   17SOL    HW2   72   1.079   1.254   1.679
   18SOL     OW   73   0.230   1.434   0.538
   18SOL    HW1   74   0.204   1.530   0.538
   18SOL    HW2   75   0.159   1.380   0.583
   19SOL     OW   76   0.240   1.091   0.886
   19SOL    HW1   77   0.254   1.007   0.938
   19SOL    HW2   78   0.185   1.155   0.941
   20SOL     OW   79   0.620   1.786   1.439
   20SOL    HW1   80   0.528   1.769   1.474
   20SOL    HW2   81   0.648   1.878   1.465
   21SOL     OW   82   0.606   0.964   0.123
   21SOL    HW1   83   0.613   1.048   0.069
   21SOL    HW2   84   0.652   0.977   0.211
   22SOL     OW   85   1.594   0.114   1.480
   22SOL    HW1   86   1.576   0.181   1.408
   22SOL    HW2   87   1.591   0.160   1.569
   23SOL     OW   88   0.122   0.643   0.563
   23SOL    HW1   89   0.077   0.555   0.580
   23SOL    HW2   90   0.121   0.697   0.647
   24SOL     OW   91   1.842   1.767   0.359
   24SOL    HW1   92   1.896   1.738   0.439
   24SOL    HW2   93   1.872   1.857   0.330
   25SOL     OW   94   0.027   1.596   0.117
   25SOL    HW1   95   0.008   1.500   0.138
   25SOL    HW2   96  -0.006   1.654   0.192
   26SOL     OW   97   1.689   0.922   0.612
   26SOL    HW1   98   1.784   0.893   0.620
   26SOL    HW2   99   1.681   0.987   0.537
   27SOL     OW  100   1.641   1.108   0.432
   27SOL    HW1  101   1.727   1.110   0.380
   27SOL    HW2  102   1.655   1.155   0.520
   28SOL     OW  103   0.113   0.737   1.597
   28SOL    HW1  104   0.201   0.724   1.642
   28SOL    HW2  105   0.100   0.834   1.575
   29SOL     OW  106   0.613   1.365   0.726
   29SOL    HW1  107   0.564   1.278   0.735
   29SOL    HW2  108   0.590   1.408   0.639
   30SOL     OW  109   0.809   0.004   0.502
   30SOL    HW1  110   0.849   0.095   0.493
   30SOL    HW2  111   0.709   0.012   0.508
   31SOL     OW  112   0.197   0.976   1.264
   31SOL    HW1  113   0.286   0.931   1.250
   31SOL    HW2  114   0.124   0.911   1.245
   32SOL     OW  115   1.525   0.999   0.190
   32SOL    HW1  116   1.462   0.923   0.203
   32SOL    HW2  117   1.573   1.017   0.276
   33SOL     OW  118   0.317   0.251   1.801
   33SOL    HW1  119   0.388   0.322   1.807
   33SOL    HW2  120   0.229   0.290   1.829
   34SOL     OW  121   1.466   1.417   0.953
   34SOL    HW1  122   1.407   1.423   1.033
   34SOL    HW2  123   1.451   1.329   0.907
   35SOL     OW  124   1.667   1.714   0.572
   35SOL    HW1  125   1.626   1.691   0.484
   35SOL    HW2  126   1.649   1.640   0.637
   36SOL     OW  127   0.598   0.729   0.270
   36SOL    HW1  128   0.622   0.798   0.202
   36SOL    HW2  129   0.520   0.762   0.324
   37SOL     OW  130   1.281   0.345   0.944
   37SOL    HW1  131   1.195   0.295   0.931
   37SOL    HW2  132   1.343   0.291   1.000
   38SOL     OW  133   1.576   1.662   0.307
   38SOL    HW1  134   1.665   1.708   0.310
   38SOL    HW2  135   1.555   1.638   0.212
   39SOL     OW  136   0.807   0.605   1.465
   39SOL    HW1  137   0.760   0.602   1.554
   39SOL    HW2  138   0.756   0.550   1.399
   40SOL     OW  139   1.394   0.469   1.674
   40SOL    HW1  140   1.374   0.512   1.762
   40SOL    HW2  141   1.472   0.407   1.683
   41SOL     OW  142   0.973   0.890   1.572
   41SOL    HW1  143   1.019   0.806   1.543
   41SOL    HW2  144   0.917   0.924   1.497
   42SOL     OW  145   0.991   0.410   1.242
   42SOL    HW1  146   0.914   0.444   1.296
   42SOL    HW2  147   0.957   0.359   1.163
   43SOL     OW  148   1.041   0.701   0.429
   43SOL    HW1  149   1.067   0.697   0.525
   43SOL    HW2  150   0.956   0.650   0.415
   44SOL     OW  151   0.076   0.811   0.789
   44SOL    HW1  152   0.175   0.799   0.798
   44SOL    HW2  153   0.052   0.906   0.810
   45SOL     OW  154   0.130   1.821   1.571
   45SOL    HW1  155   0.120   1.806   1.670
   45SOL    HW2  156   0.044   1.857   1.535
   46SOL     OW  157   0.865   0.348   0.195
   46SOL    HW1  158   0.924   0.411   0.146
   46SOL    HW2  159   0.884   0.254   0.166
   47SOL     OW  160   1.719   0.585   1.831
   47SOL    HW1  161   1.693   0.674   1.795
   47SOL    HW2  162   1.717   0.517   1.758
   48SOL     OW  163   1.362   1.144   0.545
   48SOL    HW1  164   1.445   1.115   0.497
   48SOL    HW2  165   1.313   1.211   0.489
   49SOL     OW  166   0.550   0.196   0.885
   49SOL    HW1  167   0.545   0.191   0.985
   49SOL    HW2  168   0.552   0.292   0.856
   50SOL     OW  169   1.008   1.456   0.477
   50SOL    HW1  170   0.962   1.528   0.425
   50SOL    HW2  171   1.004   1.476   0.575
   51SOL     OW  172   0.351   1.801   0.853
   51SOL    HW1  173   0.401   1.715   0.859
   51SOL    HW2  174   0.416   1.878   0.850
   52SOL     OW  175   1.795   1.066   0.873
   52SOL    HW1  176   1.733   1.051   0.797
   52SOL    HW2  177   1.743   1.077   0.958
   53SOL     OW  178   0.321   0.943   0.242
   53SOL    HW1  179   0.403   0.982   0.200
   53SOL    HW2  180   0.294   0.861   0.193
   54SOL     OW  181   1.458   0.735   0.728
   54SOL    HW1  182   1.453   0.670   0.803
   54SOL    HW2  183   1.538   0.794   0.741
   55SOL     OW  184   0.461   1.266   1.727
   55SOL    HW1  185   0.411   1.267   1.641
   55SOL    HW2  186   0.398   1.248   1.803
   56SOL     OW  187   1.111   1.776   0.237
   56SOL    HW1  188   1.051   1.714   0.287
   56SOL    HW2  189   1.142   1.732   0.152
   57SOL     OW  190   0.202   0.285   1.498
   57SOL    HW1  191   0.122   0.345   1.485
   57SOL    HW2  192   0.192   0.236   1.584
   58SOL     OW  193   1.632   1.377   0.081
   58SOL    HW1  194   1.600   1.471   0.071
   58SOL    HW2  195   1.556   1.314   0.069
   59SOL     OW  196   0.464   1.743   0.323
   59SOL    HW1  197   0.497   1.782   0.409
   59SOL    HW2  198   0.540   1.736   0.258
   60SOL     OW  199   1.400   0.107   0.426
   60SOL    HW1  200   1.376   0.070   0.336
   60SOL    HW2  201   1.499   0.123   0.430
   61SOL     OW  202   0.249   1.785   1.241
   61SOL    HW1  203   0.306   1.720   1.291
   61SOL    HW2  204   0.233   1.752   1.148
   62SOL     OW  205   0.940   1.698   0.904
   62SOL    HW1  206   1.020   1.641   0.925
   62SOL    HW2  207   0.891   1.658   0.827
   63SOL     OW  208   0.382   0.700   0.480
   63SOL    HW1  209   0.427   0.610   0.477
   63SOL    HW2  210   0.288   0.689   0.513
   64SOL     OW  211   1.547   0.222   1.729
   64SOL    HW1  212   1.542   0.259   1.821
   64SOL    HW2  213   1.475   0.153   1.717
   65SOL     OW  214   0.614   0.122   0.117
   65SOL    HW1  215   0.712   0.100   0.124
   65SOL    HW2  216   0.583   0.105   0.024
   66SOL     OW  217   0.781   0.264   1.749
   66SOL    HW1  218   0.848   0.203   1.792
   66SOL    HW2  219   0.708   0.283   1.814
   67SOL     OW  220   0.888   1.514   1.195
   67SOL    HW1  221   0.865   1.489   1.101
   67SOL    HW2  222   0.949   1.445   1.234
   68SOL     OW  223   1.351   0.590   1.433
   68SOL    HW1  224   1.379   0.547   1.518
   68SOL    HW2  225   1.376   0.686   1.434
   69SOL     OW  226   0.803   1.402   0.924
   69SOL    HW1  227   0.893   1.416   0.882
   69SOL    HW2  228   0.732   1.404   0.853
   70SOL     OW  229   0.922   0.503   0.899
   70SOL    HW1  230   0.897   0.494   0.803
   70SOL    HW2  231   0.970   0.421   0.930
   71SOL     OW  232   0.539   0.064   0.512
   71SOL    HW1  233   0.458   0.065   0.570
   71SOL    HW2  234   0.542   0.147   0.457
   72SOL     OW  235   1.434   1.188   0.041
   72SOL    HW1  236   1.466   1.112   0.098
   72SOL    HW2  237   1.342   1.215   0.071
   73SOL     OW  238   0.297   0.035   0.171
   73SOL    HW1  239   0.346   0.119   0.150
   73SOL    HW2  240   0.359  -0.030   0.216
   74SOL     OW  241   0.935   0.236   0.480
   74SOL    HW1  242   0.887   0.277   0.402
   74SOL    HW2  243   1.034   0.234   0.461
   75SOL     OW  244   1.076   0.683   1.464
   75SOL    HW1  245   0.996   0.622   1.467
   75SOL    HW2  246   1.157   0.630   1.440
   76SOL     OW  247   1.227   1.570   0.793
   76SOL    HW1  248   1.248   1.644   0.728
   76SOL    HW2  249   1.295   1.570   0.866
   77SOL     OW  250   0.459   1.152   0.741
   77SOL    HW1  251   0.388   1.125   0.806
   77SOL    HW2  252   0.433   1.124   0.648
   78SOL     OW  253   1.271   1.797   0.591
   78SOL    HW1  254   1.315   1.861   0.527
   78SOL    HW2  255   1.221   1.849   0.661
   79SOL     OW  256   1.032   0.549   0.016
   79SOL    HW1  257   0.991   0.631  -0.023
   79SOL    HW2  258   1.096   0.575   0.089
   80SOL     OW  259   0.078   0.556   1.386
   80SOL    HW1  260   0.170   0.555   1.345
   80SOL    HW2  261   0.072   0.630   1.453
   81SOL     OW  262   0.561   0.222   1.147
   81SOL    HW1  263   0.599   0.138   1.184
   81SOL    HW2  264   0.473   0.241   1.191
   82SOL     OW  265   0.866   0.454   0.642
   82SOL    HW1  266   0.834   0.526   0.580
   82SOL    HW2  267   0.890   0.373   0.589
   83SOL     OW  268   1.017   0.039   0.753
   83SOL    HW1  269   0.945   0.044   0.684
   83SOL    HW2  270   0.993  -0.030   0.822
   84SOL     OW  271   1.429   1.173   0.867
   84SOL    HW1  272   1.374   1.089   0.860
   84SOL    HW2  273   1.455   1.202   0.775
   85SOL     OW  274   1.466   0.590   0.992
   85SOL    HW1  275   1.436   0.495   0.999
   85SOL    HW2  276   1.539   0.606   1.058
   86SOL     OW  277   1.857   0.833   0.377
   86SOL    HW1  278   1.899   0.769   0.441
   86SOL    HW2  279   1.819   0.782   0.299
   87SOL     OW  280   0.488   1.385   0.174
   87SOL    HW1  281   0.401   1.370   0.221
   87SOL    HW2  282   0.471   1.411   0.079
   88SOL     OW  283   1.664   1.280   0.657
   88SOL    HW1  284   1.763   1.288   0.671
   88SOL    HW2  285   1.619   1.364   0.688
   89SOL     OW  286   1.390   0.575   0.078
   89SOL    HW1  287   1.336   0.554   0.159
   89SOL    HW2  288   1.481   0.534   0.087
   90SOL     OW  289   0.527   0.256   0.328
   90SOL    HW1  290   0.554   0.197   0.253
   90SOL    HW2  291   0.527   0.351   0.297
   91SOL     OW  292   1.754   1.223   1.588
   91SOL    HW1  293   1.845   1.184   1.575
   91SOL    HW2  294   1.762   1.319   1.612
   92SOL     OW  295   1.592   1.629   1.625
   92SOL    HW1  296   1.619   1.663   1.535
   92SOL    HW2  297   1.671   1.591   1.671
   93SOL     OW  298   1.111   1.195   1.100
   93SOL    HW1  299   1.071   1.239   1.181
   93SOL    HW2  300   1.070   1.232   1.017
   94SOL     OW  301   1.638   1.099   1.079
   94SOL    HW1  302   1.643   1.180   1.138
   94SOL    HW2  303   1.552   1.101   1.028
   95SOL     OW  304   0.915   0.089   1.402
   95SOL    HW1  305   0.940   0.069   1.307
   95SOL    HW2  306   0.987   0.145   1.444
   96SOL     OW  307   0.980   1.116   1.719
   96SOL    HW1  308   0.881   1.122   1.729
   96SOL    HW2  309   1.003   1.036   1.663
   97SOL     OW  310   0.705   1.050   0.368
   97SOL    HW1  311   0.691   1.057   0.467
   97SOL    HW2  312   0.789   0.999   0.350
   98SOL     OW  313   0.410   0.813   1.251
   98SOL    HW1  314   0.496   0.825   1.301
   98SOL    HW2  315   0.368   0.726   1.278
   99SOL     OW  316   1.274   0.386   1.262
   99SOL    HW1  317   1.295   0.460   1.326
   99SOL    HW2  318   1.185   0.403   1.219
  100SOL     OW  319   0.064   1.564   1.331
  100SOL    HW1  320   0.018   1.646   1.297
  100SOL    HW2  321   0.162   1.583   1.340
  101SOL     OW  322   0.367   1.100   0.501
  101SOL    HW1  323   0.360   1.183   0.445
  101SOL    HW2  324   0.371   1.020   0.441
  102SOL     OW  325   0.566   0.537   0.865
  102SOL    HW1  326   0.578   0.603   0.791
  102SOL    HW2  327   0.612   0.571   0.948
  103SOL     OW  328   1.252   1.348   0.388
  103SOL    HW1  329   1.302   1.425   0.428
  103SOL    HW2  330   1.157   1.350   0.420
  104SOL     OW  331   1.272   1.445   1.142
  104SOL    HW1  332   1.319   1.458   1.229
  104SOL    HW2  333   1.206   1.371   1.151
  105SOL     OW  334   1.582   0.639   0.472
  105SOL    HW1  335   1.551   0.700   0.545
  105SOL    HW2  336   1.632   0.691   0.403
  106SOL     OW  337   0.354   1.510   1.329
  106SOL    HW1  338   0.333   1.466   1.242
  106SOL    HW2  339   0.451   1.536   1.332
  107SOL     OW  340   0.402   0.751   1.598
  107SOL    HW1  341   0.470   0.806   1.551
  107SOL    HW2  342   0.442   0.663   1.625
  108SOL     OW  343   1.587   0.779   1.670
  108SOL    HW1  344   1.495   0.817   1.665
  108SOL    HW2  345   1.647   0.826   1.605
  109SOL     OW  346   1.013   0.105   1.770
  109SOL    HW1  347   1.019   0.190   1.718
  109SOL    HW2  348   1.045   0.029   1.713
  110SOL     OW  349   0.504   0.050   1.740
  110SOL    HW1  350   0.462  -0.007   1.670
  110SOL    HW2  351   0.438   0.119   1.772
  111SOL     OW  352   0.573   0.870   1.029
  111SOL    HW1  353   0.617   0.959   1.020
  111SOL    HW2  354   0.510   0.870   1.106
  112SOL     OW  355   1.360   0.862   1.045
  112SOL    HW1  356   1.285   0.862   0.979
  112SOL    HW2  357   1.397   0.770   1.054
  113SOL     OW  358   1.209   0.525   0.275
  113SOL    HW1  359   1.222   0.441   0.329
  113SOL    HW2  360   1.180   0.599   0.335
  114SOL     OW  361   0.307   0.213   1.231
  114SOL    HW1  362   0.284   0.250   1.321
  114SOL    HW2  363   0.277   0.118   1.225
  115SOL     OW  364   0.037   1.310   1.282
  115SOL    HW1  365   0.090   1.261   1.350
  115SOL    HW2  366   0.059   1.408   1.287
  116SOL     OW  367   0.732   0.634   1.064
  116SOL    HW1  368   0.791   0.608   0.988
  116SOL    HW2  369   0.704   0.730   1.053
  117SOL     OW  370   1.728   0.935   1.854
  117SOL    HW1  371   1.682   0.928   1.765
  117SOL    HW2  372   1.666   0.979   1.920
  118SOL     OW  373   0.307   0.063   0.618
  118SOL    HW1  374   0.296   0.157   0.651
  118SOL    HW2  375   0.302   0.000   0.695
  119SOL     OW  376   1.622   0.367   0.374
  119SOL    HW1  377   1.624   0.291   0.438
  119SOL    HW2  378   1.574   0.444   0.414
  120SOL     OW  379   1.023   0.766   0.966
  120SOL    HW1  380   1.038   0.787   1.062
  120SOL    HW2  381   0.993   0.671   0.957
  121SOL     OW  382   0.980   1.573   1.700
  121SOL    HW1  383   0.960   1.617   1.612
  121SOL    HW2  384   1.019   1.482   1.684
  122SOL     OW  385   1.859   1.518   1.605
  122SOL    HW1  386   1.873   1.545   1.510
  122SOL    HW2  387   1.942   1.540   1.658
  123SOL     OW  388   0.350   0.898   1.804
  123SOL    HW1  389   0.426   0.942   1.852
  123SOL    HW2  390   0.385   0.851   1.722
  124SOL     OW  391   1.540   0.274   0.125
  124SOL    HW1  392   1.479   0.199   0.148
  124SOL    HW2  393   1.562   0.326   0.208
  125SOL     OW  394   1.303   0.838   0.042
  125SOL    HW1  395   1.337   0.745   0.057
  125SOL    HW2  396   1.321   0.865  -0.053
  126SOL     OW  397   1.068   1.333   0.849
  126SOL    HW1  398   1.075   1.249   0.794
  126SOL    HW2  399   1.130   1.402   0.813
  127SOL     OW  400   0.319   0.810   0.949
  127SOL    HW1  401   0.412   0.846   0.954
  127SOL    HW2  402   0.313   0.725   1.001
  128SOL     OW  403   0.339   0.509   1.006
  128SOL    HW1  404   0.287   0.426   0.989
  128SOL    HW2  405   0.416   0.514   0.942
  129SOL     OW  406   1.138   0.380   1.678
  129SOL    HW1  407   1.093   0.443   1.742
  129SOL    HW2  408   1.231   0.411   1.661
  130SOL     OW  409   1.160   0.207   1.477
  130SOL    HW1  410   1.160   0.271   1.554
  130SOL    HW2  411   1.188   0.255   1.394
  131SOL     OW  412   0.008   1.326   0.200
  131SOL    HW1  413  -0.085   1.347   0.169
  131SOL    HW2  414   0.018   1.227   0.213
  132SOL     OW  415   0.088   1.801   0.927
  132SOL    HW1  416   0.046   1.715   0.900
  132SOL    HW2  417   0.182   1.804   0.893
  133SOL     OW  418   0.504   1.568   0.910
  133SOL    HW1  419   0.570   1.642   0.919
  133SOL    HW2  420   0.548   1.489   0.868
  134SOL     OW  421   1.002   0.796   1.238
  134SOL    HW1  422   1.043   0.764   1.324
  134SOL    HW2  423   0.906   0.769   1.235
  135SOL     OW  424   0.040   0.544   1.114
  135SOL    HW1  425   0.125   0.511   1.073
  135SOL    HW2  426   0.053   0.559   1.212
  136SOL     OW  427   0.189   0.520   1.722
  136SOL    HW1  428   0.248   0.480   1.652
  136SOL    HW2  429   0.131   0.591   1.681
  137SOL     OW  430   1.369   0.950   1.660
  137SOL    HW1  431   1.408   1.039   1.680
  137SOL    HW2  432   1.379   0.930   1.563
  138SOL     OW  433   0.815   0.572   0.325
  138SOL    HW1  434   0.822   0.483   0.279
  138SOL    HW2  435   0.721   0.606   0.317
  139SOL     OW  436   1.657   0.604   1.206
  139SOL    HW1  437   1.619   0.535   1.268
  139SOL    HW2  438   1.739   0.568   1.162
  140SOL     OW  439   0.252   1.564   1.744
  140SOL    HW1  440   0.222   1.621   1.820
  140SOL    HW2  441   0.245   1.467   1.770
  141SOL     OW  442   0.671   0.464   1.269
  141SOL    HW1  443   0.637   0.375   1.239
  141SOL    HW2  444   0.697   0.518   1.189
  142SOL     OW  445   0.473   0.500   0.191
  142SOL    HW1  446   0.534   0.580   0.195
  142SOL    HW2  447   0.378   0.531   0.198
  143SOL     OW  448   0.159   1.137   1.466
  143SOL    HW1  449   0.181   1.076   1.542
  143SOL    HW2  450   0.169   1.088   1.380
  144SOL     OW  451   1.347   1.059   1.234
  144SOL    HW1  452   1.371   0.996   1.160
  144SOL    HW2  453   1.257   1.099   1.216
  145SOL     OW  454   1.302   0.855   0.309
  145SOL    HW1  455   1.216   0.824   0.351
  145SOL    HW2  456   1.298   0.841   0.210
  146SOL     OW  457   1.759   1.747   1.154
  146SOL    HW1  458   1.820   1.777   1.081
  146SOL    HW2  459   1.721   1.658   1.132
  147SOL     OW  460   1.252   1.731   1.128
  147SOL    HW1  461   1.336   1.736   1.074
  147SOL    HW2  462   1.229   1.635   1.146
  148SOL     OW  463   0.083   1.258   1.022
  148SOL    HW1  464   0.078   1.257   1.122
  148SOL    HW2  465   0.000   1.217   0.984
  149SOL     OW  466   0.688   1.662   1.716
  149SOL    HW1  467   0.632   1.743   1.725
  149SOL    HW2  468   0.740   1.666   1.630
  150SOL     OW  469   0.903   0.086   0.133
  150SOL    HW1  470   0.954   0.087   0.047
  150SOL    HW2  471   0.959   0.044   0.204
  151SOL     OW  472   1.726   0.135   0.523
  151SOL    HW1  473   1.799   0.118   0.456
  151SOL    HW2  474   1.695   0.048   0.561
  152SOL     OW  475   1.388   1.573   0.477
  152SOL    HW1  476   1.455   1.585   0.403
  152SOL    HW2  477   1.348   1.662   0.500
  153SOL     OW  478   0.130   1.794   1.851
  153SOL    HW1  479   0.089   1.720   1.904
  153SOL    HW2  480   0.194   1.845   1.909
  154SOL     OW  481   1.280   0.927   0.672
  154SOL    HW1  482   1.340   0.846   0.674
  154SOL    HW2  483   1.320   0.996   0.612
  155SOL     OW  484   0.830   1.273   1.422
  155SOL    HW1  485   0.825   1.306   1.517
  155SOL    HW2  486   0.744   1.292   1.376
  156SOL     OW  487   0.672   1.616   0.154
  156SOL    HW1  488   0.681   1.626   0.055
  156SOL    HW2  489   0.632   1.527   0.175
  157SOL     OW  490   1.650   1.720   1.394
  157SOL    HW1  491   1.703   1.730   1.310
  157SOL    HW2  492   1.623   1.810   1.428
  158SOL     OW  493   1.841   0.175   0.963
  158SOL    HW1  494   1.880   0.090   0.927
  158SOL    HW2  495   1.743   0.177   0.944
  159SOL     OW  496   0.263   0.326   0.720
  159SOL    HW1  497   0.184   0.377   0.686
  159SOL    HW2  498   0.254   0.311   0.818
  160SOL     OW  499   1.194   1.612   0.031
  160SOL    HW1  500   1.200   1.519   0.068
  160SOL    HW2  501   1.135   1.612  -0.049
  161SOL     OW  502   0.822   1.002   1.372
  161SOL    HW1  503   0.862   1.001   1.280
  161SOL    HW2  504   0.832   1.094   1.412
  162SOL     OW  505   0.916   0.910   0.291
  162SOL    HW1  506   0.979   0.948   0.223
  162SOL    HW2  507   0.956   0.827   0.330
  163SOL     OW  508   1.504   1.607   0.044
  163SOL    HW1  509   1.412   1.644   0.051
  163SOL    HW2  510   1.542   1.627  -0.046
  164SOL     OW  511   0.372   1.288   1.490
  164SOL    HW1  512   0.359   1.381   1.456
  164SOL    HW2  513   0.288   1.236   1.477
  165SOL     OW  514   1.039   1.098   0.696
  165SOL    HW1  515   0.969   1.051   0.750
  165SOL    HW2  516   1.098   1.030   0.653
  166SOL     OW  517   1.014   0.236   0.971
  166SOL    HW1  518   1.006   0.200   0.878
  166SOL    HW2  519   1.012   0.160   1.036
  167SOL     OW  520   0.590   1.487   0.491
  167SOL    HW1  521   0.632   1.429   0.421
  167SOL    HW2  522   0.546   1.566   0.447
  168SOL     OW  523   1.709   0.385   1.381
  168SOL    HW1  524   1.782   0.454   1.385
  168SOL    HW2  525   1.737   0.310   1.322
  169SOL     OW  526   0.255   1.348   0.290
  169SOL    HW1  527   0.159   1.349   0.263
  169SOL    HW2  528   0.267   1.401   0.374
  170SOL     OW  529   0.105   1.013   1.726
  170SOL    HW1  530   0.028   0.980   1.780
  170SOL    HW2  531   0.190   0.983   1.768
  171SOL     OW  532   0.672   0.203   1.489
  171SOL    HW1  533   0.762   0.187   1.449
  171SOL    HW2  534   0.680   0.208   1.588
  172SOL     OW  535   0.075   0.345   0.033
  172SOL    HW1  536  -0.017   0.317   0.004
  172SOL    HW2  537   0.106   0.422  -0.023
  173SOL     OW  538   1.440   0.856   1.398
  173SOL    HW1  539   1.383   0.908   1.335
  173SOL    HW2  540   1.536   0.868   1.374
  174SOL     OW  541   0.072   0.166   0.318
  174SOL    HW1  542   0.055   0.249   0.264
  174SOL    HW2  543   0.162   0.129   0.296
  175SOL     OW  544   1.183   1.335   0.119
  175SOL    HW1  545   1.084   1.324   0.121
  175SOL    HW2  546   1.217   1.350   0.212
  176SOL     OW  547   0.613   0.842   1.431
  176SOL    HW1  548   0.669   0.923   1.414
  176SOL    HW2  549   0.672   0.762   1.434
  177SOL     OW  550   1.493   1.767   0.959
  177SOL    HW1  551   1.526   1.831   0.890
  177SOL    HW2  552   1.559   1.761   1.034
  178SOL     OW  553   0.716   0.565   1.708
  178SOL    HW1  554   0.735   0.630   1.782
  178SOL    HW2  555   0.776   0.485   1.717
  179SOL     OW  556   1.450   1.220   1.633
  179SOL    HW1  557   1.441   1.210   1.732
  179SOL    HW2  558   1.546   1.213   1.607
  180SOL     OW  559   0.390   1.741   1.560
  180SOL    HW1  560   0.299   1.782   1.558
  180SOL    HW2  561   0.383   1.647   1.592
  181SOL     OW  562   1.674   0.883   1.254
  181SOL    HW1  563   1.647   0.794   1.217
  181SOL    HW2  564   1.675   0.951   1.181
  182SOL     OW  565   1.225   0.325   0.449
  182SOL    HW1  566   1.290   0.251   0.438
  182SOL    HW2  567   1.245   0.375   0.533
  183SOL     OW  568   0.594   0.745   0.652
  183SOL    HW1  569   0.644   0.830   0.633
  183SOL    HW2  570   0.506   0.747   0.604
  184SOL     OW  571   1.777   0.342   1.642
  184SOL    HW1  572   1.760   0.373   1.548
  184SOL    HW2  573   1.693   0.305   1.680
  185SOL     OW  574   1.730   0.934   1.517
  185SOL    HW1  575   1.768   1.025   1.532
  185SOL    HW2  576   1.722   0.917   1.418
  186SOL     OW  577   0.859   1.374   0.016
  186SOL    HW1  578   0.813   1.389   0.104
  186SOL    HW2  579   0.903   1.459  -0.014
  187SOL     OW  580   0.661   1.790   0.953
  187SOL    HW1  581   0.615   1.878   0.940
  187SOL    HW2  582   0.760   1.802   0.946
  188SOL     OW  583   0.859   0.956   0.861
  188SOL    HW1  584   0.913   0.887   0.909
  188SOL    HW2  585   0.827   1.025   0.927
  189SOL     OW  586   1.083   0.984   0.087
  189SOL    HW1  587   1.060   1.037   0.005
  189SOL    HW2  588   1.164   0.928   0.068
  190SOL     OW  589   1.861   1.569   0.851
  190SOL    HW1  590   1.790   1.557   0.781
  190SOL    HW2  591   1.862   1.490   0.911
  191SOL     OW  592   0.221   1.314   1.844
  191SOL    HW1  593   0.156   1.241   1.823
  191SOL    HW2  594   0.225   1.328   1.942
  192SOL     OW  595   0.079   1.240   0.653
  192SOL    HW1  596   0.078   1.193   0.741
  192SOL    HW2  597   0.161   1.212   0.602
  193SOL     OW  598   0.672   1.391   1.624
  193SOL    HW1  599   0.594   1.341   1.662
  193SOL    HW2  600   0.669   1.486   1.655
  194SOL     OW  601   1.824   0.192   1.227
  194SOL    HW1  602   1.820   0.102   1.271
  194SOL    HW2  603   1.827   0.181   1.128
  195SOL     OW  604   0.428   0.424   0.520
  195SOL    HW1  605   0.458   0.352   0.458
  195SOL    HW2  606   0.389   0.384   0.603
  196SOL     OW  607   0.317   0.547   1.280
  196SOL    HW1  608   0.355   0.488   1.352
  196SOL    HW2  609   0.357   0.521   1.192
  197SOL     OW  610   0.812   1.586   0.687
  197SOL    HW1  611   0.844   1.596   0.593
  197SOL    HW2  612   0.733   1.524   0.689
  198SOL     OW  613   1.424   0.214   1.112
  198SOL    HW1  614   1.476   0.149   1.167
  198SOL    HW2  615   1.375   0.277   1.173
  199SOL     OW  616   1.001   0.034   1.154
  199SOL    HW1  617   0.938  -0.038   1.123
  199SOL    HW2  618   1.094  -0.002   1.154
  200SOL     OW  619   0.770   1.330   0.301
  200SOL    HW1  620   0.724   1.243   0.318
  200SOL    HW2  621   0.861   1.327   0.342
  201SOL     OW  622   0.618   1.567   1.284
  201SOL    HW1  623   0.613   1.649   1.341
  201SOL    HW2  624   0.707   1.564   1.239
  202SOL     OW  625   1.352   0.052   0.168
  202SOL    HW1  626   1.387   0.011   0.084
  202SOL    HW2  627   1.262   0.014   0.188
  203SOL     OW  628   1.300   0.453   0.691
  203SOL    HW1  629   1.241   0.533   0.695
  203SOL    HW2  630   1.315   0.418   0.784
  204SOL     OW  631   1.593   0.221   0.882
  204SOL    HW1  632   1.509   0.220   0.936
  204SOL    HW2  633   1.595   0.304   0.826
  205SOL     OW  634   0.039   1.077   0.300
  205SOL    HW1  635   0.138   1.066   0.291
  205SOL    HW2  636  -0.001   0.991   0.332
  206SOL     OW  637   0.875   1.646   0.337
  206SOL    HW1  638   0.798   1.611   0.283
  206SOL    HW2  639   0.843   1.717   0.399
  207SOL     OW  640   0.230   0.628   1.975
  207SOL    HW1  641   0.137   0.626   2.012
  207SOL    HW2  642   0.231   0.589   1.883
  208SOL     OW  643   0.019   0.368   2.509
  208SOL    HW1  644  -0.063   0.411   2.548
  208SOL    HW2  645  -0.009   0.295   2.446
  209SOL     OW  646   1.555   1.511   2.565
  209SOL    HW1  647   1.498   1.495   2.646
  209SOL    HW2  648   1.496   1.521   2.485
  210SOL     OW  649   1.135   0.703   2.579
  210SOL    HW1  650   1.192   0.781   2.554
  210SOL    HW2  651   1.075   0.729   2.655
  211SOL     OW  652   1.755   0.607   2.093
  211SOL    HW1  653   1.743   0.594   1.994
  211SOL    HW2  654   1.725   0.526   2.142
  212SOL     OW  655   0.685   1.012   2.527
  212SOL    HW1  656   0.754   0.996   2.597
  212SOL    HW2  657   0.612   1.069   2.565
  213SOL     OW  658   1.603   0.447   2.599
  213SOL    HW1  659   1.529   0.493   2.549
  213SOL    HW2  660   1.654   0.515   2.652
  214SOL     OW  661   0.231   1.713   2.345
  214SOL    HW1  662   0.265   1.790   2.399
  214SOL    HW2  663   0.275   1.713   2.255
  215SOL     OW  664   0.230   1.434   2.400
  215SOL    HW1  665   0.204   1.530   2.400
  215SOL    HW2  666   0.159   1.380   2.445
  216SOL     OW  667   0.240   1.091   2.748
  216SOL    HW1  668   0.254   1.007   2.800
  216SOL    HW2  669   0.185   1.155   2.803
  217SOL     OW  670   0.606   0.964   1.985
  217SOL    HW1  671   0.613   1.048   1.931
  217SOL    HW2  672   0.652   0.977   2.073
  218SOL     OW  673   0.122   0.643   2.425
  218SOL    HW1  674   0.077   0.555   2.442
  218SOL    HW2  675   0.121   0.697   2.509
  219SOL     OW  676   1.842   1.767   2.221
  219SOL    HW1  677   1.896   1.738   2.301
  219SOL    HW2  678   1.872   1.857   2.192
  220SOL     OW  679   0.027   1.596   1.979
  220SOL    HW1  680   0.008   1.500   2.000
  220SOL    HW2  681  -0.006   1.654   2.054
  221SOL     OW  682   1.689   0.922   2.474
  221SOL    HW1  683   1.784   0.893   2.482
  221SOL    HW2  684   1.681   0.987   2.399
  222SOL     OW  685   1.641   1.108   2.294
  222SOL    HW1  686   1.727   1.110   2.242
  222SOL    HW2  687   1.655   1.155   2.382
  223SOL     OW  688   0.613   1.365   2.588
  223SOL    HW1  689   0.564   1.278   2.597
  223SOL    HW2  690   0.590   1.408   2.501
  224SOL     OW  691   0.809   0.004   2.364
  224SOL    HW1  692   0.849   0.095   2.355
  224SOL    HW2  693   0.709   0.012   2.370
  225SOL     OW  694   1.525   0.999   2.052
  225SOL    HW1  695   1.462   0.923   2.065
  225SOL    HW2  696   1.573   1.017   2.138
  226SOL     OW  697   1.466   1.417   2.815
  226SOL    HW1  698   1.407   1.423   2.895
  226SOL    HW2  699   1.451   1.329   2.769
  227SOL     OW  700   1.667   1.714   2.434
  227SOL    HW1  701   1.626   1.691   2.346
  227SOL    HW2  702   1.649   1.640   2.499
  228SOL     OW  703   0.598   0.729   2.132
  228SOL    HW1  704   0.622   0.798   2.064
  228SOL    HW2  705   0.520   0.762   2.186
  229SOL     OW  706   1.281   0.345   2.806
  229SOL    HW1  707   1.195   0.295   2.793
  229SOL    HW2  708   1.343   0.291   2.862
  230SOL     OW  709   1.576   1.662   2.169
  230SOL    HW1  710   1.665   1.708   2.172
  230SOL    HW2  711   1.555   1.638   2.074
  231SOL     OW  712   1.041   0.701   2.291
  231SOL    HW1  713   1.067   0.697   2.387
  231SOL    HW2  714   0.956   0.650   2.277
  232SOL     OW  715   0.076   0.811   2.651
  232SOL    HW1  716   0.175   0.799   2.660
  232SOL    HW2  717   0.052   0.906   2.672
  233SOL     OW  718   0.865   0.348   2.057
  233SOL    HW1  719   0.924   0.411   2.008
  233SOL    HW2  720   0.884   0.254   2.028
  234SOL     OW  721   1.362   1.144   2.407
  234SOL    HW1  722   1.445   1.115   2.359
  234SOL    HW2  723   1.313   1.211   2.351
  235SOL     OW  724   1.008   1.456   2.339
  235SOL    HW1  725   0.962   1.528   2.287
  235SOL    HW2  726   1.004   1.476   2.437
  236SOL     OW  727   0.351   1.801   2.715
  236SOL    HW1  728   0.401   1.715   2.721
  236SOL    HW2  729   0.416   1.878   2.712
  237SOL     OW  730   1.795   1.066   2.735
  237SOL    HW1  731   1.733   1.051   2.659
  237SOL    HW2  732   1.743   1.077   2.820
  238SOL     OW  733   0.321   0.943   2.104
  238SOL    HW1  734   0.403   0.982   2.062
  238SOL    HW2  735   0.294   0.861   2.055
  239SOL     OW  736   1.458   0.735   2.590
  239SOL    HW1  737   1.453   0.670   2.665
  239SOL    HW2  738   1.538   0.794   2.603
  240SOL     OW  739   1.111   1.776   2.099
  240SOL    HW1  740   1.051   1.714   2.149
  240SOL    HW2  741   1.142   1.732   2.014
  241SOL     OW  742   1.632   1.377   1.943
  241SOL    HW1  743   1.600   1.471   1.933
  241SOL    HW2  744   1.556   1.314   1.931
  242SOL     OW  745   0.464   1.743   2.185
  242SOL    HW1  746   0.497   1.782   2.271
  242SOL    HW2  747   0.540   1.736   2.120
  243SOL     OW  748   1.400   0.107   2.288
  243SOL    HW1  749   1.376   0.070   2.198
  243SOL    HW2  750   1.499   0.123   2.292
  244SOL     OW  751   0.382   0.700   2.342
  244SOL    HW1  752   0.427   0.610   2.339
  244SOL    HW2  753   0.288   0.689   2.375
  245SOL     OW  754   0.614   0.122   1.979
  245SOL    HW1  755   0.712   0.100   1.986
  245SOL    HW2  756   0.583   0.105   1.886
  246SOL     OW  757   0.539   0.064   2.374
  246SOL    HW1  758   0.458   0.065   2.432
  246SOL    HW2  759   0.542   0.147   2.319
  247SOL     OW  760   1.434   1.188   1.903
  247SOL    HW1  761   1.466   1.112   1.960
  247SOL    HW2  762   1.342   1.215   1.933
  248SOL     OW  763   0.297   0.035   2.033
  248SOL    HW1  764   0.346   0.119   2.012
  248SOL    HW2  765   0.359  -0.030   2.078
  249SOL     OW  766   0.935   0.236   2.342
  249SOL    HW1  767   0.887   0.277   2.264
  249SOL    HW2  768   1.034   0.234   2.323
  250SOL     OW  769   0.459   1.152   2.603
  250SOL    HW1  770   0.388   1.125   2.668
  250SOL    HW2  771   0.433   1.124   2.510
  251SOL     OW  772   1.271   1.797   2.453
  251SOL    HW1  773   1.315   1.861   2.389
  251SOL    HW2  774   1.221   1.849   2.523
  252SOL     OW  775   1.032   0.549   1.878
  252SOL    HW1  776   0.991   0.631   1.839
  252SOL    HW2  777   1.096   0.575   1.951
  253SOL     OW  778   0.866   0.454   2.504
  253SOL    HW1  779   0.834   0.526   2.442
  253SOL    HW2  780   0.890   0.373   2.451
  254SOL     OW  781   1.017   0.039   2.615
  254SOL    HW1  782   0.945   0.044   2.546
  254SOL    HW2  783   0.993  -0.030   2.684
  255SOL     OW  784   1.857   0.833   2.239
  255SOL    HW1  785   1.899   0.769   2.303
  255SOL    HW2  786   1.819   0.782   2.161
  256SOL     OW  787   0.488   1.385   2.036
  256SOL    HW1  788   0.401   1.370   2.083
  256SOL    HW2  789   0.471   1.411   1.941
  257SOL     OW  790   1.664   1.280   2.519
  257SOL    HW1  791   1.763   1.288   2.533
  257SOL    HW2  792   1.619   1.364   2.550
  258SOL     OW  793   1.390   0.575   1.940
  258SOL    HW1  794   1.336   0.554   2.021
  258SOL    HW2  795   1.481   0.534   1.949
  259SOL     OW  796   0.527   0.256   2.190
  259SOL    HW1  797   0.554   0.197   2.115
  259SOL    HW2  798   0.527   0.351   2.159
  260SOL     OW  799   0.705   1.050   2.230
  260SOL    HW1  800   0.691   1.057   2.329
  260SOL    HW2  801   0.789   0.999   2.212
  261SOL     OW  802   0.367   1.100   2.363
  261SOL    HW1  803   0.360   1.183   2.307
  261SOL    HW2  804   0.371   1.020   2.303
  262SOL     OW  805   0.566   0.537   2.727
  262SOL    HW1  806   0.578   0.603   2.653
  262SOL    HW2  807   0.612   0.571   2.810
  263SOL     OW  808   1.252   1.348   2.250
  263SOL    HW1  809   1.302   1.425   2.290
  263SOL    HW2  810   1.157   1.350   2.282
  264SOL     OW  811   1.582   0.639   2.334
  264SOL    HW1  812   1.551   0.700   2.407
  264SOL    HW2  813   1.632   0.691   2.265
  265SOL     OW  814   1.209   0.525   2.137
  265SOL    HW1  815   1.222   0.441   2.191
  265SOL    HW2  816   1.180   0.599   2.197
  266SOL     OW  817   0.732   0.634   2.926
  266SOL    HW1  818   0.791   0.608   2.850
  266SOL    HW2  819   0.704   0.730   2.915
  267SOL     OW  820   0.307   0.063   2.480
  267SOL    HW1  821   0.296   0.157   2.513
  267SOL    HW2  822   0.302   0.000   2.557
  268SOL     OW  823   1.622   0.367   2.236
  268SOL    HW1  824   1.624   0.291   2.300
  268SOL    HW2  825   1.574   0.444   2.276
  269SOL     OW  826   1.540   0.274   1.987
  269SOL    HW1  827   1.479   0.199   2.010
  269SOL    HW2  828   1.562   0.326   2.070
  270SOL     OW  829   1.303   0.838   1.904
  270SOL    HW1  830   1.337   0.745   1.919
  270SOL    HW2  831   1.321   0.865   1.809
  271SOL     OW  832   1.068   1.333   2.711
  271SOL    HW1  833   1.075   1.249   2.656
  271SOL    HW2  834   1.130   1.402   2.675
  272SOL     OW  835   0.008   1.326   2.062
  272SOL    HW1  836  -0.085   1.347   2.031
  272SOL    HW2  837   0.018   1.227   2.075
  273SOL     OW  838   0.088   1.801   2.789
  273SOL    HW1  839   0.046   1.715   2.762
  273SOL    HW2  840   0.182   1.804   2.755
  274SOL     OW  841   0.504   1.568   2.772
  274SOL    HW1  842   0.570   1.642   2.781
  274SOL    HW2  843   0.548   1.489   2.730
  275SOL     OW  844   0.815   0.572   2.187
  275SOL    HW1  845   0.822   0.483   2.141
  275SOL    HW2  846   0.721   0.606   2.179
  276SOL     OW  847   0.473   0.500   2.053
  276SOL    HW1  848   0.534   0.580   2.057
  276SOL    HW2  849   0.378   0.531   2.060
  277SOL     OW  850   1.302   0.855   2.171
  277SOL    HW1  851   1.216   0.824   2.213
  277SOL    HW2  852   1.298   0.841   2.072
  278SOL     OW  853   1.726   0.135   2.385
  278SOL    HW1  854   1.799   0.118   2.318
  278SOL    HW2  855   1.695   0.048   2.423
  279SOL     OW  856   1.388   1.573   2.339
  279SOL    HW1  857   1.455   1.585   2.265
  279SOL    HW2  858   1.348   1.662   2.362
  280SOL     OW  859   1.280   0.927   2.534
  280SOL    HW1  860   1.340   0.846   2.536
  280SOL    HW2  861   1.320   0.996   2.474
  281SOL     OW  862   0.672   1.616   2.016
  281SOL    HW1  863   0.681   1.626   1.917
  281SOL    HW2  864   0.632   1.527   2.037
  282SOL     OW  865   1.841   0.175   2.825
  282SOL    HW1  866   1.880   0.090   2.789
  282SOL    HW2  867   1.743   0.177   2.806
  283SOL     OW  868   0.263   0.326   2.582
  283SOL    HW1  869   0.184   0.377   2.548
  283SOL    HW2  870   0.254   0.311   2.680
  284SOL     OW  871   1.194   1.612   1.893
  284SOL    HW1  872   1.200   1.519   1.930
  284SOL    HW2  873   1.135   1.612   1.813
  285SOL     OW  874   0.916   0.910   2.153
  285SOL    HW1  875   0.979   0.948   2.085
  285SOL    HW2  876   0.956   0.827   2.192
  286SOL     OW  877   1.504   1.607   1.906
  286SOL    HW1  878   1.412   1.644   1.913
  286SOL    HW2  879   1.542   1.627   1.816
  287SOL     OW  880   1.039   1.098   2.558
  287SOL    HW1  881   0.969   1.051   2.612
  287SOL    HW2  882   1.098   1.030   2.515
  288SOL     OW  883   0.590   1.487   2.353
  288SOL    HW1  884   0.632   1.429   2.283
  288SOL    HW2  885   0.546   1.566   2.309
  289SOL     OW  886   0.255   1.348   2.152
  289SOL    HW1  887   0.159   1.349   2.125
  289SOL    HW2  888   0.267   1.401   2.236
  290SOL     OW  889   0.075   0.345   1.895
  290SOL    HW1  890  -0.017   0.317   1.866
  290SOL    HW2  891   0.106   0.422   1.839
  291SOL     OW  892   0.072   0.166   2.180
  291SOL    HW1  893   0.055   0.249   2.126
  291SOL    HW2  894   0.162   0.129   2.158
  292SOL     OW  895   1.183   1.335   1.981
  292SOL    HW1  896   1.084   1.324   1.983
  292SOL    HW2  897   1.217   1.350   2.074
  293SOL     OW  898   1.225   0.325   2.311
  293SOL    HW1  899   1.290   0.251   2.300
  293SOL    HW2  900   1.245   0.375   2.395
  294SOL     OW  901   0.594   0.745   2.514
  294SOL    HW1  902   0.644   0.830   2.495
  294SOL    HW2  903   0.506   0.747   2.466
  295SOL     OW  904   0.859   1.374   1.878
  295SOL    HW1  905   0.813   1.389   1.966
  295SOL    HW2  906   0.903   1.459   1.848
  296SOL     OW  907   0.661   1.790   2.815
  296SOL    HW1  908   0.615   1.878   2.802
  296SOL    HW2  909   0.760   1.802   2.808
  297SOL     OW  910   0.859   0.956   2.723
  297SOL    HW1  911   0.913   0.887   2.771
  297SOL    HW2  912   0.827   1.025   2.789
  298SOL     OW  913   1.083   0.984   1.949
  298SOL    HW1  914   1.060   1.037   1.867
  298SOL    HW2  915   1.164   0.928   1.930
  299SOL     OW  916   1.861   1.569   2.713
  299SOL    HW1  917   1.790   1.557   2.643
  299SOL    HW2  918   1.862   1.490   2.773
  300SOL     OW  919   0.079   1.240   2.515
  300SOL    HW1  920   0.078   1.193   2.603
  300SOL    HW2  921   0.161   1.212   2.464
  301SOL     OW  922   1.824   0.192   3.089
  301SOL    HW1  923   1.820   0.102   3.133
  301SOL    HW2  924   1.827   0.181   2.990
  302SOL     OW  925   0.428   0.424   2.382
  302SOL    HW1  926   0.458   0.352   2.320
  302SOL    HW2  927   0.389   0.384   2.465
  303SOL     OW  928   0.812   1.586   2.549
  303SOL    HW1  929   0.844   1.596   2.455
  303SOL    HW2  930   0.733   1.524   2.551
  304SOL     OW  931   0.770   1.330   2.163
  304SOL    HW1  932   0.724   1.243   2.180
  304SOL    HW2  933   0.861   1.327   2.204
  305SOL     OW  934   1.352   0.052   2.030
  305SOL    HW1  935   1.387   0.011   1.946
  305SOL    HW2  936   1.262   0.014   2.050
  306SOL     OW  937   1.300   0.453   2.553
  306SOL    HW1  938   1.241   0.533   2.557
  306SOL    HW2  939   1.315   0.418   2.646
  307SOL     OW  940   1.593   0.221   2.744
  307SOL    HW1  941   1.509   0.220   2.798
  307SOL    HW2  942   1.595   0.304   2.688
  308SOL     OW  943   0.039   1.077   2.162
  308SOL    HW1  944   0.138   1.066   2.153
  308SOL    HW2  945  -0.001   0.991   2.194
  309SOL     OW  946   0.875   1.646   2.199
  309SOL    HW1  947   0.798   1.611   2.145
  309SOL    HW2  948   0.843   1.717   2.261
  310SOL     OW  949   0.230   2.490   0.113
  310SOL    HW1  950   0.137   2.488   0.150
  310SOL    HW2  951   0.231   2.451   0.021
  311SOL     OW  952   0.225   2.137   0.996
  311SOL    HW1  953   0.260   2.120   1.088
  311SOL    HW2  954   0.137   2.092   0.984
  312SOL     OW  955   0.019   2.230   0.647
  312SOL    HW1  956  -0.063   2.273   0.686
  312SOL    HW2  957  -0.009   2.157   0.584
  313SOL     OW  958   1.135   2.565   0.717
  313SOL    HW1  959   1.192   2.643   0.692
  313SOL    HW2  960   1.075   2.591   0.793
  314SOL     OW  961   1.755   2.469   0.231
  314SOL    HW1  962   1.743   2.456   0.132
  314SOL    HW2  963   1.725   2.388   0.280
  315SOL     OW  964   0.850   2.660   1.823
  315SOL    HW1  965   0.846   2.736   1.888
  315SOL    HW2  966   0.872   2.696   1.732
  316SOL     OW  967   0.685   2.874   0.665
  316SOL    HW1  968   0.754   2.858   0.735
  316SOL    HW2  969   0.612   2.931   0.703
  317SOL     OW  970   0.438   2.254   1.499
  317SOL    HW1  971   0.520   2.198   1.508
  317SOL    HW2  972   0.357   2.196   1.503
  318SOL     OW  973   1.603   2.309   0.737
  318SOL    HW1  974   1.529   2.355   0.687
  318SOL    HW2  975   1.654   2.377   0.790
  319SOL     OW  976   1.594   1.976   1.480
  319SOL    HW1  977   1.576   2.043   1.408
  319SOL    HW2  978   1.591   2.022   1.569
  320SOL     OW  979   0.122   2.505   0.563
  320SOL    HW1  980   0.077   2.417   0.580
  320SOL    HW2  981   0.121   2.559   0.647
  321SOL     OW  982   0.113   2.599   1.597
  321SOL    HW1  983   0.201   2.586   1.642
  321SOL    HW2  984   0.100   2.696   1.575
  322SOL     OW  985   0.809   1.866   0.502
  322SOL    HW1  986   0.849   1.957   0.493
  322SOL    HW2  987   0.709   1.874   0.508
  323SOL     OW  988   0.317   2.113   1.801
  323SOL    HW1  989   0.388   2.184   1.807
  323SOL    HW2  990   0.229   2.152   1.829
  324SOL     OW  991   0.598   2.591   0.270
  324SOL    HW1  992   0.622   2.660   0.202
  324SOL    HW2  993   0.520   2.624   0.324
  325SOL     OW  994   1.281   2.207   0.944
  325SOL    HW1  995   1.195   2.157   0.931
  325SOL    HW2  996   1.343   2.153   1.000
  326SOL     OW  997   0.807   2.467   1.465
  326SOL    HW1  998   0.760   2.464   1.554
  326SOL    HW2  999   0.756   2.412   1.399
  327SOL     OW 1000   1.394   2.331   1.674
  327SOL    HW1 1001   1.374   2.374   1.762
  327SOL    HW2 1002   1.472   2.269   1.683
  328SOL     OW 1003   0.973   2.752   1.572
  328SOL    HW1 1004   1.019   2.668   1.543
  328SOL    HW2 1005   0.917   2.786   1.497
  329SOL     OW 1006   0.991   2.272   1.242
  329SOL    HW1 1007   0.914   2.306   1.296
  329SOL    HW2 1008   0.957   2.221   1.163
  330SOL     OW 1009   1.041   2.563   0.429
  330SOL    HW1 1010   1.067   2.559   0.525
  330SOL    HW2 1011   0.956   2.512   0.415
  331SOL     OW 1012   0.076   2.673   0.789
  331SOL    HW1 1013   0.175   2.661   0.798
  331SOL    HW2 1014   0.052   2.768   0.810
  332SOL     OW 1015   0.865   2.210   0.195
  332SOL    HW1 1016   0.924   2.273   0.146
  332SOL    HW2 1017   0.884   2.116   0.166
  333SOL     OW 1018   1.719   2.447   1.831
  333SOL    HW1 1019   1.693   2.536   1.795
  333SOL    HW2 1020   1.717   2.379   1.758
  334SOL     OW 1021   0.550   2.058   0.885
  334SOL    HW1 1022   0.545   2.053   0.985
  334SOL    HW2 1023   0.552   2.154   0.856
  335SOL     OW 1024   1.458   2.597   0.728
  335SOL    HW1 1025   1.453   2.532   0.803
  335SOL    HW2 1026   1.538   2.656   0.741
  336SOL     OW 1027   0.202   2.147   1.498
  336SOL    HW1 1028   0.122   2.207   1.485
  336SOL    HW2 1029   0.192   2.098   1.584
  337SOL     OW 1030   1.400   1.969   0.426
  337SOL    HW1 1031   1.376   1.932   0.336
  337SOL    HW2 1032   1.499   1.985   0.430
  338SOL     OW 1033   0.382   2.562   0.480
  338SOL    HW1 1034   0.427   2.472   0.477
  338SOL    HW2 1035   0.288   2.551   0.513
  339SOL     OW 1036   1.547   2.084   1.729
  339SOL    HW1 1037   1.542   2.121   1.821
  339SOL    HW2 1038   1.475   2.015   1.717
  340SOL     OW 1039   0.781   2.126   1.749
  340SOL    HW1 1040   0.848   2.065   1.792
  340SOL    HW2 1041   0.708   2.145   1.814
  341SOL     OW 1042   1.351   2.452   1.433
  341SOL    HW1 1043   1.379   2.409   1.518
  341SOL    HW2 1044   1.376   2.548   1.434
  342SOL     OW 1045   0.922   2.365   0.899
  342SOL    HW1 1046   0.897   2.356   0.803
  342SOL    HW2 1047   0.970   2.283   0.930
  343SOL     OW 1048   0.539   1.926   0.512
  343SOL    HW1 1049   0.458   1.927   0.570
  343SOL    HW2 1050   0.542   2.009   0.457
  344SOL     OW 1051   0.297   1.897   0.171
  344SOL    HW1 1052   0.346   1.981   0.150
  344SOL    HW2 1053   0.359   1.832   0.216
  345SOL     OW 1054   0.935   2.098   0.480
  345SOL    HW1 1055   0.887   2.139   0.402
  345SOL    HW2 1056   1.034   2.096   0.461
  346SOL     OW 1057   1.076   2.545   1.464
  346SOL    HW1 1058   0.996   2.484   1.467
  346SOL    HW2 1059   1.157   2.492   1.440
  347SOL     OW 1060   1.032   2.411   0.016
  347SOL    HW1 1061   0.991   2.493  -0.023
  347SOL    HW2 1062   1.096   2.437   0.089
  348SOL     OW 1063   0.078   2.418   1.386
  348SOL    HW1 1064   0.170   2.417   1.345
  348SOL    HW2 1065   0.072   2.492   1.453
  349SOL     OW 1066   0.561   2.084   1.147
  349SOL    HW1 1067   0.599   2.000   1.184
  349SOL    HW2 1068   0.473   2.103   1.191
  350SOL     OW 1069   0.866   2.316   0.642
  350SOL    HW1 1070   0.834   2.388   0.580
  350SOL    HW2 1071   0.890   2.235   0.589
  351SOL     OW 1072   1.017   1.901   0.753
  351SOL    HW1 1073   0.945   1.906   0.684
  351SOL    HW2 1074   0.993   1.832   0.822
  352SOL     OW 1075   1.466   2.452   0.992
  352SOL    HW1 1076   1.436   2.357   0.999
  352SOL    HW2 1077   1.539   2.468   1.058
  353SOL     OW 1078   1.857   2.695   0.377
  353SOL    HW1 1079   1.899   2.631   0.441
  353SOL    HW2 1080   1.819   2.644   0.299
  354SOL     OW 1081   1.390   2.437   0.078
  354SOL    HW1 1082   1.336   2.416   0.159
  354SOL    HW2 1083   1.481   2.396   0.087
  355SOL     OW 1084   0.527   2.118   0.328
  355SOL    HW1 1085   0.554   2.059   0.253
  355SOL    HW2 1086   0.527   2.213   0.297
  356SOL     OW 1087   0.915   1.951   1.402
  356SOL    HW1 1088   0.940   1.931   1.307
  356SOL    HW2 1089   0.987   2.007   1.444
  357SOL     OW 1090   0.410   2.675   1.251
  357SOL    HW1 1091   0.496   2.687   1.301
  357SOL    HW2 1092   0.368   2.588   1.278
  358SOL     OW 1093   1.274   2.248   1.262
  358SOL    HW1 1094   1.295   2.322   1.326
  358SOL    HW2 1095   1.185   2.265   1.219
  359SOL     OW 1096   0.566   2.399   0.865
  359SOL    HW1 1097   0.578   2.465   0.791
  359SOL    HW2 1098   0.612   2.433   0.948
  360SOL     OW 1099   1.582   2.501   0.472
  360SOL    HW1 1100   1.551   2.562   0.545
  360SOL    HW2 1101   1.632   2.553   0.403
  361SOL     OW 1102   0.402   2.613   1.598
  361SOL    HW1 1103   0.470   2.668   1.551
  361SOL    HW2 1104   0.442   2.525   1.625
  362SOL     OW 1105   1.587   2.641   1.670
  362SOL    HW1 1106   1.495   2.679   1.665
  362SOL    HW2 1107   1.647   2.688   1.605
  363SOL     OW 1108   1.013   1.967   1.770
  363SOL    HW1 1109   1.019   2.052   1.718
  363SOL    HW2 1110   1.045   1.891   1.713
  364SOL     OW 1111   0.504   1.912   1.740
  364SOL    HW1 1112   0.462   1.855   1.670
  364SOL    HW2 1113   0.438   1.981   1.772
  365SOL     OW 1114   0.573   2.732   1.029
  365SOL    HW1 1115   0.617   2.821   1.020
  365SOL    HW2 1116   0.510   2.732   1.106
  366SOL     OW 1117   1.360   2.724   1.045
  366SOL    HW1 1118   1.285   2.724   0.979
  366SOL    HW2 1119   1.397   2.632   1.054
  367SOL     OW 1120   1.209   2.387   0.275
  367SOL    HW1 1121   1.222   2.303   0.329
  367SOL    HW2 1122   1.180   2.461   0.335
  368SOL     OW 1123   0.307   2.075   1.231
  368SOL    HW1 1124   0.284   2.112   1.321
  368SOL    HW2 1125   0.277   1.980   1.225
  369SOL     OW 1126   0.732   2.496   1.064
  369SOL    HW1 1127   0.791   2.470   0.988
  369SOL    HW2 1128   0.704   2.592   1.053
  370SOL     OW 1129   1.728   2.797   1.854
  370SOL    HW1 1130   1.682   2.790   1.765
  370SOL    HW2 1131   1.666   2.841   1.920
  371SOL     OW 1132   0.307   1.925   0.618
  371SOL    HW1 1133   0.296   2.019   0.651
  371SOL    HW2 1134   0.302   1.862   0.695
  372SOL     OW 1135   1.622   2.229   0.374
  372SOL    HW1 1136   1.624   2.153   0.438
  372SOL    HW2 1137   1.574   2.306   0.414
  373SOL     OW 1138   1.023   2.628   0.966
  373SOL    HW1 1139   1.038   2.649   1.062
  373SOL    HW2 1140   0.993   2.533   0.957
  374SOL     OW 1141   1.540   2.136   0.125
  374SOL    HW1 1142   1.479   2.061   0.148
  374SOL    HW2 1143   1.562   2.188   0.208
  375SOL     OW 1144   1.303   2.700   0.042
  375SOL    HW1 1145   1.337   2.607   0.057
  375SOL    HW2 1146   1.321   2.727  -0.053
  376SOL     OW 1147   0.319   2.672   0.949
  376SOL    HW1 1148   0.412   2.708   0.954
  376SOL    HW2 1149   0.313   2.587   1.001
  377SOL     OW 1150   0.339   2.371   1.006
  377SOL    HW1 1151   0.287   2.288   0.989
  377SOL    HW2 1152   0.416   2.376   0.942
  378SOL     OW 1153   1.138   2.242   1.678
  378SOL    HW1 1154   1.093   2.305   1.742
  378SOL    HW2 1155   1.231   2.273   1.661
  379SOL     OW 1156   1.160   2.069   1.477
  379SOL    HW1 1157   1.160   2.133   1.554
  379SOL    HW2 1158   1.188   2.117   1.394
  380SOL     OW 1159   1.002   2.658   1.238
  380SOL    HW1 1160   1.043   2.626   1.324
  380SOL    HW2 1161   0.906   2.631   1.235
  381SOL     OW 1162   0.040   2.406   1.114
  381SOL    HW1 1163   0.125   2.373   1.073
  381SOL    HW2 1164   0.053   2.421   1.212
  382SOL     OW 1165   0.189   2.382   1.722
  382SOL    HW1 1166   0.248   2.342   1.652
  382SOL    HW2 1167   0.131   2.453   1.681
  383SOL     OW 1168   0.815   2.434   0.325
  383SOL    HW1 1169   0.822   2.345   0.279
  383SOL    HW2 1170   0.721   2.468   0.317
  384SOL     OW 1171   1.657   2.466   1.206
  384SOL    HW1 1172   1.619   2.397   1.268
  384SOL    HW2 1173   1.739   2.430   1.162
  385SOL     OW 1174   0.671   2.326   1.269
  385SOL    HW1 1175   0.637   2.237   1.239
  385SOL    HW2 1176   0.697   2.380   1.189
  386SOL     OW 1177   0.473   2.362   0.191
  386SOL    HW1 1178   0.534   2.442   0.195
  386SOL    HW2 1179   0.378   2.393   0.198
  387SOL     OW 1180   1.302   2.717   0.309
  387SOL    HW1 1181   1.216   2.686   0.351
  387SOL    HW2 1182   1.298   2.703   0.210
  388SOL     OW 1183   0.903   1.948   0.133
  388SOL    HW1 1184   0.954   1.949   0.047
  388SOL    HW2 1185   0.959   1.906   0.204
  389SOL     OW 1186   1.726   1.997   0.523
  389SOL    HW1 1187   1.799   1.980   0.456
  389SOL    HW2 1188   1.695   1.910   0.561
  390SOL     OW 1189   1.280   2.789   0.672
  390SOL    HW1 1190   1.340   2.708   0.674
  390SOL    HW2 1191   1.320   2.858   0.612
  391SOL     OW 1192   1.841   2.037   0.963
  391SOL    HW1 1193   1.880   1.952   0.927
  391SOL    HW2 1194   1.743   2.039   0.944
  392SOL     OW 1195   0.263   2.188   0.720
  392SOL    HW1 1196   0.184   2.239   0.686
  392SOL    HW2 1197   0.254   2.173   0.818
  393SOL     OW 1198   1.014   2.098   0.971
  393SOL    HW1 1199   1.006   2.062   0.878
  393SOL    HW2 1200   1.012   2.022   1.036
  394SOL     OW 1201   1.709   2.247   1.381
  394SOL    HW1 1202   1.782   2.316   1.385
  394SOL    HW2 1203   1.737   2.172   1.322
  395SOL     OW 1204   0.105   2.875   1.726
  395SOL    HW1 1205   0.028   2.842   1.780
  395SOL    HW2 1206   0.190   2.845   1.768
  396SOL     OW 1207   0.672   2.065   1.489
  396SOL    HW1 1208   0.762   2.049   1.449
  396SOL    HW2 1209   0.680   2.070   1.588
  397SOL     OW 1210   0.075   2.207   0.033
  397SOL    HW1 1211  -0.017   2.179   0.004
  397SOL    HW2 1212   0.106   2.284  -0.023
  398SOL     OW 1213   1.440   2.718   1.398
  398SOL    HW1 1214   1.383   2.770   1.335
  398SOL    HW2 1215   1.536   2.730   1.374
  399SOL     OW 1216   0.072   2.028   0.318
  399SOL    HW1 1217   0.055   2.111   0.264
  399SOL    HW2 1218   0.162   1.991   0.296
  400SOL     OW 1219   0.613   2.704   1.431
  400SOL    HW1 1220   0.669   2.785   1.414
  400SOL    HW2 1221   0.672   2.624   1.434
  401SOL     OW 1222   0.716   2.427   1.708
  401SOL    HW1 1223   0.735   2.492   1.782
  401SOL    HW2 1224   0.776   2.347   1.717
  402SOL     OW 1225   1.674   2.745   1.254
  402SOL    HW1 1226   1.647   2.656   1.217
  402SOL    HW2 1227   1.675   2.813   1.181
  403SOL     OW 1228   1.225   2.187   0.449
  403SOL    HW1 1229   1.290   2.113   0.438
  403SOL    HW2 1230   1.245   2.237   0.533
  404SOL     OW 1231   0.594   2.607   0.652
  404SOL    HW1 1232   0.644   2.692   0.633
  404SOL    HW2 1233   0.506   2.609   0.604
  405SOL     OW 1234   1.777   2.204   1.642
  405SOL    HW1 1235   1.760   2.235   1.548
  405SOL    HW2 1236   1.693   2.167   1.680
  406SOL     OW 1237   1.730   2.796   1.517
  406SOL    HW1 1238   1.768   2.887   1.532
  406SOL    HW2 1239   1.722   2.779   1.418
  407SOL     OW 1240   1.824   2.054   1.227
  407SOL    HW1 1241   1.820   1.964   1.271
  407SOL    HW2 1242   1.827   2.043   1.128
  408SOL     OW 1243   0.428   2.286   0.520
  408SOL    HW1 1244   0.458   2.214   0.458
  408SOL    HW2 1245   0.389   2.246   0.603
  409SOL     OW 1246   0.317   2.409   1.280
  409SOL    HW1 1247   0.355   2.350   1.352
  409SOL    HW2 1248   0.357   2.383   1.192
  410SOL     OW 1249   1.424   2.076   1.112
  410SOL    HW1 1250   1.476   2.011   1.167
  410SOL    HW2 1251   1.375   2.139   1.173
  411SOL     OW 1252   1.001   1.896   1.154
  411SOL    HW1 1253   0.938   1.824   1.123
  411SOL    HW2 1254   1.094   1.860   1.154
  412SOL     OW 1255   1.352   1.914   0.168
  412SOL    HW1 1256   1.387   1.873   0.084
  412SOL    HW2 1257   1.262   1.876   0.188
  413SOL     OW 1258   1.300   2.315   0.691
  413SOL    HW1 1259   1.241   2.395   0.695
  413SOL    HW2 1260   1.315   2.280   0.784
  414SOL     OW 1261   1.593   2.083   0.882
  414SOL    HW1 1262   1.509   2.082   0.936
  414SOL    HW2 1263   1.595   2.166   0.826
  415SOL     OW 1264   0.230   2.490   1.975
  415SOL    HW1 1265   0.137   2.488   2.012
  415SOL    HW2 1266   0.231   2.451   1.883
  416SOL     OW 1267   0.019   2.230   2.509
  416SOL    HW1 1268  -0.063   2.273   2.548
  416SOL    HW2 1269  -0.009   2.157   2.446
  417SOL     OW 1270   1.135   2.565   2.579
  417SOL    HW1 1271   1.192   2.643   2.554
  417SOL    HW2 1272   1.075   2.591   2.655
  418SOL     OW 1273   1.755   2.469   2.093
  418SOL    HW1 1274   1.743   2.456   1.994
  418SOL    HW2 1275   1.725   2.388   2.142
  419SOL     OW 1276   0.685   2.874   2.527
  419SOL    HW1 1277   0.754   2.858   2.597
  419SOL    HW2 1278   0.612   2.931   2.565
  420SOL     OW 1279   1.603   2.309   2.599
  420SOL    HW1 1280   1.529   2.355   2.549
  420SOL    HW2 1281   1.654   2.377   2.652
  421SOL     OW 1282   0.240   2.953   2.748
  421SOL    HW1 1283   0.254   2.869   2.800
  421SOL    HW2 1284   0.185   3.017   2.803
  422SOL     OW 1285   0.122   2.505   2.425
  422SOL    HW1 1286   0.077   2.417   2.442
  422SOL    HW2 1287   0.121   2.559   2.509
  423SOL     OW 1288   0.809   1.866   2.364
  423SOL    HW1 1289   0.849   1.957   2.355
  423SOL    HW2 1290   0.709   1.874   2.370
  424SOL     OW 1291   0.598   2.591   2.132
  424SOL    HW1 1292   0.622   2.660   2.064
  424SOL    HW2 1293   0.520   2.624   2.186
  425SOL     OW 1294   1.281   2.207   2.806
  425SOL    HW1 1295   1.195   2.157   2.793
  425SOL    HW2 1296   1.343   2.153   2.862
  426SOL     OW 1297   1.041   2.563   2.291
  426SOL    HW1 1298   1.067   2.559   2.387
  426SOL    HW2 1299   0.956   2.512   2.277
  427SOL     OW 1300   0.076   2.673   2.651
  427SOL    HW1 1301   0.175   2.661   2.660
  427SOL    HW2 1302   0.052   2.768   2.672
  428SOL     OW 1303   0.865   2.210   2.057
  428SOL    HW1 1304   0.924   2.273   2.008
  428SOL    HW2 1305   0.884   2.116   2.028
  429SOL     OW 1306   0.550   2.058   2.747
  429SOL    HW1 1307   0.545   2.053   2.847
  429SOL    HW2 1308   0.552   2.154   2.718
  430SOL     OW 1309   1.458   2.597   2.590
  430SOL    HW1 1310   1.453   2.532   2.665
  430SOL    HW2 1311   1.538   2.656   2.603
  431SOL     OW 1312   1.400   1.969   2.288
  431SOL    HW1 1313   1.376   1.932   2.198
  431SOL    HW2 1314   1.499   1.985   2.292
  432SOL     OW 1315   0.382   2.562   2.342
  432SOL    HW1 1316   0.427   2.472   2.339
  432SOL    HW2 1317   0.288   2.551   2.375
  433SOL     OW 1318   0.614   1.984   1.979
  433SOL    HW1 1319   0.712   1.962   1.986
  433SOL    HW2 1320   0.583   1.967   1.886
  434SOL     OW 1321   0.539   1.926   2.374
  434SOL    HW1 1322   0.458   1.927   2.432
  434SOL    HW2 1323   0.542   2.009   2.319
  435SOL     OW 1324   0.297   1.897   2.033
  435SOL    HW1 1325   0.346   1.981   2.012
  435SOL    HW2 1326   0.359   1.832   2.078
  436SOL     OW 1327   0.935   2.098   2.342
  436SOL    HW1 1328   0.887   2.139   2.264
  436SOL    HW2 1329   1.034   2.096   2.323
  437SOL     OW 1330   1.032   2.411   1.878
  437SOL    HW1 1331   0.991   2.493   1.839
  437SOL    HW2 1332   1.096   2.437   1.951
  438SOL     OW 1333   0.866   2.316   2.504
  438SOL    HW1 1334   0.834   2.388   2.442
  438SOL    HW2 1335   0.890   2.235   2.451
  439SOL     OW 1336   1.017   1.901   2.615
  439SOL    HW1 1337   0.945   1.906   2.546
  439SOL    HW2 1338   0.993   1.832   2.684
  440SOL     OW 1339   1.857   2.695   2.239
  440SOL    HW1 1340   1.899   2.631   2.303
  440SOL    HW2 1341   1.819   2.644   2.161
  441SOL     OW 1342   1.390   2.437   1.940
  441SOL    HW1 1343   1.336   2.416   2.021
  441SOL    HW2 1344   1.481   2.396   1.949
  442SOL     OW 1345   0.527   2.118   2.190
  442SOL    HW1 1346   0.554   2.059   2.115
  442SOL    HW2 1347   0.527   2.213   2.159
  443SOL     OW 1348   1.111   3.057   2.962
  443SOL    HW1 1349   1.071   3.101   3.043
  443SOL    HW2 1350   1.070   3.094   2.879
  444SOL     OW 1351   0.566   2.399   2.727
  444SOL    HW1 1352   0.578   2.465   2.653
  444SOL    HW2 1353   0.612   2.433   2.810
  445SOL     OW 1354   1.582   2.501   2.334
  445SOL    HW1 1355   1.551   2.562   2.407
  445SOL    HW2 1356   1.632   2.553   2.265
  446SOL     OW 1357   1.209   2.387   2.137
  446SOL    HW1 1358   1.222   2.303   2.191
  446SOL    HW2 1359   1.180   2.461   2.197
  447SOL     OW 1360   0.732   2.496   2.926
  447SOL    HW1 1361   0.791   2.470   2.850
  447SOL    HW2 1362   0.704   2.592   2.915
  448SOL     OW 1363   0.307   1.925   2.480
  448SOL    HW1 1364   0.296   2.019   2.513
  448SOL    HW2 1365   0.302   1.862   2.557
  449SOL     OW 1366   1.622   2.229   2.236
  449SOL    HW1 1367   1.624   2.153   2.300
  449SOL    HW2 1368   1.574   2.306   2.276
  450SOL     OW 1369   1.540   2.136   1.987
  450SOL    HW1 1370   1.479   2.061   2.010
  450SOL    HW2 1371   1.562   2.188   2.070
  451SOL     OW 1372   1.303   2.700   1.904
  451SOL    HW1 1373   1.337   2.607   1.919
  451SOL    HW2 1374   1.321   2.727   1.809
  452SOL     OW 1375   0.815   2.434   2.187
  452SOL    HW1 1376   0.822   2.345   2.141
  452SOL    HW2 1377   0.721   2.468   2.179
  453SOL     OW 1378   0.473   2.362   2.053
  453SOL    HW1 1379   0.534   2.442   2.057
  453SOL    HW2 1380   0.378   2.393   2.060
  454SOL     OW 1381   1.302   2.717   2.171
  454SOL    HW1 1382   1.216   2.686   2.213
  454SOL    HW2 1383   1.298   2.703   2.072
  455SOL     OW 1384   1.726   1.997   2.385
  455SOL    HW1 1385   1.799   1.980   2.318
  455SOL    HW2 1386   1.695   1.910   2.423
  456SOL     OW 1387   1.280   2.789   2.534
  456SOL    HW1 1388   1.340   2.708   2.536
  456SOL    HW2 1389   1.320   2.858   2.474
  457SOL     OW 1390   1.841   2.037   2.825
  457SOL    HW1 1391   1.880   1.952   2.789
  457SOL    HW2 1392   1.743   2.039   2.806
  458SOL     OW 1393   0.263   2.188   2.582
  458SOL    HW1 1394   0.184   2.239   2.548
  458SOL    HW2 1395   0.254   2.173   2.680
  459SOL     OW 1396   0.916   2.772   2.153
  459SOL    HW1 1397   0.979   2.810   2.085
  459SOL    HW2 1398   0.956   2.689   2.192
  460SOL     OW 1399   0.075   2.207   1.895
  460SOL    HW1 1400  -0.017   2.179   1.866
  460SOL    HW2 1401   0.106   2.284   1.839
  461SOL     OW 1402   0.072   2.028   2.180
  461SOL    HW1 1403   0.055   2.111   2.126
  461SOL    HW2 1404   0.162   1.991   2.158
  462SOL     OW 1405   1.674   2.745   3.116
  462SOL    HW1 1406   1.647   2.656   3.079
  462SOL    HW2 1407   1.675   2.813   3.043
  463SOL     OW 1408   1.225   2.187   2.311
  463SOL    HW1 1409   1.290   2.113   2.300
  463SOL    HW2 1410   1.245   2.237   2.395
  464SOL     OW 1411   0.594   2.607   2.514
  464SOL    HW1 1412   0.644   2.692   2.495
  464SOL    HW2 1413   0.506   2.609   2.466
  465SOL     OW 1414   0.428   2.286   2.382
  465SOL    HW1 1415   0.458   2.214   2.320
  465SOL    HW2 1416   0.389   2.246   2.465
  466SOL     OW 1417   1.352   1.914   2.030
  466SOL    HW1 1418   1.387   1.873   1.946
  466SOL    HW2 1419   1.262   1.876   2.050
  467SOL     OW 1420   1.300   2.315   2.553
  467SOL    HW1 1421   1.241   2.395   2.557
  467SOL    HW2 1422   1.315   2.280   2.646
  468SOL     OW 1423   1.593   2.083   2.744
  468SOL    HW1 1424   1.509   2.082   2.798
  468SOL    HW2 1425   1.595   2.166   2.688
  469SOL     OW 1426   2.092   0.628   0.113
  469SOL    HW1 1427   1.999   0.626   0.150
  469SOL    HW2 1428   2.093   0.589   0.021
  470SOL     OW 1429   2.087   0.275   0.996
  470SOL    HW1 1430   2.122   0.258   1.088
  470SOL    HW2 1431   1.999   0.230   0.984
  471SOL     OW 1432   1.881   0.368   0.647
  471SOL    HW1 1433   1.799   0.411   0.686
  471SOL    HW2 1434   1.853   0.295   0.584
  472SOL     OW 1435   2.431   1.275   1.165
  472SOL    HW1 1436   2.338   1.268   1.128
  472SOL    HW2 1437   2.442   1.364   1.209
  473SOL     OW 1438   2.630   1.144   1.023
  473SOL    HW1 1439   2.552   1.161   1.083
  473SOL    HW2 1440   2.664   1.231   0.987
  474SOL     OW 1441   2.712   0.798   1.823
  474SOL    HW1 1442   2.708   0.874   1.888
  474SOL    HW2 1443   2.734   0.834   1.732
  475SOL     OW 1444   2.547   1.012   0.665
  475SOL    HW1 1445   2.616   0.996   0.735
  475SOL    HW2 1446   2.474   1.069   0.703
  476SOL     OW 1447   2.548   1.161   1.803
  476SOL    HW1 1448   2.608   1.240   1.817
  476SOL    HW2 1449   2.462   1.192   1.762
  477SOL     OW 1450   2.197   1.435   1.061
  477SOL    HW1 1451   2.119   1.404   1.008
  477SOL    HW2 1452   2.255   1.493   1.004
  478SOL     OW 1453   2.300   0.392   1.499
  478SOL    HW1 1454   2.382   0.336   1.508
  478SOL    HW2 1455   2.219   0.334   1.503
  479SOL     OW 1456   2.093   1.713   0.483
  479SOL    HW1 1457   2.127   1.790   0.537
  479SOL    HW2 1458   2.137   1.713   0.393
  480SOL     OW 1459   2.092   1.434   0.538
  480SOL    HW1 1460   2.066   1.530   0.538
  480SOL    HW2 1461   2.021   1.380   0.583
  481SOL     OW 1462   2.102   1.091   0.886
  481SOL    HW1 1463   2.116   1.007   0.938
  481SOL    HW2 1464   2.047   1.155   0.941
  482SOL     OW 1465   2.482   1.786   1.439
  482SOL    HW1 1466   2.390   1.769   1.474
  482SOL    HW2 1467   2.510   1.878   1.465
  483SOL     OW 1468   2.468   0.964   0.123
  483SOL    HW1 1469   2.475   1.048   0.069
  483SOL    HW2 1470   2.514   0.977   0.211
  484SOL     OW 1471   1.984   0.643   0.563
  484SOL    HW1 1472   1.939   0.555   0.580
  484SOL    HW2 1473   1.983   0.697   0.647
  485SOL     OW 1474   1.889   1.596   0.117
  485SOL    HW1 1475   1.870   1.500   0.138
  485SOL    HW2 1476   1.856   1.654   0.192
  486SOL     OW 1477   1.975   0.737   1.597
  486SOL    HW1 1478   2.063   0.724   1.642
  486SOL    HW2 1479   1.962   0.834   1.575
  487SOL     OW 1480   2.475   1.365   0.726
  487SOL    HW1 1481   2.426   1.278   0.735
  487SOL    HW2 1482   2.452   1.408   0.639
  488SOL     OW 1483   2.671   0.004   0.502
  488SOL    HW1 1484   2.711   0.095   0.493
  488SOL    HW2 1485   2.571   0.012   0.508
  489SOL     OW 1486   2.059   0.976   1.264
  489SOL    HW1 1487   2.148   0.931   1.250
  489SOL    HW2 1488   1.986   0.911   1.245
  490SOL     OW 1489   2.179   0.251   1.801
  490SOL    HW1 1490   2.250   0.322   1.807
  490SOL    HW2 1491   2.091   0.290   1.829
  491SOL     OW 1492   2.460   0.729   0.270
  491SOL    HW1 1493   2.484   0.798   0.202
  491SOL    HW2 1494   2.382   0.762   0.324
  492SOL     OW 1495   2.669   0.605   1.465
  492SOL    HW1 1496   2.622   0.602   1.554
  492SOL    HW2 1497   2.618   0.550   1.399
  493SOL     OW 1498   1.938   0.811   0.789
  493SOL    HW1 1499   2.037   0.799   0.798
  493SOL    HW2 1500   1.914   0.906   0.810
  494SOL     OW 1501   1.992   1.821   1.571
  494SOL    HW1 1502   1.982   1.806   1.670
  494SOL    HW2 1503   1.906   1.857   1.535
  495SOL     OW 1504   2.727   0.348   0.195
  495SOL    HW1 1505   2.786   0.411   0.146
  495SOL    HW2 1506   2.746   0.254   0.166
  496SOL     OW 1507   2.412   0.196   0.885
  496SOL    HW1 1508   2.407   0.191   0.985
  496SOL    HW2 1509   2.414   0.292   0.856
  497SOL     OW 1510   2.870   1.456   0.477
  497SOL    HW1 1511   2.824   1.528   0.425
  497SOL    HW2 1512   2.866   1.476   0.575
  498SOL     OW 1513   2.213   1.801   0.853
  498SOL    HW1 1514   2.263   1.715   0.859
  498SOL    HW2 1515   2.278   1.878   0.850
  499SOL     OW 1516   2.183   0.943   0.242
  499SOL    HW1 1517   2.265   0.982   0.200
  499SOL    HW2 1518   2.156   0.861   0.193
  500SOL     OW 1519   2.323   1.266   1.727
  500SOL    HW1 1520   2.273   1.267   1.641
  500SOL    HW2 1521   2.260   1.248   1.803
  501SOL     OW 1522   2.973   1.776   0.237
  501SOL    HW1 1523   2.913   1.714   0.287
  501SOL    HW2 1524   3.004   1.732   0.152
  502SOL     OW 1525   2.064   0.285   1.498
  502SOL    HW1 1526   1.984   0.345   1.485
  502SOL    HW2 1527   2.054   0.236   1.584
  503SOL     OW 1528   2.326   1.743   0.323
  503SOL    HW1 1529   2.359   1.782   0.409
  503SOL    HW2 1530   2.402   1.736   0.258
  504SOL     OW 1531   2.111   1.785   1.241
  504SOL    HW1 1532   2.168   1.720   1.291
  504SOL    HW2 1533   2.095   1.752   1.148
  505SOL     OW 1534   2.244   0.700   0.480
  505SOL    HW1 1535   2.289   0.610   0.477
  505SOL    HW2 1536   2.150   0.689   0.513
  506SOL     OW 1537   2.476   0.122   0.117
  506SOL    HW1 1538   2.574   0.100   0.124
  506SOL    HW2 1539   2.445   0.105   0.024
  507SOL     OW 1540   2.643   0.264   1.749
  507SOL    HW1 1541   2.710   0.203   1.792
  507SOL    HW2 1542   2.570   0.283   1.814
  508SOL     OW 1543   2.665   1.402   0.924
  508SOL    HW1 1544   2.755   1.416   0.882
  508SOL    HW2 1545   2.594   1.404   0.853
  509SOL     OW 1546   2.784   0.503   0.899
  509SOL    HW1 1547   2.759   0.494   0.803
  509SOL    HW2 1548   2.832   0.421   0.930
  510SOL     OW 1549   2.401   0.064   0.512
  510SOL    HW1 1550   2.320   0.065   0.570
  510SOL    HW2 1551   2.404   0.147   0.457
  511SOL     OW 1552   2.159   0.035   0.171
  511SOL    HW1 1553   2.208   0.119   0.150
  511SOL    HW2 1554   2.221  -0.030   0.216
  512SOL     OW 1555   2.321   1.152   0.741
  512SOL    HW1 1556   2.250   1.125   0.806
  512SOL    HW2 1557   2.295   1.124   0.648
  513SOL     OW 1558   1.940   0.556   1.386
  513SOL    HW1 1559   2.032   0.555   1.345
  513SOL    HW2 1560   1.934   0.630   1.453
  514SOL     OW 1561   2.423   0.222   1.147
  514SOL    HW1 1562   2.461   0.138   1.184
  514SOL    HW2 1563   2.335   0.241   1.191
  515SOL     OW 1564   2.350   1.385   0.174
  515SOL    HW1 1565   2.263   1.370   0.221
  515SOL    HW2 1566   2.333   1.411   0.079
  516SOL     OW 1567   2.389   0.256   0.328
  516SOL    HW1 1568   2.416   0.197   0.253
  516SOL    HW2 1569   2.389   0.351   0.297
  517SOL     OW 1570   2.777   0.089   1.402
  517SOL    HW1 1571   2.802   0.069   1.307
  517SOL    HW2 1572   2.849   0.145   1.444
  518SOL     OW 1573   2.567   1.050   0.368
  518SOL    HW1 1574   2.553   1.057   0.467
  518SOL    HW2 1575   2.651   0.999   0.350
  519SOL     OW 1576   2.272   0.813   1.251
  519SOL    HW1 1577   2.358   0.825   1.301
  519SOL    HW2 1578   2.230   0.726   1.278
  520SOL     OW 1579   1.926   1.564   1.331
  520SOL    HW1 1580   1.880   1.646   1.297
  520SOL    HW2 1581   2.024   1.583   1.340
  521SOL     OW 1582   2.229   1.100   0.501
  521SOL    HW1 1583   2.222   1.183   0.445
  521SOL    HW2 1584   2.233   1.020   0.441
  522SOL     OW 1585   2.428   0.537   0.865
  522SOL    HW1 1586   2.440   0.603   0.791
  522SOL    HW2 1587   2.474   0.571   0.948
  523SOL     OW 1588   2.216   1.510   1.329
  523SOL    HW1 1589   2.195   1.466   1.242
  523SOL    HW2 1590   2.313   1.536   1.332
  524SOL     OW 1591   2.264   0.751   1.598
  524SOL    HW1 1592   2.332   0.806   1.551
  524SOL    HW2 1593   2.304   0.663   1.625
  525SOL     OW 1594   2.366   0.050   1.740
  525SOL    HW1 1595   2.324  -0.007   1.670
  525SOL    HW2 1596   2.300   0.119   1.772
  526SOL     OW 1597   2.435   0.870   1.029
  526SOL    HW1 1598   2.479   0.959   1.020
  526SOL    HW2 1599   2.372   0.870   1.106
  527SOL     OW 1600   2.169   0.213   1.231
  527SOL    HW1 1601   2.146   0.250   1.321
  527SOL    HW2 1602   2.139   0.118   1.225
  528SOL     OW 1603   1.899   1.310   1.282
  528SOL    HW1 1604   1.952   1.261   1.350
  528SOL    HW2 1605   1.921   1.408   1.287
  529SOL     OW 1606   2.594   0.634   1.064
  529SOL    HW1 1607   2.653   0.608   0.988
  529SOL    HW2 1608   2.566   0.730   1.053
  530SOL     OW 1609   2.169   0.063   0.618
  530SOL    HW1 1610   2.158   0.157   0.651
  530SOL    HW2 1611   2.164   0.000   0.695
  531SOL     OW 1612   2.885   0.766   0.966
  531SOL    HW1 1613   2.900   0.787   1.062
  531SOL    HW2 1614   2.855   0.671   0.957
  532SOL     OW 1615   2.842   1.573   1.700
  532SOL    HW1 1616   2.822   1.617   1.612
  532SOL    HW2 1617   2.881   1.482   1.684
  533SOL     OW 1618   2.212   0.898   1.804
  533SOL    HW1 1619   2.288   0.942   1.852
  533SOL    HW2 1620   2.247   0.851   1.722
  534SOL     OW 1621   2.181   0.810   0.949
  534SOL    HW1 1622   2.274   0.846   0.954
  534SOL    HW2 1623   2.175   0.725   1.001
  535SOL     OW 1624   2.201   0.509   1.006
  535SOL    HW1 1625   2.149   0.426   0.989
  535SOL    HW2 1626   2.278   0.514   0.942
  536SOL     OW 1627   1.870   1.326   0.200
  536SOL    HW1 1628   1.777   1.347   0.169
  536SOL    HW2 1629   1.880   1.227   0.213
  537SOL     OW 1630   1.950   1.801   0.927
  537SOL    HW1 1631   1.908   1.715   0.900
  537SOL    HW2 1632   2.044   1.804   0.893
  538SOL     OW 1633   2.366   1.568   0.910
  538SOL    HW1 1634   2.432   1.642   0.919
  538SOL    HW2 1635   2.410   1.489   0.868
  539SOL     OW 1636   1.902   0.544   1.114
  539SOL    HW1 1637   1.987   0.511   1.073
  539SOL    HW2 1638   1.915   0.559   1.212
  540SOL     OW 1639   2.051   0.520   1.722
  540SOL    HW1 1640   2.110   0.480   1.652
  540SOL    HW2 1641   1.993   0.591   1.681
  541SOL     OW 1642   2.677   0.572   0.325
  541SOL    HW1 1643   2.684   0.483   0.279
  541SOL    HW2 1644   2.583   0.606   0.317
  542SOL     OW 1645   2.114   1.564   1.744
  542SOL    HW1 1646   2.084   1.621   1.820
  542SOL    HW2 1647   2.107   1.467   1.770
  543SOL     OW 1648   2.533   0.464   1.269
  543SOL    HW1 1649   2.499   0.375   1.239
  543SOL    HW2 1650   2.559   0.518   1.189
  544SOL     OW 1651   2.335   0.500   0.191
  544SOL    HW1 1652   2.396   0.580   0.195
  544SOL    HW2 1653   2.240   0.531   0.198
  545SOL     OW 1654   2.021   1.137   1.466
  545SOL    HW1 1655   2.043   1.076   1.542
  545SOL    HW2 1656   2.031   1.088   1.380
  546SOL     OW 1657   1.945   1.258   1.022
  546SOL    HW1 1658   1.940   1.257   1.122
  546SOL    HW2 1659   1.862   1.217   0.984
  547SOL     OW 1660   2.550   1.662   1.716
  547SOL    HW1 1661   2.494   1.743   1.725
  547SOL    HW2 1662   2.602   1.666   1.630
  548SOL     OW 1663   2.765   0.086   0.133
  548SOL    HW1 1664   2.816   0.087   0.047
  548SOL    HW2 1665   2.821   0.044   0.204
  549SOL     OW 1666   1.992   1.794   1.851
  549SOL    HW1 1667   1.951   1.720   1.904
  549SOL    HW2 1668   2.056   1.845   1.909
  550SOL     OW 1669   2.692   1.273   1.422
  550SOL    HW1 1670   2.687   1.306   1.517
  550SOL    HW2 1671   2.606   1.292   1.376
  551SOL     OW 1672   2.534   1.616   0.154
  551SOL    HW1 1673   2.543   1.626   0.055
  551SOL    HW2 1674   2.494   1.527   0.175
  552SOL     OW 1675   2.125   0.326   0.720
  552SOL    HW1 1676   2.046   0.377   0.686
  552SOL    HW2 1677   2.116   0.311   0.818
  553SOL     OW 1678   3.056   1.612   0.031
  553SOL    HW1 1679   3.062   1.519   0.068
  553SOL    HW2 1680   2.997   1.612  -0.049
  554SOL     OW 1681   2.684   1.002   1.372
  554SOL    HW1 1682   2.724   1.001   1.280
  554SOL    HW2 1683   2.694   1.094   1.412
  555SOL     OW 1684   2.234   1.288   1.490
  555SOL    HW1 1685   2.221   1.381   1.456
  555SOL    HW2 1686   2.150   1.236   1.477
  556SOL     OW 1687   2.452   1.487   0.491
  556SOL    HW1 1688   2.494   1.429   0.421
  556SOL    HW2 1689   2.408   1.566   0.447
  557SOL     OW 1690   2.117   1.348   0.290
  557SOL    HW1 1691   2.021   1.349   0.263
  557SOL    HW2 1692   2.129   1.401   0.374
  558SOL     OW 1693   1.967   1.013   1.726
  558SOL    HW1 1694   1.890   0.980   1.780
  558SOL    HW2 1695   2.052   0.983   1.768
  559SOL     OW 1696   2.534   0.203   1.489
  559SOL    HW1 1697   2.624   0.187   1.449
  559SOL    HW2 1698   2.542   0.208   1.588
  560SOL     OW 1699   2.475   0.842   1.431
  560SOL    HW1 1700   2.531   0.923   1.414
  560SOL    HW2 1701   2.534   0.762   1.434
  561SOL     OW 1702   2.578   0.565   1.708
  561SOL    HW1 1703   2.597   0.630   1.782
  561SOL    HW2 1704   2.638   0.485   1.717
  562SOL     OW 1705   2.252   1.741   1.560
  562SOL    HW1 1706   2.161   1.782   1.558
  562SOL    HW2 1707   2.245   1.647   1.592
  563SOL     OW 1708   2.456   0.745   0.652
  563SOL    HW1 1709   2.506   0.830   0.633
  563SOL    HW2 1710   2.368   0.747   0.604
  564SOL     OW 1711   2.523   1.790   0.953
  564SOL    HW1 1712   2.477   1.878   0.940
  564SOL    HW2 1713   2.622   1.802   0.946
  565SOL     OW 1714   2.721   0.956   0.861
  565SOL    HW1 1715   2.775   0.887   0.909
  565SOL    HW2 1716   2.689   1.025   0.927
  566SOL     OW 1717   2.083   1.314   1.844
  566SOL    HW1 1718   2.018   1.241   1.823
  566SOL    HW2 1719   2.087   1.328   1.942
  567SOL     OW 1720   1.941   1.240   0.653
  567SOL    HW1 1721   1.940   1.193   0.741
  567SOL    HW2 1722   2.023   1.212   0.602
  568SOL     OW 1723   2.534   1.391   1.624
  568SOL    HW1 1724   2.456   1.341   1.662
  568SOL    HW2 1725   2.531   1.486   1.655
  569SOL     OW 1726   2.290   0.424   0.520
  569SOL    HW1 1727   2.320   0.352   0.458
  569SOL    HW2 1728   2.251   0.384   0.603
  570SOL     OW 1729   2.179   0.547   1.280
  570SOL    HW1 1730   2.217   0.488   1.352
  570SOL    HW2 1731   2.219   0.521   1.192
  571SOL     OW 1732   2.674   1.586   0.687
  571SOL    HW1 1733   2.706   1.596   0.593
  571SOL    HW2 1734   2.595   1.524   0.689
  572SOL     OW 1735   2.863   0.034   1.154
  572SOL    HW1 1736   2.800  -0.038   1.123
  572SOL    HW2 1737   2.956  -0.002   1.154
  573SOL     OW 1738   2.632   1.330   0.301
  573SOL    HW1 1739   2.586   1.243   0.318
  573SOL    HW2 1740   2.723   1.327   0.342
  574SOL     OW 1741   2.480   1.567   1.284
  574SOL    HW1 1742   2.475   1.649   1.341
  574SOL    HW2 1743   2.569   1.564   1.239
  575SOL     OW 1744   1.901   1.077   0.300
  575SOL    HW1 1745   2.000   1.066   0.291
  575SOL    HW2 1746   1.861   0.991   0.332
  576SOL     OW 1747   2.737   1.646   0.337
  576SOL    HW1 1748   2.660   1.611   0.283
  576SOL    HW2 1749   2.705   1.717   0.399
  577SOL     OW 1750   2.092   0.628   1.975
  577SOL    HW1 1751   1.999   0.626   2.012
  577SOL    HW2 1752   2.093   0.589   1.883
  578SOL     OW 1753   2.087   0.275   2.858
  578SOL    HW1 1754   2.122   0.258   2.950
  578SOL    HW2 1755   1.999   0.230   2.846
  579SOL     OW 1756   1.881   0.368   2.509
  579SOL    HW1 1757   1.799   0.411   2.548
  579SOL    HW2 1758   1.853   0.295   2.446
  580SOL     OW 1759   2.630   1.144   2.885
  580SOL    HW1 1760   2.552   1.161   2.945
  580SOL    HW2 1761   2.664   1.231   2.849
  581SOL     OW 1762   2.547   1.012   2.527
  581SOL    HW1 1763   2.616   0.996   2.597
  581SOL    HW2 1764   2.474   1.069   2.565
  582SOL     OW 1765   2.093   1.713   2.345
  582SOL    HW1 1766   2.127   1.790   2.399
  582SOL    HW2 1767   2.137   1.713   2.255
  583SOL     OW 1768   2.092   1.434   2.400
  583SOL    HW1 1769   2.066   1.530   2.400
  583SOL    HW2 1770   2.021   1.380   2.445
  584SOL     OW 1771   2.102   1.091   2.748
  584SOL    HW1 1772   2.116   1.007   2.800
  584SOL    HW2 1773   2.047   1.155   2.803
  585SOL     OW 1774   2.468   0.964   1.985
  585SOL    HW1 1775   2.475   1.048   1.931
  585SOL    HW2 1776   2.514   0.977   2.073
  586SOL     OW 1777   1.984   0.643   2.425
  586SOL    HW1 1778   1.939   0.555   2.442
  586SOL    HW2 1779   1.983   0.697   2.509
  587SOL     OW 1780   1.889   1.596   1.979
  587SOL    HW1 1781   1.870   1.500   2.000
  587SOL    HW2 1782   1.856   1.654   2.054
  588SOL     OW 1783   2.475   1.365   2.588
  588SOL    HW1 1784   2.426   1.278   2.597
  588SOL    HW2 1785   2.452   1.408   2.501
  589SOL     OW 1786   2.671   0.004   2.364
  589SOL    HW1 1787   2.711   0.095   2.355
  589SOL    HW2 1788   2.571   0.012   2.370
  590SOL     OW 1789   2.460   0.729   2.132
  590SOL    HW1 1790   2.484   0.798   2.064
  590SOL    HW2 1791   2.382   0.762   2.186
  591SOL     OW 1792   1.938   0.811   2.651
  591SOL    HW1 1793   2.037   0.799   2.660
  591SOL    HW2 1794   1.914   0.906   2.672
  592SOL     OW 1795   2.727   0.348   2.057
  592SOL    HW1 1796   2.786   0.411   2.008
  592SOL    HW2 1797   2.746   0.254   2.028
  593SOL     OW 1798   2.870   1.456   2.339
  593SOL    HW1 1799   2.824   1.528   2.287
  593SOL    HW2 1800   2.866   1.476   2.437
  594SOL     OW 1801   2.213   1.801   2.715
  594SOL    HW1 1802   2.263   1.715   2.721
  594SOL    HW2 1803   2.278   1.878   2.712
  595SOL     OW 1804   2.183   0.943   2.104
  595SOL    HW1 1805   2.265   0.982   2.062
  595SOL    HW2 1806   2.156   0.861   2.055
  596SOL     OW 1807   2.973   1.776   2.099
  596SOL    HW1 1808   2.913   1.714   2.149
  596SOL    HW2 1809   3.004   1.732   2.014
  597SOL     OW 1810   2.326   1.743   2.185
  597SOL    HW1 1811   2.359   1.782   2.271
  597SOL    HW2 1812   2.402   1.736   2.120
  598SOL     OW 1813   2.244   0.700   2.342
  598SOL    HW1 1814   2.289   0.610   2.339
  598SOL    HW2 1815   2.150   0.689   2.375
  599SOL     OW 1816   2.476   0.122   1.979
  599SOL    HW1 1817   2.574   0.100   1.986
  599SOL    HW2 1818   2.445   0.105   1.886
  600SOL     OW 1819   2.665   1.402   2.786
  600SOL    HW1 1820   2.755   1.416   2.744
  600SOL    HW2 1821   2.594   1.404   2.715
  601SOL     OW 1822   2.401   0.064   2.374
  601SOL    HW1 1823   2.320   0.065   2.432
  601SOL    HW2 1824   2.404   0.147   2.319
  602SOL     OW 1825   2.159   0.035   2.033
  602SOL    HW1 1826   2.208   0.119   2.012
  602SOL    HW2 1827   2.221  -0.030   2.078
  603SOL     OW 1828   2.321   1.152   2.603
  603SOL    HW1 1829   2.250   1.125   2.668
  603SOL    HW2 1830   2.295   1.124   2.510
  604SOL     OW 1831   2.350   1.385   2.036
  604SOL    HW1 1832   2.263   1.370   2.083
  604SOL    HW2 1833   2.333   1.411   1.941
  605SOL     OW 1834   2.389   0.256   2.190
  605SOL    HW1 1835   2.416   0.197   2.115
  605SOL    HW2 1836   2.389   0.351   2.159
  606SOL     OW 1837   2.567   1.050   2.230
  606SOL    HW1 1838   2.553   1.057   2.329
  606SOL    HW2 1839   2.651   0.999   2.212
  607SOL     OW 1840   2.229   1.100   2.363
  607SOL    HW1 1841   2.222   1.183   2.307
  607SOL    HW2 1842   2.233   1.020   2.303
  608SOL     OW 1843   2.428   0.537   2.727
  608SOL    HW1 1844   2.440   0.603   2.653
  608SOL    HW2 1845   2.474   0.571   2.810
  609SOL     OW 1846   2.594   0.634   2.926
  609SOL    HW1 1847   2.653   0.608   2.850
  609SOL    HW2 1848   2.566   0.730   2.915
  610SOL     OW 1849   2.169   0.063   2.480
  610SOL    HW1 1850   2.158   0.157   2.513
  610SOL    HW2 1851   2.164   0.000   2.557
  611SOL     OW 1852   2.885   0.766   2.828
  611SOL    HW1 1853   2.900   0.787   2.924
  611SOL    HW2 1854   2.855   0.671   2.819
  612SOL     OW 1855   1.870   1.326   2.062
  612SOL    HW1 1856   1.777   1.347   2.031
  612SOL    HW2 1857   1.880   1.227   2.075
  613SOL     OW 1858   1.950   1.801   2.789
  613SOL    HW1 1859   1.908   1.715   2.762
  613SOL    HW2 1860   2.044   1.804   2.755
  614SOL     OW 1861   2.366   1.568   2.772
  614SOL    HW1 1862   2.432   1.642   2.781
  614SOL    HW2 1863   2.410   1.489   2.730
  615SOL     OW 1864   2.677   0.572   2.187
  615SOL    HW1 1865   2.684   0.483   2.141
  615SOL    HW2 1866   2.583   0.606   2.179
  616SOL     OW 1867   2.335   0.500   2.053
  616SOL    HW1 1868   2.396   0.580   2.057
  616SOL    HW2 1869   2.240   0.531   2.060
  617SOL     OW 1870   2.765   0.086   1.995
  617SOL    HW1 1871   2.816   0.087   1.909
  617SOL    HW2 1872   2.821   0.044   2.066
  618SOL     OW 1873   2.534   1.616   2.016
  618SOL    HW1 1874   2.543   1.626   1.917
  618SOL    HW2 1875   2.494   1.527   2.037
  619SOL     OW 1876   2.125   0.326   2.582
  619SOL    HW1 1877   2.046   0.377   2.548
  619SOL    HW2 1878   2.116   0.311   2.680
  620SOL     OW 1879   2.452   1.487   2.353
  620SOL    HW1 1880   2.494   1.429   2.283
  620SOL    HW2 1881   2.408   1.566   2.309
  621SOL     OW 1882   2.117   1.348   2.152
  621SOL    HW1 1883   2.021   1.349   2.125
  621SOL    HW2 1884   2.129   1.401   2.236
  622SOL     OW 1885   1.937   0.345   1.895
  622SOL    HW1 1886   1.845   0.317   1.866
  622SOL    HW2 1887   1.968   0.422   1.839
  623SOL     OW 1888   1.934   0.166   2.180
  623SOL    HW1 1889   1.917   0.249   2.126
  623SOL    HW2 1890   2.024   0.129   2.158
  624SOL     OW 1891   2.456   0.745   2.514
  624SOL    HW1 1892   2.506   0.830   2.495
  624SOL    HW2 1893   2.368   0.747   2.466
  625SOL     OW 1894   2.523   1.790   2.815
  625SOL    HW1 1895   2.477   1.878   2.802
  625SOL    HW2 1896   2.622   1.802   2.808
  626SOL     OW 1897   2.721   0.956   2.723
  626SOL    HW1 1898   2.775   0.887   2.771
  626SOL    HW2 1899   2.689   1.025   2.789
  627SOL     OW 1900   1.941   1.240   2.515
  627SOL    HW1 1901   1.940   1.193   2.603
  627SOL    HW2 1902   2.023   1.212   2.464
  628SOL     OW 1903   2.290   0.424   2.382
  628SOL    HW1 1904   2.320   0.352   2.320
  628SOL    HW2 1905   2.251   0.384   2.465
  629SOL     OW 1906   2.674   1.586   2.549
  629SOL    HW1 1907   2.706   1.596   2.455
  629SOL    HW2 1908   2.595   1.524   2.551
  630SOL     OW 1909   2.632   1.330   2.163
  630SOL    HW1 1910   2.586   1.243   2.180
  630SOL    HW2 1911   2.723   1.327   2.204
  631SOL     OW 1912   1.901   1.077   2.162
  631SOL    HW1 1913   2.000   1.066   2.153
  631SOL    HW2 1914   1.861   0.991   2.194
  632SOL     OW 1915   2.737   1.646   2.199
  632SOL    HW1 1916   2.660   1.611   2.145
  632SOL    HW2 1917   2.705   1.717   2.261
  633SOL     OW 1918   2.092   2.490   0.113
  633SOL    HW1 1919   1.999   2.488   0.150
  633SOL    HW2 1920   2.093   2.451   0.021
  634SOL     OW 1921   2.087   2.137   0.996
  634SOL    HW1 1922   2.122   2.120   1.088
  634SOL    HW2 1923   1.999   2.092   0.984
  635SOL     OW 1924   1.881   2.230   0.647
  635SOL    HW1 1925   1.799   2.273   0.686
  635SOL    HW2 1926   1.853   2.157   0.584
  636SOL     OW 1927   2.712   2.660   1.823
  636SOL    HW1 1928   2.708   2.736   1.888
  636SOL    HW2 1929   2.734   2.696   1.732
  637SOL     OW 1930   2.547   2.874   0.665
  637SOL    HW1 1931   2.616   2.858   0.735
  637SOL    HW2 1932   2.474   2.931   0.703
  638SOL     OW 1933   2.300   2.254   1.499
  638SOL    HW1 1934   2.382   2.198   1.508
  638SOL    HW2 1935   2.219   2.196   1.503
  639SOL     OW 1936   1.984   2.505   0.563
  639SOL    HW1 1937   1.939   2.417   0.580
  639SOL    HW2 1938   1.983   2.559   0.647
  640SOL     OW 1939   1.975   2.599   1.597
  640SOL    HW1 1940   2.063   2.586   1.642
  640SOL    HW2 1941   1.962   2.696   1.575
  641SOL     OW 1942   2.671   1.866   0.502
  641SOL    HW1 1943   2.711   1.957   0.493
  641SOL    HW2 1944   2.571   1.874   0.508
  642SOL     OW 1945   2.179   2.113   1.801
  642SOL    HW1 1946   2.250   2.184   1.807
  642SOL    HW2 1947   2.091   2.152   1.829
  643SOL     OW 1948   2.460   2.591   0.270
  643SOL    HW1 1949   2.484   2.660   0.202
  643SOL    HW2 1950   2.382   2.624   0.324
  644SOL     OW 1951   2.669   2.467   1.465
  644SOL    HW1 1952   2.622   2.464   1.554
  644SOL    HW2 1953   2.618   2.412   1.399
  645SOL     OW 1954   1.938   2.673   0.789
  645SOL    HW1 1955   2.037   2.661   0.798
  645SOL    HW2 1956   1.914   2.768   0.810
  646SOL     OW 1957   2.727   2.210   0.195
  646SOL    HW1 1958   2.786   2.273   0.146
  646SOL    HW2 1959   2.746   2.116   0.166
  647SOL     OW 1960   2.412   2.058   0.885
  647SOL    HW1 1961   2.407   2.053   0.985
  647SOL    HW2 1962   2.414   2.154   0.856
  648SOL     OW 1963   2.064   2.147   1.498
  648SOL    HW1 1964   1.984   2.207   1.485
  648SOL    HW2 1965   2.054   2.098   1.584
  649SOL     OW 1966   2.244   2.562   0.480
  649SOL    HW1 1967   2.289   2.472   0.477
  649SOL    HW2 1968   2.150   2.551   0.513
  650SOL     OW 1969   2.643   2.126   1.749
  650SOL    HW1 1970   2.710   2.065   1.792
  650SOL    HW2 1971   2.570   2.145   1.814
  651SOL     OW 1972   2.784   2.365   0.899
  651SOL    HW1 1973   2.759   2.356   0.803
  651SOL    HW2 1974   2.832   2.283   0.930
  652SOL     OW 1975   2.401   1.926   0.512
  652SOL    HW1 1976   2.320   1.927   0.570
  652SOL    HW2 1977   2.404   2.009   0.457
  653SOL     OW 1978   2.159   1.897   0.171
  653SOL    HW1 1979   2.208   1.981   0.150
  653SOL    HW2 1980   2.221   1.832   0.216
  654SOL     OW 1981   1.940   2.418   1.386
  654SOL    HW1 1982   2.032   2.417   1.345
  654SOL    HW2 1983   1.934   2.492   1.453
  655SOL     OW 1984   2.423   2.084   1.147
  655SOL    HW1 1985   2.461   2.000   1.184
  655SOL    HW2 1986   2.335   2.103   1.191
  656SOL     OW 1987   2.389   2.118   0.328
  656SOL    HW1 1988   2.416   2.059   0.253
  656SOL    HW2 1989   2.389   2.213   0.297
  657SOL     OW 1990   2.777   1.951   1.402
  657SOL    HW1 1991   2.802   1.931   1.307
  657SOL    HW2 1992   2.849   2.007   1.444
  658SOL     OW 1993   2.272   2.675   1.251
  658SOL    HW1 1994   2.358   2.687   1.301
  658SOL    HW2 1995   2.230   2.588   1.278
  659SOL     OW 1996   2.428   2.399   0.865
  659SOL    HW1 1997   2.440   2.465   0.791
  659SOL    HW2 1998   2.474   2.433   0.948
  660SOL     OW 1999   2.264   2.613   1.598
  660SOL    HW1 2000   2.332   2.668   1.551
  660SOL    HW2 2001   2.304   2.525   1.625
  661SOL     OW 2002   2.366   1.912   1.740
  661SOL    HW1 2003   2.324   1.855   1.670
  661SOL    HW2 2004   2.300   1.981   1.772
  662SOL     OW 2005   2.435   2.732   1.029
  662SOL    HW1 2006   2.479   2.821   1.020
  662SOL    HW2 2007   2.372   2.732   1.106
  663SOL     OW 2008   2.169   2.075   1.231
  663SOL    HW1 2009   2.146   2.112   1.321
  663SOL    HW2 2010   2.139   1.980   1.225
  664SOL     OW 2011   2.594   2.496   1.064
  664SOL    HW1 2012   2.653   2.470   0.988
  664SOL    HW2 2013   2.566   2.592   1.053
  665SOL     OW 2014   2.169   1.925   0.618
  665SOL    HW1 2015   2.158   2.019   0.651
  665SOL    HW2 2016   2.164   1.862   0.695
  666SOL     OW 2017   2.885   2.628   0.966
  666SOL    HW1 2018   2.900   2.649   1.062
  666SOL    HW2 2019   2.855   2.533   0.957
  667SOL     OW 2020   2.181   2.672   0.949
  667SOL    HW1 2021   2.274   2.708   0.954
  667SOL    HW2 2022   2.175   2.587   1.001
  668SOL     OW 2023   2.201   2.371   1.006
  668SOL    HW1 2024   2.149   2.288   0.989
  668SOL    HW2 2025   2.278   2.376   0.942
  669SOL     OW 2026   2.864   2.658   1.238
  669SOL    HW1 2027   2.905   2.626   1.324
  669SOL    HW2 2028   2.768   2.631   1.235
  670SOL     OW 2029   1.902   2.406   1.114
  670SOL    HW1 2030   1.987   2.373   1.073
  670SOL    HW2 2031   1.915   2.421   1.212
  671SOL     OW 2032   2.051   2.382   1.722
  671SOL    HW1 2033   2.110   2.342   1.652
  671SOL    HW2 2034   1.993   2.453   1.681
  672SOL     OW 2035   2.677   2.434   0.325
  672SOL    HW1 2036   2.684   2.345   0.279
  672SOL    HW2 2037   2.583   2.468   0.317
  673SOL     OW 2038   2.533   2.326   1.269
  673SOL    HW1 2039   2.499   2.237   1.239
  673SOL    HW2 2040   2.559   2.380   1.189
  674SOL     OW 2041   2.335   2.362   0.191
  674SOL    HW1 2042   2.396   2.442   0.195
  674SOL    HW2 2043   2.240   2.393   0.198
  675SOL     OW 2044   2.765   1.948   0.133
  675SOL    HW1 2045   2.816   1.949   0.047
  675SOL    HW2 2046   2.821   1.906   0.204
  676SOL     OW 2047   2.125   2.188   0.720
  676SOL    HW1 2048   2.046   2.239   0.686
  676SOL    HW2 2049   2.116   2.173   0.818
  677SOL     OW 2050   2.901   2.960   0.696
  677SOL    HW1 2051   2.831   2.913   0.750
  677SOL    HW2 2052   2.960   2.892   0.653
  678SOL     OW 2053   1.967   2.875   1.726
  678SOL    HW1 2054   1.890   2.842   1.780
  678SOL    HW2 2055   2.052   2.845   1.768
  679SOL     OW 2056   2.534   2.065   1.489
  679SOL    HW1 2057   2.624   2.049   1.449
  679SOL    HW2 2058   2.542   2.070   1.588
  680SOL     OW 2059   1.934   2.028   0.318
  680SOL    HW1 2060   1.917   2.111   0.264
  680SOL    HW2 2061   2.024   1.991   0.296
  681SOL     OW 2062   2.475   2.704   1.431
  681SOL    HW1 2063   2.531   2.785   1.414
  681SOL    HW2 2064   2.534   2.624   1.434
  682SOL     OW 2065   2.578   2.427   1.708
  682SOL    HW1 2066   2.597   2.492   1.782
  682SOL    HW2 2067   2.638   2.347   1.717
  683SOL     OW 2068   2.456   2.607   0.652
  683SOL    HW1 2069   2.506   2.692   0.633
  683SOL    HW2 2070   2.368   2.609   0.604
  684SOL     OW 2071   2.721   2.818   0.861
  684SOL    HW1 2072   2.775   2.749   0.909
  684SOL    HW2 2073   2.689   2.887   0.927
  685SOL     OW 2074   2.290   2.286   0.520
  685SOL    HW1 2075   2.320   2.214   0.458
  685SOL    HW2 2076   2.251   2.246   0.603
  686SOL     OW 2077   2.179   2.409   1.280
  686SOL    HW1 2078   2.217   2.350   1.352
  686SOL    HW2 2079   2.219   2.383   1.192
  687SOL     OW 2080   2.863   1.896   1.154
  687SOL    HW1 2081   2.800   1.824   1.123
  687SOL    HW2 2082   2.956   1.860   1.154
  688SOL     OW 2083   2.092   2.490   1.975
  688SOL    HW1 2084   1.999   2.488   2.012
  688SOL    HW2 2085   2.093   2.451   1.883
  689SOL     OW 2086   2.087   2.137   2.858
  689SOL    HW1 2087   2.122   2.120   2.950
  689SOL    HW2 2088   1.999   2.092   2.846
  690SOL     OW 2089   1.881   2.230   2.509
  690SOL    HW1 2090   1.799   2.273   2.548
  690SOL    HW2 2091   1.853   2.157   2.446
  691SOL     OW 2092   2.547   2.874   2.527
  691SOL    HW1 2093   2.616   2.858   2.597
  691SOL    HW2 2094   2.474   2.931   2.565
  692SOL     OW 2095   1.984   2.505   2.425
  692SOL    HW1 2096   1.939   2.417   2.442
  692SOL    HW2 2097   1.983   2.559   2.509
  693SOL     OW 2098   2.671   1.866   2.364
  693SOL    HW1 2099   2.711   1.957   2.355
  693SOL    HW2 2100   2.571   1.874   2.370
  694SOL     OW 2101   2.460   2.591   2.132
  694SOL    HW1 2102   2.484   2.660   2.064
  694SOL    HW2 2103   2.382   2.624   2.186
  695SOL     OW 2104   1.938   2.673   2.651
  695SOL    HW1 2105   2.037   2.661   2.660
  695SOL    HW2 2106   1.914   2.768   2.672
  696SOL     OW 2107   2.727   2.210   2.057
  696SOL    HW1 2108   2.786   2.273   2.008
  696SOL    HW2 2109   2.746   2.116   2.028
  697SOL     OW 2110   2.412   2.058   2.747
  697SOL    HW1 2111   2.407   2.053   2.847
  697SOL    HW2 2112   2.414   2.154   2.718
  698SOL     OW 2113   2.244   2.562   2.342
  698SOL    HW1 2114   2.289   2.472   2.339
  698SOL    HW2 2115   2.150   2.551   2.375
  699SOL     OW 2116   2.476   1.984   1.979
  699SOL    HW1 2117   2.574   1.962   1.986
  699SOL    HW2 2118   2.445   1.967   1.886
  700SOL     OW 2119   2.401   1.926   2.374
  700SOL    HW1 2120   2.320   1.927   2.432
  700SOL    HW2 2121   2.404   2.009   2.319
  701SOL     OW 2122   2.159   1.897   2.033
  701SOL    HW1 2123   2.208   1.981   2.012
  701SOL    HW2 2124   2.221   1.832   2.078
  702SOL     OW 2125   2.389   2.118   2.190
  702SOL    HW1 2126   2.416   2.059   2.115
  702SOL    HW2 2127   2.389   2.213   2.159
  703SOL     OW 2128   2.428   2.399   2.727
  703SOL    HW1 2129   2.440   2.465   2.653
  703SOL    HW2 2130   2.474   2.433   2.810
  704SOL     OW 2131   2.594   2.496   2.926
  704SOL    HW1 2132   2.653   2.470   2.850
  704SOL    HW2 2133   2.566   2.592   2.915
  705SOL     OW 2134   2.169   1.925   2.480
  705SOL    HW1 2135   2.158   2.019   2.513
  705SOL    HW2 2136   2.164   1.862   2.557
  706SOL     OW 2137   2.885   2.628   2.828
  706SOL    HW1 2138   2.900   2.649   2.924
  706SOL    HW2 2139   2.855   2.533   2.819
  707SOL     OW 2140   2.677   2.434   2.187
  707SOL    HW1 2141   2.684   2.345   2.141
  707SOL    HW2 2142   2.583   2.468   2.179
  708SOL     OW 2143   2.335   2.362   2.053
  708SOL    HW1 2144   2.396   2.442   2.057
  708SOL    HW2 2145   2.240   2.393   2.060
  709SOL     OW 2146   2.765   1.948   1.995
  709SOL    HW1 2147   2.816   1.949   1.909
  709SOL    HW2 2148   2.821   1.906   2.066
  710SOL     OW 2149   2.125   2.188   2.582
  710SOL    HW1 2150   2.046   2.239   2.548
  710SOL    HW2 2151   2.116   2.173   2.680
  711SOL     OW 2152   2.901   2.960   2.558
  711SOL    HW1 2153   2.831   2.913   2.612
  711SOL    HW2 2154   2.960   2.892   2.515
  712SOL     OW 2155   1.937   2.207   1.895
  712SOL    HW1 2156   1.845   2.179   1.866
  712SOL    HW2 2157   1.968   2.284   1.839
  713SOL     OW 2158   1.934   2.028   2.180
  713SOL    HW1 2159   1.917   2.111   2.126
  713SOL    HW2 2160   2.024   1.991   2.158
  714SOL     OW 2161   2.456   2.607   2.514
  714SOL    HW1 2162   2.506   2.692   2.495
  714SOL    HW2 2163   2.368   2.609   2.466
  715SOL     OW 2164   2.721   2.818   2.723
  715SOL    HW1 2165   2.775   2.749   2.771
  715SOL    HW2 2166   2.689   2.887   2.789
  716SOL     OW 2167   2.290   2.286   2.382
  716SOL    HW1 2168   2.320   2.214   2.320
  716SOL    HW2 2169   2.251   2.246   2.465
   2.82036   2.82036   2.82036
