; mobley_6978427_GMX.itp created by acpype (v: 2023.10.27) on Thu May 14 14:01:07 2026

[ atomtypes ]
;name   bond_type     mass     charge   ptype   sigma         epsilon       Amb
 c        c           0.00000  0.00000   A     3.31521e-01   4.13379e-01 ; 1.86  0.0988
 c6       c6          0.00000  0.00000   A     3.39771e-01   4.51035e-01 ; 1.91  0.1078
 c3       c3          0.00000  0.00000   A     3.39771e-01   4.51035e-01 ; 1.91  0.1078
 o        o           0.00000  0.00000   A     3.04812e-01   6.12119e-01 ; 1.71  0.1463
 os       os          0.00000  0.00000   A     3.15610e-01   3.03758e-01 ; 1.77  0.0726
 hc       hc          0.00000  0.00000   A     2.60018e-01   8.70272e-02 ; 1.46  0.0208
 h1       h1          0.00000  0.00000   A     2.42200e-01   8.70272e-02 ; 1.36  0.0208

[ moleculetype ]
;name            nrexcl
 mobley_6978427   3

[ atoms ]
;   nr  type  resi  res  atom  cgnr     charge      mass       ; qtot   bond_type
     1    c     1   MOL    C1    1     0.632100     12.01000 ; qtot 0.632
     2   c6     1   MOL    C2    2    -0.076400     12.01000 ; qtot 0.556
     3   c6     1   MOL    C3    3    -0.083400     12.01000 ; qtot 0.472
     4   c6     1   MOL    C4    4    -0.083400     12.01000 ; qtot 0.389
     5   c6     1   MOL    C5    5    -0.068900     12.01000 ; qtot 0.320
     6   c6     1   MOL    C6    6    -0.068900     12.01000 ; qtot 0.251
     7   c6     1   MOL    C7    7    -0.102700     12.01000 ; qtot 0.148
     8   c3     1   MOL    C8    8     0.125700     12.01000 ; qtot 0.274
     9    o     1   MOL    O1    9    -0.540000     16.00000 ; qtot -0.266
    10   os     1   MOL    O2   10    -0.445900     16.00000 ; qtot -0.712
    11   hc     1   MOL    H1   11     0.040200      1.00800 ; qtot -0.672
    12   hc     1   MOL    H2   12     0.040200      1.00800 ; qtot -0.631
    13   hc     1   MOL    H3   13     0.050200      1.00800 ; qtot -0.581
    14   hc     1   MOL    H4   14     0.050200      1.00800 ; qtot -0.531
    15   hc     1   MOL    H5   15     0.050200      1.00800 ; qtot -0.481
    16   hc     1   MOL    H6   16     0.050200      1.00800 ; qtot -0.431
    17   hc     1   MOL    H7   17     0.050950      1.00800 ; qtot -0.380
    18   hc     1   MOL    H8   18     0.050950      1.00800 ; qtot -0.329
    19   hc     1   MOL    H9   19     0.050950      1.00800 ; qtot -0.278
    20   hc     1   MOL   H10   20     0.050950      1.00800 ; qtot -0.227
    21   hc     1   MOL   H11   21     0.077700      1.00800 ; qtot -0.149
    22   h1     1   MOL   H12   22     0.049700      1.00800 ; qtot -0.099
    23   h1     1   MOL   H13   23     0.049700      1.00800 ; qtot -0.050
    24   h1     1   MOL   H14   24     0.049700      1.00800 ; qtot 0.000

[ bonds ]
;   ai     aj funct   r             k
     1      7   1    1.5287e-01    1.9550e+05 ;     C1 - C7    
     1      9   1    1.2190e-01    4.9421e+05 ;     C1 - O1    
     1     10   1    1.3621e-01    2.9398e+05 ;     C1 - O2    
     2      3   1    1.5384e-01    1.8979e+05 ;     C2 - C3    
     2      4   1    1.5384e-01    1.8979e+05 ;     C2 - C4    
     2     11   1    1.0979e-01    2.8681e+05 ;     C2 - H1    
     2     12   1    1.0979e-01    2.8681e+05 ;     C2 - H2    
     3      5   1    1.5384e-01    1.8979e+05 ;     C3 - C5    
     3     13   1    1.0979e-01    2.8681e+05 ;     C3 - H3    
     3     14   1    1.0979e-01    2.8681e+05 ;     C3 - H4    
     4      6   1    1.5384e-01    1.8979e+05 ;     C4 - C6    
     4     15   1    1.0979e-01    2.8681e+05 ;     C4 - H5    
     4     16   1    1.0979e-01    2.8681e+05 ;     C4 - H6    
     5      7   1    1.5384e-01    1.8979e+05 ;     C5 - C7    
     5     17   1    1.0979e-01    2.8681e+05 ;     C5 - H7    
     5     18   1    1.0979e-01    2.8681e+05 ;     C5 - H8    
     6      7   1    1.5384e-01    1.8979e+05 ;     C6 - C7    
     6     19   1    1.0979e-01    2.8681e+05 ;     C6 - H9    
     6     20   1    1.0979e-01    2.8681e+05 ;     C6 - H10   
     7     21   1    1.0979e-01    2.8681e+05 ;     C7 - H11   
     8     10   1    1.4273e-01    2.3620e+05 ;     C8 - O2    
     8     22   1    1.0969e-01    2.8804e+05 ;     C8 - H12   
     8     23   1    1.0969e-01    2.8804e+05 ;     C8 - H13   
     8     24   1    1.0969e-01    2.8804e+05 ;     C8 - H14   

[ pairs ]
;   ai     aj    funct
     1      3      1 ;     C1 - C3    
     1      4      1 ;     C1 - C4    
     1     17      1 ;     C1 - H7    
     1     18      1 ;     C1 - H8    
     1     19      1 ;     C1 - H9    
     1     20      1 ;     C1 - H10   
     1     22      1 ;     C1 - H12   
     1     23      1 ;     C1 - H13   
     1     24      1 ;     C1 - H14   
     2      7      1 ;     C2 - C7    
     2     17      1 ;     C2 - H7    
     2     18      1 ;     C2 - H8    
     2     19      1 ;     C2 - H9    
     2     20      1 ;     C2 - H10   
     3      6      1 ;     C3 - C6    
     3     15      1 ;     C3 - H5    
     3     16      1 ;     C3 - H6    
     3     21      1 ;     C3 - H11   
     4      5      1 ;     C4 - C5    
     4     13      1 ;     C4 - H3    
     4     14      1 ;     C4 - H4    
     4     21      1 ;     C4 - H11   
     5     11      1 ;     C5 - H1    
     5     12      1 ;     C5 - H2    
     5     19      1 ;     C5 - H9    
     5     20      1 ;     C5 - H10   
     6     11      1 ;     C6 - H1    
     6     12      1 ;     C6 - H2    
     6     17      1 ;     C6 - H7    
     6     18      1 ;     C6 - H8    
     7      8      1 ;     C7 - C8    
     7     13      1 ;     C7 - H3    
     7     14      1 ;     C7 - H4    
     7     15      1 ;     C7 - H5    
     7     16      1 ;     C7 - H6    
     9      5      1 ;     O1 - C5    
     9      6      1 ;     O1 - C6    
     9      8      1 ;     O1 - C8    
     9     21      1 ;     O1 - H11   
    10      5      1 ;     O2 - C5    
    10      6      1 ;     O2 - C6    
    10     21      1 ;     O2 - H11   
    11     13      1 ;     H1 - H3    
    11     14      1 ;     H1 - H4    
    11     15      1 ;     H1 - H5    
    11     16      1 ;     H1 - H6    
    12     13      1 ;     H2 - H3    
    12     14      1 ;     H2 - H4    
    12     15      1 ;     H2 - H5    
    12     16      1 ;     H2 - H6    
    13     17      1 ;     H3 - H7    
    13     18      1 ;     H3 - H8    
    14     17      1 ;     H4 - H7    
    14     18      1 ;     H4 - H8    
    15     19      1 ;     H5 - H9    
    15     20      1 ;     H5 - H10   
    16     19      1 ;     H6 - H9    
    16     20      1 ;     H6 - H10   
    17     21      1 ;     H7 - H11   
    18     21      1 ;     H8 - H11   
    19     21      1 ;     H9 - H11   
    20     21      1 ;    H10 - H11   

[ angles ]
;   ai     aj     ak    funct   theta         cth
     1      7      5      1    1.1143e+02    5.0434e+02 ;     C1 - C7     - C5    
     1      7      6      1    1.1143e+02    5.0434e+02 ;     C1 - C7     - C6    
     1      7     21      1    1.0767e+02    3.6685e+02 ;     C1 - C7     - H11   
     1     10      8      1    1.1582e+02    7.4835e+02 ;     C1 - O2     - C8    
     2      3      5      1    1.1106e+02    5.0359e+02 ;     C2 - C3     - C5    
     2      3     13      1    1.0945e+02    3.6175e+02 ;     C2 - C3     - H3    
     2      3     14      1    1.0945e+02    3.6175e+02 ;     C2 - C3     - H4    
     2      4      6      1    1.1106e+02    5.0359e+02 ;     C2 - C4     - C6    
     2      4     15      1    1.0945e+02    3.6175e+02 ;     C2 - C4     - H5    
     2      4     16      1    1.0945e+02    3.6175e+02 ;     C2 - C4     - H6    
     3      2      4      1    1.1106e+02    5.0359e+02 ;     C3 - C2     - C4    
     3      2     11      1    1.0945e+02    3.6175e+02 ;     C3 - C2     - H1    
     3      2     12      1    1.0945e+02    3.6175e+02 ;     C3 - C2     - H2    
     3      5      7      1    1.1106e+02    5.0359e+02 ;     C3 - C5     - C7    
     3      5     17      1    1.0945e+02    3.6175e+02 ;     C3 - C5     - H7    
     3      5     18      1    1.0945e+02    3.6175e+02 ;     C3 - C5     - H8    
     4      2     11      1    1.0945e+02    3.6175e+02 ;     C4 - C2     - H1    
     4      2     12      1    1.0945e+02    3.6175e+02 ;     C4 - C2     - H2    
     4      6      7      1    1.1106e+02    5.0359e+02 ;     C4 - C6     - C7    
     4      6     19      1    1.0945e+02    3.6175e+02 ;     C4 - C6     - H9    
     4      6     20      1    1.0945e+02    3.6175e+02 ;     C4 - C6     - H10   
     5      3     13      1    1.0945e+02    3.6175e+02 ;     C5 - C3     - H3    
     5      3     14      1    1.0945e+02    3.6175e+02 ;     C5 - C3     - H4    
     5      7      6      1    1.1106e+02    5.0359e+02 ;     C5 - C7     - C6    
     5      7     21      1    1.0945e+02    3.6175e+02 ;     C5 - C7     - H11   
     6      4     15      1    1.0945e+02    3.6175e+02 ;     C6 - C4     - H5    
     6      4     16      1    1.0945e+02    3.6175e+02 ;     C6 - C4     - H6    
     6      7     21      1    1.0945e+02    3.6175e+02 ;     C6 - C7     - H11   
     7      1      9      1    1.2234e+02    6.4065e+02 ;     C7 - C1     - O1    
     7      1     10      1    1.1313e+02    6.4517e+02 ;     C7 - C1     - O2    
     7      5     17      1    1.0945e+02    3.6175e+02 ;     C7 - C5     - H7    
     7      5     18      1    1.0945e+02    3.6175e+02 ;     C7 - C5     - H8    
     7      6     19      1    1.0945e+02    3.6175e+02 ;     C7 - C6     - H9    
     7      6     20      1    1.0945e+02    3.6175e+02 ;     C7 - C6     - H10   
     9      1     10      1    1.2320e+02    8.4734e+02 ;     O1 - C1     - O2    
    10      8     22      1    1.1034e+02    4.7028e+02 ;     O2 - C8     - H12   
    10      8     23      1    1.1034e+02    4.7028e+02 ;     O2 - C8     - H13   
    10      8     24      1    1.1034e+02    4.7028e+02 ;     O2 - C8     - H14   
    11      2     12      1    1.0662e+02    3.0066e+02 ;     H1 - C2     - H2    
    13      3     14      1    1.0662e+02    3.0066e+02 ;     H3 - C3     - H4    
    15      4     16      1    1.0662e+02    3.0066e+02 ;     H5 - C4     - H6    
    17      5     18      1    1.0662e+02    3.0066e+02 ;     H7 - C5     - H8    
    19      6     20      1    1.0662e+02    3.0066e+02 ;     H9 - C6     - H10   
    22      8     23      1    1.0855e+02    2.9824e+02 ;    H12 - C8     - H13   
    22      8     24      1    1.0855e+02    2.9824e+02 ;    H12 - C8     - H14   
    23      8     24      1    1.0855e+02    2.9824e+02 ;    H13 - C8     - H14   

[ dihedrals ] ; propers
; for gromacs 4.5 or higher, using funct 9
;    i      j      k      l   func   phase     kd      pn
     1      7      5      3      9     0.00   0.00000   0 ;     C1-    C7-    C5-    C3
     1      7      5      3      9     0.00   0.16736   2 ;     C1-    C7-    C5-    C3
     1      7      5      3      9   180.00   1.92464   1 ;     C1-    C7-    C5-    C3
     1      7      5     17      9     0.00   0.65084   3 ;     C1-    C7-    C5-    H7
     1      7      5     18      9     0.00   0.65084   3 ;     C1-    C7-    C5-    H8
     1      7      6      4      9     0.00   0.00000   0 ;     C1-    C7-    C6-    C4
     1      7      6      4      9     0.00   0.16736   2 ;     C1-    C7-    C6-    C4
     1      7      6      4      9   180.00   1.92464   1 ;     C1-    C7-    C6-    C4
     1      7      6     19      9     0.00   0.65084   3 ;     C1-    C7-    C6-    H9
     1      7      6     20      9     0.00   0.65084   3 ;     C1-    C7-    C6-   H10
     1     10      8     22      9     0.00   1.60387   3 ;     C1-    O2-    C8-   H12
     1     10      8     23      9     0.00   1.60387   3 ;     C1-    O2-    C8-   H13
     1     10      8     24      9     0.00   1.60387   3 ;     C1-    O2-    C8-   H14
     2      3      5      7      9     0.00   2.17568   3 ;     C2-    C3-    C5-    C7
     2      3      5     17      9     0.00   0.54392   3 ;     C2-    C3-    C5-    H7
     2      3      5     18      9     0.00   0.54392   3 ;     C2-    C3-    C5-    H8
     2      4      6      7      9     0.00   2.17568   3 ;     C2-    C4-    C6-    C7
     2      4      6     19      9     0.00   0.54392   3 ;     C2-    C4-    C6-    H9
     2      4      6     20      9     0.00   0.54392   3 ;     C2-    C4-    C6-   H10
     3      2      4      6      9     0.00   2.17568   3 ;     C3-    C2-    C4-    C6
     3      2      4     15      9     0.00   0.54392   3 ;     C3-    C2-    C4-    H5
     3      2      4     16      9     0.00   0.54392   3 ;     C3-    C2-    C4-    H6
     3      5      7      6      9     0.00   2.17568   3 ;     C3-    C5-    C7-    C6
     3      5      7     21      9     0.00   0.54392   3 ;     C3-    C5-    C7-   H11
     4      2      3      5      9     0.00   2.17568   3 ;     C4-    C2-    C3-    C5
     4      2      3     13      9     0.00   0.54392   3 ;     C4-    C2-    C3-    H3
     4      2      3     14      9     0.00   0.54392   3 ;     C4-    C2-    C3-    H4
     4      6      7      5      9     0.00   2.17568   3 ;     C4-    C6-    C7-    C5
     4      6      7     21      9     0.00   0.54392   3 ;     C4-    C6-    C7-   H11
     5      3      2     11      9     0.00   0.54392   3 ;     C5-    C3-    C2-    H1
     5      3      2     12      9     0.00   0.54392   3 ;     C5-    C3-    C2-    H2
     5      7      6     19      9     0.00   0.54392   3 ;     C5-    C7-    C6-    H9
     5      7      6     20      9     0.00   0.54392   3 ;     C5-    C7-    C6-   H10
     6      4      2     11      9     0.00   0.54392   3 ;     C6-    C4-    C2-    H1
     6      4      2     12      9     0.00   0.54392   3 ;     C6-    C4-    C2-    H2
     6      7      5     17      9     0.00   0.54392   3 ;     C6-    C7-    C5-    H7
     6      7      5     18      9     0.00   0.54392   3 ;     C6-    C7-    C5-    H8
     7      1     10      8      9     0.00   3.13800   3 ;     C7-    C1-    O2-    C8
     7      1     10      8      9   180.00   7.90776   1 ;     C7-    C1-    O2-    C8
     7      1     10      8      9   180.00  13.76536   2 ;     C7-    C1-    O2-    C8
     7      5      3     13      9     0.00   0.54392   3 ;     C7-    C5-    C3-    H3
     7      5      3     14      9     0.00   0.54392   3 ;     C7-    C5-    C3-    H4
     7      6      4     15      9     0.00   0.54392   3 ;     C7-    C6-    C4-    H5
     7      6      4     16      9     0.00   0.54392   3 ;     C7-    C6-    C4-    H6
     9      1      7      5      9     0.00   0.46024   2 ;     O1-    C1-    C7-    C5
     9      1      7      5      9     0.00  49.12016   1 ;     O1-    C1-    C7-    C5
     9      1      7      5      9   180.00   0.33472   3 ;     O1-    C1-    C7-    C5
     9      1      7      6      9     0.00   0.46024   2 ;     O1-    C1-    C7-    C6
     9      1      7      6      9     0.00  49.12016   1 ;     O1-    C1-    C7-    C6
     9      1      7      6      9   180.00   0.33472   3 ;     O1-    C1-    C7-    C6
     9      1      7     21      9     0.00  16.86152   1 ;     O1-    C1-    C7-   H11
     9      1      7     21      9   180.00  15.31344   2 ;     O1-    C1-    C7-   H11
     9      1     10      8      9   180.00   5.85760   1 ;     O1-    C1-    O2-    C8
     9      1     10      8      9   180.00  11.29680   2 ;     O1-    C1-    O2-    C8
    10      1      7      5      9   180.00   0.00000   2 ;     O2-    C1-    C7-    C5
    10      1      7      6      9   180.00   0.00000   2 ;     O2-    C1-    C7-    C6
    10      1      7     21      9   180.00   0.00000   2 ;     O2-    C1-    C7-   H11
    11      2      3     13      9     0.00   0.50208   3 ;     H1-    C2-    C3-    H3
    11      2      3     14      9     0.00   0.50208   3 ;     H1-    C2-    C3-    H4
    11      2      4     15      9     0.00   0.50208   3 ;     H1-    C2-    C4-    H5
    11      2      4     16      9     0.00   0.50208   3 ;     H1-    C2-    C4-    H6
    12      2      3     13      9     0.00   0.50208   3 ;     H2-    C2-    C3-    H3
    12      2      3     14      9     0.00   0.50208   3 ;     H2-    C2-    C3-    H4
    12      2      4     15      9     0.00   0.50208   3 ;     H2-    C2-    C4-    H5
    12      2      4     16      9     0.00   0.50208   3 ;     H2-    C2-    C4-    H6
    13      3      5     17      9     0.00   0.50208   3 ;     H3-    C3-    C5-    H7
    13      3      5     18      9     0.00   0.50208   3 ;     H3-    C3-    C5-    H8
    14      3      5     17      9     0.00   0.50208   3 ;     H4-    C3-    C5-    H7
    14      3      5     18      9     0.00   0.50208   3 ;     H4-    C3-    C5-    H8
    15      4      6     19      9     0.00   0.50208   3 ;     H5-    C4-    C6-    H9
    15      4      6     20      9     0.00   0.50208   3 ;     H5-    C4-    C6-   H10
    16      4      6     19      9     0.00   0.50208   3 ;     H6-    C4-    C6-    H9
    16      4      6     20      9     0.00   0.50208   3 ;     H6-    C4-    C6-   H10
    17      5      7     21      9     0.00   0.50208   3 ;     H7-    C5-    C7-   H11
    18      5      7     21      9     0.00   0.50208   3 ;     H8-    C5-    C7-   H11
    19      6      7     21      9     0.00   0.50208   3 ;     H9-    C6-    C7-   H11
    20      6      7     21      9     0.00   0.50208   3 ;    H10-    C6-    C7-   H11

[ dihedrals ] ; impropers
; treated as propers in GROMACS to use correct AMBER analytical function
;    i      j      k      l   func   phase     kd      pn
    10      1      9      7      4   180.00   4.60240   2 ;     O2-    C1-    O1-    C7
