; mobley_8573194_GMX.top created by acpype (v: 2023.10.27) on Thu May 14 13:28:53 2026

[ defaults ]
; nbfunc        comb-rule       gen-pairs       fudgeLJ fudgeQQ
1               2               yes             0.5     0.8333333333

; Include mobley_8573194_GMX.itp topology
#include "mobley_8573194_GMX.itp"

; Ligand position restraints
#ifdef POSRES_LIG
#include "posre_mobley_8573194.itp"
#endif

#include "../common/SOL.TIP3P.itp"

[ system ]
mobley_8573194 in water

[ molecules ]
; Compound        nmols
 mobley_8573194   1     
SOL               548
