; mobley_9794857_GMX.itp created by acpype (v: 2023.10.27) on Thu May 14 13:18:19 2026

[ atomtypes ]
;name   bond_type     mass     charge   ptype   sigma         epsilon       Amb
 c3       c3          0.00000  0.00000   A     3.39771e-01   4.51035e-01 ; 1.91  0.1078
 os       os          0.00000  0.00000   A     3.15610e-01   3.03758e-01 ; 1.77  0.0726
 hc       hc          0.00000  0.00000   A     2.60018e-01   8.70272e-02 ; 1.46  0.0208
 h1       h1          0.00000  0.00000   A     2.42200e-01   8.70272e-02 ; 1.36  0.0208

[ moleculetype ]
;name            nrexcl
 mobley_9794857   3

[ atoms ]
;   nr  type  resi  res  atom  cgnr     charge      mass       ; qtot   bond_type
     1   c3     1   MOL    C1    1    -0.107100     12.01000 ; qtot -0.107
     2   c3     1   MOL    C2    2    -0.107100     12.01000 ; qtot -0.214
     3   c3     1   MOL    C3    3    -0.107100     12.01000 ; qtot -0.321
     4   c3     1   MOL    C4    4     0.117700     12.01000 ; qtot -0.204
     5   c3     1   MOL    C5    5     0.147800     12.01000 ; qtot -0.056
     6   os     1   MOL    O1    6    -0.422598     16.00000 ; qtot -0.478
     7   hc     1   MOL    H1    7     0.042922      1.00800 ; qtot -0.435
     8   hc     1   MOL    H2    8     0.042922      1.00800 ; qtot -0.393
     9   hc     1   MOL    H3    9     0.042922      1.00800 ; qtot -0.350
    10   hc     1   MOL    H4   10     0.042922      1.00800 ; qtot -0.307
    11   hc     1   MOL    H5   11     0.042922      1.00800 ; qtot -0.264
    12   hc     1   MOL    H6   12     0.042922      1.00800 ; qtot -0.221
    13   hc     1   MOL    H7   13     0.042922      1.00800 ; qtot -0.178
    14   hc     1   MOL    H8   14     0.042922      1.00800 ; qtot -0.135
    15   hc     1   MOL    H9   15     0.042922      1.00800 ; qtot -0.092
    16   h1     1   MOL   H10   16     0.030700      1.00800 ; qtot -0.061
    17   h1     1   MOL   H11   17     0.030700      1.00800 ; qtot -0.031
    18   h1     1   MOL   H12   18     0.030700      1.00800 ; qtot 0.000

[ bonds ]
;   ai     aj funct   r             k
     1      5   1    1.5354e-01    1.9154e+05 ;     C1 - C5    
     1      7   1    1.0962e-01    2.8891e+05 ;     C1 - H1    
     1      8   1    1.0962e-01    2.8891e+05 ;     C1 - H2    
     1      9   1    1.0962e-01    2.8891e+05 ;     C1 - H3    
     2      5   1    1.5354e-01    1.9154e+05 ;     C2 - C5    
     2     10   1    1.0962e-01    2.8891e+05 ;     C2 - H4    
     2     11   1    1.0962e-01    2.8891e+05 ;     C2 - H5    
     2     12   1    1.0962e-01    2.8891e+05 ;     C2 - H6    
     3      5   1    1.5354e-01    1.9154e+05 ;     C3 - C5    
     3     13   1    1.0962e-01    2.8891e+05 ;     C3 - H7    
     3     14   1    1.0962e-01    2.8891e+05 ;     C3 - H8    
     3     15   1    1.0962e-01    2.8891e+05 ;     C3 - H9    
     4      6   1    1.4273e-01    2.3620e+05 ;     C4 - O1    
     4     16   1    1.0969e-01    2.8804e+05 ;     C4 - H10   
     4     17   1    1.0969e-01    2.8804e+05 ;     C4 - H11   
     4     18   1    1.0969e-01    2.8804e+05 ;     C4 - H12   
     5      6   1    1.4273e-01    2.3620e+05 ;     C5 - O1    

[ pairs ]
;   ai     aj    funct
     1      4      1 ;     C1 - C4    
     1     10      1 ;     C1 - H4    
     1     11      1 ;     C1 - H5    
     1     12      1 ;     C1 - H6    
     1     13      1 ;     C1 - H7    
     1     14      1 ;     C1 - H8    
     1     15      1 ;     C1 - H9    
     2      4      1 ;     C2 - C4    
     2     13      1 ;     C2 - H7    
     2     14      1 ;     C2 - H8    
     2     15      1 ;     C2 - H9    
     3      4      1 ;     C3 - C4    
     3     10      1 ;     C3 - H4    
     3     11      1 ;     C3 - H5    
     3     12      1 ;     C3 - H6    
     5     16      1 ;     C5 - H10   
     5     17      1 ;     C5 - H11   
     5     18      1 ;     C5 - H12   
     6     10      1 ;     O1 - H4    
     6     11      1 ;     O1 - H5    
     6     12      1 ;     O1 - H6    
     6     13      1 ;     O1 - H7    
     6     14      1 ;     O1 - H8    
     6     15      1 ;     O1 - H9    
     7      2      1 ;     H1 - C2    
     7      3      1 ;     H1 - C3    
     7      6      1 ;     H1 - O1    
     8      2      1 ;     H2 - C2    
     8      3      1 ;     H2 - C3    
     8      6      1 ;     H2 - O1    
     9      2      1 ;     H3 - C2    
     9      3      1 ;     H3 - C3    
     9      6      1 ;     H3 - O1    

[ angles ]
;   ai     aj     ak    funct   theta         cth
     1      5      2      1    1.1263e+02    5.0099e+02 ;     C1 - C5     - C2    
     1      5      3      1    1.1263e+02    5.0099e+02 ;     C1 - C5     - C3    
     1      5      6      1    1.0762e+02    6.4802e+02 ;     C1 - C5     - O1    
     2      5      3      1    1.1263e+02    5.0099e+02 ;     C2 - C5     - C3    
     2      5      6      1    1.0762e+02    6.4802e+02 ;     C2 - C5     - O1    
     3      5      6      1    1.0762e+02    6.4802e+02 ;     C3 - C5     - O1    
     4      6      5      1    1.1360e+02    7.3915e+02 ;     C4 - O1     - C5    
     5      1      7      1    1.0968e+02    3.6208e+02 ;     C5 - C1     - H1    
     5      1      8      1    1.0968e+02    3.6208e+02 ;     C5 - C1     - H2    
     5      1      9      1    1.0968e+02    3.6208e+02 ;     C5 - C1     - H3    
     5      2     10      1    1.0968e+02    3.6208e+02 ;     C5 - C2     - H4    
     5      2     11      1    1.0968e+02    3.6208e+02 ;     C5 - C2     - H5    
     5      2     12      1    1.0968e+02    3.6208e+02 ;     C5 - C2     - H6    
     5      3     13      1    1.0968e+02    3.6208e+02 ;     C5 - C3     - H7    
     5      3     14      1    1.0968e+02    3.6208e+02 ;     C5 - C3     - H8    
     5      3     15      1    1.0968e+02    3.6208e+02 ;     C5 - C3     - H9    
     6      4     16      1    1.1034e+02    4.7028e+02 ;     O1 - C4     - H10   
     6      4     17      1    1.1034e+02    4.7028e+02 ;     O1 - C4     - H11   
     6      4     18      1    1.1034e+02    4.7028e+02 ;     O1 - C4     - H12   
     7      1      8      1    1.0773e+02    2.9957e+02 ;     H1 - C1     - H2    
     7      1      9      1    1.0773e+02    2.9957e+02 ;     H1 - C1     - H3    
     8      1      9      1    1.0773e+02    2.9957e+02 ;     H2 - C1     - H3    
    10      2     11      1    1.0773e+02    2.9957e+02 ;     H4 - C2     - H5    
    10      2     12      1    1.0773e+02    2.9957e+02 ;     H4 - C2     - H6    
    11      2     12      1    1.0773e+02    2.9957e+02 ;     H5 - C2     - H6    
    13      3     14      1    1.0773e+02    2.9957e+02 ;     H7 - C3     - H8    
    13      3     15      1    1.0773e+02    2.9957e+02 ;     H7 - C3     - H9    
    14      3     15      1    1.0773e+02    2.9957e+02 ;     H8 - C3     - H9    
    16      4     17      1    1.0855e+02    2.9824e+02 ;    H10 - C4     - H11   
    16      4     18      1    1.0855e+02    2.9824e+02 ;    H10 - C4     - H12   
    17      4     18      1    1.0855e+02    2.9824e+02 ;    H11 - C4     - H12   

[ dihedrals ] ; propers
; for gromacs 4.5 or higher, using funct 9
;    i      j      k      l   func   phase     kd      pn
     1      5      2     10      9     0.00   0.54392   3 ;     C1-    C5-    C2-    H4
     1      5      2     11      9     0.00   0.54392   3 ;     C1-    C5-    C2-    H5
     1      5      2     12      9     0.00   0.54392   3 ;     C1-    C5-    C2-    H6
     1      5      3     13      9     0.00   0.54392   3 ;     C1-    C5-    C3-    H7
     1      5      3     14      9     0.00   0.54392   3 ;     C1-    C5-    C3-    H8
     1      5      3     15      9     0.00   0.54392   3 ;     C1-    C5-    C3-    H9
     1      5      6      4      9     0.00   0.33472   2 ;     C1-    C5-    O1-    C4
     1      5      6      4      9     0.00   3.13800   3 ;     C1-    C5-    O1-    C4
     1      5      6      4      9   180.00   3.68192   1 ;     C1-    C5-    O1-    C4
     2      5      3     13      9     0.00   0.54392   3 ;     C2-    C5-    C3-    H7
     2      5      3     14      9     0.00   0.54392   3 ;     C2-    C5-    C3-    H8
     2      5      3     15      9     0.00   0.54392   3 ;     C2-    C5-    C3-    H9
     2      5      6      4      9     0.00   0.33472   2 ;     C2-    C5-    O1-    C4
     2      5      6      4      9     0.00   3.13800   3 ;     C2-    C5-    O1-    C4
     2      5      6      4      9   180.00   3.68192   1 ;     C2-    C5-    O1-    C4
     3      5      2     10      9     0.00   0.54392   3 ;     C3-    C5-    C2-    H4
     3      5      2     11      9     0.00   0.54392   3 ;     C3-    C5-    C2-    H5
     3      5      2     12      9     0.00   0.54392   3 ;     C3-    C5-    C2-    H6
     3      5      6      4      9     0.00   0.33472   2 ;     C3-    C5-    O1-    C4
     3      5      6      4      9     0.00   3.13800   3 ;     C3-    C5-    O1-    C4
     3      5      6      4      9   180.00   3.68192   1 ;     C3-    C5-    O1-    C4
     5      6      4     16      9     0.00   1.41001   3 ;     C5-    O1-    C4-   H10
     5      6      4     17      9     0.00   1.41001   3 ;     C5-    O1-    C4-   H11
     5      6      4     18      9     0.00   1.41001   3 ;     C5-    O1-    C4-   H12
     6      5      2     10      9     0.00   0.00000   0 ;     O1-    C5-    C2-    H4
     6      5      2     10      9     0.00   1.04600   1 ;     O1-    C5-    C2-    H4
     6      5      2     11      9     0.00   0.00000   0 ;     O1-    C5-    C2-    H5
     6      5      2     11      9     0.00   1.04600   1 ;     O1-    C5-    C2-    H5
     6      5      2     12      9     0.00   0.00000   0 ;     O1-    C5-    C2-    H6
     6      5      2     12      9     0.00   1.04600   1 ;     O1-    C5-    C2-    H6
     6      5      3     13      9     0.00   0.00000   0 ;     O1-    C5-    C3-    H7
     6      5      3     13      9     0.00   1.04600   1 ;     O1-    C5-    C3-    H7
     6      5      3     14      9     0.00   0.00000   0 ;     O1-    C5-    C3-    H8
     6      5      3     14      9     0.00   1.04600   1 ;     O1-    C5-    C3-    H8
     6      5      3     15      9     0.00   0.00000   0 ;     O1-    C5-    C3-    H9
     6      5      3     15      9     0.00   1.04600   1 ;     O1-    C5-    C3-    H9
     7      1      5      2      9     0.00   0.54392   3 ;     H1-    C1-    C5-    C2
     7      1      5      3      9     0.00   0.54392   3 ;     H1-    C1-    C5-    C3
     7      1      5      6      9     0.00   0.00000   0 ;     H1-    C1-    C5-    O1
     7      1      5      6      9     0.00   1.04600   1 ;     H1-    C1-    C5-    O1
     8      1      5      2      9     0.00   0.54392   3 ;     H2-    C1-    C5-    C2
     8      1      5      3      9     0.00   0.54392   3 ;     H2-    C1-    C5-    C3
     8      1      5      6      9     0.00   0.00000   0 ;     H2-    C1-    C5-    O1
     8      1      5      6      9     0.00   1.04600   1 ;     H2-    C1-    C5-    O1
     9      1      5      2      9     0.00   0.54392   3 ;     H3-    C1-    C5-    C2
     9      1      5      3      9     0.00   0.54392   3 ;     H3-    C1-    C5-    C3
     9      1      5      6      9     0.00   0.00000   0 ;     H3-    C1-    C5-    O1
     9      1      5      6      9     0.00   1.04600   1 ;     H3-    C1-    C5-    O1
