; mobley_5286200_GMX.itp created by acpype (v: 2023.10.27) on Thu May 14 13:50:09 2026

[ atomtypes ]
;name   bond_type     mass     charge   ptype   sigma         epsilon       Amb
 c3       c3          0.00000  0.00000   A     3.39771e-01   4.51035e-01 ; 1.91  0.1078
 cl       cl          0.00000  0.00000   A     3.46595e-01   1.10374e+00 ; 1.95  0.2638
 hc       hc          0.00000  0.00000   A     2.60018e-01   8.70272e-02 ; 1.46  0.0208
 h1       h1          0.00000  0.00000   A     2.42200e-01   8.70272e-02 ; 1.36  0.0208

[ moleculetype ]
;name            nrexcl
 mobley_5286200   3

[ atoms ]
;   nr  type  resi  res  atom  cgnr     charge      mass       ; qtot   bond_type
     1   c3     1   MOL    C1    1    -0.092400     12.01000 ; qtot -0.092
     2   c3     1   MOL    C2    2    -0.092400     12.01000 ; qtot -0.185
     3   c3     1   MOL    C3    3     0.038000     12.01000 ; qtot -0.147
     4   c3     1   MOL    C4    4     0.038000     12.01000 ; qtot -0.109
     5   cl     1   MOL   CL1    5    -0.196400     35.45000 ; qtot -0.305
     6   cl     1   MOL   CL2    6    -0.196400     35.45000 ; qtot -0.502
     7   hc     1   MOL    H1    7     0.061200      1.00800 ; qtot -0.440
     8   hc     1   MOL    H2    8     0.061200      1.00800 ; qtot -0.379
     9   hc     1   MOL    H3    9     0.061200      1.00800 ; qtot -0.318
    10   hc     1   MOL    H4   10     0.061200      1.00800 ; qtot -0.257
    11   h1     1   MOL    H5   11     0.064200      1.00800 ; qtot -0.193
    12   h1     1   MOL    H6   12     0.064200      1.00800 ; qtot -0.128
    13   h1     1   MOL    H7   13     0.064200      1.00800 ; qtot -0.064
    14   h1     1   MOL    H8   14     0.064200      1.00800 ; qtot -0.000

[ bonds ]
;   ai     aj funct   r             k
     1      2   1    1.5354e-01    1.9154e+05 ;     C1 - C2    
     1      3   1    1.5354e-01    1.9154e+05 ;     C1 - C3    
     1      7   1    1.0962e-01    2.8891e+05 ;     C1 - H1    
     1      8   1    1.0962e-01    2.8891e+05 ;     C1 - H2    
     2      4   1    1.5354e-01    1.9154e+05 ;     C2 - C4    
     2      9   1    1.0962e-01    2.8891e+05 ;     C2 - H3    
     2     10   1    1.0962e-01    2.8891e+05 ;     C2 - H4    
     3      5   1    1.8092e-01    1.3724e+05 ;     C3 - CL1   
     3     11   1    1.0969e-01    2.8804e+05 ;     C3 - H5    
     3     12   1    1.0969e-01    2.8804e+05 ;     C3 - H6    
     4      6   1    1.8092e-01    1.3724e+05 ;     C4 - CL2   
     4     13   1    1.0969e-01    2.8804e+05 ;     C4 - H7    
     4     14   1    1.0969e-01    2.8804e+05 ;     C4 - H8    

[ pairs ]
;   ai     aj    funct
     1      6      1 ;     C1 - CL2   
     1     13      1 ;     C1 - H7    
     1     14      1 ;     C1 - H8    
     2      5      1 ;     C2 - CL1   
     2     11      1 ;     C2 - H5    
     2     12      1 ;     C2 - H6    
     3      4      1 ;     C3 - C4    
     3      9      1 ;     C3 - H3    
     3     10      1 ;     C3 - H4    
     6      9      1 ;    CL2 - H3    
     6     10      1 ;    CL2 - H4    
     7      4      1 ;     H1 - C4    
     7      5      1 ;     H1 - CL1   
     7      9      1 ;     H1 - H3    
     7     10      1 ;     H1 - H4    
     7     11      1 ;     H1 - H5    
     7     12      1 ;     H1 - H6    
     8      4      1 ;     H2 - C4    
     8      5      1 ;     H2 - CL1   
     8      9      1 ;     H2 - H3    
     8     10      1 ;     H2 - H4    
     8     11      1 ;     H2 - H5    
     8     12      1 ;     H2 - H6    
     9     13      1 ;     H3 - H7    
     9     14      1 ;     H3 - H8    
    10     13      1 ;     H4 - H7    
    10     14      1 ;     H4 - H8    

[ angles ]
;   ai     aj     ak    funct   theta         cth
     1      2      4      1    1.1263e+02    5.0099e+02 ;     C1 - C2     - C4    
     1      2      9      1    1.0968e+02    3.6208e+02 ;     C1 - C2     - H3    
     1      2     10      1    1.0968e+02    3.6208e+02 ;     C1 - C2     - H4    
     1      3      5      1    1.1039e+02    5.3254e+02 ;     C1 - C3     - CL1   
     1      3     11      1    1.0959e+02    3.6217e+02 ;     C1 - C3     - H5    
     1      3     12      1    1.0959e+02    3.6217e+02 ;     C1 - C3     - H6    
     2      1      3      1    1.1263e+02    5.0099e+02 ;     C2 - C1     - C3    
     2      1      7      1    1.0968e+02    3.6208e+02 ;     C2 - C1     - H1    
     2      1      8      1    1.0968e+02    3.6208e+02 ;     C2 - C1     - H2    
     2      4      6      1    1.1039e+02    5.3254e+02 ;     C2 - C4     - CL2   
     2      4     13      1    1.0959e+02    3.6217e+02 ;     C2 - C4     - H7    
     2      4     14      1    1.0959e+02    3.6217e+02 ;     C2 - C4     - H8    
     3      1      7      1    1.0968e+02    3.6208e+02 ;     C3 - C1     - H1    
     3      1      8      1    1.0968e+02    3.6208e+02 ;     C3 - C1     - H2    
     4      2      9      1    1.0968e+02    3.6208e+02 ;     C4 - C2     - H3    
     4      2     10      1    1.0968e+02    3.6208e+02 ;     C4 - C2     - H4    
     5      3     11      1    1.0682e+02    3.6183e+02 ;    CL1 - C3     - H5    
     5      3     12      1    1.0682e+02    3.6183e+02 ;    CL1 - C3     - H6    
     6      4     13      1    1.0682e+02    3.6183e+02 ;    CL2 - C4     - H7    
     6      4     14      1    1.0682e+02    3.6183e+02 ;    CL2 - C4     - H8    
     7      1      8      1    1.0773e+02    2.9957e+02 ;     H1 - C1     - H2    
     9      2     10      1    1.0773e+02    2.9957e+02 ;     H3 - C2     - H4    
    11      3     12      1    1.0855e+02    2.9824e+02 ;     H5 - C3     - H6    
    13      4     14      1    1.0855e+02    2.9824e+02 ;     H7 - C4     - H8    

[ dihedrals ] ; propers
; for gromacs 4.5 or higher, using funct 9
;    i      j      k      l   func   phase     kd      pn
     1      2      4      6      9     0.00   0.65084   3 ;     C1-    C2-    C4-   CL2
     1      2      4     13      9     0.00   0.65084   3 ;     C1-    C2-    C4-    H7
     1      2      4     14      9     0.00   0.65084   3 ;     C1-    C2-    C4-    H8
     2      1      3      5      9     0.00   0.65084   3 ;     C2-    C1-    C3-   CL1
     2      1      3     11      9     0.00   0.65084   3 ;     C2-    C1-    C3-    H5
     2      1      3     12      9     0.00   0.65084   3 ;     C2-    C1-    C3-    H6
     3      1      2      4      9     0.00   2.17568   3 ;     C3-    C1-    C2-    C4
     3      1      2      9      9     0.00   0.54392   3 ;     C3-    C1-    C2-    H3
     3      1      2     10      9     0.00   0.54392   3 ;     C3-    C1-    C2-    H4
     6      4      2      9      9     0.00   0.75312   3 ;    CL2-    C4-    C2-    H3
     6      4      2     10      9     0.00   0.75312   3 ;    CL2-    C4-    C2-    H4
     7      1      2      4      9     0.00   0.54392   3 ;     H1-    C1-    C2-    C4
     7      1      2      9      9     0.00   0.50208   3 ;     H1-    C1-    C2-    H3
     7      1      2     10      9     0.00   0.50208   3 ;     H1-    C1-    C2-    H4
     7      1      3      5      9     0.00   0.75312   3 ;     H1-    C1-    C3-   CL1
     7      1      3     11      9     0.00   0.65084   3 ;     H1-    C1-    C3-    H5
     7      1      3     12      9     0.00   0.65084   3 ;     H1-    C1-    C3-    H6
     8      1      2      4      9     0.00   0.54392   3 ;     H2-    C1-    C2-    C4
     8      1      2      9      9     0.00   0.50208   3 ;     H2-    C1-    C2-    H3
     8      1      2     10      9     0.00   0.50208   3 ;     H2-    C1-    C2-    H4
     8      1      3      5      9     0.00   0.75312   3 ;     H2-    C1-    C3-   CL1
     8      1      3     11      9     0.00   0.65084   3 ;     H2-    C1-    C3-    H5
     8      1      3     12      9     0.00   0.65084   3 ;     H2-    C1-    C3-    H6
     9      2      4     13      9     0.00   0.65084   3 ;     H3-    C2-    C4-    H7
     9      2      4     14      9     0.00   0.65084   3 ;     H3-    C2-    C4-    H8
    10      2      4     13      9     0.00   0.65084   3 ;     H4-    C2-    C4-    H7
    10      2      4     14      9     0.00   0.65084   3 ;     H4-    C2-    C4-    H8
