; mobley_7463799_GMX.itp created by acpype (v: 2023.10.27) on Thu May 14 13:19:21 2026

[ atomtypes ]
;name   bond_type     mass     charge   ptype   sigma         epsilon       Amb
 ca       ca          0.00000  0.00000   A     3.31521e-01   4.13379e-01 ; 1.86  0.0988
 c3       c3          0.00000  0.00000   A     3.39771e-01   4.51035e-01 ; 1.91  0.1078
 oh       oh          0.00000  0.00000   A     3.24287e-01   3.89112e-01 ; 1.82  0.0930
 ha       ha          0.00000  0.00000   A     2.62548e-01   6.73624e-02 ; 1.47  0.0161
 hc       hc          0.00000  0.00000   A     2.60018e-01   8.70272e-02 ; 1.46  0.0208
 h1       h1          0.00000  0.00000   A     2.42200e-01   8.70272e-02 ; 1.36  0.0208
 ho       ho          0.00000  0.00000   A     5.37925e-02   1.96648e-02 ; 0.30  0.0047

[ moleculetype ]
;name            nrexcl
 mobley_7463799   3

[ atoms ]
;   nr  type  resi  res  atom  cgnr     charge      mass       ; qtot   bond_type
     1   ca     1   MOL    C1    1    -0.131000     12.01000 ; qtot -0.131
     2   ca     1   MOL    C2    2    -0.127500     12.01000 ; qtot -0.259
     3   ca     1   MOL    C3    3    -0.127500     12.01000 ; qtot -0.386
     4   ca     1   MOL    C4    4    -0.127000     12.01000 ; qtot -0.513
     5   ca     1   MOL    C5    5    -0.127000     12.01000 ; qtot -0.640
     6   ca     1   MOL    C6    6    -0.080300     12.01000 ; qtot -0.720
     7   c3     1   MOL    C7    7    -0.033100     12.01000 ; qtot -0.753
     8   c3     1   MOL    C8    8    -0.117400     12.01000 ; qtot -0.871
     9   c3     1   MOL    C9    9     0.126400     12.01000 ; qtot -0.744
    10   oh     1   MOL    O1   10    -0.597800     16.00000 ; qtot -1.342
    11   ha     1   MOL    H1   11     0.131000      1.00800 ; qtot -1.211
    12   ha     1   MOL    H2   12     0.131000      1.00800 ; qtot -1.080
    13   ha     1   MOL    H3   13     0.131000      1.00800 ; qtot -0.949
    14   ha     1   MOL    H4   14     0.131000      1.00800 ; qtot -0.818
    15   ha     1   MOL    H5   15     0.131000      1.00800 ; qtot -0.687
    16   hc     1   MOL    H6   16     0.049200      1.00800 ; qtot -0.638
    17   hc     1   MOL    H7   17     0.049200      1.00800 ; qtot -0.589
    18   hc     1   MOL    H8   18     0.051700      1.00800 ; qtot -0.537
    19   hc     1   MOL    H9   19     0.051700      1.00800 ; qtot -0.485
    20   h1     1   MOL   H10   20     0.044200      1.00800 ; qtot -0.441
    21   h1     1   MOL   H11   21     0.044200      1.00800 ; qtot -0.397
    22   ho     1   MOL   H12   22     0.397000      1.00800 ; qtot 0.000

[ bonds ]
;   ai     aj funct   r             k
     1      2   1    1.3986e-01    2.9644e+05 ;     C1 - C2    
     1      3   1    1.3986e-01    2.9644e+05 ;     C1 - C3    
     1     11   1    1.0860e-01    3.0183e+05 ;     C1 - H1    
     2      4   1    1.3986e-01    2.9644e+05 ;     C2 - C4    
     2     12   1    1.0860e-01    3.0183e+05 ;     C2 - H2    
     3      5   1    1.3986e-01    2.9644e+05 ;     C3 - C5    
     3     13   1    1.0860e-01    3.0183e+05 ;     C3 - H3    
     4      6   1    1.3986e-01    2.9644e+05 ;     C4 - C6    
     4     14   1    1.0860e-01    3.0183e+05 ;     C4 - H4    
     5      6   1    1.3986e-01    2.9644e+05 ;     C5 - C6    
     5     15   1    1.0860e-01    3.0183e+05 ;     C5 - H5    
     6      7   1    1.5147e-01    2.0410e+05 ;     C6 - C7    
     7      8   1    1.5354e-01    1.9154e+05 ;     C7 - C8    
     7     16   1    1.0962e-01    2.8891e+05 ;     C7 - H6    
     7     17   1    1.0962e-01    2.8891e+05 ;     C7 - H7    
     8      9   1    1.5354e-01    1.9154e+05 ;     C8 - C9    
     8     18   1    1.0962e-01    2.8891e+05 ;     C8 - H8    
     8     19   1    1.0962e-01    2.8891e+05 ;     C8 - H9    
     9     10   1    1.4242e-01    2.3861e+05 ;     C9 - O1    
     9     20   1    1.0969e-01    2.8804e+05 ;     C9 - H10   
     9     21   1    1.0969e-01    2.8804e+05 ;     C9 - H11   
    10     22   1    9.7250e-02    4.4811e+05 ;     O1 - H12   

[ pairs ]
;   ai     aj    funct
     1      6      1 ;     C1 - C6    
     1     14      1 ;     C1 - H4    
     1     15      1 ;     C1 - H5    
     2      5      1 ;     C2 - C5    
     2      7      1 ;     C2 - C7    
     2     13      1 ;     C2 - H3    
     3      4      1 ;     C3 - C4    
     3      7      1 ;     C3 - C7    
     3     12      1 ;     C3 - H2    
     4      8      1 ;     C4 - C8    
     4     15      1 ;     C4 - H5    
     4     16      1 ;     C4 - H6    
     4     17      1 ;     C4 - H7    
     5      8      1 ;     C5 - C8    
     5     14      1 ;     C5 - H4    
     5     16      1 ;     C5 - H6    
     5     17      1 ;     C5 - H7    
     6      9      1 ;     C6 - C9    
     6     12      1 ;     C6 - H2    
     6     13      1 ;     C6 - H3    
     6     18      1 ;     C6 - H8    
     6     19      1 ;     C6 - H9    
     7     10      1 ;     C7 - O1    
     7     14      1 ;     C7 - H4    
     7     15      1 ;     C7 - H5    
     7     20      1 ;     C7 - H10   
     7     21      1 ;     C7 - H11   
     8     22      1 ;     C8 - H12   
     9     16      1 ;     C9 - H6    
     9     17      1 ;     C9 - H7    
    10     18      1 ;     O1 - H8    
    10     19      1 ;     O1 - H9    
    11      4      1 ;     H1 - C4    
    11      5      1 ;     H1 - C5    
    11     12      1 ;     H1 - H2    
    11     13      1 ;     H1 - H3    
    12     14      1 ;     H2 - H4    
    13     15      1 ;     H3 - H5    
    16     18      1 ;     H6 - H8    
    16     19      1 ;     H6 - H9    
    17     18      1 ;     H7 - H8    
    17     19      1 ;     H7 - H9    
    18     20      1 ;     H8 - H10   
    18     21      1 ;     H8 - H11   
    19     20      1 ;     H9 - H10   
    19     21      1 ;     H9 - H11   
    20     22      1 ;    H10 - H12   
    21     22      1 ;    H11 - H12   

[ angles ]
;   ai     aj     ak    funct   theta         cth
     1      2      4      1    1.2002e+02    5.3279e+02 ;     C1 - C2     - C4    
     1      2     12      1    1.1988e+02    3.7572e+02 ;     C1 - C2     - H2    
     1      3      5      1    1.2002e+02    5.3279e+02 ;     C1 - C3     - C5    
     1      3     13      1    1.1988e+02    3.7572e+02 ;     C1 - C3     - H3    
     2      1      3      1    1.2002e+02    5.3279e+02 ;     C2 - C1     - C3    
     2      1     11      1    1.1988e+02    3.7572e+02 ;     C2 - C1     - H1    
     2      4      6      1    1.2002e+02    5.3279e+02 ;     C2 - C4     - C6    
     2      4     14      1    1.1988e+02    3.7572e+02 ;     C2 - C4     - H4    
     3      1     11      1    1.1988e+02    3.7572e+02 ;     C3 - C1     - H1    
     3      5      6      1    1.2002e+02    5.3279e+02 ;     C3 - C5     - C6    
     3      5     15      1    1.1988e+02    3.7572e+02 ;     C3 - C5     - H5    
     4      2     12      1    1.1988e+02    3.7572e+02 ;     C4 - C2     - H2    
     4      6      5      1    1.2002e+02    5.3279e+02 ;     C4 - C6     - C5    
     4      6      7      1    1.2083e+02    5.0827e+02 ;     C4 - C6     - C7    
     5      3     13      1    1.1988e+02    3.7572e+02 ;     C5 - C3     - H3    
     5      6      7      1    1.2083e+02    5.0827e+02 ;     C5 - C6     - C7    
     6      4     14      1    1.1988e+02    3.7572e+02 ;     C6 - C4     - H4    
     6      5     15      1    1.1988e+02    3.7572e+02 ;     C6 - C5     - H5    
     6      7      8      1    1.1242e+02    5.0484e+02 ;     C6 - C7     - C8    
     6      7     16      1    1.1063e+02    3.6493e+02 ;     C6 - C7     - H6    
     6      7     17      1    1.1063e+02    3.6493e+02 ;     C6 - C7     - H7    
     7      8      9      1    1.1263e+02    5.0099e+02 ;     C7 - C8     - C9    
     7      8     18      1    1.0968e+02    3.6208e+02 ;     C7 - C8     - H8    
     7      8     19      1    1.0968e+02    3.6208e+02 ;     C7 - C8     - H9    
     8      7     16      1    1.0968e+02    3.6208e+02 ;     C8 - C7     - H6    
     8      7     17      1    1.0968e+02    3.6208e+02 ;     C8 - C7     - H7    
     8      9     10      1    1.0966e+02    6.4258e+02 ;     C8 - C9     - O1    
     8      9     20      1    1.0959e+02    3.6217e+02 ;     C8 - C9     - H10   
     8      9     21      1    1.0959e+02    3.6217e+02 ;     C8 - C9     - H11   
     9      8     18      1    1.0968e+02    3.6208e+02 ;     C9 - C8     - H8    
     9      8     19      1    1.0968e+02    3.6208e+02 ;     C9 - C8     - H9    
     9     10     22      1    1.0739e+02    5.4501e+02 ;     C9 - O1     - H12   
    10      9     20      1    1.1038e+02    4.7103e+02 ;     O1 - C9     - H10   
    10      9     21      1    1.1038e+02    4.7103e+02 ;     O1 - C9     - H11   
    16      7     17      1    1.0773e+02    2.9957e+02 ;     H6 - C7     - H7    
    18      8     19      1    1.0773e+02    2.9957e+02 ;     H8 - C8     - H9    
    20      9     21      1    1.0855e+02    2.9824e+02 ;    H10 - C9     - H11   

[ dihedrals ] ; propers
; for gromacs 4.5 or higher, using funct 9
;    i      j      k      l   func   phase     kd      pn
     1      2      4      6      9   180.00  15.16700   2 ;     C1-    C2-    C4-    C6
     1      2      4     14      9   180.00  15.16700   2 ;     C1-    C2-    C4-    H4
     1      3      5      6      9   180.00  15.16700   2 ;     C1-    C3-    C5-    C6
     1      3      5     15      9   180.00  15.16700   2 ;     C1-    C3-    C5-    H5
     2      1      3      5      9   180.00  15.16700   2 ;     C2-    C1-    C3-    C5
     2      1      3     13      9   180.00  15.16700   2 ;     C2-    C1-    C3-    H3
     2      4      6      5      9   180.00  15.16700   2 ;     C2-    C4-    C6-    C5
     2      4      6      7      9   180.00  15.16700   2 ;     C2-    C4-    C6-    C7
     3      1      2      4      9   180.00  15.16700   2 ;     C3-    C1-    C2-    C4
     3      1      2     12      9   180.00  15.16700   2 ;     C3-    C1-    C2-    H2
     3      5      6      4      9   180.00  15.16700   2 ;     C3-    C5-    C6-    C4
     3      5      6      7      9   180.00  15.16700   2 ;     C3-    C5-    C6-    C7
     4      6      5     15      9   180.00  15.16700   2 ;     C4-    C6-    C5-    H5
     4      6      7      8      9   180.00   1.00416   2 ;     C4-    C6-    C7-    C8
     4      6      7     16      9     0.00   0.00000   0 ;     C4-    C6-    C7-    H6
     4      6      7     17      9     0.00   0.00000   0 ;     C4-    C6-    C7-    H7
     5      6      4     14      9   180.00  15.16700   2 ;     C5-    C6-    C4-    H4
     5      6      7      8      9   180.00   1.00416   2 ;     C5-    C6-    C7-    C8
     5      6      7     16      9     0.00   0.00000   0 ;     C5-    C6-    C7-    H6
     5      6      7     17      9     0.00   0.00000   0 ;     C5-    C6-    C7-    H7
     6      4      2     12      9   180.00  15.16700   2 ;     C6-    C4-    C2-    H2
     6      5      3     13      9   180.00  15.16700   2 ;     C6-    C5-    C3-    H3
     6      7      8      9      9     0.00   0.65084   3 ;     C6-    C7-    C8-    C9
     6      7      8     18      9     0.00   0.65084   3 ;     C6-    C7-    C8-    H8
     6      7      8     19      9     0.00   0.65084   3 ;     C6-    C7-    C8-    H9
     7      6      4     14      9   180.00  15.16700   2 ;     C7-    C6-    C4-    H4
     7      6      5     15      9   180.00  15.16700   2 ;     C7-    C6-    C5-    H5
     7      8      9     10      9     0.00   0.75312   3 ;     C7-    C8-    C9-    O1
     7      8      9     20      9     0.00   0.65084   3 ;     C7-    C8-    C9-   H10
     7      8      9     21      9     0.00   0.65084   3 ;     C7-    C8-    C9-   H11
     8      9     10     22      9     0.00   0.25104   3 ;     C8-    C9-    O1-   H12
     9      8      7     16      9     0.00   0.54392   3 ;     C9-    C8-    C7-    H6
     9      8      7     17      9     0.00   0.54392   3 ;     C9-    C8-    C7-    H7
    10      9      8     18      9     0.00   0.37656   3 ;     O1-    C9-    C8-    H8
    10      9      8     19      9     0.00   0.37656   3 ;     O1-    C9-    C8-    H9
    11      1      2      4      9   180.00  15.16700   2 ;     H1-    C1-    C2-    C4
    11      1      2     12      9   180.00  15.16700   2 ;     H1-    C1-    C2-    H2
    11      1      3      5      9   180.00  15.16700   2 ;     H1-    C1-    C3-    C5
    11      1      3     13      9   180.00  15.16700   2 ;     H1-    C1-    C3-    H3
    12      2      4     14      9   180.00  15.16700   2 ;     H2-    C2-    C4-    H4
    13      3      5     15      9   180.00  15.16700   2 ;     H3-    C3-    C5-    H5
    16      7      8     18      9     0.00   0.50208   3 ;     H6-    C7-    C8-    H8
    16      7      8     19      9     0.00   0.50208   3 ;     H6-    C7-    C8-    H9
    17      7      8     18      9     0.00   0.50208   3 ;     H7-    C7-    C8-    H8
    17      7      8     19      9     0.00   0.50208   3 ;     H7-    C7-    C8-    H9
    18      8      9     20      9     0.00   0.65084   3 ;     H8-    C8-    C9-   H10
    18      8      9     21      9     0.00   0.65084   3 ;     H8-    C8-    C9-   H11
    19      8      9     20      9     0.00   0.65084   3 ;     H9-    C8-    C9-   H10
    19      8      9     21      9     0.00   0.65084   3 ;     H9-    C8-    C9-   H11
    20      9     10     22      9     0.00   0.51463   3 ;    H10-    C9-    O1-   H12
    21      9     10     22      9     0.00   0.51463   3 ;    H11-    C9-    O1-   H12

[ dihedrals ] ; impropers
; treated as propers in GROMACS to use correct AMBER analytical function
;    i      j      k      l   func   phase     kd      pn
     1      4      2     12      4   180.00   4.60240   2 ;     C1-    C4-    C2-    H2
     1      5      3     13      4   180.00   4.60240   2 ;     C1-    C5-    C3-    H3
     2      6      4     14      4   180.00   4.60240   2 ;     C2-    C6-    C4-    H4
     3      6      5     15      4   180.00   4.60240   2 ;     C3-    C6-    C5-    H5
     4      5      6      7      4   180.00   4.60240   2 ;     C4-    C5-    C6-    C7
    11      1      3      2      4   180.00   4.60240   2 ;     H1-    C1-    C3-    C2
