mobley_7859387_GMX.gro created by acpype (v: 2023.10.27) on Thu May 14 13:53:26 2026
 2554
    1MOL     C1    1   1.859   1.418   1.528
    1MOL     C2    2   1.108   1.480   1.473
    1MOL     C3    3   1.745   1.478   1.449
    1MOL     C4    4   1.242   1.522   1.414
    1MOL     C5    5   1.610   1.437   1.506
    1MOL     C6    6   1.359   1.459   1.490
    1MOL     C7    7   1.493   1.498   1.428
    1MOL     O1    8   1.842   1.351   1.629
    1MOL     H1    9   1.960   1.442   1.492
    1MOL     H2   10   1.026   1.527   1.417
    1MOL     H3   11   1.100   1.511   1.578
    1MOL     H4   12   1.095   1.372   1.468
    1MOL     H5   13   1.756   1.587   1.446
    1MOL     H6   14   1.755   1.440   1.346
    1MOL     H7   15   1.250   1.631   1.418
    1MOL     H8   16   1.246   1.493   1.309
    1MOL     H9   17   1.602   1.328   1.503
    1MOL    H10   18   1.603   1.467   1.612
    1MOL    H11   19   1.356   1.490   1.595
    1MOL    H12   20   1.348   1.350   1.488
    1MOL    H13   21   1.497   1.465   1.324
    1MOL    H14   22   1.502   1.608   1.428
    2SOL     OW   23   0.230   0.628   0.113
    2SOL    HW1   24   0.137   0.626   0.150
    2SOL    HW2   25   0.231   0.589   0.021
    3SOL     OW   26   0.225   0.275   0.996
    3SOL    HW1   27   0.260   0.258   1.088
    3SOL    HW2   28   0.137   0.230   0.984
    4SOL     OW   29   0.019   0.368   0.647
    4SOL    HW1   30  -0.063   0.411   0.686
    4SOL    HW2   31  -0.009   0.295   0.584
    5SOL     OW   32   0.569   1.275   1.165
    5SOL    HW1   33   0.476   1.268   1.128
    5SOL    HW2   34   0.580   1.364   1.209
    6SOL     OW   35   1.555   1.511   0.703
    6SOL    HW1   36   1.498   1.495   0.784
    6SOL    HW2   37   1.496   1.521   0.623
    7SOL     OW   38   1.135   0.703   0.717
    7SOL    HW1   39   1.192   0.781   0.692
    7SOL    HW2   40   1.075   0.729   0.793
    8SOL     OW   41   1.755   0.607   0.231
    8SOL    HW1   42   1.743   0.594   0.132
    8SOL    HW2   43   1.725   0.526   0.280
    9SOL     OW   44   0.768   1.144   1.023
    9SOL    HW1   45   0.690   1.161   1.083
    9SOL    HW2   46   0.802   1.231   0.987
   10SOL     OW   47   0.850   0.798   1.823
   10SOL    HW1   48   0.846   0.874   1.888
   10SOL    HW2   49   0.872   0.834   1.732
   11SOL     OW   50   0.685   1.012   0.665
   11SOL    HW1   51   0.754   0.996   0.735
   11SOL    HW2   52   0.612   1.069   0.703
   12SOL     OW   53   0.686   1.161   1.803
   12SOL    HW1   54   0.746   1.240   1.817
   12SOL    HW2   55   0.600   1.192   1.762
   13SOL     OW   56   0.335   1.435   1.061
   13SOL    HW1   57   0.257   1.404   1.008
   13SOL    HW2   58   0.393   1.493   1.004
   14SOL     OW   59   0.438   0.392   1.499
   14SOL    HW1   60   0.520   0.336   1.508
   14SOL    HW2   61   0.357   0.334   1.503
   15SOL     OW   62   1.603   0.447   0.737
   15SOL    HW1   63   1.529   0.493   0.687
   15SOL    HW2   64   1.654   0.515   0.790
   16SOL     OW   65   0.231   1.713   0.483
   16SOL    HW1   66   0.265   1.790   0.537
   16SOL    HW2   67   0.275   1.713   0.393
   17SOL     OW   68   1.127   1.341   1.690
   17SOL    HW1   69   1.174   1.341   1.778
   17SOL    HW2   70   1.079   1.254   1.679
   18SOL     OW   71   0.230   1.434   0.538
   18SOL    HW1   72   0.204   1.530   0.538
   18SOL    HW2   73   0.159   1.380   0.583
   19SOL     OW   74   0.240   1.091   0.886
   19SOL    HW1   75   0.254   1.007   0.938
   19SOL    HW2   76   0.185   1.155   0.941
   20SOL     OW   77   0.620   1.786   1.439
   20SOL    HW1   78   0.528   1.769   1.474
   20SOL    HW2   79   0.648   1.878   1.465
   21SOL     OW   80   0.606   0.964   0.123
   21SOL    HW1   81   0.613   1.048   0.069
   21SOL    HW2   82   0.652   0.977   0.211
   22SOL     OW   83   1.594   0.114   1.480
   22SOL    HW1   84   1.576   0.181   1.408
   22SOL    HW2   85   1.591   0.160   1.569
   23SOL     OW   86   0.122   0.643   0.563
   23SOL    HW1   87   0.077   0.555   0.580
   23SOL    HW2   88   0.121   0.697   0.647
   24SOL     OW   89   1.842   1.767   0.359
   24SOL    HW1   90   1.896   1.738   0.439
   24SOL    HW2   91   1.872   1.857   0.330
   25SOL     OW   92   0.027   1.596   0.117
   25SOL    HW1   93   0.008   1.500   0.138
   25SOL    HW2   94  -0.006   1.654   0.192
   26SOL     OW   95   1.689   0.922   0.612
   26SOL    HW1   96   1.784   0.893   0.620
   26SOL    HW2   97   1.681   0.987   0.537
   27SOL     OW   98   1.641   1.108   0.432
   27SOL    HW1   99   1.727   1.110   0.380
   27SOL    HW2  100   1.655   1.155   0.520
   28SOL     OW  101   0.113   0.737   1.597
   28SOL    HW1  102   0.201   0.724   1.642
   28SOL    HW2  103   0.100   0.834   1.575
   29SOL     OW  104   0.613   1.365   0.726
   29SOL    HW1  105   0.564   1.278   0.735
   29SOL    HW2  106   0.590   1.408   0.639
   30SOL     OW  107   0.809   0.004   0.502
   30SOL    HW1  108   0.849   0.095   0.493
   30SOL    HW2  109   0.709   0.012   0.508
   31SOL     OW  110   0.197   0.976   1.264
   31SOL    HW1  111   0.286   0.931   1.250
   31SOL    HW2  112   0.124   0.911   1.245
   32SOL     OW  113   1.525   0.999   0.190
   32SOL    HW1  114   1.462   0.923   0.203
   32SOL    HW2  115   1.573   1.017   0.276
   33SOL     OW  116   1.187   1.792   1.616
   33SOL    HW1  117   1.211   1.852   1.540
   33SOL    HW2  118   1.194   1.697   1.586
   34SOL     OW  119   0.317   0.251   1.801
   34SOL    HW1  120   0.388   0.322   1.807
   34SOL    HW2  121   0.229   0.290   1.829
   35SOL     OW  122   1.466   1.417   0.953
   35SOL    HW1  123   1.407   1.423   1.033
   35SOL    HW2  124   1.451   1.329   0.907
   36SOL     OW  125   1.667   1.714   0.572
   36SOL    HW1  126   1.626   1.691   0.484
   36SOL    HW2  127   1.649   1.640   0.637
   37SOL     OW  128   0.598   0.729   0.270
   37SOL    HW1  129   0.622   0.798   0.202
   37SOL    HW2  130   0.520   0.762   0.324
   38SOL     OW  131   1.281   0.345   0.944
   38SOL    HW1  132   1.195   0.295   0.931
   38SOL    HW2  133   1.343   0.291   1.000
   39SOL     OW  134   1.576   1.662   0.307
   39SOL    HW1  135   1.665   1.708   0.310
   39SOL    HW2  136   1.555   1.638   0.212
   40SOL     OW  137   0.807   0.605   1.465
   40SOL    HW1  138   0.760   0.602   1.554
   40SOL    HW2  139   0.756   0.550   1.399
   41SOL     OW  140   1.394   0.469   1.674
   41SOL    HW1  141   1.374   0.512   1.762
   41SOL    HW2  142   1.472   0.407   1.683
   42SOL     OW  143   0.973   0.890   1.572
   42SOL    HW1  144   1.019   0.806   1.543
   42SOL    HW2  145   0.917   0.924   1.497
   43SOL     OW  146   0.991   0.410   1.242
   43SOL    HW1  147   0.914   0.444   1.296
   43SOL    HW2  148   0.957   0.359   1.163
   44SOL     OW  149   1.041   0.701   0.429
   44SOL    HW1  150   1.067   0.697   0.525
   44SOL    HW2  151   0.956   0.650   0.415
   45SOL     OW  152   0.076   0.811   0.789
   45SOL    HW1  153   0.175   0.799   0.798
   45SOL    HW2  154   0.052   0.906   0.810
   46SOL     OW  155   0.130   1.821   1.571
   46SOL    HW1  156   0.120   1.806   1.670
   46SOL    HW2  157   0.044   1.857   1.535
   47SOL     OW  158   0.865   0.348   0.195
   47SOL    HW1  159   0.924   0.411   0.146
   47SOL    HW2  160   0.884   0.254   0.166
   48SOL     OW  161   1.719   0.585   1.831
   48SOL    HW1  162   1.693   0.674   1.795
   48SOL    HW2  163   1.717   0.517   1.758
   49SOL     OW  164   1.362   1.144   0.545
   49SOL    HW1  165   1.445   1.115   0.497
   49SOL    HW2  166   1.313   1.211   0.489
   50SOL     OW  167   0.550   0.196   0.885
   50SOL    HW1  168   0.545   0.191   0.985
   50SOL    HW2  169   0.552   0.292   0.856
   51SOL     OW  170   1.008   1.456   0.477
   51SOL    HW1  171   0.962   1.528   0.425
   51SOL    HW2  172   1.004   1.476   0.575
   52SOL     OW  173   0.351   1.801   0.853
   52SOL    HW1  174   0.401   1.715   0.859
   52SOL    HW2  175   0.416   1.878   0.850
   53SOL     OW  176   1.795   1.066   0.873
   53SOL    HW1  177   1.733   1.051   0.797
   53SOL    HW2  178   1.743   1.077   0.958
   54SOL     OW  179   0.321   0.943   0.242
   54SOL    HW1  180   0.403   0.982   0.200
   54SOL    HW2  181   0.294   0.861   0.193
   55SOL     OW  182   1.458   0.735   0.728
   55SOL    HW1  183   1.453   0.670   0.803
   55SOL    HW2  184   1.538   0.794   0.741
   56SOL     OW  185   0.461   1.266   1.727
   56SOL    HW1  186   0.411   1.267   1.641
   56SOL    HW2  187   0.398   1.248   1.803
   57SOL     OW  188   1.111   1.776   0.237
   57SOL    HW1  189   1.051   1.714   0.287
   57SOL    HW2  190   1.142   1.732   0.152
   58SOL     OW  191   0.202   0.285   1.498
   58SOL    HW1  192   0.122   0.345   1.485
   58SOL    HW2  193   0.192   0.236   1.584
   59SOL     OW  194   1.632   1.377   0.081
   59SOL    HW1  195   1.600   1.471   0.071
   59SOL    HW2  196   1.556   1.314   0.069
   60SOL     OW  197   0.464   1.743   0.323
   60SOL    HW1  198   0.497   1.782   0.409
   60SOL    HW2  199   0.540   1.736   0.258
   61SOL     OW  200   1.400   0.107   0.426
   61SOL    HW1  201   1.376   0.070   0.336
   61SOL    HW2  202   1.499   0.123   0.430
   62SOL     OW  203   0.249   1.785   1.241
   62SOL    HW1  204   0.306   1.720   1.291
   62SOL    HW2  205   0.233   1.752   1.148
   63SOL     OW  206   0.940   1.698   0.904
   63SOL    HW1  207   1.020   1.641   0.925
   63SOL    HW2  208   0.891   1.658   0.827
   64SOL     OW  209   0.382   0.700   0.480
   64SOL    HW1  210   0.427   0.610   0.477
   64SOL    HW2  211   0.288   0.689   0.513
   65SOL     OW  212   1.547   0.222   1.729
   65SOL    HW1  213   1.542   0.259   1.821
   65SOL    HW2  214   1.475   0.153   1.717
   66SOL     OW  215   0.614   0.122   0.117
   66SOL    HW1  216   0.712   0.100   0.124
   66SOL    HW2  217   0.583   0.105   0.024
   67SOL     OW  218   0.781   0.264   1.749
   67SOL    HW1  219   0.848   0.203   1.792
   67SOL    HW2  220   0.708   0.283   1.814
   68SOL     OW  221   0.888   1.514   1.195
   68SOL    HW1  222   0.865   1.489   1.101
   68SOL    HW2  223   0.949   1.445   1.234
   69SOL     OW  224   1.351   0.590   1.433
   69SOL    HW1  225   1.379   0.547   1.518
   69SOL    HW2  226   1.376   0.686   1.434
   70SOL     OW  227   0.803   1.402   0.924
   70SOL    HW1  228   0.893   1.416   0.882
   70SOL    HW2  229   0.732   1.404   0.853
   71SOL     OW  230   0.922   0.503   0.899
   71SOL    HW1  231   0.897   0.494   0.803
   71SOL    HW2  232   0.970   0.421   0.930
   72SOL     OW  233   0.539   0.064   0.512
   72SOL    HW1  234   0.458   0.065   0.570
   72SOL    HW2  235   0.542   0.147   0.457
   73SOL     OW  236   1.434   1.188   0.041
   73SOL    HW1  237   1.466   1.112   0.098
   73SOL    HW2  238   1.342   1.215   0.071
   74SOL     OW  239   0.297   0.035   0.171
   74SOL    HW1  240   0.346   0.119   0.150
   74SOL    HW2  241   0.359  -0.030   0.216
   75SOL     OW  242   0.935   0.236   0.480
   75SOL    HW1  243   0.887   0.277   0.402
   75SOL    HW2  244   1.034   0.234   0.461
   76SOL     OW  245   1.076   0.683   1.464
   76SOL    HW1  246   0.996   0.622   1.467
   76SOL    HW2  247   1.157   0.630   1.440
   77SOL     OW  248   1.227   1.570   0.793
   77SOL    HW1  249   1.248   1.644   0.728
   77SOL    HW2  250   1.295   1.570   0.866
   78SOL     OW  251   0.459   1.152   0.741
   78SOL    HW1  252   0.388   1.125   0.806
   78SOL    HW2  253   0.433   1.124   0.648
   79SOL     OW  254   1.271   1.797   0.591
   79SOL    HW1  255   1.315   1.861   0.527
   79SOL    HW2  256   1.221   1.849   0.661
   80SOL     OW  257   1.032   0.549   0.016
   80SOL    HW1  258   0.991   0.631  -0.023
   80SOL    HW2  259   1.096   0.575   0.089
   81SOL     OW  260   0.078   0.556   1.386
   81SOL    HW1  261   0.170   0.555   1.345
   81SOL    HW2  262   0.072   0.630   1.453
   82SOL     OW  263   0.561   0.222   1.147
   82SOL    HW1  264   0.599   0.138   1.184
   82SOL    HW2  265   0.473   0.241   1.191
   83SOL     OW  266   0.866   0.454   0.642
   83SOL    HW1  267   0.834   0.526   0.580
   83SOL    HW2  268   0.890   0.373   0.589
   84SOL     OW  269   1.017   0.039   0.753
   84SOL    HW1  270   0.945   0.044   0.684
   84SOL    HW2  271   0.993  -0.030   0.822
   85SOL     OW  272   1.429   1.173   0.867
   85SOL    HW1  273   1.374   1.089   0.860
   85SOL    HW2  274   1.455   1.202   0.775
   86SOL     OW  275   1.466   0.590   0.992
   86SOL    HW1  276   1.436   0.495   0.999
   86SOL    HW2  277   1.539   0.606   1.058
   87SOL     OW  278   1.857   0.833   0.377
   87SOL    HW1  279   1.899   0.769   0.441
   87SOL    HW2  280   1.819   0.782   0.299
   88SOL     OW  281   0.488   1.385   0.174
   88SOL    HW1  282   0.401   1.370   0.221
   88SOL    HW2  283   0.471   1.411   0.079
   89SOL     OW  284   1.664   1.280   0.657
   89SOL    HW1  285   1.763   1.288   0.671
   89SOL    HW2  286   1.619   1.364   0.688
   90SOL     OW  287   1.390   0.575   0.078
   90SOL    HW1  288   1.336   0.554   0.159
   90SOL    HW2  289   1.481   0.534   0.087
   91SOL     OW  290   0.527   0.256   0.328
   91SOL    HW1  291   0.554   0.197   0.253
   91SOL    HW2  292   0.527   0.351   0.297
   92SOL     OW  293   1.592   1.629   1.625
   92SOL    HW1  294   1.619   1.663   1.535
   92SOL    HW2  295   1.671   1.591   1.671
   93SOL     OW  296   1.111   1.195   1.100
   93SOL    HW1  297   1.071   1.239   1.181
   93SOL    HW2  298   1.070   1.232   1.017
   94SOL     OW  299   1.638   1.099   1.079
   94SOL    HW1  300   1.643   1.180   1.138
   94SOL    HW2  301   1.552   1.101   1.028
   95SOL     OW  302   0.915   0.089   1.402
   95SOL    HW1  303   0.940   0.069   1.307
   95SOL    HW2  304   0.987   0.145   1.444
   96SOL     OW  305   0.980   1.116   1.719
   96SOL    HW1  306   0.881   1.122   1.729
   96SOL    HW2  307   1.003   1.036   1.663
   97SOL     OW  308   0.705   1.050   0.368
   97SOL    HW1  309   0.691   1.057   0.467
   97SOL    HW2  310   0.789   0.999   0.350
   98SOL     OW  311   0.410   0.813   1.251
   98SOL    HW1  312   0.496   0.825   1.301
   98SOL    HW2  313   0.368   0.726   1.278
   99SOL     OW  314   1.274   0.386   1.262
   99SOL    HW1  315   1.295   0.460   1.326
   99SOL    HW2  316   1.185   0.403   1.219
  100SOL     OW  317   0.064   1.564   1.331
  100SOL    HW1  318   0.018   1.646   1.297
  100SOL    HW2  319   0.162   1.583   1.340
  101SOL     OW  320   0.367   1.100   0.501
  101SOL    HW1  321   0.360   1.183   0.445
  101SOL    HW2  322   0.371   1.020   0.441
  102SOL     OW  323   0.566   0.537   0.865
  102SOL    HW1  324   0.578   0.603   0.791
  102SOL    HW2  325   0.612   0.571   0.948
  103SOL     OW  326   1.252   1.348   0.388
  103SOL    HW1  327   1.302   1.425   0.428
  103SOL    HW2  328   1.157   1.350   0.420
  104SOL     OW  329   1.582   0.639   0.472
  104SOL    HW1  330   1.551   0.700   0.545
  104SOL    HW2  331   1.632   0.691   0.403
  105SOL     OW  332   0.354   1.510   1.329
  105SOL    HW1  333   0.333   1.466   1.242
  105SOL    HW2  334   0.451   1.536   1.332
  106SOL     OW  335   0.402   0.751   1.598
  106SOL    HW1  336   0.470   0.806   1.551
  106SOL    HW2  337   0.442   0.663   1.625
  107SOL     OW  338   1.587   0.779   1.670
  107SOL    HW1  339   1.495   0.817   1.665
  107SOL    HW2  340   1.647   0.826   1.605
  108SOL     OW  341   1.013   0.105   1.770
  108SOL    HW1  342   1.019   0.190   1.718
  108SOL    HW2  343   1.045   0.029   1.713
  109SOL     OW  344   0.504   0.050   1.740
  109SOL    HW1  345   0.462  -0.007   1.670
  109SOL    HW2  346   0.438   0.119   1.772
  110SOL     OW  347   0.573   0.870   1.029
  110SOL    HW1  348   0.617   0.959   1.020
  110SOL    HW2  349   0.510   0.870   1.106
  111SOL     OW  350   1.360   0.862   1.045
  111SOL    HW1  351   1.285   0.862   0.979
  111SOL    HW2  352   1.397   0.770   1.054
  112SOL     OW  353   1.209   0.525   0.275
  112SOL    HW1  354   1.222   0.441   0.329
  112SOL    HW2  355   1.180   0.599   0.335
  113SOL     OW  356   0.307   0.213   1.231
  113SOL    HW1  357   0.284   0.250   1.321
  113SOL    HW2  358   0.277   0.118   1.225
  114SOL     OW  359   0.037   1.310   1.282
  114SOL    HW1  360   0.090   1.261   1.350
  114SOL    HW2  361   0.059   1.408   1.287
  115SOL     OW  362   0.732   0.634   1.064
  115SOL    HW1  363   0.791   0.608   0.988
  115SOL    HW2  364   0.704   0.730   1.053
  116SOL     OW  365   1.728   0.935   1.854
  116SOL    HW1  366   1.682   0.928   1.765
  116SOL    HW2  367   1.666   0.979   1.920
  117SOL     OW  368   0.307   0.063   0.618
  117SOL    HW1  369   0.296   0.157   0.651
  117SOL    HW2  370   0.302   0.000   0.695
  118SOL     OW  371   1.622   0.367   0.374
  118SOL    HW1  372   1.624   0.291   0.438
  118SOL    HW2  373   1.574   0.444   0.414
  119SOL     OW  374   1.023   0.766   0.966
  119SOL    HW1  375   1.038   0.787   1.062
  119SOL    HW2  376   0.993   0.671   0.957
  120SOL     OW  377   0.350   0.898   1.804
  120SOL    HW1  378   0.426   0.942   1.852
  120SOL    HW2  379   0.385   0.851   1.722
  121SOL     OW  380   1.540   0.274   0.125
  121SOL    HW1  381   1.479   0.199   0.148
  121SOL    HW2  382   1.562   0.326   0.208
  122SOL     OW  383   1.303   0.838   0.042
  122SOL    HW1  384   1.337   0.745   0.057
  122SOL    HW2  385   1.321   0.865  -0.053
  123SOL     OW  386   1.068   1.333   0.849
  123SOL    HW1  387   1.075   1.249   0.794
  123SOL    HW2  388   1.130   1.402   0.813
  124SOL     OW  389   0.319   0.810   0.949
  124SOL    HW1  390   0.412   0.846   0.954
  124SOL    HW2  391   0.313   0.725   1.001
  125SOL     OW  392   0.339   0.509   1.006
  125SOL    HW1  393   0.287   0.426   0.989
  125SOL    HW2  394   0.416   0.514   0.942
  126SOL     OW  395   1.138   0.380   1.678
  126SOL    HW1  396   1.093   0.443   1.742
  126SOL    HW2  397   1.231   0.411   1.661
  127SOL     OW  398   1.160   0.207   1.477
  127SOL    HW1  399   1.160   0.271   1.554
  127SOL    HW2  400   1.188   0.255   1.394
  128SOL     OW  401   0.008   1.326   0.200
  128SOL    HW1  402  -0.085   1.347   0.169
  128SOL    HW2  403   0.018   1.227   0.213
  129SOL     OW  404   0.088   1.801   0.927
  129SOL    HW1  405   0.046   1.715   0.900
  129SOL    HW2  406   0.182   1.804   0.893
  130SOL     OW  407   0.504   1.568   0.910
  130SOL    HW1  408   0.570   1.642   0.919
  130SOL    HW2  409   0.548   1.489   0.868
  131SOL     OW  410   1.002   0.796   1.238
  131SOL    HW1  411   1.043   0.764   1.324
  131SOL    HW2  412   0.906   0.769   1.235
  132SOL     OW  413   0.040   0.544   1.114
  132SOL    HW1  414   0.125   0.511   1.073
  132SOL    HW2  415   0.053   0.559   1.212
  133SOL     OW  416   0.189   0.520   1.722
  133SOL    HW1  417   0.248   0.480   1.652
  133SOL    HW2  418   0.131   0.591   1.681
  134SOL     OW  419   1.369   0.950   1.660
  134SOL    HW1  420   1.408   1.039   1.680
  134SOL    HW2  421   1.379   0.930   1.563
  135SOL     OW  422   0.815   0.572   0.325
  135SOL    HW1  423   0.822   0.483   0.279
  135SOL    HW2  424   0.721   0.606   0.317
  136SOL     OW  425   1.657   0.604   1.206
  136SOL    HW1  426   1.619   0.535   1.268
  136SOL    HW2  427   1.739   0.568   1.162
  137SOL     OW  428   0.252   1.564   1.744
  137SOL    HW1  429   0.222   1.621   1.820
  137SOL    HW2  430   0.245   1.467   1.770
  138SOL     OW  431   0.671   0.464   1.269
  138SOL    HW1  432   0.637   0.375   1.239
  138SOL    HW2  433   0.697   0.518   1.189
  139SOL     OW  434   0.930   1.678   1.465
  139SOL    HW1  435   0.906   1.660   1.370
  139SOL    HW2  436   0.960   1.772   1.475
  140SOL     OW  437   0.473   0.500   0.191
  140SOL    HW1  438   0.534   0.580   0.195
  140SOL    HW2  439   0.378   0.531   0.198
  141SOL     OW  440   0.159   1.137   1.466
  141SOL    HW1  441   0.181   1.076   1.542
  141SOL    HW2  442   0.169   1.088   1.380
  142SOL     OW  443   1.347   1.059   1.234
  142SOL    HW1  444   1.371   0.996   1.160
  142SOL    HW2  445   1.257   1.099   1.216
  143SOL     OW  446   1.302   0.855   0.309
  143SOL    HW1  447   1.216   0.824   0.351
  143SOL    HW2  448   1.298   0.841   0.210
  144SOL     OW  449   1.759   1.747   1.154
  144SOL    HW1  450   1.820   1.777   1.081
  144SOL    HW2  451   1.721   1.658   1.132
  145SOL     OW  452   1.252   1.731   1.128
  145SOL    HW1  453   1.336   1.736   1.074
  145SOL    HW2  454   1.229   1.635   1.146
  146SOL     OW  455   0.083   1.258   1.022
  146SOL    HW1  456   0.078   1.257   1.122
  146SOL    HW2  457   0.000   1.217   0.984
  147SOL     OW  458   0.688   1.662   1.716
  147SOL    HW1  459   0.632   1.743   1.725
  147SOL    HW2  460   0.740   1.666   1.630
  148SOL     OW  461   0.903   0.086   0.133
  148SOL    HW1  462   0.954   0.087   0.047
  148SOL    HW2  463   0.959   0.044   0.204
  149SOL     OW  464   1.726   0.135   0.523
  149SOL    HW1  465   1.799   0.118   0.456
  149SOL    HW2  466   1.695   0.048   0.561
  150SOL     OW  467   1.388   1.573   0.477
  150SOL    HW1  468   1.455   1.585   0.403
  150SOL    HW2  469   1.348   1.662   0.500
  151SOL     OW  470   0.130   1.794   1.851
  151SOL    HW1  471   0.089   1.720   1.904
  151SOL    HW2  472   0.194   1.845   1.909
  152SOL     OW  473   1.280   0.927   0.672
  152SOL    HW1  474   1.340   0.846   0.674
  152SOL    HW2  475   1.320   0.996   0.612
  153SOL     OW  476   0.830   1.273   1.422
  153SOL    HW1  477   0.825   1.306   1.517
  153SOL    HW2  478   0.744   1.292   1.376
  154SOL     OW  479   0.672   1.616   0.154
  154SOL    HW1  480   0.681   1.626   0.055
  154SOL    HW2  481   0.632   1.527   0.175
  155SOL     OW  482   1.650   1.720   1.394
  155SOL    HW1  483   1.703   1.730   1.310
  155SOL    HW2  484   1.623   1.810   1.428
  156SOL     OW  485   1.841   0.175   0.963
  156SOL    HW1  486   1.880   0.090   0.927
  156SOL    HW2  487   1.743   0.177   0.944
  157SOL     OW  488   0.263   0.326   0.720
  157SOL    HW1  489   0.184   0.377   0.686
  157SOL    HW2  490   0.254   0.311   0.818
  158SOL     OW  491   1.194   1.612   0.031
  158SOL    HW1  492   1.200   1.519   0.068
  158SOL    HW2  493   1.135   1.612  -0.049
  159SOL     OW  494   0.822   1.002   1.372
  159SOL    HW1  495   0.862   1.001   1.280
  159SOL    HW2  496   0.832   1.094   1.412
  160SOL     OW  497   0.916   0.910   0.291
  160SOL    HW1  498   0.979   0.948   0.223
  160SOL    HW2  499   0.956   0.827   0.330
  161SOL     OW  500   1.504   1.607   0.044
  161SOL    HW1  501   1.412   1.644   0.051
  161SOL    HW2  502   1.542   1.627  -0.046
  162SOL     OW  503   0.372   1.288   1.490
  162SOL    HW1  504   0.359   1.381   1.456
  162SOL    HW2  505   0.288   1.236   1.477
  163SOL     OW  506   1.039   1.098   0.696
  163SOL    HW1  507   0.969   1.051   0.750
  163SOL    HW2  508   1.098   1.030   0.653
  164SOL     OW  509   1.014   0.236   0.971
  164SOL    HW1  510   1.006   0.200   0.878
  164SOL    HW2  511   1.012   0.160   1.036
  165SOL     OW  512   0.590   1.487   0.491
  165SOL    HW1  513   0.632   1.429   0.421
  165SOL    HW2  514   0.546   1.566   0.447
  166SOL     OW  515   1.709   0.385   1.381
  166SOL    HW1  516   1.782   0.454   1.385
  166SOL    HW2  517   1.737   0.310   1.322
  167SOL     OW  518   0.255   1.348   0.290
  167SOL    HW1  519   0.159   1.349   0.263
  167SOL    HW2  520   0.267   1.401   0.374
  168SOL     OW  521   0.105   1.013   1.726
  168SOL    HW1  522   0.028   0.980   1.780
  168SOL    HW2  523   0.190   0.983   1.768
  169SOL     OW  524   0.672   0.203   1.489
  169SOL    HW1  525   0.762   0.187   1.449
  169SOL    HW2  526   0.680   0.208   1.588
  170SOL     OW  527   0.075   0.345   0.033
  170SOL    HW1  528  -0.017   0.317   0.004
  170SOL    HW2  529   0.106   0.422  -0.023
  171SOL     OW  530   1.440   0.856   1.398
  171SOL    HW1  531   1.383   0.908   1.335
  171SOL    HW2  532   1.536   0.868   1.374
  172SOL     OW  533   0.072   0.166   0.318
  172SOL    HW1  534   0.055   0.249   0.264
  172SOL    HW2  535   0.162   0.129   0.296
  173SOL     OW  536   1.183   1.335   0.119
  173SOL    HW1  537   1.084   1.324   0.121
  173SOL    HW2  538   1.217   1.350   0.212
  174SOL     OW  539   0.613   0.842   1.431
  174SOL    HW1  540   0.669   0.923   1.414
  174SOL    HW2  541   0.672   0.762   1.434
  175SOL     OW  542   1.493   1.767   0.959
  175SOL    HW1  543   1.526   1.831   0.890
  175SOL    HW2  544   1.559   1.761   1.034
  176SOL     OW  545   0.716   0.565   1.708
  176SOL    HW1  546   0.735   0.630   1.782
  176SOL    HW2  547   0.776   0.485   1.717
  177SOL     OW  548   1.450   1.220   1.633
  177SOL    HW1  549   1.441   1.210   1.732
  177SOL    HW2  550   1.546   1.213   1.607
  178SOL     OW  551   0.390   1.741   1.560
  178SOL    HW1  552   0.299   1.782   1.558
  178SOL    HW2  553   0.383   1.647   1.592
  179SOL     OW  554   1.674   0.883   1.254
  179SOL    HW1  555   1.647   0.794   1.217
  179SOL    HW2  556   1.675   0.951   1.181
  180SOL     OW  557   1.225   0.325   0.449
  180SOL    HW1  558   1.290   0.251   0.438
  180SOL    HW2  559   1.245   0.375   0.533
  181SOL     OW  560   0.594   0.745   0.652
  181SOL    HW1  561   0.644   0.830   0.633
  181SOL    HW2  562   0.506   0.747   0.604
  182SOL     OW  563   1.777   0.342   1.642
  182SOL    HW1  564   1.760   0.373   1.548
  182SOL    HW2  565   1.693   0.305   1.680
  183SOL     OW  566   1.730   0.934   1.517
  183SOL    HW1  567   1.768   1.025   1.532
  183SOL    HW2  568   1.722   0.917   1.418
  184SOL     OW  569   0.859   1.374   0.016
  184SOL    HW1  570   0.813   1.389   0.104
  184SOL    HW2  571   0.903   1.459  -0.014
  185SOL     OW  572   0.661   1.790   0.953
  185SOL    HW1  573   0.615   1.878   0.940
  185SOL    HW2  574   0.760   1.802   0.946
  186SOL     OW  575   0.859   0.956   0.861
  186SOL    HW1  576   0.913   0.887   0.909
  186SOL    HW2  577   0.827   1.025   0.927
  187SOL     OW  578   1.083   0.984   0.087
  187SOL    HW1  579   1.060   1.037   0.005
  187SOL    HW2  580   1.164   0.928   0.068
  188SOL     OW  581   1.861   1.569   0.851
  188SOL    HW1  582   1.790   1.557   0.781
  188SOL    HW2  583   1.862   1.490   0.911
  189SOL     OW  584   0.221   1.314   1.844
  189SOL    HW1  585   0.156   1.241   1.823
  189SOL    HW2  586   0.225   1.328   1.942
  190SOL     OW  587   0.079   1.240   0.653
  190SOL    HW1  588   0.078   1.193   0.741
  190SOL    HW2  589   0.161   1.212   0.602
  191SOL     OW  590   0.672   1.391   1.624
  191SOL    HW1  591   0.594   1.341   1.662
  191SOL    HW2  592   0.669   1.486   1.655
  192SOL     OW  593   1.824   0.192   1.227
  192SOL    HW1  594   1.820   0.102   1.271
  192SOL    HW2  595   1.827   0.181   1.128
  193SOL     OW  596   0.428   0.424   0.520
  193SOL    HW1  597   0.458   0.352   0.458
  193SOL    HW2  598   0.389   0.384   0.603
  194SOL     OW  599   1.705   1.487   1.104
  194SOL    HW1  600   1.612   1.462   1.077
  194SOL    HW2  601   1.731   1.437   1.186
  195SOL     OW  602   0.317   0.547   1.280
  195SOL    HW1  603   0.355   0.488   1.352
  195SOL    HW2  604   0.357   0.521   1.192
  196SOL     OW  605   0.812   1.586   0.687
  196SOL    HW1  606   0.844   1.596   0.593
  196SOL    HW2  607   0.733   1.524   0.689
  197SOL     OW  608   1.424   0.214   1.112
  197SOL    HW1  609   1.476   0.149   1.167
  197SOL    HW2  610   1.375   0.277   1.173
  198SOL     OW  611   1.001   0.034   1.154
  198SOL    HW1  612   0.938  -0.038   1.123
  198SOL    HW2  613   1.094  -0.002   1.154
  199SOL     OW  614   0.770   1.330   0.301
  199SOL    HW1  615   0.724   1.243   0.318
  199SOL    HW2  616   0.861   1.327   0.342
  200SOL     OW  617   0.618   1.567   1.284
  200SOL    HW1  618   0.613   1.649   1.341
  200SOL    HW2  619   0.707   1.564   1.239
  201SOL     OW  620   1.352   0.052   0.168
  201SOL    HW1  621   1.387   0.011   0.084
  201SOL    HW2  622   1.262   0.014   0.188
  202SOL     OW  623   1.300   0.453   0.691
  202SOL    HW1  624   1.241   0.533   0.695
  202SOL    HW2  625   1.315   0.418   0.784
  203SOL     OW  626   1.593   0.221   0.882
  203SOL    HW1  627   1.509   0.220   0.936
  203SOL    HW2  628   1.595   0.304   0.826
  204SOL     OW  629   0.039   1.077   0.300
  204SOL    HW1  630   0.138   1.066   0.291
  204SOL    HW2  631  -0.001   0.991   0.332
  205SOL     OW  632   0.875   1.646   0.337
  205SOL    HW1  633   0.798   1.611   0.283
  205SOL    HW2  634   0.843   1.717   0.399
  206SOL     OW  635   0.230   0.628   1.975
  206SOL    HW1  636   0.137   0.626   2.012
  206SOL    HW2  637   0.231   0.589   1.883
  207SOL     OW  638   0.225   0.275   2.858
  207SOL    HW1  639   0.260   0.258   2.950
  207SOL    HW2  640   0.137   0.230   2.846
  208SOL     OW  641   0.019   0.368   2.509
  208SOL    HW1  642  -0.063   0.411   2.548
  208SOL    HW2  643  -0.009   0.295   2.446
  209SOL     OW  644   1.555   1.511   2.565
  209SOL    HW1  645   1.498   1.495   2.646
  209SOL    HW2  646   1.496   1.521   2.485
  210SOL     OW  647   1.135   0.703   2.579
  210SOL    HW1  648   1.192   0.781   2.554
  210SOL    HW2  649   1.075   0.729   2.655
  211SOL     OW  650   1.755   0.607   2.093
  211SOL    HW1  651   1.743   0.594   1.994
  211SOL    HW2  652   1.725   0.526   2.142
  212SOL     OW  653   0.768   1.144   2.885
  212SOL    HW1  654   0.690   1.161   2.945
  212SOL    HW2  655   0.802   1.231   2.849
  213SOL     OW  656   0.685   1.012   2.527
  213SOL    HW1  657   0.754   0.996   2.597
  213SOL    HW2  658   0.612   1.069   2.565
  214SOL     OW  659   0.335   1.435   2.923
  214SOL    HW1  660   0.257   1.404   2.870
  214SOL    HW2  661   0.393   1.493   2.866
  215SOL     OW  662   1.603   0.447   2.599
  215SOL    HW1  663   1.529   0.493   2.549
  215SOL    HW2  664   1.654   0.515   2.652
  216SOL     OW  665   0.231   1.713   2.345
  216SOL    HW1  666   0.265   1.790   2.399
  216SOL    HW2  667   0.275   1.713   2.255
  217SOL     OW  668   0.230   1.434   2.400
  217SOL    HW1  669   0.204   1.530   2.400
  217SOL    HW2  670   0.159   1.380   2.445
  218SOL     OW  671   0.240   1.091   2.748
  218SOL    HW1  672   0.254   1.007   2.800
  218SOL    HW2  673   0.185   1.155   2.803
  219SOL     OW  674   0.606   0.964   1.985
  219SOL    HW1  675   0.613   1.048   1.931
  219SOL    HW2  676   0.652   0.977   2.073
  220SOL     OW  677   0.122   0.643   2.425
  220SOL    HW1  678   0.077   0.555   2.442
  220SOL    HW2  679   0.121   0.697   2.509
  221SOL     OW  680   1.842   1.767   2.221
  221SOL    HW1  681   1.896   1.738   2.301
  221SOL    HW2  682   1.872   1.857   2.192
  222SOL     OW  683   0.027   1.596   1.979
  222SOL    HW1  684   0.008   1.500   2.000
  222SOL    HW2  685  -0.006   1.654   2.054
  223SOL     OW  686   1.689   0.922   2.474
  223SOL    HW1  687   1.784   0.893   2.482
  223SOL    HW2  688   1.681   0.987   2.399
  224SOL     OW  689   1.641   1.108   2.294
  224SOL    HW1  690   1.727   1.110   2.242
  224SOL    HW2  691   1.655   1.155   2.382
  225SOL     OW  692   0.613   1.365   2.588
  225SOL    HW1  693   0.564   1.278   2.597
  225SOL    HW2  694   0.590   1.408   2.501
  226SOL     OW  695   0.809   0.004   2.364
  226SOL    HW1  696   0.849   0.095   2.355
  226SOL    HW2  697   0.709   0.012   2.370
  227SOL     OW  698   1.525   0.999   2.052
  227SOL    HW1  699   1.462   0.923   2.065
  227SOL    HW2  700   1.573   1.017   2.138
  228SOL     OW  701   1.466   1.417   2.815
  228SOL    HW1  702   1.407   1.423   2.895
  228SOL    HW2  703   1.451   1.329   2.769
  229SOL     OW  704   1.667   1.714   2.434
  229SOL    HW1  705   1.626   1.691   2.346
  229SOL    HW2  706   1.649   1.640   2.499
  230SOL     OW  707   0.598   0.729   2.132
  230SOL    HW1  708   0.622   0.798   2.064
  230SOL    HW2  709   0.520   0.762   2.186
  231SOL     OW  710   1.281   0.345   2.806
  231SOL    HW1  711   1.195   0.295   2.793
  231SOL    HW2  712   1.343   0.291   2.862
  232SOL     OW  713   1.576   1.662   2.169
  232SOL    HW1  714   1.665   1.708   2.172
  232SOL    HW2  715   1.555   1.638   2.074
  233SOL     OW  716   1.041   0.701   2.291
  233SOL    HW1  717   1.067   0.697   2.387
  233SOL    HW2  718   0.956   0.650   2.277
  234SOL     OW  719   0.076   0.811   2.651
  234SOL    HW1  720   0.175   0.799   2.660
  234SOL    HW2  721   0.052   0.906   2.672
  235SOL     OW  722   0.865   0.348   2.057
  235SOL    HW1  723   0.924   0.411   2.008
  235SOL    HW2  724   0.884   0.254   2.028
  236SOL     OW  725   1.362   1.144   2.407
  236SOL    HW1  726   1.445   1.115   2.359
  236SOL    HW2  727   1.313   1.211   2.351
  237SOL     OW  728   0.550   0.196   2.747
  237SOL    HW1  729   0.545   0.191   2.847
  237SOL    HW2  730   0.552   0.292   2.718
  238SOL     OW  731   1.008   1.456   2.339
  238SOL    HW1  732   0.962   1.528   2.287
  238SOL    HW2  733   1.004   1.476   2.437
  239SOL     OW  734   0.351   1.801   2.715
  239SOL    HW1  735   0.401   1.715   2.721
  239SOL    HW2  736   0.416   1.878   2.712
  240SOL     OW  737   1.795   1.066   2.735
  240SOL    HW1  738   1.733   1.051   2.659
  240SOL    HW2  739   1.743   1.077   2.820
  241SOL     OW  740   0.321   0.943   2.104
  241SOL    HW1  741   0.403   0.982   2.062
  241SOL    HW2  742   0.294   0.861   2.055
  242SOL     OW  743   1.458   0.735   2.590
  242SOL    HW1  744   1.453   0.670   2.665
  242SOL    HW2  745   1.538   0.794   2.603
  243SOL     OW  746   1.111   1.776   2.099
  243SOL    HW1  747   1.051   1.714   2.149
  243SOL    HW2  748   1.142   1.732   2.014
  244SOL     OW  749   1.632   1.377   1.943
  244SOL    HW1  750   1.600   1.471   1.933
  244SOL    HW2  751   1.556   1.314   1.931
  245SOL     OW  752   0.464   1.743   2.185
  245SOL    HW1  753   0.497   1.782   2.271
  245SOL    HW2  754   0.540   1.736   2.120
  246SOL     OW  755   1.400   0.107   2.288
  246SOL    HW1  756   1.376   0.070   2.198
  246SOL    HW2  757   1.499   0.123   2.292
  247SOL     OW  758   0.249   1.785   3.103
  247SOL    HW1  759   0.306   1.720   3.153
  247SOL    HW2  760   0.233   1.752   3.010
  248SOL     OW  761   0.940   1.698   2.766
  248SOL    HW1  762   1.020   1.641   2.787
  248SOL    HW2  763   0.891   1.658   2.689
  249SOL     OW  764   0.382   0.700   2.342
  249SOL    HW1  765   0.427   0.610   2.339
  249SOL    HW2  766   0.288   0.689   2.375
  250SOL     OW  767   0.614   0.122   1.979
  250SOL    HW1  768   0.712   0.100   1.986
  250SOL    HW2  769   0.583   0.105   1.886
  251SOL     OW  770   0.803   1.402   2.786
  251SOL    HW1  771   0.893   1.416   2.744
  251SOL    HW2  772   0.732   1.404   2.715
  252SOL     OW  773   0.922   0.503   2.761
  252SOL    HW1  774   0.897   0.494   2.665
  252SOL    HW2  775   0.970   0.421   2.792
  253SOL     OW  776   0.539   0.064   2.374
  253SOL    HW1  777   0.458   0.065   2.432
  253SOL    HW2  778   0.542   0.147   2.319
  254SOL     OW  779   1.434   1.188   1.903
  254SOL    HW1  780   1.466   1.112   1.960
  254SOL    HW2  781   1.342   1.215   1.933
  255SOL     OW  782   0.297   0.035   2.033
  255SOL    HW1  783   0.346   0.119   2.012
  255SOL    HW2  784   0.359  -0.030   2.078
  256SOL     OW  785   0.935   0.236   2.342
  256SOL    HW1  786   0.887   0.277   2.264
  256SOL    HW2  787   1.034   0.234   2.323
  257SOL     OW  788   1.227   1.570   2.655
  257SOL    HW1  789   1.248   1.644   2.590
  257SOL    HW2  790   1.295   1.570   2.728
  258SOL     OW  791   0.459   1.152   2.603
  258SOL    HW1  792   0.388   1.125   2.668
  258SOL    HW2  793   0.433   1.124   2.510
  259SOL     OW  794   1.271   1.797   2.453
  259SOL    HW1  795   1.315   1.861   2.389
  259SOL    HW2  796   1.221   1.849   2.523
  260SOL     OW  797   1.032   0.549   1.878
  260SOL    HW1  798   0.991   0.631   1.839
  260SOL    HW2  799   1.096   0.575   1.951
  261SOL     OW  800   0.866   0.454   2.504
  261SOL    HW1  801   0.834   0.526   2.442
  261SOL    HW2  802   0.890   0.373   2.451
  262SOL     OW  803   1.017   0.039   2.615
  262SOL    HW1  804   0.945   0.044   2.546
  262SOL    HW2  805   0.993  -0.030   2.684
  263SOL     OW  806   1.429   1.173   2.729
  263SOL    HW1  807   1.374   1.089   2.722
  263SOL    HW2  808   1.455   1.202   2.637
  264SOL     OW  809   1.466   0.590   2.854
  264SOL    HW1  810   1.436   0.495   2.861
  264SOL    HW2  811   1.539   0.606   2.920
  265SOL     OW  812   1.857   0.833   2.239
  265SOL    HW1  813   1.899   0.769   2.303
  265SOL    HW2  814   1.819   0.782   2.161
  266SOL     OW  815   0.488   1.385   2.036
  266SOL    HW1  816   0.401   1.370   2.083
  266SOL    HW2  817   0.471   1.411   1.941
  267SOL     OW  818   1.664   1.280   2.519
  267SOL    HW1  819   1.763   1.288   2.533
  267SOL    HW2  820   1.619   1.364   2.550
  268SOL     OW  821   1.390   0.575   1.940
  268SOL    HW1  822   1.336   0.554   2.021
  268SOL    HW2  823   1.481   0.534   1.949
  269SOL     OW  824   0.527   0.256   2.190
  269SOL    HW1  825   0.554   0.197   2.115
  269SOL    HW2  826   0.527   0.351   2.159
  270SOL     OW  827   1.638   1.099   2.941
  270SOL    HW1  828   1.643   1.180   3.000
  270SOL    HW2  829   1.552   1.101   2.890
  271SOL     OW  830   0.705   1.050   2.230
  271SOL    HW1  831   0.691   1.057   2.329
  271SOL    HW2  832   0.789   0.999   2.212
  272SOL     OW  833   0.367   1.100   2.363
  272SOL    HW1  834   0.360   1.183   2.307
  272SOL    HW2  835   0.371   1.020   2.303
  273SOL     OW  836   0.566   0.537   2.727
  273SOL    HW1  837   0.578   0.603   2.653
  273SOL    HW2  838   0.612   0.571   2.810
  274SOL     OW  839   1.252   1.348   2.250
  274SOL    HW1  840   1.302   1.425   2.290
  274SOL    HW2  841   1.157   1.350   2.282
  275SOL     OW  842   1.582   0.639   2.334
  275SOL    HW1  843   1.551   0.700   2.407
  275SOL    HW2  844   1.632   0.691   2.265
  276SOL     OW  845   0.573   0.870   2.891
  276SOL    HW1  846   0.617   0.959   2.882
  276SOL    HW2  847   0.510   0.870   2.968
  277SOL     OW  848   1.209   0.525   2.137
  277SOL    HW1  849   1.222   0.441   2.191
  277SOL    HW2  850   1.180   0.599   2.197
  278SOL     OW  851   0.732   0.634   2.926
  278SOL    HW1  852   0.791   0.608   2.850
  278SOL    HW2  853   0.704   0.730   2.915
  279SOL     OW  854   0.307   0.063   2.480
  279SOL    HW1  855   0.296   0.157   2.513
  279SOL    HW2  856   0.302   0.000   2.557
  280SOL     OW  857   1.622   0.367   2.236
  280SOL    HW1  858   1.624   0.291   2.300
  280SOL    HW2  859   1.574   0.444   2.276
  281SOL     OW  860   1.540   0.274   1.987
  281SOL    HW1  861   1.479   0.199   2.010
  281SOL    HW2  862   1.562   0.326   2.070
  282SOL     OW  863   1.303   0.838   1.904
  282SOL    HW1  864   1.337   0.745   1.919
  282SOL    HW2  865   1.321   0.865   1.809
  283SOL     OW  866   1.068   1.333   2.711
  283SOL    HW1  867   1.075   1.249   2.656
  283SOL    HW2  868   1.130   1.402   2.675
  284SOL     OW  869   0.319   0.810   2.811
  284SOL    HW1  870   0.412   0.846   2.816
  284SOL    HW2  871   0.313   0.725   2.863
  285SOL     OW  872   0.339   0.509   2.868
  285SOL    HW1  873   0.287   0.426   2.851
  285SOL    HW2  874   0.416   0.514   2.804
  286SOL     OW  875   0.008   1.326   2.062
  286SOL    HW1  876  -0.085   1.347   2.031
  286SOL    HW2  877   0.018   1.227   2.075
  287SOL     OW  878   0.088   1.801   2.789
  287SOL    HW1  879   0.046   1.715   2.762
  287SOL    HW2  880   0.182   1.804   2.755
  288SOL     OW  881   0.504   1.568   2.772
  288SOL    HW1  882   0.570   1.642   2.781
  288SOL    HW2  883   0.548   1.489   2.730
  289SOL     OW  884   1.002   0.796   3.100
  289SOL    HW1  885   1.043   0.764   3.186
  289SOL    HW2  886   0.906   0.769   3.097
  290SOL     OW  887   0.815   0.572   2.187
  290SOL    HW1  888   0.822   0.483   2.141
  290SOL    HW2  889   0.721   0.606   2.179
  291SOL     OW  890   0.671   0.464   3.131
  291SOL    HW1  891   0.637   0.375   3.101
  291SOL    HW2  892   0.697   0.518   3.051
  292SOL     OW  893   0.473   0.500   2.053
  292SOL    HW1  894   0.534   0.580   2.057
  292SOL    HW2  895   0.378   0.531   2.060
  293SOL     OW  896   1.302   0.855   2.171
  293SOL    HW1  897   1.216   0.824   2.213
  293SOL    HW2  898   1.298   0.841   2.072
  294SOL     OW  899   1.759   1.747   3.016
  294SOL    HW1  900   1.820   1.777   2.943
  294SOL    HW2  901   1.721   1.658   2.994
  295SOL     OW  902   0.083   1.258   2.884
  295SOL    HW1  903   0.078   1.257   2.984
  295SOL    HW2  904   0.000   1.217   2.846
  296SOL     OW  905   1.726   0.135   2.385
  296SOL    HW1  906   1.799   0.118   2.318
  296SOL    HW2  907   1.695   0.048   2.423
  297SOL     OW  908   1.388   1.573   2.339
  297SOL    HW1  909   1.455   1.585   2.265
  297SOL    HW2  910   1.348   1.662   2.362
  298SOL     OW  911   1.280   0.927   2.534
  298SOL    HW1  912   1.340   0.846   2.536
  298SOL    HW2  913   1.320   0.996   2.474
  299SOL     OW  914   0.672   1.616   2.016
  299SOL    HW1  915   0.681   1.626   1.917
  299SOL    HW2  916   0.632   1.527   2.037
  300SOL     OW  917   1.841   0.175   2.825
  300SOL    HW1  918   1.880   0.090   2.789
  300SOL    HW2  919   1.743   0.177   2.806
  301SOL     OW  920   0.263   0.326   2.582
  301SOL    HW1  921   0.184   0.377   2.548
  301SOL    HW2  922   0.254   0.311   2.680
  302SOL     OW  923   1.194   1.612   1.893
  302SOL    HW1  924   1.200   1.519   1.930
  302SOL    HW2  925   1.135   1.612   1.813
  303SOL     OW  926   0.916   0.910   2.153
  303SOL    HW1  927   0.979   0.948   2.085
  303SOL    HW2  928   0.956   0.827   2.192
  304SOL     OW  929   1.504   1.607   1.906
  304SOL    HW1  930   1.412   1.644   1.913
  304SOL    HW2  931   1.542   1.627   1.816
  305SOL     OW  932   1.039   1.098   2.558
  305SOL    HW1  933   0.969   1.051   2.612
  305SOL    HW2  934   1.098   1.030   2.515
  306SOL     OW  935   0.590   1.487   2.353
  306SOL    HW1  936   0.632   1.429   2.283
  306SOL    HW2  937   0.546   1.566   2.309
  307SOL     OW  938   0.255   1.348   2.152
  307SOL    HW1  939   0.159   1.349   2.125
  307SOL    HW2  940   0.267   1.401   2.236
  308SOL     OW  941   0.075   0.345   1.895
  308SOL    HW1  942  -0.017   0.317   1.866
  308SOL    HW2  943   0.106   0.422   1.839
  309SOL     OW  944   0.072   0.166   2.180
  309SOL    HW1  945   0.055   0.249   2.126
  309SOL    HW2  946   0.162   0.129   2.158
  310SOL     OW  947   1.183   1.335   1.981
  310SOL    HW1  948   1.084   1.324   1.983
  310SOL    HW2  949   1.217   1.350   2.074
  311SOL     OW  950   1.674   0.883   3.116
  311SOL    HW1  951   1.647   0.794   3.079
  311SOL    HW2  952   1.675   0.951   3.043
  312SOL     OW  953   1.225   0.325   2.311
  312SOL    HW1  954   1.290   0.251   2.300
  312SOL    HW2  955   1.245   0.375   2.395
  313SOL     OW  956   0.594   0.745   2.514
  313SOL    HW1  957   0.644   0.830   2.495
  313SOL    HW2  958   0.506   0.747   2.466
  314SOL     OW  959   0.859   1.374   1.878
  314SOL    HW1  960   0.813   1.389   1.966
  314SOL    HW2  961   0.903   1.459   1.848
  315SOL     OW  962   0.661   1.790   2.815
  315SOL    HW1  963   0.615   1.878   2.802
  315SOL    HW2  964   0.760   1.802   2.808
  316SOL     OW  965   0.859   0.956   2.723
  316SOL    HW1  966   0.913   0.887   2.771
  316SOL    HW2  967   0.827   1.025   2.789
  317SOL     OW  968   1.083   0.984   1.949
  317SOL    HW1  969   1.060   1.037   1.867
  317SOL    HW2  970   1.164   0.928   1.930
  318SOL     OW  971   1.861   1.569   2.713
  318SOL    HW1  972   1.790   1.557   2.643
  318SOL    HW2  973   1.862   1.490   2.773
  319SOL     OW  974   0.079   1.240   2.515
  319SOL    HW1  975   0.078   1.193   2.603
  319SOL    HW2  976   0.161   1.212   2.464
  320SOL     OW  977   1.824   0.192   3.089
  320SOL    HW1  978   1.820   0.102   3.133
  320SOL    HW2  979   1.827   0.181   2.990
  321SOL     OW  980   0.428   0.424   2.382
  321SOL    HW1  981   0.458   0.352   2.320
  321SOL    HW2  982   0.389   0.384   2.465
  322SOL     OW  983   0.812   1.586   2.549
  322SOL    HW1  984   0.844   1.596   2.455
  322SOL    HW2  985   0.733   1.524   2.551
  323SOL     OW  986   0.770   1.330   2.163
  323SOL    HW1  987   0.724   1.243   2.180
  323SOL    HW2  988   0.861   1.327   2.204
  324SOL     OW  989   1.352   0.052   2.030
  324SOL    HW1  990   1.387   0.011   1.946
  324SOL    HW2  991   1.262   0.014   2.050
  325SOL     OW  992   1.300   0.453   2.553
  325SOL    HW1  993   1.241   0.533   2.557
  325SOL    HW2  994   1.315   0.418   2.646
  326SOL     OW  995   1.593   0.221   2.744
  326SOL    HW1  996   1.509   0.220   2.798
  326SOL    HW2  997   1.595   0.304   2.688
  327SOL     OW  998   0.039   1.077   2.162
  327SOL    HW1  999   0.138   1.066   2.153
  327SOL    HW2 1000  -0.001   0.991   2.194
  328SOL     OW 1001   0.875   1.646   2.199
  328SOL    HW1 1002   0.798   1.611   2.145
  328SOL    HW2 1003   0.843   1.717   2.261
  329SOL     OW 1004   0.230   2.490   0.113
  329SOL    HW1 1005   0.137   2.488   0.150
  329SOL    HW2 1006   0.231   2.451   0.021
  330SOL     OW 1007   0.225   2.137   0.996
  330SOL    HW1 1008   0.260   2.120   1.088
  330SOL    HW2 1009   0.137   2.092   0.984
  331SOL     OW 1010   0.019   2.230   0.647
  331SOL    HW1 1011  -0.063   2.273   0.686
  331SOL    HW2 1012  -0.009   2.157   0.584
  332SOL     OW 1013   1.135   2.565   0.717
  332SOL    HW1 1014   1.192   2.643   0.692
  332SOL    HW2 1015   1.075   2.591   0.793
  333SOL     OW 1016   1.755   2.469   0.231
  333SOL    HW1 1017   1.743   2.456   0.132
  333SOL    HW2 1018   1.725   2.388   0.280
  334SOL     OW 1019   0.768   3.006   1.023
  334SOL    HW1 1020   0.690   3.023   1.083
  334SOL    HW2 1021   0.802   3.093   0.987
  335SOL     OW 1022   0.850   2.660   1.823
  335SOL    HW1 1023   0.846   2.736   1.888
  335SOL    HW2 1024   0.872   2.696   1.732
  336SOL     OW 1025   0.685   2.874   0.665
  336SOL    HW1 1026   0.754   2.858   0.735
  336SOL    HW2 1027   0.612   2.931   0.703
  337SOL     OW 1028   0.438   2.254   1.499
  337SOL    HW1 1029   0.520   2.198   1.508
  337SOL    HW2 1030   0.357   2.196   1.503
  338SOL     OW 1031   1.603   2.309   0.737
  338SOL    HW1 1032   1.529   2.355   0.687
  338SOL    HW2 1033   1.654   2.377   0.790
  339SOL     OW 1034   0.240   2.953   0.886
  339SOL    HW1 1035   0.254   2.869   0.938
  339SOL    HW2 1036   0.185   3.017   0.941
  340SOL     OW 1037   0.606   2.826   0.123
  340SOL    HW1 1038   0.613   2.910   0.069
  340SOL    HW2 1039   0.652   2.839   0.211
  341SOL     OW 1040   1.594   1.976   1.480
  341SOL    HW1 1041   1.576   2.043   1.408
  341SOL    HW2 1042   1.591   2.022   1.569
  342SOL     OW 1043   0.122   2.505   0.563
  342SOL    HW1 1044   0.077   2.417   0.580
  342SOL    HW2 1045   0.121   2.559   0.647
  343SOL     OW 1046   1.689   2.784   0.612
  343SOL    HW1 1047   1.784   2.755   0.620
  343SOL    HW2 1048   1.681   2.849   0.537
  344SOL     OW 1049   0.113   2.599   1.597
  344SOL    HW1 1050   0.201   2.586   1.642
  344SOL    HW2 1051   0.100   2.696   1.575
  345SOL     OW 1052   0.809   1.866   0.502
  345SOL    HW1 1053   0.849   1.957   0.493
  345SOL    HW2 1054   0.709   1.874   0.508
  346SOL     OW 1055   0.197   2.838   1.264
  346SOL    HW1 1056   0.286   2.793   1.250
  346SOL    HW2 1057   0.124   2.773   1.245
  347SOL     OW 1058   1.525   2.861   0.190
  347SOL    HW1 1059   1.462   2.785   0.203
  347SOL    HW2 1060   1.573   2.879   0.276
  348SOL     OW 1061   0.317   2.113   1.801
  348SOL    HW1 1062   0.388   2.184   1.807
  348SOL    HW2 1063   0.229   2.152   1.829
  349SOL     OW 1064   0.598   2.591   0.270
  349SOL    HW1 1065   0.622   2.660   0.202
  349SOL    HW2 1066   0.520   2.624   0.324
  350SOL     OW 1067   1.281   2.207   0.944
  350SOL    HW1 1068   1.195   2.157   0.931
  350SOL    HW2 1069   1.343   2.153   1.000
  351SOL     OW 1070   0.807   2.467   1.465
  351SOL    HW1 1071   0.760   2.464   1.554
  351SOL    HW2 1072   0.756   2.412   1.399
  352SOL     OW 1073   1.394   2.331   1.674
  352SOL    HW1 1074   1.374   2.374   1.762
  352SOL    HW2 1075   1.472   2.269   1.683
  353SOL     OW 1076   0.973   2.752   1.572
  353SOL    HW1 1077   1.019   2.668   1.543
  353SOL    HW2 1078   0.917   2.786   1.497
  354SOL     OW 1079   0.991   2.272   1.242
  354SOL    HW1 1080   0.914   2.306   1.296
  354SOL    HW2 1081   0.957   2.221   1.163
  355SOL     OW 1082   1.041   2.563   0.429
  355SOL    HW1 1083   1.067   2.559   0.525
  355SOL    HW2 1084   0.956   2.512   0.415
  356SOL     OW 1085   0.076   2.673   0.789
  356SOL    HW1 1086   0.175   2.661   0.798
  356SOL    HW2 1087   0.052   2.768   0.810
  357SOL     OW 1088   0.865   2.210   0.195
  357SOL    HW1 1089   0.924   2.273   0.146
  357SOL    HW2 1090   0.884   2.116   0.166
  358SOL     OW 1091   1.719   2.447   1.831
  358SOL    HW1 1092   1.693   2.536   1.795
  358SOL    HW2 1093   1.717   2.379   1.758
  359SOL     OW 1094   0.550   2.058   0.885
  359SOL    HW1 1095   0.545   2.053   0.985
  359SOL    HW2 1096   0.552   2.154   0.856
  360SOL     OW 1097   1.458   2.597   0.728
  360SOL    HW1 1098   1.453   2.532   0.803
  360SOL    HW2 1099   1.538   2.656   0.741
  361SOL     OW 1100   0.202   2.147   1.498
  361SOL    HW1 1101   0.122   2.207   1.485
  361SOL    HW2 1102   0.192   2.098   1.584
  362SOL     OW 1103   1.400   1.969   0.426
  362SOL    HW1 1104   1.376   1.932   0.336
  362SOL    HW2 1105   1.499   1.985   0.430
  363SOL     OW 1106   0.382   2.562   0.480
  363SOL    HW1 1107   0.427   2.472   0.477
  363SOL    HW2 1108   0.288   2.551   0.513
  364SOL     OW 1109   1.547   2.084   1.729
  364SOL    HW1 1110   1.542   2.121   1.821
  364SOL    HW2 1111   1.475   2.015   1.717
  365SOL     OW 1112   0.614   1.984   0.117
  365SOL    HW1 1113   0.712   1.962   0.124
  365SOL    HW2 1114   0.583   1.967   0.024
  366SOL     OW 1115   0.781   2.126   1.749
  366SOL    HW1 1116   0.848   2.065   1.792
  366SOL    HW2 1117   0.708   2.145   1.814
  367SOL     OW 1118   1.351   2.452   1.433
  367SOL    HW1 1119   1.379   2.409   1.518
  367SOL    HW2 1120   1.376   2.548   1.434
  368SOL     OW 1121   0.922   2.365   0.899
  368SOL    HW1 1122   0.897   2.356   0.803
  368SOL    HW2 1123   0.970   2.283   0.930
  369SOL     OW 1124   0.539   1.926   0.512
  369SOL    HW1 1125   0.458   1.927   0.570
  369SOL    HW2 1126   0.542   2.009   0.457
  370SOL     OW 1127   0.935   2.098   0.480
  370SOL    HW1 1128   0.887   2.139   0.402
  370SOL    HW2 1129   1.034   2.096   0.461
  371SOL     OW 1130   1.076   2.545   1.464
  371SOL    HW1 1131   0.996   2.484   1.467
  371SOL    HW2 1132   1.157   2.492   1.440
  372SOL     OW 1133   1.032   2.411   0.016
  372SOL    HW1 1134   0.991   2.493  -0.023
  372SOL    HW2 1135   1.096   2.437   0.089
  373SOL     OW 1136   0.078   2.418   1.386
  373SOL    HW1 1137   0.170   2.417   1.345
  373SOL    HW2 1138   0.072   2.492   1.453
  374SOL     OW 1139   0.561   2.084   1.147
  374SOL    HW1 1140   0.599   2.000   1.184
  374SOL    HW2 1141   0.473   2.103   1.191
  375SOL     OW 1142   0.866   2.316   0.642
  375SOL    HW1 1143   0.834   2.388   0.580
  375SOL    HW2 1144   0.890   2.235   0.589
  376SOL     OW 1145   1.017   1.901   0.753
  376SOL    HW1 1146   0.945   1.906   0.684
  376SOL    HW2 1147   0.993   1.832   0.822
  377SOL     OW 1148   1.429   3.035   0.867
  377SOL    HW1 1149   1.374   2.951   0.860
  377SOL    HW2 1150   1.455   3.064   0.775
  378SOL     OW 1151   1.466   2.452   0.992
  378SOL    HW1 1152   1.436   2.357   0.999
  378SOL    HW2 1153   1.539   2.468   1.058
  379SOL     OW 1154   1.857   2.695   0.377
  379SOL    HW1 1155   1.899   2.631   0.441
  379SOL    HW2 1156   1.819   2.644   0.299
  380SOL     OW 1157   1.390   2.437   0.078
  380SOL    HW1 1158   1.336   2.416   0.159
  380SOL    HW2 1159   1.481   2.396   0.087
  381SOL     OW 1160   0.527   2.118   0.328
  381SOL    HW1 1161   0.554   2.059   0.253
  381SOL    HW2 1162   0.527   2.213   0.297
  382SOL     OW 1163   1.638   2.961   1.079
  382SOL    HW1 1164   1.643   3.042   1.138
  382SOL    HW2 1165   1.552   2.963   1.028
  383SOL     OW 1166   0.915   1.951   1.402
  383SOL    HW1 1167   0.940   1.931   1.307
  383SOL    HW2 1168   0.987   2.007   1.444
  384SOL     OW 1169   0.410   2.675   1.251
  384SOL    HW1 1170   0.496   2.687   1.301
  384SOL    HW2 1171   0.368   2.588   1.278
  385SOL     OW 1172   1.274   2.248   1.262
  385SOL    HW1 1173   1.295   2.322   1.326
  385SOL    HW2 1174   1.185   2.265   1.219
  386SOL     OW 1175   0.566   2.399   0.865
  386SOL    HW1 1176   0.578   2.465   0.791
  386SOL    HW2 1177   0.612   2.433   0.948
  387SOL     OW 1178   1.582   2.501   0.472
  387SOL    HW1 1179   1.551   2.562   0.545
  387SOL    HW2 1180   1.632   2.553   0.403
  388SOL     OW 1181   0.402   2.613   1.598
  388SOL    HW1 1182   0.470   2.668   1.551
  388SOL    HW2 1183   0.442   2.525   1.625
  389SOL     OW 1184   1.587   2.641   1.670
  389SOL    HW1 1185   1.495   2.679   1.665
  389SOL    HW2 1186   1.647   2.688   1.605
  390SOL     OW 1187   1.013   1.967   1.770
  390SOL    HW1 1188   1.019   2.052   1.718
  390SOL    HW2 1189   1.045   1.891   1.713
  391SOL     OW 1190   0.504   1.912   1.740
  391SOL    HW1 1191   0.462   1.855   1.670
  391SOL    HW2 1192   0.438   1.981   1.772
  392SOL     OW 1193   0.573   2.732   1.029
  392SOL    HW1 1194   0.617   2.821   1.020
  392SOL    HW2 1195   0.510   2.732   1.106
  393SOL     OW 1196   1.360   2.724   1.045
  393SOL    HW1 1197   1.285   2.724   0.979
  393SOL    HW2 1198   1.397   2.632   1.054
  394SOL     OW 1199   1.209   2.387   0.275
  394SOL    HW1 1200   1.222   2.303   0.329
  394SOL    HW2 1201   1.180   2.461   0.335
  395SOL     OW 1202   0.307   2.075   1.231
  395SOL    HW1 1203   0.284   2.112   1.321
  395SOL    HW2 1204   0.277   1.980   1.225
  396SOL     OW 1205   0.037   3.172   1.282
  396SOL    HW1 1206   0.090   3.123   1.350
  396SOL    HW2 1207   0.059   3.270   1.287
  397SOL     OW 1208   0.732   2.496   1.064
  397SOL    HW1 1209   0.791   2.470   0.988
  397SOL    HW2 1210   0.704   2.592   1.053
  398SOL     OW 1211   1.728   2.797   1.854
  398SOL    HW1 1212   1.682   2.790   1.765
  398SOL    HW2 1213   1.666   2.841   1.920
  399SOL     OW 1214   0.307   1.925   0.618
  399SOL    HW1 1215   0.296   2.019   0.651
  399SOL    HW2 1216   0.302   1.862   0.695
  400SOL     OW 1217   1.622   2.229   0.374
  400SOL    HW1 1218   1.624   2.153   0.438
  400SOL    HW2 1219   1.574   2.306   0.414
  401SOL     OW 1220   1.023   2.628   0.966
  401SOL    HW1 1221   1.038   2.649   1.062
  401SOL    HW2 1222   0.993   2.533   0.957
  402SOL     OW 1223   0.350   2.760   1.804
  402SOL    HW1 1224   0.426   2.804   1.852
  402SOL    HW2 1225   0.385   2.713   1.722
  403SOL     OW 1226   1.540   2.136   0.125
  403SOL    HW1 1227   1.479   2.061   0.148
  403SOL    HW2 1228   1.562   2.188   0.208
  404SOL     OW 1229   1.303   2.700   0.042
  404SOL    HW1 1230   1.337   2.607   0.057
  404SOL    HW2 1231   1.321   2.727  -0.053
  405SOL     OW 1232   0.319   2.672   0.949
  405SOL    HW1 1233   0.412   2.708   0.954
  405SOL    HW2 1234   0.313   2.587   1.001
  406SOL     OW 1235   0.339   2.371   1.006
  406SOL    HW1 1236   0.287   2.288   0.989
  406SOL    HW2 1237   0.416   2.376   0.942
  407SOL     OW 1238   1.138   2.242   1.678
  407SOL    HW1 1239   1.093   2.305   1.742
  407SOL    HW2 1240   1.231   2.273   1.661
  408SOL     OW 1241   1.160   2.069   1.477
  408SOL    HW1 1242   1.160   2.133   1.554
  408SOL    HW2 1243   1.188   2.117   1.394
  409SOL     OW 1244   1.002   2.658   1.238
  409SOL    HW1 1245   1.043   2.626   1.324
  409SOL    HW2 1246   0.906   2.631   1.235
  410SOL     OW 1247   0.040   2.406   1.114
  410SOL    HW1 1248   0.125   2.373   1.073
  410SOL    HW2 1249   0.053   2.421   1.212
  411SOL     OW 1250   0.189   2.382   1.722
  411SOL    HW1 1251   0.248   2.342   1.652
  411SOL    HW2 1252   0.131   2.453   1.681
  412SOL     OW 1253   1.369   2.812   1.660
  412SOL    HW1 1254   1.408   2.901   1.680
  412SOL    HW2 1255   1.379   2.792   1.563
  413SOL     OW 1256   0.815   2.434   0.325
  413SOL    HW1 1257   0.822   2.345   0.279
  413SOL    HW2 1258   0.721   2.468   0.317
  414SOL     OW 1259   1.657   2.466   1.206
  414SOL    HW1 1260   1.619   2.397   1.268
  414SOL    HW2 1261   1.739   2.430   1.162
  415SOL     OW 1262   0.671   2.326   1.269
  415SOL    HW1 1263   0.637   2.237   1.239
  415SOL    HW2 1264   0.697   2.380   1.189
  416SOL     OW 1265   0.473   2.362   0.191
  416SOL    HW1 1266   0.534   2.442   0.195
  416SOL    HW2 1267   0.378   2.393   0.198
  417SOL     OW 1268   0.159   2.999   1.466
  417SOL    HW1 1269   0.181   2.938   1.542
  417SOL    HW2 1270   0.169   2.950   1.380
  418SOL     OW 1271   1.347   2.921   1.234
  418SOL    HW1 1272   1.371   2.858   1.160
  418SOL    HW2 1273   1.257   2.961   1.216
  419SOL     OW 1274   1.302   2.717   0.309
  419SOL    HW1 1275   1.216   2.686   0.351
  419SOL    HW2 1276   1.298   2.703   0.210
  420SOL     OW 1277   0.903   1.948   0.133
  420SOL    HW1 1278   0.954   1.949   0.047
  420SOL    HW2 1279   0.959   1.906   0.204
  421SOL     OW 1280   1.726   1.997   0.523
  421SOL    HW1 1281   1.799   1.980   0.456
  421SOL    HW2 1282   1.695   1.910   0.561
  422SOL     OW 1283   1.280   2.789   0.672
  422SOL    HW1 1284   1.340   2.708   0.674
  422SOL    HW2 1285   1.320   2.858   0.612
  423SOL     OW 1286   1.841   2.037   0.963
  423SOL    HW1 1287   1.880   1.952   0.927
  423SOL    HW2 1288   1.743   2.039   0.944
  424SOL     OW 1289   0.263   2.188   0.720
  424SOL    HW1 1290   0.184   2.239   0.686
  424SOL    HW2 1291   0.254   2.173   0.818
  425SOL     OW 1292   0.916   2.772   0.291
  425SOL    HW1 1293   0.979   2.810   0.223
  425SOL    HW2 1294   0.956   2.689   0.330
  426SOL     OW 1295   1.014   2.098   0.971
  426SOL    HW1 1296   1.006   2.062   0.878
  426SOL    HW2 1297   1.012   2.022   1.036
  427SOL     OW 1298   1.709   2.247   1.381
  427SOL    HW1 1299   1.782   2.316   1.385
  427SOL    HW2 1300   1.737   2.172   1.322
  428SOL     OW 1301   0.105   2.875   1.726
  428SOL    HW1 1302   0.028   2.842   1.780
  428SOL    HW2 1303   0.190   2.845   1.768
  429SOL     OW 1304   0.672   2.065   1.489
  429SOL    HW1 1305   0.762   2.049   1.449
  429SOL    HW2 1306   0.680   2.070   1.588
  430SOL     OW 1307   0.075   2.207   0.033
  430SOL    HW1 1308  -0.017   2.179   0.004
  430SOL    HW2 1309   0.106   2.284  -0.023
  431SOL     OW 1310   1.440   2.718   1.398
  431SOL    HW1 1311   1.383   2.770   1.335
  431SOL    HW2 1312   1.536   2.730   1.374
  432SOL     OW 1313   0.072   2.028   0.318
  432SOL    HW1 1314   0.055   2.111   0.264
  432SOL    HW2 1315   0.162   1.991   0.296
  433SOL     OW 1316   1.183   3.197   0.119
  433SOL    HW1 1317   1.084   3.186   0.121
  433SOL    HW2 1318   1.217   3.212   0.212
  434SOL     OW 1319   0.613   2.704   1.431
  434SOL    HW1 1320   0.669   2.785   1.414
  434SOL    HW2 1321   0.672   2.624   1.434
  435SOL     OW 1322   0.716   2.427   1.708
  435SOL    HW1 1323   0.735   2.492   1.782
  435SOL    HW2 1324   0.776   2.347   1.717
  436SOL     OW 1325   1.674   2.745   1.254
  436SOL    HW1 1326   1.647   2.656   1.217
  436SOL    HW2 1327   1.675   2.813   1.181
  437SOL     OW 1328   1.225   2.187   0.449
  437SOL    HW1 1329   1.290   2.113   0.438
  437SOL    HW2 1330   1.245   2.237   0.533
  438SOL     OW 1331   0.594   2.607   0.652
  438SOL    HW1 1332   0.644   2.692   0.633
  438SOL    HW2 1333   0.506   2.609   0.604
  439SOL     OW 1334   1.777   2.204   1.642
  439SOL    HW1 1335   1.760   2.235   1.548
  439SOL    HW2 1336   1.693   2.167   1.680
  440SOL     OW 1337   1.730   2.796   1.517
  440SOL    HW1 1338   1.768   2.887   1.532
  440SOL    HW2 1339   1.722   2.779   1.418
  441SOL     OW 1340   0.859   2.818   0.861
  441SOL    HW1 1341   0.913   2.749   0.909
  441SOL    HW2 1342   0.827   2.887   0.927
  442SOL     OW 1343   1.083   2.846   0.087
  442SOL    HW1 1344   1.060   2.899   0.005
  442SOL    HW2 1345   1.164   2.790   0.068
  443SOL     OW 1346   0.079   3.102   0.653
  443SOL    HW1 1347   0.078   3.055   0.741
  443SOL    HW2 1348   0.161   3.074   0.602
  444SOL     OW 1349   1.824   2.054   1.227
  444SOL    HW1 1350   1.820   1.964   1.271
  444SOL    HW2 1351   1.827   2.043   1.128
  445SOL     OW 1352   0.428   2.286   0.520
  445SOL    HW1 1353   0.458   2.214   0.458
  445SOL    HW2 1354   0.389   2.246   0.603
  446SOL     OW 1355   0.317   2.409   1.280
  446SOL    HW1 1356   0.355   2.350   1.352
  446SOL    HW2 1357   0.357   2.383   1.192
  447SOL     OW 1358   1.424   2.076   1.112
  447SOL    HW1 1359   1.476   2.011   1.167
  447SOL    HW2 1360   1.375   2.139   1.173
  448SOL     OW 1361   1.001   1.896   1.154
  448SOL    HW1 1362   0.938   1.824   1.123
  448SOL    HW2 1363   1.094   1.860   1.154
  449SOL     OW 1364   1.352   1.914   0.168
  449SOL    HW1 1365   1.387   1.873   0.084
  449SOL    HW2 1366   1.262   1.876   0.188
  450SOL     OW 1367   1.300   2.315   0.691
  450SOL    HW1 1368   1.241   2.395   0.695
  450SOL    HW2 1369   1.315   2.280   0.784
  451SOL     OW 1370   1.593   2.083   0.882
  451SOL    HW1 1371   1.509   2.082   0.936
  451SOL    HW2 1372   1.595   2.166   0.826
  452SOL     OW 1373   0.230   2.490   1.975
  452SOL    HW1 1374   0.137   2.488   2.012
  452SOL    HW2 1375   0.231   2.451   1.883
  453SOL     OW 1376   0.225   2.137   2.858
  453SOL    HW1 1377   0.260   2.120   2.950
  453SOL    HW2 1378   0.137   2.092   2.846
  454SOL     OW 1379   0.019   2.230   2.509
  454SOL    HW1 1380  -0.063   2.273   2.548
  454SOL    HW2 1381  -0.009   2.157   2.446
  455SOL     OW 1382   1.135   2.565   2.579
  455SOL    HW1 1383   1.192   2.643   2.554
  455SOL    HW2 1384   1.075   2.591   2.655
  456SOL     OW 1385   1.755   2.469   2.093
  456SOL    HW1 1386   1.743   2.456   1.994
  456SOL    HW2 1387   1.725   2.388   2.142
  457SOL     OW 1388   0.685   2.874   2.527
  457SOL    HW1 1389   0.754   2.858   2.597
  457SOL    HW2 1390   0.612   2.931   2.565
  458SOL     OW 1391   1.603   2.309   2.599
  458SOL    HW1 1392   1.529   2.355   2.549
  458SOL    HW2 1393   1.654   2.377   2.652
  459SOL     OW 1394   0.240   2.953   2.748
  459SOL    HW1 1395   0.254   2.869   2.800
  459SOL    HW2 1396   0.185   3.017   2.803
  460SOL     OW 1397   0.606   2.826   1.985
  460SOL    HW1 1398   0.613   2.910   1.931
  460SOL    HW2 1399   0.652   2.839   2.073
  461SOL     OW 1400   0.122   2.505   2.425
  461SOL    HW1 1401   0.077   2.417   2.442
  461SOL    HW2 1402   0.121   2.559   2.509
  462SOL     OW 1403   1.689   2.784   2.474
  462SOL    HW1 1404   1.784   2.755   2.482
  462SOL    HW2 1405   1.681   2.849   2.399
  463SOL     OW 1406   0.809   1.866   2.364
  463SOL    HW1 1407   0.849   1.957   2.355
  463SOL    HW2 1408   0.709   1.874   2.370
  464SOL     OW 1409   1.525   2.861   2.052
  464SOL    HW1 1410   1.462   2.785   2.065
  464SOL    HW2 1411   1.573   2.879   2.138
  465SOL     OW 1412   0.598   2.591   2.132
  465SOL    HW1 1413   0.622   2.660   2.064
  465SOL    HW2 1414   0.520   2.624   2.186
  466SOL     OW 1415   1.281   2.207   2.806
  466SOL    HW1 1416   1.195   2.157   2.793
  466SOL    HW2 1417   1.343   2.153   2.862
  467SOL     OW 1418   1.041   2.563   2.291
  467SOL    HW1 1419   1.067   2.559   2.387
  467SOL    HW2 1420   0.956   2.512   2.277
  468SOL     OW 1421   0.076   2.673   2.651
  468SOL    HW1 1422   0.175   2.661   2.660
  468SOL    HW2 1423   0.052   2.768   2.672
  469SOL     OW 1424   0.865   2.210   2.057
  469SOL    HW1 1425   0.924   2.273   2.008
  469SOL    HW2 1426   0.884   2.116   2.028
  470SOL     OW 1427   0.550   2.058   2.747
  470SOL    HW1 1428   0.545   2.053   2.847
  470SOL    HW2 1429   0.552   2.154   2.718
  471SOL     OW 1430   1.458   2.597   2.590
  471SOL    HW1 1431   1.453   2.532   2.665
  471SOL    HW2 1432   1.538   2.656   2.603
  472SOL     OW 1433   1.400   1.969   2.288
  472SOL    HW1 1434   1.376   1.932   2.198
  472SOL    HW2 1435   1.499   1.985   2.292
  473SOL     OW 1436   0.382   2.562   2.342
  473SOL    HW1 1437   0.427   2.472   2.339
  473SOL    HW2 1438   0.288   2.551   2.375
  474SOL     OW 1439   0.614   1.984   1.979
  474SOL    HW1 1440   0.712   1.962   1.986
  474SOL    HW2 1441   0.583   1.967   1.886
  475SOL     OW 1442   0.922   2.365   2.761
  475SOL    HW1 1443   0.897   2.356   2.665
  475SOL    HW2 1444   0.970   2.283   2.792
  476SOL     OW 1445   0.539   1.926   2.374
  476SOL    HW1 1446   0.458   1.927   2.432
  476SOL    HW2 1447   0.542   2.009   2.319
  477SOL     OW 1448   0.297   1.897   2.033
  477SOL    HW1 1449   0.346   1.981   2.012
  477SOL    HW2 1450   0.359   1.832   2.078
  478SOL     OW 1451   0.935   2.098   2.342
  478SOL    HW1 1452   0.887   2.139   2.264
  478SOL    HW2 1453   1.034   2.096   2.323
  479SOL     OW 1454   1.032   2.411   1.878
  479SOL    HW1 1455   0.991   2.493   1.839
  479SOL    HW2 1456   1.096   2.437   1.951
  480SOL     OW 1457   0.866   2.316   2.504
  480SOL    HW1 1458   0.834   2.388   2.442
  480SOL    HW2 1459   0.890   2.235   2.451
  481SOL     OW 1460   1.017   1.901   2.615
  481SOL    HW1 1461   0.945   1.906   2.546
  481SOL    HW2 1462   0.993   1.832   2.684
  482SOL     OW 1463   1.429   3.035   2.729
  482SOL    HW1 1464   1.374   2.951   2.722
  482SOL    HW2 1465   1.455   3.064   2.637
  483SOL     OW 1466   1.466   2.452   2.854
  483SOL    HW1 1467   1.436   2.357   2.861
  483SOL    HW2 1468   1.539   2.468   2.920
  484SOL     OW 1469   1.857   2.695   2.239
  484SOL    HW1 1470   1.899   2.631   2.303
  484SOL    HW2 1471   1.819   2.644   2.161
  485SOL     OW 1472   1.390   2.437   1.940
  485SOL    HW1 1473   1.336   2.416   2.021
  485SOL    HW2 1474   1.481   2.396   1.949
  486SOL     OW 1475   0.527   2.118   2.190
  486SOL    HW1 1476   0.554   2.059   2.115
  486SOL    HW2 1477   0.527   2.213   2.159
  487SOL     OW 1478   1.638   2.961   2.941
  487SOL    HW1 1479   1.643   3.042   3.000
  487SOL    HW2 1480   1.552   2.963   2.890
  488SOL     OW 1481   0.566   2.399   2.727
  488SOL    HW1 1482   0.578   2.465   2.653
  488SOL    HW2 1483   0.612   2.433   2.810
  489SOL     OW 1484   1.582   2.501   2.334
  489SOL    HW1 1485   1.551   2.562   2.407
  489SOL    HW2 1486   1.632   2.553   2.265
  490SOL     OW 1487   0.573   2.732   2.891
  490SOL    HW1 1488   0.617   2.821   2.882
  490SOL    HW2 1489   0.510   2.732   2.968
  491SOL     OW 1490   1.209   2.387   2.137
  491SOL    HW1 1491   1.222   2.303   2.191
  491SOL    HW2 1492   1.180   2.461   2.197
  492SOL     OW 1493   0.307   2.075   3.093
  492SOL    HW1 1494   0.284   2.112   3.183
  492SOL    HW2 1495   0.277   1.980   3.087
  493SOL     OW 1496   0.732   2.496   2.926
  493SOL    HW1 1497   0.791   2.470   2.850
  493SOL    HW2 1498   0.704   2.592   2.915
  494SOL     OW 1499   0.307   1.925   2.480
  494SOL    HW1 1500   0.296   2.019   2.513
  494SOL    HW2 1501   0.302   1.862   2.557
  495SOL     OW 1502   1.622   2.229   2.236
  495SOL    HW1 1503   1.624   2.153   2.300
  495SOL    HW2 1504   1.574   2.306   2.276
  496SOL     OW 1505   1.540   2.136   1.987
  496SOL    HW1 1506   1.479   2.061   2.010
  496SOL    HW2 1507   1.562   2.188   2.070
  497SOL     OW 1508   1.303   2.700   1.904
  497SOL    HW1 1509   1.337   2.607   1.919
  497SOL    HW2 1510   1.321   2.727   1.809
  498SOL     OW 1511   0.319   2.672   2.811
  498SOL    HW1 1512   0.412   2.708   2.816
  498SOL    HW2 1513   0.313   2.587   2.863
  499SOL     OW 1514   0.339   2.371   2.868
  499SOL    HW1 1515   0.287   2.288   2.851
  499SOL    HW2 1516   0.416   2.376   2.804
  500SOL     OW 1517   1.002   2.658   3.100
  500SOL    HW1 1518   1.043   2.626   3.186
  500SOL    HW2 1519   0.906   2.631   3.097
  501SOL     OW 1520   0.815   2.434   2.187
  501SOL    HW1 1521   0.822   2.345   2.141
  501SOL    HW2 1522   0.721   2.468   2.179
  502SOL     OW 1523   0.671   2.326   3.131
  502SOL    HW1 1524   0.637   2.237   3.101
  502SOL    HW2 1525   0.697   2.380   3.051
  503SOL     OW 1526   0.473   2.362   2.053
  503SOL    HW1 1527   0.534   2.442   2.057
  503SOL    HW2 1528   0.378   2.393   2.060
  504SOL     OW 1529   1.302   2.717   2.171
  504SOL    HW1 1530   1.216   2.686   2.213
  504SOL    HW2 1531   1.298   2.703   2.072
  505SOL     OW 1532   1.726   1.997   2.385
  505SOL    HW1 1533   1.799   1.980   2.318
  505SOL    HW2 1534   1.695   1.910   2.423
  506SOL     OW 1535   1.280   2.789   2.534
  506SOL    HW1 1536   1.340   2.708   2.536
  506SOL    HW2 1537   1.320   2.858   2.474
  507SOL     OW 1538   1.841   2.037   2.825
  507SOL    HW1 1539   1.880   1.952   2.789
  507SOL    HW2 1540   1.743   2.039   2.806
  508SOL     OW 1541   0.263   2.188   2.582
  508SOL    HW1 1542   0.184   2.239   2.548
  508SOL    HW2 1543   0.254   2.173   2.680
  509SOL     OW 1544   0.916   2.772   2.153
  509SOL    HW1 1545   0.979   2.810   2.085
  509SOL    HW2 1546   0.956   2.689   2.192
  510SOL     OW 1547   0.075   2.207   1.895
  510SOL    HW1 1548  -0.017   2.179   1.866
  510SOL    HW2 1549   0.106   2.284   1.839
  511SOL     OW 1550   0.072   2.028   2.180
  511SOL    HW1 1551   0.055   2.111   2.126
  511SOL    HW2 1552   0.162   1.991   2.158
  512SOL     OW 1553   1.183   3.197   1.981
  512SOL    HW1 1554   1.084   3.186   1.983
  512SOL    HW2 1555   1.217   3.212   2.074
  513SOL     OW 1556   1.674   2.745   3.116
  513SOL    HW1 1557   1.647   2.656   3.079
  513SOL    HW2 1558   1.675   2.813   3.043
  514SOL     OW 1559   1.225   2.187   2.311
  514SOL    HW1 1560   1.290   2.113   2.300
  514SOL    HW2 1561   1.245   2.237   2.395
  515SOL     OW 1562   0.594   2.607   2.514
  515SOL    HW1 1563   0.644   2.692   2.495
  515SOL    HW2 1564   0.506   2.609   2.466
  516SOL     OW 1565   0.859   2.818   2.723
  516SOL    HW1 1566   0.913   2.749   2.771
  516SOL    HW2 1567   0.827   2.887   2.789
  517SOL     OW 1568   1.083   2.846   1.949
  517SOL    HW1 1569   1.060   2.899   1.867
  517SOL    HW2 1570   1.164   2.790   1.930
  518SOL     OW 1571   0.079   3.102   2.515
  518SOL    HW1 1572   0.078   3.055   2.603
  518SOL    HW2 1573   0.161   3.074   2.464
  519SOL     OW 1574   1.824   2.054   3.089
  519SOL    HW1 1575   1.820   1.964   3.133
  519SOL    HW2 1576   1.827   2.043   2.990
  520SOL     OW 1577   0.428   2.286   2.382
  520SOL    HW1 1578   0.458   2.214   2.320
  520SOL    HW2 1579   0.389   2.246   2.465
  521SOL     OW 1580   1.352   1.914   2.030
  521SOL    HW1 1581   1.387   1.873   1.946
  521SOL    HW2 1582   1.262   1.876   2.050
  522SOL     OW 1583   1.300   2.315   2.553
  522SOL    HW1 1584   1.241   2.395   2.557
  522SOL    HW2 1585   1.315   2.280   2.646
  523SOL     OW 1586   1.593   2.083   2.744
  523SOL    HW1 1587   1.509   2.082   2.798
  523SOL    HW2 1588   1.595   2.166   2.688
  524SOL     OW 1589   2.092   0.628   0.113
  524SOL    HW1 1590   1.999   0.626   0.150
  524SOL    HW2 1591   2.093   0.589   0.021
  525SOL     OW 1592   2.087   0.275   0.996
  525SOL    HW1 1593   2.122   0.258   1.088
  525SOL    HW2 1594   1.999   0.230   0.984
  526SOL     OW 1595   1.881   0.368   0.647
  526SOL    HW1 1596   1.799   0.411   0.686
  526SOL    HW2 1597   1.853   0.295   0.584
  527SOL     OW 1598   2.431   1.275   1.165
  527SOL    HW1 1599   2.338   1.268   1.128
  527SOL    HW2 1600   2.442   1.364   1.209
  528SOL     OW 1601   2.630   1.144   1.023
  528SOL    HW1 1602   2.552   1.161   1.083
  528SOL    HW2 1603   2.664   1.231   0.987
  529SOL     OW 1604   2.712   0.798   1.823
  529SOL    HW1 1605   2.708   0.874   1.888
  529SOL    HW2 1606   2.734   0.834   1.732
  530SOL     OW 1607   2.547   1.012   0.665
  530SOL    HW1 1608   2.616   0.996   0.735
  530SOL    HW2 1609   2.474   1.069   0.703
  531SOL     OW 1610   2.548   1.161   1.803
  531SOL    HW1 1611   2.608   1.240   1.817
  531SOL    HW2 1612   2.462   1.192   1.762
  532SOL     OW 1613   2.197   1.435   1.061
  532SOL    HW1 1614   2.119   1.404   1.008
  532SOL    HW2 1615   2.255   1.493   1.004
  533SOL     OW 1616   2.300   0.392   1.499
  533SOL    HW1 1617   2.382   0.336   1.508
  533SOL    HW2 1618   2.219   0.334   1.503
  534SOL     OW 1619   2.093   1.713   0.483
  534SOL    HW1 1620   2.127   1.790   0.537
  534SOL    HW2 1621   2.137   1.713   0.393
  535SOL     OW 1622   2.092   1.434   0.538
  535SOL    HW1 1623   2.066   1.530   0.538
  535SOL    HW2 1624   2.021   1.380   0.583
  536SOL     OW 1625   2.102   1.091   0.886
  536SOL    HW1 1626   2.116   1.007   0.938
  536SOL    HW2 1627   2.047   1.155   0.941
  537SOL     OW 1628   2.482   1.786   1.439
  537SOL    HW1 1629   2.390   1.769   1.474
  537SOL    HW2 1630   2.510   1.878   1.465
  538SOL     OW 1631   2.468   0.964   0.123
  538SOL    HW1 1632   2.475   1.048   0.069
  538SOL    HW2 1633   2.514   0.977   0.211
  539SOL     OW 1634   1.984   0.643   0.563
  539SOL    HW1 1635   1.939   0.555   0.580
  539SOL    HW2 1636   1.983   0.697   0.647
  540SOL     OW 1637   1.889   1.596   0.117
  540SOL    HW1 1638   1.870   1.500   0.138
  540SOL    HW2 1639   1.856   1.654   0.192
  541SOL     OW 1640   1.975   0.737   1.597
  541SOL    HW1 1641   2.063   0.724   1.642
  541SOL    HW2 1642   1.962   0.834   1.575
  542SOL     OW 1643   2.475   1.365   0.726
  542SOL    HW1 1644   2.426   1.278   0.735
  542SOL    HW2 1645   2.452   1.408   0.639
  543SOL     OW 1646   2.671   0.004   0.502
  543SOL    HW1 1647   2.711   0.095   0.493
  543SOL    HW2 1648   2.571   0.012   0.508
  544SOL     OW 1649   2.059   0.976   1.264
  544SOL    HW1 1650   2.148   0.931   1.250
  544SOL    HW2 1651   1.986   0.911   1.245
  545SOL     OW 1652   2.179   0.251   1.801
  545SOL    HW1 1653   2.250   0.322   1.807
  545SOL    HW2 1654   2.091   0.290   1.829
  546SOL     OW 1655   2.460   0.729   0.270
  546SOL    HW1 1656   2.484   0.798   0.202
  546SOL    HW2 1657   2.382   0.762   0.324
  547SOL     OW 1658   2.669   0.605   1.465
  547SOL    HW1 1659   2.622   0.602   1.554
  547SOL    HW2 1660   2.618   0.550   1.399
  548SOL     OW 1661   2.835   0.890   1.572
  548SOL    HW1 1662   2.881   0.806   1.543
  548SOL    HW2 1663   2.779   0.924   1.497
  549SOL     OW 1664   2.853   0.410   1.242
  549SOL    HW1 1665   2.776   0.444   1.296
  549SOL    HW2 1666   2.819   0.359   1.163
  550SOL     OW 1667   1.938   0.811   0.789
  550SOL    HW1 1668   2.037   0.799   0.798
  550SOL    HW2 1669   1.914   0.906   0.810
  551SOL     OW 1670   1.992   1.821   1.571
  551SOL    HW1 1671   1.982   1.806   1.670
  551SOL    HW2 1672   1.906   1.857   1.535
  552SOL     OW 1673   2.727   0.348   0.195
  552SOL    HW1 1674   2.786   0.411   0.146
  552SOL    HW2 1675   2.746   0.254   0.166
  553SOL     OW 1676   2.412   0.196   0.885
  553SOL    HW1 1677   2.407   0.191   0.985
  553SOL    HW2 1678   2.414   0.292   0.856
  554SOL     OW 1679   2.870   1.456   0.477
  554SOL    HW1 1680   2.824   1.528   0.425
  554SOL    HW2 1681   2.866   1.476   0.575
  555SOL     OW 1682   2.213   1.801   0.853
  555SOL    HW1 1683   2.263   1.715   0.859
  555SOL    HW2 1684   2.278   1.878   0.850
  556SOL     OW 1685   2.183   0.943   0.242
  556SOL    HW1 1686   2.265   0.982   0.200
  556SOL    HW2 1687   2.156   0.861   0.193
  557SOL     OW 1688   2.323   1.266   1.727
  557SOL    HW1 1689   2.273   1.267   1.641
  557SOL    HW2 1690   2.260   1.248   1.803
  558SOL     OW 1691   2.064   0.285   1.498
  558SOL    HW1 1692   1.984   0.345   1.485
  558SOL    HW2 1693   2.054   0.236   1.584
  559SOL     OW 1694   2.326   1.743   0.323
  559SOL    HW1 1695   2.359   1.782   0.409
  559SOL    HW2 1696   2.402   1.736   0.258
  560SOL     OW 1697   2.111   1.785   1.241
  560SOL    HW1 1698   2.168   1.720   1.291
  560SOL    HW2 1699   2.095   1.752   1.148
  561SOL     OW 1700   2.244   0.700   0.480
  561SOL    HW1 1701   2.289   0.610   0.477
  561SOL    HW2 1702   2.150   0.689   0.513
  562SOL     OW 1703   2.476   0.122   0.117
  562SOL    HW1 1704   2.574   0.100   0.124
  562SOL    HW2 1705   2.445   0.105   0.024
  563SOL     OW 1706   2.643   0.264   1.749
  563SOL    HW1 1707   2.710   0.203   1.792
  563SOL    HW2 1708   2.570   0.283   1.814
  564SOL     OW 1709   2.750   1.514   1.195
  564SOL    HW1 1710   2.727   1.489   1.101
  564SOL    HW2 1711   2.811   1.445   1.234
  565SOL     OW 1712   2.665   1.402   0.924
  565SOL    HW1 1713   2.755   1.416   0.882
  565SOL    HW2 1714   2.594   1.404   0.853
  566SOL     OW 1715   2.784   0.503   0.899
  566SOL    HW1 1716   2.759   0.494   0.803
  566SOL    HW2 1717   2.832   0.421   0.930
  567SOL     OW 1718   2.401   0.064   0.512
  567SOL    HW1 1719   2.320   0.065   0.570
  567SOL    HW2 1720   2.404   0.147   0.457
  568SOL     OW 1721   2.159   0.035   0.171
  568SOL    HW1 1722   2.208   0.119   0.150
  568SOL    HW2 1723   2.221  -0.030   0.216
  569SOL     OW 1724   2.797   0.236   0.480
  569SOL    HW1 1725   2.749   0.277   0.402
  569SOL    HW2 1726   2.896   0.234   0.461
  570SOL     OW 1727   3.089   1.570   0.793
  570SOL    HW1 1728   3.110   1.644   0.728
  570SOL    HW2 1729   3.157   1.570   0.866
  571SOL     OW 1730   2.321   1.152   0.741
  571SOL    HW1 1731   2.250   1.125   0.806
  571SOL    HW2 1732   2.295   1.124   0.648
  572SOL     OW 1733   2.894   0.549   0.016
  572SOL    HW1 1734   2.853   0.631  -0.023
  572SOL    HW2 1735   2.958   0.575   0.089
  573SOL     OW 1736   1.940   0.556   1.386
  573SOL    HW1 1737   2.032   0.555   1.345
  573SOL    HW2 1738   1.934   0.630   1.453
  574SOL     OW 1739   2.423   0.222   1.147
  574SOL    HW1 1740   2.461   0.138   1.184
  574SOL    HW2 1741   2.335   0.241   1.191
  575SOL     OW 1742   2.728   0.454   0.642
  575SOL    HW1 1743   2.696   0.526   0.580
  575SOL    HW2 1744   2.752   0.373   0.589
  576SOL     OW 1745   2.879   0.039   0.753
  576SOL    HW1 1746   2.807   0.044   0.684
  576SOL    HW2 1747   2.855  -0.030   0.822
  577SOL     OW 1748   2.350   1.385   0.174
  577SOL    HW1 1749   2.263   1.370   0.221
  577SOL    HW2 1750   2.333   1.411   0.079
  578SOL     OW 1751   2.389   0.256   0.328
  578SOL    HW1 1752   2.416   0.197   0.253
  578SOL    HW2 1753   2.389   0.351   0.297
  579SOL     OW 1754   2.777   0.089   1.402
  579SOL    HW1 1755   2.802   0.069   1.307
  579SOL    HW2 1756   2.849   0.145   1.444
  580SOL     OW 1757   2.842   1.116   1.719
  580SOL    HW1 1758   2.743   1.122   1.729
  580SOL    HW2 1759   2.865   1.036   1.663
  581SOL     OW 1760   2.567   1.050   0.368
  581SOL    HW1 1761   2.553   1.057   0.467
  581SOL    HW2 1762   2.651   0.999   0.350
  582SOL     OW 1763   2.272   0.813   1.251
  582SOL    HW1 1764   2.358   0.825   1.301
  582SOL    HW2 1765   2.230   0.726   1.278
  583SOL     OW 1766   1.926   1.564   1.331
  583SOL    HW1 1767   1.880   1.646   1.297
  583SOL    HW2 1768   2.024   1.583   1.340
  584SOL     OW 1769   2.229   1.100   0.501
  584SOL    HW1 1770   2.222   1.183   0.445
  584SOL    HW2 1771   2.233   1.020   0.441
  585SOL     OW 1772   2.428   0.537   0.865
  585SOL    HW1 1773   2.440   0.603   0.791
  585SOL    HW2 1774   2.474   0.571   0.948
  586SOL     OW 1775   2.216   1.510   1.329
  586SOL    HW1 1776   2.195   1.466   1.242
  586SOL    HW2 1777   2.313   1.536   1.332
  587SOL     OW 1778   2.264   0.751   1.598
  587SOL    HW1 1779   2.332   0.806   1.551
  587SOL    HW2 1780   2.304   0.663   1.625
  588SOL     OW 1781   2.875   0.105   1.770
  588SOL    HW1 1782   2.881   0.190   1.718
  588SOL    HW2 1783   2.907   0.029   1.713
  589SOL     OW 1784   2.366   0.050   1.740
  589SOL    HW1 1785   2.324  -0.007   1.670
  589SOL    HW2 1786   2.300   0.119   1.772
  590SOL     OW 1787   2.435   0.870   1.029
  590SOL    HW1 1788   2.479   0.959   1.020
  590SOL    HW2 1789   2.372   0.870   1.106
  591SOL     OW 1790   3.071   0.525   0.275
  591SOL    HW1 1791   3.084   0.441   0.329
  591SOL    HW2 1792   3.042   0.599   0.335
  592SOL     OW 1793   2.169   0.213   1.231
  592SOL    HW1 1794   2.146   0.250   1.321
  592SOL    HW2 1795   2.139   0.118   1.225
  593SOL     OW 1796   1.899   1.310   1.282
  593SOL    HW1 1797   1.952   1.261   1.350
  593SOL    HW2 1798   1.921   1.408   1.287
  594SOL     OW 1799   2.594   0.634   1.064
  594SOL    HW1 1800   2.653   0.608   0.988
  594SOL    HW2 1801   2.566   0.730   1.053
  595SOL     OW 1802   2.169   0.063   0.618
  595SOL    HW1 1803   2.158   0.157   0.651
  595SOL    HW2 1804   2.164   0.000   0.695
  596SOL     OW 1805   2.885   0.766   0.966
  596SOL    HW1 1806   2.900   0.787   1.062
  596SOL    HW2 1807   2.855   0.671   0.957
  597SOL     OW 1808   2.842   1.573   1.700
  597SOL    HW1 1809   2.822   1.617   1.612
  597SOL    HW2 1810   2.881   1.482   1.684
  598SOL     OW 1811   2.212   0.898   1.804
  598SOL    HW1 1812   2.288   0.942   1.852
  598SOL    HW2 1813   2.247   0.851   1.722
  599SOL     OW 1814   2.181   0.810   0.949
  599SOL    HW1 1815   2.274   0.846   0.954
  599SOL    HW2 1816   2.175   0.725   1.001
  600SOL     OW 1817   2.201   0.509   1.006
  600SOL    HW1 1818   2.149   0.426   0.989
  600SOL    HW2 1819   2.278   0.514   0.942
  601SOL     OW 1820   1.870   1.326   0.200
  601SOL    HW1 1821   1.777   1.347   0.169
  601SOL    HW2 1822   1.880   1.227   0.213
  602SOL     OW 1823   1.950   1.801   0.927
  602SOL    HW1 1824   1.908   1.715   0.900
  602SOL    HW2 1825   2.044   1.804   0.893
  603SOL     OW 1826   2.366   1.568   0.910
  603SOL    HW1 1827   2.432   1.642   0.919
  603SOL    HW2 1828   2.410   1.489   0.868
  604SOL     OW 1829   2.864   0.796   1.238
  604SOL    HW1 1830   2.905   0.764   1.324
  604SOL    HW2 1831   2.768   0.769   1.235
  605SOL     OW 1832   1.902   0.544   1.114
  605SOL    HW1 1833   1.987   0.511   1.073
  605SOL    HW2 1834   1.915   0.559   1.212
  606SOL     OW 1835   2.051   0.520   1.722
  606SOL    HW1 1836   2.110   0.480   1.652
  606SOL    HW2 1837   1.993   0.591   1.681
  607SOL     OW 1838   2.677   0.572   0.325
  607SOL    HW1 1839   2.684   0.483   0.279
  607SOL    HW2 1840   2.583   0.606   0.317
  608SOL     OW 1841   2.114   1.564   1.744
  608SOL    HW1 1842   2.084   1.621   1.820
  608SOL    HW2 1843   2.107   1.467   1.770
  609SOL     OW 1844   2.533   0.464   1.269
  609SOL    HW1 1845   2.499   0.375   1.239
  609SOL    HW2 1846   2.559   0.518   1.189
  610SOL     OW 1847   2.792   1.678   1.465
  610SOL    HW1 1848   2.768   1.660   1.370
  610SOL    HW2 1849   2.822   1.772   1.475
  611SOL     OW 1850   2.335   0.500   0.191
  611SOL    HW1 1851   2.396   0.580   0.195
  611SOL    HW2 1852   2.240   0.531   0.198
  612SOL     OW 1853   2.021   1.137   1.466
  612SOL    HW1 1854   2.043   1.076   1.542
  612SOL    HW2 1855   2.031   1.088   1.380
  613SOL     OW 1856   1.945   1.258   1.022
  613SOL    HW1 1857   1.940   1.257   1.122
  613SOL    HW2 1858   1.862   1.217   0.984
  614SOL     OW 1859   2.550   1.662   1.716
  614SOL    HW1 1860   2.494   1.743   1.725
  614SOL    HW2 1861   2.602   1.666   1.630
  615SOL     OW 1862   2.765   0.086   0.133
  615SOL    HW1 1863   2.816   0.087   0.047
  615SOL    HW2 1864   2.821   0.044   0.204
  616SOL     OW 1865   1.992   1.794   1.851
  616SOL    HW1 1866   1.951   1.720   1.904
  616SOL    HW2 1867   2.056   1.845   1.909
  617SOL     OW 1868   3.142   0.927   0.672
  617SOL    HW1 1869   3.202   0.846   0.674
  617SOL    HW2 1870   3.182   0.996   0.612
  618SOL     OW 1871   2.692   1.273   1.422
  618SOL    HW1 1872   2.687   1.306   1.517
  618SOL    HW2 1873   2.606   1.292   1.376
  619SOL     OW 1874   2.534   1.616   0.154
  619SOL    HW1 1875   2.543   1.626   0.055
  619SOL    HW2 1876   2.494   1.527   0.175
  620SOL     OW 1877   2.125   0.326   0.720
  620SOL    HW1 1878   2.046   0.377   0.686
  620SOL    HW2 1879   2.116   0.311   0.818
  621SOL     OW 1880   2.684   1.002   1.372
  621SOL    HW1 1881   2.724   1.001   1.280
  621SOL    HW2 1882   2.694   1.094   1.412
  622SOL     OW 1883   2.778   0.910   0.291
  622SOL    HW1 1884   2.841   0.948   0.223
  622SOL    HW2 1885   2.818   0.827   0.330
  623SOL     OW 1886   2.234   1.288   1.490
  623SOL    HW1 1887   2.221   1.381   1.456
  623SOL    HW2 1888   2.150   1.236   1.477
  624SOL     OW 1889   2.901   1.098   0.696
  624SOL    HW1 1890   2.831   1.051   0.750
  624SOL    HW2 1891   2.960   1.030   0.653
  625SOL     OW 1892   2.876   0.236   0.971
  625SOL    HW1 1893   2.868   0.200   0.878
  625SOL    HW2 1894   2.874   0.160   1.036
  626SOL     OW 1895   2.452   1.487   0.491
  626SOL    HW1 1896   2.494   1.429   0.421
  626SOL    HW2 1897   2.408   1.566   0.447
  627SOL     OW 1898   2.117   1.348   0.290
  627SOL    HW1 1899   2.021   1.349   0.263
  627SOL    HW2 1900   2.129   1.401   0.374
  628SOL     OW 1901   1.967   1.013   1.726
  628SOL    HW1 1902   1.890   0.980   1.780
  628SOL    HW2 1903   2.052   0.983   1.768
  629SOL     OW 1904   2.534   0.203   1.489
  629SOL    HW1 1905   2.624   0.187   1.449
  629SOL    HW2 1906   2.542   0.208   1.588
  630SOL     OW 1907   1.937   0.345   0.033
  630SOL    HW1 1908   1.845   0.317   0.004
  630SOL    HW2 1909   1.968   0.422  -0.023
  631SOL     OW 1910   1.934   0.166   0.318
  631SOL    HW1 1911   1.917   0.249   0.264
  631SOL    HW2 1912   2.024   0.129   0.296
  632SOL     OW 1913   2.475   0.842   1.431
  632SOL    HW1 1914   2.531   0.923   1.414
  632SOL    HW2 1915   2.534   0.762   1.434
  633SOL     OW 1916   2.578   0.565   1.708
  633SOL    HW1 1917   2.597   0.630   1.782
  633SOL    HW2 1918   2.638   0.485   1.717
  634SOL     OW 1919   2.252   1.741   1.560
  634SOL    HW1 1920   2.161   1.782   1.558
  634SOL    HW2 1921   2.245   1.647   1.592
  635SOL     OW 1922   3.087   0.325   0.449
  635SOL    HW1 1923   3.152   0.251   0.438
  635SOL    HW2 1924   3.107   0.375   0.533
  636SOL     OW 1925   2.456   0.745   0.652
  636SOL    HW1 1926   2.506   0.830   0.633
  636SOL    HW2 1927   2.368   0.747   0.604
  637SOL     OW 1928   2.721   1.374   0.016
  637SOL    HW1 1929   2.675   1.389   0.104
  637SOL    HW2 1930   2.765   1.459  -0.014
  638SOL     OW 1931   2.523   1.790   0.953
  638SOL    HW1 1932   2.477   1.878   0.940
  638SOL    HW2 1933   2.622   1.802   0.946
  639SOL     OW 1934   2.721   0.956   0.861
  639SOL    HW1 1935   2.775   0.887   0.909
  639SOL    HW2 1936   2.689   1.025   0.927
  640SOL     OW 1937   2.945   0.984   0.087
  640SOL    HW1 1938   2.922   1.037   0.005
  640SOL    HW2 1939   3.026   0.928   0.068
  641SOL     OW 1940   2.083   1.314   1.844
  641SOL    HW1 1941   2.018   1.241   1.823
  641SOL    HW2 1942   2.087   1.328   1.942
  642SOL     OW 1943   1.941   1.240   0.653
  642SOL    HW1 1944   1.940   1.193   0.741
  642SOL    HW2 1945   2.023   1.212   0.602
  643SOL     OW 1946   2.534   1.391   1.624
  643SOL    HW1 1947   2.456   1.341   1.662
  643SOL    HW2 1948   2.531   1.486   1.655
  644SOL     OW 1949   2.290   0.424   0.520
  644SOL    HW1 1950   2.320   0.352   0.458
  644SOL    HW2 1951   2.251   0.384   0.603
  645SOL     OW 1952   2.179   0.547   1.280
  645SOL    HW1 1953   2.217   0.488   1.352
  645SOL    HW2 1954   2.219   0.521   1.192
  646SOL     OW 1955   2.674   1.586   0.687
  646SOL    HW1 1956   2.706   1.596   0.593
  646SOL    HW2 1957   2.595   1.524   0.689
  647SOL     OW 1958   2.863   0.034   1.154
  647SOL    HW1 1959   2.800  -0.038   1.123
  647SOL    HW2 1960   2.956  -0.002   1.154
  648SOL     OW 1961   2.632   1.330   0.301
  648SOL    HW1 1962   2.586   1.243   0.318
  648SOL    HW2 1963   2.723   1.327   0.342
  649SOL     OW 1964   2.480   1.567   1.284
  649SOL    HW1 1965   2.475   1.649   1.341
  649SOL    HW2 1966   2.569   1.564   1.239
  650SOL     OW 1967   1.901   1.077   0.300
  650SOL    HW1 1968   2.000   1.066   0.291
  650SOL    HW2 1969   1.861   0.991   0.332
  651SOL     OW 1970   2.737   1.646   0.337
  651SOL    HW1 1971   2.660   1.611   0.283
  651SOL    HW2 1972   2.705   1.717   0.399
  652SOL     OW 1973   2.092   0.628   1.975
  652SOL    HW1 1974   1.999   0.626   2.012
  652SOL    HW2 1975   2.093   0.589   1.883
  653SOL     OW 1976   2.087   0.275   2.858
  653SOL    HW1 1977   2.122   0.258   2.950
  653SOL    HW2 1978   1.999   0.230   2.846
  654SOL     OW 1979   1.881   0.368   2.509
  654SOL    HW1 1980   1.799   0.411   2.548
  654SOL    HW2 1981   1.853   0.295   2.446
  655SOL     OW 1982   2.630   1.144   2.885
  655SOL    HW1 1983   2.552   1.161   2.945
  655SOL    HW2 1984   2.664   1.231   2.849
  656SOL     OW 1985   2.547   1.012   2.527
  656SOL    HW1 1986   2.616   0.996   2.597
  656SOL    HW2 1987   2.474   1.069   2.565
  657SOL     OW 1988   2.197   1.435   2.923
  657SOL    HW1 1989   2.119   1.404   2.870
  657SOL    HW2 1990   2.255   1.493   2.866
  658SOL     OW 1991   2.093   1.713   2.345
  658SOL    HW1 1992   2.127   1.790   2.399
  658SOL    HW2 1993   2.137   1.713   2.255
  659SOL     OW 1994   2.092   1.434   2.400
  659SOL    HW1 1995   2.066   1.530   2.400
  659SOL    HW2 1996   2.021   1.380   2.445
  660SOL     OW 1997   2.102   1.091   2.748
  660SOL    HW1 1998   2.116   1.007   2.800
  660SOL    HW2 1999   2.047   1.155   2.803
  661SOL     OW 2000   2.468   0.964   1.985
  661SOL    HW1 2001   2.475   1.048   1.931
  661SOL    HW2 2002   2.514   0.977   2.073
  662SOL     OW 2003   1.984   0.643   2.425
  662SOL    HW1 2004   1.939   0.555   2.442
  662SOL    HW2 2005   1.983   0.697   2.509
  663SOL     OW 2006   1.889   1.596   1.979
  663SOL    HW1 2007   1.870   1.500   2.000
  663SOL    HW2 2008   1.856   1.654   2.054
  664SOL     OW 2009   2.475   1.365   2.588
  664SOL    HW1 2010   2.426   1.278   2.597
  664SOL    HW2 2011   2.452   1.408   2.501
  665SOL     OW 2012   2.671   0.004   2.364
  665SOL    HW1 2013   2.711   0.095   2.355
  665SOL    HW2 2014   2.571   0.012   2.370
  666SOL     OW 2015   2.460   0.729   2.132
  666SOL    HW1 2016   2.484   0.798   2.064
  666SOL    HW2 2017   2.382   0.762   2.186
  667SOL     OW 2018   1.938   0.811   2.651
  667SOL    HW1 2019   2.037   0.799   2.660
  667SOL    HW2 2020   1.914   0.906   2.672
  668SOL     OW 2021   2.727   0.348   2.057
  668SOL    HW1 2022   2.786   0.411   2.008
  668SOL    HW2 2023   2.746   0.254   2.028
  669SOL     OW 2024   2.412   0.196   2.747
  669SOL    HW1 2025   2.407   0.191   2.847
  669SOL    HW2 2026   2.414   0.292   2.718
  670SOL     OW 2027   2.870   1.456   2.339
  670SOL    HW1 2028   2.824   1.528   2.287
  670SOL    HW2 2029   2.866   1.476   2.437
  671SOL     OW 2030   2.213   1.801   2.715
  671SOL    HW1 2031   2.263   1.715   2.721
  671SOL    HW2 2032   2.278   1.878   2.712
  672SOL     OW 2033   2.183   0.943   2.104
  672SOL    HW1 2034   2.265   0.982   2.062
  672SOL    HW2 2035   2.156   0.861   2.055
  673SOL     OW 2036   2.326   1.743   2.185
  673SOL    HW1 2037   2.359   1.782   2.271
  673SOL    HW2 2038   2.402   1.736   2.120
  674SOL     OW 2039   2.111   1.785   3.103
  674SOL    HW1 2040   2.168   1.720   3.153
  674SOL    HW2 2041   2.095   1.752   3.010
  675SOL     OW 2042   2.244   0.700   2.342
  675SOL    HW1 2043   2.289   0.610   2.339
  675SOL    HW2 2044   2.150   0.689   2.375
  676SOL     OW 2045   2.476   0.122   1.979
  676SOL    HW1 2046   2.574   0.100   1.986
  676SOL    HW2 2047   2.445   0.105   1.886
  677SOL     OW 2048   2.665   1.402   2.786
  677SOL    HW1 2049   2.755   1.416   2.744
  677SOL    HW2 2050   2.594   1.404   2.715
  678SOL     OW 2051   2.784   0.503   2.761
  678SOL    HW1 2052   2.759   0.494   2.665
  678SOL    HW2 2053   2.832   0.421   2.792
  679SOL     OW 2054   2.401   0.064   2.374
  679SOL    HW1 2055   2.320   0.065   2.432
  679SOL    HW2 2056   2.404   0.147   2.319
  680SOL     OW 2057   2.159   0.035   2.033
  680SOL    HW1 2058   2.208   0.119   2.012
  680SOL    HW2 2059   2.221  -0.030   2.078
  681SOL     OW 2060   2.797   0.236   2.342
  681SOL    HW1 2061   2.749   0.277   2.264
  681SOL    HW2 2062   2.896   0.234   2.323
  682SOL     OW 2063   3.089   1.570   2.655
  682SOL    HW1 2064   3.110   1.644   2.590
  682SOL    HW2 2065   3.157   1.570   2.728
  683SOL     OW 2066   2.321   1.152   2.603
  683SOL    HW1 2067   2.250   1.125   2.668
  683SOL    HW2 2068   2.295   1.124   2.510
  684SOL     OW 2069   2.894   0.549   1.878
  684SOL    HW1 2070   2.853   0.631   1.839
  684SOL    HW2 2071   2.958   0.575   1.951
  685SOL     OW 2072   2.728   0.454   2.504
  685SOL    HW1 2073   2.696   0.526   2.442
  685SOL    HW2 2074   2.752   0.373   2.451
  686SOL     OW 2075   2.879   0.039   2.615
  686SOL    HW1 2076   2.807   0.044   2.546
  686SOL    HW2 2077   2.855  -0.030   2.684
  687SOL     OW 2078   2.350   1.385   2.036
  687SOL    HW1 2079   2.263   1.370   2.083
  687SOL    HW2 2080   2.333   1.411   1.941
  688SOL     OW 2081   2.389   0.256   2.190
  688SOL    HW1 2082   2.416   0.197   2.115
  688SOL    HW2 2083   2.389   0.351   2.159
  689SOL     OW 2084   2.567   1.050   2.230
  689SOL    HW1 2085   2.553   1.057   2.329
  689SOL    HW2 2086   2.651   0.999   2.212
  690SOL     OW 2087   2.229   1.100   2.363
  690SOL    HW1 2088   2.222   1.183   2.307
  690SOL    HW2 2089   2.233   1.020   2.303
  691SOL     OW 2090   2.428   0.537   2.727
  691SOL    HW1 2091   2.440   0.603   2.653
  691SOL    HW2 2092   2.474   0.571   2.810
  692SOL     OW 2093   2.435   0.870   2.891
  692SOL    HW1 2094   2.479   0.959   2.882
  692SOL    HW2 2095   2.372   0.870   2.968
  693SOL     OW 2096   3.071   0.525   2.137
  693SOL    HW1 2097   3.084   0.441   2.191
  693SOL    HW2 2098   3.042   0.599   2.197
  694SOL     OW 2099   2.594   0.634   2.926
  694SOL    HW1 2100   2.653   0.608   2.850
  694SOL    HW2 2101   2.566   0.730   2.915
  695SOL     OW 2102   2.169   0.063   2.480
  695SOL    HW1 2103   2.158   0.157   2.513
  695SOL    HW2 2104   2.164   0.000   2.557
  696SOL     OW 2105   2.181   0.810   2.811
  696SOL    HW1 2106   2.274   0.846   2.816
  696SOL    HW2 2107   2.175   0.725   2.863
  697SOL     OW 2108   2.201   0.509   2.868
  697SOL    HW1 2109   2.149   0.426   2.851
  697SOL    HW2 2110   2.278   0.514   2.804
  698SOL     OW 2111   1.870   1.326   2.062
  698SOL    HW1 2112   1.777   1.347   2.031
  698SOL    HW2 2113   1.880   1.227   2.075
  699SOL     OW 2114   1.950   1.801   2.789
  699SOL    HW1 2115   1.908   1.715   2.762
  699SOL    HW2 2116   2.044   1.804   2.755
  700SOL     OW 2117   2.366   1.568   2.772
  700SOL    HW1 2118   2.432   1.642   2.781
  700SOL    HW2 2119   2.410   1.489   2.730
  701SOL     OW 2120   2.864   0.796   3.100
  701SOL    HW1 2121   2.905   0.764   3.186
  701SOL    HW2 2122   2.768   0.769   3.097
  702SOL     OW 2123   2.677   0.572   2.187
  702SOL    HW1 2124   2.684   0.483   2.141
  702SOL    HW2 2125   2.583   0.606   2.179
  703SOL     OW 2126   2.533   0.464   3.131
  703SOL    HW1 2127   2.499   0.375   3.101
  703SOL    HW2 2128   2.559   0.518   3.051
  704SOL     OW 2129   2.335   0.500   2.053
  704SOL    HW1 2130   2.396   0.580   2.057
  704SOL    HW2 2131   2.240   0.531   2.060
  705SOL     OW 2132   1.945   1.258   2.884
  705SOL    HW1 2133   1.940   1.257   2.984
  705SOL    HW2 2134   1.862   1.217   2.846
  706SOL     OW 2135   3.142   0.927   2.534
  706SOL    HW1 2136   3.202   0.846   2.536
  706SOL    HW2 2137   3.182   0.996   2.474
  707SOL     OW 2138   2.534   1.616   2.016
  707SOL    HW1 2139   2.543   1.626   1.917
  707SOL    HW2 2140   2.494   1.527   2.037
  708SOL     OW 2141   2.125   0.326   2.582
  708SOL    HW1 2142   2.046   0.377   2.548
  708SOL    HW2 2143   2.116   0.311   2.680
  709SOL     OW 2144   2.778   0.910   2.153
  709SOL    HW1 2145   2.841   0.948   2.085
  709SOL    HW2 2146   2.818   0.827   2.192
  710SOL     OW 2147   2.901   1.098   2.558
  710SOL    HW1 2148   2.831   1.051   2.612
  710SOL    HW2 2149   2.960   1.030   2.515
  711SOL     OW 2150   2.452   1.487   2.353
  711SOL    HW1 2151   2.494   1.429   2.283
  711SOL    HW2 2152   2.408   1.566   2.309
  712SOL     OW 2153   2.117   1.348   2.152
  712SOL    HW1 2154   2.021   1.349   2.125
  712SOL    HW2 2155   2.129   1.401   2.236
  713SOL     OW 2156   1.937   0.345   1.895
  713SOL    HW1 2157   1.845   0.317   1.866
  713SOL    HW2 2158   1.968   0.422   1.839
  714SOL     OW 2159   1.934   0.166   2.180
  714SOL    HW1 2160   1.917   0.249   2.126
  714SOL    HW2 2161   2.024   0.129   2.158
  715SOL     OW 2162   3.087   0.325   2.311
  715SOL    HW1 2163   3.152   0.251   2.300
  715SOL    HW2 2164   3.107   0.375   2.395
  716SOL     OW 2165   2.456   0.745   2.514
  716SOL    HW1 2166   2.506   0.830   2.495
  716SOL    HW2 2167   2.368   0.747   2.466
  717SOL     OW 2168   2.721   1.374   1.878
  717SOL    HW1 2169   2.675   1.389   1.966
  717SOL    HW2 2170   2.765   1.459   1.848
  718SOL     OW 2171   2.523   1.790   2.815
  718SOL    HW1 2172   2.477   1.878   2.802
  718SOL    HW2 2173   2.622   1.802   2.808
  719SOL     OW 2174   2.721   0.956   2.723
  719SOL    HW1 2175   2.775   0.887   2.771
  719SOL    HW2 2176   2.689   1.025   2.789
  720SOL     OW 2177   1.941   1.240   2.515
  720SOL    HW1 2178   1.940   1.193   2.603
  720SOL    HW2 2179   2.023   1.212   2.464
  721SOL     OW 2180   2.290   0.424   2.382
  721SOL    HW1 2181   2.320   0.352   2.320
  721SOL    HW2 2182   2.251   0.384   2.465
  722SOL     OW 2183   2.674   1.586   2.549
  722SOL    HW1 2184   2.706   1.596   2.455
  722SOL    HW2 2185   2.595   1.524   2.551
  723SOL     OW 2186   2.632   1.330   2.163
  723SOL    HW1 2187   2.586   1.243   2.180
  723SOL    HW2 2188   2.723   1.327   2.204
  724SOL     OW 2189   1.901   1.077   2.162
  724SOL    HW1 2190   2.000   1.066   2.153
  724SOL    HW2 2191   1.861   0.991   2.194
  725SOL     OW 2192   2.737   1.646   2.199
  725SOL    HW1 2193   2.660   1.611   2.145
  725SOL    HW2 2194   2.705   1.717   2.261
  726SOL     OW 2195   2.092   2.490   0.113
  726SOL    HW1 2196   1.999   2.488   0.150
  726SOL    HW2 2197   2.093   2.451   0.021
  727SOL     OW 2198   2.087   2.137   0.996
  727SOL    HW1 2199   2.122   2.120   1.088
  727SOL    HW2 2200   1.999   2.092   0.984
  728SOL     OW 2201   1.881   2.230   0.647
  728SOL    HW1 2202   1.799   2.273   0.686
  728SOL    HW2 2203   1.853   2.157   0.584
  729SOL     OW 2204   2.630   3.006   1.023
  729SOL    HW1 2205   2.552   3.023   1.083
  729SOL    HW2 2206   2.664   3.093   0.987
  730SOL     OW 2207   2.712   2.660   1.823
  730SOL    HW1 2208   2.708   2.736   1.888
  730SOL    HW2 2209   2.734   2.696   1.732
  731SOL     OW 2210   2.547   2.874   0.665
  731SOL    HW1 2211   2.616   2.858   0.735
  731SOL    HW2 2212   2.474   2.931   0.703
  732SOL     OW 2213   2.300   2.254   1.499
  732SOL    HW1 2214   2.382   2.198   1.508
  732SOL    HW2 2215   2.219   2.196   1.503
  733SOL     OW 2216   2.102   2.953   0.886
  733SOL    HW1 2217   2.116   2.869   0.938
  733SOL    HW2 2218   2.047   3.017   0.941
  734SOL     OW 2219   2.468   2.826   0.123
  734SOL    HW1 2220   2.475   2.910   0.069
  734SOL    HW2 2221   2.514   2.839   0.211
  735SOL     OW 2222   1.984   2.505   0.563
  735SOL    HW1 2223   1.939   2.417   0.580
  735SOL    HW2 2224   1.983   2.559   0.647
  736SOL     OW 2225   1.975   2.599   1.597
  736SOL    HW1 2226   2.063   2.586   1.642
  736SOL    HW2 2227   1.962   2.696   1.575
  737SOL     OW 2228   2.671   1.866   0.502
  737SOL    HW1 2229   2.711   1.957   0.493
  737SOL    HW2 2230   2.571   1.874   0.508
  738SOL     OW 2231   2.059   2.838   1.264
  738SOL    HW1 2232   2.148   2.793   1.250
  738SOL    HW2 2233   1.986   2.773   1.245
  739SOL     OW 2234   2.179   2.113   1.801
  739SOL    HW1 2235   2.250   2.184   1.807
  739SOL    HW2 2236   2.091   2.152   1.829
  740SOL     OW 2237   2.460   2.591   0.270
  740SOL    HW1 2238   2.484   2.660   0.202
  740SOL    HW2 2239   2.382   2.624   0.324
  741SOL     OW 2240   2.669   2.467   1.465
  741SOL    HW1 2241   2.622   2.464   1.554
  741SOL    HW2 2242   2.618   2.412   1.399
  742SOL     OW 2243   2.835   2.752   1.572
  742SOL    HW1 2244   2.881   2.668   1.543
  742SOL    HW2 2245   2.779   2.786   1.497
  743SOL     OW 2246   2.853   2.272   1.242
  743SOL    HW1 2247   2.776   2.306   1.296
  743SOL    HW2 2248   2.819   2.221   1.163
  744SOL     OW 2249   1.938   2.673   0.789
  744SOL    HW1 2250   2.037   2.661   0.798
  744SOL    HW2 2251   1.914   2.768   0.810
  745SOL     OW 2252   2.727   2.210   0.195
  745SOL    HW1 2253   2.786   2.273   0.146
  745SOL    HW2 2254   2.746   2.116   0.166
  746SOL     OW 2255   2.412   2.058   0.885
  746SOL    HW1 2256   2.407   2.053   0.985
  746SOL    HW2 2257   2.414   2.154   0.856
  747SOL     OW 2258   2.064   2.147   1.498
  747SOL    HW1 2259   1.984   2.207   1.485
  747SOL    HW2 2260   2.054   2.098   1.584
  748SOL     OW 2261   2.244   2.562   0.480
  748SOL    HW1 2262   2.289   2.472   0.477
  748SOL    HW2 2263   2.150   2.551   0.513
  749SOL     OW 2264   2.476   1.984   0.117
  749SOL    HW1 2265   2.574   1.962   0.124
  749SOL    HW2 2266   2.445   1.967   0.024
  750SOL     OW 2267   2.643   2.126   1.749
  750SOL    HW1 2268   2.710   2.065   1.792
  750SOL    HW2 2269   2.570   2.145   1.814
  751SOL     OW 2270   2.784   2.365   0.899
  751SOL    HW1 2271   2.759   2.356   0.803
  751SOL    HW2 2272   2.832   2.283   0.930
  752SOL     OW 2273   2.401   1.926   0.512
  752SOL    HW1 2274   2.320   1.927   0.570
  752SOL    HW2 2275   2.404   2.009   0.457
  753SOL     OW 2276   2.797   2.098   0.480
  753SOL    HW1 2277   2.749   2.139   0.402
  753SOL    HW2 2278   2.896   2.096   0.461
  754SOL     OW 2279   2.894   2.411   0.016
  754SOL    HW1 2280   2.853   2.493  -0.023
  754SOL    HW2 2281   2.958   2.437   0.089
  755SOL     OW 2282   1.940   2.418   1.386
  755SOL    HW1 2283   2.032   2.417   1.345
  755SOL    HW2 2284   1.934   2.492   1.453
  756SOL     OW 2285   2.423   2.084   1.147
  756SOL    HW1 2286   2.461   2.000   1.184
  756SOL    HW2 2287   2.335   2.103   1.191
  757SOL     OW 2288   2.728   2.316   0.642
  757SOL    HW1 2289   2.696   2.388   0.580
  757SOL    HW2 2290   2.752   2.235   0.589
  758SOL     OW 2291   2.879   1.901   0.753
  758SOL    HW1 2292   2.807   1.906   0.684
  758SOL    HW2 2293   2.855   1.832   0.822
  759SOL     OW 2294   2.389   2.118   0.328
  759SOL    HW1 2295   2.416   2.059   0.253
  759SOL    HW2 2296   2.389   2.213   0.297
  760SOL     OW 2297   2.777   1.951   1.402
  760SOL    HW1 2298   2.802   1.931   1.307
  760SOL    HW2 2299   2.849   2.007   1.444
  761SOL     OW 2300   2.272   2.675   1.251
  761SOL    HW1 2301   2.358   2.687   1.301
  761SOL    HW2 2302   2.230   2.588   1.278
  762SOL     OW 2303   2.428   2.399   0.865
  762SOL    HW1 2304   2.440   2.465   0.791
  762SOL    HW2 2305   2.474   2.433   0.948
  763SOL     OW 2306   2.264   2.613   1.598
  763SOL    HW1 2307   2.332   2.668   1.551
  763SOL    HW2 2308   2.304   2.525   1.625
  764SOL     OW 2309   2.875   1.967   1.770
  764SOL    HW1 2310   2.881   2.052   1.718
  764SOL    HW2 2311   2.907   1.891   1.713
  765SOL     OW 2312   2.366   1.912   1.740
  765SOL    HW1 2313   2.324   1.855   1.670
  765SOL    HW2 2314   2.300   1.981   1.772
  766SOL     OW 2315   2.435   2.732   1.029
  766SOL    HW1 2316   2.479   2.821   1.020
  766SOL    HW2 2317   2.372   2.732   1.106
  767SOL     OW 2318   3.071   2.387   0.275
  767SOL    HW1 2319   3.084   2.303   0.329
  767SOL    HW2 2320   3.042   2.461   0.335
  768SOL     OW 2321   2.169   2.075   1.231
  768SOL    HW1 2322   2.146   2.112   1.321
  768SOL    HW2 2323   2.139   1.980   1.225
  769SOL     OW 2324   2.594   2.496   1.064
  769SOL    HW1 2325   2.653   2.470   0.988
  769SOL    HW2 2326   2.566   2.592   1.053
  770SOL     OW 2327   2.169   1.925   0.618
  770SOL    HW1 2328   2.158   2.019   0.651
  770SOL    HW2 2329   2.164   1.862   0.695
  771SOL     OW 2330   2.885   2.628   0.966
  771SOL    HW1 2331   2.900   2.649   1.062
  771SOL    HW2 2332   2.855   2.533   0.957
  772SOL     OW 2333   2.212   2.760   1.804
  772SOL    HW1 2334   2.288   2.804   1.852
  772SOL    HW2 2335   2.247   2.713   1.722
  773SOL     OW 2336   2.181   2.672   0.949
  773SOL    HW1 2337   2.274   2.708   0.954
  773SOL    HW2 2338   2.175   2.587   1.001
  774SOL     OW 2339   2.201   2.371   1.006
  774SOL    HW1 2340   2.149   2.288   0.989
  774SOL    HW2 2341   2.278   2.376   0.942
  775SOL     OW 2342   2.864   2.658   1.238
  775SOL    HW1 2343   2.905   2.626   1.324
  775SOL    HW2 2344   2.768   2.631   1.235
  776SOL     OW 2345   1.902   2.406   1.114
  776SOL    HW1 2346   1.987   2.373   1.073
  776SOL    HW2 2347   1.915   2.421   1.212
  777SOL     OW 2348   2.051   2.382   1.722
  777SOL    HW1 2349   2.110   2.342   1.652
  777SOL    HW2 2350   1.993   2.453   1.681
  778SOL     OW 2351   2.677   2.434   0.325
  778SOL    HW1 2352   2.684   2.345   0.279
  778SOL    HW2 2353   2.583   2.468   0.317
  779SOL     OW 2354   2.533   2.326   1.269
  779SOL    HW1 2355   2.499   2.237   1.239
  779SOL    HW2 2356   2.559   2.380   1.189
  780SOL     OW 2357   2.335   2.362   0.191
  780SOL    HW1 2358   2.396   2.442   0.195
  780SOL    HW2 2359   2.240   2.393   0.198
  781SOL     OW 2360   2.021   2.999   1.466
  781SOL    HW1 2361   2.043   2.938   1.542
  781SOL    HW2 2362   2.031   2.950   1.380
  782SOL     OW 2363   3.164   2.717   0.309
  782SOL    HW1 2364   3.078   2.686   0.351
  782SOL    HW2 2365   3.160   2.703   0.210
  783SOL     OW 2366   2.765   1.948   0.133
  783SOL    HW1 2367   2.816   1.949   0.047
  783SOL    HW2 2368   2.821   1.906   0.204
  784SOL     OW 2369   2.125   2.188   0.720
  784SOL    HW1 2370   2.046   2.239   0.686
  784SOL    HW2 2371   2.116   2.173   0.818
  785SOL     OW 2372   2.778   2.772   0.291
  785SOL    HW1 2373   2.841   2.810   0.223
  785SOL    HW2 2374   2.818   2.689   0.330
  786SOL     OW 2375   2.876   2.098   0.971
  786SOL    HW1 2376   2.868   2.062   0.878
  786SOL    HW2 2377   2.874   2.022   1.036
  787SOL     OW 2378   1.967   2.875   1.726
  787SOL    HW1 2379   1.890   2.842   1.780
  787SOL    HW2 2380   2.052   2.845   1.768
  788SOL     OW 2381   2.534   2.065   1.489
  788SOL    HW1 2382   2.624   2.049   1.449
  788SOL    HW2 2383   2.542   2.070   1.588
  789SOL     OW 2384   1.937   2.207   0.033
  789SOL    HW1 2385   1.845   2.179   0.004
  789SOL    HW2 2386   1.968   2.284  -0.023
  790SOL     OW 2387   1.934   2.028   0.318
  790SOL    HW1 2388   1.917   2.111   0.264
  790SOL    HW2 2389   2.024   1.991   0.296
  791SOL     OW 2390   2.475   2.704   1.431
  791SOL    HW1 2391   2.531   2.785   1.414
  791SOL    HW2 2392   2.534   2.624   1.434
  792SOL     OW 2393   2.578   2.427   1.708
  792SOL    HW1 2394   2.597   2.492   1.782
  792SOL    HW2 2395   2.638   2.347   1.717
  793SOL     OW 2396   3.087   2.187   0.449
  793SOL    HW1 2397   3.152   2.113   0.438
  793SOL    HW2 2398   3.107   2.237   0.533
  794SOL     OW 2399   2.456   2.607   0.652
  794SOL    HW1 2400   2.506   2.692   0.633
  794SOL    HW2 2401   2.368   2.609   0.604
  795SOL     OW 2402   2.721   2.818   0.861
  795SOL    HW1 2403   2.775   2.749   0.909
  795SOL    HW2 2404   2.689   2.887   0.927
  796SOL     OW 2405   2.945   2.846   0.087
  796SOL    HW1 2406   2.922   2.899   0.005
  796SOL    HW2 2407   3.026   2.790   0.068
  797SOL     OW 2408   1.941   3.102   0.653
  797SOL    HW1 2409   1.940   3.055   0.741
  797SOL    HW2 2410   2.023   3.074   0.602
  798SOL     OW 2411   2.290   2.286   0.520
  798SOL    HW1 2412   2.320   2.214   0.458
  798SOL    HW2 2413   2.251   2.246   0.603
  799SOL     OW 2414   2.179   2.409   1.280
  799SOL    HW1 2415   2.217   2.350   1.352
  799SOL    HW2 2416   2.219   2.383   1.192
  800SOL     OW 2417   2.863   1.896   1.154
  800SOL    HW1 2418   2.800   1.824   1.123
  800SOL    HW2 2419   2.956   1.860   1.154
  801SOL     OW 2420   2.092   2.490   1.975
  801SOL    HW1 2421   1.999   2.488   2.012
  801SOL    HW2 2422   2.093   2.451   1.883
  802SOL     OW 2423   2.087   2.137   2.858
  802SOL    HW1 2424   2.122   2.120   2.950
  802SOL    HW2 2425   1.999   2.092   2.846
  803SOL     OW 2426   1.881   2.230   2.509
  803SOL    HW1 2427   1.799   2.273   2.548
  803SOL    HW2 2428   1.853   2.157   2.446
  804SOL     OW 2429   2.547   2.874   2.527
  804SOL    HW1 2430   2.616   2.858   2.597
  804SOL    HW2 2431   2.474   2.931   2.565
  805SOL     OW 2432   2.102   2.953   2.748
  805SOL    HW1 2433   2.116   2.869   2.800
  805SOL    HW2 2434   2.047   3.017   2.803
  806SOL     OW 2435   2.468   2.826   1.985
  806SOL    HW1 2436   2.475   2.910   1.931
  806SOL    HW2 2437   2.514   2.839   2.073
  807SOL     OW 2438   1.984   2.505   2.425
  807SOL    HW1 2439   1.939   2.417   2.442
  807SOL    HW2 2440   1.983   2.559   2.509
  808SOL     OW 2441   2.671   1.866   2.364
  808SOL    HW1 2442   2.711   1.957   2.355
  808SOL    HW2 2443   2.571   1.874   2.370
  809SOL     OW 2444   2.460   2.591   2.132
  809SOL    HW1 2445   2.484   2.660   2.064
  809SOL    HW2 2446   2.382   2.624   2.186
  810SOL     OW 2447   1.938   2.673   2.651
  810SOL    HW1 2448   2.037   2.661   2.660
  810SOL    HW2 2449   1.914   2.768   2.672
  811SOL     OW 2450   2.727   2.210   2.057
  811SOL    HW1 2451   2.786   2.273   2.008
  811SOL    HW2 2452   2.746   2.116   2.028
  812SOL     OW 2453   2.412   2.058   2.747
  812SOL    HW1 2454   2.407   2.053   2.847
  812SOL    HW2 2455   2.414   2.154   2.718
  813SOL     OW 2456   2.244   2.562   2.342
  813SOL    HW1 2457   2.289   2.472   2.339
  813SOL    HW2 2458   2.150   2.551   2.375
  814SOL     OW 2459   2.476   1.984   1.979
  814SOL    HW1 2460   2.574   1.962   1.986
  814SOL    HW2 2461   2.445   1.967   1.886
  815SOL     OW 2462   2.784   2.365   2.761
  815SOL    HW1 2463   2.759   2.356   2.665
  815SOL    HW2 2464   2.832   2.283   2.792
  816SOL     OW 2465   2.401   1.926   2.374
  816SOL    HW1 2466   2.320   1.927   2.432
  816SOL    HW2 2467   2.404   2.009   2.319
  817SOL     OW 2468   2.159   1.897   2.033
  817SOL    HW1 2469   2.208   1.981   2.012
  817SOL    HW2 2470   2.221   1.832   2.078
  818SOL     OW 2471   2.797   2.098   2.342
  818SOL    HW1 2472   2.749   2.139   2.264
  818SOL    HW2 2473   2.896   2.096   2.323
  819SOL     OW 2474   2.894   2.411   1.878
  819SOL    HW1 2475   2.853   2.493   1.839
  819SOL    HW2 2476   2.958   2.437   1.951
  820SOL     OW 2477   2.728   2.316   2.504
  820SOL    HW1 2478   2.696   2.388   2.442
  820SOL    HW2 2479   2.752   2.235   2.451
  821SOL     OW 2480   2.879   1.901   2.615
  821SOL    HW1 2481   2.807   1.906   2.546
  821SOL    HW2 2482   2.855   1.832   2.684
  822SOL     OW 2483   2.389   2.118   2.190
  822SOL    HW1 2484   2.416   2.059   2.115
  822SOL    HW2 2485   2.389   2.213   2.159
  823SOL     OW 2486   2.973   3.057   2.962
  823SOL    HW1 2487   2.933   3.101   3.043
  823SOL    HW2 2488   2.932   3.094   2.879
  824SOL     OW 2489   2.428   2.399   2.727
  824SOL    HW1 2490   2.440   2.465   2.653
  824SOL    HW2 2491   2.474   2.433   2.810
  825SOL     OW 2492   2.435   2.732   2.891
  825SOL    HW1 2493   2.479   2.821   2.882
  825SOL    HW2 2494   2.372   2.732   2.968
  826SOL     OW 2495   3.071   2.387   2.137
  826SOL    HW1 2496   3.084   2.303   2.191
  826SOL    HW2 2497   3.042   2.461   2.197
  827SOL     OW 2498   2.169   2.075   3.093
  827SOL    HW1 2499   2.146   2.112   3.183
  827SOL    HW2 2500   2.139   1.980   3.087
  828SOL     OW 2501   2.594   2.496   2.926
  828SOL    HW1 2502   2.653   2.470   2.850
  828SOL    HW2 2503   2.566   2.592   2.915
  829SOL     OW 2504   2.169   1.925   2.480
  829SOL    HW1 2505   2.158   2.019   2.513
  829SOL    HW2 2506   2.164   1.862   2.557
  830SOL     OW 2507   2.181   2.672   2.811
  830SOL    HW1 2508   2.274   2.708   2.816
  830SOL    HW2 2509   2.175   2.587   2.863
  831SOL     OW 2510   2.201   2.371   2.868
  831SOL    HW1 2511   2.149   2.288   2.851
  831SOL    HW2 2512   2.278   2.376   2.804
  832SOL     OW 2513   2.864   2.658   3.100
  832SOL    HW1 2514   2.905   2.626   3.186
  832SOL    HW2 2515   2.768   2.631   3.097
  833SOL     OW 2516   2.677   2.434   2.187
  833SOL    HW1 2517   2.684   2.345   2.141
  833SOL    HW2 2518   2.583   2.468   2.179
  834SOL     OW 2519   2.533   2.326   3.131
  834SOL    HW1 2520   2.499   2.237   3.101
  834SOL    HW2 2521   2.559   2.380   3.051
  835SOL     OW 2522   2.335   2.362   2.053
  835SOL    HW1 2523   2.396   2.442   2.057
  835SOL    HW2 2524   2.240   2.393   2.060
  836SOL     OW 2525   3.164   2.717   2.171
  836SOL    HW1 2526   3.078   2.686   2.213
  836SOL    HW2 2527   3.160   2.703   2.072
  837SOL     OW 2528   2.125   2.188   2.582
  837SOL    HW1 2529   2.046   2.239   2.548
  837SOL    HW2 2530   2.116   2.173   2.680
  838SOL     OW 2531   2.778   2.772   2.153
  838SOL    HW1 2532   2.841   2.810   2.085
  838SOL    HW2 2533   2.818   2.689   2.192
  839SOL     OW 2534   1.937   2.207   1.895
  839SOL    HW1 2535   1.845   2.179   1.866
  839SOL    HW2 2536   1.968   2.284   1.839
  840SOL     OW 2537   1.934   2.028   2.180
  840SOL    HW1 2538   1.917   2.111   2.126
  840SOL    HW2 2539   2.024   1.991   2.158
  841SOL     OW 2540   3.087   2.187   2.311
  841SOL    HW1 2541   3.152   2.113   2.300
  841SOL    HW2 2542   3.107   2.237   2.395
  842SOL     OW 2543   2.456   2.607   2.514
  842SOL    HW1 2544   2.506   2.692   2.495
  842SOL    HW2 2545   2.368   2.609   2.466
  843SOL     OW 2546   2.721   2.818   2.723
  843SOL    HW1 2547   2.775   2.749   2.771
  843SOL    HW2 2548   2.689   2.887   2.789
  844SOL     OW 2549   1.941   3.102   2.515
  844SOL    HW1 2550   1.940   3.055   2.603
  844SOL    HW2 2551   2.023   3.074   2.464
  845SOL     OW 2552   2.290   2.286   2.382
  845SOL    HW1 2553   2.320   2.214   2.320
  845SOL    HW2 2554   2.251   2.246   2.465
   2.94085   2.94085   2.94085
