; mobley_2636578_GMX.itp created by acpype (v: 2023.10.27) on Thu May 14 13:33:06 2026

[ atomtypes ]
;name   bond_type     mass     charge   ptype   sigma         epsilon       Amb
 c3       c3          0.00000  0.00000   A     3.39771e-01   4.51035e-01 ; 1.91  0.1078
 no       no          0.00000  0.00000   A     3.36510e-01   3.58987e-01 ; 1.89  0.0858
 o        o           0.00000  0.00000   A     3.04812e-01   6.12119e-01 ; 1.71  0.1463
 os       os          0.00000  0.00000   A     3.15610e-01   3.03758e-01 ; 1.77  0.0726
 hc       hc          0.00000  0.00000   A     2.60018e-01   8.70272e-02 ; 1.46  0.0208
 h1       h1          0.00000  0.00000   A     2.42200e-01   8.70272e-02 ; 1.36  0.0208

[ moleculetype ]
;name            nrexcl
 mobley_2636578   3

[ atoms ]
;   nr  type  resi  res  atom  cgnr     charge      mass       ; qtot   bond_type
     1   c3     1   MOL    C1    1    -0.095400     12.01000 ; qtot -0.095
     2   c3     1   MOL    C2    2     0.134400     12.01000 ; qtot 0.039
     3   c3     1   MOL    C3    3     0.134400     12.01000 ; qtot 0.173
     4   no     1   MOL    N1    4     0.378200     14.01000 ; qtot 0.552
     5   no     1   MOL    N2    5     0.378200     14.01000 ; qtot 0.930
     6    o     1   MOL    O1    6    -0.174000     16.00000 ; qtot 0.756
     7    o     1   MOL    O2    7    -0.174000     16.00000 ; qtot 0.582
     8    o     1   MOL    O3    8    -0.174000     16.00000 ; qtot 0.408
     9    o     1   MOL    O4    9    -0.174000     16.00000 ; qtot 0.234
    10   os     1   MOL    O5   10    -0.350000     16.00000 ; qtot -0.116
    11   os     1   MOL    O6   11    -0.350000     16.00000 ; qtot -0.466
    12   hc     1   MOL    H1   12     0.087700      1.00800 ; qtot -0.379
    13   hc     1   MOL    H2   13     0.087700      1.00800 ; qtot -0.291
    14   h1     1   MOL    H3   14     0.072700      1.00800 ; qtot -0.218
    15   h1     1   MOL    H4   15     0.072700      1.00800 ; qtot -0.145
    16   h1     1   MOL    H5   16     0.072700      1.00800 ; qtot -0.073
    17   h1     1   MOL    H6   17     0.072700      1.00800 ; qtot -0.000

[ bonds ]
;   ai     aj funct   r             k
     1      2   1    1.5354e-01    1.9154e+05 ;     C1 - C2    
     1      3   1    1.5354e-01    1.9154e+05 ;     C1 - C3    
     1     12   1    1.0962e-01    2.8891e+05 ;     C1 - H1    
     1     13   1    1.0962e-01    2.8891e+05 ;     C1 - H2    
     2     10   1    1.4273e-01    2.3620e+05 ;     C2 - O5    
     2     14   1    1.0969e-01    2.8804e+05 ;     C2 - H3    
     2     15   1    1.0969e-01    2.8804e+05 ;     C2 - H4    
     3     11   1    1.4273e-01    2.3620e+05 ;     C3 - O6    
     3     16   1    1.0969e-01    2.8804e+05 ;     C3 - H5    
     3     17   1    1.0969e-01    2.8804e+05 ;     C3 - H6    
     4      6   1    1.2311e-01    3.0270e+05 ;     N1 - O1    
     4      8   1    1.2311e-01    3.0270e+05 ;     N1 - O3    
     4     10   1    1.4202e-01    1.5509e+05 ;     N1 - O5    
     5      7   1    1.2311e-01    3.0270e+05 ;     N2 - O2    
     5      9   1    1.2311e-01    3.0270e+05 ;     N2 - O4    
     5     11   1    1.4202e-01    1.5509e+05 ;     N2 - O6    

[ pairs ]
;   ai     aj    funct
     1      4      1 ;     C1 - N1    
     1      5      1 ;     C1 - N2    
     2      6      1 ;     C2 - O1    
     2      8      1 ;     C2 - O3    
     2     11      1 ;     C2 - O6    
     2     16      1 ;     C2 - H5    
     2     17      1 ;     C2 - H6    
     3      7      1 ;     C3 - O2    
     3      9      1 ;     C3 - O4    
     3     10      1 ;     C3 - O5    
     3     14      1 ;     C3 - H3    
     3     15      1 ;     C3 - H4    
     4     14      1 ;     N1 - H3    
     4     15      1 ;     N1 - H4    
     5     16      1 ;     N2 - H5    
     5     17      1 ;     N2 - H6    
    12     10      1 ;     H1 - O5    
    12     11      1 ;     H1 - O6    
    12     14      1 ;     H1 - H3    
    12     15      1 ;     H1 - H4    
    12     16      1 ;     H1 - H5    
    12     17      1 ;     H1 - H6    
    13     10      1 ;     H2 - O5    
    13     11      1 ;     H2 - O6    
    13     14      1 ;     H2 - H3    
    13     15      1 ;     H2 - H4    
    13     16      1 ;     H2 - H5    
    13     17      1 ;     H2 - H6    

[ angles ]
;   ai     aj     ak    funct   theta         cth
     1      2     10      1    1.0762e+02    6.4802e+02 ;     C1 - C2     - O5    
     1      2     14      1    1.0959e+02    3.6217e+02 ;     C1 - C2     - H3    
     1      2     15      1    1.0959e+02    3.6217e+02 ;     C1 - C2     - H4    
     1      3     11      1    1.0762e+02    6.4802e+02 ;     C1 - C3     - O6    
     1      3     16      1    1.0959e+02    3.6217e+02 ;     C1 - C3     - H5    
     1      3     17      1    1.0959e+02    3.6217e+02 ;     C1 - C3     - H6    
     2      1      3      1    1.1263e+02    5.0099e+02 ;     C2 - C1     - C3    
     2      1     12      1    1.0968e+02    3.6208e+02 ;     C2 - C1     - H1    
     2      1     13      1    1.0968e+02    3.6208e+02 ;     C2 - C1     - H2    
     2     10      4      1    1.1387e+02    7.8567e+02 ;     C2 - O5     - N1    
     3      1     12      1    1.0968e+02    3.6208e+02 ;     C3 - C1     - H1    
     3      1     13      1    1.0968e+02    3.6208e+02 ;     C3 - C1     - H2    
     3     11      5      1    1.1387e+02    7.8567e+02 ;     C3 - O6     - N2    
     6      4      8      1    1.2505e+02    1.0964e+03 ;     O1 - N1     - O3    
     6      4     10      1    1.1480e+02    1.0519e+03 ;     O1 - N1     - O5    
     7      5      9      1    1.2505e+02    1.0964e+03 ;     O2 - N2     - O4    
     7      5     11      1    1.1480e+02    1.0519e+03 ;     O2 - N2     - O6    
     8      4     10      1    1.1480e+02    1.0519e+03 ;     O3 - N1     - O5    
     9      5     11      1    1.1480e+02    1.0519e+03 ;     O4 - N2     - O6    
    10      2     14      1    1.1034e+02    4.7028e+02 ;     O5 - C2     - H3    
    10      2     15      1    1.1034e+02    4.7028e+02 ;     O5 - C2     - H4    
    11      3     16      1    1.1034e+02    4.7028e+02 ;     O6 - C3     - H5    
    11      3     17      1    1.1034e+02    4.7028e+02 ;     O6 - C3     - H6    
    12      1     13      1    1.0773e+02    2.9957e+02 ;     H1 - C1     - H2    
    14      2     15      1    1.0855e+02    2.9824e+02 ;     H3 - C2     - H4    
    16      3     17      1    1.0855e+02    2.9824e+02 ;     H5 - C3     - H6    

[ dihedrals ] ; propers
; for gromacs 4.5 or higher, using funct 9
;    i      j      k      l   func   phase     kd      pn
     1      2     10      4      9     0.00   1.60387   3 ;     C1-    C2-    O5-    N1
     1      3     11      5      9     0.00   1.60387   3 ;     C1-    C3-    O6-    N2
     2      1      3     11      9     0.00   0.65084   3 ;     C2-    C1-    C3-    O6
     2      1      3     16      9     0.00   0.65084   3 ;     C2-    C1-    C3-    H5
     2      1      3     17      9     0.00   0.65084   3 ;     C2-    C1-    C3-    H6
     2     10      4      6      9   180.00  10.60644   2 ;     C2-    O5-    N1-    O1
     2     10      4      8      9   180.00  10.60644   2 ;     C2-    O5-    N1-    O3
     3      1      2     10      9     0.00   0.65084   3 ;     C3-    C1-    C2-    O5
     3      1      2     14      9     0.00   0.65084   3 ;     C3-    C1-    C2-    H3
     3      1      2     15      9     0.00   0.65084   3 ;     C3-    C1-    C2-    H4
     3     11      5      7      9   180.00  10.60644   2 ;     C3-    O6-    N2-    O2
     3     11      5      9      9   180.00  10.60644   2 ;     C3-    O6-    N2-    O4
     4     10      2     14      9     0.00   1.60387   3 ;     N1-    O5-    C2-    H3
     4     10      2     15      9     0.00   1.60387   3 ;     N1-    O5-    C2-    H4
     5     11      3     16      9     0.00   1.60387   3 ;     N2-    O6-    C3-    H5
     5     11      3     17      9     0.00   1.60387   3 ;     N2-    O6-    C3-    H6
    12      1      2     10      9     0.00   0.00000   0 ;     H1-    C1-    C2-    O5
    12      1      2     10      9     0.00   1.04600   1 ;     H1-    C1-    C2-    O5
    12      1      2     14      9     0.00   0.65084   3 ;     H1-    C1-    C2-    H3
    12      1      2     15      9     0.00   0.65084   3 ;     H1-    C1-    C2-    H4
    12      1      3     11      9     0.00   0.00000   0 ;     H1-    C1-    C3-    O6
    12      1      3     11      9     0.00   1.04600   1 ;     H1-    C1-    C3-    O6
    12      1      3     16      9     0.00   0.65084   3 ;     H1-    C1-    C3-    H5
    12      1      3     17      9     0.00   0.65084   3 ;     H1-    C1-    C3-    H6
    13      1      2     10      9     0.00   0.00000   0 ;     H2-    C1-    C2-    O5
    13      1      2     10      9     0.00   1.04600   1 ;     H2-    C1-    C2-    O5
    13      1      2     14      9     0.00   0.65084   3 ;     H2-    C1-    C2-    H3
    13      1      2     15      9     0.00   0.65084   3 ;     H2-    C1-    C2-    H4
    13      1      3     11      9     0.00   0.00000   0 ;     H2-    C1-    C3-    O6
    13      1      3     11      9     0.00   1.04600   1 ;     H2-    C1-    C3-    O6
    13      1      3     16      9     0.00   0.65084   3 ;     H2-    C1-    C3-    H5
    13      1      3     17      9     0.00   0.65084   3 ;     H2-    C1-    C3-    H6

[ dihedrals ] ; impropers
; treated as propers in GROMACS to use correct AMBER analytical function
;    i      j      k      l   func   phase     kd      pn
     6      8      4     10      4   180.00   4.60240   2 ;     O1-    O3-    N1-    O5
     7      9      5     11      4   180.00   4.60240   2 ;     O2-    O4-    N2-    O6
