mobley_5056289_GMX.gro created by acpype (v: 2023.10.27) on Thu May 14 13:19:29 2026
 1549
    1MOL     C1    1   1.173   1.343   1.176
    1MOL     C2    2   1.149   1.254   1.296
    1MOL     C3    3   1.252   1.252   1.085
    1MOL     C4    4   1.277   1.172   1.303
    1MOL     C5    5   1.382   1.235   1.394
    1MOL     O1    6   1.331   1.167   1.170
    1MOL     H1    7   1.081   1.380   1.130
    1MOL     H2    8   1.234   1.429   1.206
    1MOL     H3    9   1.126   1.309   1.387
    1MOL     H4   10   1.064   1.187   1.274
    1MOL     H5   11   1.186   1.188   1.026
    1MOL     H6   12   1.318   1.307   1.017
    1MOL     H7   13   1.257   1.070   1.337
    1MOL     H8   14   1.365   1.343   1.403
    1MOL     H9   15   1.377   1.191   1.494
    1MOL    H10   16   1.482   1.219   1.354
    2SOL     OW   17   0.230   0.628   0.113
    2SOL    HW1   18   0.137   0.626   0.150
    2SOL    HW2   19   0.231   0.589   0.021
    3SOL     OW   20   0.225   0.275   0.996
    3SOL    HW1   21   0.260   0.258   1.088
    3SOL    HW2   22   0.137   0.230   0.984
    4SOL     OW   23   0.019   0.368   0.647
    4SOL    HW1   24  -0.063   0.411   0.686
    4SOL    HW2   25  -0.009   0.295   0.584
    5SOL     OW   26   0.569   1.275   1.165
    5SOL    HW1   27   0.476   1.268   1.128
    5SOL    HW2   28   0.580   1.364   1.209
    6SOL     OW   29   1.555   1.511   0.703
    6SOL    HW1   30   1.498   1.495   0.784
    6SOL    HW2   31   1.496   1.521   0.623
    7SOL     OW   32   1.135   0.703   0.717
    7SOL    HW1   33   1.192   0.781   0.692
    7SOL    HW2   34   1.075   0.729   0.793
    8SOL     OW   35   1.755   0.607   0.231
    8SOL    HW1   36   1.743   0.594   0.132
    8SOL    HW2   37   1.725   0.526   0.280
    9SOL     OW   38   0.768   1.144   1.023
    9SOL    HW1   39   0.690   1.161   1.083
    9SOL    HW2   40   0.802   1.231   0.987
   10SOL     OW   41   0.850   0.798   1.823
   10SOL    HW1   42   0.846   0.874   1.888
   10SOL    HW2   43   0.872   0.834   1.732
   11SOL     OW   44   0.685   1.012   0.665
   11SOL    HW1   45   0.754   0.996   0.735
   11SOL    HW2   46   0.612   1.069   0.703
   12SOL     OW   47   0.686   1.161   1.803
   12SOL    HW1   48   0.746   1.240   1.817
   12SOL    HW2   49   0.600   1.192   1.762
   13SOL     OW   50   0.335   1.435   1.061
   13SOL    HW1   51   0.257   1.404   1.008
   13SOL    HW2   52   0.393   1.493   1.004
   14SOL     OW   53   0.438   0.392   1.499
   14SOL    HW1   54   0.520   0.336   1.508
   14SOL    HW2   55   0.357   0.334   1.503
   15SOL     OW   56   1.603   0.447   0.737
   15SOL    HW1   57   1.529   0.493   0.687
   15SOL    HW2   58   1.654   0.515   0.790
   16SOL     OW   59   0.231   1.713   0.483
   16SOL    HW1   60   0.265   1.790   0.537
   16SOL    HW2   61   0.275   1.713   0.393
   17SOL     OW   62   1.127   1.341   1.690
   17SOL    HW1   63   1.174   1.341   1.778
   17SOL    HW2   64   1.079   1.254   1.679
   18SOL     OW   65   0.230   1.434   0.538
   18SOL    HW1   66   0.204   1.530   0.538
   18SOL    HW2   67   0.159   1.380   0.583
   19SOL     OW   68   0.240   1.091   0.886
   19SOL    HW1   69   0.254   1.007   0.938
   19SOL    HW2   70   0.185   1.155   0.941
   20SOL     OW   71   0.620   1.786   1.439
   20SOL    HW1   72   0.528   1.769   1.474
   20SOL    HW2   73   0.648   1.878   1.465
   21SOL     OW   74   0.606   0.964   0.123
   21SOL    HW1   75   0.613   1.048   0.069
   21SOL    HW2   76   0.652   0.977   0.211
   22SOL     OW   77   1.594   0.114   1.480
   22SOL    HW1   78   1.576   0.181   1.408
   22SOL    HW2   79   1.591   0.160   1.569
   23SOL     OW   80   0.122   0.643   0.563
   23SOL    HW1   81   0.077   0.555   0.580
   23SOL    HW2   82   0.121   0.697   0.647
   24SOL     OW   83   1.842   1.767   0.359
   24SOL    HW1   84   1.896   1.738   0.439
   24SOL    HW2   85   1.872   1.857   0.330
   25SOL     OW   86   0.027   1.596   0.117
   25SOL    HW1   87   0.008   1.500   0.138
   25SOL    HW2   88  -0.006   1.654   0.192
   26SOL     OW   89   1.689   0.922   0.612
   26SOL    HW1   90   1.784   0.893   0.620
   26SOL    HW2   91   1.681   0.987   0.537
   27SOL     OW   92   1.641   1.108   0.432
   27SOL    HW1   93   1.727   1.110   0.380
   27SOL    HW2   94   1.655   1.155   0.520
   28SOL     OW   95   0.113   0.737   1.597
   28SOL    HW1   96   0.201   0.724   1.642
   28SOL    HW2   97   0.100   0.834   1.575
   29SOL     OW   98   0.613   1.365   0.726
   29SOL    HW1   99   0.564   1.278   0.735
   29SOL    HW2  100   0.590   1.408   0.639
   30SOL     OW  101   0.809   0.004   0.502
   30SOL    HW1  102   0.849   0.095   0.493
   30SOL    HW2  103   0.709   0.012   0.508
   31SOL     OW  104   0.197   0.976   1.264
   31SOL    HW1  105   0.286   0.931   1.250
   31SOL    HW2  106   0.124   0.911   1.245
   32SOL     OW  107   1.525   0.999   0.190
   32SOL    HW1  108   1.462   0.923   0.203
   32SOL    HW2  109   1.573   1.017   0.276
   33SOL     OW  110   1.187   1.792   1.616
   33SOL    HW1  111   1.211   1.852   1.540
   33SOL    HW2  112   1.194   1.697   1.586
   34SOL     OW  113   0.317   0.251   1.801
   34SOL    HW1  114   0.388   0.322   1.807
   34SOL    HW2  115   0.229   0.290   1.829
   35SOL     OW  116   1.466   1.417   0.953
   35SOL    HW1  117   1.407   1.423   1.033
   35SOL    HW2  118   1.451   1.329   0.907
   36SOL     OW  119   1.667   1.714   0.572
   36SOL    HW1  120   1.626   1.691   0.484
   36SOL    HW2  121   1.649   1.640   0.637
   37SOL     OW  122   0.598   0.729   0.270
   37SOL    HW1  123   0.622   0.798   0.202
   37SOL    HW2  124   0.520   0.762   0.324
   38SOL     OW  125   1.281   0.345   0.944
   38SOL    HW1  126   1.195   0.295   0.931
   38SOL    HW2  127   1.343   0.291   1.000
   39SOL     OW  128   1.576   1.662   0.307
   39SOL    HW1  129   1.665   1.708   0.310
   39SOL    HW2  130   1.555   1.638   0.212
   40SOL     OW  131   0.807   0.605   1.465
   40SOL    HW1  132   0.760   0.602   1.554
   40SOL    HW2  133   0.756   0.550   1.399
   41SOL     OW  134   1.394   0.469   1.674
   41SOL    HW1  135   1.374   0.512   1.762
   41SOL    HW2  136   1.472   0.407   1.683
   42SOL     OW  137   0.973   0.890   1.572
   42SOL    HW1  138   1.019   0.806   1.543
   42SOL    HW2  139   0.917   0.924   1.497
   43SOL     OW  140   0.991   0.410   1.242
   43SOL    HW1  141   0.914   0.444   1.296
   43SOL    HW2  142   0.957   0.359   1.163
   44SOL     OW  143   1.041   0.701   0.429
   44SOL    HW1  144   1.067   0.697   0.525
   44SOL    HW2  145   0.956   0.650   0.415
   45SOL     OW  146   0.076   0.811   0.789
   45SOL    HW1  147   0.175   0.799   0.798
   45SOL    HW2  148   0.052   0.906   0.810
   46SOL     OW  149   0.130   1.821   1.571
   46SOL    HW1  150   0.120   1.806   1.670
   46SOL    HW2  151   0.044   1.857   1.535
   47SOL     OW  152   0.865   0.348   0.195
   47SOL    HW1  153   0.924   0.411   0.146
   47SOL    HW2  154   0.884   0.254   0.166
   48SOL     OW  155   1.719   0.585   1.831
   48SOL    HW1  156   1.693   0.674   1.795
   48SOL    HW2  157   1.717   0.517   1.758
   49SOL     OW  158   1.362   1.144   0.545
   49SOL    HW1  159   1.445   1.115   0.497
   49SOL    HW2  160   1.313   1.211   0.489
   50SOL     OW  161   0.550   0.196   0.885
   50SOL    HW1  162   0.545   0.191   0.985
   50SOL    HW2  163   0.552   0.292   0.856
   51SOL     OW  164   1.008   1.456   0.477
   51SOL    HW1  165   0.962   1.528   0.425
   51SOL    HW2  166   1.004   1.476   0.575
   52SOL     OW  167   0.351   1.801   0.853
   52SOL    HW1  168   0.401   1.715   0.859
   52SOL    HW2  169   0.416   1.878   0.850
   53SOL     OW  170   1.795   1.066   0.873
   53SOL    HW1  171   1.733   1.051   0.797
   53SOL    HW2  172   1.743   1.077   0.958
   54SOL     OW  173   1.227   1.550   1.506
   54SOL    HW1  174   1.233   1.473   1.570
   54SOL    HW2  175   1.175   1.524   1.426
   55SOL     OW  176   0.321   0.943   0.242
   55SOL    HW1  177   0.403   0.982   0.200
   55SOL    HW2  178   0.294   0.861   0.193
   56SOL     OW  179   1.458   0.735   0.728
   56SOL    HW1  180   1.453   0.670   0.803
   56SOL    HW2  181   1.538   0.794   0.741
   57SOL     OW  182   0.461   1.266   1.727
   57SOL    HW1  183   0.411   1.267   1.641
   57SOL    HW2  184   0.398   1.248   1.803
   58SOL     OW  185   1.111   1.776   0.237
   58SOL    HW1  186   1.051   1.714   0.287
   58SOL    HW2  187   1.142   1.732   0.152
   59SOL     OW  188   0.202   0.285   1.498
   59SOL    HW1  189   0.122   0.345   1.485
   59SOL    HW2  190   0.192   0.236   1.584
   60SOL     OW  191   1.632   1.377   0.081
   60SOL    HW1  192   1.600   1.471   0.071
   60SOL    HW2  193   1.556   1.314   0.069
   61SOL     OW  194   0.464   1.743   0.323
   61SOL    HW1  195   0.497   1.782   0.409
   61SOL    HW2  196   0.540   1.736   0.258
   62SOL     OW  197   1.400   0.107   0.426
   62SOL    HW1  198   1.376   0.070   0.336
   62SOL    HW2  199   1.499   0.123   0.430
   63SOL     OW  200   0.249   1.785   1.241
   63SOL    HW1  201   0.306   1.720   1.291
   63SOL    HW2  202   0.233   1.752   1.148
   64SOL     OW  203   0.940   1.698   0.904
   64SOL    HW1  204   1.020   1.641   0.925
   64SOL    HW2  205   0.891   1.658   0.827
   65SOL     OW  206   0.382   0.700   0.480
   65SOL    HW1  207   0.427   0.610   0.477
   65SOL    HW2  208   0.288   0.689   0.513
   66SOL     OW  209   1.547   0.222   1.729
   66SOL    HW1  210   1.542   0.259   1.821
   66SOL    HW2  211   1.475   0.153   1.717
   67SOL     OW  212   0.614   0.122   0.117
   67SOL    HW1  213   0.712   0.100   0.124
   67SOL    HW2  214   0.583   0.105   0.024
   68SOL     OW  215   0.781   0.264   1.749
   68SOL    HW1  216   0.848   0.203   1.792
   68SOL    HW2  217   0.708   0.283   1.814
   69SOL     OW  218   0.888   1.514   1.195
   69SOL    HW1  219   0.865   1.489   1.101
   69SOL    HW2  220   0.949   1.445   1.234
   70SOL     OW  221   1.351   0.590   1.433
   70SOL    HW1  222   1.379   0.547   1.518
   70SOL    HW2  223   1.376   0.686   1.434
   71SOL     OW  224   0.803   1.402   0.924
   71SOL    HW1  225   0.893   1.416   0.882
   71SOL    HW2  226   0.732   1.404   0.853
   72SOL     OW  227   0.922   0.503   0.899
   72SOL    HW1  228   0.897   0.494   0.803
   72SOL    HW2  229   0.970   0.421   0.930
   73SOL     OW  230   0.539   0.064   0.512
   73SOL    HW1  231   0.458   0.065   0.570
   73SOL    HW2  232   0.542   0.147   0.457
   74SOL     OW  233   1.434   1.188   0.041
   74SOL    HW1  234   1.466   1.112   0.098
   74SOL    HW2  235   1.342   1.215   0.071
   75SOL     OW  236   0.297   0.035   0.171
   75SOL    HW1  237   0.346   0.119   0.150
   75SOL    HW2  238   0.359  -0.030   0.216
   76SOL     OW  239   0.935   0.236   0.480
   76SOL    HW1  240   0.887   0.277   0.402
   76SOL    HW2  241   1.034   0.234   0.461
   77SOL     OW  242   1.076   0.683   1.464
   77SOL    HW1  243   0.996   0.622   1.467
   77SOL    HW2  244   1.157   0.630   1.440
   78SOL     OW  245   1.227   1.570   0.793
   78SOL    HW1  246   1.248   1.644   0.728
   78SOL    HW2  247   1.295   1.570   0.866
   79SOL     OW  248   0.459   1.152   0.741
   79SOL    HW1  249   0.388   1.125   0.806
   79SOL    HW2  250   0.433   1.124   0.648
   80SOL     OW  251   1.271   1.797   0.591
   80SOL    HW1  252   1.315   1.861   0.527
   80SOL    HW2  253   1.221   1.849   0.661
   81SOL     OW  254   1.032   0.549   0.016
   81SOL    HW1  255   0.991   0.631  -0.023
   81SOL    HW2  256   1.096   0.575   0.089
   82SOL     OW  257   0.078   0.556   1.386
   82SOL    HW1  258   0.170   0.555   1.345
   82SOL    HW2  259   0.072   0.630   1.453
   83SOL     OW  260   0.561   0.222   1.147
   83SOL    HW1  261   0.599   0.138   1.184
   83SOL    HW2  262   0.473   0.241   1.191
   84SOL     OW  263   0.866   0.454   0.642
   84SOL    HW1  264   0.834   0.526   0.580
   84SOL    HW2  265   0.890   0.373   0.589
   85SOL     OW  266   1.017   0.039   0.753
   85SOL    HW1  267   0.945   0.044   0.684
   85SOL    HW2  268   0.993  -0.030   0.822
   86SOL     OW  269   1.429   1.173   0.867
   86SOL    HW1  270   1.374   1.089   0.860
   86SOL    HW2  271   1.455   1.202   0.775
   87SOL     OW  272   1.466   0.590   0.992
   87SOL    HW1  273   1.436   0.495   0.999
   87SOL    HW2  274   1.539   0.606   1.058
   88SOL     OW  275   1.857   0.833   0.377
   88SOL    HW1  276   1.899   0.769   0.441
   88SOL    HW2  277   1.819   0.782   0.299
   89SOL     OW  278   0.488   1.385   0.174
   89SOL    HW1  279   0.401   1.370   0.221
   89SOL    HW2  280   0.471   1.411   0.079
   90SOL     OW  281   1.664   1.280   0.657
   90SOL    HW1  282   1.763   1.288   0.671
   90SOL    HW2  283   1.619   1.364   0.688
   91SOL     OW  284   1.390   0.575   0.078
   91SOL    HW1  285   1.336   0.554   0.159
   91SOL    HW2  286   1.481   0.534   0.087
   92SOL     OW  287   0.527   0.256   0.328
   92SOL    HW1  288   0.554   0.197   0.253
   92SOL    HW2  289   0.527   0.351   0.297
   93SOL     OW  290   1.754   1.223   1.588
   93SOL    HW1  291   1.845   1.184   1.575
   93SOL    HW2  292   1.762   1.319   1.612
   94SOL     OW  293   1.592   1.629   1.625
   94SOL    HW1  294   1.619   1.663   1.535
   94SOL    HW2  295   1.671   1.591   1.671
   95SOL     OW  296   1.638   1.099   1.079
   95SOL    HW1  297   1.643   1.180   1.138
   95SOL    HW2  298   1.552   1.101   1.028
   96SOL     OW  299   0.915   0.089   1.402
   96SOL    HW1  300   0.940   0.069   1.307
   96SOL    HW2  301   0.987   0.145   1.444
   97SOL     OW  302   0.980   1.116   1.719
   97SOL    HW1  303   0.881   1.122   1.729
   97SOL    HW2  304   1.003   1.036   1.663
   98SOL     OW  305   0.705   1.050   0.368
   98SOL    HW1  306   0.691   1.057   0.467
   98SOL    HW2  307   0.789   0.999   0.350
   99SOL     OW  308   0.410   0.813   1.251
   99SOL    HW1  309   0.496   0.825   1.301
   99SOL    HW2  310   0.368   0.726   1.278
  100SOL     OW  311   1.274   0.386   1.262
  100SOL    HW1  312   1.295   0.460   1.326
  100SOL    HW2  313   1.185   0.403   1.219
  101SOL     OW  314   0.064   1.564   1.331
  101SOL    HW1  315   0.018   1.646   1.297
  101SOL    HW2  316   0.162   1.583   1.340
  102SOL     OW  317   0.367   1.100   0.501
  102SOL    HW1  318   0.360   1.183   0.445
  102SOL    HW2  319   0.371   1.020   0.441
  103SOL     OW  320   0.566   0.537   0.865
  103SOL    HW1  321   0.578   0.603   0.791
  103SOL    HW2  322   0.612   0.571   0.948
  104SOL     OW  323   1.252   1.348   0.388
  104SOL    HW1  324   1.302   1.425   0.428
  104SOL    HW2  325   1.157   1.350   0.420
  105SOL     OW  326   1.582   0.639   0.472
  105SOL    HW1  327   1.551   0.700   0.545
  105SOL    HW2  328   1.632   0.691   0.403
  106SOL     OW  329   0.354   1.510   1.329
  106SOL    HW1  330   0.333   1.466   1.242
  106SOL    HW2  331   0.451   1.536   1.332
  107SOL     OW  332   0.402   0.751   1.598
  107SOL    HW1  333   0.470   0.806   1.551
  107SOL    HW2  334   0.442   0.663   1.625
  108SOL     OW  335   1.587   0.779   1.670
  108SOL    HW1  336   1.495   0.817   1.665
  108SOL    HW2  337   1.647   0.826   1.605
  109SOL     OW  338   1.013   0.105   1.770
  109SOL    HW1  339   1.019   0.190   1.718
  109SOL    HW2  340   1.045   0.029   1.713
  110SOL     OW  341   0.504   0.050   1.740
  110SOL    HW1  342   0.462  -0.007   1.670
  110SOL    HW2  343   0.438   0.119   1.772
  111SOL     OW  344   0.573   0.870   1.029
  111SOL    HW1  345   0.617   0.959   1.020
  111SOL    HW2  346   0.510   0.870   1.106
  112SOL     OW  347   1.360   0.862   1.045
  112SOL    HW1  348   1.285   0.862   0.979
  112SOL    HW2  349   1.397   0.770   1.054
  113SOL     OW  350   1.209   0.525   0.275
  113SOL    HW1  351   1.222   0.441   0.329
  113SOL    HW2  352   1.180   0.599   0.335
  114SOL     OW  353   0.307   0.213   1.231
  114SOL    HW1  354   0.284   0.250   1.321
  114SOL    HW2  355   0.277   0.118   1.225
  115SOL     OW  356   0.037   1.310   1.282
  115SOL    HW1  357   0.090   1.261   1.350
  115SOL    HW2  358   0.059   1.408   1.287
  116SOL     OW  359   0.732   0.634   1.064
  116SOL    HW1  360   0.791   0.608   0.988
  116SOL    HW2  361   0.704   0.730   1.053
  117SOL     OW  362   1.728   0.935   1.854
  117SOL    HW1  363   1.682   0.928   1.765
  117SOL    HW2  364   1.666   0.979   1.920
  118SOL     OW  365   0.307   0.063   0.618
  118SOL    HW1  366   0.296   0.157   0.651
  118SOL    HW2  367   0.302   0.000   0.695
  119SOL     OW  368   1.622   0.367   0.374
  119SOL    HW1  369   1.624   0.291   0.438
  119SOL    HW2  370   1.574   0.444   0.414
  120SOL     OW  371   1.023   0.766   0.966
  120SOL    HW1  372   1.038   0.787   1.062
  120SOL    HW2  373   0.993   0.671   0.957
  121SOL     OW  374   0.980   1.573   1.700
  121SOL    HW1  375   0.960   1.617   1.612
  121SOL    HW2  376   1.019   1.482   1.684
  122SOL     OW  377   1.859   1.518   1.605
  122SOL    HW1  378   1.873   1.545   1.510
  122SOL    HW2  379   1.942   1.540   1.658
  123SOL     OW  380   0.350   0.898   1.804
  123SOL    HW1  381   0.426   0.942   1.852
  123SOL    HW2  382   0.385   0.851   1.722
  124SOL     OW  383   1.540   0.274   0.125
  124SOL    HW1  384   1.479   0.199   0.148
  124SOL    HW2  385   1.562   0.326   0.208
  125SOL     OW  386   1.303   0.838   0.042
  125SOL    HW1  387   1.337   0.745   0.057
  125SOL    HW2  388   1.321   0.865  -0.053
  126SOL     OW  389   1.068   1.333   0.849
  126SOL    HW1  390   1.075   1.249   0.794
  126SOL    HW2  391   1.130   1.402   0.813
  127SOL     OW  392   0.319   0.810   0.949
  127SOL    HW1  393   0.412   0.846   0.954
  127SOL    HW2  394   0.313   0.725   1.001
  128SOL     OW  395   0.339   0.509   1.006
  128SOL    HW1  396   0.287   0.426   0.989
  128SOL    HW2  397   0.416   0.514   0.942
  129SOL     OW  398   1.138   0.380   1.678
  129SOL    HW1  399   1.093   0.443   1.742
  129SOL    HW2  400   1.231   0.411   1.661
  130SOL     OW  401   1.160   0.207   1.477
  130SOL    HW1  402   1.160   0.271   1.554
  130SOL    HW2  403   1.188   0.255   1.394
  131SOL     OW  404   0.008   1.326   0.200
  131SOL    HW1  405  -0.085   1.347   0.169
  131SOL    HW2  406   0.018   1.227   0.213
  132SOL     OW  407   0.088   1.801   0.927
  132SOL    HW1  408   0.046   1.715   0.900
  132SOL    HW2  409   0.182   1.804   0.893
  133SOL     OW  410   0.504   1.568   0.910
  133SOL    HW1  411   0.570   1.642   0.919
  133SOL    HW2  412   0.548   1.489   0.868
  134SOL     OW  413   1.002   0.796   1.238
  134SOL    HW1  414   1.043   0.764   1.324
  134SOL    HW2  415   0.906   0.769   1.235
  135SOL     OW  416   0.040   0.544   1.114
  135SOL    HW1  417   0.125   0.511   1.073
  135SOL    HW2  418   0.053   0.559   1.212
  136SOL     OW  419   0.189   0.520   1.722
  136SOL    HW1  420   0.248   0.480   1.652
  136SOL    HW2  421   0.131   0.591   1.681
  137SOL     OW  422   1.369   0.950   1.660
  137SOL    HW1  423   1.408   1.039   1.680
  137SOL    HW2  424   1.379   0.930   1.563
  138SOL     OW  425   0.815   0.572   0.325
  138SOL    HW1  426   0.822   0.483   0.279
  138SOL    HW2  427   0.721   0.606   0.317
  139SOL     OW  428   1.657   0.604   1.206
  139SOL    HW1  429   1.619   0.535   1.268
  139SOL    HW2  430   1.739   0.568   1.162
  140SOL     OW  431   0.252   1.564   1.744
  140SOL    HW1  432   0.222   1.621   1.820
  140SOL    HW2  433   0.245   1.467   1.770
  141SOL     OW  434   0.671   0.464   1.269
  141SOL    HW1  435   0.637   0.375   1.239
  141SOL    HW2  436   0.697   0.518   1.189
  142SOL     OW  437   0.930   1.678   1.465
  142SOL    HW1  438   0.906   1.660   1.370
  142SOL    HW2  439   0.960   1.772   1.475
  143SOL     OW  440   0.473   0.500   0.191
  143SOL    HW1  441   0.534   0.580   0.195
  143SOL    HW2  442   0.378   0.531   0.198
  144SOL     OW  443   0.159   1.137   1.466
  144SOL    HW1  444   0.181   1.076   1.542
  144SOL    HW2  445   0.169   1.088   1.380
  145SOL     OW  446   1.302   0.855   0.309
  145SOL    HW1  447   1.216   0.824   0.351
  145SOL    HW2  448   1.298   0.841   0.210
  146SOL     OW  449   1.759   1.747   1.154
  146SOL    HW1  450   1.820   1.777   1.081
  146SOL    HW2  451   1.721   1.658   1.132
  147SOL     OW  452   1.252   1.731   1.128
  147SOL    HW1  453   1.336   1.736   1.074
  147SOL    HW2  454   1.229   1.635   1.146
  148SOL     OW  455   0.083   1.258   1.022
  148SOL    HW1  456   0.078   1.257   1.122
  148SOL    HW2  457   0.000   1.217   0.984
  149SOL     OW  458   0.688   1.662   1.716
  149SOL    HW1  459   0.632   1.743   1.725
  149SOL    HW2  460   0.740   1.666   1.630
  150SOL     OW  461   0.903   0.086   0.133
  150SOL    HW1  462   0.954   0.087   0.047
  150SOL    HW2  463   0.959   0.044   0.204
  151SOL     OW  464   1.726   0.135   0.523
  151SOL    HW1  465   1.799   0.118   0.456
  151SOL    HW2  466   1.695   0.048   0.561
  152SOL     OW  467   1.388   1.573   0.477
  152SOL    HW1  468   1.455   1.585   0.403
  152SOL    HW2  469   1.348   1.662   0.500
  153SOL     OW  470   0.130   1.794   1.851
  153SOL    HW1  471   0.089   1.720   1.904
  153SOL    HW2  472   0.194   1.845   1.909
  154SOL     OW  473   1.280   0.927   0.672
  154SOL    HW1  474   1.340   0.846   0.674
  154SOL    HW2  475   1.320   0.996   0.612
  155SOL     OW  476   0.830   1.273   1.422
  155SOL    HW1  477   0.825   1.306   1.517
  155SOL    HW2  478   0.744   1.292   1.376
  156SOL     OW  479   0.672   1.616   0.154
  156SOL    HW1  480   0.681   1.626   0.055
  156SOL    HW2  481   0.632   1.527   0.175
  157SOL     OW  482   1.650   1.720   1.394
  157SOL    HW1  483   1.703   1.730   1.310
  157SOL    HW2  484   1.623   1.810   1.428
  158SOL     OW  485   1.841   0.175   0.963
  158SOL    HW1  486   1.880   0.090   0.927
  158SOL    HW2  487   1.743   0.177   0.944
  159SOL     OW  488   0.263   0.326   0.720
  159SOL    HW1  489   0.184   0.377   0.686
  159SOL    HW2  490   0.254   0.311   0.818
  160SOL     OW  491   1.194   1.612   0.031
  160SOL    HW1  492   1.200   1.519   0.068
  160SOL    HW2  493   1.135   1.612  -0.049
  161SOL     OW  494   0.822   1.002   1.372
  161SOL    HW1  495   0.862   1.001   1.280
  161SOL    HW2  496   0.832   1.094   1.412
  162SOL     OW  497   0.916   0.910   0.291
  162SOL    HW1  498   0.979   0.948   0.223
  162SOL    HW2  499   0.956   0.827   0.330
  163SOL     OW  500   1.504   1.607   0.044
  163SOL    HW1  501   1.412   1.644   0.051
  163SOL    HW2  502   1.542   1.627  -0.046
  164SOL     OW  503   0.372   1.288   1.490
  164SOL    HW1  504   0.359   1.381   1.456
  164SOL    HW2  505   0.288   1.236   1.477
  165SOL     OW  506   1.614   1.292   1.289
  165SOL    HW1  507   1.674   1.295   1.369
  165SOL    HW2  508   1.539   1.356   1.302
  166SOL     OW  509   1.039   1.098   0.696
  166SOL    HW1  510   0.969   1.051   0.750
  166SOL    HW2  511   1.098   1.030   0.653
  167SOL     OW  512   1.014   0.236   0.971
  167SOL    HW1  513   1.006   0.200   0.878
  167SOL    HW2  514   1.012   0.160   1.036
  168SOL     OW  515   0.590   1.487   0.491
  168SOL    HW1  516   0.632   1.429   0.421
  168SOL    HW2  517   0.546   1.566   0.447
  169SOL     OW  518   1.709   0.385   1.381
  169SOL    HW1  519   1.782   0.454   1.385
  169SOL    HW2  520   1.737   0.310   1.322
  170SOL     OW  521   0.255   1.348   0.290
  170SOL    HW1  522   0.159   1.349   0.263
  170SOL    HW2  523   0.267   1.401   0.374
  171SOL     OW  524   0.105   1.013   1.726
  171SOL    HW1  525   0.028   0.980   1.780
  171SOL    HW2  526   0.190   0.983   1.768
  172SOL     OW  527   0.672   0.203   1.489
  172SOL    HW1  528   0.762   0.187   1.449
  172SOL    HW2  529   0.680   0.208   1.588
  173SOL     OW  530   0.075   0.345   0.033
  173SOL    HW1  531  -0.017   0.317   0.004
  173SOL    HW2  532   0.106   0.422  -0.023
  174SOL     OW  533   1.440   0.856   1.398
  174SOL    HW1  534   1.383   0.908   1.335
  174SOL    HW2  535   1.536   0.868   1.374
  175SOL     OW  536   0.072   0.166   0.318
  175SOL    HW1  537   0.055   0.249   0.264
  175SOL    HW2  538   0.162   0.129   0.296
  176SOL     OW  539   1.183   1.335   0.119
  176SOL    HW1  540   1.084   1.324   0.121
  176SOL    HW2  541   1.217   1.350   0.212
  177SOL     OW  542   0.613   0.842   1.431
  177SOL    HW1  543   0.669   0.923   1.414
  177SOL    HW2  544   0.672   0.762   1.434
  178SOL     OW  545   1.493   1.767   0.959
  178SOL    HW1  546   1.526   1.831   0.890
  178SOL    HW2  547   1.559   1.761   1.034
  179SOL     OW  548   0.716   0.565   1.708
  179SOL    HW1  549   0.735   0.630   1.782
  179SOL    HW2  550   0.776   0.485   1.717
  180SOL     OW  551   1.450   1.220   1.633
  180SOL    HW1  552   1.441   1.210   1.732
  180SOL    HW2  553   1.546   1.213   1.607
  181SOL     OW  554   0.390   1.741   1.560
  181SOL    HW1  555   0.299   1.782   1.558
  181SOL    HW2  556   0.383   1.647   1.592
  182SOL     OW  557   1.674   0.883   1.254
  182SOL    HW1  558   1.647   0.794   1.217
  182SOL    HW2  559   1.675   0.951   1.181
  183SOL     OW  560   1.225   0.325   0.449
  183SOL    HW1  561   1.290   0.251   0.438
  183SOL    HW2  562   1.245   0.375   0.533
  184SOL     OW  563   0.594   0.745   0.652
  184SOL    HW1  564   0.644   0.830   0.633
  184SOL    HW2  565   0.506   0.747   0.604
  185SOL     OW  566   1.777   0.342   1.642
  185SOL    HW1  567   1.760   0.373   1.548
  185SOL    HW2  568   1.693   0.305   1.680
  186SOL     OW  569   1.730   0.934   1.517
  186SOL    HW1  570   1.768   1.025   1.532
  186SOL    HW2  571   1.722   0.917   1.418
  187SOL     OW  572   0.859   1.374   0.016
  187SOL    HW1  573   0.813   1.389   0.104
  187SOL    HW2  574   0.903   1.459  -0.014
  188SOL     OW  575   0.661   1.790   0.953
  188SOL    HW1  576   0.615   1.878   0.940
  188SOL    HW2  577   0.760   1.802   0.946
  189SOL     OW  578   0.859   0.956   0.861
  189SOL    HW1  579   0.913   0.887   0.909
  189SOL    HW2  580   0.827   1.025   0.927
  190SOL     OW  581   1.083   0.984   0.087
  190SOL    HW1  582   1.060   1.037   0.005
  190SOL    HW2  583   1.164   0.928   0.068
  191SOL     OW  584   1.861   1.569   0.851
  191SOL    HW1  585   1.790   1.557   0.781
  191SOL    HW2  586   1.862   1.490   0.911
  192SOL     OW  587   0.221   1.314   1.844
  192SOL    HW1  588   0.156   1.241   1.823
  192SOL    HW2  589   0.225   1.328   1.942
  193SOL     OW  590   0.079   1.240   0.653
  193SOL    HW1  591   0.078   1.193   0.741
  193SOL    HW2  592   0.161   1.212   0.602
  194SOL     OW  593   0.672   1.391   1.624
  194SOL    HW1  594   0.594   1.341   1.662
  194SOL    HW2  595   0.669   1.486   1.655
  195SOL     OW  596   1.824   0.192   1.227
  195SOL    HW1  597   1.820   0.102   1.271
  195SOL    HW2  598   1.827   0.181   1.128
  196SOL     OW  599   0.428   0.424   0.520
  196SOL    HW1  600   0.458   0.352   0.458
  196SOL    HW2  601   0.389   0.384   0.603
  197SOL     OW  602   1.705   1.487   1.104
  197SOL    HW1  603   1.612   1.462   1.077
  197SOL    HW2  604   1.731   1.437   1.186
  198SOL     OW  605   0.317   0.547   1.280
  198SOL    HW1  606   0.355   0.488   1.352
  198SOL    HW2  607   0.357   0.521   1.192
  199SOL     OW  608   0.812   1.586   0.687
  199SOL    HW1  609   0.844   1.596   0.593
  199SOL    HW2  610   0.733   1.524   0.689
  200SOL     OW  611   1.424   0.214   1.112
  200SOL    HW1  612   1.476   0.149   1.167
  200SOL    HW2  613   1.375   0.277   1.173
  201SOL     OW  614   1.001   0.034   1.154
  201SOL    HW1  615   0.938  -0.038   1.123
  201SOL    HW2  616   1.094  -0.002   1.154
  202SOL     OW  617   0.770   1.330   0.301
  202SOL    HW1  618   0.724   1.243   0.318
  202SOL    HW2  619   0.861   1.327   0.342
  203SOL     OW  620   0.618   1.567   1.284
  203SOL    HW1  621   0.613   1.649   1.341
  203SOL    HW2  622   0.707   1.564   1.239
  204SOL     OW  623   1.352   0.052   0.168
  204SOL    HW1  624   1.387   0.011   0.084
  204SOL    HW2  625   1.262   0.014   0.188
  205SOL     OW  626   1.300   0.453   0.691
  205SOL    HW1  627   1.241   0.533   0.695
  205SOL    HW2  628   1.315   0.418   0.784
  206SOL     OW  629   1.593   0.221   0.882
  206SOL    HW1  630   1.509   0.220   0.936
  206SOL    HW2  631   1.595   0.304   0.826
  207SOL     OW  632   0.039   1.077   0.300
  207SOL    HW1  633   0.138   1.066   0.291
  207SOL    HW2  634  -0.001   0.991   0.332
  208SOL     OW  635   0.875   1.646   0.337
  208SOL    HW1  636   0.798   1.611   0.283
  208SOL    HW2  637   0.843   1.717   0.399
  209SOL     OW  638   0.230   0.628   1.975
  209SOL    HW1  639   0.137   0.626   2.012
  209SOL    HW2  640   0.231   0.589   1.883
  210SOL     OW  641   1.755   0.607   2.093
  210SOL    HW1  642   1.743   0.594   1.994
  210SOL    HW2  643   1.725   0.526   2.142
  211SOL     OW  644   0.231   1.713   2.345
  211SOL    HW1  645   0.265   1.790   2.399
  211SOL    HW2  646   0.275   1.713   2.255
  212SOL     OW  647   0.230   1.434   2.400
  212SOL    HW1  648   0.204   1.530   2.400
  212SOL    HW2  649   0.159   1.380   2.445
  213SOL     OW  650   0.606   0.964   1.985
  213SOL    HW1  651   0.613   1.048   1.931
  213SOL    HW2  652   0.652   0.977   2.073
  214SOL     OW  653   0.122   0.643   2.425
  214SOL    HW1  654   0.077   0.555   2.442
  214SOL    HW2  655   0.121   0.697   2.509
  215SOL     OW  656   1.842   1.767   2.221
  215SOL    HW1  657   1.896   1.738   2.301
  215SOL    HW2  658   1.872   1.857   2.192
  216SOL     OW  659   0.027   1.596   1.979
  216SOL    HW1  660   0.008   1.500   2.000
  216SOL    HW2  661  -0.006   1.654   2.054
  217SOL     OW  662   1.689   0.922   2.474
  217SOL    HW1  663   1.784   0.893   2.482
  217SOL    HW2  664   1.681   0.987   2.399
  218SOL     OW  665   1.641   1.108   2.294
  218SOL    HW1  666   1.727   1.110   2.242
  218SOL    HW2  667   1.655   1.155   2.382
  219SOL     OW  668   0.809   0.004   2.364
  219SOL    HW1  669   0.849   0.095   2.355
  219SOL    HW2  670   0.709   0.012   2.370
  220SOL     OW  671   1.525   0.999   2.052
  220SOL    HW1  672   1.462   0.923   2.065
  220SOL    HW2  673   1.573   1.017   2.138
  221SOL     OW  674   0.598   0.729   2.132
  221SOL    HW1  675   0.622   0.798   2.064
  221SOL    HW2  676   0.520   0.762   2.186
  222SOL     OW  677   1.576   1.662   2.169
  222SOL    HW1  678   1.665   1.708   2.172
  222SOL    HW2  679   1.555   1.638   2.074
  223SOL     OW  680   1.041   0.701   2.291
  223SOL    HW1  681   1.067   0.697   2.387
  223SOL    HW2  682   0.956   0.650   2.277
  224SOL     OW  683   0.076   0.811   2.651
  224SOL    HW1  684   0.175   0.799   2.660
  224SOL    HW2  685   0.052   0.906   2.672
  225SOL     OW  686   0.865   0.348   2.057
  225SOL    HW1  687   0.924   0.411   2.008
  225SOL    HW2  688   0.884   0.254   2.028
  226SOL     OW  689   0.321   0.943   2.104
  226SOL    HW1  690   0.403   0.982   2.062
  226SOL    HW2  691   0.294   0.861   2.055
  227SOL     OW  692   1.111   1.776   2.099
  227SOL    HW1  693   1.051   1.714   2.149
  227SOL    HW2  694   1.142   1.732   2.014
  228SOL     OW  695   1.632   1.377   1.943
  228SOL    HW1  696   1.600   1.471   1.933
  228SOL    HW2  697   1.556   1.314   1.931
  229SOL     OW  698   0.464   1.743   2.185
  229SOL    HW1  699   0.497   1.782   2.271
  229SOL    HW2  700   0.540   1.736   2.120
  230SOL     OW  701   1.400   0.107   2.288
  230SOL    HW1  702   1.376   0.070   2.198
  230SOL    HW2  703   1.499   0.123   2.292
  231SOL     OW  704   0.382   0.700   2.342
  231SOL    HW1  705   0.427   0.610   2.339
  231SOL    HW2  706   0.288   0.689   2.375
  232SOL     OW  707   0.614   0.122   1.979
  232SOL    HW1  708   0.712   0.100   1.986
  232SOL    HW2  709   0.583   0.105   1.886
  233SOL     OW  710   0.539   0.064   2.374
  233SOL    HW1  711   0.458   0.065   2.432
  233SOL    HW2  712   0.542   0.147   2.319
  234SOL     OW  713   1.434   1.188   1.903
  234SOL    HW1  714   1.466   1.112   1.960
  234SOL    HW2  715   1.342   1.215   1.933
  235SOL     OW  716   0.297   0.035   2.033
  235SOL    HW1  717   0.346   0.119   2.012
  235SOL    HW2  718   0.359  -0.030   2.078
  236SOL     OW  719   0.935   0.236   2.342
  236SOL    HW1  720   0.887   0.277   2.264
  236SOL    HW2  721   1.034   0.234   2.323
  237SOL     OW  722   0.459   1.152   2.603
  237SOL    HW1  723   0.388   1.125   2.668
  237SOL    HW2  724   0.433   1.124   2.510
  238SOL     OW  725   1.271   1.797   2.453
  238SOL    HW1  726   1.315   1.861   2.389
  238SOL    HW2  727   1.221   1.849   2.523
  239SOL     OW  728   1.032   0.549   1.878
  239SOL    HW1  729   0.991   0.631   1.839
  239SOL    HW2  730   1.096   0.575   1.951
  240SOL     OW  731   0.866   0.454   2.504
  240SOL    HW1  732   0.834   0.526   2.442
  240SOL    HW2  733   0.890   0.373   2.451
  241SOL     OW  734   1.857   0.833   2.239
  241SOL    HW1  735   1.899   0.769   2.303
  241SOL    HW2  736   1.819   0.782   2.161
  242SOL     OW  737   0.488   1.385   2.036
  242SOL    HW1  738   0.401   1.370   2.083
  242SOL    HW2  739   0.471   1.411   1.941
  243SOL     OW  740   1.390   0.575   1.940
  243SOL    HW1  741   1.336   0.554   2.021
  243SOL    HW2  742   1.481   0.534   1.949
  244SOL     OW  743   0.527   0.256   2.190
  244SOL    HW1  744   0.554   0.197   2.115
  244SOL    HW2  745   0.527   0.351   2.159
  245SOL     OW  746   0.705   1.050   2.230
  245SOL    HW1  747   0.691   1.057   2.329
  245SOL    HW2  748   0.789   0.999   2.212
  246SOL     OW  749   0.367   1.100   2.363
  246SOL    HW1  750   0.360   1.183   2.307
  246SOL    HW2  751   0.371   1.020   2.303
  247SOL     OW  752   1.252   1.348   2.250
  247SOL    HW1  753   1.302   1.425   2.290
  247SOL    HW2  754   1.157   1.350   2.282
  248SOL     OW  755   1.582   0.639   2.334
  248SOL    HW1  756   1.551   0.700   2.407
  248SOL    HW2  757   1.632   0.691   2.265
  249SOL     OW  758   1.209   0.525   2.137
  249SOL    HW1  759   1.222   0.441   2.191
  249SOL    HW2  760   1.180   0.599   2.197
  250SOL     OW  761   1.622   0.367   2.236
  250SOL    HW1  762   1.624   0.291   2.300
  250SOL    HW2  763   1.574   0.444   2.276
  251SOL     OW  764   1.540   0.274   1.987
  251SOL    HW1  765   1.479   0.199   2.010
  251SOL    HW2  766   1.562   0.326   2.070
  252SOL     OW  767   1.303   0.838   1.904
  252SOL    HW1  768   1.337   0.745   1.919
  252SOL    HW2  769   1.321   0.865   1.809
  253SOL     OW  770   0.008   1.326   2.062
  253SOL    HW1  771  -0.085   1.347   2.031
  253SOL    HW2  772   0.018   1.227   2.075
  254SOL     OW  773   0.815   0.572   2.187
  254SOL    HW1  774   0.822   0.483   2.141
  254SOL    HW2  775   0.721   0.606   2.179
  255SOL     OW  776   0.473   0.500   2.053
  255SOL    HW1  777   0.534   0.580   2.057
  255SOL    HW2  778   0.378   0.531   2.060
  256SOL     OW  779   1.302   0.855   2.171
  256SOL    HW1  780   1.216   0.824   2.213
  256SOL    HW2  781   1.298   0.841   2.072
  257SOL     OW  782   1.726   0.135   2.385
  257SOL    HW1  783   1.799   0.118   2.318
  257SOL    HW2  784   1.695   0.048   2.423
  258SOL     OW  785   1.388   1.573   2.339
  258SOL    HW1  786   1.455   1.585   2.265
  258SOL    HW2  787   1.348   1.662   2.362
  259SOL     OW  788   0.672   1.616   2.016
  259SOL    HW1  789   0.681   1.626   1.917
  259SOL    HW2  790   0.632   1.527   2.037
  260SOL     OW  791   1.194   1.612   1.893
  260SOL    HW1  792   1.200   1.519   1.930
  260SOL    HW2  793   1.135   1.612   1.813
  261SOL     OW  794   0.916   0.910   2.153
  261SOL    HW1  795   0.979   0.948   2.085
  261SOL    HW2  796   0.956   0.827   2.192
  262SOL     OW  797   1.504   1.607   1.906
  262SOL    HW1  798   1.412   1.644   1.913
  262SOL    HW2  799   1.542   1.627   1.816
  263SOL     OW  800   0.590   1.487   2.353
  263SOL    HW1  801   0.632   1.429   2.283
  263SOL    HW2  802   0.546   1.566   2.309
  264SOL     OW  803   0.255   1.348   2.152
  264SOL    HW1  804   0.159   1.349   2.125
  264SOL    HW2  805   0.267   1.401   2.236
  265SOL     OW  806   0.075   0.345   1.895
  265SOL    HW1  807  -0.017   0.317   1.866
  265SOL    HW2  808   0.106   0.422   1.839
  266SOL     OW  809   0.072   0.166   2.180
  266SOL    HW1  810   0.055   0.249   2.126
  266SOL    HW2  811   0.162   0.129   2.158
  267SOL     OW  812   1.183   1.335   1.981
  267SOL    HW1  813   1.084   1.324   1.983
  267SOL    HW2  814   1.217   1.350   2.074
  268SOL     OW  815   1.225   0.325   2.311
  268SOL    HW1  816   1.290   0.251   2.300
  268SOL    HW2  817   1.245   0.375   2.395
  269SOL     OW  818   0.594   0.745   2.514
  269SOL    HW1  819   0.644   0.830   2.495
  269SOL    HW2  820   0.506   0.747   2.466
  270SOL     OW  821   0.859   1.374   1.878
  270SOL    HW1  822   0.813   1.389   1.966
  270SOL    HW2  823   0.903   1.459   1.848
  271SOL     OW  824   1.083   0.984   1.949
  271SOL    HW1  825   1.060   1.037   1.867
  271SOL    HW2  826   1.164   0.928   1.930
  272SOL     OW  827   0.428   0.424   2.382
  272SOL    HW1  828   0.458   0.352   2.320
  272SOL    HW2  829   0.389   0.384   2.465
  273SOL     OW  830   0.770   1.330   2.163
  273SOL    HW1  831   0.724   1.243   2.180
  273SOL    HW2  832   0.861   1.327   2.204
  274SOL     OW  833   1.352   0.052   2.030
  274SOL    HW1  834   1.387   0.011   1.946
  274SOL    HW2  835   1.262   0.014   2.050
  275SOL     OW  836   0.039   1.077   2.162
  275SOL    HW1  837   0.138   1.066   2.153
  275SOL    HW2  838  -0.001   0.991   2.194
  276SOL     OW  839   0.875   1.646   2.199
  276SOL    HW1  840   0.798   1.611   2.145
  276SOL    HW2  841   0.843   1.717   2.261
  277SOL     OW  842   0.225   2.137   0.996
  277SOL    HW1  843   0.260   2.120   1.088
  277SOL    HW2  844   0.137   2.092   0.984
  278SOL     OW  845   0.019   2.230   0.647
  278SOL    HW1  846  -0.063   2.273   0.686
  278SOL    HW2  847  -0.009   2.157   0.584
  279SOL     OW  848   1.755   2.469   0.231
  279SOL    HW1  849   1.743   2.456   0.132
  279SOL    HW2  850   1.725   2.388   0.280
  280SOL     OW  851   0.438   2.254   1.499
  280SOL    HW1  852   0.520   2.198   1.508
  280SOL    HW2  853   0.357   2.196   1.503
  281SOL     OW  854   1.603   2.309   0.737
  281SOL    HW1  855   1.529   2.355   0.687
  281SOL    HW2  856   1.654   2.377   0.790
  282SOL     OW  857   1.594   1.976   1.480
  282SOL    HW1  858   1.576   2.043   1.408
  282SOL    HW2  859   1.591   2.022   1.569
  283SOL     OW  860   0.122   2.505   0.563
  283SOL    HW1  861   0.077   2.417   0.580
  283SOL    HW2  862   0.121   2.559   0.647
  284SOL     OW  863   0.809   1.866   0.502
  284SOL    HW1  864   0.849   1.957   0.493
  284SOL    HW2  865   0.709   1.874   0.508
  285SOL     OW  866   0.317   2.113   1.801
  285SOL    HW1  867   0.388   2.184   1.807
  285SOL    HW2  868   0.229   2.152   1.829
  286SOL     OW  869   1.281   2.207   0.944
  286SOL    HW1  870   1.195   2.157   0.931
  286SOL    HW2  871   1.343   2.153   1.000
  287SOL     OW  872   0.807   2.467   1.465
  287SOL    HW1  873   0.760   2.464   1.554
  287SOL    HW2  874   0.756   2.412   1.399
  288SOL     OW  875   1.394   2.331   1.674
  288SOL    HW1  876   1.374   2.374   1.762
  288SOL    HW2  877   1.472   2.269   1.683
  289SOL     OW  878   0.991   2.272   1.242
  289SOL    HW1  879   0.914   2.306   1.296
  289SOL    HW2  880   0.957   2.221   1.163
  290SOL     OW  881   1.041   2.563   0.429
  290SOL    HW1  882   1.067   2.559   0.525
  290SOL    HW2  883   0.956   2.512   0.415
  291SOL     OW  884   0.076   2.673   0.789
  291SOL    HW1  885   0.175   2.661   0.798
  291SOL    HW2  886   0.052   2.768   0.810
  292SOL     OW  887   0.865   2.210   0.195
  292SOL    HW1  888   0.924   2.273   0.146
  292SOL    HW2  889   0.884   2.116   0.166
  293SOL     OW  890   1.719   2.447   1.831
  293SOL    HW1  891   1.693   2.536   1.795
  293SOL    HW2  892   1.717   2.379   1.758
  294SOL     OW  893   0.550   2.058   0.885
  294SOL    HW1  894   0.545   2.053   0.985
  294SOL    HW2  895   0.552   2.154   0.856
  295SOL     OW  896   1.458   2.597   0.728
  295SOL    HW1  897   1.453   2.532   0.803
  295SOL    HW2  898   1.538   2.656   0.741
  296SOL     OW  899   0.202   2.147   1.498
  296SOL    HW1  900   0.122   2.207   1.485
  296SOL    HW2  901   0.192   2.098   1.584
  297SOL     OW  902   1.400   1.969   0.426
  297SOL    HW1  903   1.376   1.932   0.336
  297SOL    HW2  904   1.499   1.985   0.430
  298SOL     OW  905   1.547   2.084   1.729
  298SOL    HW1  906   1.542   2.121   1.821
  298SOL    HW2  907   1.475   2.015   1.717
  299SOL     OW  908   0.614   1.984   0.117
  299SOL    HW1  909   0.712   1.962   0.124
  299SOL    HW2  910   0.583   1.967   0.024
  300SOL     OW  911   0.781   2.126   1.749
  300SOL    HW1  912   0.848   2.065   1.792
  300SOL    HW2  913   0.708   2.145   1.814
  301SOL     OW  914   1.351   2.452   1.433
  301SOL    HW1  915   1.379   2.409   1.518
  301SOL    HW2  916   1.376   2.548   1.434
  302SOL     OW  917   0.539   1.926   0.512
  302SOL    HW1  918   0.458   1.927   0.570
  302SOL    HW2  919   0.542   2.009   0.457
  303SOL     OW  920   0.297   1.897   0.171
  303SOL    HW1  921   0.346   1.981   0.150
  303SOL    HW2  922   0.359   1.832   0.216
  304SOL     OW  923   0.935   2.098   0.480
  304SOL    HW1  924   0.887   2.139   0.402
  304SOL    HW2  925   1.034   2.096   0.461
  305SOL     OW  926   0.078   2.418   1.386
  305SOL    HW1  927   0.170   2.417   1.345
  305SOL    HW2  928   0.072   2.492   1.453
  306SOL     OW  929   0.561   2.084   1.147
  306SOL    HW1  930   0.599   2.000   1.184
  306SOL    HW2  931   0.473   2.103   1.191
  307SOL     OW  932   1.017   1.901   0.753
  307SOL    HW1  933   0.945   1.906   0.684
  307SOL    HW2  934   0.993   1.832   0.822
  308SOL     OW  935   1.466   2.452   0.992
  308SOL    HW1  936   1.436   2.357   0.999
  308SOL    HW2  937   1.539   2.468   1.058
  309SOL     OW  938   0.527   2.118   0.328
  309SOL    HW1  939   0.554   2.059   0.253
  309SOL    HW2  940   0.527   2.213   0.297
  310SOL     OW  941   0.915   1.951   1.402
  310SOL    HW1  942   0.940   1.931   1.307
  310SOL    HW2  943   0.987   2.007   1.444
  311SOL     OW  944   1.274   2.248   1.262
  311SOL    HW1  945   1.295   2.322   1.326
  311SOL    HW2  946   1.185   2.265   1.219
  312SOL     OW  947   0.566   2.399   0.865
  312SOL    HW1  948   0.578   2.465   0.791
  312SOL    HW2  949   0.612   2.433   0.948
  313SOL     OW  950   1.013   1.967   1.770
  313SOL    HW1  951   1.019   2.052   1.718
  313SOL    HW2  952   1.045   1.891   1.713
  314SOL     OW  953   0.504   1.912   1.740
  314SOL    HW1  954   0.462   1.855   1.670
  314SOL    HW2  955   0.438   1.981   1.772
  315SOL     OW  956   1.209   2.387   0.275
  315SOL    HW1  957   1.222   2.303   0.329
  315SOL    HW2  958   1.180   2.461   0.335
  316SOL     OW  959   0.307   2.075   1.231
  316SOL    HW1  960   0.284   2.112   1.321
  316SOL    HW2  961   0.277   1.980   1.225
  317SOL     OW  962   0.732   2.496   1.064
  317SOL    HW1  963   0.791   2.470   0.988
  317SOL    HW2  964   0.704   2.592   1.053
  318SOL     OW  965   0.307   1.925   0.618
  318SOL    HW1  966   0.296   2.019   0.651
  318SOL    HW2  967   0.302   1.862   0.695
  319SOL     OW  968   1.622   2.229   0.374
  319SOL    HW1  969   1.624   2.153   0.438
  319SOL    HW2  970   1.574   2.306   0.414
  320SOL     OW  971   1.540   2.136   0.125
  320SOL    HW1  972   1.479   2.061   0.148
  320SOL    HW2  973   1.562   2.188   0.208
  321SOL     OW  974   0.339   2.371   1.006
  321SOL    HW1  975   0.287   2.288   0.989
  321SOL    HW2  976   0.416   2.376   0.942
  322SOL     OW  977   1.138   2.242   1.678
  322SOL    HW1  978   1.093   2.305   1.742
  322SOL    HW2  979   1.231   2.273   1.661
  323SOL     OW  980   1.160   2.069   1.477
  323SOL    HW1  981   1.160   2.133   1.554
  323SOL    HW2  982   1.188   2.117   1.394
  324SOL     OW  983   0.040   2.406   1.114
  324SOL    HW1  984   0.125   2.373   1.073
  324SOL    HW2  985   0.053   2.421   1.212
  325SOL     OW  986   0.189   2.382   1.722
  325SOL    HW1  987   0.248   2.342   1.652
  325SOL    HW2  988   0.131   2.453   1.681
  326SOL     OW  989   0.815   2.434   0.325
  326SOL    HW1  990   0.822   2.345   0.279
  326SOL    HW2  991   0.721   2.468   0.317
  327SOL     OW  992   1.657   2.466   1.206
  327SOL    HW1  993   1.619   2.397   1.268
  327SOL    HW2  994   1.739   2.430   1.162
  328SOL     OW  995   0.671   2.326   1.269
  328SOL    HW1  996   0.637   2.237   1.239
  328SOL    HW2  997   0.697   2.380   1.189
  329SOL     OW  998   0.903   1.948   0.133
  329SOL    HW1  999   0.954   1.949   0.047
  329SOL    HW2 1000   0.959   1.906   0.204
  330SOL     OW 1001   1.726   1.997   0.523
  330SOL    HW1 1002   1.799   1.980   0.456
  330SOL    HW2 1003   1.695   1.910   0.561
  331SOL     OW 1004   1.841   2.037   0.963
  331SOL    HW1 1005   1.880   1.952   0.927
  331SOL    HW2 1006   1.743   2.039   0.944
  332SOL     OW 1007   0.263   2.188   0.720
  332SOL    HW1 1008   0.184   2.239   0.686
  332SOL    HW2 1009   0.254   2.173   0.818
  333SOL     OW 1010   1.014   2.098   0.971
  333SOL    HW1 1011   1.006   2.062   0.878
  333SOL    HW2 1012   1.012   2.022   1.036
  334SOL     OW 1013   1.709   2.247   1.381
  334SOL    HW1 1014   1.782   2.316   1.385
  334SOL    HW2 1015   1.737   2.172   1.322
  335SOL     OW 1016   0.672   2.065   1.489
  335SOL    HW1 1017   0.762   2.049   1.449
  335SOL    HW2 1018   0.680   2.070   1.588
  336SOL     OW 1019   0.075   2.207   0.033
  336SOL    HW1 1020  -0.017   2.179   0.004
  336SOL    HW2 1021   0.106   2.284  -0.023
  337SOL     OW 1022   0.072   2.028   0.318
  337SOL    HW1 1023   0.055   2.111   0.264
  337SOL    HW2 1024   0.162   1.991   0.296
  338SOL     OW 1025   0.716   2.427   1.708
  338SOL    HW1 1026   0.735   2.492   1.782
  338SOL    HW2 1027   0.776   2.347   1.717
  339SOL     OW 1028   1.225   2.187   0.449
  339SOL    HW1 1029   1.290   2.113   0.438
  339SOL    HW2 1030   1.245   2.237   0.533
  340SOL     OW 1031   1.777   2.204   1.642
  340SOL    HW1 1032   1.760   2.235   1.548
  340SOL    HW2 1033   1.693   2.167   1.680
  341SOL     OW 1034   1.824   2.054   1.227
  341SOL    HW1 1035   1.820   1.964   1.271
  341SOL    HW2 1036   1.827   2.043   1.128
  342SOL     OW 1037   0.428   2.286   0.520
  342SOL    HW1 1038   0.458   2.214   0.458
  342SOL    HW2 1039   0.389   2.246   0.603
  343SOL     OW 1040   0.317   2.409   1.280
  343SOL    HW1 1041   0.355   2.350   1.352
  343SOL    HW2 1042   0.357   2.383   1.192
  344SOL     OW 1043   1.424   2.076   1.112
  344SOL    HW1 1044   1.476   2.011   1.167
  344SOL    HW2 1045   1.375   2.139   1.173
  345SOL     OW 1046   1.001   1.896   1.154
  345SOL    HW1 1047   0.938   1.824   1.123
  345SOL    HW2 1048   1.094   1.860   1.154
  346SOL     OW 1049   1.352   1.914   0.168
  346SOL    HW1 1050   1.387   1.873   0.084
  346SOL    HW2 1051   1.262   1.876   0.188
  347SOL     OW 1052   1.300   2.315   0.691
  347SOL    HW1 1053   1.241   2.395   0.695
  347SOL    HW2 1054   1.315   2.280   0.784
  348SOL     OW 1055   1.593   2.083   0.882
  348SOL    HW1 1056   1.509   2.082   0.936
  348SOL    HW2 1057   1.595   2.166   0.826
  349SOL     OW 1058   1.755   2.469   2.093
  349SOL    HW1 1059   1.743   2.456   1.994
  349SOL    HW2 1060   1.725   2.388   2.142
  350SOL     OW 1061   0.122   2.505   2.425
  350SOL    HW1 1062   0.077   2.417   2.442
  350SOL    HW2 1063   0.121   2.559   2.509
  351SOL     OW 1064   0.809   1.866   2.364
  351SOL    HW1 1065   0.849   1.957   2.355
  351SOL    HW2 1066   0.709   1.874   2.370
  352SOL     OW 1067   1.041   2.563   2.291
  352SOL    HW1 1068   1.067   2.559   2.387
  352SOL    HW2 1069   0.956   2.512   2.277
  353SOL     OW 1070   0.865   2.210   2.057
  353SOL    HW1 1071   0.924   2.273   2.008
  353SOL    HW2 1072   0.884   2.116   2.028
  354SOL     OW 1073   1.400   1.969   2.288
  354SOL    HW1 1074   1.376   1.932   2.198
  354SOL    HW2 1075   1.499   1.985   2.292
  355SOL     OW 1076   0.614   1.984   1.979
  355SOL    HW1 1077   0.712   1.962   1.986
  355SOL    HW2 1078   0.583   1.967   1.886
  356SOL     OW 1079   0.539   1.926   2.374
  356SOL    HW1 1080   0.458   1.927   2.432
  356SOL    HW2 1081   0.542   2.009   2.319
  357SOL     OW 1082   0.297   1.897   2.033
  357SOL    HW1 1083   0.346   1.981   2.012
  357SOL    HW2 1084   0.359   1.832   2.078
  358SOL     OW 1085   0.935   2.098   2.342
  358SOL    HW1 1086   0.887   2.139   2.264
  358SOL    HW2 1087   1.034   2.096   2.323
  359SOL     OW 1088   0.527   2.118   2.190
  359SOL    HW1 1089   0.554   2.059   2.115
  359SOL    HW2 1090   0.527   2.213   2.159
  360SOL     OW 1091   1.209   2.387   2.137
  360SOL    HW1 1092   1.222   2.303   2.191
  360SOL    HW2 1093   1.180   2.461   2.197
  361SOL     OW 1094   1.622   2.229   2.236
  361SOL    HW1 1095   1.624   2.153   2.300
  361SOL    HW2 1096   1.574   2.306   2.276
  362SOL     OW 1097   1.540   2.136   1.987
  362SOL    HW1 1098   1.479   2.061   2.010
  362SOL    HW2 1099   1.562   2.188   2.070
  363SOL     OW 1100   0.815   2.434   2.187
  363SOL    HW1 1101   0.822   2.345   2.141
  363SOL    HW2 1102   0.721   2.468   2.179
  364SOL     OW 1103   1.726   1.997   2.385
  364SOL    HW1 1104   1.799   1.980   2.318
  364SOL    HW2 1105   1.695   1.910   2.423
  365SOL     OW 1106   0.075   2.207   1.895
  365SOL    HW1 1107  -0.017   2.179   1.866
  365SOL    HW2 1108   0.106   2.284   1.839
  366SOL     OW 1109   0.072   2.028   2.180
  366SOL    HW1 1110   0.055   2.111   2.126
  366SOL    HW2 1111   0.162   1.991   2.158
  367SOL     OW 1112   1.225   2.187   2.311
  367SOL    HW1 1113   1.290   2.113   2.300
  367SOL    HW2 1114   1.245   2.237   2.395
  368SOL     OW 1115   0.428   2.286   2.382
  368SOL    HW1 1116   0.458   2.214   2.320
  368SOL    HW2 1117   0.389   2.246   2.465
  369SOL     OW 1118   1.352   1.914   2.030
  369SOL    HW1 1119   1.387   1.873   1.946
  369SOL    HW2 1120   1.262   1.876   2.050
  370SOL     OW 1121   1.300   2.315   2.553
  370SOL    HW1 1122   1.241   2.395   2.557
  370SOL    HW2 1123   1.315   2.280   2.646
  371SOL     OW 1124   2.092   0.628   0.113
  371SOL    HW1 1125   1.999   0.626   0.150
  371SOL    HW2 1126   2.093   0.589   0.021
  372SOL     OW 1127   2.087   0.275   0.996
  372SOL    HW1 1128   2.122   0.258   1.088
  372SOL    HW2 1129   1.999   0.230   0.984
  373SOL     OW 1130   1.881   0.368   0.647
  373SOL    HW1 1131   1.799   0.411   0.686
  373SOL    HW2 1132   1.853   0.295   0.584
  374SOL     OW 1133   2.712   0.798   1.823
  374SOL    HW1 1134   2.708   0.874   1.888
  374SOL    HW2 1135   2.734   0.834   1.732
  375SOL     OW 1136   2.197   1.435   1.061
  375SOL    HW1 1137   2.119   1.404   1.008
  375SOL    HW2 1138   2.255   1.493   1.004
  376SOL     OW 1139   2.300   0.392   1.499
  376SOL    HW1 1140   2.382   0.336   1.508
  376SOL    HW2 1141   2.219   0.334   1.503
  377SOL     OW 1142   2.093   1.713   0.483
  377SOL    HW1 1143   2.127   1.790   0.537
  377SOL    HW2 1144   2.137   1.713   0.393
  378SOL     OW 1145   2.092   1.434   0.538
  378SOL    HW1 1146   2.066   1.530   0.538
  378SOL    HW2 1147   2.021   1.380   0.583
  379SOL     OW 1148   2.102   1.091   0.886
  379SOL    HW1 1149   2.116   1.007   0.938
  379SOL    HW2 1150   2.047   1.155   0.941
  380SOL     OW 1151   1.984   0.643   0.563
  380SOL    HW1 1152   1.939   0.555   0.580
  380SOL    HW2 1153   1.983   0.697   0.647
  381SOL     OW 1154   1.889   1.596   0.117
  381SOL    HW1 1155   1.870   1.500   0.138
  381SOL    HW2 1156   1.856   1.654   0.192
  382SOL     OW 1157   1.975   0.737   1.597
  382SOL    HW1 1158   2.063   0.724   1.642
  382SOL    HW2 1159   1.962   0.834   1.575
  383SOL     OW 1160   2.475   1.365   0.726
  383SOL    HW1 1161   2.426   1.278   0.735
  383SOL    HW2 1162   2.452   1.408   0.639
  384SOL     OW 1163   2.059   0.976   1.264
  384SOL    HW1 1164   2.148   0.931   1.250
  384SOL    HW2 1165   1.986   0.911   1.245
  385SOL     OW 1166   2.179   0.251   1.801
  385SOL    HW1 1167   2.250   0.322   1.807
  385SOL    HW2 1168   2.091   0.290   1.829
  386SOL     OW 1169   1.938   0.811   0.789
  386SOL    HW1 1170   2.037   0.799   0.798
  386SOL    HW2 1171   1.914   0.906   0.810
  387SOL     OW 1172   1.992   1.821   1.571
  387SOL    HW1 1173   1.982   1.806   1.670
  387SOL    HW2 1174   1.906   1.857   1.535
  388SOL     OW 1175   2.727   0.348   0.195
  388SOL    HW1 1176   2.786   0.411   0.146
  388SOL    HW2 1177   2.746   0.254   0.166
  389SOL     OW 1178   2.412   0.196   0.885
  389SOL    HW1 1179   2.407   0.191   0.985
  389SOL    HW2 1180   2.414   0.292   0.856
  390SOL     OW 1181   2.213   1.801   0.853
  390SOL    HW1 1182   2.263   1.715   0.859
  390SOL    HW2 1183   2.278   1.878   0.850
  391SOL     OW 1184   2.183   0.943   0.242
  391SOL    HW1 1185   2.265   0.982   0.200
  391SOL    HW2 1186   2.156   0.861   0.193
  392SOL     OW 1187   2.323   1.266   1.727
  392SOL    HW1 1188   2.273   1.267   1.641
  392SOL    HW2 1189   2.260   1.248   1.803
  393SOL     OW 1190   2.064   0.285   1.498
  393SOL    HW1 1191   1.984   0.345   1.485
  393SOL    HW2 1192   2.054   0.236   1.584
  394SOL     OW 1193   2.326   1.743   0.323
  394SOL    HW1 1194   2.359   1.782   0.409
  394SOL    HW2 1195   2.402   1.736   0.258
  395SOL     OW 1196   2.111   1.785   1.241
  395SOL    HW1 1197   2.168   1.720   1.291
  395SOL    HW2 1198   2.095   1.752   1.148
  396SOL     OW 1199   2.244   0.700   0.480
  396SOL    HW1 1200   2.289   0.610   0.477
  396SOL    HW2 1201   2.150   0.689   0.513
  397SOL     OW 1202   2.476   0.122   0.117
  397SOL    HW1 1203   2.574   0.100   0.124
  397SOL    HW2 1204   2.445   0.105   0.024
  398SOL     OW 1205   2.401   0.064   0.512
  398SOL    HW1 1206   2.320   0.065   0.570
  398SOL    HW2 1207   2.404   0.147   0.457
  399SOL     OW 1208   2.159   0.035   0.171
  399SOL    HW1 1209   2.208   0.119   0.150
  399SOL    HW2 1210   2.221  -0.030   0.216
  400SOL     OW 1211   2.321   1.152   0.741
  400SOL    HW1 1212   2.250   1.125   0.806
  400SOL    HW2 1213   2.295   1.124   0.648
  401SOL     OW 1214   1.940   0.556   1.386
  401SOL    HW1 1215   2.032   0.555   1.345
  401SOL    HW2 1216   1.934   0.630   1.453
  402SOL     OW 1217   2.423   0.222   1.147
  402SOL    HW1 1218   2.461   0.138   1.184
  402SOL    HW2 1219   2.335   0.241   1.191
  403SOL     OW 1220   2.389   0.256   0.328
  403SOL    HW1 1221   2.416   0.197   0.253
  403SOL    HW2 1222   2.389   0.351   0.297
  404SOL     OW 1223   2.842   1.116   1.719
  404SOL    HW1 1224   2.743   1.122   1.729
  404SOL    HW2 1225   2.865   1.036   1.663
  405SOL     OW 1226   2.272   0.813   1.251
  405SOL    HW1 1227   2.358   0.825   1.301
  405SOL    HW2 1228   2.230   0.726   1.278
  406SOL     OW 1229   1.926   1.564   1.331
  406SOL    HW1 1230   1.880   1.646   1.297
  406SOL    HW2 1231   2.024   1.583   1.340
  407SOL     OW 1232   2.229   1.100   0.501
  407SOL    HW1 1233   2.222   1.183   0.445
  407SOL    HW2 1234   2.233   1.020   0.441
  408SOL     OW 1235   2.428   0.537   0.865
  408SOL    HW1 1236   2.440   0.603   0.791
  408SOL    HW2 1237   2.474   0.571   0.948
  409SOL     OW 1238   2.216   1.510   1.329
  409SOL    HW1 1239   2.195   1.466   1.242
  409SOL    HW2 1240   2.313   1.536   1.332
  410SOL     OW 1241   2.264   0.751   1.598
  410SOL    HW1 1242   2.332   0.806   1.551
  410SOL    HW2 1243   2.304   0.663   1.625
  411SOL     OW 1244   2.366   0.050   1.740
  411SOL    HW1 1245   2.324  -0.007   1.670
  411SOL    HW2 1246   2.300   0.119   1.772
  412SOL     OW 1247   2.435   0.870   1.029
  412SOL    HW1 1248   2.479   0.959   1.020
  412SOL    HW2 1249   2.372   0.870   1.106
  413SOL     OW 1250   2.169   0.213   1.231
  413SOL    HW1 1251   2.146   0.250   1.321
  413SOL    HW2 1252   2.139   0.118   1.225
  414SOL     OW 1253   1.899   1.310   1.282
  414SOL    HW1 1254   1.952   1.261   1.350
  414SOL    HW2 1255   1.921   1.408   1.287
  415SOL     OW 1256   2.169   0.063   0.618
  415SOL    HW1 1257   2.158   0.157   0.651
  415SOL    HW2 1258   2.164   0.000   0.695
  416SOL     OW 1259   2.212   0.898   1.804
  416SOL    HW1 1260   2.288   0.942   1.852
  416SOL    HW2 1261   2.247   0.851   1.722
  417SOL     OW 1262   2.181   0.810   0.949
  417SOL    HW1 1263   2.274   0.846   0.954
  417SOL    HW2 1264   2.175   0.725   1.001
  418SOL     OW 1265   2.201   0.509   1.006
  418SOL    HW1 1266   2.149   0.426   0.989
  418SOL    HW2 1267   2.278   0.514   0.942
  419SOL     OW 1268   1.870   1.326   0.200
  419SOL    HW1 1269   1.777   1.347   0.169
  419SOL    HW2 1270   1.880   1.227   0.213
  420SOL     OW 1271   1.950   1.801   0.927
  420SOL    HW1 1272   1.908   1.715   0.900
  420SOL    HW2 1273   2.044   1.804   0.893
  421SOL     OW 1274   2.366   1.568   0.910
  421SOL    HW1 1275   2.432   1.642   0.919
  421SOL    HW2 1276   2.410   1.489   0.868
  422SOL     OW 1277   1.902   0.544   1.114
  422SOL    HW1 1278   1.987   0.511   1.073
  422SOL    HW2 1279   1.915   0.559   1.212
  423SOL     OW 1280   2.051   0.520   1.722
  423SOL    HW1 1281   2.110   0.480   1.652
  423SOL    HW2 1282   1.993   0.591   1.681
  424SOL     OW 1283   2.677   0.572   0.325
  424SOL    HW1 1284   2.684   0.483   0.279
  424SOL    HW2 1285   2.583   0.606   0.317
  425SOL     OW 1286   2.114   1.564   1.744
  425SOL    HW1 1287   2.084   1.621   1.820
  425SOL    HW2 1288   2.107   1.467   1.770
  426SOL     OW 1289   2.335   0.500   0.191
  426SOL    HW1 1290   2.396   0.580   0.195
  426SOL    HW2 1291   2.240   0.531   0.198
  427SOL     OW 1292   2.021   1.137   1.466
  427SOL    HW1 1293   2.043   1.076   1.542
  427SOL    HW2 1294   2.031   1.088   1.380
  428SOL     OW 1295   1.945   1.258   1.022
  428SOL    HW1 1296   1.940   1.257   1.122
  428SOL    HW2 1297   1.862   1.217   0.984
  429SOL     OW 1298   2.550   1.662   1.716
  429SOL    HW1 1299   2.494   1.743   1.725
  429SOL    HW2 1300   2.602   1.666   1.630
  430SOL     OW 1301   1.992   1.794   1.851
  430SOL    HW1 1302   1.951   1.720   1.904
  430SOL    HW2 1303   2.056   1.845   1.909
  431SOL     OW 1304   2.125   0.326   0.720
  431SOL    HW1 1305   2.046   0.377   0.686
  431SOL    HW2 1306   2.116   0.311   0.818
  432SOL     OW 1307   2.234   1.288   1.490
  432SOL    HW1 1308   2.221   1.381   1.456
  432SOL    HW2 1309   2.150   1.236   1.477
  433SOL     OW 1310   2.452   1.487   0.491
  433SOL    HW1 1311   2.494   1.429   0.421
  433SOL    HW2 1312   2.408   1.566   0.447
  434SOL     OW 1313   2.117   1.348   0.290
  434SOL    HW1 1314   2.021   1.349   0.263
  434SOL    HW2 1315   2.129   1.401   0.374
  435SOL     OW 1316   1.967   1.013   1.726
  435SOL    HW1 1317   1.890   0.980   1.780
  435SOL    HW2 1318   2.052   0.983   1.768
  436SOL     OW 1319   1.937   0.345   0.033
  436SOL    HW1 1320   1.845   0.317   0.004
  436SOL    HW2 1321   1.968   0.422  -0.023
  437SOL     OW 1322   1.934   0.166   0.318
  437SOL    HW1 1323   1.917   0.249   0.264
  437SOL    HW2 1324   2.024   0.129   0.296
  438SOL     OW 1325   2.475   0.842   1.431
  438SOL    HW1 1326   2.531   0.923   1.414
  438SOL    HW2 1327   2.534   0.762   1.434
  439SOL     OW 1328   2.252   1.741   1.560
  439SOL    HW1 1329   2.161   1.782   1.558
  439SOL    HW2 1330   2.245   1.647   1.592
  440SOL     OW 1331   2.456   0.745   0.652
  440SOL    HW1 1332   2.506   0.830   0.633
  440SOL    HW2 1333   2.368   0.747   0.604
  441SOL     OW 1334   2.083   1.314   1.844
  441SOL    HW1 1335   2.018   1.241   1.823
  441SOL    HW2 1336   2.087   1.328   1.942
  442SOL     OW 1337   1.941   1.240   0.653
  442SOL    HW1 1338   1.940   1.193   0.741
  442SOL    HW2 1339   2.023   1.212   0.602
  443SOL     OW 1340   2.534   1.391   1.624
  443SOL    HW1 1341   2.456   1.341   1.662
  443SOL    HW2 1342   2.531   1.486   1.655
  444SOL     OW 1343   2.290   0.424   0.520
  444SOL    HW1 1344   2.320   0.352   0.458
  444SOL    HW2 1345   2.251   0.384   0.603
  445SOL     OW 1346   2.179   0.547   1.280
  445SOL    HW1 1347   2.217   0.488   1.352
  445SOL    HW2 1348   2.219   0.521   1.192
  446SOL     OW 1349   1.901   1.077   0.300
  446SOL    HW1 1350   2.000   1.066   0.291
  446SOL    HW2 1351   1.861   0.991   0.332
  447SOL     OW 1352   2.092   0.628   1.975
  447SOL    HW1 1353   1.999   0.626   2.012
  447SOL    HW2 1354   2.093   0.589   1.883
  448SOL     OW 1355   2.093   1.713   2.345
  448SOL    HW1 1356   2.127   1.790   2.399
  448SOL    HW2 1357   2.137   1.713   2.255
  449SOL     OW 1358   2.092   1.434   2.400
  449SOL    HW1 1359   2.066   1.530   2.400
  449SOL    HW2 1360   2.021   1.380   2.445
  450SOL     OW 1361   1.984   0.643   2.425
  450SOL    HW1 1362   1.939   0.555   2.442
  450SOL    HW2 1363   1.983   0.697   2.509
  451SOL     OW 1364   1.889   1.596   1.979
  451SOL    HW1 1365   1.870   1.500   2.000
  451SOL    HW2 1366   1.856   1.654   2.054
  452SOL     OW 1367   2.460   0.729   2.132
  452SOL    HW1 1368   2.484   0.798   2.064
  452SOL    HW2 1369   2.382   0.762   2.186
  453SOL     OW 1370   1.938   0.811   2.651
  453SOL    HW1 1371   2.037   0.799   2.660
  453SOL    HW2 1372   1.914   0.906   2.672
  454SOL     OW 1373   2.727   0.348   2.057
  454SOL    HW1 1374   2.786   0.411   2.008
  454SOL    HW2 1375   2.746   0.254   2.028
  455SOL     OW 1376   2.183   0.943   2.104
  455SOL    HW1 1377   2.265   0.982   2.062
  455SOL    HW2 1378   2.156   0.861   2.055
  456SOL     OW 1379   2.326   1.743   2.185
  456SOL    HW1 1380   2.359   1.782   2.271
  456SOL    HW2 1381   2.402   1.736   2.120
  457SOL     OW 1382   2.244   0.700   2.342
  457SOL    HW1 1383   2.289   0.610   2.339
  457SOL    HW2 1384   2.150   0.689   2.375
  458SOL     OW 1385   2.476   0.122   1.979
  458SOL    HW1 1386   2.574   0.100   1.986
  458SOL    HW2 1387   2.445   0.105   1.886
  459SOL     OW 1388   2.401   0.064   2.374
  459SOL    HW1 1389   2.320   0.065   2.432
  459SOL    HW2 1390   2.404   0.147   2.319
  460SOL     OW 1391   2.159   0.035   2.033
  460SOL    HW1 1392   2.208   0.119   2.012
  460SOL    HW2 1393   2.221  -0.030   2.078
  461SOL     OW 1394   2.321   1.152   2.603
  461SOL    HW1 1395   2.250   1.125   2.668
  461SOL    HW2 1396   2.295   1.124   2.510
  462SOL     OW 1397   2.389   0.256   2.190
  462SOL    HW1 1398   2.416   0.197   2.115
  462SOL    HW2 1399   2.389   0.351   2.159
  463SOL     OW 1400   2.229   1.100   2.363
  463SOL    HW1 1401   2.222   1.183   2.307
  463SOL    HW2 1402   2.233   1.020   2.303
  464SOL     OW 1403   1.870   1.326   2.062
  464SOL    HW1 1404   1.777   1.347   2.031
  464SOL    HW2 1405   1.880   1.227   2.075
  465SOL     OW 1406   2.677   0.572   2.187
  465SOL    HW1 1407   2.684   0.483   2.141
  465SOL    HW2 1408   2.583   0.606   2.179
  466SOL     OW 1409   2.335   0.500   2.053
  466SOL    HW1 1410   2.396   0.580   2.057
  466SOL    HW2 1411   2.240   0.531   2.060
  467SOL     OW 1412   2.452   1.487   2.353
  467SOL    HW1 1413   2.494   1.429   2.283
  467SOL    HW2 1414   2.408   1.566   2.309
  468SOL     OW 1415   2.117   1.348   2.152
  468SOL    HW1 1416   2.021   1.349   2.125
  468SOL    HW2 1417   2.129   1.401   2.236
  469SOL     OW 1418   1.937   0.345   1.895
  469SOL    HW1 1419   1.845   0.317   1.866
  469SOL    HW2 1420   1.968   0.422   1.839
  470SOL     OW 1421   1.934   0.166   2.180
  470SOL    HW1 1422   1.917   0.249   2.126
  470SOL    HW2 1423   2.024   0.129   2.158
  471SOL     OW 1424   2.456   0.745   2.514
  471SOL    HW1 1425   2.506   0.830   2.495
  471SOL    HW2 1426   2.368   0.747   2.466
  472SOL     OW 1427   2.290   0.424   2.382
  472SOL    HW1 1428   2.320   0.352   2.320
  472SOL    HW2 1429   2.251   0.384   2.465
  473SOL     OW 1430   1.901   1.077   2.162
  473SOL    HW1 1431   2.000   1.066   2.153
  473SOL    HW2 1432   1.861   0.991   2.194
  474SOL     OW 1433   2.087   2.137   0.996
  474SOL    HW1 1434   2.122   2.120   1.088
  474SOL    HW2 1435   1.999   2.092   0.984
  475SOL     OW 1436   1.881   2.230   0.647
  475SOL    HW1 1437   1.799   2.273   0.686
  475SOL    HW2 1438   1.853   2.157   0.584
  476SOL     OW 1439   2.300   2.254   1.499
  476SOL    HW1 1440   2.382   2.198   1.508
  476SOL    HW2 1441   2.219   2.196   1.503
  477SOL     OW 1442   1.984   2.505   0.563
  477SOL    HW1 1443   1.939   2.417   0.580
  477SOL    HW2 1444   1.983   2.559   0.647
  478SOL     OW 1445   2.179   2.113   1.801
  478SOL    HW1 1446   2.250   2.184   1.807
  478SOL    HW2 1447   2.091   2.152   1.829
  479SOL     OW 1448   1.938   2.673   0.789
  479SOL    HW1 1449   2.037   2.661   0.798
  479SOL    HW2 1450   1.914   2.768   0.810
  480SOL     OW 1451   2.727   2.210   0.195
  480SOL    HW1 1452   2.786   2.273   0.146
  480SOL    HW2 1453   2.746   2.116   0.166
  481SOL     OW 1454   2.412   2.058   0.885
  481SOL    HW1 1455   2.407   2.053   0.985
  481SOL    HW2 1456   2.414   2.154   0.856
  482SOL     OW 1457   2.064   2.147   1.498
  482SOL    HW1 1458   1.984   2.207   1.485
  482SOL    HW2 1459   2.054   2.098   1.584
  483SOL     OW 1460   2.476   1.984   0.117
  483SOL    HW1 1461   2.574   1.962   0.124
  483SOL    HW2 1462   2.445   1.967   0.024
  484SOL     OW 1463   2.401   1.926   0.512
  484SOL    HW1 1464   2.320   1.927   0.570
  484SOL    HW2 1465   2.404   2.009   0.457
  485SOL     OW 1466   2.159   1.897   0.171
  485SOL    HW1 1467   2.208   1.981   0.150
  485SOL    HW2 1468   2.221   1.832   0.216
  486SOL     OW 1469   1.940   2.418   1.386
  486SOL    HW1 1470   2.032   2.417   1.345
  486SOL    HW2 1471   1.934   2.492   1.453
  487SOL     OW 1472   2.423   2.084   1.147
  487SOL    HW1 1473   2.461   2.000   1.184
  487SOL    HW2 1474   2.335   2.103   1.191
  488SOL     OW 1475   2.389   2.118   0.328
  488SOL    HW1 1476   2.416   2.059   0.253
  488SOL    HW2 1477   2.389   2.213   0.297
  489SOL     OW 1478   2.428   2.399   0.865
  489SOL    HW1 1479   2.440   2.465   0.791
  489SOL    HW2 1480   2.474   2.433   0.948
  490SOL     OW 1481   2.366   1.912   1.740
  490SOL    HW1 1482   2.324   1.855   1.670
  490SOL    HW2 1483   2.300   1.981   1.772
  491SOL     OW 1484   2.169   2.075   1.231
  491SOL    HW1 1485   2.146   2.112   1.321
  491SOL    HW2 1486   2.139   1.980   1.225
  492SOL     OW 1487   2.169   1.925   0.618
  492SOL    HW1 1488   2.158   2.019   0.651
  492SOL    HW2 1489   2.164   1.862   0.695
  493SOL     OW 1490   2.201   2.371   1.006
  493SOL    HW1 1491   2.149   2.288   0.989
  493SOL    HW2 1492   2.278   2.376   0.942
  494SOL     OW 1493   1.902   2.406   1.114
  494SOL    HW1 1494   1.987   2.373   1.073
  494SOL    HW2 1495   1.915   2.421   1.212
  495SOL     OW 1496   2.051   2.382   1.722
  495SOL    HW1 1497   2.110   2.342   1.652
  495SOL    HW2 1498   1.993   2.453   1.681
  496SOL     OW 1499   2.677   2.434   0.325
  496SOL    HW1 1500   2.684   2.345   0.279
  496SOL    HW2 1501   2.583   2.468   0.317
  497SOL     OW 1502   2.125   2.188   0.720
  497SOL    HW1 1503   2.046   2.239   0.686
  497SOL    HW2 1504   2.116   2.173   0.818
  498SOL     OW 1505   1.937   2.207   0.033
  498SOL    HW1 1506   1.845   2.179   0.004
  498SOL    HW2 1507   1.968   2.284  -0.023
  499SOL     OW 1508   1.934   2.028   0.318
  499SOL    HW1 1509   1.917   2.111   0.264
  499SOL    HW2 1510   2.024   1.991   0.296
  500SOL     OW 1511   2.475   2.704   1.431
  500SOL    HW1 1512   2.531   2.785   1.414
  500SOL    HW2 1513   2.534   2.624   1.434
  501SOL     OW 1514   2.290   2.286   0.520
  501SOL    HW1 1515   2.320   2.214   0.458
  501SOL    HW2 1516   2.251   2.246   0.603
  502SOL     OW 1517   2.179   2.409   1.280
  502SOL    HW1 1518   2.217   2.350   1.352
  502SOL    HW2 1519   2.219   2.383   1.192
  503SOL     OW 1520   1.984   2.505   2.425
  503SOL    HW1 1521   1.939   2.417   2.442
  503SOL    HW2 1522   1.983   2.559   2.509
  504SOL     OW 1523   2.727   2.210   2.057
  504SOL    HW1 1524   2.786   2.273   2.008
  504SOL    HW2 1525   2.746   2.116   2.028
  505SOL     OW 1526   2.476   1.984   1.979
  505SOL    HW1 1527   2.574   1.962   1.986
  505SOL    HW2 1528   2.445   1.967   1.886
  506SOL     OW 1529   2.401   1.926   2.374
  506SOL    HW1 1530   2.320   1.927   2.432
  506SOL    HW2 1531   2.404   2.009   2.319
  507SOL     OW 1532   2.159   1.897   2.033
  507SOL    HW1 1533   2.208   1.981   2.012
  507SOL    HW2 1534   2.221   1.832   2.078
  508SOL     OW 1535   2.389   2.118   2.190
  508SOL    HW1 1536   2.416   2.059   2.115
  508SOL    HW2 1537   2.389   2.213   2.159
  509SOL     OW 1538   2.677   2.434   2.187
  509SOL    HW1 1539   2.684   2.345   2.141
  509SOL    HW2 1540   2.583   2.468   2.179
  510SOL     OW 1541   1.937   2.207   1.895
  510SOL    HW1 1542   1.845   2.179   1.866
  510SOL    HW2 1543   1.968   2.284   1.839
  511SOL     OW 1544   1.934   2.028   2.180
  511SOL    HW1 1545   1.917   2.111   2.126
  511SOL    HW2 1546   2.024   1.991   2.158
  512SOL     OW 1547   2.290   2.286   2.382
  512SOL    HW1 1548   2.320   2.214   2.320
  512SOL    HW2 1549   2.251   2.246   2.465
   2.50580   2.50580   2.50580
