; mobley_4035953_GMX.itp created by acpype (v: 2023.10.27) on Thu May 14 13:34:55 2026

[ atomtypes ]
;name   bond_type     mass     charge   ptype   sigma         epsilon       Amb
 c3       c3          0.00000  0.00000   A     3.39771e-01   4.51035e-01 ; 1.91  0.1078
 ca       ca          0.00000  0.00000   A     3.31521e-01   4.13379e-01 ; 1.86  0.0988
 oh       oh          0.00000  0.00000   A     3.24287e-01   3.89112e-01 ; 1.82  0.0930
 ho       ho          0.00000  0.00000   A     5.37925e-02   1.96648e-02 ; 0.30  0.0047
 hc       hc          0.00000  0.00000   A     2.60018e-01   8.70272e-02 ; 1.46  0.0208
 ha       ha          0.00000  0.00000   A     2.62548e-01   6.73624e-02 ; 1.47  0.0161

[ moleculetype ]
;name            nrexcl
 mobley_4035953   3

[ atoms ]
;   nr  type  resi  res  atom  cgnr     charge      mass       ; qtot   bond_type
     1   c3     1   MOL    C1    1    -0.054800     12.01000 ; qtot -0.055
     2   ca     1   MOL    C2    2    -0.159300     12.01000 ; qtot -0.214
     3   ca     1   MOL    C3    3    -0.092000     12.01000 ; qtot -0.306
     4   ca     1   MOL    C4    4    -0.163000     12.01000 ; qtot -0.469
     5   ca     1   MOL    C5    5    -0.100000     12.01000 ; qtot -0.569
     6   ca     1   MOL    C6    6    -0.155000     12.01000 ; qtot -0.724
     7   ca     1   MOL    C7    7     0.125100     12.01000 ; qtot -0.599
     8   oh     1   MOL    O1    8    -0.501101     16.00000 ; qtot -1.100
     9   ho     1   MOL    H1    9     0.420000      1.00800 ; qtot -0.680
    10   hc     1   MOL    H2   10     0.044367      1.00800 ; qtot -0.636
    11   hc     1   MOL    H3   11     0.044367      1.00800 ; qtot -0.591
    12   hc     1   MOL    H4   12     0.044367      1.00800 ; qtot -0.547
    13   ha     1   MOL    H5   13     0.131000      1.00800 ; qtot -0.416
    14   ha     1   MOL    H6   14     0.133000      1.00800 ; qtot -0.283
    15   ha     1   MOL    H7   15     0.134000      1.00800 ; qtot -0.149
    16   ha     1   MOL    H8   16     0.149000      1.00800 ; qtot -0.000

[ bonds ]
;   ai     aj funct   r             k
     1      2   1    1.5147e-01    2.0410e+05 ;     C1 - C2    
     1     10   1    1.0962e-01    2.8891e+05 ;     C1 - H2    
     1     11   1    1.0962e-01    2.8891e+05 ;     C1 - H3    
     1     12   1    1.0962e-01    2.8891e+05 ;     C1 - H4    
     2      3   1    1.3986e-01    2.9644e+05 ;     C2 - C3    
     2      7   1    1.3986e-01    2.9644e+05 ;     C2 - C7    
     3      4   1    1.3986e-01    2.9644e+05 ;     C3 - C4    
     3     13   1    1.0860e-01    3.0183e+05 ;     C3 - H5    
     4      5   1    1.3986e-01    2.9644e+05 ;     C4 - C5    
     4     14   1    1.0860e-01    3.0183e+05 ;     C4 - H6    
     5      6   1    1.3986e-01    2.9644e+05 ;     C5 - C6    
     5     15   1    1.0860e-01    3.0183e+05 ;     C5 - H7    
     6      7   1    1.3986e-01    2.9644e+05 ;     C6 - C7    
     6     16   1    1.0860e-01    3.0183e+05 ;     C6 - H8    
     7      8   1    1.3644e-01    2.9167e+05 ;     C7 - O1    
     8      9   1    9.7250e-02    4.4811e+05 ;     O1 - H1    

[ pairs ]
;   ai     aj    funct
     1      4      1 ;     C1 - C4    
     1      6      1 ;     C1 - C6    
     1      8      1 ;     C1 - O1    
     1     13      1 ;     C1 - H5    
     2      5      1 ;     C2 - C5    
     2      9      1 ;     C2 - H1    
     2     14      1 ;     C2 - H6    
     2     16      1 ;     C2 - H8    
     3      6      1 ;     C3 - C6    
     3      8      1 ;     C3 - O1    
     3     15      1 ;     C3 - H7    
     4      7      1 ;     C4 - C7    
     4     16      1 ;     C4 - H8    
     5      8      1 ;     C5 - O1    
     5     13      1 ;     C5 - H5    
     6      9      1 ;     C6 - H1    
     6     14      1 ;     C6 - H6    
     7     13      1 ;     C7 - H5    
     7     15      1 ;     C7 - H7    
     8     16      1 ;     O1 - H8    
    10      3      1 ;     H2 - C3    
    10      7      1 ;     H2 - C7    
    11      3      1 ;     H3 - C3    
    11      7      1 ;     H3 - C7    
    12      3      1 ;     H4 - C3    
    12      7      1 ;     H4 - C7    
    13     14      1 ;     H5 - H6    
    14     15      1 ;     H6 - H7    
    15     16      1 ;     H7 - H8    

[ angles ]
;   ai     aj     ak    funct   theta         cth
     1      2      3      1    1.2083e+02    5.0827e+02 ;     C1 - C2     - C3    
     1      2      7      1    1.2083e+02    5.0827e+02 ;     C1 - C2     - C7    
     2      1     10      1    1.1063e+02    3.6493e+02 ;     C2 - C1     - H2    
     2      1     11      1    1.1063e+02    3.6493e+02 ;     C2 - C1     - H3    
     2      1     12      1    1.1063e+02    3.6493e+02 ;     C2 - C1     - H4    
     2      3      4      1    1.2002e+02    5.3279e+02 ;     C2 - C3     - C4    
     2      3     13      1    1.1988e+02    3.7572e+02 ;     C2 - C3     - H5    
     2      7      6      1    1.2002e+02    5.3279e+02 ;     C2 - C7     - C6    
     2      7      8      1    1.1990e+02    6.5990e+02 ;     C2 - C7     - O1    
     3      2      7      1    1.2002e+02    5.3279e+02 ;     C3 - C2     - C7    
     3      4      5      1    1.2002e+02    5.3279e+02 ;     C3 - C4     - C5    
     3      4     14      1    1.1988e+02    3.7572e+02 ;     C3 - C4     - H6    
     4      3     13      1    1.1988e+02    3.7572e+02 ;     C4 - C3     - H5    
     4      5      6      1    1.2002e+02    5.3279e+02 ;     C4 - C5     - C6    
     4      5     15      1    1.1988e+02    3.7572e+02 ;     C4 - C5     - H7    
     5      4     14      1    1.1988e+02    3.7572e+02 ;     C5 - C4     - H6    
     5      6      7      1    1.2002e+02    5.3279e+02 ;     C5 - C6     - C7    
     5      6     16      1    1.1988e+02    3.7572e+02 ;     C5 - C6     - H8    
     6      5     15      1    1.1988e+02    3.7572e+02 ;     C6 - C5     - H7    
     6      7      8      1    1.1990e+02    6.5990e+02 ;     C6 - C7     - O1    
     7      6     16      1    1.1988e+02    3.7572e+02 ;     C7 - C6     - H8    
     7      8      9      1    1.0858e+02    5.6409e+02 ;     C7 - O1     - H1    
    10      1     11      1    1.0773e+02    2.9957e+02 ;     H2 - C1     - H3    
    10      1     12      1    1.0773e+02    2.9957e+02 ;     H2 - C1     - H4    
    11      1     12      1    1.0773e+02    2.9957e+02 ;     H3 - C1     - H4    

[ dihedrals ] ; propers
; for gromacs 4.5 or higher, using funct 9
;    i      j      k      l   func   phase     kd      pn
     1      2      3      4      9   180.00  15.16700   2 ;     C1-    C2-    C3-    C4
     1      2      3     13      9   180.00  15.16700   2 ;     C1-    C2-    C3-    H5
     1      2      7      6      9   180.00  15.16700   2 ;     C1-    C2-    C7-    C6
     1      2      7      8      9   180.00  15.16700   2 ;     C1-    C2-    C7-    O1
     2      3      4      5      9   180.00  15.16700   2 ;     C2-    C3-    C4-    C5
     2      3      4     14      9   180.00  15.16700   2 ;     C2-    C3-    C4-    H6
     2      7      6      5      9   180.00  15.16700   2 ;     C2-    C7-    C6-    C5
     2      7      6     16      9   180.00  15.16700   2 ;     C2-    C7-    C6-    H8
     2      7      8      9      9   180.00   3.57732   2 ;     C2-    C7-    O1-    H1
     3      2      7      6      9   180.00  15.16700   2 ;     C3-    C2-    C7-    C6
     3      2      7      8      9   180.00  15.16700   2 ;     C3-    C2-    C7-    O1
     3      4      5      6      9   180.00  15.16700   2 ;     C3-    C4-    C5-    C6
     3      4      5     15      9   180.00  15.16700   2 ;     C3-    C4-    C5-    H7
     4      3      2      7      9   180.00  15.16700   2 ;     C4-    C3-    C2-    C7
     4      5      6      7      9   180.00  15.16700   2 ;     C4-    C5-    C6-    C7
     4      5      6     16      9   180.00  15.16700   2 ;     C4-    C5-    C6-    H8
     5      4      3     13      9   180.00  15.16700   2 ;     C5-    C4-    C3-    H5
     5      6      7      8      9   180.00  15.16700   2 ;     C5-    C6-    C7-    O1
     6      5      4     14      9   180.00  15.16700   2 ;     C6-    C5-    C4-    H6
     6      7      8      9      9   180.00   3.57732   2 ;     C6-    C7-    O1-    H1
     7      2      3     13      9   180.00  15.16700   2 ;     C7-    C2-    C3-    H5
     7      6      5     15      9   180.00  15.16700   2 ;     C7-    C6-    C5-    H7
     8      7      6     16      9   180.00  15.16700   2 ;     O1-    C7-    C6-    H8
    10      1      2      3      9     0.00   0.00000   0 ;     H2-    C1-    C2-    C3
    10      1      2      7      9     0.00   0.00000   0 ;     H2-    C1-    C2-    C7
    11      1      2      3      9     0.00   0.00000   0 ;     H3-    C1-    C2-    C3
    11      1      2      7      9     0.00   0.00000   0 ;     H3-    C1-    C2-    C7
    12      1      2      3      9     0.00   0.00000   0 ;     H4-    C1-    C2-    C3
    12      1      2      7      9     0.00   0.00000   0 ;     H4-    C1-    C2-    C7
    13      3      4     14      9   180.00  15.16700   2 ;     H5-    C3-    C4-    H6
    14      4      5     15      9   180.00  15.16700   2 ;     H6-    C4-    C5-    H7
    15      5      6     16      9   180.00  15.16700   2 ;     H7-    C5-    C6-    H8

[ dihedrals ] ; impropers
; treated as propers in GROMACS to use correct AMBER analytical function
;    i      j      k      l   func   phase     kd      pn
     1      2      7      3      4   180.00   4.60240   2 ;     C1-    C2-    C7-    C3
     2      4      3     13      4   180.00   4.60240   2 ;     C2-    C4-    C3-    H5
     2      6      7      8      4   180.00   4.60240   2 ;     C2-    C6-    C7-    O1
     3      5      4     14      4   180.00   4.60240   2 ;     C3-    C5-    C4-    H6
     4      6      5     15      4   180.00   4.60240   2 ;     C4-    C6-    C5-    H7
     5      7      6     16      4   180.00   4.60240   2 ;     C5-    C7-    C6-    H8
