; mobley_1352110_GMX.itp created by acpype (v: 2023.10.27) on Thu May 14 13:35:00 2026

[ atomtypes ]
;name   bond_type     mass     charge   ptype   sigma         epsilon       Amb
 c        c           0.00000  0.00000   A     3.31521e-01   4.13379e-01 ; 1.86  0.0988
 c3       c3          0.00000  0.00000   A     3.39771e-01   4.51035e-01 ; 1.91  0.1078
 n        n           0.00000  0.00000   A     3.18086e-01   6.84502e-01 ; 1.79  0.1636
 o        o           0.00000  0.00000   A     3.04812e-01   6.12119e-01 ; 1.71  0.1463
 ss       ss          0.00000  0.00000   A     3.53241e-01   1.18156e+00 ; 1.98  0.2824
 hc       hc          0.00000  0.00000   A     2.60018e-01   8.70272e-02 ; 1.46  0.0208
 h1       h1          0.00000  0.00000   A     2.42200e-01   8.70272e-02 ; 1.36  0.0208

[ moleculetype ]
;name            nrexcl
 mobley_1352110   3

[ atoms ]
;   nr  type  resi  res  atom  cgnr     charge      mass       ; qtot   bond_type
     1    c     1   MOL    C1    1     0.684700     12.01000 ; qtot 0.685
     2   c3     1   MOL    C2    2    -0.092100     12.01000 ; qtot 0.593
     3   c3     1   MOL    C3    3    -0.094100     12.01000 ; qtot 0.498
     4   c3     1   MOL    C4    4    -0.112100     12.01000 ; qtot 0.386
     5   c3     1   MOL    C5    5    -0.078400     12.01000 ; qtot 0.308
     6   c3     1   MOL    C6    6    -0.073400     12.01000 ; qtot 0.235
     7   c3     1   MOL    C7    7    -0.103400     12.01000 ; qtot 0.131
     8   c3     1   MOL    C8    8     0.090000     12.01000 ; qtot 0.221
     9   c3     1   MOL    C9    9     0.090000     12.01000 ; qtot 0.311
    10   c3     1   MOL   C10   10    -0.015300     12.01000 ; qtot 0.296
    11    n     1   MOL    N1   11    -0.459800     14.01000 ; qtot -0.164
    12    o     1   MOL    O1   12    -0.609100     16.00000 ; qtot -0.773
    13   ss     1   MOL    S1   13    -0.269700     32.06000 ; qtot -1.043
    14   hc     1   MOL    H1   14     0.035033      1.00800 ; qtot -1.008
    15   hc     1   MOL    H2   15     0.035033      1.00800 ; qtot -0.973
    16   hc     1   MOL    H3   16     0.035033      1.00800 ; qtot -0.938
    17   hc     1   MOL    H4   17     0.036700      1.00800 ; qtot -0.901
    18   hc     1   MOL    H5   18     0.036700      1.00800 ; qtot -0.864
    19   hc     1   MOL    H6   19     0.036700      1.00800 ; qtot -0.828
    20   hc     1   MOL    H7   20     0.042367      1.00800 ; qtot -0.785
    21   hc     1   MOL    H8   21     0.042367      1.00800 ; qtot -0.743
    22   hc     1   MOL    H9   22     0.042367      1.00800 ; qtot -0.700
    23   hc     1   MOL   H10   23     0.040200      1.00800 ; qtot -0.660
    24   hc     1   MOL   H11   24     0.040200      1.00800 ; qtot -0.620
    25   hc     1   MOL   H12   25     0.050700      1.00800 ; qtot -0.569
    26   hc     1   MOL   H13   26     0.050700      1.00800 ; qtot -0.519
    27   hc     1   MOL   H14   27     0.051700      1.00800 ; qtot -0.467
    28   hc     1   MOL   H15   28     0.051700      1.00800 ; qtot -0.415
    29   h1     1   MOL   H16   29     0.059700      1.00800 ; qtot -0.356
    30   h1     1   MOL   H17   30     0.059700      1.00800 ; qtot -0.296
    31   h1     1   MOL   H18   31     0.058700      1.00800 ; qtot -0.237
    32   h1     1   MOL   H19   32     0.058700      1.00800 ; qtot -0.178
    33   h1     1   MOL   H20   33     0.089200      1.00800 ; qtot -0.089
    34   h1     1   MOL   H21   34     0.089200      1.00800 ; qtot -0.000

[ bonds ]
;   ai     aj funct   r             k
     1     11   1    1.3967e-01    2.6565e+05 ;     C1 - N1    
     1     12   1    1.2190e-01    4.9421e+05 ;     C1 - O1    
     1     13   1    1.8104e-01    1.6708e+05 ;     C1 - S1    
     2      5   1    1.5354e-01    1.9154e+05 ;     C2 - C5    
     2     14   1    1.0962e-01    2.8891e+05 ;     C2 - H1    
     2     15   1    1.0962e-01    2.8891e+05 ;     C2 - H2    
     2     16   1    1.0962e-01    2.8891e+05 ;     C2 - H3    
     3      6   1    1.5354e-01    1.9154e+05 ;     C3 - C6    
     3     17   1    1.0962e-01    2.8891e+05 ;     C3 - H4    
     3     18   1    1.0962e-01    2.8891e+05 ;     C3 - H5    
     3     19   1    1.0962e-01    2.8891e+05 ;     C3 - H6    
     4      8   1    1.5354e-01    1.9154e+05 ;     C4 - C8    
     4     20   1    1.0962e-01    2.8891e+05 ;     C4 - H7    
     4     21   1    1.0962e-01    2.8891e+05 ;     C4 - H8    
     4     22   1    1.0962e-01    2.8891e+05 ;     C4 - H9    
     5      7   1    1.5354e-01    1.9154e+05 ;     C5 - C7    
     5     23   1    1.0962e-01    2.8891e+05 ;     C5 - H10   
     5     24   1    1.0962e-01    2.8891e+05 ;     C5 - H11   
     6     10   1    1.5354e-01    1.9154e+05 ;     C6 - C10   
     6     25   1    1.0962e-01    2.8891e+05 ;     C6 - H12   
     6     26   1    1.0962e-01    2.8891e+05 ;     C6 - H13   
     7      9   1    1.5354e-01    1.9154e+05 ;     C7 - C9    
     7     27   1    1.0962e-01    2.8891e+05 ;     C7 - H14   
     7     28   1    1.0962e-01    2.8891e+05 ;     C7 - H15   
     8     11   1    1.4643e-01    2.1293e+05 ;     C8 - N1    
     8     29   1    1.0969e-01    2.8804e+05 ;     C8 - H16   
     8     30   1    1.0969e-01    2.8804e+05 ;     C8 - H17   
     9     11   1    1.4643e-01    2.1293e+05 ;     C9 - N1    
     9     31   1    1.0969e-01    2.8804e+05 ;     C9 - H18   
     9     32   1    1.0969e-01    2.8804e+05 ;     C9 - H19   
    10     13   1    1.8407e-01    1.5459e+05 ;    C10 - S1    
    10     33   1    1.0969e-01    2.8804e+05 ;    C10 - H20   
    10     34   1    1.0969e-01    2.8804e+05 ;    C10 - H21   

[ pairs ]
;   ai     aj    funct
     1      4      1 ;     C1 - C4    
     1      6      1 ;     C1 - C6    
     1      7      1 ;     C1 - C7    
     1     29      1 ;     C1 - H16   
     1     30      1 ;     C1 - H17   
     1     31      1 ;     C1 - H18   
     1     32      1 ;     C1 - H19   
     1     33      1 ;     C1 - H20   
     1     34      1 ;     C1 - H21   
     2      9      1 ;     C2 - C9    
     2     27      1 ;     C2 - H14   
     2     28      1 ;     C2 - H15   
     3     13      1 ;     C3 - S1    
     3     33      1 ;     C3 - H20   
     3     34      1 ;     C3 - H21   
     4      9      1 ;     C4 - C9    
     5     11      1 ;     C5 - N1    
     5     31      1 ;     C5 - H18   
     5     32      1 ;     C5 - H19   
     7      8      1 ;     C7 - C8    
     7     14      1 ;     C7 - H1    
     7     15      1 ;     C7 - H2    
     7     16      1 ;     C7 - H3    
     8     31      1 ;     C8 - H18   
     8     32      1 ;     C8 - H19   
     9     23      1 ;     C9 - H10   
     9     24      1 ;     C9 - H11   
     9     29      1 ;     C9 - H16   
     9     30      1 ;     C9 - H17   
    10     17      1 ;    C10 - H4    
    10     18      1 ;    C10 - H5    
    10     19      1 ;    C10 - H6    
    11     10      1 ;     N1 - C10   
    11     20      1 ;     N1 - H7    
    11     21      1 ;     N1 - H8    
    11     22      1 ;     N1 - H9    
    11     27      1 ;     N1 - H14   
    11     28      1 ;     N1 - H15   
    12      8      1 ;     O1 - C8    
    12      9      1 ;     O1 - C9    
    12     10      1 ;     O1 - C10   
    13      8      1 ;     S1 - C8    
    13      9      1 ;     S1 - C9    
    13     25      1 ;     S1 - H12   
    13     26      1 ;     S1 - H13   
    14     23      1 ;     H1 - H10   
    14     24      1 ;     H1 - H11   
    15     23      1 ;     H2 - H10   
    15     24      1 ;     H2 - H11   
    16     23      1 ;     H3 - H10   
    16     24      1 ;     H3 - H11   
    17     25      1 ;     H4 - H12   
    17     26      1 ;     H4 - H13   
    18     25      1 ;     H5 - H12   
    18     26      1 ;     H5 - H13   
    19     25      1 ;     H6 - H12   
    19     26      1 ;     H6 - H13   
    20     29      1 ;     H7 - H16   
    20     30      1 ;     H7 - H17   
    21     29      1 ;     H8 - H16   
    21     30      1 ;     H8 - H17   
    22     29      1 ;     H9 - H16   
    22     30      1 ;     H9 - H17   
    23     27      1 ;    H10 - H14   
    23     28      1 ;    H10 - H15   
    24     27      1 ;    H11 - H14   
    24     28      1 ;    H11 - H15   
    25     33      1 ;    H12 - H20   
    25     34      1 ;    H12 - H21   
    26     33      1 ;    H13 - H20   
    26     34      1 ;    H13 - H21   
    27     31      1 ;    H14 - H18   
    27     32      1 ;    H14 - H19   
    28     31      1 ;    H15 - H18   
    28     32      1 ;    H15 - H19   

[ angles ]
;   ai     aj     ak    funct   theta         cth
     1     11      8      1    1.1883e+02    6.4634e+02 ;     C1 - N1     - C8    
     1     11      9      1    1.1883e+02    6.4634e+02 ;     C1 - N1     - C9    
     1     13     10      1    9.9120e+01    7.8383e+02 ;     C1 - S1     - C10   
     2      5      7      1    1.1263e+02    5.0099e+02 ;     C2 - C5     - C7    
     2      5     23      1    1.0968e+02    3.6208e+02 ;     C2 - C5     - H10   
     2      5     24      1    1.0968e+02    3.6208e+02 ;     C2 - C5     - H11   
     3      6     10      1    1.1263e+02    5.0099e+02 ;     C3 - C6     - C10   
     3      6     25      1    1.0968e+02    3.6208e+02 ;     C3 - C6     - H12   
     3      6     26      1    1.0968e+02    3.6208e+02 ;     C3 - C6     - H13   
     4      8     11      1    1.1278e+02    5.4350e+02 ;     C4 - C8     - N1    
     4      8     29      1    1.0959e+02    3.6217e+02 ;     C4 - C8     - H16   
     4      8     30      1    1.0959e+02    3.6217e+02 ;     C4 - C8     - H17   
     5      2     14      1    1.0968e+02    3.6208e+02 ;     C5 - C2     - H1    
     5      2     15      1    1.0968e+02    3.6208e+02 ;     C5 - C2     - H2    
     5      2     16      1    1.0968e+02    3.6208e+02 ;     C5 - C2     - H3    
     5      7      9      1    1.1263e+02    5.0099e+02 ;     C5 - C7     - C9    
     5      7     27      1    1.0968e+02    3.6208e+02 ;     C5 - C7     - H14   
     5      7     28      1    1.0968e+02    3.6208e+02 ;     C5 - C7     - H15   
     6      3     17      1    1.0968e+02    3.6208e+02 ;     C6 - C3     - H4    
     6      3     18      1    1.0968e+02    3.6208e+02 ;     C6 - C3     - H5    
     6      3     19      1    1.0968e+02    3.6208e+02 ;     C6 - C3     - H6    
     6     10     13      1    1.1018e+02    5.2651e+02 ;     C6 - C10    - S1    
     6     10     33      1    1.0959e+02    3.6217e+02 ;     C6 - C10    - H20   
     6     10     34      1    1.0959e+02    3.6217e+02 ;     C6 - C10    - H21   
     7      5     23      1    1.0968e+02    3.6208e+02 ;     C7 - C5     - H10   
     7      5     24      1    1.0968e+02    3.6208e+02 ;     C7 - C5     - H11   
     7      9     11      1    1.1278e+02    5.4350e+02 ;     C7 - C9     - N1    
     7      9     31      1    1.0959e+02    3.6217e+02 ;     C7 - C9     - H18   
     7      9     32      1    1.0959e+02    3.6217e+02 ;     C7 - C9     - H19   
     8      4     20      1    1.0968e+02    3.6208e+02 ;     C8 - C4     - H7    
     8      4     21      1    1.0968e+02    3.6208e+02 ;     C8 - C4     - H8    
     8      4     22      1    1.0968e+02    3.6208e+02 ;     C8 - C4     - H9    
     8     11      9      1    1.1675e+02    6.3773e+02 ;     C8 - N1     - C9    
     9      7     27      1    1.0968e+02    3.6208e+02 ;     C9 - C7     - H14   
     9      7     28      1    1.0968e+02    3.6208e+02 ;     C9 - C7     - H15   
    10      6     25      1    1.0968e+02    3.6208e+02 ;    C10 - C6     - H12   
    10      6     26      1    1.0968e+02    3.6208e+02 ;    C10 - C6     - H13   
    11      1     12      1    1.2257e+02    7.2534e+02 ;     N1 - C1     - O1    
    11      1     13      1    1.1029e+02    5.7823e+02 ;     N1 - C1     - S1    
    11      8     29      1    1.0876e+02    4.0242e+02 ;     N1 - C8     - H16   
    11      8     30      1    1.0876e+02    4.0242e+02 ;     N1 - C8     - H17   
    11      9     31      1    1.0876e+02    4.0242e+02 ;     N1 - C9     - H18   
    11      9     32      1    1.0876e+02    4.0242e+02 ;     N1 - C9     - H19   
    12      1     13      1    1.2338e+02    6.3873e+02 ;     O1 - C1     - S1    
    13     10     33      1    1.0873e+02    3.5196e+02 ;     S1 - C10    - H20   
    13     10     34      1    1.0873e+02    3.5196e+02 ;     S1 - C10    - H21   
    14      2     15      1    1.0773e+02    2.9957e+02 ;     H1 - C2     - H2    
    14      2     16      1    1.0773e+02    2.9957e+02 ;     H1 - C2     - H3    
    15      2     16      1    1.0773e+02    2.9957e+02 ;     H2 - C2     - H3    
    17      3     18      1    1.0773e+02    2.9957e+02 ;     H4 - C3     - H5    
    17      3     19      1    1.0773e+02    2.9957e+02 ;     H4 - C3     - H6    
    18      3     19      1    1.0773e+02    2.9957e+02 ;     H5 - C3     - H6    
    20      4     21      1    1.0773e+02    2.9957e+02 ;     H7 - C4     - H8    
    20      4     22      1    1.0773e+02    2.9957e+02 ;     H7 - C4     - H9    
    21      4     22      1    1.0773e+02    2.9957e+02 ;     H8 - C4     - H9    
    23      5     24      1    1.0773e+02    2.9957e+02 ;    H10 - C5     - H11   
    25      6     26      1    1.0773e+02    2.9957e+02 ;    H12 - C6     - H13   
    27      7     28      1    1.0773e+02    2.9957e+02 ;    H14 - C7     - H15   
    29      8     30      1    1.0855e+02    2.9824e+02 ;    H16 - C8     - H17   
    31      9     32      1    1.0855e+02    2.9824e+02 ;    H18 - C9     - H19   
    33     10     34      1    1.0855e+02    2.9824e+02 ;    H20 - C10    - H21   

[ dihedrals ] ; propers
; for gromacs 4.5 or higher, using funct 9
;    i      j      k      l   func   phase     kd      pn
     1     11      8      4      9     0.00   9.45584   1 ;     C1-    N1-    C8-    C4
     1     11      8      4      9   180.00   0.12552   3 ;     C1-    N1-    C8-    C4
     1     11      8      4      9   180.00   2.71960   4 ;     C1-    N1-    C8-    C4
     1     11      8     29      9   180.00   0.00000   2 ;     C1-    N1-    C8-   H16
     1     11      8     30      9   180.00   0.00000   2 ;     C1-    N1-    C8-   H17
     1     11      9      7      9     0.00   9.45584   1 ;     C1-    N1-    C9-    C7
     1     11      9      7      9   180.00   0.12552   3 ;     C1-    N1-    C9-    C7
     1     11      9      7      9   180.00   2.71960   4 ;     C1-    N1-    C9-    C7
     1     11      9     31      9   180.00   0.00000   2 ;     C1-    N1-    C9-   H18
     1     11      9     32      9   180.00   0.00000   2 ;     C1-    N1-    C9-   H19
     1     13     10      6      9     0.00   1.39467   3 ;     C1-    S1-   C10-    C6
     1     13     10     33      9     0.00   1.39467   3 ;     C1-    S1-   C10-   H20
     1     13     10     34      9     0.00   1.39467   3 ;     C1-    S1-   C10-   H21
     2      5      7      9      9     0.00   2.17568   3 ;     C2-    C5-    C7-    C9
     2      5      7     27      9     0.00   0.54392   3 ;     C2-    C5-    C7-   H14
     2      5      7     28      9     0.00   0.54392   3 ;     C2-    C5-    C7-   H15
     3      6     10     13      9     0.00   0.65084   3 ;     C3-    C6-   C10-    S1
     3      6     10     33      9     0.00   0.65084   3 ;     C3-    C6-   C10-   H20
     3      6     10     34      9     0.00   0.65084   3 ;     C3-    C6-   C10-   H21
     4      8     11      9      9     0.00   0.00000   0 ;     C4-    C8-    N1-    C9
     5      7      9     11      9     0.00   0.41840   3 ;     C5-    C7-    C9-    N1
     5      7      9     31      9     0.00   0.65084   3 ;     C5-    C7-    C9-   H18
     5      7      9     32      9     0.00   0.65084   3 ;     C5-    C7-    C9-   H19
     7      5      2     14      9     0.00   0.54392   3 ;     C7-    C5-    C2-    H1
     7      5      2     15      9     0.00   0.54392   3 ;     C7-    C5-    C2-    H2
     7      5      2     16      9     0.00   0.54392   3 ;     C7-    C5-    C2-    H3
     7      9     11      8      9     0.00   0.00000   0 ;     C7-    C9-    N1-    C8
     8     11      9     31      9     0.00   0.00000   0 ;     C8-    N1-    C9-   H18
     8     11      9     32      9     0.00   0.00000   0 ;     C8-    N1-    C9-   H19
     9      7      5     23      9     0.00   0.54392   3 ;     C9-    C7-    C5-   H10
     9      7      5     24      9     0.00   0.54392   3 ;     C9-    C7-    C5-   H11
     9     11      8     29      9     0.00   0.00000   0 ;     C9-    N1-    C8-   H16
     9     11      8     30      9     0.00   0.00000   0 ;     C9-    N1-    C8-   H17
    10      6      3     17      9     0.00   0.54392   3 ;    C10-    C6-    C3-    H4
    10      6      3     18      9     0.00   0.54392   3 ;    C10-    C6-    C3-    H5
    10      6      3     19      9     0.00   0.54392   3 ;    C10-    C6-    C3-    H6
    11      1     13     10      9   180.00  12.97040   2 ;     N1-    C1-    S1-   C10
    11      8      4     20      9     0.00   0.65084   3 ;     N1-    C8-    C4-    H7
    11      8      4     21      9     0.00   0.65084   3 ;     N1-    C8-    C4-    H8
    11      8      4     22      9     0.00   0.65084   3 ;     N1-    C8-    C4-    H9
    11      9      7     27      9     0.00   0.65084   3 ;     N1-    C9-    C7-   H14
    11      9      7     28      9     0.00   0.65084   3 ;     N1-    C9-    C7-   H15
    12      1     11      8      9   180.00  10.46000   2 ;     O1-    C1-    N1-    C8
    12      1     11      9      9   180.00  10.46000   2 ;     O1-    C1-    N1-    C9
    12      1     13     10      9   180.00  12.97040   2 ;     O1-    C1-    S1-   C10
    13      1     11      8      9   180.00  10.46000   2 ;     S1-    C1-    N1-    C8
    13      1     11      9      9   180.00  10.46000   2 ;     S1-    C1-    N1-    C9
    13     10      6     25      9     0.00   0.65084   3 ;     S1-   C10-    C6-   H12
    13     10      6     26      9     0.00   0.65084   3 ;     S1-   C10-    C6-   H13
    14      2      5     23      9     0.00   0.50208   3 ;     H1-    C2-    C5-   H10
    14      2      5     24      9     0.00   0.50208   3 ;     H1-    C2-    C5-   H11
    15      2      5     23      9     0.00   0.50208   3 ;     H2-    C2-    C5-   H10
    15      2      5     24      9     0.00   0.50208   3 ;     H2-    C2-    C5-   H11
    16      2      5     23      9     0.00   0.50208   3 ;     H3-    C2-    C5-   H10
    16      2      5     24      9     0.00   0.50208   3 ;     H3-    C2-    C5-   H11
    17      3      6     25      9     0.00   0.50208   3 ;     H4-    C3-    C6-   H12
    17      3      6     26      9     0.00   0.50208   3 ;     H4-    C3-    C6-   H13
    18      3      6     25      9     0.00   0.50208   3 ;     H5-    C3-    C6-   H12
    18      3      6     26      9     0.00   0.50208   3 ;     H5-    C3-    C6-   H13
    19      3      6     25      9     0.00   0.50208   3 ;     H6-    C3-    C6-   H12
    19      3      6     26      9     0.00   0.50208   3 ;     H6-    C3-    C6-   H13
    20      4      8     29      9     0.00   0.65084   3 ;     H7-    C4-    C8-   H16
    20      4      8     30      9     0.00   0.65084   3 ;     H7-    C4-    C8-   H17
    21      4      8     29      9     0.00   0.65084   3 ;     H8-    C4-    C8-   H16
    21      4      8     30      9     0.00   0.65084   3 ;     H8-    C4-    C8-   H17
    22      4      8     29      9     0.00   0.65084   3 ;     H9-    C4-    C8-   H16
    22      4      8     30      9     0.00   0.65084   3 ;     H9-    C4-    C8-   H17
    23      5      7     27      9     0.00   0.50208   3 ;    H10-    C5-    C7-   H14
    23      5      7     28      9     0.00   0.50208   3 ;    H10-    C5-    C7-   H15
    24      5      7     27      9     0.00   0.50208   3 ;    H11-    C5-    C7-   H14
    24      5      7     28      9     0.00   0.50208   3 ;    H11-    C5-    C7-   H15
    25      6     10     33      9     0.00   0.65084   3 ;    H12-    C6-   C10-   H20
    25      6     10     34      9     0.00   0.65084   3 ;    H12-    C6-   C10-   H21
    26      6     10     33      9     0.00   0.65084   3 ;    H13-    C6-   C10-   H20
    26      6     10     34      9     0.00   0.65084   3 ;    H13-    C6-   C10-   H21
    27      7      9     31      9     0.00   0.65084   3 ;    H14-    C7-    C9-   H18
    27      7      9     32      9     0.00   0.65084   3 ;    H14-    C7-    C9-   H19
    28      7      9     31      9     0.00   0.65084   3 ;    H15-    C7-    C9-   H18
    28      7      9     32      9     0.00   0.65084   3 ;    H15-    C7-    C9-   H19

[ dihedrals ] ; impropers
; treated as propers in GROMACS to use correct AMBER analytical function
;    i      j      k      l   func   phase     kd      pn
     1      8     11      9      4   180.00   4.60240   2 ;     C1-    C8-    N1-    C9
    13      1     12     11      4   180.00   4.60240   2 ;     S1-    C1-    O1-    N1
