mobley_4287564_GMX.gro created by acpype (v: 2023.10.27) on Thu May 14 14:00:56 2026
 1667
    1MOL     C1    1   1.358   1.405   1.183
    1MOL     C2    2   1.247   1.367   1.107
    1MOL     C3    3   1.379   1.347   1.308
    1MOL     C4    4   1.162   1.272   1.160
    1MOL     C5    5   1.287   1.252   1.352
    1MOL     C6    6   1.307   1.188   1.485
    1MOL     N1    7   1.179   1.213   1.281
    1MOL     H1    8   1.427   1.480   1.145
    1MOL     H2    9   1.229   1.411   1.010
    1MOL     H3   10   1.464   1.376   1.368
    1MOL     H4   11   1.075   1.239   1.105
    1MOL     H5   12   1.386   1.240   1.541
    1MOL     H6   13   1.215   1.190   1.544
    1MOL     H7   14   1.335   1.083   1.474
    2SOL     OW   15   0.230   0.628   0.113
    2SOL    HW1   16   0.137   0.626   0.150
    2SOL    HW2   17   0.231   0.589   0.021
    3SOL     OW   18   0.225   0.275   0.996
    3SOL    HW1   19   0.260   0.258   1.088
    3SOL    HW2   20   0.137   0.230   0.984
    4SOL     OW   21   0.019   0.368   0.647
    4SOL    HW1   22  -0.063   0.411   0.686
    4SOL    HW2   23  -0.009   0.295   0.584
    5SOL     OW   24   0.569   1.275   1.165
    5SOL    HW1   25   0.476   1.268   1.128
    5SOL    HW2   26   0.580   1.364   1.209
    6SOL     OW   27   1.555   1.511   0.703
    6SOL    HW1   28   1.498   1.495   0.784
    6SOL    HW2   29   1.496   1.521   0.623
    7SOL     OW   30   1.135   0.703   0.717
    7SOL    HW1   31   1.192   0.781   0.692
    7SOL    HW2   32   1.075   0.729   0.793
    8SOL     OW   33   1.755   0.607   0.231
    8SOL    HW1   34   1.743   0.594   0.132
    8SOL    HW2   35   1.725   0.526   0.280
    9SOL     OW   36   0.768   1.144   1.023
    9SOL    HW1   37   0.690   1.161   1.083
    9SOL    HW2   38   0.802   1.231   0.987
   10SOL     OW   39   0.850   0.798   1.823
   10SOL    HW1   40   0.846   0.874   1.888
   10SOL    HW2   41   0.872   0.834   1.732
   11SOL     OW   42   0.685   1.012   0.665
   11SOL    HW1   43   0.754   0.996   0.735
   11SOL    HW2   44   0.612   1.069   0.703
   12SOL     OW   45   0.686   1.161   1.803
   12SOL    HW1   46   0.746   1.240   1.817
   12SOL    HW2   47   0.600   1.192   1.762
   13SOL     OW   48   0.335   1.435   1.061
   13SOL    HW1   49   0.257   1.404   1.008
   13SOL    HW2   50   0.393   1.493   1.004
   14SOL     OW   51   0.438   0.392   1.499
   14SOL    HW1   52   0.520   0.336   1.508
   14SOL    HW2   53   0.357   0.334   1.503
   15SOL     OW   54   1.603   0.447   0.737
   15SOL    HW1   55   1.529   0.493   0.687
   15SOL    HW2   56   1.654   0.515   0.790
   16SOL     OW   57   0.231   1.713   0.483
   16SOL    HW1   58   0.265   1.790   0.537
   16SOL    HW2   59   0.275   1.713   0.393
   17SOL     OW   60   1.127   1.341   1.690
   17SOL    HW1   61   1.174   1.341   1.778
   17SOL    HW2   62   1.079   1.254   1.679
   18SOL     OW   63   0.230   1.434   0.538
   18SOL    HW1   64   0.204   1.530   0.538
   18SOL    HW2   65   0.159   1.380   0.583
   19SOL     OW   66   0.240   1.091   0.886
   19SOL    HW1   67   0.254   1.007   0.938
   19SOL    HW2   68   0.185   1.155   0.941
   20SOL     OW   69   0.620   1.786   1.439
   20SOL    HW1   70   0.528   1.769   1.474
   20SOL    HW2   71   0.648   1.878   1.465
   21SOL     OW   72   0.606   0.964   0.123
   21SOL    HW1   73   0.613   1.048   0.069
   21SOL    HW2   74   0.652   0.977   0.211
   22SOL     OW   75   1.594   0.114   1.480
   22SOL    HW1   76   1.576   0.181   1.408
   22SOL    HW2   77   1.591   0.160   1.569
   23SOL     OW   78   0.122   0.643   0.563
   23SOL    HW1   79   0.077   0.555   0.580
   23SOL    HW2   80   0.121   0.697   0.647
   24SOL     OW   81   1.842   1.767   0.359
   24SOL    HW1   82   1.896   1.738   0.439
   24SOL    HW2   83   1.872   1.857   0.330
   25SOL     OW   84   0.027   1.596   0.117
   25SOL    HW1   85   0.008   1.500   0.138
   25SOL    HW2   86  -0.006   1.654   0.192
   26SOL     OW   87   1.689   0.922   0.612
   26SOL    HW1   88   1.784   0.893   0.620
   26SOL    HW2   89   1.681   0.987   0.537
   27SOL     OW   90   1.641   1.108   0.432
   27SOL    HW1   91   1.727   1.110   0.380
   27SOL    HW2   92   1.655   1.155   0.520
   28SOL     OW   93   0.113   0.737   1.597
   28SOL    HW1   94   0.201   0.724   1.642
   28SOL    HW2   95   0.100   0.834   1.575
   29SOL     OW   96   0.613   1.365   0.726
   29SOL    HW1   97   0.564   1.278   0.735
   29SOL    HW2   98   0.590   1.408   0.639
   30SOL     OW   99   0.809   0.004   0.502
   30SOL    HW1  100   0.849   0.095   0.493
   30SOL    HW2  101   0.709   0.012   0.508
   31SOL     OW  102   0.197   0.976   1.264
   31SOL    HW1  103   0.286   0.931   1.250
   31SOL    HW2  104   0.124   0.911   1.245
   32SOL     OW  105   1.525   0.999   0.190
   32SOL    HW1  106   1.462   0.923   0.203
   32SOL    HW2  107   1.573   1.017   0.276
   33SOL     OW  108   1.187   1.792   1.616
   33SOL    HW1  109   1.211   1.852   1.540
   33SOL    HW2  110   1.194   1.697   1.586
   34SOL     OW  111   0.317   0.251   1.801
   34SOL    HW1  112   0.388   0.322   1.807
   34SOL    HW2  113   0.229   0.290   1.829
   35SOL     OW  114   1.667   1.714   0.572
   35SOL    HW1  115   1.626   1.691   0.484
   35SOL    HW2  116   1.649   1.640   0.637
   36SOL     OW  117   0.598   0.729   0.270
   36SOL    HW1  118   0.622   0.798   0.202
   36SOL    HW2  119   0.520   0.762   0.324
   37SOL     OW  120   1.281   0.345   0.944
   37SOL    HW1  121   1.195   0.295   0.931
   37SOL    HW2  122   1.343   0.291   1.000
   38SOL     OW  123   1.576   1.662   0.307
   38SOL    HW1  124   1.665   1.708   0.310
   38SOL    HW2  125   1.555   1.638   0.212
   39SOL     OW  126   0.807   0.605   1.465
   39SOL    HW1  127   0.760   0.602   1.554
   39SOL    HW2  128   0.756   0.550   1.399
   40SOL     OW  129   1.394   0.469   1.674
   40SOL    HW1  130   1.374   0.512   1.762
   40SOL    HW2  131   1.472   0.407   1.683
   41SOL     OW  132   0.973   0.890   1.572
   41SOL    HW1  133   1.019   0.806   1.543
   41SOL    HW2  134   0.917   0.924   1.497
   42SOL     OW  135   0.991   0.410   1.242
   42SOL    HW1  136   0.914   0.444   1.296
   42SOL    HW2  137   0.957   0.359   1.163
   43SOL     OW  138   1.041   0.701   0.429
   43SOL    HW1  139   1.067   0.697   0.525
   43SOL    HW2  140   0.956   0.650   0.415
   44SOL     OW  141   0.076   0.811   0.789
   44SOL    HW1  142   0.175   0.799   0.798
   44SOL    HW2  143   0.052   0.906   0.810
   45SOL     OW  144   0.130   1.821   1.571
   45SOL    HW1  145   0.120   1.806   1.670
   45SOL    HW2  146   0.044   1.857   1.535
   46SOL     OW  147   0.865   0.348   0.195
   46SOL    HW1  148   0.924   0.411   0.146
   46SOL    HW2  149   0.884   0.254   0.166
   47SOL     OW  150   1.719   0.585   1.831
   47SOL    HW1  151   1.693   0.674   1.795
   47SOL    HW2  152   1.717   0.517   1.758
   48SOL     OW  153   1.362   1.144   0.545
   48SOL    HW1  154   1.445   1.115   0.497
   48SOL    HW2  155   1.313   1.211   0.489
   49SOL     OW  156   0.550   0.196   0.885
   49SOL    HW1  157   0.545   0.191   0.985
   49SOL    HW2  158   0.552   0.292   0.856
   50SOL     OW  159   1.008   1.456   0.477
   50SOL    HW1  160   0.962   1.528   0.425
   50SOL    HW2  161   1.004   1.476   0.575
   51SOL     OW  162   0.351   1.801   0.853
   51SOL    HW1  163   0.401   1.715   0.859
   51SOL    HW2  164   0.416   1.878   0.850
   52SOL     OW  165   1.795   1.066   0.873
   52SOL    HW1  166   1.733   1.051   0.797
   52SOL    HW2  167   1.743   1.077   0.958
   53SOL     OW  168   1.227   1.550   1.506
   53SOL    HW1  169   1.233   1.473   1.570
   53SOL    HW2  170   1.175   1.524   1.426
   54SOL     OW  171   0.321   0.943   0.242
   54SOL    HW1  172   0.403   0.982   0.200
   54SOL    HW2  173   0.294   0.861   0.193
   55SOL     OW  174   1.458   0.735   0.728
   55SOL    HW1  175   1.453   0.670   0.803
   55SOL    HW2  176   1.538   0.794   0.741
   56SOL     OW  177   0.461   1.266   1.727
   56SOL    HW1  178   0.411   1.267   1.641
   56SOL    HW2  179   0.398   1.248   1.803
   57SOL     OW  180   1.111   1.776   0.237
   57SOL    HW1  181   1.051   1.714   0.287
   57SOL    HW2  182   1.142   1.732   0.152
   58SOL     OW  183   0.202   0.285   1.498
   58SOL    HW1  184   0.122   0.345   1.485
   58SOL    HW2  185   0.192   0.236   1.584
   59SOL     OW  186   1.632   1.377   0.081
   59SOL    HW1  187   1.600   1.471   0.071
   59SOL    HW2  188   1.556   1.314   0.069
   60SOL     OW  189   0.464   1.743   0.323
   60SOL    HW1  190   0.497   1.782   0.409
   60SOL    HW2  191   0.540   1.736   0.258
   61SOL     OW  192   1.400   0.107   0.426
   61SOL    HW1  193   1.376   0.070   0.336
   61SOL    HW2  194   1.499   0.123   0.430
   62SOL     OW  195   0.249   1.785   1.241
   62SOL    HW1  196   0.306   1.720   1.291
   62SOL    HW2  197   0.233   1.752   1.148
   63SOL     OW  198   0.940   1.698   0.904
   63SOL    HW1  199   1.020   1.641   0.925
   63SOL    HW2  200   0.891   1.658   0.827
   64SOL     OW  201   0.382   0.700   0.480
   64SOL    HW1  202   0.427   0.610   0.477
   64SOL    HW2  203   0.288   0.689   0.513
   65SOL     OW  204   1.547   0.222   1.729
   65SOL    HW1  205   1.542   0.259   1.821
   65SOL    HW2  206   1.475   0.153   1.717
   66SOL     OW  207   0.614   0.122   0.117
   66SOL    HW1  208   0.712   0.100   0.124
   66SOL    HW2  209   0.583   0.105   0.024
   67SOL     OW  210   0.781   0.264   1.749
   67SOL    HW1  211   0.848   0.203   1.792
   67SOL    HW2  212   0.708   0.283   1.814
   68SOL     OW  213   0.888   1.514   1.195
   68SOL    HW1  214   0.865   1.489   1.101
   68SOL    HW2  215   0.949   1.445   1.234
   69SOL     OW  216   1.351   0.590   1.433
   69SOL    HW1  217   1.379   0.547   1.518
   69SOL    HW2  218   1.376   0.686   1.434
   70SOL     OW  219   0.803   1.402   0.924
   70SOL    HW1  220   0.893   1.416   0.882
   70SOL    HW2  221   0.732   1.404   0.853
   71SOL     OW  222   0.922   0.503   0.899
   71SOL    HW1  223   0.897   0.494   0.803
   71SOL    HW2  224   0.970   0.421   0.930
   72SOL     OW  225   0.539   0.064   0.512
   72SOL    HW1  226   0.458   0.065   0.570
   72SOL    HW2  227   0.542   0.147   0.457
   73SOL     OW  228   1.434   1.188   0.041
   73SOL    HW1  229   1.466   1.112   0.098
   73SOL    HW2  230   1.342   1.215   0.071
   74SOL     OW  231   0.297   0.035   0.171
   74SOL    HW1  232   0.346   0.119   0.150
   74SOL    HW2  233   0.359  -0.030   0.216
   75SOL     OW  234   0.935   0.236   0.480
   75SOL    HW1  235   0.887   0.277   0.402
   75SOL    HW2  236   1.034   0.234   0.461
   76SOL     OW  237   1.076   0.683   1.464
   76SOL    HW1  238   0.996   0.622   1.467
   76SOL    HW2  239   1.157   0.630   1.440
   77SOL     OW  240   1.227   1.570   0.793
   77SOL    HW1  241   1.248   1.644   0.728
   77SOL    HW2  242   1.295   1.570   0.866
   78SOL     OW  243   0.459   1.152   0.741
   78SOL    HW1  244   0.388   1.125   0.806
   78SOL    HW2  245   0.433   1.124   0.648
   79SOL     OW  246   1.271   1.797   0.591
   79SOL    HW1  247   1.315   1.861   0.527
   79SOL    HW2  248   1.221   1.849   0.661
   80SOL     OW  249   1.032   0.549   0.016
   80SOL    HW1  250   0.991   0.631  -0.023
   80SOL    HW2  251   1.096   0.575   0.089
   81SOL     OW  252   0.078   0.556   1.386
   81SOL    HW1  253   0.170   0.555   1.345
   81SOL    HW2  254   0.072   0.630   1.453
   82SOL     OW  255   0.561   0.222   1.147
   82SOL    HW1  256   0.599   0.138   1.184
   82SOL    HW2  257   0.473   0.241   1.191
   83SOL     OW  258   0.866   0.454   0.642
   83SOL    HW1  259   0.834   0.526   0.580
   83SOL    HW2  260   0.890   0.373   0.589
   84SOL     OW  261   1.017   0.039   0.753
   84SOL    HW1  262   0.945   0.044   0.684
   84SOL    HW2  263   0.993  -0.030   0.822
   85SOL     OW  264   1.429   1.173   0.867
   85SOL    HW1  265   1.374   1.089   0.860
   85SOL    HW2  266   1.455   1.202   0.775
   86SOL     OW  267   1.466   0.590   0.992
   86SOL    HW1  268   1.436   0.495   0.999
   86SOL    HW2  269   1.539   0.606   1.058
   87SOL     OW  270   1.857   0.833   0.377
   87SOL    HW1  271   1.899   0.769   0.441
   87SOL    HW2  272   1.819   0.782   0.299
   88SOL     OW  273   0.488   1.385   0.174
   88SOL    HW1  274   0.401   1.370   0.221
   88SOL    HW2  275   0.471   1.411   0.079
   89SOL     OW  276   1.664   1.280   0.657
   89SOL    HW1  277   1.763   1.288   0.671
   89SOL    HW2  278   1.619   1.364   0.688
   90SOL     OW  279   1.390   0.575   0.078
   90SOL    HW1  280   1.336   0.554   0.159
   90SOL    HW2  281   1.481   0.534   0.087
   91SOL     OW  282   0.527   0.256   0.328
   91SOL    HW1  283   0.554   0.197   0.253
   91SOL    HW2  284   0.527   0.351   0.297
   92SOL     OW  285   1.754   1.223   1.588
   92SOL    HW1  286   1.845   1.184   1.575
   92SOL    HW2  287   1.762   1.319   1.612
   93SOL     OW  288   1.592   1.629   1.625
   93SOL    HW1  289   1.619   1.663   1.535
   93SOL    HW2  290   1.671   1.591   1.671
   94SOL     OW  291   1.638   1.099   1.079
   94SOL    HW1  292   1.643   1.180   1.138
   94SOL    HW2  293   1.552   1.101   1.028
   95SOL     OW  294   0.915   0.089   1.402
   95SOL    HW1  295   0.940   0.069   1.307
   95SOL    HW2  296   0.987   0.145   1.444
   96SOL     OW  297   0.980   1.116   1.719
   96SOL    HW1  298   0.881   1.122   1.729
   96SOL    HW2  299   1.003   1.036   1.663
   97SOL     OW  300   0.705   1.050   0.368
   97SOL    HW1  301   0.691   1.057   0.467
   97SOL    HW2  302   0.789   0.999   0.350
   98SOL     OW  303   0.410   0.813   1.251
   98SOL    HW1  304   0.496   0.825   1.301
   98SOL    HW2  305   0.368   0.726   1.278
   99SOL     OW  306   1.274   0.386   1.262
   99SOL    HW1  307   1.295   0.460   1.326
   99SOL    HW2  308   1.185   0.403   1.219
  100SOL     OW  309   0.064   1.564   1.331
  100SOL    HW1  310   0.018   1.646   1.297
  100SOL    HW2  311   0.162   1.583   1.340
  101SOL     OW  312   0.367   1.100   0.501
  101SOL    HW1  313   0.360   1.183   0.445
  101SOL    HW2  314   0.371   1.020   0.441
  102SOL     OW  315   0.566   0.537   0.865
  102SOL    HW1  316   0.578   0.603   0.791
  102SOL    HW2  317   0.612   0.571   0.948
  103SOL     OW  318   1.252   1.348   0.388
  103SOL    HW1  319   1.302   1.425   0.428
  103SOL    HW2  320   1.157   1.350   0.420
  104SOL     OW  321   1.582   0.639   0.472
  104SOL    HW1  322   1.551   0.700   0.545
  104SOL    HW2  323   1.632   0.691   0.403
  105SOL     OW  324   0.354   1.510   1.329
  105SOL    HW1  325   0.333   1.466   1.242
  105SOL    HW2  326   0.451   1.536   1.332
  106SOL     OW  327   0.402   0.751   1.598
  106SOL    HW1  328   0.470   0.806   1.551
  106SOL    HW2  329   0.442   0.663   1.625
  107SOL     OW  330   1.587   0.779   1.670
  107SOL    HW1  331   1.495   0.817   1.665
  107SOL    HW2  332   1.647   0.826   1.605
  108SOL     OW  333   1.013   0.105   1.770
  108SOL    HW1  334   1.019   0.190   1.718
  108SOL    HW2  335   1.045   0.029   1.713
  109SOL     OW  336   0.504   0.050   1.740
  109SOL    HW1  337   0.462  -0.007   1.670
  109SOL    HW2  338   0.438   0.119   1.772
  110SOL     OW  339   0.573   0.870   1.029
  110SOL    HW1  340   0.617   0.959   1.020
  110SOL    HW2  341   0.510   0.870   1.106
  111SOL     OW  342   1.360   0.862   1.045
  111SOL    HW1  343   1.285   0.862   0.979
  111SOL    HW2  344   1.397   0.770   1.054
  112SOL     OW  345   1.209   0.525   0.275
  112SOL    HW1  346   1.222   0.441   0.329
  112SOL    HW2  347   1.180   0.599   0.335
  113SOL     OW  348   0.307   0.213   1.231
  113SOL    HW1  349   0.284   0.250   1.321
  113SOL    HW2  350   0.277   0.118   1.225
  114SOL     OW  351   0.037   1.310   1.282
  114SOL    HW1  352   0.090   1.261   1.350
  114SOL    HW2  353   0.059   1.408   1.287
  115SOL     OW  354   0.732   0.634   1.064
  115SOL    HW1  355   0.791   0.608   0.988
  115SOL    HW2  356   0.704   0.730   1.053
  116SOL     OW  357   1.728   0.935   1.854
  116SOL    HW1  358   1.682   0.928   1.765
  116SOL    HW2  359   1.666   0.979   1.920
  117SOL     OW  360   0.307   0.063   0.618
  117SOL    HW1  361   0.296   0.157   0.651
  117SOL    HW2  362   0.302   0.000   0.695
  118SOL     OW  363   1.622   0.367   0.374
  118SOL    HW1  364   1.624   0.291   0.438
  118SOL    HW2  365   1.574   0.444   0.414
  119SOL     OW  366   1.023   0.766   0.966
  119SOL    HW1  367   1.038   0.787   1.062
  119SOL    HW2  368   0.993   0.671   0.957
  120SOL     OW  369   0.980   1.573   1.700
  120SOL    HW1  370   0.960   1.617   1.612
  120SOL    HW2  371   1.019   1.482   1.684
  121SOL     OW  372   1.859   1.518   1.605
  121SOL    HW1  373   1.873   1.545   1.510
  121SOL    HW2  374   1.942   1.540   1.658
  122SOL     OW  375   0.350   0.898   1.804
  122SOL    HW1  376   0.426   0.942   1.852
  122SOL    HW2  377   0.385   0.851   1.722
  123SOL     OW  378   1.540   0.274   0.125
  123SOL    HW1  379   1.479   0.199   0.148
  123SOL    HW2  380   1.562   0.326   0.208
  124SOL     OW  381   1.303   0.838   0.042
  124SOL    HW1  382   1.337   0.745   0.057
  124SOL    HW2  383   1.321   0.865  -0.053
  125SOL     OW  384   1.068   1.333   0.849
  125SOL    HW1  385   1.075   1.249   0.794
  125SOL    HW2  386   1.130   1.402   0.813
  126SOL     OW  387   0.319   0.810   0.949
  126SOL    HW1  388   0.412   0.846   0.954
  126SOL    HW2  389   0.313   0.725   1.001
  127SOL     OW  390   0.339   0.509   1.006
  127SOL    HW1  391   0.287   0.426   0.989
  127SOL    HW2  392   0.416   0.514   0.942
  128SOL     OW  393   1.138   0.380   1.678
  128SOL    HW1  394   1.093   0.443   1.742
  128SOL    HW2  395   1.231   0.411   1.661
  129SOL     OW  396   1.160   0.207   1.477
  129SOL    HW1  397   1.160   0.271   1.554
  129SOL    HW2  398   1.188   0.255   1.394
  130SOL     OW  399   0.008   1.326   0.200
  130SOL    HW1  400  -0.085   1.347   0.169
  130SOL    HW2  401   0.018   1.227   0.213
  131SOL     OW  402   0.088   1.801   0.927
  131SOL    HW1  403   0.046   1.715   0.900
  131SOL    HW2  404   0.182   1.804   0.893
  132SOL     OW  405   0.504   1.568   0.910
  132SOL    HW1  406   0.570   1.642   0.919
  132SOL    HW2  407   0.548   1.489   0.868
  133SOL     OW  408   1.002   0.796   1.238
  133SOL    HW1  409   1.043   0.764   1.324
  133SOL    HW2  410   0.906   0.769   1.235
  134SOL     OW  411   0.040   0.544   1.114
  134SOL    HW1  412   0.125   0.511   1.073
  134SOL    HW2  413   0.053   0.559   1.212
  135SOL     OW  414   0.189   0.520   1.722
  135SOL    HW1  415   0.248   0.480   1.652
  135SOL    HW2  416   0.131   0.591   1.681
  136SOL     OW  417   1.369   0.950   1.660
  136SOL    HW1  418   1.408   1.039   1.680
  136SOL    HW2  419   1.379   0.930   1.563
  137SOL     OW  420   0.815   0.572   0.325
  137SOL    HW1  421   0.822   0.483   0.279
  137SOL    HW2  422   0.721   0.606   0.317
  138SOL     OW  423   1.657   0.604   1.206
  138SOL    HW1  424   1.619   0.535   1.268
  138SOL    HW2  425   1.739   0.568   1.162
  139SOL     OW  426   0.252   1.564   1.744
  139SOL    HW1  427   0.222   1.621   1.820
  139SOL    HW2  428   0.245   1.467   1.770
  140SOL     OW  429   0.671   0.464   1.269
  140SOL    HW1  430   0.637   0.375   1.239
  140SOL    HW2  431   0.697   0.518   1.189
  141SOL     OW  432   0.930   1.678   1.465
  141SOL    HW1  433   0.906   1.660   1.370
  141SOL    HW2  434   0.960   1.772   1.475
  142SOL     OW  435   0.473   0.500   0.191
  142SOL    HW1  436   0.534   0.580   0.195
  142SOL    HW2  437   0.378   0.531   0.198
  143SOL     OW  438   0.159   1.137   1.466
  143SOL    HW1  439   0.181   1.076   1.542
  143SOL    HW2  440   0.169   1.088   1.380
  144SOL     OW  441   1.302   0.855   0.309
  144SOL    HW1  442   1.216   0.824   0.351
  144SOL    HW2  443   1.298   0.841   0.210
  145SOL     OW  444   1.759   1.747   1.154
  145SOL    HW1  445   1.820   1.777   1.081
  145SOL    HW2  446   1.721   1.658   1.132
  146SOL     OW  447   1.252   1.731   1.128
  146SOL    HW1  448   1.336   1.736   1.074
  146SOL    HW2  449   1.229   1.635   1.146
  147SOL     OW  450   0.083   1.258   1.022
  147SOL    HW1  451   0.078   1.257   1.122
  147SOL    HW2  452   0.000   1.217   0.984
  148SOL     OW  453   0.688   1.662   1.716
  148SOL    HW1  454   0.632   1.743   1.725
  148SOL    HW2  455   0.740   1.666   1.630
  149SOL     OW  456   0.903   0.086   0.133
  149SOL    HW1  457   0.954   0.087   0.047
  149SOL    HW2  458   0.959   0.044   0.204
  150SOL     OW  459   1.726   0.135   0.523
  150SOL    HW1  460   1.799   0.118   0.456
  150SOL    HW2  461   1.695   0.048   0.561
  151SOL     OW  462   1.388   1.573   0.477
  151SOL    HW1  463   1.455   1.585   0.403
  151SOL    HW2  464   1.348   1.662   0.500
  152SOL     OW  465   0.130   1.794   1.851
  152SOL    HW1  466   0.089   1.720   1.904
  152SOL    HW2  467   0.194   1.845   1.909
  153SOL     OW  468   1.280   0.927   0.672
  153SOL    HW1  469   1.340   0.846   0.674
  153SOL    HW2  470   1.320   0.996   0.612
  154SOL     OW  471   0.830   1.273   1.422
  154SOL    HW1  472   0.825   1.306   1.517
  154SOL    HW2  473   0.744   1.292   1.376
  155SOL     OW  474   0.672   1.616   0.154
  155SOL    HW1  475   0.681   1.626   0.055
  155SOL    HW2  476   0.632   1.527   0.175
  156SOL     OW  477   1.650   1.720   1.394
  156SOL    HW1  478   1.703   1.730   1.310
  156SOL    HW2  479   1.623   1.810   1.428
  157SOL     OW  480   1.841   0.175   0.963
  157SOL    HW1  481   1.880   0.090   0.927
  157SOL    HW2  482   1.743   0.177   0.944
  158SOL     OW  483   0.263   0.326   0.720
  158SOL    HW1  484   0.184   0.377   0.686
  158SOL    HW2  485   0.254   0.311   0.818
  159SOL     OW  486   1.194   1.612   0.031
  159SOL    HW1  487   1.200   1.519   0.068
  159SOL    HW2  488   1.135   1.612  -0.049
  160SOL     OW  489   0.822   1.002   1.372
  160SOL    HW1  490   0.862   1.001   1.280
  160SOL    HW2  491   0.832   1.094   1.412
  161SOL     OW  492   0.916   0.910   0.291
  161SOL    HW1  493   0.979   0.948   0.223
  161SOL    HW2  494   0.956   0.827   0.330
  162SOL     OW  495   1.504   1.607   0.044
  162SOL    HW1  496   1.412   1.644   0.051
  162SOL    HW2  497   1.542   1.627  -0.046
  163SOL     OW  498   0.372   1.288   1.490
  163SOL    HW1  499   0.359   1.381   1.456
  163SOL    HW2  500   0.288   1.236   1.477
  164SOL     OW  501   1.039   1.098   0.696
  164SOL    HW1  502   0.969   1.051   0.750
  164SOL    HW2  503   1.098   1.030   0.653
  165SOL     OW  504   1.014   0.236   0.971
  165SOL    HW1  505   1.006   0.200   0.878
  165SOL    HW2  506   1.012   0.160   1.036
  166SOL     OW  507   0.590   1.487   0.491
  166SOL    HW1  508   0.632   1.429   0.421
  166SOL    HW2  509   0.546   1.566   0.447
  167SOL     OW  510   1.709   0.385   1.381
  167SOL    HW1  511   1.782   0.454   1.385
  167SOL    HW2  512   1.737   0.310   1.322
  168SOL     OW  513   0.255   1.348   0.290
  168SOL    HW1  514   0.159   1.349   0.263
  168SOL    HW2  515   0.267   1.401   0.374
  169SOL     OW  516   0.105   1.013   1.726
  169SOL    HW1  517   0.028   0.980   1.780
  169SOL    HW2  518   0.190   0.983   1.768
  170SOL     OW  519   0.672   0.203   1.489
  170SOL    HW1  520   0.762   0.187   1.449
  170SOL    HW2  521   0.680   0.208   1.588
  171SOL     OW  522   0.075   0.345   0.033
  171SOL    HW1  523  -0.017   0.317   0.004
  171SOL    HW2  524   0.106   0.422  -0.023
  172SOL     OW  525   1.440   0.856   1.398
  172SOL    HW1  526   1.383   0.908   1.335
  172SOL    HW2  527   1.536   0.868   1.374
  173SOL     OW  528   0.072   0.166   0.318
  173SOL    HW1  529   0.055   0.249   0.264
  173SOL    HW2  530   0.162   0.129   0.296
  174SOL     OW  531   1.183   1.335   0.119
  174SOL    HW1  532   1.084   1.324   0.121
  174SOL    HW2  533   1.217   1.350   0.212
  175SOL     OW  534   0.613   0.842   1.431
  175SOL    HW1  535   0.669   0.923   1.414
  175SOL    HW2  536   0.672   0.762   1.434
  176SOL     OW  537   1.493   1.767   0.959
  176SOL    HW1  538   1.526   1.831   0.890
  176SOL    HW2  539   1.559   1.761   1.034
  177SOL     OW  540   0.716   0.565   1.708
  177SOL    HW1  541   0.735   0.630   1.782
  177SOL    HW2  542   0.776   0.485   1.717
  178SOL     OW  543   0.390   1.741   1.560
  178SOL    HW1  544   0.299   1.782   1.558
  178SOL    HW2  545   0.383   1.647   1.592
  179SOL     OW  546   1.674   0.883   1.254
  179SOL    HW1  547   1.647   0.794   1.217
  179SOL    HW2  548   1.675   0.951   1.181
  180SOL     OW  549   1.225   0.325   0.449
  180SOL    HW1  550   1.290   0.251   0.438
  180SOL    HW2  551   1.245   0.375   0.533
  181SOL     OW  552   0.594   0.745   0.652
  181SOL    HW1  553   0.644   0.830   0.633
  181SOL    HW2  554   0.506   0.747   0.604
  182SOL     OW  555   1.777   0.342   1.642
  182SOL    HW1  556   1.760   0.373   1.548
  182SOL    HW2  557   1.693   0.305   1.680
  183SOL     OW  558   1.730   0.934   1.517
  183SOL    HW1  559   1.768   1.025   1.532
  183SOL    HW2  560   1.722   0.917   1.418
  184SOL     OW  561   0.859   1.374   0.016
  184SOL    HW1  562   0.813   1.389   0.104
  184SOL    HW2  563   0.903   1.459  -0.014
  185SOL     OW  564   0.661   1.790   0.953
  185SOL    HW1  565   0.615   1.878   0.940
  185SOL    HW2  566   0.760   1.802   0.946
  186SOL     OW  567   0.859   0.956   0.861
  186SOL    HW1  568   0.913   0.887   0.909
  186SOL    HW2  569   0.827   1.025   0.927
  187SOL     OW  570   1.083   0.984   0.087
  187SOL    HW1  571   1.060   1.037   0.005
  187SOL    HW2  572   1.164   0.928   0.068
  188SOL     OW  573   1.861   1.569   0.851
  188SOL    HW1  574   1.790   1.557   0.781
  188SOL    HW2  575   1.862   1.490   0.911
  189SOL     OW  576   0.221   1.314   1.844
  189SOL    HW1  577   0.156   1.241   1.823
  189SOL    HW2  578   0.225   1.328   1.942
  190SOL     OW  579   0.079   1.240   0.653
  190SOL    HW1  580   0.078   1.193   0.741
  190SOL    HW2  581   0.161   1.212   0.602
  191SOL     OW  582   0.672   1.391   1.624
  191SOL    HW1  583   0.594   1.341   1.662
  191SOL    HW2  584   0.669   1.486   1.655
  192SOL     OW  585   1.824   0.192   1.227
  192SOL    HW1  586   1.820   0.102   1.271
  192SOL    HW2  587   1.827   0.181   1.128
  193SOL     OW  588   0.428   0.424   0.520
  193SOL    HW1  589   0.458   0.352   0.458
  193SOL    HW2  590   0.389   0.384   0.603
  194SOL     OW  591   1.705   1.487   1.104
  194SOL    HW1  592   1.612   1.462   1.077
  194SOL    HW2  593   1.731   1.437   1.186
  195SOL     OW  594   0.317   0.547   1.280
  195SOL    HW1  595   0.355   0.488   1.352
  195SOL    HW2  596   0.357   0.521   1.192
  196SOL     OW  597   0.812   1.586   0.687
  196SOL    HW1  598   0.844   1.596   0.593
  196SOL    HW2  599   0.733   1.524   0.689
  197SOL     OW  600   1.424   0.214   1.112
  197SOL    HW1  601   1.476   0.149   1.167
  197SOL    HW2  602   1.375   0.277   1.173
  198SOL     OW  603   1.001   0.034   1.154
  198SOL    HW1  604   0.938  -0.038   1.123
  198SOL    HW2  605   1.094  -0.002   1.154
  199SOL     OW  606   0.770   1.330   0.301
  199SOL    HW1  607   0.724   1.243   0.318
  199SOL    HW2  608   0.861   1.327   0.342
  200SOL     OW  609   0.618   1.567   1.284
  200SOL    HW1  610   0.613   1.649   1.341
  200SOL    HW2  611   0.707   1.564   1.239
  201SOL     OW  612   1.352   0.052   0.168
  201SOL    HW1  613   1.387   0.011   0.084
  201SOL    HW2  614   1.262   0.014   0.188
  202SOL     OW  615   1.300   0.453   0.691
  202SOL    HW1  616   1.241   0.533   0.695
  202SOL    HW2  617   1.315   0.418   0.784
  203SOL     OW  618   1.593   0.221   0.882
  203SOL    HW1  619   1.509   0.220   0.936
  203SOL    HW2  620   1.595   0.304   0.826
  204SOL     OW  621   0.039   1.077   0.300
  204SOL    HW1  622   0.138   1.066   0.291
  204SOL    HW2  623  -0.001   0.991   0.332
  205SOL     OW  624   0.875   1.646   0.337
  205SOL    HW1  625   0.798   1.611   0.283
  205SOL    HW2  626   0.843   1.717   0.399
  206SOL     OW  627   0.230   0.628   1.975
  206SOL    HW1  628   0.137   0.626   2.012
  206SOL    HW2  629   0.231   0.589   1.883
  207SOL     OW  630   1.755   0.607   2.093
  207SOL    HW1  631   1.743   0.594   1.994
  207SOL    HW2  632   1.725   0.526   2.142
  208SOL     OW  633   0.231   1.713   2.345
  208SOL    HW1  634   0.265   1.790   2.399
  208SOL    HW2  635   0.275   1.713   2.255
  209SOL     OW  636   0.230   1.434   2.400
  209SOL    HW1  637   0.204   1.530   2.400
  209SOL    HW2  638   0.159   1.380   2.445
  210SOL     OW  639   0.606   0.964   1.985
  210SOL    HW1  640   0.613   1.048   1.931
  210SOL    HW2  641   0.652   0.977   2.073
  211SOL     OW  642   0.122   0.643   2.425
  211SOL    HW1  643   0.077   0.555   2.442
  211SOL    HW2  644   0.121   0.697   2.509
  212SOL     OW  645   1.842   1.767   2.221
  212SOL    HW1  646   1.896   1.738   2.301
  212SOL    HW2  647   1.872   1.857   2.192
  213SOL     OW  648   0.027   1.596   1.979
  213SOL    HW1  649   0.008   1.500   2.000
  213SOL    HW2  650  -0.006   1.654   2.054
  214SOL     OW  651   1.689   0.922   2.474
  214SOL    HW1  652   1.784   0.893   2.482
  214SOL    HW2  653   1.681   0.987   2.399
  215SOL     OW  654   1.641   1.108   2.294
  215SOL    HW1  655   1.727   1.110   2.242
  215SOL    HW2  656   1.655   1.155   2.382
  216SOL     OW  657   0.613   1.365   2.588
  216SOL    HW1  658   0.564   1.278   2.597
  216SOL    HW2  659   0.590   1.408   2.501
  217SOL     OW  660   0.809   0.004   2.364
  217SOL    HW1  661   0.849   0.095   2.355
  217SOL    HW2  662   0.709   0.012   2.370
  218SOL     OW  663   1.525   0.999   2.052
  218SOL    HW1  664   1.462   0.923   2.065
  218SOL    HW2  665   1.573   1.017   2.138
  219SOL     OW  666   1.466   1.417   2.815
  219SOL    HW1  667   1.407   1.423   2.895
  219SOL    HW2  668   1.451   1.329   2.769
  220SOL     OW  669   0.598   0.729   2.132
  220SOL    HW1  670   0.622   0.798   2.064
  220SOL    HW2  671   0.520   0.762   2.186
  221SOL     OW  672   1.576   1.662   2.169
  221SOL    HW1  673   1.665   1.708   2.172
  221SOL    HW2  674   1.555   1.638   2.074
  222SOL     OW  675   1.041   0.701   2.291
  222SOL    HW1  676   1.067   0.697   2.387
  222SOL    HW2  677   0.956   0.650   2.277
  223SOL     OW  678   0.076   0.811   2.651
  223SOL    HW1  679   0.175   0.799   2.660
  223SOL    HW2  680   0.052   0.906   2.672
  224SOL     OW  681   0.865   0.348   2.057
  224SOL    HW1  682   0.924   0.411   2.008
  224SOL    HW2  683   0.884   0.254   2.028
  225SOL     OW  684   1.362   1.144   2.407
  225SOL    HW1  685   1.445   1.115   2.359
  225SOL    HW2  686   1.313   1.211   2.351
  226SOL     OW  687   1.008   1.456   2.339
  226SOL    HW1  688   0.962   1.528   2.287
  226SOL    HW2  689   1.004   1.476   2.437
  227SOL     OW  690   0.351   1.801   2.715
  227SOL    HW1  691   0.401   1.715   2.721
  227SOL    HW2  692   0.416   1.878   2.712
  228SOL     OW  693   1.795   1.066   2.735
  228SOL    HW1  694   1.733   1.051   2.659
  228SOL    HW2  695   1.743   1.077   2.820
  229SOL     OW  696   0.321   0.943   2.104
  229SOL    HW1  697   0.403   0.982   2.062
  229SOL    HW2  698   0.294   0.861   2.055
  230SOL     OW  699   1.111   1.776   2.099
  230SOL    HW1  700   1.051   1.714   2.149
  230SOL    HW2  701   1.142   1.732   2.014
  231SOL     OW  702   1.632   1.377   1.943
  231SOL    HW1  703   1.600   1.471   1.933
  231SOL    HW2  704   1.556   1.314   1.931
  232SOL     OW  705   0.464   1.743   2.185
  232SOL    HW1  706   0.497   1.782   2.271
  232SOL    HW2  707   0.540   1.736   2.120
  233SOL     OW  708   1.400   0.107   2.288
  233SOL    HW1  709   1.376   0.070   2.198
  233SOL    HW2  710   1.499   0.123   2.292
  234SOL     OW  711   0.382   0.700   2.342
  234SOL    HW1  712   0.427   0.610   2.339
  234SOL    HW2  713   0.288   0.689   2.375
  235SOL     OW  714   0.614   0.122   1.979
  235SOL    HW1  715   0.712   0.100   1.986
  235SOL    HW2  716   0.583   0.105   1.886
  236SOL     OW  717   0.539   0.064   2.374
  236SOL    HW1  718   0.458   0.065   2.432
  236SOL    HW2  719   0.542   0.147   2.319
  237SOL     OW  720   1.434   1.188   1.903
  237SOL    HW1  721   1.466   1.112   1.960
  237SOL    HW2  722   1.342   1.215   1.933
  238SOL     OW  723   0.297   0.035   2.033
  238SOL    HW1  724   0.346   0.119   2.012
  238SOL    HW2  725   0.359  -0.030   2.078
  239SOL     OW  726   0.935   0.236   2.342
  239SOL    HW1  727   0.887   0.277   2.264
  239SOL    HW2  728   1.034   0.234   2.323
  240SOL     OW  729   0.459   1.152   2.603
  240SOL    HW1  730   0.388   1.125   2.668
  240SOL    HW2  731   0.433   1.124   2.510
  241SOL     OW  732   1.271   1.797   2.453
  241SOL    HW1  733   1.315   1.861   2.389
  241SOL    HW2  734   1.221   1.849   2.523
  242SOL     OW  735   1.032   0.549   1.878
  242SOL    HW1  736   0.991   0.631   1.839
  242SOL    HW2  737   1.096   0.575   1.951
  243SOL     OW  738   0.866   0.454   2.504
  243SOL    HW1  739   0.834   0.526   2.442
  243SOL    HW2  740   0.890   0.373   2.451
  244SOL     OW  741   1.857   0.833   2.239
  244SOL    HW1  742   1.899   0.769   2.303
  244SOL    HW2  743   1.819   0.782   2.161
  245SOL     OW  744   0.488   1.385   2.036
  245SOL    HW1  745   0.401   1.370   2.083
  245SOL    HW2  746   0.471   1.411   1.941
  246SOL     OW  747   1.390   0.575   1.940
  246SOL    HW1  748   1.336   0.554   2.021
  246SOL    HW2  749   1.481   0.534   1.949
  247SOL     OW  750   0.527   0.256   2.190
  247SOL    HW1  751   0.554   0.197   2.115
  247SOL    HW2  752   0.527   0.351   2.159
  248SOL     OW  753   0.705   1.050   2.230
  248SOL    HW1  754   0.691   1.057   2.329
  248SOL    HW2  755   0.789   0.999   2.212
  249SOL     OW  756   0.367   1.100   2.363
  249SOL    HW1  757   0.360   1.183   2.307
  249SOL    HW2  758   0.371   1.020   2.303
  250SOL     OW  759   1.252   1.348   2.250
  250SOL    HW1  760   1.302   1.425   2.290
  250SOL    HW2  761   1.157   1.350   2.282
  251SOL     OW  762   1.582   0.639   2.334
  251SOL    HW1  763   1.551   0.700   2.407
  251SOL    HW2  764   1.632   0.691   2.265
  252SOL     OW  765   1.209   0.525   2.137
  252SOL    HW1  766   1.222   0.441   2.191
  252SOL    HW2  767   1.180   0.599   2.197
  253SOL     OW  768   0.307   0.063   2.480
  253SOL    HW1  769   0.296   0.157   2.513
  253SOL    HW2  770   0.302   0.000   2.557
  254SOL     OW  771   1.622   0.367   2.236
  254SOL    HW1  772   1.624   0.291   2.300
  254SOL    HW2  773   1.574   0.444   2.276
  255SOL     OW  774   1.540   0.274   1.987
  255SOL    HW1  775   1.479   0.199   2.010
  255SOL    HW2  776   1.562   0.326   2.070
  256SOL     OW  777   1.303   0.838   1.904
  256SOL    HW1  778   1.337   0.745   1.919
  256SOL    HW2  779   1.321   0.865   1.809
  257SOL     OW  780   0.008   1.326   2.062
  257SOL    HW1  781  -0.085   1.347   2.031
  257SOL    HW2  782   0.018   1.227   2.075
  258SOL     OW  783   0.815   0.572   2.187
  258SOL    HW1  784   0.822   0.483   2.141
  258SOL    HW2  785   0.721   0.606   2.179
  259SOL     OW  786   0.473   0.500   2.053
  259SOL    HW1  787   0.534   0.580   2.057
  259SOL    HW2  788   0.378   0.531   2.060
  260SOL     OW  789   1.302   0.855   2.171
  260SOL    HW1  790   1.216   0.824   2.213
  260SOL    HW2  791   1.298   0.841   2.072
  261SOL     OW  792   1.726   0.135   2.385
  261SOL    HW1  793   1.799   0.118   2.318
  261SOL    HW2  794   1.695   0.048   2.423
  262SOL     OW  795   1.388   1.573   2.339
  262SOL    HW1  796   1.455   1.585   2.265
  262SOL    HW2  797   1.348   1.662   2.362
  263SOL     OW  798   0.672   1.616   2.016
  263SOL    HW1  799   0.681   1.626   1.917
  263SOL    HW2  800   0.632   1.527   2.037
  264SOL     OW  801   1.841   0.175   2.825
  264SOL    HW1  802   1.880   0.090   2.789
  264SOL    HW2  803   1.743   0.177   2.806
  265SOL     OW  804   1.194   1.612   1.893
  265SOL    HW1  805   1.200   1.519   1.930
  265SOL    HW2  806   1.135   1.612   1.813
  266SOL     OW  807   0.916   0.910   2.153
  266SOL    HW1  808   0.979   0.948   2.085
  266SOL    HW2  809   0.956   0.827   2.192
  267SOL     OW  810   1.504   1.607   1.906
  267SOL    HW1  811   1.412   1.644   1.913
  267SOL    HW2  812   1.542   1.627   1.816
  268SOL     OW  813   0.590   1.487   2.353
  268SOL    HW1  814   0.632   1.429   2.283
  268SOL    HW2  815   0.546   1.566   2.309
  269SOL     OW  816   0.255   1.348   2.152
  269SOL    HW1  817   0.159   1.349   2.125
  269SOL    HW2  818   0.267   1.401   2.236
  270SOL     OW  819   0.075   0.345   1.895
  270SOL    HW1  820  -0.017   0.317   1.866
  270SOL    HW2  821   0.106   0.422   1.839
  271SOL     OW  822   0.072   0.166   2.180
  271SOL    HW1  823   0.055   0.249   2.126
  271SOL    HW2  824   0.162   0.129   2.158
  272SOL     OW  825   1.183   1.335   1.981
  272SOL    HW1  826   1.084   1.324   1.983
  272SOL    HW2  827   1.217   1.350   2.074
  273SOL     OW  828   1.225   0.325   2.311
  273SOL    HW1  829   1.290   0.251   2.300
  273SOL    HW2  830   1.245   0.375   2.395
  274SOL     OW  831   0.594   0.745   2.514
  274SOL    HW1  832   0.644   0.830   2.495
  274SOL    HW2  833   0.506   0.747   2.466
  275SOL     OW  834   0.859   1.374   1.878
  275SOL    HW1  835   0.813   1.389   1.966
  275SOL    HW2  836   0.903   1.459   1.848
  276SOL     OW  837   1.083   0.984   1.949
  276SOL    HW1  838   1.060   1.037   1.867
  276SOL    HW2  839   1.164   0.928   1.930
  277SOL     OW  840   0.079   1.240   2.515
  277SOL    HW1  841   0.078   1.193   2.603
  277SOL    HW2  842   0.161   1.212   2.464
  278SOL     OW  843   0.428   0.424   2.382
  278SOL    HW1  844   0.458   0.352   2.320
  278SOL    HW2  845   0.389   0.384   2.465
  279SOL     OW  846   0.812   1.586   2.549
  279SOL    HW1  847   0.844   1.596   2.455
  279SOL    HW2  848   0.733   1.524   2.551
  280SOL     OW  849   0.770   1.330   2.163
  280SOL    HW1  850   0.724   1.243   2.180
  280SOL    HW2  851   0.861   1.327   2.204
  281SOL     OW  852   1.352   0.052   2.030
  281SOL    HW1  853   1.387   0.011   1.946
  281SOL    HW2  854   1.262   0.014   2.050
  282SOL     OW  855   1.300   0.453   2.553
  282SOL    HW1  856   1.241   0.533   2.557
  282SOL    HW2  857   1.315   0.418   2.646
  283SOL     OW  858   0.039   1.077   2.162
  283SOL    HW1  859   0.138   1.066   2.153
  283SOL    HW2  860  -0.001   0.991   2.194
  284SOL     OW  861   0.875   1.646   2.199
  284SOL    HW1  862   0.798   1.611   2.145
  284SOL    HW2  863   0.843   1.717   2.261
  285SOL     OW  864   0.225   2.137   0.996
  285SOL    HW1  865   0.260   2.120   1.088
  285SOL    HW2  866   0.137   2.092   0.984
  286SOL     OW  867   0.019   2.230   0.647
  286SOL    HW1  868  -0.063   2.273   0.686
  286SOL    HW2  869  -0.009   2.157   0.584
  287SOL     OW  870   1.755   2.469   0.231
  287SOL    HW1  871   1.743   2.456   0.132
  287SOL    HW2  872   1.725   2.388   0.280
  288SOL     OW  873   0.438   2.254   1.499
  288SOL    HW1  874   0.520   2.198   1.508
  288SOL    HW2  875   0.357   2.196   1.503
  289SOL     OW  876   1.603   2.309   0.737
  289SOL    HW1  877   1.529   2.355   0.687
  289SOL    HW2  878   1.654   2.377   0.790
  290SOL     OW  879   1.594   1.976   1.480
  290SOL    HW1  880   1.576   2.043   1.408
  290SOL    HW2  881   1.591   2.022   1.569
  291SOL     OW  882   0.122   2.505   0.563
  291SOL    HW1  883   0.077   2.417   0.580
  291SOL    HW2  884   0.121   2.559   0.647
  292SOL     OW  885   0.113   2.599   1.597
  292SOL    HW1  886   0.201   2.586   1.642
  292SOL    HW2  887   0.100   2.696   1.575
  293SOL     OW  888   0.809   1.866   0.502
  293SOL    HW1  889   0.849   1.957   0.493
  293SOL    HW2  890   0.709   1.874   0.508
  294SOL     OW  891   0.317   2.113   1.801
  294SOL    HW1  892   0.388   2.184   1.807
  294SOL    HW2  893   0.229   2.152   1.829
  295SOL     OW  894   1.281   2.207   0.944
  295SOL    HW1  895   1.195   2.157   0.931
  295SOL    HW2  896   1.343   2.153   1.000
  296SOL     OW  897   0.807   2.467   1.465
  296SOL    HW1  898   0.760   2.464   1.554
  296SOL    HW2  899   0.756   2.412   1.399
  297SOL     OW  900   1.394   2.331   1.674
  297SOL    HW1  901   1.374   2.374   1.762
  297SOL    HW2  902   1.472   2.269   1.683
  298SOL     OW  903   0.991   2.272   1.242
  298SOL    HW1  904   0.914   2.306   1.296
  298SOL    HW2  905   0.957   2.221   1.163
  299SOL     OW  906   1.041   2.563   0.429
  299SOL    HW1  907   1.067   2.559   0.525
  299SOL    HW2  908   0.956   2.512   0.415
  300SOL     OW  909   0.076   2.673   0.789
  300SOL    HW1  910   0.175   2.661   0.798
  300SOL    HW2  911   0.052   2.768   0.810
  301SOL     OW  912   0.865   2.210   0.195
  301SOL    HW1  913   0.924   2.273   0.146
  301SOL    HW2  914   0.884   2.116   0.166
  302SOL     OW  915   1.719   2.447   1.831
  302SOL    HW1  916   1.693   2.536   1.795
  302SOL    HW2  917   1.717   2.379   1.758
  303SOL     OW  918   0.550   2.058   0.885
  303SOL    HW1  919   0.545   2.053   0.985
  303SOL    HW2  920   0.552   2.154   0.856
  304SOL     OW  921   1.458   2.597   0.728
  304SOL    HW1  922   1.453   2.532   0.803
  304SOL    HW2  923   1.538   2.656   0.741
  305SOL     OW  924   0.202   2.147   1.498
  305SOL    HW1  925   0.122   2.207   1.485
  305SOL    HW2  926   0.192   2.098   1.584
  306SOL     OW  927   1.400   1.969   0.426
  306SOL    HW1  928   1.376   1.932   0.336
  306SOL    HW2  929   1.499   1.985   0.430
  307SOL     OW  930   1.547   2.084   1.729
  307SOL    HW1  931   1.542   2.121   1.821
  307SOL    HW2  932   1.475   2.015   1.717
  308SOL     OW  933   0.614   1.984   0.117
  308SOL    HW1  934   0.712   1.962   0.124
  308SOL    HW2  935   0.583   1.967   0.024
  309SOL     OW  936   0.781   2.126   1.749
  309SOL    HW1  937   0.848   2.065   1.792
  309SOL    HW2  938   0.708   2.145   1.814
  310SOL     OW  939   1.351   2.452   1.433
  310SOL    HW1  940   1.379   2.409   1.518
  310SOL    HW2  941   1.376   2.548   1.434
  311SOL     OW  942   0.922   2.365   0.899
  311SOL    HW1  943   0.897   2.356   0.803
  311SOL    HW2  944   0.970   2.283   0.930
  312SOL     OW  945   0.539   1.926   0.512
  312SOL    HW1  946   0.458   1.927   0.570
  312SOL    HW2  947   0.542   2.009   0.457
  313SOL     OW  948   0.935   2.098   0.480
  313SOL    HW1  949   0.887   2.139   0.402
  313SOL    HW2  950   1.034   2.096   0.461
  314SOL     OW  951   1.076   2.545   1.464
  314SOL    HW1  952   0.996   2.484   1.467
  314SOL    HW2  953   1.157   2.492   1.440
  315SOL     OW  954   1.032   2.411   0.016
  315SOL    HW1  955   0.991   2.493  -0.023
  315SOL    HW2  956   1.096   2.437   0.089
  316SOL     OW  957   0.078   2.418   1.386
  316SOL    HW1  958   0.170   2.417   1.345
  316SOL    HW2  959   0.072   2.492   1.453
  317SOL     OW  960   0.561   2.084   1.147
  317SOL    HW1  961   0.599   2.000   1.184
  317SOL    HW2  962   0.473   2.103   1.191
  318SOL     OW  963   0.866   2.316   0.642
  318SOL    HW1  964   0.834   2.388   0.580
  318SOL    HW2  965   0.890   2.235   0.589
  319SOL     OW  966   1.017   1.901   0.753
  319SOL    HW1  967   0.945   1.906   0.684
  319SOL    HW2  968   0.993   1.832   0.822
  320SOL     OW  969   1.466   2.452   0.992
  320SOL    HW1  970   1.436   2.357   0.999
  320SOL    HW2  971   1.539   2.468   1.058
  321SOL     OW  972   0.527   2.118   0.328
  321SOL    HW1  973   0.554   2.059   0.253
  321SOL    HW2  974   0.527   2.213   0.297
  322SOL     OW  975   0.915   1.951   1.402
  322SOL    HW1  976   0.940   1.931   1.307
  322SOL    HW2  977   0.987   2.007   1.444
  323SOL     OW  978   1.274   2.248   1.262
  323SOL    HW1  979   1.295   2.322   1.326
  323SOL    HW2  980   1.185   2.265   1.219
  324SOL     OW  981   0.566   2.399   0.865
  324SOL    HW1  982   0.578   2.465   0.791
  324SOL    HW2  983   0.612   2.433   0.948
  325SOL     OW  984   1.582   2.501   0.472
  325SOL    HW1  985   1.551   2.562   0.545
  325SOL    HW2  986   1.632   2.553   0.403
  326SOL     OW  987   1.013   1.967   1.770
  326SOL    HW1  988   1.019   2.052   1.718
  326SOL    HW2  989   1.045   1.891   1.713
  327SOL     OW  990   0.504   1.912   1.740
  327SOL    HW1  991   0.462   1.855   1.670
  327SOL    HW2  992   0.438   1.981   1.772
  328SOL     OW  993   1.209   2.387   0.275
  328SOL    HW1  994   1.222   2.303   0.329
  328SOL    HW2  995   1.180   2.461   0.335
  329SOL     OW  996   0.307   2.075   1.231
  329SOL    HW1  997   0.284   2.112   1.321
  329SOL    HW2  998   0.277   1.980   1.225
  330SOL     OW  999   0.732   2.496   1.064
  330SOL    HW1 1000   0.791   2.470   0.988
  330SOL    HW2 1001   0.704   2.592   1.053
  331SOL     OW 1002   0.307   1.925   0.618
  331SOL    HW1 1003   0.296   2.019   0.651
  331SOL    HW2 1004   0.302   1.862   0.695
  332SOL     OW 1005   1.622   2.229   0.374
  332SOL    HW1 1006   1.624   2.153   0.438
  332SOL    HW2 1007   1.574   2.306   0.414
  333SOL     OW 1008   1.540   2.136   0.125
  333SOL    HW1 1009   1.479   2.061   0.148
  333SOL    HW2 1010   1.562   2.188   0.208
  334SOL     OW 1011   0.319   2.672   0.949
  334SOL    HW1 1012   0.412   2.708   0.954
  334SOL    HW2 1013   0.313   2.587   1.001
  335SOL     OW 1014   0.339   2.371   1.006
  335SOL    HW1 1015   0.287   2.288   0.989
  335SOL    HW2 1016   0.416   2.376   0.942
  336SOL     OW 1017   1.138   2.242   1.678
  336SOL    HW1 1018   1.093   2.305   1.742
  336SOL    HW2 1019   1.231   2.273   1.661
  337SOL     OW 1020   1.160   2.069   1.477
  337SOL    HW1 1021   1.160   2.133   1.554
  337SOL    HW2 1022   1.188   2.117   1.394
  338SOL     OW 1023   0.040   2.406   1.114
  338SOL    HW1 1024   0.125   2.373   1.073
  338SOL    HW2 1025   0.053   2.421   1.212
  339SOL     OW 1026   0.189   2.382   1.722
  339SOL    HW1 1027   0.248   2.342   1.652
  339SOL    HW2 1028   0.131   2.453   1.681
  340SOL     OW 1029   0.815   2.434   0.325
  340SOL    HW1 1030   0.822   2.345   0.279
  340SOL    HW2 1031   0.721   2.468   0.317
  341SOL     OW 1032   1.657   2.466   1.206
  341SOL    HW1 1033   1.619   2.397   1.268
  341SOL    HW2 1034   1.739   2.430   1.162
  342SOL     OW 1035   0.671   2.326   1.269
  342SOL    HW1 1036   0.637   2.237   1.239
  342SOL    HW2 1037   0.697   2.380   1.189
  343SOL     OW 1038   0.473   2.362   0.191
  343SOL    HW1 1039   0.534   2.442   0.195
  343SOL    HW2 1040   0.378   2.393   0.198
  344SOL     OW 1041   0.903   1.948   0.133
  344SOL    HW1 1042   0.954   1.949   0.047
  344SOL    HW2 1043   0.959   1.906   0.204
  345SOL     OW 1044   1.726   1.997   0.523
  345SOL    HW1 1045   1.799   1.980   0.456
  345SOL    HW2 1046   1.695   1.910   0.561
  346SOL     OW 1047   1.280   2.789   0.672
  346SOL    HW1 1048   1.340   2.708   0.674
  346SOL    HW2 1049   1.320   2.858   0.612
  347SOL     OW 1050   1.841   2.037   0.963
  347SOL    HW1 1051   1.880   1.952   0.927
  347SOL    HW2 1052   1.743   2.039   0.944
  348SOL     OW 1053   0.263   2.188   0.720
  348SOL    HW1 1054   0.184   2.239   0.686
  348SOL    HW2 1055   0.254   2.173   0.818
  349SOL     OW 1056   1.014   2.098   0.971
  349SOL    HW1 1057   1.006   2.062   0.878
  349SOL    HW2 1058   1.012   2.022   1.036
  350SOL     OW 1059   1.709   2.247   1.381
  350SOL    HW1 1060   1.782   2.316   1.385
  350SOL    HW2 1061   1.737   2.172   1.322
  351SOL     OW 1062   0.672   2.065   1.489
  351SOL    HW1 1063   0.762   2.049   1.449
  351SOL    HW2 1064   0.680   2.070   1.588
  352SOL     OW 1065   0.075   2.207   0.033
  352SOL    HW1 1066  -0.017   2.179   0.004
  352SOL    HW2 1067   0.106   2.284  -0.023
  353SOL     OW 1068   0.072   2.028   0.318
  353SOL    HW1 1069   0.055   2.111   0.264
  353SOL    HW2 1070   0.162   1.991   0.296
  354SOL     OW 1071   0.716   2.427   1.708
  354SOL    HW1 1072   0.735   2.492   1.782
  354SOL    HW2 1073   0.776   2.347   1.717
  355SOL     OW 1074   1.225   2.187   0.449
  355SOL    HW1 1075   1.290   2.113   0.438
  355SOL    HW2 1076   1.245   2.237   0.533
  356SOL     OW 1077   1.777   2.204   1.642
  356SOL    HW1 1078   1.760   2.235   1.548
  356SOL    HW2 1079   1.693   2.167   1.680
  357SOL     OW 1080   1.083   2.846   0.087
  357SOL    HW1 1081   1.060   2.899   0.005
  357SOL    HW2 1082   1.164   2.790   0.068
  358SOL     OW 1083   1.824   2.054   1.227
  358SOL    HW1 1084   1.820   1.964   1.271
  358SOL    HW2 1085   1.827   2.043   1.128
  359SOL     OW 1086   0.428   2.286   0.520
  359SOL    HW1 1087   0.458   2.214   0.458
  359SOL    HW2 1088   0.389   2.246   0.603
  360SOL     OW 1089   0.317   2.409   1.280
  360SOL    HW1 1090   0.355   2.350   1.352
  360SOL    HW2 1091   0.357   2.383   1.192
  361SOL     OW 1092   1.424   2.076   1.112
  361SOL    HW1 1093   1.476   2.011   1.167
  361SOL    HW2 1094   1.375   2.139   1.173
  362SOL     OW 1095   1.001   1.896   1.154
  362SOL    HW1 1096   0.938   1.824   1.123
  362SOL    HW2 1097   1.094   1.860   1.154
  363SOL     OW 1098   1.352   1.914   0.168
  363SOL    HW1 1099   1.387   1.873   0.084
  363SOL    HW2 1100   1.262   1.876   0.188
  364SOL     OW 1101   1.300   2.315   0.691
  364SOL    HW1 1102   1.241   2.395   0.695
  364SOL    HW2 1103   1.315   2.280   0.784
  365SOL     OW 1104   1.593   2.083   0.882
  365SOL    HW1 1105   1.509   2.082   0.936
  365SOL    HW2 1106   1.595   2.166   0.826
  366SOL     OW 1107   1.135   2.565   2.579
  366SOL    HW1 1108   1.192   2.643   2.554
  366SOL    HW2 1109   1.075   2.591   2.655
  367SOL     OW 1110   1.755   2.469   2.093
  367SOL    HW1 1111   1.743   2.456   1.994
  367SOL    HW2 1112   1.725   2.388   2.142
  368SOL     OW 1113   0.122   2.505   2.425
  368SOL    HW1 1114   0.077   2.417   2.442
  368SOL    HW2 1115   0.121   2.559   2.509
  369SOL     OW 1116   0.809   1.866   2.364
  369SOL    HW1 1117   0.849   1.957   2.355
  369SOL    HW2 1118   0.709   1.874   2.370
  370SOL     OW 1119   1.041   2.563   2.291
  370SOL    HW1 1120   1.067   2.559   2.387
  370SOL    HW2 1121   0.956   2.512   2.277
  371SOL     OW 1122   0.076   2.673   2.651
  371SOL    HW1 1123   0.175   2.661   2.660
  371SOL    HW2 1124   0.052   2.768   2.672
  372SOL     OW 1125   0.865   2.210   2.057
  372SOL    HW1 1126   0.924   2.273   2.008
  372SOL    HW2 1127   0.884   2.116   2.028
  373SOL     OW 1128   1.400   1.969   2.288
  373SOL    HW1 1129   1.376   1.932   2.198
  373SOL    HW2 1130   1.499   1.985   2.292
  374SOL     OW 1131   0.614   1.984   1.979
  374SOL    HW1 1132   0.712   1.962   1.986
  374SOL    HW2 1133   0.583   1.967   1.886
  375SOL     OW 1134   0.539   1.926   2.374
  375SOL    HW1 1135   0.458   1.927   2.432
  375SOL    HW2 1136   0.542   2.009   2.319
  376SOL     OW 1137   0.297   1.897   2.033
  376SOL    HW1 1138   0.346   1.981   2.012
  376SOL    HW2 1139   0.359   1.832   2.078
  377SOL     OW 1140   0.935   2.098   2.342
  377SOL    HW1 1141   0.887   2.139   2.264
  377SOL    HW2 1142   1.034   2.096   2.323
  378SOL     OW 1143   1.032   2.411   1.878
  378SOL    HW1 1144   0.991   2.493   1.839
  378SOL    HW2 1145   1.096   2.437   1.951
  379SOL     OW 1146   0.866   2.316   2.504
  379SOL    HW1 1147   0.834   2.388   2.442
  379SOL    HW2 1148   0.890   2.235   2.451
  380SOL     OW 1149   0.527   2.118   2.190
  380SOL    HW1 1150   0.554   2.059   2.115
  380SOL    HW2 1151   0.527   2.213   2.159
  381SOL     OW 1152   1.582   2.501   2.334
  381SOL    HW1 1153   1.551   2.562   2.407
  381SOL    HW2 1154   1.632   2.553   2.265
  382SOL     OW 1155   1.209   2.387   2.137
  382SOL    HW1 1156   1.222   2.303   2.191
  382SOL    HW2 1157   1.180   2.461   2.197
  383SOL     OW 1158   0.307   1.925   2.480
  383SOL    HW1 1159   0.296   2.019   2.513
  383SOL    HW2 1160   0.302   1.862   2.557
  384SOL     OW 1161   1.622   2.229   2.236
  384SOL    HW1 1162   1.624   2.153   2.300
  384SOL    HW2 1163   1.574   2.306   2.276
  385SOL     OW 1164   1.540   2.136   1.987
  385SOL    HW1 1165   1.479   2.061   2.010
  385SOL    HW2 1166   1.562   2.188   2.070
  386SOL     OW 1167   0.815   2.434   2.187
  386SOL    HW1 1168   0.822   2.345   2.141
  386SOL    HW2 1169   0.721   2.468   2.179
  387SOL     OW 1170   0.473   2.362   2.053
  387SOL    HW1 1171   0.534   2.442   2.057
  387SOL    HW2 1172   0.378   2.393   2.060
  388SOL     OW 1173   1.726   1.997   2.385
  388SOL    HW1 1174   1.799   1.980   2.318
  388SOL    HW2 1175   1.695   1.910   2.423
  389SOL     OW 1176   1.280   2.789   2.534
  389SOL    HW1 1177   1.340   2.708   2.536
  389SOL    HW2 1178   1.320   2.858   2.474
  390SOL     OW 1179   1.841   2.037   2.825
  390SOL    HW1 1180   1.880   1.952   2.789
  390SOL    HW2 1181   1.743   2.039   2.806
  391SOL     OW 1182   0.075   2.207   1.895
  391SOL    HW1 1183  -0.017   2.179   1.866
  391SOL    HW2 1184   0.106   2.284   1.839
  392SOL     OW 1185   0.072   2.028   2.180
  392SOL    HW1 1186   0.055   2.111   2.126
  392SOL    HW2 1187   0.162   1.991   2.158
  393SOL     OW 1188   1.225   2.187   2.311
  393SOL    HW1 1189   1.290   2.113   2.300
  393SOL    HW2 1190   1.245   2.237   2.395
  394SOL     OW 1191   1.083   2.846   1.949
  394SOL    HW1 1192   1.060   2.899   1.867
  394SOL    HW2 1193   1.164   2.790   1.930
  395SOL     OW 1194   0.428   2.286   2.382
  395SOL    HW1 1195   0.458   2.214   2.320
  395SOL    HW2 1196   0.389   2.246   2.465
  396SOL     OW 1197   1.352   1.914   2.030
  396SOL    HW1 1198   1.387   1.873   1.946
  396SOL    HW2 1199   1.262   1.876   2.050
  397SOL     OW 1200   1.300   2.315   2.553
  397SOL    HW1 1201   1.241   2.395   2.557
  397SOL    HW2 1202   1.315   2.280   2.646
  398SOL     OW 1203   2.092   0.628   0.113
  398SOL    HW1 1204   1.999   0.626   0.150
  398SOL    HW2 1205   2.093   0.589   0.021
  399SOL     OW 1206   2.087   0.275   0.996
  399SOL    HW1 1207   2.122   0.258   1.088
  399SOL    HW2 1208   1.999   0.230   0.984
  400SOL     OW 1209   1.881   0.368   0.647
  400SOL    HW1 1210   1.799   0.411   0.686
  400SOL    HW2 1211   1.853   0.295   0.584
  401SOL     OW 1212   2.431   1.275   1.165
  401SOL    HW1 1213   2.338   1.268   1.128
  401SOL    HW2 1214   2.442   1.364   1.209
  402SOL     OW 1215   2.712   0.798   1.823
  402SOL    HW1 1216   2.708   0.874   1.888
  402SOL    HW2 1217   2.734   0.834   1.732
  403SOL     OW 1218   2.197   1.435   1.061
  403SOL    HW1 1219   2.119   1.404   1.008
  403SOL    HW2 1220   2.255   1.493   1.004
  404SOL     OW 1221   2.300   0.392   1.499
  404SOL    HW1 1222   2.382   0.336   1.508
  404SOL    HW2 1223   2.219   0.334   1.503
  405SOL     OW 1224   2.093   1.713   0.483
  405SOL    HW1 1225   2.127   1.790   0.537
  405SOL    HW2 1226   2.137   1.713   0.393
  406SOL     OW 1227   2.092   1.434   0.538
  406SOL    HW1 1228   2.066   1.530   0.538
  406SOL    HW2 1229   2.021   1.380   0.583
  407SOL     OW 1230   2.102   1.091   0.886
  407SOL    HW1 1231   2.116   1.007   0.938
  407SOL    HW2 1232   2.047   1.155   0.941
  408SOL     OW 1233   2.468   0.964   0.123
  408SOL    HW1 1234   2.475   1.048   0.069
  408SOL    HW2 1235   2.514   0.977   0.211
  409SOL     OW 1236   1.984   0.643   0.563
  409SOL    HW1 1237   1.939   0.555   0.580
  409SOL    HW2 1238   1.983   0.697   0.647
  410SOL     OW 1239   1.889   1.596   0.117
  410SOL    HW1 1240   1.870   1.500   0.138
  410SOL    HW2 1241   1.856   1.654   0.192
  411SOL     OW 1242   1.975   0.737   1.597
  411SOL    HW1 1243   2.063   0.724   1.642
  411SOL    HW2 1244   1.962   0.834   1.575
  412SOL     OW 1245   2.475   1.365   0.726
  412SOL    HW1 1246   2.426   1.278   0.735
  412SOL    HW2 1247   2.452   1.408   0.639
  413SOL     OW 1248   2.059   0.976   1.264
  413SOL    HW1 1249   2.148   0.931   1.250
  413SOL    HW2 1250   1.986   0.911   1.245
  414SOL     OW 1251   2.179   0.251   1.801
  414SOL    HW1 1252   2.250   0.322   1.807
  414SOL    HW2 1253   2.091   0.290   1.829
  415SOL     OW 1254   2.460   0.729   0.270
  415SOL    HW1 1255   2.484   0.798   0.202
  415SOL    HW2 1256   2.382   0.762   0.324
  416SOL     OW 1257   1.938   0.811   0.789
  416SOL    HW1 1258   2.037   0.799   0.798
  416SOL    HW2 1259   1.914   0.906   0.810
  417SOL     OW 1260   1.992   1.821   1.571
  417SOL    HW1 1261   1.982   1.806   1.670
  417SOL    HW2 1262   1.906   1.857   1.535
  418SOL     OW 1263   2.412   0.196   0.885
  418SOL    HW1 1264   2.407   0.191   0.985
  418SOL    HW2 1265   2.414   0.292   0.856
  419SOL     OW 1266   2.213   1.801   0.853
  419SOL    HW1 1267   2.263   1.715   0.859
  419SOL    HW2 1268   2.278   1.878   0.850
  420SOL     OW 1269   2.183   0.943   0.242
  420SOL    HW1 1270   2.265   0.982   0.200
  420SOL    HW2 1271   2.156   0.861   0.193
  421SOL     OW 1272   2.323   1.266   1.727
  421SOL    HW1 1273   2.273   1.267   1.641
  421SOL    HW2 1274   2.260   1.248   1.803
  422SOL     OW 1275   2.064   0.285   1.498
  422SOL    HW1 1276   1.984   0.345   1.485
  422SOL    HW2 1277   2.054   0.236   1.584
  423SOL     OW 1278   2.326   1.743   0.323
  423SOL    HW1 1279   2.359   1.782   0.409
  423SOL    HW2 1280   2.402   1.736   0.258
  424SOL     OW 1281   2.111   1.785   1.241
  424SOL    HW1 1282   2.168   1.720   1.291
  424SOL    HW2 1283   2.095   1.752   1.148
  425SOL     OW 1284   2.244   0.700   0.480
  425SOL    HW1 1285   2.289   0.610   0.477
  425SOL    HW2 1286   2.150   0.689   0.513
  426SOL     OW 1287   2.665   1.402   0.924
  426SOL    HW1 1288   2.755   1.416   0.882
  426SOL    HW2 1289   2.594   1.404   0.853
  427SOL     OW 1290   2.401   0.064   0.512
  427SOL    HW1 1291   2.320   0.065   0.570
  427SOL    HW2 1292   2.404   0.147   0.457
  428SOL     OW 1293   2.159   0.035   0.171
  428SOL    HW1 1294   2.208   0.119   0.150
  428SOL    HW2 1295   2.221  -0.030   0.216
  429SOL     OW 1296   2.797   0.236   0.480
  429SOL    HW1 1297   2.749   0.277   0.402
  429SOL    HW2 1298   2.896   0.234   0.461
  430SOL     OW 1299   2.321   1.152   0.741
  430SOL    HW1 1300   2.250   1.125   0.806
  430SOL    HW2 1301   2.295   1.124   0.648
  431SOL     OW 1302   1.940   0.556   1.386
  431SOL    HW1 1303   2.032   0.555   1.345
  431SOL    HW2 1304   1.934   0.630   1.453
  432SOL     OW 1305   2.423   0.222   1.147
  432SOL    HW1 1306   2.461   0.138   1.184
  432SOL    HW2 1307   2.335   0.241   1.191
  433SOL     OW 1308   2.389   0.256   0.328
  433SOL    HW1 1309   2.416   0.197   0.253
  433SOL    HW2 1310   2.389   0.351   0.297
  434SOL     OW 1311   2.272   0.813   1.251
  434SOL    HW1 1312   2.358   0.825   1.301
  434SOL    HW2 1313   2.230   0.726   1.278
  435SOL     OW 1314   1.926   1.564   1.331
  435SOL    HW1 1315   1.880   1.646   1.297
  435SOL    HW2 1316   2.024   1.583   1.340
  436SOL     OW 1317   2.229   1.100   0.501
  436SOL    HW1 1318   2.222   1.183   0.445
  436SOL    HW2 1319   2.233   1.020   0.441
  437SOL     OW 1320   2.428   0.537   0.865
  437SOL    HW1 1321   2.440   0.603   0.791
  437SOL    HW2 1322   2.474   0.571   0.948
  438SOL     OW 1323   2.216   1.510   1.329
  438SOL    HW1 1324   2.195   1.466   1.242
  438SOL    HW2 1325   2.313   1.536   1.332
  439SOL     OW 1326   2.264   0.751   1.598
  439SOL    HW1 1327   2.332   0.806   1.551
  439SOL    HW2 1328   2.304   0.663   1.625
  440SOL     OW 1329   2.366   0.050   1.740
  440SOL    HW1 1330   2.324  -0.007   1.670
  440SOL    HW2 1331   2.300   0.119   1.772
  441SOL     OW 1332   2.435   0.870   1.029
  441SOL    HW1 1333   2.479   0.959   1.020
  441SOL    HW2 1334   2.372   0.870   1.106
  442SOL     OW 1335   2.169   0.213   1.231
  442SOL    HW1 1336   2.146   0.250   1.321
  442SOL    HW2 1337   2.139   0.118   1.225
  443SOL     OW 1338   1.899   1.310   1.282
  443SOL    HW1 1339   1.952   1.261   1.350
  443SOL    HW2 1340   1.921   1.408   1.287
  444SOL     OW 1341   2.169   0.063   0.618
  444SOL    HW1 1342   2.158   0.157   0.651
  444SOL    HW2 1343   2.164   0.000   0.695
  445SOL     OW 1344   2.212   0.898   1.804
  445SOL    HW1 1345   2.288   0.942   1.852
  445SOL    HW2 1346   2.247   0.851   1.722
  446SOL     OW 1347   2.181   0.810   0.949
  446SOL    HW1 1348   2.274   0.846   0.954
  446SOL    HW2 1349   2.175   0.725   1.001
  447SOL     OW 1350   2.201   0.509   1.006
  447SOL    HW1 1351   2.149   0.426   0.989
  447SOL    HW2 1352   2.278   0.514   0.942
  448SOL     OW 1353   1.870   1.326   0.200
  448SOL    HW1 1354   1.777   1.347   0.169
  448SOL    HW2 1355   1.880   1.227   0.213
  449SOL     OW 1356   1.950   1.801   0.927
  449SOL    HW1 1357   1.908   1.715   0.900
  449SOL    HW2 1358   2.044   1.804   0.893
  450SOL     OW 1359   2.366   1.568   0.910
  450SOL    HW1 1360   2.432   1.642   0.919
  450SOL    HW2 1361   2.410   1.489   0.868
  451SOL     OW 1362   1.902   0.544   1.114
  451SOL    HW1 1363   1.987   0.511   1.073
  451SOL    HW2 1364   1.915   0.559   1.212
  452SOL     OW 1365   2.051   0.520   1.722
  452SOL    HW1 1366   2.110   0.480   1.652
  452SOL    HW2 1367   1.993   0.591   1.681
  453SOL     OW 1368   2.677   0.572   0.325
  453SOL    HW1 1369   2.684   0.483   0.279
  453SOL    HW2 1370   2.583   0.606   0.317
  454SOL     OW 1371   2.114   1.564   1.744
  454SOL    HW1 1372   2.084   1.621   1.820
  454SOL    HW2 1373   2.107   1.467   1.770
  455SOL     OW 1374   2.335   0.500   0.191
  455SOL    HW1 1375   2.396   0.580   0.195
  455SOL    HW2 1376   2.240   0.531   0.198
  456SOL     OW 1377   2.021   1.137   1.466
  456SOL    HW1 1378   2.043   1.076   1.542
  456SOL    HW2 1379   2.031   1.088   1.380
  457SOL     OW 1380   1.945   1.258   1.022
  457SOL    HW1 1381   1.940   1.257   1.122
  457SOL    HW2 1382   1.862   1.217   0.984
  458SOL     OW 1383   2.550   1.662   1.716
  458SOL    HW1 1384   2.494   1.743   1.725
  458SOL    HW2 1385   2.602   1.666   1.630
  459SOL     OW 1386   1.992   1.794   1.851
  459SOL    HW1 1387   1.951   1.720   1.904
  459SOL    HW2 1388   2.056   1.845   1.909
  460SOL     OW 1389   2.125   0.326   0.720
  460SOL    HW1 1390   2.046   0.377   0.686
  460SOL    HW2 1391   2.116   0.311   0.818
  461SOL     OW 1392   2.234   1.288   1.490
  461SOL    HW1 1393   2.221   1.381   1.456
  461SOL    HW2 1394   2.150   1.236   1.477
  462SOL     OW 1395   2.452   1.487   0.491
  462SOL    HW1 1396   2.494   1.429   0.421
  462SOL    HW2 1397   2.408   1.566   0.447
  463SOL     OW 1398   2.117   1.348   0.290
  463SOL    HW1 1399   2.021   1.349   0.263
  463SOL    HW2 1400   2.129   1.401   0.374
  464SOL     OW 1401   1.967   1.013   1.726
  464SOL    HW1 1402   1.890   0.980   1.780
  464SOL    HW2 1403   2.052   0.983   1.768
  465SOL     OW 1404   2.534   0.203   1.489
  465SOL    HW1 1405   2.624   0.187   1.449
  465SOL    HW2 1406   2.542   0.208   1.588
  466SOL     OW 1407   1.937   0.345   0.033
  466SOL    HW1 1408   1.845   0.317   0.004
  466SOL    HW2 1409   1.968   0.422  -0.023
  467SOL     OW 1410   2.475   0.842   1.431
  467SOL    HW1 1411   2.531   0.923   1.414
  467SOL    HW2 1412   2.534   0.762   1.434
  468SOL     OW 1413   2.252   1.741   1.560
  468SOL    HW1 1414   2.161   1.782   1.558
  468SOL    HW2 1415   2.245   1.647   1.592
  469SOL     OW 1416   2.456   0.745   0.652
  469SOL    HW1 1417   2.506   0.830   0.633
  469SOL    HW2 1418   2.368   0.747   0.604
  470SOL     OW 1419   2.083   1.314   1.844
  470SOL    HW1 1420   2.018   1.241   1.823
  470SOL    HW2 1421   2.087   1.328   1.942
  471SOL     OW 1422   1.941   1.240   0.653
  471SOL    HW1 1423   1.940   1.193   0.741
  471SOL    HW2 1424   2.023   1.212   0.602
  472SOL     OW 1425   2.534   1.391   1.624
  472SOL    HW1 1426   2.456   1.341   1.662
  472SOL    HW2 1427   2.531   1.486   1.655
  473SOL     OW 1428   2.290   0.424   0.520
  473SOL    HW1 1429   2.320   0.352   0.458
  473SOL    HW2 1430   2.251   0.384   0.603
  474SOL     OW 1431   2.179   0.547   1.280
  474SOL    HW1 1432   2.217   0.488   1.352
  474SOL    HW2 1433   2.219   0.521   1.192
  475SOL     OW 1434   1.901   1.077   0.300
  475SOL    HW1 1435   2.000   1.066   0.291
  475SOL    HW2 1436   1.861   0.991   0.332
  476SOL     OW 1437   2.092   0.628   1.975
  476SOL    HW1 1438   1.999   0.626   2.012
  476SOL    HW2 1439   2.093   0.589   1.883
  477SOL     OW 1440   2.093   1.713   2.345
  477SOL    HW1 1441   2.127   1.790   2.399
  477SOL    HW2 1442   2.137   1.713   2.255
  478SOL     OW 1443   2.092   1.434   2.400
  478SOL    HW1 1444   2.066   1.530   2.400
  478SOL    HW2 1445   2.021   1.380   2.445
  479SOL     OW 1446   2.468   0.964   1.985
  479SOL    HW1 1447   2.475   1.048   1.931
  479SOL    HW2 1448   2.514   0.977   2.073
  480SOL     OW 1449   1.984   0.643   2.425
  480SOL    HW1 1450   1.939   0.555   2.442
  480SOL    HW2 1451   1.983   0.697   2.509
  481SOL     OW 1452   1.889   1.596   1.979
  481SOL    HW1 1453   1.870   1.500   2.000
  481SOL    HW2 1454   1.856   1.654   2.054
  482SOL     OW 1455   2.475   1.365   2.588
  482SOL    HW1 1456   2.426   1.278   2.597
  482SOL    HW2 1457   2.452   1.408   2.501
  483SOL     OW 1458   2.460   0.729   2.132
  483SOL    HW1 1459   2.484   0.798   2.064
  483SOL    HW2 1460   2.382   0.762   2.186
  484SOL     OW 1461   1.938   0.811   2.651
  484SOL    HW1 1462   2.037   0.799   2.660
  484SOL    HW2 1463   1.914   0.906   2.672
  485SOL     OW 1464   2.213   1.801   2.715
  485SOL    HW1 1465   2.263   1.715   2.721
  485SOL    HW2 1466   2.278   1.878   2.712
  486SOL     OW 1467   2.183   0.943   2.104
  486SOL    HW1 1468   2.265   0.982   2.062
  486SOL    HW2 1469   2.156   0.861   2.055
  487SOL     OW 1470   2.326   1.743   2.185
  487SOL    HW1 1471   2.359   1.782   2.271
  487SOL    HW2 1472   2.402   1.736   2.120
  488SOL     OW 1473   2.244   0.700   2.342
  488SOL    HW1 1474   2.289   0.610   2.339
  488SOL    HW2 1475   2.150   0.689   2.375
  489SOL     OW 1476   2.476   0.122   1.979
  489SOL    HW1 1477   2.574   0.100   1.986
  489SOL    HW2 1478   2.445   0.105   1.886
  490SOL     OW 1479   2.401   0.064   2.374
  490SOL    HW1 1480   2.320   0.065   2.432
  490SOL    HW2 1481   2.404   0.147   2.319
  491SOL     OW 1482   2.159   0.035   2.033
  491SOL    HW1 1483   2.208   0.119   2.012
  491SOL    HW2 1484   2.221  -0.030   2.078
  492SOL     OW 1485   2.797   0.236   2.342
  492SOL    HW1 1486   2.749   0.277   2.264
  492SOL    HW2 1487   2.896   0.234   2.323
  493SOL     OW 1488   2.321   1.152   2.603
  493SOL    HW1 1489   2.250   1.125   2.668
  493SOL    HW2 1490   2.295   1.124   2.510
  494SOL     OW 1491   2.389   0.256   2.190
  494SOL    HW1 1492   2.416   0.197   2.115
  494SOL    HW2 1493   2.389   0.351   2.159
  495SOL     OW 1494   2.229   1.100   2.363
  495SOL    HW1 1495   2.222   1.183   2.307
  495SOL    HW2 1496   2.233   1.020   2.303
  496SOL     OW 1497   2.169   0.063   2.480
  496SOL    HW1 1498   2.158   0.157   2.513
  496SOL    HW2 1499   2.164   0.000   2.557
  497SOL     OW 1500   1.870   1.326   2.062
  497SOL    HW1 1501   1.777   1.347   2.031
  497SOL    HW2 1502   1.880   1.227   2.075
  498SOL     OW 1503   2.677   0.572   2.187
  498SOL    HW1 1504   2.684   0.483   2.141
  498SOL    HW2 1505   2.583   0.606   2.179
  499SOL     OW 1506   2.335   0.500   2.053
  499SOL    HW1 1507   2.396   0.580   2.057
  499SOL    HW2 1508   2.240   0.531   2.060
  500SOL     OW 1509   2.452   1.487   2.353
  500SOL    HW1 1510   2.494   1.429   2.283
  500SOL    HW2 1511   2.408   1.566   2.309
  501SOL     OW 1512   2.117   1.348   2.152
  501SOL    HW1 1513   2.021   1.349   2.125
  501SOL    HW2 1514   2.129   1.401   2.236
  502SOL     OW 1515   1.937   0.345   1.895
  502SOL    HW1 1516   1.845   0.317   1.866
  502SOL    HW2 1517   1.968   0.422   1.839
  503SOL     OW 1518   1.934   0.166   2.180
  503SOL    HW1 1519   1.917   0.249   2.126
  503SOL    HW2 1520   2.024   0.129   2.158
  504SOL     OW 1521   2.456   0.745   2.514
  504SOL    HW1 1522   2.506   0.830   2.495
  504SOL    HW2 1523   2.368   0.747   2.466
  505SOL     OW 1524   1.941   1.240   2.515
  505SOL    HW1 1525   1.940   1.193   2.603
  505SOL    HW2 1526   2.023   1.212   2.464
  506SOL     OW 1527   2.290   0.424   2.382
  506SOL    HW1 1528   2.320   0.352   2.320
  506SOL    HW2 1529   2.251   0.384   2.465
  507SOL     OW 1530   1.901   1.077   2.162
  507SOL    HW1 1531   2.000   1.066   2.153
  507SOL    HW2 1532   1.861   0.991   2.194
  508SOL     OW 1533   2.087   2.137   0.996
  508SOL    HW1 1534   2.122   2.120   1.088
  508SOL    HW2 1535   1.999   2.092   0.984
  509SOL     OW 1536   1.881   2.230   0.647
  509SOL    HW1 1537   1.799   2.273   0.686
  509SOL    HW2 1538   1.853   2.157   0.584
  510SOL     OW 1539   2.712   2.660   1.823
  510SOL    HW1 1540   2.708   2.736   1.888
  510SOL    HW2 1541   2.734   2.696   1.732
  511SOL     OW 1542   2.300   2.254   1.499
  511SOL    HW1 1543   2.382   2.198   1.508
  511SOL    HW2 1544   2.219   2.196   1.503
  512SOL     OW 1545   1.984   2.505   0.563
  512SOL    HW1 1546   1.939   2.417   0.580
  512SOL    HW2 1547   1.983   2.559   0.647
  513SOL     OW 1548   1.975   2.599   1.597
  513SOL    HW1 1549   2.063   2.586   1.642
  513SOL    HW2 1550   1.962   2.696   1.575
  514SOL     OW 1551   2.671   1.866   0.502
  514SOL    HW1 1552   2.711   1.957   0.493
  514SOL    HW2 1553   2.571   1.874   0.508
  515SOL     OW 1554   2.179   2.113   1.801
  515SOL    HW1 1555   2.250   2.184   1.807
  515SOL    HW2 1556   2.091   2.152   1.829
  516SOL     OW 1557   2.460   2.591   0.270
  516SOL    HW1 1558   2.484   2.660   0.202
  516SOL    HW2 1559   2.382   2.624   0.324
  517SOL     OW 1560   2.412   2.058   0.885
  517SOL    HW1 1561   2.407   2.053   0.985
  517SOL    HW2 1562   2.414   2.154   0.856
  518SOL     OW 1563   2.064   2.147   1.498
  518SOL    HW1 1564   1.984   2.207   1.485
  518SOL    HW2 1565   2.054   2.098   1.584
  519SOL     OW 1566   2.476   1.984   0.117
  519SOL    HW1 1567   2.574   1.962   0.124
  519SOL    HW2 1568   2.445   1.967   0.024
  520SOL     OW 1569   2.401   1.926   0.512
  520SOL    HW1 1570   2.320   1.927   0.570
  520SOL    HW2 1571   2.404   2.009   0.457
  521SOL     OW 1572   2.797   2.098   0.480
  521SOL    HW1 1573   2.749   2.139   0.402
  521SOL    HW2 1574   2.896   2.096   0.461
  522SOL     OW 1575   1.940   2.418   1.386
  522SOL    HW1 1576   2.032   2.417   1.345
  522SOL    HW2 1577   1.934   2.492   1.453
  523SOL     OW 1578   2.423   2.084   1.147
  523SOL    HW1 1579   2.461   2.000   1.184
  523SOL    HW2 1580   2.335   2.103   1.191
  524SOL     OW 1581   2.389   2.118   0.328
  524SOL    HW1 1582   2.416   2.059   0.253
  524SOL    HW2 1583   2.389   2.213   0.297
  525SOL     OW 1584   2.428   2.399   0.865
  525SOL    HW1 1585   2.440   2.465   0.791
  525SOL    HW2 1586   2.474   2.433   0.948
  526SOL     OW 1587   2.366   1.912   1.740
  526SOL    HW1 1588   2.324   1.855   1.670
  526SOL    HW2 1589   2.300   1.981   1.772
  527SOL     OW 1590   2.169   2.075   1.231
  527SOL    HW1 1591   2.146   2.112   1.321
  527SOL    HW2 1592   2.139   1.980   1.225
  528SOL     OW 1593   2.169   1.925   0.618
  528SOL    HW1 1594   2.158   2.019   0.651
  528SOL    HW2 1595   2.164   1.862   0.695
  529SOL     OW 1596   2.181   2.672   0.949
  529SOL    HW1 1597   2.274   2.708   0.954
  529SOL    HW2 1598   2.175   2.587   1.001
  530SOL     OW 1599   2.201   2.371   1.006
  530SOL    HW1 1600   2.149   2.288   0.989
  530SOL    HW2 1601   2.278   2.376   0.942
  531SOL     OW 1602   1.902   2.406   1.114
  531SOL    HW1 1603   1.987   2.373   1.073
  531SOL    HW2 1604   1.915   2.421   1.212
  532SOL     OW 1605   2.051   2.382   1.722
  532SOL    HW1 1606   2.110   2.342   1.652
  532SOL    HW2 1607   1.993   2.453   1.681
  533SOL     OW 1608   2.677   2.434   0.325
  533SOL    HW1 1609   2.684   2.345   0.279
  533SOL    HW2 1610   2.583   2.468   0.317
  534SOL     OW 1611   2.335   2.362   0.191
  534SOL    HW1 1612   2.396   2.442   0.195
  534SOL    HW2 1613   2.240   2.393   0.198
  535SOL     OW 1614   2.125   2.188   0.720
  535SOL    HW1 1615   2.046   2.239   0.686
  535SOL    HW2 1616   2.116   2.173   0.818
  536SOL     OW 1617   2.534   2.065   1.489
  536SOL    HW1 1618   2.624   2.049   1.449
  536SOL    HW2 1619   2.542   2.070   1.588
  537SOL     OW 1620   1.937   2.207   0.033
  537SOL    HW1 1621   1.845   2.179   0.004
  537SOL    HW2 1622   1.968   2.284  -0.023
  538SOL     OW 1623   2.290   2.286   0.520
  538SOL    HW1 1624   2.320   2.214   0.458
  538SOL    HW2 1625   2.251   2.246   0.603
  539SOL     OW 1626   2.179   2.409   1.280
  539SOL    HW1 1627   2.217   2.350   1.352
  539SOL    HW2 1628   2.219   2.383   1.192
  540SOL     OW 1629   1.984   2.505   2.425
  540SOL    HW1 1630   1.939   2.417   2.442
  540SOL    HW2 1631   1.983   2.559   2.509
  541SOL     OW 1632   2.671   1.866   2.364
  541SOL    HW1 1633   2.711   1.957   2.355
  541SOL    HW2 1634   2.571   1.874   2.370
  542SOL     OW 1635   2.476   1.984   1.979
  542SOL    HW1 1636   2.574   1.962   1.986
  542SOL    HW2 1637   2.445   1.967   1.886
  543SOL     OW 1638   2.401   1.926   2.374
  543SOL    HW1 1639   2.320   1.927   2.432
  543SOL    HW2 1640   2.404   2.009   2.319
  544SOL     OW 1641   2.159   1.897   2.033
  544SOL    HW1 1642   2.208   1.981   2.012
  544SOL    HW2 1643   2.221   1.832   2.078
  545SOL     OW 1644   2.797   2.098   2.342
  545SOL    HW1 1645   2.749   2.139   2.264
  545SOL    HW2 1646   2.896   2.096   2.323
  546SOL     OW 1647   2.389   2.118   2.190
  546SOL    HW1 1648   2.416   2.059   2.115
  546SOL    HW2 1649   2.389   2.213   2.159
  547SOL     OW 1650   2.169   1.925   2.480
  547SOL    HW1 1651   2.158   2.019   2.513
  547SOL    HW2 1652   2.164   1.862   2.557
  548SOL     OW 1653   2.677   2.434   2.187
  548SOL    HW1 1654   2.684   2.345   2.141
  548SOL    HW2 1655   2.583   2.468   2.179
  549SOL     OW 1656   2.335   2.362   2.053
  549SOL    HW1 1657   2.396   2.442   2.057
  549SOL    HW2 1658   2.240   2.393   2.060
  550SOL     OW 1659   1.937   2.207   1.895
  550SOL    HW1 1660   1.845   2.179   1.866
  550SOL    HW2 1661   1.968   2.284   1.839
  551SOL     OW 1662   1.934   2.028   2.180
  551SOL    HW1 1663   1.917   2.111   2.126
  551SOL    HW2 1664   2.024   1.991   2.158
  552SOL     OW 1665   2.290   2.286   2.382
  552SOL    HW1 1666   2.320   2.214   2.320
  552SOL    HW2 1667   2.251   2.246   2.465
   2.57953   2.57953   2.57953
