; mobley_3167746_GMX.top created by acpype (v: 2023.10.27) on Thu May 14 14:00:51 2026

[ defaults ]
; nbfunc        comb-rule       gen-pairs       fudgeLJ fudgeQQ
1               2               yes             0.5     0.8333333333

; Include mobley_3167746_GMX.itp topology
#include "mobley_3167746_GMX.itp"

; Ligand position restraints
#ifdef POSRES_LIG
#include "posre_mobley_3167746.itp"
#endif

#include "../common/SOL.TIP3P.itp"

[ system ]
mobley_3167746 in water

[ molecules ]
; Compound        nmols
 mobley_3167746   1     
SOL               947
