mobley_349850_GMX.gro created by acpype (v: 2023.10.27) on Thu May 14 13:44:22 2026
 2153
    1MOL     C1    1   1.327   1.455   1.381
    1MOL     C2    2   1.539   1.339   1.387
    1MOL     C3    3   1.325   1.458   1.521
    1MOL     C4    4   1.537   1.342   1.526
    1MOL     C5    5   1.434   1.396   1.314
    1MOL     C6    6   1.430   1.402   1.593
    1MOL     C7    7   1.436   1.392   1.169
    1MOL     C8    8   1.428   1.406   1.742
    1MOL     C9    9   1.321   1.453   1.089
    1MOL     O1   10   1.530   1.339   1.106
    1MOL     H1   11   1.244   1.499   1.326
    1MOL     H2   12   1.623   1.292   1.336
    1MOL     H3   13   1.241   1.505   1.572
    1MOL     H4   14   1.619   1.298   1.582
    1MOL     H5   15   1.518   1.455   1.781
    1MOL     H6   16   1.340   1.460   1.780
    1MOL     H7   17   1.423   1.304   1.785
    1MOL     H8   18   1.315   1.560   1.110
    1MOL     H9   19   1.227   1.403   1.114
    1MOL    H10   20   1.338   1.440   0.982
    2SOL     OW   21   0.230   0.628   0.113
    2SOL    HW1   22   0.137   0.626   0.150
    2SOL    HW2   23   0.231   0.589   0.021
    3SOL     OW   24   0.225   0.275   0.996
    3SOL    HW1   25   0.260   0.258   1.088
    3SOL    HW2   26   0.137   0.230   0.984
    4SOL     OW   27   0.019   0.368   0.647
    4SOL    HW1   28  -0.063   0.411   0.686
    4SOL    HW2   29  -0.009   0.295   0.584
    5SOL     OW   30   0.569   1.275   1.165
    5SOL    HW1   31   0.476   1.268   1.128
    5SOL    HW2   32   0.580   1.364   1.209
    6SOL     OW   33   1.555   1.511   0.703
    6SOL    HW1   34   1.498   1.495   0.784
    6SOL    HW2   35   1.496   1.521   0.623
    7SOL     OW   36   1.135   0.703   0.717
    7SOL    HW1   37   1.192   0.781   0.692
    7SOL    HW2   38   1.075   0.729   0.793
    8SOL     OW   39   1.755   0.607   0.231
    8SOL    HW1   40   1.743   0.594   0.132
    8SOL    HW2   41   1.725   0.526   0.280
    9SOL     OW   42   0.768   1.144   1.023
    9SOL    HW1   43   0.690   1.161   1.083
    9SOL    HW2   44   0.802   1.231   0.987
   10SOL     OW   45   0.850   0.798   1.823
   10SOL    HW1   46   0.846   0.874   1.888
   10SOL    HW2   47   0.872   0.834   1.732
   11SOL     OW   48   0.685   1.012   0.665
   11SOL    HW1   49   0.754   0.996   0.735
   11SOL    HW2   50   0.612   1.069   0.703
   12SOL     OW   51   0.686   1.161   1.803
   12SOL    HW1   52   0.746   1.240   1.817
   12SOL    HW2   53   0.600   1.192   1.762
   13SOL     OW   54   0.335   1.435   1.061
   13SOL    HW1   55   0.257   1.404   1.008
   13SOL    HW2   56   0.393   1.493   1.004
   14SOL     OW   57   0.438   0.392   1.499
   14SOL    HW1   58   0.520   0.336   1.508
   14SOL    HW2   59   0.357   0.334   1.503
   15SOL     OW   60   1.603   0.447   0.737
   15SOL    HW1   61   1.529   0.493   0.687
   15SOL    HW2   62   1.654   0.515   0.790
   16SOL     OW   63   0.231   1.713   0.483
   16SOL    HW1   64   0.265   1.790   0.537
   16SOL    HW2   65   0.275   1.713   0.393
   17SOL     OW   66   1.127   1.341   1.690
   17SOL    HW1   67   1.174   1.341   1.778
   17SOL    HW2   68   1.079   1.254   1.679
   18SOL     OW   69   0.230   1.434   0.538
   18SOL    HW1   70   0.204   1.530   0.538
   18SOL    HW2   71   0.159   1.380   0.583
   19SOL     OW   72   0.240   1.091   0.886
   19SOL    HW1   73   0.254   1.007   0.938
   19SOL    HW2   74   0.185   1.155   0.941
   20SOL     OW   75   0.620   1.786   1.439
   20SOL    HW1   76   0.528   1.769   1.474
   20SOL    HW2   77   0.648   1.878   1.465
   21SOL     OW   78   0.606   0.964   0.123
   21SOL    HW1   79   0.613   1.048   0.069
   21SOL    HW2   80   0.652   0.977   0.211
   22SOL     OW   81   1.594   0.114   1.480
   22SOL    HW1   82   1.576   0.181   1.408
   22SOL    HW2   83   1.591   0.160   1.569
   23SOL     OW   84   0.122   0.643   0.563
   23SOL    HW1   85   0.077   0.555   0.580
   23SOL    HW2   86   0.121   0.697   0.647
   24SOL     OW   87   1.842   1.767   0.359
   24SOL    HW1   88   1.896   1.738   0.439
   24SOL    HW2   89   1.872   1.857   0.330
   25SOL     OW   90   0.027   1.596   0.117
   25SOL    HW1   91   0.008   1.500   0.138
   25SOL    HW2   92  -0.006   1.654   0.192
   26SOL     OW   93   1.689   0.922   0.612
   26SOL    HW1   94   1.784   0.893   0.620
   26SOL    HW2   95   1.681   0.987   0.537
   27SOL     OW   96   1.641   1.108   0.432
   27SOL    HW1   97   1.727   1.110   0.380
   27SOL    HW2   98   1.655   1.155   0.520
   28SOL     OW   99   0.113   0.737   1.597
   28SOL    HW1  100   0.201   0.724   1.642
   28SOL    HW2  101   0.100   0.834   1.575
   29SOL     OW  102   0.613   1.365   0.726
   29SOL    HW1  103   0.564   1.278   0.735
   29SOL    HW2  104   0.590   1.408   0.639
   30SOL     OW  105   1.293   1.228   1.423
   30SOL    HW1  106   1.330   1.155   1.365
   30SOL    HW2  107   1.345   1.233   1.508
   31SOL     OW  108   0.809   0.004   0.502
   31SOL    HW1  109   0.849   0.095   0.493
   31SOL    HW2  110   0.709   0.012   0.508
   32SOL     OW  111   0.197   0.976   1.264
   32SOL    HW1  112   0.286   0.931   1.250
   32SOL    HW2  113   0.124   0.911   1.245
   33SOL     OW  114   1.525   0.999   0.190
   33SOL    HW1  115   1.462   0.923   0.203
   33SOL    HW2  116   1.573   1.017   0.276
   34SOL     OW  117   1.187   1.792   1.616
   34SOL    HW1  118   1.211   1.852   1.540
   34SOL    HW2  119   1.194   1.697   1.586
   35SOL     OW  120   0.317   0.251   1.801
   35SOL    HW1  121   0.388   0.322   1.807
   35SOL    HW2  122   0.229   0.290   1.829
   36SOL     OW  123   1.667   1.714   0.572
   36SOL    HW1  124   1.626   1.691   0.484
   36SOL    HW2  125   1.649   1.640   0.637
   37SOL     OW  126   0.598   0.729   0.270
   37SOL    HW1  127   0.622   0.798   0.202
   37SOL    HW2  128   0.520   0.762   0.324
   38SOL     OW  129   1.281   0.345   0.944
   38SOL    HW1  130   1.195   0.295   0.931
   38SOL    HW2  131   1.343   0.291   1.000
   39SOL     OW  132   1.576   1.662   0.307
   39SOL    HW1  133   1.665   1.708   0.310
   39SOL    HW2  134   1.555   1.638   0.212
   40SOL     OW  135   0.807   0.605   1.465
   40SOL    HW1  136   0.760   0.602   1.554
   40SOL    HW2  137   0.756   0.550   1.399
   41SOL     OW  138   1.394   0.469   1.674
   41SOL    HW1  139   1.374   0.512   1.762
   41SOL    HW2  140   1.472   0.407   1.683
   42SOL     OW  141   0.973   0.890   1.572
   42SOL    HW1  142   1.019   0.806   1.543
   42SOL    HW2  143   0.917   0.924   1.497
   43SOL     OW  144   0.991   0.410   1.242
   43SOL    HW1  145   0.914   0.444   1.296
   43SOL    HW2  146   0.957   0.359   1.163
   44SOL     OW  147   1.041   0.701   0.429
   44SOL    HW1  148   1.067   0.697   0.525
   44SOL    HW2  149   0.956   0.650   0.415
   45SOL     OW  150   0.076   0.811   0.789
   45SOL    HW1  151   0.175   0.799   0.798
   45SOL    HW2  152   0.052   0.906   0.810
   46SOL     OW  153   0.130   1.821   1.571
   46SOL    HW1  154   0.120   1.806   1.670
   46SOL    HW2  155   0.044   1.857   1.535
   47SOL     OW  156   0.865   0.348   0.195
   47SOL    HW1  157   0.924   0.411   0.146
   47SOL    HW2  158   0.884   0.254   0.166
   48SOL     OW  159   1.719   0.585   1.831
   48SOL    HW1  160   1.693   0.674   1.795
   48SOL    HW2  161   1.717   0.517   1.758
   49SOL     OW  162   1.362   1.144   0.545
   49SOL    HW1  163   1.445   1.115   0.497
   49SOL    HW2  164   1.313   1.211   0.489
   50SOL     OW  165   0.550   0.196   0.885
   50SOL    HW1  166   0.545   0.191   0.985
   50SOL    HW2  167   0.552   0.292   0.856
   51SOL     OW  168   1.008   1.456   0.477
   51SOL    HW1  169   0.962   1.528   0.425
   51SOL    HW2  170   1.004   1.476   0.575
   52SOL     OW  171   0.351   1.801   0.853
   52SOL    HW1  172   0.401   1.715   0.859
   52SOL    HW2  173   0.416   1.878   0.850
   53SOL     OW  174   1.795   1.066   0.873
   53SOL    HW1  175   1.733   1.051   0.797
   53SOL    HW2  176   1.743   1.077   0.958
   54SOL     OW  177   0.321   0.943   0.242
   54SOL    HW1  178   0.403   0.982   0.200
   54SOL    HW2  179   0.294   0.861   0.193
   55SOL     OW  180   1.458   0.735   0.728
   55SOL    HW1  181   1.453   0.670   0.803
   55SOL    HW2  182   1.538   0.794   0.741
   56SOL     OW  183   0.461   1.266   1.727
   56SOL    HW1  184   0.411   1.267   1.641
   56SOL    HW2  185   0.398   1.248   1.803
   57SOL     OW  186   1.111   1.776   0.237
   57SOL    HW1  187   1.051   1.714   0.287
   57SOL    HW2  188   1.142   1.732   0.152
   58SOL     OW  189   0.202   0.285   1.498
   58SOL    HW1  190   0.122   0.345   1.485
   58SOL    HW2  191   0.192   0.236   1.584
   59SOL     OW  192   1.632   1.377   0.081
   59SOL    HW1  193   1.600   1.471   0.071
   59SOL    HW2  194   1.556   1.314   0.069
   60SOL     OW  195   0.464   1.743   0.323
   60SOL    HW1  196   0.497   1.782   0.409
   60SOL    HW2  197   0.540   1.736   0.258
   61SOL     OW  198   1.400   0.107   0.426
   61SOL    HW1  199   1.376   0.070   0.336
   61SOL    HW2  200   1.499   0.123   0.430
   62SOL     OW  201   0.249   1.785   1.241
   62SOL    HW1  202   0.306   1.720   1.291
   62SOL    HW2  203   0.233   1.752   1.148
   63SOL     OW  204   0.940   1.698   0.904
   63SOL    HW1  205   1.020   1.641   0.925
   63SOL    HW2  206   0.891   1.658   0.827
   64SOL     OW  207   0.382   0.700   0.480
   64SOL    HW1  208   0.427   0.610   0.477
   64SOL    HW2  209   0.288   0.689   0.513
   65SOL     OW  210   1.547   0.222   1.729
   65SOL    HW1  211   1.542   0.259   1.821
   65SOL    HW2  212   1.475   0.153   1.717
   66SOL     OW  213   0.614   0.122   0.117
   66SOL    HW1  214   0.712   0.100   0.124
   66SOL    HW2  215   0.583   0.105   0.024
   67SOL     OW  216   0.781   0.264   1.749
   67SOL    HW1  217   0.848   0.203   1.792
   67SOL    HW2  218   0.708   0.283   1.814
   68SOL     OW  219   0.888   1.514   1.195
   68SOL    HW1  220   0.865   1.489   1.101
   68SOL    HW2  221   0.949   1.445   1.234
   69SOL     OW  222   1.351   0.590   1.433
   69SOL    HW1  223   1.379   0.547   1.518
   69SOL    HW2  224   1.376   0.686   1.434
   70SOL     OW  225   0.803   1.402   0.924
   70SOL    HW1  226   0.893   1.416   0.882
   70SOL    HW2  227   0.732   1.404   0.853
   71SOL     OW  228   0.922   0.503   0.899
   71SOL    HW1  229   0.897   0.494   0.803
   71SOL    HW2  230   0.970   0.421   0.930
   72SOL     OW  231   0.539   0.064   0.512
   72SOL    HW1  232   0.458   0.065   0.570
   72SOL    HW2  233   0.542   0.147   0.457
   73SOL     OW  234   1.434   1.188   0.041
   73SOL    HW1  235   1.466   1.112   0.098
   73SOL    HW2  236   1.342   1.215   0.071
   74SOL     OW  237   0.297   0.035   0.171
   74SOL    HW1  238   0.346   0.119   0.150
   74SOL    HW2  239   0.359  -0.030   0.216
   75SOL     OW  240   0.935   0.236   0.480
   75SOL    HW1  241   0.887   0.277   0.402
   75SOL    HW2  242   1.034   0.234   0.461
   76SOL     OW  243   1.076   0.683   1.464
   76SOL    HW1  244   0.996   0.622   1.467
   76SOL    HW2  245   1.157   0.630   1.440
   77SOL     OW  246   1.227   1.570   0.793
   77SOL    HW1  247   1.248   1.644   0.728
   77SOL    HW2  248   1.295   1.570   0.866
   78SOL     OW  249   0.459   1.152   0.741
   78SOL    HW1  250   0.388   1.125   0.806
   78SOL    HW2  251   0.433   1.124   0.648
   79SOL     OW  252   1.271   1.797   0.591
   79SOL    HW1  253   1.315   1.861   0.527
   79SOL    HW2  254   1.221   1.849   0.661
   80SOL     OW  255   1.032   0.549   0.016
   80SOL    HW1  256   0.991   0.631  -0.023
   80SOL    HW2  257   1.096   0.575   0.089
   81SOL     OW  258   0.078   0.556   1.386
   81SOL    HW1  259   0.170   0.555   1.345
   81SOL    HW2  260   0.072   0.630   1.453
   82SOL     OW  261   0.561   0.222   1.147
   82SOL    HW1  262   0.599   0.138   1.184
   82SOL    HW2  263   0.473   0.241   1.191
   83SOL     OW  264   0.866   0.454   0.642
   83SOL    HW1  265   0.834   0.526   0.580
   83SOL    HW2  266   0.890   0.373   0.589
   84SOL     OW  267   1.017   0.039   0.753
   84SOL    HW1  268   0.945   0.044   0.684
   84SOL    HW2  269   0.993  -0.030   0.822
   85SOL     OW  270   1.429   1.173   0.867
   85SOL    HW1  271   1.374   1.089   0.860
   85SOL    HW2  272   1.455   1.202   0.775
   86SOL     OW  273   1.466   0.590   0.992
   86SOL    HW1  274   1.436   0.495   0.999
   86SOL    HW2  275   1.539   0.606   1.058
   87SOL     OW  276   1.857   0.833   0.377
   87SOL    HW1  277   1.899   0.769   0.441
   87SOL    HW2  278   1.819   0.782   0.299
   88SOL     OW  279   0.488   1.385   0.174
   88SOL    HW1  280   0.401   1.370   0.221
   88SOL    HW2  281   0.471   1.411   0.079
   89SOL     OW  282   1.664   1.280   0.657
   89SOL    HW1  283   1.763   1.288   0.671
   89SOL    HW2  284   1.619   1.364   0.688
   90SOL     OW  285   1.390   0.575   0.078
   90SOL    HW1  286   1.336   0.554   0.159
   90SOL    HW2  287   1.481   0.534   0.087
   91SOL     OW  288   0.527   0.256   0.328
   91SOL    HW1  289   0.554   0.197   0.253
   91SOL    HW2  290   0.527   0.351   0.297
   92SOL     OW  291   1.064   1.347   1.340
   92SOL    HW1  292   0.984   1.324   1.395
   92SOL    HW2  293   1.147   1.321   1.389
   93SOL     OW  294   1.592   1.629   1.625
   93SOL    HW1  295   1.619   1.663   1.535
   93SOL    HW2  296   1.671   1.591   1.671
   94SOL     OW  297   1.111   1.195   1.100
   94SOL    HW1  298   1.071   1.239   1.181
   94SOL    HW2  299   1.070   1.232   1.017
   95SOL     OW  300   1.638   1.099   1.079
   95SOL    HW1  301   1.643   1.180   1.138
   95SOL    HW2  302   1.552   1.101   1.028
   96SOL     OW  303   0.915   0.089   1.402
   96SOL    HW1  304   0.940   0.069   1.307
   96SOL    HW2  305   0.987   0.145   1.444
   97SOL     OW  306   0.980   1.116   1.719
   97SOL    HW1  307   0.881   1.122   1.729
   97SOL    HW2  308   1.003   1.036   1.663
   98SOL     OW  309   0.705   1.050   0.368
   98SOL    HW1  310   0.691   1.057   0.467
   98SOL    HW2  311   0.789   0.999   0.350
   99SOL     OW  312   0.410   0.813   1.251
   99SOL    HW1  313   0.496   0.825   1.301
   99SOL    HW2  314   0.368   0.726   1.278
  100SOL     OW  315   1.274   0.386   1.262
  100SOL    HW1  316   1.295   0.460   1.326
  100SOL    HW2  317   1.185   0.403   1.219
  101SOL     OW  318   0.064   1.564   1.331
  101SOL    HW1  319   0.018   1.646   1.297
  101SOL    HW2  320   0.162   1.583   1.340
  102SOL     OW  321   0.367   1.100   0.501
  102SOL    HW1  322   0.360   1.183   0.445
  102SOL    HW2  323   0.371   1.020   0.441
  103SOL     OW  324   0.566   0.537   0.865
  103SOL    HW1  325   0.578   0.603   0.791
  103SOL    HW2  326   0.612   0.571   0.948
  104SOL     OW  327   1.252   1.348   0.388
  104SOL    HW1  328   1.302   1.425   0.428
  104SOL    HW2  329   1.157   1.350   0.420
  105SOL     OW  330   1.582   0.639   0.472
  105SOL    HW1  331   1.551   0.700   0.545
  105SOL    HW2  332   1.632   0.691   0.403
  106SOL     OW  333   0.354   1.510   1.329
  106SOL    HW1  334   0.333   1.466   1.242
  106SOL    HW2  335   0.451   1.536   1.332
  107SOL     OW  336   0.402   0.751   1.598
  107SOL    HW1  337   0.470   0.806   1.551
  107SOL    HW2  338   0.442   0.663   1.625
  108SOL     OW  339   1.587   0.779   1.670
  108SOL    HW1  340   1.495   0.817   1.665
  108SOL    HW2  341   1.647   0.826   1.605
  109SOL     OW  342   1.013   0.105   1.770
  109SOL    HW1  343   1.019   0.190   1.718
  109SOL    HW2  344   1.045   0.029   1.713
  110SOL     OW  345   0.504   0.050   1.740
  110SOL    HW1  346   0.462  -0.007   1.670
  110SOL    HW2  347   0.438   0.119   1.772
  111SOL     OW  348   0.573   0.870   1.029
  111SOL    HW1  349   0.617   0.959   1.020
  111SOL    HW2  350   0.510   0.870   1.106
  112SOL     OW  351   1.360   0.862   1.045
  112SOL    HW1  352   1.285   0.862   0.979
  112SOL    HW2  353   1.397   0.770   1.054
  113SOL     OW  354   1.209   0.525   0.275
  113SOL    HW1  355   1.222   0.441   0.329
  113SOL    HW2  356   1.180   0.599   0.335
  114SOL     OW  357   0.307   0.213   1.231
  114SOL    HW1  358   0.284   0.250   1.321
  114SOL    HW2  359   0.277   0.118   1.225
  115SOL     OW  360   0.037   1.310   1.282
  115SOL    HW1  361   0.090   1.261   1.350
  115SOL    HW2  362   0.059   1.408   1.287
  116SOL     OW  363   0.732   0.634   1.064
  116SOL    HW1  364   0.791   0.608   0.988
  116SOL    HW2  365   0.704   0.730   1.053
  117SOL     OW  366   1.728   0.935   1.854
  117SOL    HW1  367   1.682   0.928   1.765
  117SOL    HW2  368   1.666   0.979   1.920
  118SOL     OW  369   0.307   0.063   0.618
  118SOL    HW1  370   0.296   0.157   0.651
  118SOL    HW2  371   0.302   0.000   0.695
  119SOL     OW  372   1.622   0.367   0.374
  119SOL    HW1  373   1.624   0.291   0.438
  119SOL    HW2  374   1.574   0.444   0.414
  120SOL     OW  375   1.023   0.766   0.966
  120SOL    HW1  376   1.038   0.787   1.062
  120SOL    HW2  377   0.993   0.671   0.957
  121SOL     OW  378   0.980   1.573   1.700
  121SOL    HW1  379   0.960   1.617   1.612
  121SOL    HW2  380   1.019   1.482   1.684
  122SOL     OW  381   1.859   1.518   1.605
  122SOL    HW1  382   1.873   1.545   1.510
  122SOL    HW2  383   1.942   1.540   1.658
  123SOL     OW  384   0.350   0.898   1.804
  123SOL    HW1  385   0.426   0.942   1.852
  123SOL    HW2  386   0.385   0.851   1.722
  124SOL     OW  387   1.540   0.274   0.125
  124SOL    HW1  388   1.479   0.199   0.148
  124SOL    HW2  389   1.562   0.326   0.208
  125SOL     OW  390   1.303   0.838   0.042
  125SOL    HW1  391   1.337   0.745   0.057
  125SOL    HW2  392   1.321   0.865  -0.053
  126SOL     OW  393   1.068   1.333   0.849
  126SOL    HW1  394   1.075   1.249   0.794
  126SOL    HW2  395   1.130   1.402   0.813
  127SOL     OW  396   0.319   0.810   0.949
  127SOL    HW1  397   0.412   0.846   0.954
  127SOL    HW2  398   0.313   0.725   1.001
  128SOL     OW  399   0.339   0.509   1.006
  128SOL    HW1  400   0.287   0.426   0.989
  128SOL    HW2  401   0.416   0.514   0.942
  129SOL     OW  402   1.138   0.380   1.678
  129SOL    HW1  403   1.093   0.443   1.742
  129SOL    HW2  404   1.231   0.411   1.661
  130SOL     OW  405   1.160   0.207   1.477
  130SOL    HW1  406   1.160   0.271   1.554
  130SOL    HW2  407   1.188   0.255   1.394
  131SOL     OW  408   0.008   1.326   0.200
  131SOL    HW1  409  -0.085   1.347   0.169
  131SOL    HW2  410   0.018   1.227   0.213
  132SOL     OW  411   0.088   1.801   0.927
  132SOL    HW1  412   0.046   1.715   0.900
  132SOL    HW2  413   0.182   1.804   0.893
  133SOL     OW  414   0.504   1.568   0.910
  133SOL    HW1  415   0.570   1.642   0.919
  133SOL    HW2  416   0.548   1.489   0.868
  134SOL     OW  417   1.002   0.796   1.238
  134SOL    HW1  418   1.043   0.764   1.324
  134SOL    HW2  419   0.906   0.769   1.235
  135SOL     OW  420   0.040   0.544   1.114
  135SOL    HW1  421   0.125   0.511   1.073
  135SOL    HW2  422   0.053   0.559   1.212
  136SOL     OW  423   0.189   0.520   1.722
  136SOL    HW1  424   0.248   0.480   1.652
  136SOL    HW2  425   0.131   0.591   1.681
  137SOL     OW  426   1.369   0.950   1.660
  137SOL    HW1  427   1.408   1.039   1.680
  137SOL    HW2  428   1.379   0.930   1.563
  138SOL     OW  429   0.815   0.572   0.325
  138SOL    HW1  430   0.822   0.483   0.279
  138SOL    HW2  431   0.721   0.606   0.317
  139SOL     OW  432   1.657   0.604   1.206
  139SOL    HW1  433   1.619   0.535   1.268
  139SOL    HW2  434   1.739   0.568   1.162
  140SOL     OW  435   0.252   1.564   1.744
  140SOL    HW1  436   0.222   1.621   1.820
  140SOL    HW2  437   0.245   1.467   1.770
  141SOL     OW  438   0.671   0.464   1.269
  141SOL    HW1  439   0.637   0.375   1.239
  141SOL    HW2  440   0.697   0.518   1.189
  142SOL     OW  441   0.930   1.678   1.465
  142SOL    HW1  442   0.906   1.660   1.370
  142SOL    HW2  443   0.960   1.772   1.475
  143SOL     OW  444   0.473   0.500   0.191
  143SOL    HW1  445   0.534   0.580   0.195
  143SOL    HW2  446   0.378   0.531   0.198
  144SOL     OW  447   0.159   1.137   1.466
  144SOL    HW1  448   0.181   1.076   1.542
  144SOL    HW2  449   0.169   1.088   1.380
  145SOL     OW  450   1.347   1.059   1.234
  145SOL    HW1  451   1.371   0.996   1.160
  145SOL    HW2  452   1.257   1.099   1.216
  146SOL     OW  453   1.302   0.855   0.309
  146SOL    HW1  454   1.216   0.824   0.351
  146SOL    HW2  455   1.298   0.841   0.210
  147SOL     OW  456   1.759   1.747   1.154
  147SOL    HW1  457   1.820   1.777   1.081
  147SOL    HW2  458   1.721   1.658   1.132
  148SOL     OW  459   0.083   1.258   1.022
  148SOL    HW1  460   0.078   1.257   1.122
  148SOL    HW2  461   0.000   1.217   0.984
  149SOL     OW  462   0.688   1.662   1.716
  149SOL    HW1  463   0.632   1.743   1.725
  149SOL    HW2  464   0.740   1.666   1.630
  150SOL     OW  465   0.903   0.086   0.133
  150SOL    HW1  466   0.954   0.087   0.047
  150SOL    HW2  467   0.959   0.044   0.204
  151SOL     OW  468   1.726   0.135   0.523
  151SOL    HW1  469   1.799   0.118   0.456
  151SOL    HW2  470   1.695   0.048   0.561
  152SOL     OW  471   1.388   1.573   0.477
  152SOL    HW1  472   1.455   1.585   0.403
  152SOL    HW2  473   1.348   1.662   0.500
  153SOL     OW  474   0.130   1.794   1.851
  153SOL    HW1  475   0.089   1.720   1.904
  153SOL    HW2  476   0.194   1.845   1.909
  154SOL     OW  477   1.280   0.927   0.672
  154SOL    HW1  478   1.340   0.846   0.674
  154SOL    HW2  479   1.320   0.996   0.612
  155SOL     OW  480   0.830   1.273   1.422
  155SOL    HW1  481   0.825   1.306   1.517
  155SOL    HW2  482   0.744   1.292   1.376
  156SOL     OW  483   0.672   1.616   0.154
  156SOL    HW1  484   0.681   1.626   0.055
  156SOL    HW2  485   0.632   1.527   0.175
  157SOL     OW  486   1.650   1.720   1.394
  157SOL    HW1  487   1.703   1.730   1.310
  157SOL    HW2  488   1.623   1.810   1.428
  158SOL     OW  489   1.841   0.175   0.963
  158SOL    HW1  490   1.880   0.090   0.927
  158SOL    HW2  491   1.743   0.177   0.944
  159SOL     OW  492   0.263   0.326   0.720
  159SOL    HW1  493   0.184   0.377   0.686
  159SOL    HW2  494   0.254   0.311   0.818
  160SOL     OW  495   1.194   1.612   0.031
  160SOL    HW1  496   1.200   1.519   0.068
  160SOL    HW2  497   1.135   1.612  -0.049
  161SOL     OW  498   0.822   1.002   1.372
  161SOL    HW1  499   0.862   1.001   1.280
  161SOL    HW2  500   0.832   1.094   1.412
  162SOL     OW  501   0.916   0.910   0.291
  162SOL    HW1  502   0.979   0.948   0.223
  162SOL    HW2  503   0.956   0.827   0.330
  163SOL     OW  504   1.504   1.607   0.044
  163SOL    HW1  505   1.412   1.644   0.051
  163SOL    HW2  506   1.542   1.627  -0.046
  164SOL     OW  507   0.372   1.288   1.490
  164SOL    HW1  508   0.359   1.381   1.456
  164SOL    HW2  509   0.288   1.236   1.477
  165SOL     OW  510   1.039   1.098   0.696
  165SOL    HW1  511   0.969   1.051   0.750
  165SOL    HW2  512   1.098   1.030   0.653
  166SOL     OW  513   1.014   0.236   0.971
  166SOL    HW1  514   1.006   0.200   0.878
  166SOL    HW2  515   1.012   0.160   1.036
  167SOL     OW  516   0.590   1.487   0.491
  167SOL    HW1  517   0.632   1.429   0.421
  167SOL    HW2  518   0.546   1.566   0.447
  168SOL     OW  519   1.709   0.385   1.381
  168SOL    HW1  520   1.782   0.454   1.385
  168SOL    HW2  521   1.737   0.310   1.322
  169SOL     OW  522   0.255   1.348   0.290
  169SOL    HW1  523   0.159   1.349   0.263
  169SOL    HW2  524   0.267   1.401   0.374
  170SOL     OW  525   0.105   1.013   1.726
  170SOL    HW1  526   0.028   0.980   1.780
  170SOL    HW2  527   0.190   0.983   1.768
  171SOL     OW  528   0.672   0.203   1.489
  171SOL    HW1  529   0.762   0.187   1.449
  171SOL    HW2  530   0.680   0.208   1.588
  172SOL     OW  531   0.075   0.345   0.033
  172SOL    HW1  532  -0.017   0.317   0.004
  172SOL    HW2  533   0.106   0.422  -0.023
  173SOL     OW  534   1.440   0.856   1.398
  173SOL    HW1  535   1.383   0.908   1.335
  173SOL    HW2  536   1.536   0.868   1.374
  174SOL     OW  537   0.072   0.166   0.318
  174SOL    HW1  538   0.055   0.249   0.264
  174SOL    HW2  539   0.162   0.129   0.296
  175SOL     OW  540   1.183   1.335   0.119
  175SOL    HW1  541   1.084   1.324   0.121
  175SOL    HW2  542   1.217   1.350   0.212
  176SOL     OW  543   0.613   0.842   1.431
  176SOL    HW1  544   0.669   0.923   1.414
  176SOL    HW2  545   0.672   0.762   1.434
  177SOL     OW  546   1.493   1.767   0.959
  177SOL    HW1  547   1.526   1.831   0.890
  177SOL    HW2  548   1.559   1.761   1.034
  178SOL     OW  549   0.716   0.565   1.708
  178SOL    HW1  550   0.735   0.630   1.782
  178SOL    HW2  551   0.776   0.485   1.717
  179SOL     OW  552   0.390   1.741   1.560
  179SOL    HW1  553   0.299   1.782   1.558
  179SOL    HW2  554   0.383   1.647   1.592
  180SOL     OW  555   1.674   0.883   1.254
  180SOL    HW1  556   1.647   0.794   1.217
  180SOL    HW2  557   1.675   0.951   1.181
  181SOL     OW  558   1.225   0.325   0.449
  181SOL    HW1  559   1.290   0.251   0.438
  181SOL    HW2  560   1.245   0.375   0.533
  182SOL     OW  561   0.594   0.745   0.652
  182SOL    HW1  562   0.644   0.830   0.633
  182SOL    HW2  563   0.506   0.747   0.604
  183SOL     OW  564   1.777   0.342   1.642
  183SOL    HW1  565   1.760   0.373   1.548
  183SOL    HW2  566   1.693   0.305   1.680
  184SOL     OW  567   1.730   0.934   1.517
  184SOL    HW1  568   1.768   1.025   1.532
  184SOL    HW2  569   1.722   0.917   1.418
  185SOL     OW  570   0.859   1.374   0.016
  185SOL    HW1  571   0.813   1.389   0.104
  185SOL    HW2  572   0.903   1.459  -0.014
  186SOL     OW  573   0.661   1.790   0.953
  186SOL    HW1  574   0.615   1.878   0.940
  186SOL    HW2  575   0.760   1.802   0.946
  187SOL     OW  576   0.859   0.956   0.861
  187SOL    HW1  577   0.913   0.887   0.909
  187SOL    HW2  578   0.827   1.025   0.927
  188SOL     OW  579   1.083   0.984   0.087
  188SOL    HW1  580   1.060   1.037   0.005
  188SOL    HW2  581   1.164   0.928   0.068
  189SOL     OW  582   1.861   1.569   0.851
  189SOL    HW1  583   1.790   1.557   0.781
  189SOL    HW2  584   1.862   1.490   0.911
  190SOL     OW  585   0.221   1.314   1.844
  190SOL    HW1  586   0.156   1.241   1.823
  190SOL    HW2  587   0.225   1.328   1.942
  191SOL     OW  588   0.079   1.240   0.653
  191SOL    HW1  589   0.078   1.193   0.741
  191SOL    HW2  590   0.161   1.212   0.602
  192SOL     OW  591   0.672   1.391   1.624
  192SOL    HW1  592   0.594   1.341   1.662
  192SOL    HW2  593   0.669   1.486   1.655
  193SOL     OW  594   1.824   0.192   1.227
  193SOL    HW1  595   1.820   0.102   1.271
  193SOL    HW2  596   1.827   0.181   1.128
  194SOL     OW  597   0.428   0.424   0.520
  194SOL    HW1  598   0.458   0.352   0.458
  194SOL    HW2  599   0.389   0.384   0.603
  195SOL     OW  600   0.317   0.547   1.280
  195SOL    HW1  601   0.355   0.488   1.352
  195SOL    HW2  602   0.357   0.521   1.192
  196SOL     OW  603   0.812   1.586   0.687
  196SOL    HW1  604   0.844   1.596   0.593
  196SOL    HW2  605   0.733   1.524   0.689
  197SOL     OW  606   1.424   0.214   1.112
  197SOL    HW1  607   1.476   0.149   1.167
  197SOL    HW2  608   1.375   0.277   1.173
  198SOL     OW  609   1.001   0.034   1.154
  198SOL    HW1  610   0.938  -0.038   1.123
  198SOL    HW2  611   1.094  -0.002   1.154
  199SOL     OW  612   0.770   1.330   0.301
  199SOL    HW1  613   0.724   1.243   0.318
  199SOL    HW2  614   0.861   1.327   0.342
  200SOL     OW  615   0.618   1.567   1.284
  200SOL    HW1  616   0.613   1.649   1.341
  200SOL    HW2  617   0.707   1.564   1.239
  201SOL     OW  618   1.352   0.052   0.168
  201SOL    HW1  619   1.387   0.011   0.084
  201SOL    HW2  620   1.262   0.014   0.188
  202SOL     OW  621   1.300   0.453   0.691
  202SOL    HW1  622   1.241   0.533   0.695
  202SOL    HW2  623   1.315   0.418   0.784
  203SOL     OW  624   1.593   0.221   0.882
  203SOL    HW1  625   1.509   0.220   0.936
  203SOL    HW2  626   1.595   0.304   0.826
  204SOL     OW  627   0.039   1.077   0.300
  204SOL    HW1  628   0.138   1.066   0.291
  204SOL    HW2  629  -0.001   0.991   0.332
  205SOL     OW  630   0.875   1.646   0.337
  205SOL    HW1  631   0.798   1.611   0.283
  205SOL    HW2  632   0.843   1.717   0.399
  206SOL     OW  633   0.230   0.628   1.975
  206SOL    HW1  634   0.137   0.626   2.012
  206SOL    HW2  635   0.231   0.589   1.883
  207SOL     OW  636   0.019   0.368   2.509
  207SOL    HW1  637  -0.063   0.411   2.548
  207SOL    HW2  638  -0.009   0.295   2.446
  208SOL     OW  639   1.555   1.511   2.565
  208SOL    HW1  640   1.498   1.495   2.646
  208SOL    HW2  641   1.496   1.521   2.485
  209SOL     OW  642   1.135   0.703   2.579
  209SOL    HW1  643   1.192   0.781   2.554
  209SOL    HW2  644   1.075   0.729   2.655
  210SOL     OW  645   1.755   0.607   2.093
  210SOL    HW1  646   1.743   0.594   1.994
  210SOL    HW2  647   1.725   0.526   2.142
  211SOL     OW  648   0.685   1.012   2.527
  211SOL    HW1  649   0.754   0.996   2.597
  211SOL    HW2  650   0.612   1.069   2.565
  212SOL     OW  651   1.603   0.447   2.599
  212SOL    HW1  652   1.529   0.493   2.549
  212SOL    HW2  653   1.654   0.515   2.652
  213SOL     OW  654   0.231   1.713   2.345
  213SOL    HW1  655   0.265   1.790   2.399
  213SOL    HW2  656   0.275   1.713   2.255
  214SOL     OW  657   0.230   1.434   2.400
  214SOL    HW1  658   0.204   1.530   2.400
  214SOL    HW2  659   0.159   1.380   2.445
  215SOL     OW  660   0.240   1.091   2.748
  215SOL    HW1  661   0.254   1.007   2.800
  215SOL    HW2  662   0.185   1.155   2.803
  216SOL     OW  663   0.606   0.964   1.985
  216SOL    HW1  664   0.613   1.048   1.931
  216SOL    HW2  665   0.652   0.977   2.073
  217SOL     OW  666   0.122   0.643   2.425
  217SOL    HW1  667   0.077   0.555   2.442
  217SOL    HW2  668   0.121   0.697   2.509
  218SOL     OW  669   1.842   1.767   2.221
  218SOL    HW1  670   1.896   1.738   2.301
  218SOL    HW2  671   1.872   1.857   2.192
  219SOL     OW  672   0.027   1.596   1.979
  219SOL    HW1  673   0.008   1.500   2.000
  219SOL    HW2  674  -0.006   1.654   2.054
  220SOL     OW  675   1.689   0.922   2.474
  220SOL    HW1  676   1.784   0.893   2.482
  220SOL    HW2  677   1.681   0.987   2.399
  221SOL     OW  678   1.641   1.108   2.294
  221SOL    HW1  679   1.727   1.110   2.242
  221SOL    HW2  680   1.655   1.155   2.382
  222SOL     OW  681   0.613   1.365   2.588
  222SOL    HW1  682   0.564   1.278   2.597
  222SOL    HW2  683   0.590   1.408   2.501
  223SOL     OW  684   0.809   0.004   2.364
  223SOL    HW1  685   0.849   0.095   2.355
  223SOL    HW2  686   0.709   0.012   2.370
  224SOL     OW  687   1.525   0.999   2.052
  224SOL    HW1  688   1.462   0.923   2.065
  224SOL    HW2  689   1.573   1.017   2.138
  225SOL     OW  690   1.466   1.417   2.815
  225SOL    HW1  691   1.407   1.423   2.895
  225SOL    HW2  692   1.451   1.329   2.769
  226SOL     OW  693   1.667   1.714   2.434
  226SOL    HW1  694   1.626   1.691   2.346
  226SOL    HW2  695   1.649   1.640   2.499
  227SOL     OW  696   0.598   0.729   2.132
  227SOL    HW1  697   0.622   0.798   2.064
  227SOL    HW2  698   0.520   0.762   2.186
  228SOL     OW  699   1.281   0.345   2.806
  228SOL    HW1  700   1.195   0.295   2.793
  228SOL    HW2  701   1.343   0.291   2.862
  229SOL     OW  702   1.576   1.662   2.169
  229SOL    HW1  703   1.665   1.708   2.172
  229SOL    HW2  704   1.555   1.638   2.074
  230SOL     OW  705   1.041   0.701   2.291
  230SOL    HW1  706   1.067   0.697   2.387
  230SOL    HW2  707   0.956   0.650   2.277
  231SOL     OW  708   0.076   0.811   2.651
  231SOL    HW1  709   0.175   0.799   2.660
  231SOL    HW2  710   0.052   0.906   2.672
  232SOL     OW  711   0.865   0.348   2.057
  232SOL    HW1  712   0.924   0.411   2.008
  232SOL    HW2  713   0.884   0.254   2.028
  233SOL     OW  714   1.362   1.144   2.407
  233SOL    HW1  715   1.445   1.115   2.359
  233SOL    HW2  716   1.313   1.211   2.351
  234SOL     OW  717   1.008   1.456   2.339
  234SOL    HW1  718   0.962   1.528   2.287
  234SOL    HW2  719   1.004   1.476   2.437
  235SOL     OW  720   0.351   1.801   2.715
  235SOL    HW1  721   0.401   1.715   2.721
  235SOL    HW2  722   0.416   1.878   2.712
  236SOL     OW  723   1.795   1.066   2.735
  236SOL    HW1  724   1.733   1.051   2.659
  236SOL    HW2  725   1.743   1.077   2.820
  237SOL     OW  726   0.321   0.943   2.104
  237SOL    HW1  727   0.403   0.982   2.062
  237SOL    HW2  728   0.294   0.861   2.055
  238SOL     OW  729   1.458   0.735   2.590
  238SOL    HW1  730   1.453   0.670   2.665
  238SOL    HW2  731   1.538   0.794   2.603
  239SOL     OW  732   1.111   1.776   2.099
  239SOL    HW1  733   1.051   1.714   2.149
  239SOL    HW2  734   1.142   1.732   2.014
  240SOL     OW  735   1.632   1.377   1.943
  240SOL    HW1  736   1.600   1.471   1.933
  240SOL    HW2  737   1.556   1.314   1.931
  241SOL     OW  738   0.464   1.743   2.185
  241SOL    HW1  739   0.497   1.782   2.271
  241SOL    HW2  740   0.540   1.736   2.120
  242SOL     OW  741   1.400   0.107   2.288
  242SOL    HW1  742   1.376   0.070   2.198
  242SOL    HW2  743   1.499   0.123   2.292
  243SOL     OW  744   0.382   0.700   2.342
  243SOL    HW1  745   0.427   0.610   2.339
  243SOL    HW2  746   0.288   0.689   2.375
  244SOL     OW  747   0.614   0.122   1.979
  244SOL    HW1  748   0.712   0.100   1.986
  244SOL    HW2  749   0.583   0.105   1.886
  245SOL     OW  750   0.539   0.064   2.374
  245SOL    HW1  751   0.458   0.065   2.432
  245SOL    HW2  752   0.542   0.147   2.319
  246SOL     OW  753   1.434   1.188   1.903
  246SOL    HW1  754   1.466   1.112   1.960
  246SOL    HW2  755   1.342   1.215   1.933
  247SOL     OW  756   0.297   0.035   2.033
  247SOL    HW1  757   0.346   0.119   2.012
  247SOL    HW2  758   0.359  -0.030   2.078
  248SOL     OW  759   0.935   0.236   2.342
  248SOL    HW1  760   0.887   0.277   2.264
  248SOL    HW2  761   1.034   0.234   2.323
  249SOL     OW  762   0.459   1.152   2.603
  249SOL    HW1  763   0.388   1.125   2.668
  249SOL    HW2  764   0.433   1.124   2.510
  250SOL     OW  765   1.271   1.797   2.453
  250SOL    HW1  766   1.315   1.861   2.389
  250SOL    HW2  767   1.221   1.849   2.523
  251SOL     OW  768   1.032   0.549   1.878
  251SOL    HW1  769   0.991   0.631   1.839
  251SOL    HW2  770   1.096   0.575   1.951
  252SOL     OW  771   0.866   0.454   2.504
  252SOL    HW1  772   0.834   0.526   2.442
  252SOL    HW2  773   0.890   0.373   2.451
  253SOL     OW  774   1.017   0.039   2.615
  253SOL    HW1  775   0.945   0.044   2.546
  253SOL    HW2  776   0.993  -0.030   2.684
  254SOL     OW  777   1.857   0.833   2.239
  254SOL    HW1  778   1.899   0.769   2.303
  254SOL    HW2  779   1.819   0.782   2.161
  255SOL     OW  780   0.488   1.385   2.036
  255SOL    HW1  781   0.401   1.370   2.083
  255SOL    HW2  782   0.471   1.411   1.941
  256SOL     OW  783   1.664   1.280   2.519
  256SOL    HW1  784   1.763   1.288   2.533
  256SOL    HW2  785   1.619   1.364   2.550
  257SOL     OW  786   1.390   0.575   1.940
  257SOL    HW1  787   1.336   0.554   2.021
  257SOL    HW2  788   1.481   0.534   1.949
  258SOL     OW  789   0.527   0.256   2.190
  258SOL    HW1  790   0.554   0.197   2.115
  258SOL    HW2  791   0.527   0.351   2.159
  259SOL     OW  792   0.705   1.050   2.230
  259SOL    HW1  793   0.691   1.057   2.329
  259SOL    HW2  794   0.789   0.999   2.212
  260SOL     OW  795   0.367   1.100   2.363
  260SOL    HW1  796   0.360   1.183   2.307
  260SOL    HW2  797   0.371   1.020   2.303
  261SOL     OW  798   0.566   0.537   2.727
  261SOL    HW1  799   0.578   0.603   2.653
  261SOL    HW2  800   0.612   0.571   2.810
  262SOL     OW  801   1.252   1.348   2.250
  262SOL    HW1  802   1.302   1.425   2.290
  262SOL    HW2  803   1.157   1.350   2.282
  263SOL     OW  804   1.582   0.639   2.334
  263SOL    HW1  805   1.551   0.700   2.407
  263SOL    HW2  806   1.632   0.691   2.265
  264SOL     OW  807   1.209   0.525   2.137
  264SOL    HW1  808   1.222   0.441   2.191
  264SOL    HW2  809   1.180   0.599   2.197
  265SOL     OW  810   0.732   0.634   2.926
  265SOL    HW1  811   0.791   0.608   2.850
  265SOL    HW2  812   0.704   0.730   2.915
  266SOL     OW  813   0.307   0.063   2.480
  266SOL    HW1  814   0.296   0.157   2.513
  266SOL    HW2  815   0.302   0.000   2.557
  267SOL     OW  816   1.622   0.367   2.236
  267SOL    HW1  817   1.624   0.291   2.300
  267SOL    HW2  818   1.574   0.444   2.276
  268SOL     OW  819   1.540   0.274   1.987
  268SOL    HW1  820   1.479   0.199   2.010
  268SOL    HW2  821   1.562   0.326   2.070
  269SOL     OW  822   1.303   0.838   1.904
  269SOL    HW1  823   1.337   0.745   1.919
  269SOL    HW2  824   1.321   0.865   1.809
  270SOL     OW  825   1.068   1.333   2.711
  270SOL    HW1  826   1.075   1.249   2.656
  270SOL    HW2  827   1.130   1.402   2.675
  271SOL     OW  828   0.008   1.326   2.062
  271SOL    HW1  829  -0.085   1.347   2.031
  271SOL    HW2  830   0.018   1.227   2.075
  272SOL     OW  831   0.088   1.801   2.789
  272SOL    HW1  832   0.046   1.715   2.762
  272SOL    HW2  833   0.182   1.804   2.755
  273SOL     OW  834   0.504   1.568   2.772
  273SOL    HW1  835   0.570   1.642   2.781
  273SOL    HW2  836   0.548   1.489   2.730
  274SOL     OW  837   0.815   0.572   2.187
  274SOL    HW1  838   0.822   0.483   2.141
  274SOL    HW2  839   0.721   0.606   2.179
  275SOL     OW  840   0.473   0.500   2.053
  275SOL    HW1  841   0.534   0.580   2.057
  275SOL    HW2  842   0.378   0.531   2.060
  276SOL     OW  843   1.302   0.855   2.171
  276SOL    HW1  844   1.216   0.824   2.213
  276SOL    HW2  845   1.298   0.841   2.072
  277SOL     OW  846   1.726   0.135   2.385
  277SOL    HW1  847   1.799   0.118   2.318
  277SOL    HW2  848   1.695   0.048   2.423
  278SOL     OW  849   1.388   1.573   2.339
  278SOL    HW1  850   1.455   1.585   2.265
  278SOL    HW2  851   1.348   1.662   2.362
  279SOL     OW  852   1.280   0.927   2.534
  279SOL    HW1  853   1.340   0.846   2.536
  279SOL    HW2  854   1.320   0.996   2.474
  280SOL     OW  855   0.672   1.616   2.016
  280SOL    HW1  856   0.681   1.626   1.917
  280SOL    HW2  857   0.632   1.527   2.037
  281SOL     OW  858   1.841   0.175   2.825
  281SOL    HW1  859   1.880   0.090   2.789
  281SOL    HW2  860   1.743   0.177   2.806
  282SOL     OW  861   0.263   0.326   2.582
  282SOL    HW1  862   0.184   0.377   2.548
  282SOL    HW2  863   0.254   0.311   2.680
  283SOL     OW  864   1.194   1.612   1.893
  283SOL    HW1  865   1.200   1.519   1.930
  283SOL    HW2  866   1.135   1.612   1.813
  284SOL     OW  867   0.916   0.910   2.153
  284SOL    HW1  868   0.979   0.948   2.085
  284SOL    HW2  869   0.956   0.827   2.192
  285SOL     OW  870   1.504   1.607   1.906
  285SOL    HW1  871   1.412   1.644   1.913
  285SOL    HW2  872   1.542   1.627   1.816
  286SOL     OW  873   1.039   1.098   2.558
  286SOL    HW1  874   0.969   1.051   2.612
  286SOL    HW2  875   1.098   1.030   2.515
  287SOL     OW  876   0.590   1.487   2.353
  287SOL    HW1  877   0.632   1.429   2.283
  287SOL    HW2  878   0.546   1.566   2.309
  288SOL     OW  879   0.255   1.348   2.152
  288SOL    HW1  880   0.159   1.349   2.125
  288SOL    HW2  881   0.267   1.401   2.236
  289SOL     OW  882   0.075   0.345   1.895
  289SOL    HW1  883  -0.017   0.317   1.866
  289SOL    HW2  884   0.106   0.422   1.839
  290SOL     OW  885   0.072   0.166   2.180
  290SOL    HW1  886   0.055   0.249   2.126
  290SOL    HW2  887   0.162   0.129   2.158
  291SOL     OW  888   1.183   1.335   1.981
  291SOL    HW1  889   1.084   1.324   1.983
  291SOL    HW2  890   1.217   1.350   2.074
  292SOL     OW  891   1.225   0.325   2.311
  292SOL    HW1  892   1.290   0.251   2.300
  292SOL    HW2  893   1.245   0.375   2.395
  293SOL     OW  894   0.594   0.745   2.514
  293SOL    HW1  895   0.644   0.830   2.495
  293SOL    HW2  896   0.506   0.747   2.466
  294SOL     OW  897   0.859   1.374   1.878
  294SOL    HW1  898   0.813   1.389   1.966
  294SOL    HW2  899   0.903   1.459   1.848
  295SOL     OW  900   0.661   1.790   2.815
  295SOL    HW1  901   0.615   1.878   2.802
  295SOL    HW2  902   0.760   1.802   2.808
  296SOL     OW  903   0.859   0.956   2.723
  296SOL    HW1  904   0.913   0.887   2.771
  296SOL    HW2  905   0.827   1.025   2.789
  297SOL     OW  906   1.083   0.984   1.949
  297SOL    HW1  907   1.060   1.037   1.867
  297SOL    HW2  908   1.164   0.928   1.930
  298SOL     OW  909   1.861   1.569   2.713
  298SOL    HW1  910   1.790   1.557   2.643
  298SOL    HW2  911   1.862   1.490   2.773
  299SOL     OW  912   0.079   1.240   2.515
  299SOL    HW1  913   0.078   1.193   2.603
  299SOL    HW2  914   0.161   1.212   2.464
  300SOL     OW  915   1.824   0.192   3.089
  300SOL    HW1  916   1.820   0.102   3.133
  300SOL    HW2  917   1.827   0.181   2.990
  301SOL     OW  918   0.428   0.424   2.382
  301SOL    HW1  919   0.458   0.352   2.320
  301SOL    HW2  920   0.389   0.384   2.465
  302SOL     OW  921   0.812   1.586   2.549
  302SOL    HW1  922   0.844   1.596   2.455
  302SOL    HW2  923   0.733   1.524   2.551
  303SOL     OW  924   0.770   1.330   2.163
  303SOL    HW1  925   0.724   1.243   2.180
  303SOL    HW2  926   0.861   1.327   2.204
  304SOL     OW  927   1.352   0.052   2.030
  304SOL    HW1  928   1.387   0.011   1.946
  304SOL    HW2  929   1.262   0.014   2.050
  305SOL     OW  930   1.300   0.453   2.553
  305SOL    HW1  931   1.241   0.533   2.557
  305SOL    HW2  932   1.315   0.418   2.646
  306SOL     OW  933   1.593   0.221   2.744
  306SOL    HW1  934   1.509   0.220   2.798
  306SOL    HW2  935   1.595   0.304   2.688
  307SOL     OW  936   0.039   1.077   2.162
  307SOL    HW1  937   0.138   1.066   2.153
  307SOL    HW2  938  -0.001   0.991   2.194
  308SOL     OW  939   0.875   1.646   2.199
  308SOL    HW1  940   0.798   1.611   2.145
  308SOL    HW2  941   0.843   1.717   2.261
  309SOL     OW  942   0.230   2.490   0.113
  309SOL    HW1  943   0.137   2.488   0.150
  309SOL    HW2  944   0.231   2.451   0.021
  310SOL     OW  945   0.225   2.137   0.996
  310SOL    HW1  946   0.260   2.120   1.088
  310SOL    HW2  947   0.137   2.092   0.984
  311SOL     OW  948   0.019   2.230   0.647
  311SOL    HW1  949  -0.063   2.273   0.686
  311SOL    HW2  950  -0.009   2.157   0.584
  312SOL     OW  951   1.135   2.565   0.717
  312SOL    HW1  952   1.192   2.643   0.692
  312SOL    HW2  953   1.075   2.591   0.793
  313SOL     OW  954   1.755   2.469   0.231
  313SOL    HW1  955   1.743   2.456   0.132
  313SOL    HW2  956   1.725   2.388   0.280
  314SOL     OW  957   0.850   2.660   1.823
  314SOL    HW1  958   0.846   2.736   1.888
  314SOL    HW2  959   0.872   2.696   1.732
  315SOL     OW  960   0.685   2.874   0.665
  315SOL    HW1  961   0.754   2.858   0.735
  315SOL    HW2  962   0.612   2.931   0.703
  316SOL     OW  963   0.438   2.254   1.499
  316SOL    HW1  964   0.520   2.198   1.508
  316SOL    HW2  965   0.357   2.196   1.503
  317SOL     OW  966   1.603   2.309   0.737
  317SOL    HW1  967   1.529   2.355   0.687
  317SOL    HW2  968   1.654   2.377   0.790
  318SOL     OW  969   1.594   1.976   1.480
  318SOL    HW1  970   1.576   2.043   1.408
  318SOL    HW2  971   1.591   2.022   1.569
  319SOL     OW  972   0.122   2.505   0.563
  319SOL    HW1  973   0.077   2.417   0.580
  319SOL    HW2  974   0.121   2.559   0.647
  320SOL     OW  975   0.113   2.599   1.597
  320SOL    HW1  976   0.201   2.586   1.642
  320SOL    HW2  977   0.100   2.696   1.575
  321SOL     OW  978   0.809   1.866   0.502
  321SOL    HW1  979   0.849   1.957   0.493
  321SOL    HW2  980   0.709   1.874   0.508
  322SOL     OW  981   0.317   2.113   1.801
  322SOL    HW1  982   0.388   2.184   1.807
  322SOL    HW2  983   0.229   2.152   1.829
  323SOL     OW  984   0.598   2.591   0.270
  323SOL    HW1  985   0.622   2.660   0.202
  323SOL    HW2  986   0.520   2.624   0.324
  324SOL     OW  987   1.281   2.207   0.944
  324SOL    HW1  988   1.195   2.157   0.931
  324SOL    HW2  989   1.343   2.153   1.000
  325SOL     OW  990   0.807   2.467   1.465
  325SOL    HW1  991   0.760   2.464   1.554
  325SOL    HW2  992   0.756   2.412   1.399
  326SOL     OW  993   1.394   2.331   1.674
  326SOL    HW1  994   1.374   2.374   1.762
  326SOL    HW2  995   1.472   2.269   1.683
  327SOL     OW  996   0.991   2.272   1.242
  327SOL    HW1  997   0.914   2.306   1.296
  327SOL    HW2  998   0.957   2.221   1.163
  328SOL     OW  999   1.041   2.563   0.429
  328SOL    HW1 1000   1.067   2.559   0.525
  328SOL    HW2 1001   0.956   2.512   0.415
  329SOL     OW 1002   0.076   2.673   0.789
  329SOL    HW1 1003   0.175   2.661   0.798
  329SOL    HW2 1004   0.052   2.768   0.810
  330SOL     OW 1005   0.865   2.210   0.195
  330SOL    HW1 1006   0.924   2.273   0.146
  330SOL    HW2 1007   0.884   2.116   0.166
  331SOL     OW 1008   1.719   2.447   1.831
  331SOL    HW1 1009   1.693   2.536   1.795
  331SOL    HW2 1010   1.717   2.379   1.758
  332SOL     OW 1011   0.550   2.058   0.885
  332SOL    HW1 1012   0.545   2.053   0.985
  332SOL    HW2 1013   0.552   2.154   0.856
  333SOL     OW 1014   1.458   2.597   0.728
  333SOL    HW1 1015   1.453   2.532   0.803
  333SOL    HW2 1016   1.538   2.656   0.741
  334SOL     OW 1017   0.202   2.147   1.498
  334SOL    HW1 1018   0.122   2.207   1.485
  334SOL    HW2 1019   0.192   2.098   1.584
  335SOL     OW 1020   1.400   1.969   0.426
  335SOL    HW1 1021   1.376   1.932   0.336
  335SOL    HW2 1022   1.499   1.985   0.430
  336SOL     OW 1023   0.382   2.562   0.480
  336SOL    HW1 1024   0.427   2.472   0.477
  336SOL    HW2 1025   0.288   2.551   0.513
  337SOL     OW 1026   1.547   2.084   1.729
  337SOL    HW1 1027   1.542   2.121   1.821
  337SOL    HW2 1028   1.475   2.015   1.717
  338SOL     OW 1029   0.781   2.126   1.749
  338SOL    HW1 1030   0.848   2.065   1.792
  338SOL    HW2 1031   0.708   2.145   1.814
  339SOL     OW 1032   1.351   2.452   1.433
  339SOL    HW1 1033   1.379   2.409   1.518
  339SOL    HW2 1034   1.376   2.548   1.434
  340SOL     OW 1035   0.922   2.365   0.899
  340SOL    HW1 1036   0.897   2.356   0.803
  340SOL    HW2 1037   0.970   2.283   0.930
  341SOL     OW 1038   0.539   1.926   0.512
  341SOL    HW1 1039   0.458   1.927   0.570
  341SOL    HW2 1040   0.542   2.009   0.457
  342SOL     OW 1041   0.297   1.897   0.171
  342SOL    HW1 1042   0.346   1.981   0.150
  342SOL    HW2 1043   0.359   1.832   0.216
  343SOL     OW 1044   0.935   2.098   0.480
  343SOL    HW1 1045   0.887   2.139   0.402
  343SOL    HW2 1046   1.034   2.096   0.461
  344SOL     OW 1047   1.076   2.545   1.464
  344SOL    HW1 1048   0.996   2.484   1.467
  344SOL    HW2 1049   1.157   2.492   1.440
  345SOL     OW 1050   1.032   2.411   0.016
  345SOL    HW1 1051   0.991   2.493  -0.023
  345SOL    HW2 1052   1.096   2.437   0.089
  346SOL     OW 1053   0.078   2.418   1.386
  346SOL    HW1 1054   0.170   2.417   1.345
  346SOL    HW2 1055   0.072   2.492   1.453
  347SOL     OW 1056   0.561   2.084   1.147
  347SOL    HW1 1057   0.599   2.000   1.184
  347SOL    HW2 1058   0.473   2.103   1.191
  348SOL     OW 1059   0.866   2.316   0.642
  348SOL    HW1 1060   0.834   2.388   0.580
  348SOL    HW2 1061   0.890   2.235   0.589
  349SOL     OW 1062   1.017   1.901   0.753
  349SOL    HW1 1063   0.945   1.906   0.684
  349SOL    HW2 1064   0.993   1.832   0.822
  350SOL     OW 1065   1.466   2.452   0.992
  350SOL    HW1 1066   1.436   2.357   0.999
  350SOL    HW2 1067   1.539   2.468   1.058
  351SOL     OW 1068   1.857   2.695   0.377
  351SOL    HW1 1069   1.899   2.631   0.441
  351SOL    HW2 1070   1.819   2.644   0.299
  352SOL     OW 1071   1.390   2.437   0.078
  352SOL    HW1 1072   1.336   2.416   0.159
  352SOL    HW2 1073   1.481   2.396   0.087
  353SOL     OW 1074   0.527   2.118   0.328
  353SOL    HW1 1075   0.554   2.059   0.253
  353SOL    HW2 1076   0.527   2.213   0.297
  354SOL     OW 1077   0.915   1.951   1.402
  354SOL    HW1 1078   0.940   1.931   1.307
  354SOL    HW2 1079   0.987   2.007   1.444
  355SOL     OW 1080   0.410   2.675   1.251
  355SOL    HW1 1081   0.496   2.687   1.301
  355SOL    HW2 1082   0.368   2.588   1.278
  356SOL     OW 1083   1.274   2.248   1.262
  356SOL    HW1 1084   1.295   2.322   1.326
  356SOL    HW2 1085   1.185   2.265   1.219
  357SOL     OW 1086   0.566   2.399   0.865
  357SOL    HW1 1087   0.578   2.465   0.791
  357SOL    HW2 1088   0.612   2.433   0.948
  358SOL     OW 1089   1.582   2.501   0.472
  358SOL    HW1 1090   1.551   2.562   0.545
  358SOL    HW2 1091   1.632   2.553   0.403
  359SOL     OW 1092   0.402   2.613   1.598
  359SOL    HW1 1093   0.470   2.668   1.551
  359SOL    HW2 1094   0.442   2.525   1.625
  360SOL     OW 1095   1.587   2.641   1.670
  360SOL    HW1 1096   1.495   2.679   1.665
  360SOL    HW2 1097   1.647   2.688   1.605
  361SOL     OW 1098   1.013   1.967   1.770
  361SOL    HW1 1099   1.019   2.052   1.718
  361SOL    HW2 1100   1.045   1.891   1.713
  362SOL     OW 1101   0.504   1.912   1.740
  362SOL    HW1 1102   0.462   1.855   1.670
  362SOL    HW2 1103   0.438   1.981   1.772
  363SOL     OW 1104   0.573   2.732   1.029
  363SOL    HW1 1105   0.617   2.821   1.020
  363SOL    HW2 1106   0.510   2.732   1.106
  364SOL     OW 1107   1.360   2.724   1.045
  364SOL    HW1 1108   1.285   2.724   0.979
  364SOL    HW2 1109   1.397   2.632   1.054
  365SOL     OW 1110   1.209   2.387   0.275
  365SOL    HW1 1111   1.222   2.303   0.329
  365SOL    HW2 1112   1.180   2.461   0.335
  366SOL     OW 1113   0.307   2.075   1.231
  366SOL    HW1 1114   0.284   2.112   1.321
  366SOL    HW2 1115   0.277   1.980   1.225
  367SOL     OW 1116   0.732   2.496   1.064
  367SOL    HW1 1117   0.791   2.470   0.988
  367SOL    HW2 1118   0.704   2.592   1.053
  368SOL     OW 1119   1.728   2.797   1.854
  368SOL    HW1 1120   1.682   2.790   1.765
  368SOL    HW2 1121   1.666   2.841   1.920
  369SOL     OW 1122   0.307   1.925   0.618
  369SOL    HW1 1123   0.296   2.019   0.651
  369SOL    HW2 1124   0.302   1.862   0.695
  370SOL     OW 1125   1.622   2.229   0.374
  370SOL    HW1 1126   1.624   2.153   0.438
  370SOL    HW2 1127   1.574   2.306   0.414
  371SOL     OW 1128   1.023   2.628   0.966
  371SOL    HW1 1129   1.038   2.649   1.062
  371SOL    HW2 1130   0.993   2.533   0.957
  372SOL     OW 1131   1.540   2.136   0.125
  372SOL    HW1 1132   1.479   2.061   0.148
  372SOL    HW2 1133   1.562   2.188   0.208
  373SOL     OW 1134   1.303   2.700   0.042
  373SOL    HW1 1135   1.337   2.607   0.057
  373SOL    HW2 1136   1.321   2.727  -0.053
  374SOL     OW 1137   0.319   2.672   0.949
  374SOL    HW1 1138   0.412   2.708   0.954
  374SOL    HW2 1139   0.313   2.587   1.001
  375SOL     OW 1140   0.339   2.371   1.006
  375SOL    HW1 1141   0.287   2.288   0.989
  375SOL    HW2 1142   0.416   2.376   0.942
  376SOL     OW 1143   1.138   2.242   1.678
  376SOL    HW1 1144   1.093   2.305   1.742
  376SOL    HW2 1145   1.231   2.273   1.661
  377SOL     OW 1146   1.160   2.069   1.477
  377SOL    HW1 1147   1.160   2.133   1.554
  377SOL    HW2 1148   1.188   2.117   1.394
  378SOL     OW 1149   1.002   2.658   1.238
  378SOL    HW1 1150   1.043   2.626   1.324
  378SOL    HW2 1151   0.906   2.631   1.235
  379SOL     OW 1152   0.040   2.406   1.114
  379SOL    HW1 1153   0.125   2.373   1.073
  379SOL    HW2 1154   0.053   2.421   1.212
  380SOL     OW 1155   0.189   2.382   1.722
  380SOL    HW1 1156   0.248   2.342   1.652
  380SOL    HW2 1157   0.131   2.453   1.681
  381SOL     OW 1158   0.815   2.434   0.325
  381SOL    HW1 1159   0.822   2.345   0.279
  381SOL    HW2 1160   0.721   2.468   0.317
  382SOL     OW 1161   1.657   2.466   1.206
  382SOL    HW1 1162   1.619   2.397   1.268
  382SOL    HW2 1163   1.739   2.430   1.162
  383SOL     OW 1164   0.671   2.326   1.269
  383SOL    HW1 1165   0.637   2.237   1.239
  383SOL    HW2 1166   0.697   2.380   1.189
  384SOL     OW 1167   0.473   2.362   0.191
  384SOL    HW1 1168   0.534   2.442   0.195
  384SOL    HW2 1169   0.378   2.393   0.198
  385SOL     OW 1170   0.903   1.948   0.133
  385SOL    HW1 1171   0.954   1.949   0.047
  385SOL    HW2 1172   0.959   1.906   0.204
  386SOL     OW 1173   1.726   1.997   0.523
  386SOL    HW1 1174   1.799   1.980   0.456
  386SOL    HW2 1175   1.695   1.910   0.561
  387SOL     OW 1176   1.280   2.789   0.672
  387SOL    HW1 1177   1.340   2.708   0.674
  387SOL    HW2 1178   1.320   2.858   0.612
  388SOL     OW 1179   1.841   2.037   0.963
  388SOL    HW1 1180   1.880   1.952   0.927
  388SOL    HW2 1181   1.743   2.039   0.944
  389SOL     OW 1182   0.263   2.188   0.720
  389SOL    HW1 1183   0.184   2.239   0.686
  389SOL    HW2 1184   0.254   2.173   0.818
  390SOL     OW 1185   1.014   2.098   0.971
  390SOL    HW1 1186   1.006   2.062   0.878
  390SOL    HW2 1187   1.012   2.022   1.036
  391SOL     OW 1188   1.709   2.247   1.381
  391SOL    HW1 1189   1.782   2.316   1.385
  391SOL    HW2 1190   1.737   2.172   1.322
  392SOL     OW 1191   0.105   2.875   1.726
  392SOL    HW1 1192   0.028   2.842   1.780
  392SOL    HW2 1193   0.190   2.845   1.768
  393SOL     OW 1194   0.672   2.065   1.489
  393SOL    HW1 1195   0.762   2.049   1.449
  393SOL    HW2 1196   0.680   2.070   1.588
  394SOL     OW 1197   0.075   2.207   0.033
  394SOL    HW1 1198  -0.017   2.179   0.004
  394SOL    HW2 1199   0.106   2.284  -0.023
  395SOL     OW 1200   1.440   2.718   1.398
  395SOL    HW1 1201   1.383   2.770   1.335
  395SOL    HW2 1202   1.536   2.730   1.374
  396SOL     OW 1203   0.072   2.028   0.318
  396SOL    HW1 1204   0.055   2.111   0.264
  396SOL    HW2 1205   0.162   1.991   0.296
  397SOL     OW 1206   0.613   2.704   1.431
  397SOL    HW1 1207   0.669   2.785   1.414
  397SOL    HW2 1208   0.672   2.624   1.434
  398SOL     OW 1209   0.716   2.427   1.708
  398SOL    HW1 1210   0.735   2.492   1.782
  398SOL    HW2 1211   0.776   2.347   1.717
  399SOL     OW 1212   1.674   2.745   1.254
  399SOL    HW1 1213   1.647   2.656   1.217
  399SOL    HW2 1214   1.675   2.813   1.181
  400SOL     OW 1215   1.225   2.187   0.449
  400SOL    HW1 1216   1.290   2.113   0.438
  400SOL    HW2 1217   1.245   2.237   0.533
  401SOL     OW 1218   0.594   2.607   0.652
  401SOL    HW1 1219   0.644   2.692   0.633
  401SOL    HW2 1220   0.506   2.609   0.604
  402SOL     OW 1221   1.777   2.204   1.642
  402SOL    HW1 1222   1.760   2.235   1.548
  402SOL    HW2 1223   1.693   2.167   1.680
  403SOL     OW 1224   1.730   2.796   1.517
  403SOL    HW1 1225   1.768   2.887   1.532
  403SOL    HW2 1226   1.722   2.779   1.418
  404SOL     OW 1227   1.824   2.054   1.227
  404SOL    HW1 1228   1.820   1.964   1.271
  404SOL    HW2 1229   1.827   2.043   1.128
  405SOL     OW 1230   0.428   2.286   0.520
  405SOL    HW1 1231   0.458   2.214   0.458
  405SOL    HW2 1232   0.389   2.246   0.603
  406SOL     OW 1233   0.317   2.409   1.280
  406SOL    HW1 1234   0.355   2.350   1.352
  406SOL    HW2 1235   0.357   2.383   1.192
  407SOL     OW 1236   1.424   2.076   1.112
  407SOL    HW1 1237   1.476   2.011   1.167
  407SOL    HW2 1238   1.375   2.139   1.173
  408SOL     OW 1239   1.001   1.896   1.154
  408SOL    HW1 1240   0.938   1.824   1.123
  408SOL    HW2 1241   1.094   1.860   1.154
  409SOL     OW 1242   1.352   1.914   0.168
  409SOL    HW1 1243   1.387   1.873   0.084
  409SOL    HW2 1244   1.262   1.876   0.188
  410SOL     OW 1245   1.300   2.315   0.691
  410SOL    HW1 1246   1.241   2.395   0.695
  410SOL    HW2 1247   1.315   2.280   0.784
  411SOL     OW 1248   1.593   2.083   0.882
  411SOL    HW1 1249   1.509   2.082   0.936
  411SOL    HW2 1250   1.595   2.166   0.826
  412SOL     OW 1251   0.230   2.490   1.975
  412SOL    HW1 1252   0.137   2.488   2.012
  412SOL    HW2 1253   0.231   2.451   1.883
  413SOL     OW 1254   0.019   2.230   2.509
  413SOL    HW1 1255  -0.063   2.273   2.548
  413SOL    HW2 1256  -0.009   2.157   2.446
  414SOL     OW 1257   1.135   2.565   2.579
  414SOL    HW1 1258   1.192   2.643   2.554
  414SOL    HW2 1259   1.075   2.591   2.655
  415SOL     OW 1260   1.755   2.469   2.093
  415SOL    HW1 1261   1.743   2.456   1.994
  415SOL    HW2 1262   1.725   2.388   2.142
  416SOL     OW 1263   0.685   2.874   2.527
  416SOL    HW1 1264   0.754   2.858   2.597
  416SOL    HW2 1265   0.612   2.931   2.565
  417SOL     OW 1266   1.603   2.309   2.599
  417SOL    HW1 1267   1.529   2.355   2.549
  417SOL    HW2 1268   1.654   2.377   2.652
  418SOL     OW 1269   0.240   2.953   2.748
  418SOL    HW1 1270   0.254   2.869   2.800
  418SOL    HW2 1271   0.185   3.017   2.803
  419SOL     OW 1272   0.122   2.505   2.425
  419SOL    HW1 1273   0.077   2.417   2.442
  419SOL    HW2 1274   0.121   2.559   2.509
  420SOL     OW 1275   0.809   1.866   2.364
  420SOL    HW1 1276   0.849   1.957   2.355
  420SOL    HW2 1277   0.709   1.874   2.370
  421SOL     OW 1278   0.598   2.591   2.132
  421SOL    HW1 1279   0.622   2.660   2.064
  421SOL    HW2 1280   0.520   2.624   2.186
  422SOL     OW 1281   1.281   2.207   2.806
  422SOL    HW1 1282   1.195   2.157   2.793
  422SOL    HW2 1283   1.343   2.153   2.862
  423SOL     OW 1284   1.041   2.563   2.291
  423SOL    HW1 1285   1.067   2.559   2.387
  423SOL    HW2 1286   0.956   2.512   2.277
  424SOL     OW 1287   0.076   2.673   2.651
  424SOL    HW1 1288   0.175   2.661   2.660
  424SOL    HW2 1289   0.052   2.768   2.672
  425SOL     OW 1290   0.865   2.210   2.057
  425SOL    HW1 1291   0.924   2.273   2.008
  425SOL    HW2 1292   0.884   2.116   2.028
  426SOL     OW 1293   0.550   2.058   2.747
  426SOL    HW1 1294   0.545   2.053   2.847
  426SOL    HW2 1295   0.552   2.154   2.718
  427SOL     OW 1296   1.458   2.597   2.590
  427SOL    HW1 1297   1.453   2.532   2.665
  427SOL    HW2 1298   1.538   2.656   2.603
  428SOL     OW 1299   1.400   1.969   2.288
  428SOL    HW1 1300   1.376   1.932   2.198
  428SOL    HW2 1301   1.499   1.985   2.292
  429SOL     OW 1302   0.382   2.562   2.342
  429SOL    HW1 1303   0.427   2.472   2.339
  429SOL    HW2 1304   0.288   2.551   2.375
  430SOL     OW 1305   0.614   1.984   1.979
  430SOL    HW1 1306   0.712   1.962   1.986
  430SOL    HW2 1307   0.583   1.967   1.886
  431SOL     OW 1308   0.539   1.926   2.374
  431SOL    HW1 1309   0.458   1.927   2.432
  431SOL    HW2 1310   0.542   2.009   2.319
  432SOL     OW 1311   0.297   1.897   2.033
  432SOL    HW1 1312   0.346   1.981   2.012
  432SOL    HW2 1313   0.359   1.832   2.078
  433SOL     OW 1314   0.935   2.098   2.342
  433SOL    HW1 1315   0.887   2.139   2.264
  433SOL    HW2 1316   1.034   2.096   2.323
  434SOL     OW 1317   1.032   2.411   1.878
  434SOL    HW1 1318   0.991   2.493   1.839
  434SOL    HW2 1319   1.096   2.437   1.951
  435SOL     OW 1320   0.866   2.316   2.504
  435SOL    HW1 1321   0.834   2.388   2.442
  435SOL    HW2 1322   0.890   2.235   2.451
  436SOL     OW 1323   1.017   1.901   2.615
  436SOL    HW1 1324   0.945   1.906   2.546
  436SOL    HW2 1325   0.993   1.832   2.684
  437SOL     OW 1326   1.857   2.695   2.239
  437SOL    HW1 1327   1.899   2.631   2.303
  437SOL    HW2 1328   1.819   2.644   2.161
  438SOL     OW 1329   1.390   2.437   1.940
  438SOL    HW1 1330   1.336   2.416   2.021
  438SOL    HW2 1331   1.481   2.396   1.949
  439SOL     OW 1332   0.527   2.118   2.190
  439SOL    HW1 1333   0.554   2.059   2.115
  439SOL    HW2 1334   0.527   2.213   2.159
  440SOL     OW 1335   1.111   3.057   2.962
  440SOL    HW1 1336   1.071   3.101   3.043
  440SOL    HW2 1337   1.070   3.094   2.879
  441SOL     OW 1338   0.566   2.399   2.727
  441SOL    HW1 1339   0.578   2.465   2.653
  441SOL    HW2 1340   0.612   2.433   2.810
  442SOL     OW 1341   1.582   2.501   2.334
  442SOL    HW1 1342   1.551   2.562   2.407
  442SOL    HW2 1343   1.632   2.553   2.265
  443SOL     OW 1344   1.209   2.387   2.137
  443SOL    HW1 1345   1.222   2.303   2.191
  443SOL    HW2 1346   1.180   2.461   2.197
  444SOL     OW 1347   0.732   2.496   2.926
  444SOL    HW1 1348   0.791   2.470   2.850
  444SOL    HW2 1349   0.704   2.592   2.915
  445SOL     OW 1350   0.307   1.925   2.480
  445SOL    HW1 1351   0.296   2.019   2.513
  445SOL    HW2 1352   0.302   1.862   2.557
  446SOL     OW 1353   1.622   2.229   2.236
  446SOL    HW1 1354   1.624   2.153   2.300
  446SOL    HW2 1355   1.574   2.306   2.276
  447SOL     OW 1356   1.540   2.136   1.987
  447SOL    HW1 1357   1.479   2.061   2.010
  447SOL    HW2 1358   1.562   2.188   2.070
  448SOL     OW 1359   1.303   2.700   1.904
  448SOL    HW1 1360   1.337   2.607   1.919
  448SOL    HW2 1361   1.321   2.727   1.809
  449SOL     OW 1362   0.815   2.434   2.187
  449SOL    HW1 1363   0.822   2.345   2.141
  449SOL    HW2 1364   0.721   2.468   2.179
  450SOL     OW 1365   0.473   2.362   2.053
  450SOL    HW1 1366   0.534   2.442   2.057
  450SOL    HW2 1367   0.378   2.393   2.060
  451SOL     OW 1368   1.726   1.997   2.385
  451SOL    HW1 1369   1.799   1.980   2.318
  451SOL    HW2 1370   1.695   1.910   2.423
  452SOL     OW 1371   1.280   2.789   2.534
  452SOL    HW1 1372   1.340   2.708   2.536
  452SOL    HW2 1373   1.320   2.858   2.474
  453SOL     OW 1374   1.841   2.037   2.825
  453SOL    HW1 1375   1.880   1.952   2.789
  453SOL    HW2 1376   1.743   2.039   2.806
  454SOL     OW 1377   0.263   2.188   2.582
  454SOL    HW1 1378   0.184   2.239   2.548
  454SOL    HW2 1379   0.254   2.173   2.680
  455SOL     OW 1380   0.916   2.772   2.153
  455SOL    HW1 1381   0.979   2.810   2.085
  455SOL    HW2 1382   0.956   2.689   2.192
  456SOL     OW 1383   0.075   2.207   1.895
  456SOL    HW1 1384  -0.017   2.179   1.866
  456SOL    HW2 1385   0.106   2.284   1.839
  457SOL     OW 1386   0.072   2.028   2.180
  457SOL    HW1 1387   0.055   2.111   2.126
  457SOL    HW2 1388   0.162   1.991   2.158
  458SOL     OW 1389   1.674   2.745   3.116
  458SOL    HW1 1390   1.647   2.656   3.079
  458SOL    HW2 1391   1.675   2.813   3.043
  459SOL     OW 1392   1.225   2.187   2.311
  459SOL    HW1 1393   1.290   2.113   2.300
  459SOL    HW2 1394   1.245   2.237   2.395
  460SOL     OW 1395   0.594   2.607   2.514
  460SOL    HW1 1396   0.644   2.692   2.495
  460SOL    HW2 1397   0.506   2.609   2.466
  461SOL     OW 1398   0.428   2.286   2.382
  461SOL    HW1 1399   0.458   2.214   2.320
  461SOL    HW2 1400   0.389   2.246   2.465
  462SOL     OW 1401   1.352   1.914   2.030
  462SOL    HW1 1402   1.387   1.873   1.946
  462SOL    HW2 1403   1.262   1.876   2.050
  463SOL     OW 1404   1.300   2.315   2.553
  463SOL    HW1 1405   1.241   2.395   2.557
  463SOL    HW2 1406   1.315   2.280   2.646
  464SOL     OW 1407   1.593   2.083   2.744
  464SOL    HW1 1408   1.509   2.082   2.798
  464SOL    HW2 1409   1.595   2.166   2.688
  465SOL     OW 1410   2.092   0.628   0.113
  465SOL    HW1 1411   1.999   0.626   0.150
  465SOL    HW2 1412   2.093   0.589   0.021
  466SOL     OW 1413   2.087   0.275   0.996
  466SOL    HW1 1414   2.122   0.258   1.088
  466SOL    HW2 1415   1.999   0.230   0.984
  467SOL     OW 1416   1.881   0.368   0.647
  467SOL    HW1 1417   1.799   0.411   0.686
  467SOL    HW2 1418   1.853   0.295   0.584
  468SOL     OW 1419   2.431   1.275   1.165
  468SOL    HW1 1420   2.338   1.268   1.128
  468SOL    HW2 1421   2.442   1.364   1.209
  469SOL     OW 1422   2.630   1.144   1.023
  469SOL    HW1 1423   2.552   1.161   1.083
  469SOL    HW2 1424   2.664   1.231   0.987
  470SOL     OW 1425   2.712   0.798   1.823
  470SOL    HW1 1426   2.708   0.874   1.888
  470SOL    HW2 1427   2.734   0.834   1.732
  471SOL     OW 1428   2.547   1.012   0.665
  471SOL    HW1 1429   2.616   0.996   0.735
  471SOL    HW2 1430   2.474   1.069   0.703
  472SOL     OW 1431   2.548   1.161   1.803
  472SOL    HW1 1432   2.608   1.240   1.817
  472SOL    HW2 1433   2.462   1.192   1.762
  473SOL     OW 1434   2.197   1.435   1.061
  473SOL    HW1 1435   2.119   1.404   1.008
  473SOL    HW2 1436   2.255   1.493   1.004
  474SOL     OW 1437   2.300   0.392   1.499
  474SOL    HW1 1438   2.382   0.336   1.508
  474SOL    HW2 1439   2.219   0.334   1.503
  475SOL     OW 1440   2.093   1.713   0.483
  475SOL    HW1 1441   2.127   1.790   0.537
  475SOL    HW2 1442   2.137   1.713   0.393
  476SOL     OW 1443   2.092   1.434   0.538
  476SOL    HW1 1444   2.066   1.530   0.538
  476SOL    HW2 1445   2.021   1.380   0.583
  477SOL     OW 1446   2.102   1.091   0.886
  477SOL    HW1 1447   2.116   1.007   0.938
  477SOL    HW2 1448   2.047   1.155   0.941
  478SOL     OW 1449   2.482   1.786   1.439
  478SOL    HW1 1450   2.390   1.769   1.474
  478SOL    HW2 1451   2.510   1.878   1.465
  479SOL     OW 1452   2.468   0.964   0.123
  479SOL    HW1 1453   2.475   1.048   0.069
  479SOL    HW2 1454   2.514   0.977   0.211
  480SOL     OW 1455   1.984   0.643   0.563
  480SOL    HW1 1456   1.939   0.555   0.580
  480SOL    HW2 1457   1.983   0.697   0.647
  481SOL     OW 1458   1.889   1.596   0.117
  481SOL    HW1 1459   1.870   1.500   0.138
  481SOL    HW2 1460   1.856   1.654   0.192
  482SOL     OW 1461   1.975   0.737   1.597
  482SOL    HW1 1462   2.063   0.724   1.642
  482SOL    HW2 1463   1.962   0.834   1.575
  483SOL     OW 1464   2.475   1.365   0.726
  483SOL    HW1 1465   2.426   1.278   0.735
  483SOL    HW2 1466   2.452   1.408   0.639
  484SOL     OW 1467   2.671   0.004   0.502
  484SOL    HW1 1468   2.711   0.095   0.493
  484SOL    HW2 1469   2.571   0.012   0.508
  485SOL     OW 1470   2.059   0.976   1.264
  485SOL    HW1 1471   2.148   0.931   1.250
  485SOL    HW2 1472   1.986   0.911   1.245
  486SOL     OW 1473   2.179   0.251   1.801
  486SOL    HW1 1474   2.250   0.322   1.807
  486SOL    HW2 1475   2.091   0.290   1.829
  487SOL     OW 1476   2.460   0.729   0.270
  487SOL    HW1 1477   2.484   0.798   0.202
  487SOL    HW2 1478   2.382   0.762   0.324
  488SOL     OW 1479   2.669   0.605   1.465
  488SOL    HW1 1480   2.622   0.602   1.554
  488SOL    HW2 1481   2.618   0.550   1.399
  489SOL     OW 1482   1.938   0.811   0.789
  489SOL    HW1 1483   2.037   0.799   0.798
  489SOL    HW2 1484   1.914   0.906   0.810
  490SOL     OW 1485   1.992   1.821   1.571
  490SOL    HW1 1486   1.982   1.806   1.670
  490SOL    HW2 1487   1.906   1.857   1.535
  491SOL     OW 1488   2.727   0.348   0.195
  491SOL    HW1 1489   2.786   0.411   0.146
  491SOL    HW2 1490   2.746   0.254   0.166
  492SOL     OW 1491   2.412   0.196   0.885
  492SOL    HW1 1492   2.407   0.191   0.985
  492SOL    HW2 1493   2.414   0.292   0.856
  493SOL     OW 1494   2.870   1.456   0.477
  493SOL    HW1 1495   2.824   1.528   0.425
  493SOL    HW2 1496   2.866   1.476   0.575
  494SOL     OW 1497   2.213   1.801   0.853
  494SOL    HW1 1498   2.263   1.715   0.859
  494SOL    HW2 1499   2.278   1.878   0.850
  495SOL     OW 1500   2.183   0.943   0.242
  495SOL    HW1 1501   2.265   0.982   0.200
  495SOL    HW2 1502   2.156   0.861   0.193
  496SOL     OW 1503   2.323   1.266   1.727
  496SOL    HW1 1504   2.273   1.267   1.641
  496SOL    HW2 1505   2.260   1.248   1.803
  497SOL     OW 1506   2.973   1.776   0.237
  497SOL    HW1 1507   2.913   1.714   0.287
  497SOL    HW2 1508   3.004   1.732   0.152
  498SOL     OW 1509   2.064   0.285   1.498
  498SOL    HW1 1510   1.984   0.345   1.485
  498SOL    HW2 1511   2.054   0.236   1.584
  499SOL     OW 1512   2.326   1.743   0.323
  499SOL    HW1 1513   2.359   1.782   0.409
  499SOL    HW2 1514   2.402   1.736   0.258
  500SOL     OW 1515   2.111   1.785   1.241
  500SOL    HW1 1516   2.168   1.720   1.291
  500SOL    HW2 1517   2.095   1.752   1.148
  501SOL     OW 1518   2.244   0.700   0.480
  501SOL    HW1 1519   2.289   0.610   0.477
  501SOL    HW2 1520   2.150   0.689   0.513
  502SOL     OW 1521   2.476   0.122   0.117
  502SOL    HW1 1522   2.574   0.100   0.124
  502SOL    HW2 1523   2.445   0.105   0.024
  503SOL     OW 1524   2.643   0.264   1.749
  503SOL    HW1 1525   2.710   0.203   1.792
  503SOL    HW2 1526   2.570   0.283   1.814
  504SOL     OW 1527   2.665   1.402   0.924
  504SOL    HW1 1528   2.755   1.416   0.882
  504SOL    HW2 1529   2.594   1.404   0.853
  505SOL     OW 1530   2.784   0.503   0.899
  505SOL    HW1 1531   2.759   0.494   0.803
  505SOL    HW2 1532   2.832   0.421   0.930
  506SOL     OW 1533   2.401   0.064   0.512
  506SOL    HW1 1534   2.320   0.065   0.570
  506SOL    HW2 1535   2.404   0.147   0.457
  507SOL     OW 1536   2.159   0.035   0.171
  507SOL    HW1 1537   2.208   0.119   0.150
  507SOL    HW2 1538   2.221  -0.030   0.216
  508SOL     OW 1539   2.321   1.152   0.741
  508SOL    HW1 1540   2.250   1.125   0.806
  508SOL    HW2 1541   2.295   1.124   0.648
  509SOL     OW 1542   1.940   0.556   1.386
  509SOL    HW1 1543   2.032   0.555   1.345
  509SOL    HW2 1544   1.934   0.630   1.453
  510SOL     OW 1545   2.423   0.222   1.147
  510SOL    HW1 1546   2.461   0.138   1.184
  510SOL    HW2 1547   2.335   0.241   1.191
  511SOL     OW 1548   2.350   1.385   0.174
  511SOL    HW1 1549   2.263   1.370   0.221
  511SOL    HW2 1550   2.333   1.411   0.079
  512SOL     OW 1551   2.389   0.256   0.328
  512SOL    HW1 1552   2.416   0.197   0.253
  512SOL    HW2 1553   2.389   0.351   0.297
  513SOL     OW 1554   2.777   0.089   1.402
  513SOL    HW1 1555   2.802   0.069   1.307
  513SOL    HW2 1556   2.849   0.145   1.444
  514SOL     OW 1557   2.567   1.050   0.368
  514SOL    HW1 1558   2.553   1.057   0.467
  514SOL    HW2 1559   2.651   0.999   0.350
  515SOL     OW 1560   2.272   0.813   1.251
  515SOL    HW1 1561   2.358   0.825   1.301
  515SOL    HW2 1562   2.230   0.726   1.278
  516SOL     OW 1563   1.926   1.564   1.331
  516SOL    HW1 1564   1.880   1.646   1.297
  516SOL    HW2 1565   2.024   1.583   1.340
  517SOL     OW 1566   2.229   1.100   0.501
  517SOL    HW1 1567   2.222   1.183   0.445
  517SOL    HW2 1568   2.233   1.020   0.441
  518SOL     OW 1569   2.428   0.537   0.865
  518SOL    HW1 1570   2.440   0.603   0.791
  518SOL    HW2 1571   2.474   0.571   0.948
  519SOL     OW 1572   2.216   1.510   1.329
  519SOL    HW1 1573   2.195   1.466   1.242
  519SOL    HW2 1574   2.313   1.536   1.332
  520SOL     OW 1575   2.264   0.751   1.598
  520SOL    HW1 1576   2.332   0.806   1.551
  520SOL    HW2 1577   2.304   0.663   1.625
  521SOL     OW 1578   2.366   0.050   1.740
  521SOL    HW1 1579   2.324  -0.007   1.670
  521SOL    HW2 1580   2.300   0.119   1.772
  522SOL     OW 1581   2.435   0.870   1.029
  522SOL    HW1 1582   2.479   0.959   1.020
  522SOL    HW2 1583   2.372   0.870   1.106
  523SOL     OW 1584   2.169   0.213   1.231
  523SOL    HW1 1585   2.146   0.250   1.321
  523SOL    HW2 1586   2.139   0.118   1.225
  524SOL     OW 1587   1.899   1.310   1.282
  524SOL    HW1 1588   1.952   1.261   1.350
  524SOL    HW2 1589   1.921   1.408   1.287
  525SOL     OW 1590   2.594   0.634   1.064
  525SOL    HW1 1591   2.653   0.608   0.988
  525SOL    HW2 1592   2.566   0.730   1.053
  526SOL     OW 1593   2.169   0.063   0.618
  526SOL    HW1 1594   2.158   0.157   0.651
  526SOL    HW2 1595   2.164   0.000   0.695
  527SOL     OW 1596   2.885   0.766   0.966
  527SOL    HW1 1597   2.900   0.787   1.062
  527SOL    HW2 1598   2.855   0.671   0.957
  528SOL     OW 1599   2.842   1.573   1.700
  528SOL    HW1 1600   2.822   1.617   1.612
  528SOL    HW2 1601   2.881   1.482   1.684
  529SOL     OW 1602   2.212   0.898   1.804
  529SOL    HW1 1603   2.288   0.942   1.852
  529SOL    HW2 1604   2.247   0.851   1.722
  530SOL     OW 1605   2.181   0.810   0.949
  530SOL    HW1 1606   2.274   0.846   0.954
  530SOL    HW2 1607   2.175   0.725   1.001
  531SOL     OW 1608   2.201   0.509   1.006
  531SOL    HW1 1609   2.149   0.426   0.989
  531SOL    HW2 1610   2.278   0.514   0.942
  532SOL     OW 1611   1.870   1.326   0.200
  532SOL    HW1 1612   1.777   1.347   0.169
  532SOL    HW2 1613   1.880   1.227   0.213
  533SOL     OW 1614   1.950   1.801   0.927
  533SOL    HW1 1615   1.908   1.715   0.900
  533SOL    HW2 1616   2.044   1.804   0.893
  534SOL     OW 1617   2.366   1.568   0.910
  534SOL    HW1 1618   2.432   1.642   0.919
  534SOL    HW2 1619   2.410   1.489   0.868
  535SOL     OW 1620   1.902   0.544   1.114
  535SOL    HW1 1621   1.987   0.511   1.073
  535SOL    HW2 1622   1.915   0.559   1.212
  536SOL     OW 1623   2.051   0.520   1.722
  536SOL    HW1 1624   2.110   0.480   1.652
  536SOL    HW2 1625   1.993   0.591   1.681
  537SOL     OW 1626   2.677   0.572   0.325
  537SOL    HW1 1627   2.684   0.483   0.279
  537SOL    HW2 1628   2.583   0.606   0.317
  538SOL     OW 1629   2.114   1.564   1.744
  538SOL    HW1 1630   2.084   1.621   1.820
  538SOL    HW2 1631   2.107   1.467   1.770
  539SOL     OW 1632   2.533   0.464   1.269
  539SOL    HW1 1633   2.499   0.375   1.239
  539SOL    HW2 1634   2.559   0.518   1.189
  540SOL     OW 1635   2.335   0.500   0.191
  540SOL    HW1 1636   2.396   0.580   0.195
  540SOL    HW2 1637   2.240   0.531   0.198
  541SOL     OW 1638   2.021   1.137   1.466
  541SOL    HW1 1639   2.043   1.076   1.542
  541SOL    HW2 1640   2.031   1.088   1.380
  542SOL     OW 1641   1.945   1.258   1.022
  542SOL    HW1 1642   1.940   1.257   1.122
  542SOL    HW2 1643   1.862   1.217   0.984
  543SOL     OW 1644   2.550   1.662   1.716
  543SOL    HW1 1645   2.494   1.743   1.725
  543SOL    HW2 1646   2.602   1.666   1.630
  544SOL     OW 1647   2.765   0.086   0.133
  544SOL    HW1 1648   2.816   0.087   0.047
  544SOL    HW2 1649   2.821   0.044   0.204
  545SOL     OW 1650   1.992   1.794   1.851
  545SOL    HW1 1651   1.951   1.720   1.904
  545SOL    HW2 1652   2.056   1.845   1.909
  546SOL     OW 1653   2.692   1.273   1.422
  546SOL    HW1 1654   2.687   1.306   1.517
  546SOL    HW2 1655   2.606   1.292   1.376
  547SOL     OW 1656   2.534   1.616   0.154
  547SOL    HW1 1657   2.543   1.626   0.055
  547SOL    HW2 1658   2.494   1.527   0.175
  548SOL     OW 1659   2.125   0.326   0.720
  548SOL    HW1 1660   2.046   0.377   0.686
  548SOL    HW2 1661   2.116   0.311   0.818
  549SOL     OW 1662   3.056   1.612   0.031
  549SOL    HW1 1663   3.062   1.519   0.068
  549SOL    HW2 1664   2.997   1.612  -0.049
  550SOL     OW 1665   2.684   1.002   1.372
  550SOL    HW1 1666   2.724   1.001   1.280
  550SOL    HW2 1667   2.694   1.094   1.412
  551SOL     OW 1668   2.234   1.288   1.490
  551SOL    HW1 1669   2.221   1.381   1.456
  551SOL    HW2 1670   2.150   1.236   1.477
  552SOL     OW 1671   2.452   1.487   0.491
  552SOL    HW1 1672   2.494   1.429   0.421
  552SOL    HW2 1673   2.408   1.566   0.447
  553SOL     OW 1674   2.117   1.348   0.290
  553SOL    HW1 1675   2.021   1.349   0.263
  553SOL    HW2 1676   2.129   1.401   0.374
  554SOL     OW 1677   1.967   1.013   1.726
  554SOL    HW1 1678   1.890   0.980   1.780
  554SOL    HW2 1679   2.052   0.983   1.768
  555SOL     OW 1680   2.534   0.203   1.489
  555SOL    HW1 1681   2.624   0.187   1.449
  555SOL    HW2 1682   2.542   0.208   1.588
  556SOL     OW 1683   2.475   0.842   1.431
  556SOL    HW1 1684   2.531   0.923   1.414
  556SOL    HW2 1685   2.534   0.762   1.434
  557SOL     OW 1686   2.578   0.565   1.708
  557SOL    HW1 1687   2.597   0.630   1.782
  557SOL    HW2 1688   2.638   0.485   1.717
  558SOL     OW 1689   2.252   1.741   1.560
  558SOL    HW1 1690   2.161   1.782   1.558
  558SOL    HW2 1691   2.245   1.647   1.592
  559SOL     OW 1692   2.456   0.745   0.652
  559SOL    HW1 1693   2.506   0.830   0.633
  559SOL    HW2 1694   2.368   0.747   0.604
  560SOL     OW 1695   2.523   1.790   0.953
  560SOL    HW1 1696   2.477   1.878   0.940
  560SOL    HW2 1697   2.622   1.802   0.946
  561SOL     OW 1698   2.721   0.956   0.861
  561SOL    HW1 1699   2.775   0.887   0.909
  561SOL    HW2 1700   2.689   1.025   0.927
  562SOL     OW 1701   2.083   1.314   1.844
  562SOL    HW1 1702   2.018   1.241   1.823
  562SOL    HW2 1703   2.087   1.328   1.942
  563SOL     OW 1704   1.941   1.240   0.653
  563SOL    HW1 1705   1.940   1.193   0.741
  563SOL    HW2 1706   2.023   1.212   0.602
  564SOL     OW 1707   2.534   1.391   1.624
  564SOL    HW1 1708   2.456   1.341   1.662
  564SOL    HW2 1709   2.531   1.486   1.655
  565SOL     OW 1710   2.290   0.424   0.520
  565SOL    HW1 1711   2.320   0.352   0.458
  565SOL    HW2 1712   2.251   0.384   0.603
  566SOL     OW 1713   2.179   0.547   1.280
  566SOL    HW1 1714   2.217   0.488   1.352
  566SOL    HW2 1715   2.219   0.521   1.192
  567SOL     OW 1716   2.674   1.586   0.687
  567SOL    HW1 1717   2.706   1.596   0.593
  567SOL    HW2 1718   2.595   1.524   0.689
  568SOL     OW 1719   2.863   0.034   1.154
  568SOL    HW1 1720   2.800  -0.038   1.123
  568SOL    HW2 1721   2.956  -0.002   1.154
  569SOL     OW 1722   2.632   1.330   0.301
  569SOL    HW1 1723   2.586   1.243   0.318
  569SOL    HW2 1724   2.723   1.327   0.342
  570SOL     OW 1725   2.480   1.567   1.284
  570SOL    HW1 1726   2.475   1.649   1.341
  570SOL    HW2 1727   2.569   1.564   1.239
  571SOL     OW 1728   1.901   1.077   0.300
  571SOL    HW1 1729   2.000   1.066   0.291
  571SOL    HW2 1730   1.861   0.991   0.332
  572SOL     OW 1731   2.737   1.646   0.337
  572SOL    HW1 1732   2.660   1.611   0.283
  572SOL    HW2 1733   2.705   1.717   0.399
  573SOL     OW 1734   2.092   0.628   1.975
  573SOL    HW1 1735   1.999   0.626   2.012
  573SOL    HW2 1736   2.093   0.589   1.883
  574SOL     OW 1737   2.087   0.275   2.858
  574SOL    HW1 1738   2.122   0.258   2.950
  574SOL    HW2 1739   1.999   0.230   2.846
  575SOL     OW 1740   1.881   0.368   2.509
  575SOL    HW1 1741   1.799   0.411   2.548
  575SOL    HW2 1742   1.853   0.295   2.446
  576SOL     OW 1743   2.630   1.144   2.885
  576SOL    HW1 1744   2.552   1.161   2.945
  576SOL    HW2 1745   2.664   1.231   2.849
  577SOL     OW 1746   2.547   1.012   2.527
  577SOL    HW1 1747   2.616   0.996   2.597
  577SOL    HW2 1748   2.474   1.069   2.565
  578SOL     OW 1749   2.093   1.713   2.345
  578SOL    HW1 1750   2.127   1.790   2.399
  578SOL    HW2 1751   2.137   1.713   2.255
  579SOL     OW 1752   2.092   1.434   2.400
  579SOL    HW1 1753   2.066   1.530   2.400
  579SOL    HW2 1754   2.021   1.380   2.445
  580SOL     OW 1755   2.102   1.091   2.748
  580SOL    HW1 1756   2.116   1.007   2.800
  580SOL    HW2 1757   2.047   1.155   2.803
  581SOL     OW 1758   2.468   0.964   1.985
  581SOL    HW1 1759   2.475   1.048   1.931
  581SOL    HW2 1760   2.514   0.977   2.073
  582SOL     OW 1761   1.984   0.643   2.425
  582SOL    HW1 1762   1.939   0.555   2.442
  582SOL    HW2 1763   1.983   0.697   2.509
  583SOL     OW 1764   1.889   1.596   1.979
  583SOL    HW1 1765   1.870   1.500   2.000
  583SOL    HW2 1766   1.856   1.654   2.054
  584SOL     OW 1767   2.475   1.365   2.588
  584SOL    HW1 1768   2.426   1.278   2.597
  584SOL    HW2 1769   2.452   1.408   2.501
  585SOL     OW 1770   2.671   0.004   2.364
  585SOL    HW1 1771   2.711   0.095   2.355
  585SOL    HW2 1772   2.571   0.012   2.370
  586SOL     OW 1773   2.460   0.729   2.132
  586SOL    HW1 1774   2.484   0.798   2.064
  586SOL    HW2 1775   2.382   0.762   2.186
  587SOL     OW 1776   1.938   0.811   2.651
  587SOL    HW1 1777   2.037   0.799   2.660
  587SOL    HW2 1778   1.914   0.906   2.672
  588SOL     OW 1779   2.727   0.348   2.057
  588SOL    HW1 1780   2.786   0.411   2.008
  588SOL    HW2 1781   2.746   0.254   2.028
  589SOL     OW 1782   2.870   1.456   2.339
  589SOL    HW1 1783   2.824   1.528   2.287
  589SOL    HW2 1784   2.866   1.476   2.437
  590SOL     OW 1785   2.213   1.801   2.715
  590SOL    HW1 1786   2.263   1.715   2.721
  590SOL    HW2 1787   2.278   1.878   2.712
  591SOL     OW 1788   2.183   0.943   2.104
  591SOL    HW1 1789   2.265   0.982   2.062
  591SOL    HW2 1790   2.156   0.861   2.055
  592SOL     OW 1791   2.973   1.776   2.099
  592SOL    HW1 1792   2.913   1.714   2.149
  592SOL    HW2 1793   3.004   1.732   2.014
  593SOL     OW 1794   2.326   1.743   2.185
  593SOL    HW1 1795   2.359   1.782   2.271
  593SOL    HW2 1796   2.402   1.736   2.120
  594SOL     OW 1797   2.244   0.700   2.342
  594SOL    HW1 1798   2.289   0.610   2.339
  594SOL    HW2 1799   2.150   0.689   2.375
  595SOL     OW 1800   2.476   0.122   1.979
  595SOL    HW1 1801   2.574   0.100   1.986
  595SOL    HW2 1802   2.445   0.105   1.886
  596SOL     OW 1803   2.665   1.402   2.786
  596SOL    HW1 1804   2.755   1.416   2.744
  596SOL    HW2 1805   2.594   1.404   2.715
  597SOL     OW 1806   2.401   0.064   2.374
  597SOL    HW1 1807   2.320   0.065   2.432
  597SOL    HW2 1808   2.404   0.147   2.319
  598SOL     OW 1809   2.159   0.035   2.033
  598SOL    HW1 1810   2.208   0.119   2.012
  598SOL    HW2 1811   2.221  -0.030   2.078
  599SOL     OW 1812   2.321   1.152   2.603
  599SOL    HW1 1813   2.250   1.125   2.668
  599SOL    HW2 1814   2.295   1.124   2.510
  600SOL     OW 1815   2.350   1.385   2.036
  600SOL    HW1 1816   2.263   1.370   2.083
  600SOL    HW2 1817   2.333   1.411   1.941
  601SOL     OW 1818   2.389   0.256   2.190
  601SOL    HW1 1819   2.416   0.197   2.115
  601SOL    HW2 1820   2.389   0.351   2.159
  602SOL     OW 1821   2.567   1.050   2.230
  602SOL    HW1 1822   2.553   1.057   2.329
  602SOL    HW2 1823   2.651   0.999   2.212
  603SOL     OW 1824   2.229   1.100   2.363
  603SOL    HW1 1825   2.222   1.183   2.307
  603SOL    HW2 1826   2.233   1.020   2.303
  604SOL     OW 1827   2.428   0.537   2.727
  604SOL    HW1 1828   2.440   0.603   2.653
  604SOL    HW2 1829   2.474   0.571   2.810
  605SOL     OW 1830   2.594   0.634   2.926
  605SOL    HW1 1831   2.653   0.608   2.850
  605SOL    HW2 1832   2.566   0.730   2.915
  606SOL     OW 1833   2.169   0.063   2.480
  606SOL    HW1 1834   2.158   0.157   2.513
  606SOL    HW2 1835   2.164   0.000   2.557
  607SOL     OW 1836   2.885   0.766   2.828
  607SOL    HW1 1837   2.900   0.787   2.924
  607SOL    HW2 1838   2.855   0.671   2.819
  608SOL     OW 1839   1.870   1.326   2.062
  608SOL    HW1 1840   1.777   1.347   2.031
  608SOL    HW2 1841   1.880   1.227   2.075
  609SOL     OW 1842   1.950   1.801   2.789
  609SOL    HW1 1843   1.908   1.715   2.762
  609SOL    HW2 1844   2.044   1.804   2.755
  610SOL     OW 1845   2.366   1.568   2.772
  610SOL    HW1 1846   2.432   1.642   2.781
  610SOL    HW2 1847   2.410   1.489   2.730
  611SOL     OW 1848   2.677   0.572   2.187
  611SOL    HW1 1849   2.684   0.483   2.141
  611SOL    HW2 1850   2.583   0.606   2.179
  612SOL     OW 1851   2.335   0.500   2.053
  612SOL    HW1 1852   2.396   0.580   2.057
  612SOL    HW2 1853   2.240   0.531   2.060
  613SOL     OW 1854   2.765   0.086   1.995
  613SOL    HW1 1855   2.816   0.087   1.909
  613SOL    HW2 1856   2.821   0.044   2.066
  614SOL     OW 1857   2.534   1.616   2.016
  614SOL    HW1 1858   2.543   1.626   1.917
  614SOL    HW2 1859   2.494   1.527   2.037
  615SOL     OW 1860   2.125   0.326   2.582
  615SOL    HW1 1861   2.046   0.377   2.548
  615SOL    HW2 1862   2.116   0.311   2.680
  616SOL     OW 1863   2.452   1.487   2.353
  616SOL    HW1 1864   2.494   1.429   2.283
  616SOL    HW2 1865   2.408   1.566   2.309
  617SOL     OW 1866   2.117   1.348   2.152
  617SOL    HW1 1867   2.021   1.349   2.125
  617SOL    HW2 1868   2.129   1.401   2.236
  618SOL     OW 1869   1.937   0.345   1.895
  618SOL    HW1 1870   1.845   0.317   1.866
  618SOL    HW2 1871   1.968   0.422   1.839
  619SOL     OW 1872   1.934   0.166   2.180
  619SOL    HW1 1873   1.917   0.249   2.126
  619SOL    HW2 1874   2.024   0.129   2.158
  620SOL     OW 1875   2.456   0.745   2.514
  620SOL    HW1 1876   2.506   0.830   2.495
  620SOL    HW2 1877   2.368   0.747   2.466
  621SOL     OW 1878   2.523   1.790   2.815
  621SOL    HW1 1879   2.477   1.878   2.802
  621SOL    HW2 1880   2.622   1.802   2.808
  622SOL     OW 1881   2.721   0.956   2.723
  622SOL    HW1 1882   2.775   0.887   2.771
  622SOL    HW2 1883   2.689   1.025   2.789
  623SOL     OW 1884   1.941   1.240   2.515
  623SOL    HW1 1885   1.940   1.193   2.603
  623SOL    HW2 1886   2.023   1.212   2.464
  624SOL     OW 1887   2.290   0.424   2.382
  624SOL    HW1 1888   2.320   0.352   2.320
  624SOL    HW2 1889   2.251   0.384   2.465
  625SOL     OW 1890   2.674   1.586   2.549
  625SOL    HW1 1891   2.706   1.596   2.455
  625SOL    HW2 1892   2.595   1.524   2.551
  626SOL     OW 1893   2.632   1.330   2.163
  626SOL    HW1 1894   2.586   1.243   2.180
  626SOL    HW2 1895   2.723   1.327   2.204
  627SOL     OW 1896   1.901   1.077   2.162
  627SOL    HW1 1897   2.000   1.066   2.153
  627SOL    HW2 1898   1.861   0.991   2.194
  628SOL     OW 1899   2.737   1.646   2.199
  628SOL    HW1 1900   2.660   1.611   2.145
  628SOL    HW2 1901   2.705   1.717   2.261
  629SOL     OW 1902   2.092   2.490   0.113
  629SOL    HW1 1903   1.999   2.488   0.150
  629SOL    HW2 1904   2.093   2.451   0.021
  630SOL     OW 1905   2.087   2.137   0.996
  630SOL    HW1 1906   2.122   2.120   1.088
  630SOL    HW2 1907   1.999   2.092   0.984
  631SOL     OW 1908   1.881   2.230   0.647
  631SOL    HW1 1909   1.799   2.273   0.686
  631SOL    HW2 1910   1.853   2.157   0.584
  632SOL     OW 1911   2.712   2.660   1.823
  632SOL    HW1 1912   2.708   2.736   1.888
  632SOL    HW2 1913   2.734   2.696   1.732
  633SOL     OW 1914   2.547   2.874   0.665
  633SOL    HW1 1915   2.616   2.858   0.735
  633SOL    HW2 1916   2.474   2.931   0.703
  634SOL     OW 1917   2.300   2.254   1.499
  634SOL    HW1 1918   2.382   2.198   1.508
  634SOL    HW2 1919   2.219   2.196   1.503
  635SOL     OW 1920   1.984   2.505   0.563
  635SOL    HW1 1921   1.939   2.417   0.580
  635SOL    HW2 1922   1.983   2.559   0.647
  636SOL     OW 1923   1.975   2.599   1.597
  636SOL    HW1 1924   2.063   2.586   1.642
  636SOL    HW2 1925   1.962   2.696   1.575
  637SOL     OW 1926   2.671   1.866   0.502
  637SOL    HW1 1927   2.711   1.957   0.493
  637SOL    HW2 1928   2.571   1.874   0.508
  638SOL     OW 1929   2.179   2.113   1.801
  638SOL    HW1 1930   2.250   2.184   1.807
  638SOL    HW2 1931   2.091   2.152   1.829
  639SOL     OW 1932   2.460   2.591   0.270
  639SOL    HW1 1933   2.484   2.660   0.202
  639SOL    HW2 1934   2.382   2.624   0.324
  640SOL     OW 1935   2.669   2.467   1.465
  640SOL    HW1 1936   2.622   2.464   1.554
  640SOL    HW2 1937   2.618   2.412   1.399
  641SOL     OW 1938   1.938   2.673   0.789
  641SOL    HW1 1939   2.037   2.661   0.798
  641SOL    HW2 1940   1.914   2.768   0.810
  642SOL     OW 1941   2.727   2.210   0.195
  642SOL    HW1 1942   2.786   2.273   0.146
  642SOL    HW2 1943   2.746   2.116   0.166
  643SOL     OW 1944   2.412   2.058   0.885
  643SOL    HW1 1945   2.407   2.053   0.985
  643SOL    HW2 1946   2.414   2.154   0.856
  644SOL     OW 1947   2.064   2.147   1.498
  644SOL    HW1 1948   1.984   2.207   1.485
  644SOL    HW2 1949   2.054   2.098   1.584
  645SOL     OW 1950   2.244   2.562   0.480
  645SOL    HW1 1951   2.289   2.472   0.477
  645SOL    HW2 1952   2.150   2.551   0.513
  646SOL     OW 1953   2.643   2.126   1.749
  646SOL    HW1 1954   2.710   2.065   1.792
  646SOL    HW2 1955   2.570   2.145   1.814
  647SOL     OW 1956   2.784   2.365   0.899
  647SOL    HW1 1957   2.759   2.356   0.803
  647SOL    HW2 1958   2.832   2.283   0.930
  648SOL     OW 1959   2.401   1.926   0.512
  648SOL    HW1 1960   2.320   1.927   0.570
  648SOL    HW2 1961   2.404   2.009   0.457
  649SOL     OW 1962   2.159   1.897   0.171
  649SOL    HW1 1963   2.208   1.981   0.150
  649SOL    HW2 1964   2.221   1.832   0.216
  650SOL     OW 1965   1.940   2.418   1.386
  650SOL    HW1 1966   2.032   2.417   1.345
  650SOL    HW2 1967   1.934   2.492   1.453
  651SOL     OW 1968   2.423   2.084   1.147
  651SOL    HW1 1969   2.461   2.000   1.184
  651SOL    HW2 1970   2.335   2.103   1.191
  652SOL     OW 1971   2.389   2.118   0.328
  652SOL    HW1 1972   2.416   2.059   0.253
  652SOL    HW2 1973   2.389   2.213   0.297
  653SOL     OW 1974   2.777   1.951   1.402
  653SOL    HW1 1975   2.802   1.931   1.307
  653SOL    HW2 1976   2.849   2.007   1.444
  654SOL     OW 1977   2.272   2.675   1.251
  654SOL    HW1 1978   2.358   2.687   1.301
  654SOL    HW2 1979   2.230   2.588   1.278
  655SOL     OW 1980   2.428   2.399   0.865
  655SOL    HW1 1981   2.440   2.465   0.791
  655SOL    HW2 1982   2.474   2.433   0.948
  656SOL     OW 1983   2.264   2.613   1.598
  656SOL    HW1 1984   2.332   2.668   1.551
  656SOL    HW2 1985   2.304   2.525   1.625
  657SOL     OW 1986   2.366   1.912   1.740
  657SOL    HW1 1987   2.324   1.855   1.670
  657SOL    HW2 1988   2.300   1.981   1.772
  658SOL     OW 1989   2.435   2.732   1.029
  658SOL    HW1 1990   2.479   2.821   1.020
  658SOL    HW2 1991   2.372   2.732   1.106
  659SOL     OW 1992   2.169   2.075   1.231
  659SOL    HW1 1993   2.146   2.112   1.321
  659SOL    HW2 1994   2.139   1.980   1.225
  660SOL     OW 1995   2.594   2.496   1.064
  660SOL    HW1 1996   2.653   2.470   0.988
  660SOL    HW2 1997   2.566   2.592   1.053
  661SOL     OW 1998   2.169   1.925   0.618
  661SOL    HW1 1999   2.158   2.019   0.651
  661SOL    HW2 2000   2.164   1.862   0.695
  662SOL     OW 2001   2.885   2.628   0.966
  662SOL    HW1 2002   2.900   2.649   1.062
  662SOL    HW2 2003   2.855   2.533   0.957
  663SOL     OW 2004   2.181   2.672   0.949
  663SOL    HW1 2005   2.274   2.708   0.954
  663SOL    HW2 2006   2.175   2.587   1.001
  664SOL     OW 2007   2.201   2.371   1.006
  664SOL    HW1 2008   2.149   2.288   0.989
  664SOL    HW2 2009   2.278   2.376   0.942
  665SOL     OW 2010   2.864   2.658   1.238
  665SOL    HW1 2011   2.905   2.626   1.324
  665SOL    HW2 2012   2.768   2.631   1.235
  666SOL     OW 2013   1.902   2.406   1.114
  666SOL    HW1 2014   1.987   2.373   1.073
  666SOL    HW2 2015   1.915   2.421   1.212
  667SOL     OW 2016   2.051   2.382   1.722
  667SOL    HW1 2017   2.110   2.342   1.652
  667SOL    HW2 2018   1.993   2.453   1.681
  668SOL     OW 2019   2.677   2.434   0.325
  668SOL    HW1 2020   2.684   2.345   0.279
  668SOL    HW2 2021   2.583   2.468   0.317
  669SOL     OW 2022   2.533   2.326   1.269
  669SOL    HW1 2023   2.499   2.237   1.239
  669SOL    HW2 2024   2.559   2.380   1.189
  670SOL     OW 2025   2.335   2.362   0.191
  670SOL    HW1 2026   2.396   2.442   0.195
  670SOL    HW2 2027   2.240   2.393   0.198
  671SOL     OW 2028   2.765   1.948   0.133
  671SOL    HW1 2029   2.816   1.949   0.047
  671SOL    HW2 2030   2.821   1.906   0.204
  672SOL     OW 2031   2.125   2.188   0.720
  672SOL    HW1 2032   2.046   2.239   0.686
  672SOL    HW2 2033   2.116   2.173   0.818
  673SOL     OW 2034   2.901   2.960   0.696
  673SOL    HW1 2035   2.831   2.913   0.750
  673SOL    HW2 2036   2.960   2.892   0.653
  674SOL     OW 2037   1.967   2.875   1.726
  674SOL    HW1 2038   1.890   2.842   1.780
  674SOL    HW2 2039   2.052   2.845   1.768
  675SOL     OW 2040   2.534   2.065   1.489
  675SOL    HW1 2041   2.624   2.049   1.449
  675SOL    HW2 2042   2.542   2.070   1.588
  676SOL     OW 2043   1.934   2.028   0.318
  676SOL    HW1 2044   1.917   2.111   0.264
  676SOL    HW2 2045   2.024   1.991   0.296
  677SOL     OW 2046   2.475   2.704   1.431
  677SOL    HW1 2047   2.531   2.785   1.414
  677SOL    HW2 2048   2.534   2.624   1.434
  678SOL     OW 2049   2.578   2.427   1.708
  678SOL    HW1 2050   2.597   2.492   1.782
  678SOL    HW2 2051   2.638   2.347   1.717
  679SOL     OW 2052   2.456   2.607   0.652
  679SOL    HW1 2053   2.506   2.692   0.633
  679SOL    HW2 2054   2.368   2.609   0.604
  680SOL     OW 2055   2.721   2.818   0.861
  680SOL    HW1 2056   2.775   2.749   0.909
  680SOL    HW2 2057   2.689   2.887   0.927
  681SOL     OW 2058   2.290   2.286   0.520
  681SOL    HW1 2059   2.320   2.214   0.458
  681SOL    HW2 2060   2.251   2.246   0.603
  682SOL     OW 2061   2.179   2.409   1.280
  682SOL    HW1 2062   2.217   2.350   1.352
  682SOL    HW2 2063   2.219   2.383   1.192
  683SOL     OW 2064   2.863   1.896   1.154
  683SOL    HW1 2065   2.800   1.824   1.123
  683SOL    HW2 2066   2.956   1.860   1.154
  684SOL     OW 2067   2.092   2.490   1.975
  684SOL    HW1 2068   1.999   2.488   2.012
  684SOL    HW2 2069   2.093   2.451   1.883
  685SOL     OW 2070   2.087   2.137   2.858
  685SOL    HW1 2071   2.122   2.120   2.950
  685SOL    HW2 2072   1.999   2.092   2.846
  686SOL     OW 2073   1.881   2.230   2.509
  686SOL    HW1 2074   1.799   2.273   2.548
  686SOL    HW2 2075   1.853   2.157   2.446
  687SOL     OW 2076   2.547   2.874   2.527
  687SOL    HW1 2077   2.616   2.858   2.597
  687SOL    HW2 2078   2.474   2.931   2.565
  688SOL     OW 2079   1.984   2.505   2.425
  688SOL    HW1 2080   1.939   2.417   2.442
  688SOL    HW2 2081   1.983   2.559   2.509
  689SOL     OW 2082   2.671   1.866   2.364
  689SOL    HW1 2083   2.711   1.957   2.355
  689SOL    HW2 2084   2.571   1.874   2.370
  690SOL     OW 2085   2.460   2.591   2.132
  690SOL    HW1 2086   2.484   2.660   2.064
  690SOL    HW2 2087   2.382   2.624   2.186
  691SOL     OW 2088   1.938   2.673   2.651
  691SOL    HW1 2089   2.037   2.661   2.660
  691SOL    HW2 2090   1.914   2.768   2.672
  692SOL     OW 2091   2.727   2.210   2.057
  692SOL    HW1 2092   2.786   2.273   2.008
  692SOL    HW2 2093   2.746   2.116   2.028
  693SOL     OW 2094   2.412   2.058   2.747
  693SOL    HW1 2095   2.407   2.053   2.847
  693SOL    HW2 2096   2.414   2.154   2.718
  694SOL     OW 2097   2.244   2.562   2.342
  694SOL    HW1 2098   2.289   2.472   2.339
  694SOL    HW2 2099   2.150   2.551   2.375
  695SOL     OW 2100   2.476   1.984   1.979
  695SOL    HW1 2101   2.574   1.962   1.986
  695SOL    HW2 2102   2.445   1.967   1.886
  696SOL     OW 2103   2.401   1.926   2.374
  696SOL    HW1 2104   2.320   1.927   2.432
  696SOL    HW2 2105   2.404   2.009   2.319
  697SOL     OW 2106   2.159   1.897   2.033
  697SOL    HW1 2107   2.208   1.981   2.012
  697SOL    HW2 2108   2.221   1.832   2.078
  698SOL     OW 2109   2.389   2.118   2.190
  698SOL    HW1 2110   2.416   2.059   2.115
  698SOL    HW2 2111   2.389   2.213   2.159
  699SOL     OW 2112   2.428   2.399   2.727
  699SOL    HW1 2113   2.440   2.465   2.653
  699SOL    HW2 2114   2.474   2.433   2.810
  700SOL     OW 2115   2.594   2.496   2.926
  700SOL    HW1 2116   2.653   2.470   2.850
  700SOL    HW2 2117   2.566   2.592   2.915
  701SOL     OW 2118   2.169   1.925   2.480
  701SOL    HW1 2119   2.158   2.019   2.513
  701SOL    HW2 2120   2.164   1.862   2.557
  702SOL     OW 2121   2.885   2.628   2.828
  702SOL    HW1 2122   2.900   2.649   2.924
  702SOL    HW2 2123   2.855   2.533   2.819
  703SOL     OW 2124   2.677   2.434   2.187
  703SOL    HW1 2125   2.684   2.345   2.141
  703SOL    HW2 2126   2.583   2.468   2.179
  704SOL     OW 2127   2.335   2.362   2.053
  704SOL    HW1 2128   2.396   2.442   2.057
  704SOL    HW2 2129   2.240   2.393   2.060
  705SOL     OW 2130   2.765   1.948   1.995
  705SOL    HW1 2131   2.816   1.949   1.909
  705SOL    HW2 2132   2.821   1.906   2.066
  706SOL     OW 2133   2.125   2.188   2.582
  706SOL    HW1 2134   2.046   2.239   2.548
  706SOL    HW2 2135   2.116   2.173   2.680
  707SOL     OW 2136   2.901   2.960   2.558
  707SOL    HW1 2137   2.831   2.913   2.612
  707SOL    HW2 2138   2.960   2.892   2.515
  708SOL     OW 2139   1.937   2.207   1.895
  708SOL    HW1 2140   1.845   2.179   1.866
  708SOL    HW2 2141   1.968   2.284   1.839
  709SOL     OW 2142   1.934   2.028   2.180
  709SOL    HW1 2143   1.917   2.111   2.126
  709SOL    HW2 2144   2.024   1.991   2.158
  710SOL     OW 2145   2.456   2.607   2.514
  710SOL    HW1 2146   2.506   2.692   2.495
  710SOL    HW2 2147   2.368   2.609   2.466
  711SOL     OW 2148   2.721   2.818   2.723
  711SOL    HW1 2149   2.775   2.749   2.771
  711SOL    HW2 2150   2.689   2.887   2.789
  712SOL     OW 2151   2.290   2.286   2.382
  712SOL    HW1 2152   2.320   2.214   2.320
  712SOL    HW2 2153   2.251   2.246   2.465
   2.81916   2.81916   2.81916
