; mobley_9246351_GMX.top created by acpype (v: 2023.10.27) on Thu May 14 13:31:34 2026

[ defaults ]
; nbfunc        comb-rule       gen-pairs       fudgeLJ fudgeQQ
1               2               yes             0.5     0.8333333333

; Include mobley_9246351_GMX.itp topology
#include "mobley_9246351_GMX.itp"

; Ligand position restraints
#ifdef POSRES_LIG
#include "posre_mobley_9246351.itp"
#endif

#include "../common/SOL.TIP3P.itp"

[ system ]
mobley_9246351 in water

[ molecules ]
; Compound        nmols
 mobley_9246351   1     
SOL               409
