mobley_1079207_GMX.gro created by acpype (v: 2023.10.27) on Thu May 14 13:24:24 2026
 1653
    1MOL     C1    1   1.169   1.332   1.203
    1MOL     C2    2   1.276   1.271   1.138
    1MOL     C3    3   1.170   1.344   1.343
    1MOL     C4    4   1.383   1.231   1.351
    1MOL     C5    5   1.383   1.220   1.212
    1MOL     C6    6   1.276   1.293   1.416
    1MOL    CL1    7   1.514   1.144   1.132
    1MOL    CL2    8   1.277   1.307   1.588
    1MOL     H1    9   1.086   1.372   1.146
    1MOL     H2   10   1.274   1.262   1.030
    1MOL     H3   11   1.086   1.392   1.392
    1MOL     H4   12   1.466   1.192   1.409
    2SOL     OW   13   0.230   0.628   0.113
    2SOL    HW1   14   0.137   0.626   0.150
    2SOL    HW2   15   0.231   0.589   0.021
    3SOL     OW   16   0.225   0.275   0.996
    3SOL    HW1   17   0.260   0.258   1.088
    3SOL    HW2   18   0.137   0.230   0.984
    4SOL     OW   19   0.019   0.368   0.647
    4SOL    HW1   20  -0.063   0.411   0.686
    4SOL    HW2   21  -0.009   0.295   0.584
    5SOL     OW   22   0.569   1.275   1.165
    5SOL    HW1   23   0.476   1.268   1.128
    5SOL    HW2   24   0.580   1.364   1.209
    6SOL     OW   25   1.555   1.511   0.703
    6SOL    HW1   26   1.498   1.495   0.784
    6SOL    HW2   27   1.496   1.521   0.623
    7SOL     OW   28   1.135   0.703   0.717
    7SOL    HW1   29   1.192   0.781   0.692
    7SOL    HW2   30   1.075   0.729   0.793
    8SOL     OW   31   1.755   0.607   0.231
    8SOL    HW1   32   1.743   0.594   0.132
    8SOL    HW2   33   1.725   0.526   0.280
    9SOL     OW   34   0.768   1.144   1.023
    9SOL    HW1   35   0.690   1.161   1.083
    9SOL    HW2   36   0.802   1.231   0.987
   10SOL     OW   37   0.850   0.798   1.823
   10SOL    HW1   38   0.846   0.874   1.888
   10SOL    HW2   39   0.872   0.834   1.732
   11SOL     OW   40   0.685   1.012   0.665
   11SOL    HW1   41   0.754   0.996   0.735
   11SOL    HW2   42   0.612   1.069   0.703
   12SOL     OW   43   0.686   1.161   1.803
   12SOL    HW1   44   0.746   1.240   1.817
   12SOL    HW2   45   0.600   1.192   1.762
   13SOL     OW   46   0.335   1.435   1.061
   13SOL    HW1   47   0.257   1.404   1.008
   13SOL    HW2   48   0.393   1.493   1.004
   14SOL     OW   49   1.460   1.505   1.339
   14SOL    HW1   50   1.484   1.599   1.365
   14SOL    HW2   51   1.444   1.451   1.421
   15SOL     OW   52   0.438   0.392   1.499
   15SOL    HW1   53   0.520   0.336   1.508
   15SOL    HW2   54   0.357   0.334   1.503
   16SOL     OW   55   1.603   0.447   0.737
   16SOL    HW1   56   1.529   0.493   0.687
   16SOL    HW2   57   1.654   0.515   0.790
   17SOL     OW   58   0.231   1.713   0.483
   17SOL    HW1   59   0.265   1.790   0.537
   17SOL    HW2   60   0.275   1.713   0.393
   18SOL     OW   61   1.127   1.341   1.690
   18SOL    HW1   62   1.174   1.341   1.778
   18SOL    HW2   63   1.079   1.254   1.679
   19SOL     OW   64   0.230   1.434   0.538
   19SOL    HW1   65   0.204   1.530   0.538
   19SOL    HW2   66   0.159   1.380   0.583
   20SOL     OW   67   0.240   1.091   0.886
   20SOL    HW1   68   0.254   1.007   0.938
   20SOL    HW2   69   0.185   1.155   0.941
   21SOL     OW   70   0.620   1.786   1.439
   21SOL    HW1   71   0.528   1.769   1.474
   21SOL    HW2   72   0.648   1.878   1.465
   22SOL     OW   73   0.606   0.964   0.123
   22SOL    HW1   74   0.613   1.048   0.069
   22SOL    HW2   75   0.652   0.977   0.211
   23SOL     OW   76   1.594   0.114   1.480
   23SOL    HW1   77   1.576   0.181   1.408
   23SOL    HW2   78   1.591   0.160   1.569
   24SOL     OW   79   0.122   0.643   0.563
   24SOL    HW1   80   0.077   0.555   0.580
   24SOL    HW2   81   0.121   0.697   0.647
   25SOL     OW   82   1.842   1.767   0.359
   25SOL    HW1   83   1.896   1.738   0.439
   25SOL    HW2   84   1.872   1.857   0.330
   26SOL     OW   85   0.027   1.596   0.117
   26SOL    HW1   86   0.008   1.500   0.138
   26SOL    HW2   87  -0.006   1.654   0.192
   27SOL     OW   88   1.689   0.922   0.612
   27SOL    HW1   89   1.784   0.893   0.620
   27SOL    HW2   90   1.681   0.987   0.537
   28SOL     OW   91   1.641   1.108   0.432
   28SOL    HW1   92   1.727   1.110   0.380
   28SOL    HW2   93   1.655   1.155   0.520
   29SOL     OW   94   0.113   0.737   1.597
   29SOL    HW1   95   0.201   0.724   1.642
   29SOL    HW2   96   0.100   0.834   1.575
   30SOL     OW   97   0.613   1.365   0.726
   30SOL    HW1   98   0.564   1.278   0.735
   30SOL    HW2   99   0.590   1.408   0.639
   31SOL     OW  100   0.809   0.004   0.502
   31SOL    HW1  101   0.849   0.095   0.493
   31SOL    HW2  102   0.709   0.012   0.508
   32SOL     OW  103   0.197   0.976   1.264
   32SOL    HW1  104   0.286   0.931   1.250
   32SOL    HW2  105   0.124   0.911   1.245
   33SOL     OW  106   1.525   0.999   0.190
   33SOL    HW1  107   1.462   0.923   0.203
   33SOL    HW2  108   1.573   1.017   0.276
   34SOL     OW  109   1.187   1.792   1.616
   34SOL    HW1  110   1.211   1.852   1.540
   34SOL    HW2  111   1.194   1.697   1.586
   35SOL     OW  112   0.317   0.251   1.801
   35SOL    HW1  113   0.388   0.322   1.807
   35SOL    HW2  114   0.229   0.290   1.829
   36SOL     OW  115   1.466   1.417   0.953
   36SOL    HW1  116   1.407   1.423   1.033
   36SOL    HW2  117   1.451   1.329   0.907
   37SOL     OW  118   1.667   1.714   0.572
   37SOL    HW1  119   1.626   1.691   0.484
   37SOL    HW2  120   1.649   1.640   0.637
   38SOL     OW  121   0.598   0.729   0.270
   38SOL    HW1  122   0.622   0.798   0.202
   38SOL    HW2  123   0.520   0.762   0.324
   39SOL     OW  124   1.281   0.345   0.944
   39SOL    HW1  125   1.195   0.295   0.931
   39SOL    HW2  126   1.343   0.291   1.000
   40SOL     OW  127   1.576   1.662   0.307
   40SOL    HW1  128   1.665   1.708   0.310
   40SOL    HW2  129   1.555   1.638   0.212
   41SOL     OW  130   0.807   0.605   1.465
   41SOL    HW1  131   0.760   0.602   1.554
   41SOL    HW2  132   0.756   0.550   1.399
   42SOL     OW  133   1.394   0.469   1.674
   42SOL    HW1  134   1.374   0.512   1.762
   42SOL    HW2  135   1.472   0.407   1.683
   43SOL     OW  136   0.973   0.890   1.572
   43SOL    HW1  137   1.019   0.806   1.543
   43SOL    HW2  138   0.917   0.924   1.497
   44SOL     OW  139   0.991   0.410   1.242
   44SOL    HW1  140   0.914   0.444   1.296
   44SOL    HW2  141   0.957   0.359   1.163
   45SOL     OW  142   1.041   0.701   0.429
   45SOL    HW1  143   1.067   0.697   0.525
   45SOL    HW2  144   0.956   0.650   0.415
   46SOL     OW  145   0.076   0.811   0.789
   46SOL    HW1  146   0.175   0.799   0.798
   46SOL    HW2  147   0.052   0.906   0.810
   47SOL     OW  148   0.130   1.821   1.571
   47SOL    HW1  149   0.120   1.806   1.670
   47SOL    HW2  150   0.044   1.857   1.535
   48SOL     OW  151   0.865   0.348   0.195
   48SOL    HW1  152   0.924   0.411   0.146
   48SOL    HW2  153   0.884   0.254   0.166
   49SOL     OW  154   1.719   0.585   1.831
   49SOL    HW1  155   1.693   0.674   1.795
   49SOL    HW2  156   1.717   0.517   1.758
   50SOL     OW  157   1.362   1.144   0.545
   50SOL    HW1  158   1.445   1.115   0.497
   50SOL    HW2  159   1.313   1.211   0.489
   51SOL     OW  160   0.550   0.196   0.885
   51SOL    HW1  161   0.545   0.191   0.985
   51SOL    HW2  162   0.552   0.292   0.856
   52SOL     OW  163   1.008   1.456   0.477
   52SOL    HW1  164   0.962   1.528   0.425
   52SOL    HW2  165   1.004   1.476   0.575
   53SOL     OW  166   0.351   1.801   0.853
   53SOL    HW1  167   0.401   1.715   0.859
   53SOL    HW2  168   0.416   1.878   0.850
   54SOL     OW  169   1.795   1.066   0.873
   54SOL    HW1  170   1.733   1.051   0.797
   54SOL    HW2  171   1.743   1.077   0.958
   55SOL     OW  172   1.227   1.550   1.506
   55SOL    HW1  173   1.233   1.473   1.570
   55SOL    HW2  174   1.175   1.524   1.426
   56SOL     OW  175   0.321   0.943   0.242
   56SOL    HW1  176   0.403   0.982   0.200
   56SOL    HW2  177   0.294   0.861   0.193
   57SOL     OW  178   1.458   0.735   0.728
   57SOL    HW1  179   1.453   0.670   0.803
   57SOL    HW2  180   1.538   0.794   0.741
   58SOL     OW  181   0.461   1.266   1.727
   58SOL    HW1  182   0.411   1.267   1.641
   58SOL    HW2  183   0.398   1.248   1.803
   59SOL     OW  184   1.111   1.776   0.237
   59SOL    HW1  185   1.051   1.714   0.287
   59SOL    HW2  186   1.142   1.732   0.152
   60SOL     OW  187   0.202   0.285   1.498
   60SOL    HW1  188   0.122   0.345   1.485
   60SOL    HW2  189   0.192   0.236   1.584
   61SOL     OW  190   1.632   1.377   0.081
   61SOL    HW1  191   1.600   1.471   0.071
   61SOL    HW2  192   1.556   1.314   0.069
   62SOL     OW  193   0.464   1.743   0.323
   62SOL    HW1  194   0.497   1.782   0.409
   62SOL    HW2  195   0.540   1.736   0.258
   63SOL     OW  196   1.400   0.107   0.426
   63SOL    HW1  197   1.376   0.070   0.336
   63SOL    HW2  198   1.499   0.123   0.430
   64SOL     OW  199   0.249   1.785   1.241
   64SOL    HW1  200   0.306   1.720   1.291
   64SOL    HW2  201   0.233   1.752   1.148
   65SOL     OW  202   0.940   1.698   0.904
   65SOL    HW1  203   1.020   1.641   0.925
   65SOL    HW2  204   0.891   1.658   0.827
   66SOL     OW  205   0.382   0.700   0.480
   66SOL    HW1  206   0.427   0.610   0.477
   66SOL    HW2  207   0.288   0.689   0.513
   67SOL     OW  208   1.547   0.222   1.729
   67SOL    HW1  209   1.542   0.259   1.821
   67SOL    HW2  210   1.475   0.153   1.717
   68SOL     OW  211   0.614   0.122   0.117
   68SOL    HW1  212   0.712   0.100   0.124
   68SOL    HW2  213   0.583   0.105   0.024
   69SOL     OW  214   0.781   0.264   1.749
   69SOL    HW1  215   0.848   0.203   1.792
   69SOL    HW2  216   0.708   0.283   1.814
   70SOL     OW  217   0.888   1.514   1.195
   70SOL    HW1  218   0.865   1.489   1.101
   70SOL    HW2  219   0.949   1.445   1.234
   71SOL     OW  220   1.351   0.590   1.433
   71SOL    HW1  221   1.379   0.547   1.518
   71SOL    HW2  222   1.376   0.686   1.434
   72SOL     OW  223   0.803   1.402   0.924
   72SOL    HW1  224   0.893   1.416   0.882
   72SOL    HW2  225   0.732   1.404   0.853
   73SOL     OW  226   0.922   0.503   0.899
   73SOL    HW1  227   0.897   0.494   0.803
   73SOL    HW2  228   0.970   0.421   0.930
   74SOL     OW  229   0.539   0.064   0.512
   74SOL    HW1  230   0.458   0.065   0.570
   74SOL    HW2  231   0.542   0.147   0.457
   75SOL     OW  232   1.434   1.188   0.041
   75SOL    HW1  233   1.466   1.112   0.098
   75SOL    HW2  234   1.342   1.215   0.071
   76SOL     OW  235   0.297   0.035   0.171
   76SOL    HW1  236   0.346   0.119   0.150
   76SOL    HW2  237   0.359  -0.030   0.216
   77SOL     OW  238   0.935   0.236   0.480
   77SOL    HW1  239   0.887   0.277   0.402
   77SOL    HW2  240   1.034   0.234   0.461
   78SOL     OW  241   1.076   0.683   1.464
   78SOL    HW1  242   0.996   0.622   1.467
   78SOL    HW2  243   1.157   0.630   1.440
   79SOL     OW  244   1.227   1.570   0.793
   79SOL    HW1  245   1.248   1.644   0.728
   79SOL    HW2  246   1.295   1.570   0.866
   80SOL     OW  247   0.459   1.152   0.741
   80SOL    HW1  248   0.388   1.125   0.806
   80SOL    HW2  249   0.433   1.124   0.648
   81SOL     OW  250   1.271   1.797   0.591
   81SOL    HW1  251   1.315   1.861   0.527
   81SOL    HW2  252   1.221   1.849   0.661
   82SOL     OW  253   1.032   0.549   0.016
   82SOL    HW1  254   0.991   0.631  -0.023
   82SOL    HW2  255   1.096   0.575   0.089
   83SOL     OW  256   0.078   0.556   1.386
   83SOL    HW1  257   0.170   0.555   1.345
   83SOL    HW2  258   0.072   0.630   1.453
   84SOL     OW  259   0.561   0.222   1.147
   84SOL    HW1  260   0.599   0.138   1.184
   84SOL    HW2  261   0.473   0.241   1.191
   85SOL     OW  262   0.866   0.454   0.642
   85SOL    HW1  263   0.834   0.526   0.580
   85SOL    HW2  264   0.890   0.373   0.589
   86SOL     OW  265   1.017   0.039   0.753
   86SOL    HW1  266   0.945   0.044   0.684
   86SOL    HW2  267   0.993  -0.030   0.822
   87SOL     OW  268   1.429   1.173   0.867
   87SOL    HW1  269   1.374   1.089   0.860
   87SOL    HW2  270   1.455   1.202   0.775
   88SOL     OW  271   1.466   0.590   0.992
   88SOL    HW1  272   1.436   0.495   0.999
   88SOL    HW2  273   1.539   0.606   1.058
   89SOL     OW  274   1.857   0.833   0.377
   89SOL    HW1  275   1.899   0.769   0.441
   89SOL    HW2  276   1.819   0.782   0.299
   90SOL     OW  277   0.488   1.385   0.174
   90SOL    HW1  278   0.401   1.370   0.221
   90SOL    HW2  279   0.471   1.411   0.079
   91SOL     OW  280   1.664   1.280   0.657
   91SOL    HW1  281   1.763   1.288   0.671
   91SOL    HW2  282   1.619   1.364   0.688
   92SOL     OW  283   1.390   0.575   0.078
   92SOL    HW1  284   1.336   0.554   0.159
   92SOL    HW2  285   1.481   0.534   0.087
   93SOL     OW  286   0.527   0.256   0.328
   93SOL    HW1  287   0.554   0.197   0.253
   93SOL    HW2  288   0.527   0.351   0.297
   94SOL     OW  289   1.754   1.223   1.588
   94SOL    HW1  290   1.845   1.184   1.575
   94SOL    HW2  291   1.762   1.319   1.612
   95SOL     OW  292   1.592   1.629   1.625
   95SOL    HW1  293   1.619   1.663   1.535
   95SOL    HW2  294   1.671   1.591   1.671
   96SOL     OW  295   0.915   0.089   1.402
   96SOL    HW1  296   0.940   0.069   1.307
   96SOL    HW2  297   0.987   0.145   1.444
   97SOL     OW  298   0.980   1.116   1.719
   97SOL    HW1  299   0.881   1.122   1.729
   97SOL    HW2  300   1.003   1.036   1.663
   98SOL     OW  301   0.705   1.050   0.368
   98SOL    HW1  302   0.691   1.057   0.467
   98SOL    HW2  303   0.789   0.999   0.350
   99SOL     OW  304   0.410   0.813   1.251
   99SOL    HW1  305   0.496   0.825   1.301
   99SOL    HW2  306   0.368   0.726   1.278
  100SOL     OW  307   1.274   0.386   1.262
  100SOL    HW1  308   1.295   0.460   1.326
  100SOL    HW2  309   1.185   0.403   1.219
  101SOL     OW  310   0.064   1.564   1.331
  101SOL    HW1  311   0.018   1.646   1.297
  101SOL    HW2  312   0.162   1.583   1.340
  102SOL     OW  313   0.367   1.100   0.501
  102SOL    HW1  314   0.360   1.183   0.445
  102SOL    HW2  315   0.371   1.020   0.441
  103SOL     OW  316   0.566   0.537   0.865
  103SOL    HW1  317   0.578   0.603   0.791
  103SOL    HW2  318   0.612   0.571   0.948
  104SOL     OW  319   1.252   1.348   0.388
  104SOL    HW1  320   1.302   1.425   0.428
  104SOL    HW2  321   1.157   1.350   0.420
  105SOL     OW  322   1.582   0.639   0.472
  105SOL    HW1  323   1.551   0.700   0.545
  105SOL    HW2  324   1.632   0.691   0.403
  106SOL     OW  325   0.354   1.510   1.329
  106SOL    HW1  326   0.333   1.466   1.242
  106SOL    HW2  327   0.451   1.536   1.332
  107SOL     OW  328   0.402   0.751   1.598
  107SOL    HW1  329   0.470   0.806   1.551
  107SOL    HW2  330   0.442   0.663   1.625
  108SOL     OW  331   1.587   0.779   1.670
  108SOL    HW1  332   1.495   0.817   1.665
  108SOL    HW2  333   1.647   0.826   1.605
  109SOL     OW  334   1.013   0.105   1.770
  109SOL    HW1  335   1.019   0.190   1.718
  109SOL    HW2  336   1.045   0.029   1.713
  110SOL     OW  337   0.504   0.050   1.740
  110SOL    HW1  338   0.462  -0.007   1.670
  110SOL    HW2  339   0.438   0.119   1.772
  111SOL     OW  340   0.573   0.870   1.029
  111SOL    HW1  341   0.617   0.959   1.020
  111SOL    HW2  342   0.510   0.870   1.106
  112SOL     OW  343   1.360   0.862   1.045
  112SOL    HW1  344   1.285   0.862   0.979
  112SOL    HW2  345   1.397   0.770   1.054
  113SOL     OW  346   1.209   0.525   0.275
  113SOL    HW1  347   1.222   0.441   0.329
  113SOL    HW2  348   1.180   0.599   0.335
  114SOL     OW  349   0.307   0.213   1.231
  114SOL    HW1  350   0.284   0.250   1.321
  114SOL    HW2  351   0.277   0.118   1.225
  115SOL     OW  352   0.037   1.310   1.282
  115SOL    HW1  353   0.090   1.261   1.350
  115SOL    HW2  354   0.059   1.408   1.287
  116SOL     OW  355   0.732   0.634   1.064
  116SOL    HW1  356   0.791   0.608   0.988
  116SOL    HW2  357   0.704   0.730   1.053
  117SOL     OW  358   1.728   0.935   1.854
  117SOL    HW1  359   1.682   0.928   1.765
  117SOL    HW2  360   1.666   0.979   1.920
  118SOL     OW  361   0.307   0.063   0.618
  118SOL    HW1  362   0.296   0.157   0.651
  118SOL    HW2  363   0.302   0.000   0.695
  119SOL     OW  364   1.622   0.367   0.374
  119SOL    HW1  365   1.624   0.291   0.438
  119SOL    HW2  366   1.574   0.444   0.414
  120SOL     OW  367   1.023   0.766   0.966
  120SOL    HW1  368   1.038   0.787   1.062
  120SOL    HW2  369   0.993   0.671   0.957
  121SOL     OW  370   0.980   1.573   1.700
  121SOL    HW1  371   0.960   1.617   1.612
  121SOL    HW2  372   1.019   1.482   1.684
  122SOL     OW  373   1.859   1.518   1.605
  122SOL    HW1  374   1.873   1.545   1.510
  122SOL    HW2  375   1.942   1.540   1.658
  123SOL     OW  376   0.350   0.898   1.804
  123SOL    HW1  377   0.426   0.942   1.852
  123SOL    HW2  378   0.385   0.851   1.722
  124SOL     OW  379   1.540   0.274   0.125
  124SOL    HW1  380   1.479   0.199   0.148
  124SOL    HW2  381   1.562   0.326   0.208
  125SOL     OW  382   1.303   0.838   0.042
  125SOL    HW1  383   1.337   0.745   0.057
  125SOL    HW2  384   1.321   0.865  -0.053
  126SOL     OW  385   1.068   1.333   0.849
  126SOL    HW1  386   1.075   1.249   0.794
  126SOL    HW2  387   1.130   1.402   0.813
  127SOL     OW  388   0.319   0.810   0.949
  127SOL    HW1  389   0.412   0.846   0.954
  127SOL    HW2  390   0.313   0.725   1.001
  128SOL     OW  391   0.339   0.509   1.006
  128SOL    HW1  392   0.287   0.426   0.989
  128SOL    HW2  393   0.416   0.514   0.942
  129SOL     OW  394   1.138   0.380   1.678
  129SOL    HW1  395   1.093   0.443   1.742
  129SOL    HW2  396   1.231   0.411   1.661
  130SOL     OW  397   1.160   0.207   1.477
  130SOL    HW1  398   1.160   0.271   1.554
  130SOL    HW2  399   1.188   0.255   1.394
  131SOL     OW  400   0.008   1.326   0.200
  131SOL    HW1  401  -0.085   1.347   0.169
  131SOL    HW2  402   0.018   1.227   0.213
  132SOL     OW  403   0.088   1.801   0.927
  132SOL    HW1  404   0.046   1.715   0.900
  132SOL    HW2  405   0.182   1.804   0.893
  133SOL     OW  406   0.504   1.568   0.910
  133SOL    HW1  407   0.570   1.642   0.919
  133SOL    HW2  408   0.548   1.489   0.868
  134SOL     OW  409   1.002   0.796   1.238
  134SOL    HW1  410   1.043   0.764   1.324
  134SOL    HW2  411   0.906   0.769   1.235
  135SOL     OW  412   0.040   0.544   1.114
  135SOL    HW1  413   0.125   0.511   1.073
  135SOL    HW2  414   0.053   0.559   1.212
  136SOL     OW  415   0.189   0.520   1.722
  136SOL    HW1  416   0.248   0.480   1.652
  136SOL    HW2  417   0.131   0.591   1.681
  137SOL     OW  418   1.369   0.950   1.660
  137SOL    HW1  419   1.408   1.039   1.680
  137SOL    HW2  420   1.379   0.930   1.563
  138SOL     OW  421   0.815   0.572   0.325
  138SOL    HW1  422   0.822   0.483   0.279
  138SOL    HW2  423   0.721   0.606   0.317
  139SOL     OW  424   1.657   0.604   1.206
  139SOL    HW1  425   1.619   0.535   1.268
  139SOL    HW2  426   1.739   0.568   1.162
  140SOL     OW  427   0.252   1.564   1.744
  140SOL    HW1  428   0.222   1.621   1.820
  140SOL    HW2  429   0.245   1.467   1.770
  141SOL     OW  430   0.671   0.464   1.269
  141SOL    HW1  431   0.637   0.375   1.239
  141SOL    HW2  432   0.697   0.518   1.189
  142SOL     OW  433   0.930   1.678   1.465
  142SOL    HW1  434   0.906   1.660   1.370
  142SOL    HW2  435   0.960   1.772   1.475
  143SOL     OW  436   0.473   0.500   0.191
  143SOL    HW1  437   0.534   0.580   0.195
  143SOL    HW2  438   0.378   0.531   0.198
  144SOL     OW  439   0.159   1.137   1.466
  144SOL    HW1  440   0.181   1.076   1.542
  144SOL    HW2  441   0.169   1.088   1.380
  145SOL     OW  442   1.302   0.855   0.309
  145SOL    HW1  443   1.216   0.824   0.351
  145SOL    HW2  444   1.298   0.841   0.210
  146SOL     OW  445   1.759   1.747   1.154
  146SOL    HW1  446   1.820   1.777   1.081
  146SOL    HW2  447   1.721   1.658   1.132
  147SOL     OW  448   1.252   1.731   1.128
  147SOL    HW1  449   1.336   1.736   1.074
  147SOL    HW2  450   1.229   1.635   1.146
  148SOL     OW  451   0.083   1.258   1.022
  148SOL    HW1  452   0.078   1.257   1.122
  148SOL    HW2  453   0.000   1.217   0.984
  149SOL     OW  454   0.688   1.662   1.716
  149SOL    HW1  455   0.632   1.743   1.725
  149SOL    HW2  456   0.740   1.666   1.630
  150SOL     OW  457   0.903   0.086   0.133
  150SOL    HW1  458   0.954   0.087   0.047
  150SOL    HW2  459   0.959   0.044   0.204
  151SOL     OW  460   1.726   0.135   0.523
  151SOL    HW1  461   1.799   0.118   0.456
  151SOL    HW2  462   1.695   0.048   0.561
  152SOL     OW  463   1.388   1.573   0.477
  152SOL    HW1  464   1.455   1.585   0.403
  152SOL    HW2  465   1.348   1.662   0.500
  153SOL     OW  466   0.130   1.794   1.851
  153SOL    HW1  467   0.089   1.720   1.904
  153SOL    HW2  468   0.194   1.845   1.909
  154SOL     OW  469   1.280   0.927   0.672
  154SOL    HW1  470   1.340   0.846   0.674
  154SOL    HW2  471   1.320   0.996   0.612
  155SOL     OW  472   0.830   1.273   1.422
  155SOL    HW1  473   0.825   1.306   1.517
  155SOL    HW2  474   0.744   1.292   1.376
  156SOL     OW  475   0.672   1.616   0.154
  156SOL    HW1  476   0.681   1.626   0.055
  156SOL    HW2  477   0.632   1.527   0.175
  157SOL     OW  478   1.650   1.720   1.394
  157SOL    HW1  479   1.703   1.730   1.310
  157SOL    HW2  480   1.623   1.810   1.428
  158SOL     OW  481   1.841   0.175   0.963
  158SOL    HW1  482   1.880   0.090   0.927
  158SOL    HW2  483   1.743   0.177   0.944
  159SOL     OW  484   0.263   0.326   0.720
  159SOL    HW1  485   0.184   0.377   0.686
  159SOL    HW2  486   0.254   0.311   0.818
  160SOL     OW  487   1.194   1.612   0.031
  160SOL    HW1  488   1.200   1.519   0.068
  160SOL    HW2  489   1.135   1.612  -0.049
  161SOL     OW  490   0.822   1.002   1.372
  161SOL    HW1  491   0.862   1.001   1.280
  161SOL    HW2  492   0.832   1.094   1.412
  162SOL     OW  493   0.916   0.910   0.291
  162SOL    HW1  494   0.979   0.948   0.223
  162SOL    HW2  495   0.956   0.827   0.330
  163SOL     OW  496   1.504   1.607   0.044
  163SOL    HW1  497   1.412   1.644   0.051
  163SOL    HW2  498   1.542   1.627  -0.046
  164SOL     OW  499   0.372   1.288   1.490
  164SOL    HW1  500   0.359   1.381   1.456
  164SOL    HW2  501   0.288   1.236   1.477
  165SOL     OW  502   1.614   1.292   1.289
  165SOL    HW1  503   1.674   1.295   1.369
  165SOL    HW2  504   1.539   1.356   1.302
  166SOL     OW  505   1.039   1.098   0.696
  166SOL    HW1  506   0.969   1.051   0.750
  166SOL    HW2  507   1.098   1.030   0.653
  167SOL     OW  508   1.014   0.236   0.971
  167SOL    HW1  509   1.006   0.200   0.878
  167SOL    HW2  510   1.012   0.160   1.036
  168SOL     OW  511   0.590   1.487   0.491
  168SOL    HW1  512   0.632   1.429   0.421
  168SOL    HW2  513   0.546   1.566   0.447
  169SOL     OW  514   1.709   0.385   1.381
  169SOL    HW1  515   1.782   0.454   1.385
  169SOL    HW2  516   1.737   0.310   1.322
  170SOL     OW  517   0.255   1.348   0.290
  170SOL    HW1  518   0.159   1.349   0.263
  170SOL    HW2  519   0.267   1.401   0.374
  171SOL     OW  520   0.105   1.013   1.726
  171SOL    HW1  521   0.028   0.980   1.780
  171SOL    HW2  522   0.190   0.983   1.768
  172SOL     OW  523   0.672   0.203   1.489
  172SOL    HW1  524   0.762   0.187   1.449
  172SOL    HW2  525   0.680   0.208   1.588
  173SOL     OW  526   0.075   0.345   0.033
  173SOL    HW1  527  -0.017   0.317   0.004
  173SOL    HW2  528   0.106   0.422  -0.023
  174SOL     OW  529   1.440   0.856   1.398
  174SOL    HW1  530   1.383   0.908   1.335
  174SOL    HW2  531   1.536   0.868   1.374
  175SOL     OW  532   0.072   0.166   0.318
  175SOL    HW1  533   0.055   0.249   0.264
  175SOL    HW2  534   0.162   0.129   0.296
  176SOL     OW  535   1.183   1.335   0.119
  176SOL    HW1  536   1.084   1.324   0.121
  176SOL    HW2  537   1.217   1.350   0.212
  177SOL     OW  538   0.613   0.842   1.431
  177SOL    HW1  539   0.669   0.923   1.414
  177SOL    HW2  540   0.672   0.762   1.434
  178SOL     OW  541   1.493   1.767   0.959
  178SOL    HW1  542   1.526   1.831   0.890
  178SOL    HW2  543   1.559   1.761   1.034
  179SOL     OW  544   0.716   0.565   1.708
  179SOL    HW1  545   0.735   0.630   1.782
  179SOL    HW2  546   0.776   0.485   1.717
  180SOL     OW  547   1.450   1.220   1.633
  180SOL    HW1  548   1.441   1.210   1.732
  180SOL    HW2  549   1.546   1.213   1.607
  181SOL     OW  550   0.390   1.741   1.560
  181SOL    HW1  551   0.299   1.782   1.558
  181SOL    HW2  552   0.383   1.647   1.592
  182SOL     OW  553   1.674   0.883   1.254
  182SOL    HW1  554   1.647   0.794   1.217
  182SOL    HW2  555   1.675   0.951   1.181
  183SOL     OW  556   1.225   0.325   0.449
  183SOL    HW1  557   1.290   0.251   0.438
  183SOL    HW2  558   1.245   0.375   0.533
  184SOL     OW  559   0.594   0.745   0.652
  184SOL    HW1  560   0.644   0.830   0.633
  184SOL    HW2  561   0.506   0.747   0.604
  185SOL     OW  562   1.777   0.342   1.642
  185SOL    HW1  563   1.760   0.373   1.548
  185SOL    HW2  564   1.693   0.305   1.680
  186SOL     OW  565   1.730   0.934   1.517
  186SOL    HW1  566   1.768   1.025   1.532
  186SOL    HW2  567   1.722   0.917   1.418
  187SOL     OW  568   0.859   1.374   0.016
  187SOL    HW1  569   0.813   1.389   0.104
  187SOL    HW2  570   0.903   1.459  -0.014
  188SOL     OW  571   0.661   1.790   0.953
  188SOL    HW1  572   0.615   1.878   0.940
  188SOL    HW2  573   0.760   1.802   0.946
  189SOL     OW  574   0.859   0.956   0.861
  189SOL    HW1  575   0.913   0.887   0.909
  189SOL    HW2  576   0.827   1.025   0.927
  190SOL     OW  577   1.083   0.984   0.087
  190SOL    HW1  578   1.060   1.037   0.005
  190SOL    HW2  579   1.164   0.928   0.068
  191SOL     OW  580   1.861   1.569   0.851
  191SOL    HW1  581   1.790   1.557   0.781
  191SOL    HW2  582   1.862   1.490   0.911
  192SOL     OW  583   0.221   1.314   1.844
  192SOL    HW1  584   0.156   1.241   1.823
  192SOL    HW2  585   0.225   1.328   1.942
  193SOL     OW  586   0.079   1.240   0.653
  193SOL    HW1  587   0.078   1.193   0.741
  193SOL    HW2  588   0.161   1.212   0.602
  194SOL     OW  589   0.672   1.391   1.624
  194SOL    HW1  590   0.594   1.341   1.662
  194SOL    HW2  591   0.669   1.486   1.655
  195SOL     OW  592   1.824   0.192   1.227
  195SOL    HW1  593   1.820   0.102   1.271
  195SOL    HW2  594   1.827   0.181   1.128
  196SOL     OW  595   0.428   0.424   0.520
  196SOL    HW1  596   0.458   0.352   0.458
  196SOL    HW2  597   0.389   0.384   0.603
  197SOL     OW  598   1.705   1.487   1.104
  197SOL    HW1  599   1.612   1.462   1.077
  197SOL    HW2  600   1.731   1.437   1.186
  198SOL     OW  601   0.317   0.547   1.280
  198SOL    HW1  602   0.355   0.488   1.352
  198SOL    HW2  603   0.357   0.521   1.192
  199SOL     OW  604   0.812   1.586   0.687
  199SOL    HW1  605   0.844   1.596   0.593
  199SOL    HW2  606   0.733   1.524   0.689
  200SOL     OW  607   1.424   0.214   1.112
  200SOL    HW1  608   1.476   0.149   1.167
  200SOL    HW2  609   1.375   0.277   1.173
  201SOL     OW  610   1.001   0.034   1.154
  201SOL    HW1  611   0.938  -0.038   1.123
  201SOL    HW2  612   1.094  -0.002   1.154
  202SOL     OW  613   0.770   1.330   0.301
  202SOL    HW1  614   0.724   1.243   0.318
  202SOL    HW2  615   0.861   1.327   0.342
  203SOL     OW  616   0.618   1.567   1.284
  203SOL    HW1  617   0.613   1.649   1.341
  203SOL    HW2  618   0.707   1.564   1.239
  204SOL     OW  619   1.352   0.052   0.168
  204SOL    HW1  620   1.387   0.011   0.084
  204SOL    HW2  621   1.262   0.014   0.188
  205SOL     OW  622   1.300   0.453   0.691
  205SOL    HW1  623   1.241   0.533   0.695
  205SOL    HW2  624   1.315   0.418   0.784
  206SOL     OW  625   1.593   0.221   0.882
  206SOL    HW1  626   1.509   0.220   0.936
  206SOL    HW2  627   1.595   0.304   0.826
  207SOL     OW  628   0.039   1.077   0.300
  207SOL    HW1  629   0.138   1.066   0.291
  207SOL    HW2  630  -0.001   0.991   0.332
  208SOL     OW  631   0.875   1.646   0.337
  208SOL    HW1  632   0.798   1.611   0.283
  208SOL    HW2  633   0.843   1.717   0.399
  209SOL     OW  634   0.230   0.628   1.975
  209SOL    HW1  635   0.137   0.626   2.012
  209SOL    HW2  636   0.231   0.589   1.883
  210SOL     OW  637   1.755   0.607   2.093
  210SOL    HW1  638   1.743   0.594   1.994
  210SOL    HW2  639   1.725   0.526   2.142
  211SOL     OW  640   0.231   1.713   2.345
  211SOL    HW1  641   0.265   1.790   2.399
  211SOL    HW2  642   0.275   1.713   2.255
  212SOL     OW  643   0.230   1.434   2.400
  212SOL    HW1  644   0.204   1.530   2.400
  212SOL    HW2  645   0.159   1.380   2.445
  213SOL     OW  646   0.606   0.964   1.985
  213SOL    HW1  647   0.613   1.048   1.931
  213SOL    HW2  648   0.652   0.977   2.073
  214SOL     OW  649   0.122   0.643   2.425
  214SOL    HW1  650   0.077   0.555   2.442
  214SOL    HW2  651   0.121   0.697   2.509
  215SOL     OW  652   1.842   1.767   2.221
  215SOL    HW1  653   1.896   1.738   2.301
  215SOL    HW2  654   1.872   1.857   2.192
  216SOL     OW  655   0.027   1.596   1.979
  216SOL    HW1  656   0.008   1.500   2.000
  216SOL    HW2  657  -0.006   1.654   2.054
  217SOL     OW  658   1.689   0.922   2.474
  217SOL    HW1  659   1.784   0.893   2.482
  217SOL    HW2  660   1.681   0.987   2.399
  218SOL     OW  661   1.641   1.108   2.294
  218SOL    HW1  662   1.727   1.110   2.242
  218SOL    HW2  663   1.655   1.155   2.382
  219SOL     OW  664   0.613   1.365   2.588
  219SOL    HW1  665   0.564   1.278   2.597
  219SOL    HW2  666   0.590   1.408   2.501
  220SOL     OW  667   0.809   0.004   2.364
  220SOL    HW1  668   0.849   0.095   2.355
  220SOL    HW2  669   0.709   0.012   2.370
  221SOL     OW  670   1.525   0.999   2.052
  221SOL    HW1  671   1.462   0.923   2.065
  221SOL    HW2  672   1.573   1.017   2.138
  222SOL     OW  673   1.466   1.417   2.815
  222SOL    HW1  674   1.407   1.423   2.895
  222SOL    HW2  675   1.451   1.329   2.769
  223SOL     OW  676   0.598   0.729   2.132
  223SOL    HW1  677   0.622   0.798   2.064
  223SOL    HW2  678   0.520   0.762   2.186
  224SOL     OW  679   1.576   1.662   2.169
  224SOL    HW1  680   1.665   1.708   2.172
  224SOL    HW2  681   1.555   1.638   2.074
  225SOL     OW  682   1.041   0.701   2.291
  225SOL    HW1  683   1.067   0.697   2.387
  225SOL    HW2  684   0.956   0.650   2.277
  226SOL     OW  685   0.076   0.811   2.651
  226SOL    HW1  686   0.175   0.799   2.660
  226SOL    HW2  687   0.052   0.906   2.672
  227SOL     OW  688   0.865   0.348   2.057
  227SOL    HW1  689   0.924   0.411   2.008
  227SOL    HW2  690   0.884   0.254   2.028
  228SOL     OW  691   1.362   1.144   2.407
  228SOL    HW1  692   1.445   1.115   2.359
  228SOL    HW2  693   1.313   1.211   2.351
  229SOL     OW  694   1.008   1.456   2.339
  229SOL    HW1  695   0.962   1.528   2.287
  229SOL    HW2  696   1.004   1.476   2.437
  230SOL     OW  697   0.351   1.801   2.715
  230SOL    HW1  698   0.401   1.715   2.721
  230SOL    HW2  699   0.416   1.878   2.712
  231SOL     OW  700   0.321   0.943   2.104
  231SOL    HW1  701   0.403   0.982   2.062
  231SOL    HW2  702   0.294   0.861   2.055
  232SOL     OW  703   1.111   1.776   2.099
  232SOL    HW1  704   1.051   1.714   2.149
  232SOL    HW2  705   1.142   1.732   2.014
  233SOL     OW  706   1.632   1.377   1.943
  233SOL    HW1  707   1.600   1.471   1.933
  233SOL    HW2  708   1.556   1.314   1.931
  234SOL     OW  709   0.464   1.743   2.185
  234SOL    HW1  710   0.497   1.782   2.271
  234SOL    HW2  711   0.540   1.736   2.120
  235SOL     OW  712   1.400   0.107   2.288
  235SOL    HW1  713   1.376   0.070   2.198
  235SOL    HW2  714   1.499   0.123   2.292
  236SOL     OW  715   0.382   0.700   2.342
  236SOL    HW1  716   0.427   0.610   2.339
  236SOL    HW2  717   0.288   0.689   2.375
  237SOL     OW  718   0.614   0.122   1.979
  237SOL    HW1  719   0.712   0.100   1.986
  237SOL    HW2  720   0.583   0.105   1.886
  238SOL     OW  721   0.539   0.064   2.374
  238SOL    HW1  722   0.458   0.065   2.432
  238SOL    HW2  723   0.542   0.147   2.319
  239SOL     OW  724   1.434   1.188   1.903
  239SOL    HW1  725   1.466   1.112   1.960
  239SOL    HW2  726   1.342   1.215   1.933
  240SOL     OW  727   0.297   0.035   2.033
  240SOL    HW1  728   0.346   0.119   2.012
  240SOL    HW2  729   0.359  -0.030   2.078
  241SOL     OW  730   0.935   0.236   2.342
  241SOL    HW1  731   0.887   0.277   2.264
  241SOL    HW2  732   1.034   0.234   2.323
  242SOL     OW  733   0.459   1.152   2.603
  242SOL    HW1  734   0.388   1.125   2.668
  242SOL    HW2  735   0.433   1.124   2.510
  243SOL     OW  736   1.271   1.797   2.453
  243SOL    HW1  737   1.315   1.861   2.389
  243SOL    HW2  738   1.221   1.849   2.523
  244SOL     OW  739   1.032   0.549   1.878
  244SOL    HW1  740   0.991   0.631   1.839
  244SOL    HW2  741   1.096   0.575   1.951
  245SOL     OW  742   0.866   0.454   2.504
  245SOL    HW1  743   0.834   0.526   2.442
  245SOL    HW2  744   0.890   0.373   2.451
  246SOL     OW  745   1.857   0.833   2.239
  246SOL    HW1  746   1.899   0.769   2.303
  246SOL    HW2  747   1.819   0.782   2.161
  247SOL     OW  748   0.488   1.385   2.036
  247SOL    HW1  749   0.401   1.370   2.083
  247SOL    HW2  750   0.471   1.411   1.941
  248SOL     OW  751   1.390   0.575   1.940
  248SOL    HW1  752   1.336   0.554   2.021
  248SOL    HW2  753   1.481   0.534   1.949
  249SOL     OW  754   0.527   0.256   2.190
  249SOL    HW1  755   0.554   0.197   2.115
  249SOL    HW2  756   0.527   0.351   2.159
  250SOL     OW  757   0.705   1.050   2.230
  250SOL    HW1  758   0.691   1.057   2.329
  250SOL    HW2  759   0.789   0.999   2.212
  251SOL     OW  760   0.367   1.100   2.363
  251SOL    HW1  761   0.360   1.183   2.307
  251SOL    HW2  762   0.371   1.020   2.303
  252SOL     OW  763   1.252   1.348   2.250
  252SOL    HW1  764   1.302   1.425   2.290
  252SOL    HW2  765   1.157   1.350   2.282
  253SOL     OW  766   1.582   0.639   2.334
  253SOL    HW1  767   1.551   0.700   2.407
  253SOL    HW2  768   1.632   0.691   2.265
  254SOL     OW  769   1.209   0.525   2.137
  254SOL    HW1  770   1.222   0.441   2.191
  254SOL    HW2  771   1.180   0.599   2.197
  255SOL     OW  772   0.307   0.063   2.480
  255SOL    HW1  773   0.296   0.157   2.513
  255SOL    HW2  774   0.302   0.000   2.557
  256SOL     OW  775   1.622   0.367   2.236
  256SOL    HW1  776   1.624   0.291   2.300
  256SOL    HW2  777   1.574   0.444   2.276
  257SOL     OW  778   1.540   0.274   1.987
  257SOL    HW1  779   1.479   0.199   2.010
  257SOL    HW2  780   1.562   0.326   2.070
  258SOL     OW  781   1.303   0.838   1.904
  258SOL    HW1  782   1.337   0.745   1.919
  258SOL    HW2  783   1.321   0.865   1.809
  259SOL     OW  784   0.008   1.326   2.062
  259SOL    HW1  785  -0.085   1.347   2.031
  259SOL    HW2  786   0.018   1.227   2.075
  260SOL     OW  787   0.815   0.572   2.187
  260SOL    HW1  788   0.822   0.483   2.141
  260SOL    HW2  789   0.721   0.606   2.179
  261SOL     OW  790   0.473   0.500   2.053
  261SOL    HW1  791   0.534   0.580   2.057
  261SOL    HW2  792   0.378   0.531   2.060
  262SOL     OW  793   1.302   0.855   2.171
  262SOL    HW1  794   1.216   0.824   2.213
  262SOL    HW2  795   1.298   0.841   2.072
  263SOL     OW  796   1.726   0.135   2.385
  263SOL    HW1  797   1.799   0.118   2.318
  263SOL    HW2  798   1.695   0.048   2.423
  264SOL     OW  799   1.388   1.573   2.339
  264SOL    HW1  800   1.455   1.585   2.265
  264SOL    HW2  801   1.348   1.662   2.362
  265SOL     OW  802   0.672   1.616   2.016
  265SOL    HW1  803   0.681   1.626   1.917
  265SOL    HW2  804   0.632   1.527   2.037
  266SOL     OW  805   1.841   0.175   2.825
  266SOL    HW1  806   1.880   0.090   2.789
  266SOL    HW2  807   1.743   0.177   2.806
  267SOL     OW  808   1.194   1.612   1.893
  267SOL    HW1  809   1.200   1.519   1.930
  267SOL    HW2  810   1.135   1.612   1.813
  268SOL     OW  811   0.916   0.910   2.153
  268SOL    HW1  812   0.979   0.948   2.085
  268SOL    HW2  813   0.956   0.827   2.192
  269SOL     OW  814   1.504   1.607   1.906
  269SOL    HW1  815   1.412   1.644   1.913
  269SOL    HW2  816   1.542   1.627   1.816
  270SOL     OW  817   0.590   1.487   2.353
  270SOL    HW1  818   0.632   1.429   2.283
  270SOL    HW2  819   0.546   1.566   2.309
  271SOL     OW  820   0.255   1.348   2.152
  271SOL    HW1  821   0.159   1.349   2.125
  271SOL    HW2  822   0.267   1.401   2.236
  272SOL     OW  823   0.075   0.345   1.895
  272SOL    HW1  824  -0.017   0.317   1.866
  272SOL    HW2  825   0.106   0.422   1.839
  273SOL     OW  826   0.072   0.166   2.180
  273SOL    HW1  827   0.055   0.249   2.126
  273SOL    HW2  828   0.162   0.129   2.158
  274SOL     OW  829   1.183   1.335   1.981
  274SOL    HW1  830   1.084   1.324   1.983
  274SOL    HW2  831   1.217   1.350   2.074
  275SOL     OW  832   1.225   0.325   2.311
  275SOL    HW1  833   1.290   0.251   2.300
  275SOL    HW2  834   1.245   0.375   2.395
  276SOL     OW  835   0.594   0.745   2.514
  276SOL    HW1  836   0.644   0.830   2.495
  276SOL    HW2  837   0.506   0.747   2.466
  277SOL     OW  838   0.859   1.374   1.878
  277SOL    HW1  839   0.813   1.389   1.966
  277SOL    HW2  840   0.903   1.459   1.848
  278SOL     OW  841   1.083   0.984   1.949
  278SOL    HW1  842   1.060   1.037   1.867
  278SOL    HW2  843   1.164   0.928   1.930
  279SOL     OW  844   0.079   1.240   2.515
  279SOL    HW1  845   0.078   1.193   2.603
  279SOL    HW2  846   0.161   1.212   2.464
  280SOL     OW  847   0.428   0.424   2.382
  280SOL    HW1  848   0.458   0.352   2.320
  280SOL    HW2  849   0.389   0.384   2.465
  281SOL     OW  850   0.770   1.330   2.163
  281SOL    HW1  851   0.724   1.243   2.180
  281SOL    HW2  852   0.861   1.327   2.204
  282SOL     OW  853   1.352   0.052   2.030
  282SOL    HW1  854   1.387   0.011   1.946
  282SOL    HW2  855   1.262   0.014   2.050
  283SOL     OW  856   1.300   0.453   2.553
  283SOL    HW1  857   1.241   0.533   2.557
  283SOL    HW2  858   1.315   0.418   2.646
  284SOL     OW  859   0.039   1.077   2.162
  284SOL    HW1  860   0.138   1.066   2.153
  284SOL    HW2  861  -0.001   0.991   2.194
  285SOL     OW  862   0.875   1.646   2.199
  285SOL    HW1  863   0.798   1.611   2.145
  285SOL    HW2  864   0.843   1.717   2.261
  286SOL     OW  865   0.225   2.137   0.996
  286SOL    HW1  866   0.260   2.120   1.088
  286SOL    HW2  867   0.137   2.092   0.984
  287SOL     OW  868   0.019   2.230   0.647
  287SOL    HW1  869  -0.063   2.273   0.686
  287SOL    HW2  870  -0.009   2.157   0.584
  288SOL     OW  871   1.755   2.469   0.231
  288SOL    HW1  872   1.743   2.456   0.132
  288SOL    HW2  873   1.725   2.388   0.280
  289SOL     OW  874   0.438   2.254   1.499
  289SOL    HW1  875   0.520   2.198   1.508
  289SOL    HW2  876   0.357   2.196   1.503
  290SOL     OW  877   1.603   2.309   0.737
  290SOL    HW1  878   1.529   2.355   0.687
  290SOL    HW2  879   1.654   2.377   0.790
  291SOL     OW  880   1.594   1.976   1.480
  291SOL    HW1  881   1.576   2.043   1.408
  291SOL    HW2  882   1.591   2.022   1.569
  292SOL     OW  883   0.122   2.505   0.563
  292SOL    HW1  884   0.077   2.417   0.580
  292SOL    HW2  885   0.121   2.559   0.647
  293SOL     OW  886   0.809   1.866   0.502
  293SOL    HW1  887   0.849   1.957   0.493
  293SOL    HW2  888   0.709   1.874   0.508
  294SOL     OW  889   0.317   2.113   1.801
  294SOL    HW1  890   0.388   2.184   1.807
  294SOL    HW2  891   0.229   2.152   1.829
  295SOL     OW  892   1.281   2.207   0.944
  295SOL    HW1  893   1.195   2.157   0.931
  295SOL    HW2  894   1.343   2.153   1.000
  296SOL     OW  895   0.807   2.467   1.465
  296SOL    HW1  896   0.760   2.464   1.554
  296SOL    HW2  897   0.756   2.412   1.399
  297SOL     OW  898   1.394   2.331   1.674
  297SOL    HW1  899   1.374   2.374   1.762
  297SOL    HW2  900   1.472   2.269   1.683
  298SOL     OW  901   0.991   2.272   1.242
  298SOL    HW1  902   0.914   2.306   1.296
  298SOL    HW2  903   0.957   2.221   1.163
  299SOL     OW  904   1.041   2.563   0.429
  299SOL    HW1  905   1.067   2.559   0.525
  299SOL    HW2  906   0.956   2.512   0.415
  300SOL     OW  907   0.076   2.673   0.789
  300SOL    HW1  908   0.175   2.661   0.798
  300SOL    HW2  909   0.052   2.768   0.810
  301SOL     OW  910   0.865   2.210   0.195
  301SOL    HW1  911   0.924   2.273   0.146
  301SOL    HW2  912   0.884   2.116   0.166
  302SOL     OW  913   1.719   2.447   1.831
  302SOL    HW1  914   1.693   2.536   1.795
  302SOL    HW2  915   1.717   2.379   1.758
  303SOL     OW  916   0.550   2.058   0.885
  303SOL    HW1  917   0.545   2.053   0.985
  303SOL    HW2  918   0.552   2.154   0.856
  304SOL     OW  919   1.458   2.597   0.728
  304SOL    HW1  920   1.453   2.532   0.803
  304SOL    HW2  921   1.538   2.656   0.741
  305SOL     OW  922   0.202   2.147   1.498
  305SOL    HW1  923   0.122   2.207   1.485
  305SOL    HW2  924   0.192   2.098   1.584
  306SOL     OW  925   1.400   1.969   0.426
  306SOL    HW1  926   1.376   1.932   0.336
  306SOL    HW2  927   1.499   1.985   0.430
  307SOL     OW  928   1.547   2.084   1.729
  307SOL    HW1  929   1.542   2.121   1.821
  307SOL    HW2  930   1.475   2.015   1.717
  308SOL     OW  931   0.614   1.984   0.117
  308SOL    HW1  932   0.712   1.962   0.124
  308SOL    HW2  933   0.583   1.967   0.024
  309SOL     OW  934   0.781   2.126   1.749
  309SOL    HW1  935   0.848   2.065   1.792
  309SOL    HW2  936   0.708   2.145   1.814
  310SOL     OW  937   1.351   2.452   1.433
  310SOL    HW1  938   1.379   2.409   1.518
  310SOL    HW2  939   1.376   2.548   1.434
  311SOL     OW  940   0.922   2.365   0.899
  311SOL    HW1  941   0.897   2.356   0.803
  311SOL    HW2  942   0.970   2.283   0.930
  312SOL     OW  943   0.539   1.926   0.512
  312SOL    HW1  944   0.458   1.927   0.570
  312SOL    HW2  945   0.542   2.009   0.457
  313SOL     OW  946   0.935   2.098   0.480
  313SOL    HW1  947   0.887   2.139   0.402
  313SOL    HW2  948   1.034   2.096   0.461
  314SOL     OW  949   1.076   2.545   1.464
  314SOL    HW1  950   0.996   2.484   1.467
  314SOL    HW2  951   1.157   2.492   1.440
  315SOL     OW  952   1.032   2.411   0.016
  315SOL    HW1  953   0.991   2.493  -0.023
  315SOL    HW2  954   1.096   2.437   0.089
  316SOL     OW  955   0.078   2.418   1.386
  316SOL    HW1  956   0.170   2.417   1.345
  316SOL    HW2  957   0.072   2.492   1.453
  317SOL     OW  958   0.561   2.084   1.147
  317SOL    HW1  959   0.599   2.000   1.184
  317SOL    HW2  960   0.473   2.103   1.191
  318SOL     OW  961   0.866   2.316   0.642
  318SOL    HW1  962   0.834   2.388   0.580
  318SOL    HW2  963   0.890   2.235   0.589
  319SOL     OW  964   1.017   1.901   0.753
  319SOL    HW1  965   0.945   1.906   0.684
  319SOL    HW2  966   0.993   1.832   0.822
  320SOL     OW  967   1.466   2.452   0.992
  320SOL    HW1  968   1.436   2.357   0.999
  320SOL    HW2  969   1.539   2.468   1.058
  321SOL     OW  970   0.527   2.118   0.328
  321SOL    HW1  971   0.554   2.059   0.253
  321SOL    HW2  972   0.527   2.213   0.297
  322SOL     OW  973   0.915   1.951   1.402
  322SOL    HW1  974   0.940   1.931   1.307
  322SOL    HW2  975   0.987   2.007   1.444
  323SOL     OW  976   1.274   2.248   1.262
  323SOL    HW1  977   1.295   2.322   1.326
  323SOL    HW2  978   1.185   2.265   1.219
  324SOL     OW  979   0.566   2.399   0.865
  324SOL    HW1  980   0.578   2.465   0.791
  324SOL    HW2  981   0.612   2.433   0.948
  325SOL     OW  982   1.582   2.501   0.472
  325SOL    HW1  983   1.551   2.562   0.545
  325SOL    HW2  984   1.632   2.553   0.403
  326SOL     OW  985   1.013   1.967   1.770
  326SOL    HW1  986   1.019   2.052   1.718
  326SOL    HW2  987   1.045   1.891   1.713
  327SOL     OW  988   0.504   1.912   1.740
  327SOL    HW1  989   0.462   1.855   1.670
  327SOL    HW2  990   0.438   1.981   1.772
  328SOL     OW  991   1.209   2.387   0.275
  328SOL    HW1  992   1.222   2.303   0.329
  328SOL    HW2  993   1.180   2.461   0.335
  329SOL     OW  994   0.307   2.075   1.231
  329SOL    HW1  995   0.284   2.112   1.321
  329SOL    HW2  996   0.277   1.980   1.225
  330SOL     OW  997   0.732   2.496   1.064
  330SOL    HW1  998   0.791   2.470   0.988
  330SOL    HW2  999   0.704   2.592   1.053
  331SOL     OW 1000   0.307   1.925   0.618
  331SOL    HW1 1001   0.296   2.019   0.651
  331SOL    HW2 1002   0.302   1.862   0.695
  332SOL     OW 1003   1.622   2.229   0.374
  332SOL    HW1 1004   1.624   2.153   0.438
  332SOL    HW2 1005   1.574   2.306   0.414
  333SOL     OW 1006   1.540   2.136   0.125
  333SOL    HW1 1007   1.479   2.061   0.148
  333SOL    HW2 1008   1.562   2.188   0.208
  334SOL     OW 1009   0.319   2.672   0.949
  334SOL    HW1 1010   0.412   2.708   0.954
  334SOL    HW2 1011   0.313   2.587   1.001
  335SOL     OW 1012   0.339   2.371   1.006
  335SOL    HW1 1013   0.287   2.288   0.989
  335SOL    HW2 1014   0.416   2.376   0.942
  336SOL     OW 1015   1.138   2.242   1.678
  336SOL    HW1 1016   1.093   2.305   1.742
  336SOL    HW2 1017   1.231   2.273   1.661
  337SOL     OW 1018   1.160   2.069   1.477
  337SOL    HW1 1019   1.160   2.133   1.554
  337SOL    HW2 1020   1.188   2.117   1.394
  338SOL     OW 1021   0.040   2.406   1.114
  338SOL    HW1 1022   0.125   2.373   1.073
  338SOL    HW2 1023   0.053   2.421   1.212
  339SOL     OW 1024   0.189   2.382   1.722
  339SOL    HW1 1025   0.248   2.342   1.652
  339SOL    HW2 1026   0.131   2.453   1.681
  340SOL     OW 1027   0.815   2.434   0.325
  340SOL    HW1 1028   0.822   2.345   0.279
  340SOL    HW2 1029   0.721   2.468   0.317
  341SOL     OW 1030   1.657   2.466   1.206
  341SOL    HW1 1031   1.619   2.397   1.268
  341SOL    HW2 1032   1.739   2.430   1.162
  342SOL     OW 1033   0.671   2.326   1.269
  342SOL    HW1 1034   0.637   2.237   1.239
  342SOL    HW2 1035   0.697   2.380   1.189
  343SOL     OW 1036   0.473   2.362   0.191
  343SOL    HW1 1037   0.534   2.442   0.195
  343SOL    HW2 1038   0.378   2.393   0.198
  344SOL     OW 1039   0.903   1.948   0.133
  344SOL    HW1 1040   0.954   1.949   0.047
  344SOL    HW2 1041   0.959   1.906   0.204
  345SOL     OW 1042   1.726   1.997   0.523
  345SOL    HW1 1043   1.799   1.980   0.456
  345SOL    HW2 1044   1.695   1.910   0.561
  346SOL     OW 1045   1.841   2.037   0.963
  346SOL    HW1 1046   1.880   1.952   0.927
  346SOL    HW2 1047   1.743   2.039   0.944
  347SOL     OW 1048   0.263   2.188   0.720
  347SOL    HW1 1049   0.184   2.239   0.686
  347SOL    HW2 1050   0.254   2.173   0.818
  348SOL     OW 1051   1.014   2.098   0.971
  348SOL    HW1 1052   1.006   2.062   0.878
  348SOL    HW2 1053   1.012   2.022   1.036
  349SOL     OW 1054   1.709   2.247   1.381
  349SOL    HW1 1055   1.782   2.316   1.385
  349SOL    HW2 1056   1.737   2.172   1.322
  350SOL     OW 1057   0.672   2.065   1.489
  350SOL    HW1 1058   0.762   2.049   1.449
  350SOL    HW2 1059   0.680   2.070   1.588
  351SOL     OW 1060   0.075   2.207   0.033
  351SOL    HW1 1061  -0.017   2.179   0.004
  351SOL    HW2 1062   0.106   2.284  -0.023
  352SOL     OW 1063   0.072   2.028   0.318
  352SOL    HW1 1064   0.055   2.111   0.264
  352SOL    HW2 1065   0.162   1.991   0.296
  353SOL     OW 1066   0.716   2.427   1.708
  353SOL    HW1 1067   0.735   2.492   1.782
  353SOL    HW2 1068   0.776   2.347   1.717
  354SOL     OW 1069   1.225   2.187   0.449
  354SOL    HW1 1070   1.290   2.113   0.438
  354SOL    HW2 1071   1.245   2.237   0.533
  355SOL     OW 1072   1.777   2.204   1.642
  355SOL    HW1 1073   1.760   2.235   1.548
  355SOL    HW2 1074   1.693   2.167   1.680
  356SOL     OW 1075   1.083   2.846   0.087
  356SOL    HW1 1076   1.060   2.899   0.005
  356SOL    HW2 1077   1.164   2.790   0.068
  357SOL     OW 1078   1.824   2.054   1.227
  357SOL    HW1 1079   1.820   1.964   1.271
  357SOL    HW2 1080   1.827   2.043   1.128
  358SOL     OW 1081   0.428   2.286   0.520
  358SOL    HW1 1082   0.458   2.214   0.458
  358SOL    HW2 1083   0.389   2.246   0.603
  359SOL     OW 1084   0.317   2.409   1.280
  359SOL    HW1 1085   0.355   2.350   1.352
  359SOL    HW2 1086   0.357   2.383   1.192
  360SOL     OW 1087   1.424   2.076   1.112
  360SOL    HW1 1088   1.476   2.011   1.167
  360SOL    HW2 1089   1.375   2.139   1.173
  361SOL     OW 1090   1.001   1.896   1.154
  361SOL    HW1 1091   0.938   1.824   1.123
  361SOL    HW2 1092   1.094   1.860   1.154
  362SOL     OW 1093   1.352   1.914   0.168
  362SOL    HW1 1094   1.387   1.873   0.084
  362SOL    HW2 1095   1.262   1.876   0.188
  363SOL     OW 1096   1.300   2.315   0.691
  363SOL    HW1 1097   1.241   2.395   0.695
  363SOL    HW2 1098   1.315   2.280   0.784
  364SOL     OW 1099   1.593   2.083   0.882
  364SOL    HW1 1100   1.509   2.082   0.936
  364SOL    HW2 1101   1.595   2.166   0.826
  365SOL     OW 1102   1.755   2.469   2.093
  365SOL    HW1 1103   1.743   2.456   1.994
  365SOL    HW2 1104   1.725   2.388   2.142
  366SOL     OW 1105   0.122   2.505   2.425
  366SOL    HW1 1106   0.077   2.417   2.442
  366SOL    HW2 1107   0.121   2.559   2.509
  367SOL     OW 1108   0.809   1.866   2.364
  367SOL    HW1 1109   0.849   1.957   2.355
  367SOL    HW2 1110   0.709   1.874   2.370
  368SOL     OW 1111   1.041   2.563   2.291
  368SOL    HW1 1112   1.067   2.559   2.387
  368SOL    HW2 1113   0.956   2.512   2.277
  369SOL     OW 1114   0.076   2.673   2.651
  369SOL    HW1 1115   0.175   2.661   2.660
  369SOL    HW2 1116   0.052   2.768   2.672
  370SOL     OW 1117   0.865   2.210   2.057
  370SOL    HW1 1118   0.924   2.273   2.008
  370SOL    HW2 1119   0.884   2.116   2.028
  371SOL     OW 1120   1.400   1.969   2.288
  371SOL    HW1 1121   1.376   1.932   2.198
  371SOL    HW2 1122   1.499   1.985   2.292
  372SOL     OW 1123   0.614   1.984   1.979
  372SOL    HW1 1124   0.712   1.962   1.986
  372SOL    HW2 1125   0.583   1.967   1.886
  373SOL     OW 1126   0.539   1.926   2.374
  373SOL    HW1 1127   0.458   1.927   2.432
  373SOL    HW2 1128   0.542   2.009   2.319
  374SOL     OW 1129   0.297   1.897   2.033
  374SOL    HW1 1130   0.346   1.981   2.012
  374SOL    HW2 1131   0.359   1.832   2.078
  375SOL     OW 1132   0.935   2.098   2.342
  375SOL    HW1 1133   0.887   2.139   2.264
  375SOL    HW2 1134   1.034   2.096   2.323
  376SOL     OW 1135   1.032   2.411   1.878
  376SOL    HW1 1136   0.991   2.493   1.839
  376SOL    HW2 1137   1.096   2.437   1.951
  377SOL     OW 1138   0.866   2.316   2.504
  377SOL    HW1 1139   0.834   2.388   2.442
  377SOL    HW2 1140   0.890   2.235   2.451
  378SOL     OW 1141   0.527   2.118   2.190
  378SOL    HW1 1142   0.554   2.059   2.115
  378SOL    HW2 1143   0.527   2.213   2.159
  379SOL     OW 1144   1.582   2.501   2.334
  379SOL    HW1 1145   1.551   2.562   2.407
  379SOL    HW2 1146   1.632   2.553   2.265
  380SOL     OW 1147   1.209   2.387   2.137
  380SOL    HW1 1148   1.222   2.303   2.191
  380SOL    HW2 1149   1.180   2.461   2.197
  381SOL     OW 1150   0.307   1.925   2.480
  381SOL    HW1 1151   0.296   2.019   2.513
  381SOL    HW2 1152   0.302   1.862   2.557
  382SOL     OW 1153   1.622   2.229   2.236
  382SOL    HW1 1154   1.624   2.153   2.300
  382SOL    HW2 1155   1.574   2.306   2.276
  383SOL     OW 1156   1.540   2.136   1.987
  383SOL    HW1 1157   1.479   2.061   2.010
  383SOL    HW2 1158   1.562   2.188   2.070
  384SOL     OW 1159   0.815   2.434   2.187
  384SOL    HW1 1160   0.822   2.345   2.141
  384SOL    HW2 1161   0.721   2.468   2.179
  385SOL     OW 1162   0.473   2.362   2.053
  385SOL    HW1 1163   0.534   2.442   2.057
  385SOL    HW2 1164   0.378   2.393   2.060
  386SOL     OW 1165   1.726   1.997   2.385
  386SOL    HW1 1166   1.799   1.980   2.318
  386SOL    HW2 1167   1.695   1.910   2.423
  387SOL     OW 1168   1.841   2.037   2.825
  387SOL    HW1 1169   1.880   1.952   2.789
  387SOL    HW2 1170   1.743   2.039   2.806
  388SOL     OW 1171   0.075   2.207   1.895
  388SOL    HW1 1172  -0.017   2.179   1.866
  388SOL    HW2 1173   0.106   2.284   1.839
  389SOL     OW 1174   0.072   2.028   2.180
  389SOL    HW1 1175   0.055   2.111   2.126
  389SOL    HW2 1176   0.162   1.991   2.158
  390SOL     OW 1177   1.225   2.187   2.311
  390SOL    HW1 1178   1.290   2.113   2.300
  390SOL    HW2 1179   1.245   2.237   2.395
  391SOL     OW 1180   1.083   2.846   1.949
  391SOL    HW1 1181   1.060   2.899   1.867
  391SOL    HW2 1182   1.164   2.790   1.930
  392SOL     OW 1183   0.428   2.286   2.382
  392SOL    HW1 1184   0.458   2.214   2.320
  392SOL    HW2 1185   0.389   2.246   2.465
  393SOL     OW 1186   1.352   1.914   2.030
  393SOL    HW1 1187   1.387   1.873   1.946
  393SOL    HW2 1188   1.262   1.876   2.050
  394SOL     OW 1189   1.300   2.315   2.553
  394SOL    HW1 1190   1.241   2.395   2.557
  394SOL    HW2 1191   1.315   2.280   2.646
  395SOL     OW 1192   2.092   0.628   0.113
  395SOL    HW1 1193   1.999   0.626   0.150
  395SOL    HW2 1194   2.093   0.589   0.021
  396SOL     OW 1195   2.087   0.275   0.996
  396SOL    HW1 1196   2.122   0.258   1.088
  396SOL    HW2 1197   1.999   0.230   0.984
  397SOL     OW 1198   1.881   0.368   0.647
  397SOL    HW1 1199   1.799   0.411   0.686
  397SOL    HW2 1200   1.853   0.295   0.584
  398SOL     OW 1201   2.431   1.275   1.165
  398SOL    HW1 1202   2.338   1.268   1.128
  398SOL    HW2 1203   2.442   1.364   1.209
  399SOL     OW 1204   2.712   0.798   1.823
  399SOL    HW1 1205   2.708   0.874   1.888
  399SOL    HW2 1206   2.734   0.834   1.732
  400SOL     OW 1207   2.197   1.435   1.061
  400SOL    HW1 1208   2.119   1.404   1.008
  400SOL    HW2 1209   2.255   1.493   1.004
  401SOL     OW 1210   2.300   0.392   1.499
  401SOL    HW1 1211   2.382   0.336   1.508
  401SOL    HW2 1212   2.219   0.334   1.503
  402SOL     OW 1213   2.093   1.713   0.483
  402SOL    HW1 1214   2.127   1.790   0.537
  402SOL    HW2 1215   2.137   1.713   0.393
  403SOL     OW 1216   2.092   1.434   0.538
  403SOL    HW1 1217   2.066   1.530   0.538
  403SOL    HW2 1218   2.021   1.380   0.583
  404SOL     OW 1219   2.102   1.091   0.886
  404SOL    HW1 1220   2.116   1.007   0.938
  404SOL    HW2 1221   2.047   1.155   0.941
  405SOL     OW 1222   1.984   0.643   0.563
  405SOL    HW1 1223   1.939   0.555   0.580
  405SOL    HW2 1224   1.983   0.697   0.647
  406SOL     OW 1225   1.889   1.596   0.117
  406SOL    HW1 1226   1.870   1.500   0.138
  406SOL    HW2 1227   1.856   1.654   0.192
  407SOL     OW 1228   1.975   0.737   1.597
  407SOL    HW1 1229   2.063   0.724   1.642
  407SOL    HW2 1230   1.962   0.834   1.575
  408SOL     OW 1231   2.475   1.365   0.726
  408SOL    HW1 1232   2.426   1.278   0.735
  408SOL    HW2 1233   2.452   1.408   0.639
  409SOL     OW 1234   2.059   0.976   1.264
  409SOL    HW1 1235   2.148   0.931   1.250
  409SOL    HW2 1236   1.986   0.911   1.245
  410SOL     OW 1237   2.179   0.251   1.801
  410SOL    HW1 1238   2.250   0.322   1.807
  410SOL    HW2 1239   2.091   0.290   1.829
  411SOL     OW 1240   2.460   0.729   0.270
  411SOL    HW1 1241   2.484   0.798   0.202
  411SOL    HW2 1242   2.382   0.762   0.324
  412SOL     OW 1243   1.938   0.811   0.789
  412SOL    HW1 1244   2.037   0.799   0.798
  412SOL    HW2 1245   1.914   0.906   0.810
  413SOL     OW 1246   1.992   1.821   1.571
  413SOL    HW1 1247   1.982   1.806   1.670
  413SOL    HW2 1248   1.906   1.857   1.535
  414SOL     OW 1249   2.727   0.348   0.195
  414SOL    HW1 1250   2.786   0.411   0.146
  414SOL    HW2 1251   2.746   0.254   0.166
  415SOL     OW 1252   2.412   0.196   0.885
  415SOL    HW1 1253   2.407   0.191   0.985
  415SOL    HW2 1254   2.414   0.292   0.856
  416SOL     OW 1255   2.213   1.801   0.853
  416SOL    HW1 1256   2.263   1.715   0.859
  416SOL    HW2 1257   2.278   1.878   0.850
  417SOL     OW 1258   2.183   0.943   0.242
  417SOL    HW1 1259   2.265   0.982   0.200
  417SOL    HW2 1260   2.156   0.861   0.193
  418SOL     OW 1261   2.323   1.266   1.727
  418SOL    HW1 1262   2.273   1.267   1.641
  418SOL    HW2 1263   2.260   1.248   1.803
  419SOL     OW 1264   2.064   0.285   1.498
  419SOL    HW1 1265   1.984   0.345   1.485
  419SOL    HW2 1266   2.054   0.236   1.584
  420SOL     OW 1267   2.326   1.743   0.323
  420SOL    HW1 1268   2.359   1.782   0.409
  420SOL    HW2 1269   2.402   1.736   0.258
  421SOL     OW 1270   2.111   1.785   1.241
  421SOL    HW1 1271   2.168   1.720   1.291
  421SOL    HW2 1272   2.095   1.752   1.148
  422SOL     OW 1273   2.244   0.700   0.480
  422SOL    HW1 1274   2.289   0.610   0.477
  422SOL    HW2 1275   2.150   0.689   0.513
  423SOL     OW 1276   2.665   1.402   0.924
  423SOL    HW1 1277   2.755   1.416   0.882
  423SOL    HW2 1278   2.594   1.404   0.853
  424SOL     OW 1279   2.401   0.064   0.512
  424SOL    HW1 1280   2.320   0.065   0.570
  424SOL    HW2 1281   2.404   0.147   0.457
  425SOL     OW 1282   2.159   0.035   0.171
  425SOL    HW1 1283   2.208   0.119   0.150
  425SOL    HW2 1284   2.221  -0.030   0.216
  426SOL     OW 1285   2.797   0.236   0.480
  426SOL    HW1 1286   2.749   0.277   0.402
  426SOL    HW2 1287   2.896   0.234   0.461
  427SOL     OW 1288   2.321   1.152   0.741
  427SOL    HW1 1289   2.250   1.125   0.806
  427SOL    HW2 1290   2.295   1.124   0.648
  428SOL     OW 1291   1.940   0.556   1.386
  428SOL    HW1 1292   2.032   0.555   1.345
  428SOL    HW2 1293   1.934   0.630   1.453
  429SOL     OW 1294   2.423   0.222   1.147
  429SOL    HW1 1295   2.461   0.138   1.184
  429SOL    HW2 1296   2.335   0.241   1.191
  430SOL     OW 1297   2.389   0.256   0.328
  430SOL    HW1 1298   2.416   0.197   0.253
  430SOL    HW2 1299   2.389   0.351   0.297
  431SOL     OW 1300   2.272   0.813   1.251
  431SOL    HW1 1301   2.358   0.825   1.301
  431SOL    HW2 1302   2.230   0.726   1.278
  432SOL     OW 1303   1.926   1.564   1.331
  432SOL    HW1 1304   1.880   1.646   1.297
  432SOL    HW2 1305   2.024   1.583   1.340
  433SOL     OW 1306   2.229   1.100   0.501
  433SOL    HW1 1307   2.222   1.183   0.445
  433SOL    HW2 1308   2.233   1.020   0.441
  434SOL     OW 1309   2.428   0.537   0.865
  434SOL    HW1 1310   2.440   0.603   0.791
  434SOL    HW2 1311   2.474   0.571   0.948
  435SOL     OW 1312   2.216   1.510   1.329
  435SOL    HW1 1313   2.195   1.466   1.242
  435SOL    HW2 1314   2.313   1.536   1.332
  436SOL     OW 1315   2.264   0.751   1.598
  436SOL    HW1 1316   2.332   0.806   1.551
  436SOL    HW2 1317   2.304   0.663   1.625
  437SOL     OW 1318   2.366   0.050   1.740
  437SOL    HW1 1319   2.324  -0.007   1.670
  437SOL    HW2 1320   2.300   0.119   1.772
  438SOL     OW 1321   2.435   0.870   1.029
  438SOL    HW1 1322   2.479   0.959   1.020
  438SOL    HW2 1323   2.372   0.870   1.106
  439SOL     OW 1324   2.169   0.213   1.231
  439SOL    HW1 1325   2.146   0.250   1.321
  439SOL    HW2 1326   2.139   0.118   1.225
  440SOL     OW 1327   1.899   1.310   1.282
  440SOL    HW1 1328   1.952   1.261   1.350
  440SOL    HW2 1329   1.921   1.408   1.287
  441SOL     OW 1330   2.169   0.063   0.618
  441SOL    HW1 1331   2.158   0.157   0.651
  441SOL    HW2 1332   2.164   0.000   0.695
  442SOL     OW 1333   2.212   0.898   1.804
  442SOL    HW1 1334   2.288   0.942   1.852
  442SOL    HW2 1335   2.247   0.851   1.722
  443SOL     OW 1336   2.181   0.810   0.949
  443SOL    HW1 1337   2.274   0.846   0.954
  443SOL    HW2 1338   2.175   0.725   1.001
  444SOL     OW 1339   2.201   0.509   1.006
  444SOL    HW1 1340   2.149   0.426   0.989
  444SOL    HW2 1341   2.278   0.514   0.942
  445SOL     OW 1342   1.870   1.326   0.200
  445SOL    HW1 1343   1.777   1.347   0.169
  445SOL    HW2 1344   1.880   1.227   0.213
  446SOL     OW 1345   1.950   1.801   0.927
  446SOL    HW1 1346   1.908   1.715   0.900
  446SOL    HW2 1347   2.044   1.804   0.893
  447SOL     OW 1348   2.366   1.568   0.910
  447SOL    HW1 1349   2.432   1.642   0.919
  447SOL    HW2 1350   2.410   1.489   0.868
  448SOL     OW 1351   1.902   0.544   1.114
  448SOL    HW1 1352   1.987   0.511   1.073
  448SOL    HW2 1353   1.915   0.559   1.212
  449SOL     OW 1354   2.051   0.520   1.722
  449SOL    HW1 1355   2.110   0.480   1.652
  449SOL    HW2 1356   1.993   0.591   1.681
  450SOL     OW 1357   2.677   0.572   0.325
  450SOL    HW1 1358   2.684   0.483   0.279
  450SOL    HW2 1359   2.583   0.606   0.317
  451SOL     OW 1360   2.114   1.564   1.744
  451SOL    HW1 1361   2.084   1.621   1.820
  451SOL    HW2 1362   2.107   1.467   1.770
  452SOL     OW 1363   2.335   0.500   0.191
  452SOL    HW1 1364   2.396   0.580   0.195
  452SOL    HW2 1365   2.240   0.531   0.198
  453SOL     OW 1366   2.021   1.137   1.466
  453SOL    HW1 1367   2.043   1.076   1.542
  453SOL    HW2 1368   2.031   1.088   1.380
  454SOL     OW 1369   1.945   1.258   1.022
  454SOL    HW1 1370   1.940   1.257   1.122
  454SOL    HW2 1371   1.862   1.217   0.984
  455SOL     OW 1372   2.550   1.662   1.716
  455SOL    HW1 1373   2.494   1.743   1.725
  455SOL    HW2 1374   2.602   1.666   1.630
  456SOL     OW 1375   1.992   1.794   1.851
  456SOL    HW1 1376   1.951   1.720   1.904
  456SOL    HW2 1377   2.056   1.845   1.909
  457SOL     OW 1378   2.125   0.326   0.720
  457SOL    HW1 1379   2.046   0.377   0.686
  457SOL    HW2 1380   2.116   0.311   0.818
  458SOL     OW 1381   2.234   1.288   1.490
  458SOL    HW1 1382   2.221   1.381   1.456
  458SOL    HW2 1383   2.150   1.236   1.477
  459SOL     OW 1384   2.452   1.487   0.491
  459SOL    HW1 1385   2.494   1.429   0.421
  459SOL    HW2 1386   2.408   1.566   0.447
  460SOL     OW 1387   2.117   1.348   0.290
  460SOL    HW1 1388   2.021   1.349   0.263
  460SOL    HW2 1389   2.129   1.401   0.374
  461SOL     OW 1390   1.967   1.013   1.726
  461SOL    HW1 1391   1.890   0.980   1.780
  461SOL    HW2 1392   2.052   0.983   1.768
  462SOL     OW 1393   2.534   0.203   1.489
  462SOL    HW1 1394   2.624   0.187   1.449
  462SOL    HW2 1395   2.542   0.208   1.588
  463SOL     OW 1396   1.937   0.345   0.033
  463SOL    HW1 1397   1.845   0.317   0.004
  463SOL    HW2 1398   1.968   0.422  -0.023
  464SOL     OW 1399   2.475   0.842   1.431
  464SOL    HW1 1400   2.531   0.923   1.414
  464SOL    HW2 1401   2.534   0.762   1.434
  465SOL     OW 1402   2.252   1.741   1.560
  465SOL    HW1 1403   2.161   1.782   1.558
  465SOL    HW2 1404   2.245   1.647   1.592
  466SOL     OW 1405   2.456   0.745   0.652
  466SOL    HW1 1406   2.506   0.830   0.633
  466SOL    HW2 1407   2.368   0.747   0.604
  467SOL     OW 1408   2.083   1.314   1.844
  467SOL    HW1 1409   2.018   1.241   1.823
  467SOL    HW2 1410   2.087   1.328   1.942
  468SOL     OW 1411   1.941   1.240   0.653
  468SOL    HW1 1412   1.940   1.193   0.741
  468SOL    HW2 1413   2.023   1.212   0.602
  469SOL     OW 1414   2.534   1.391   1.624
  469SOL    HW1 1415   2.456   1.341   1.662
  469SOL    HW2 1416   2.531   1.486   1.655
  470SOL     OW 1417   2.290   0.424   0.520
  470SOL    HW1 1418   2.320   0.352   0.458
  470SOL    HW2 1419   2.251   0.384   0.603
  471SOL     OW 1420   2.179   0.547   1.280
  471SOL    HW1 1421   2.217   0.488   1.352
  471SOL    HW2 1422   2.219   0.521   1.192
  472SOL     OW 1423   1.901   1.077   0.300
  472SOL    HW1 1424   2.000   1.066   0.291
  472SOL    HW2 1425   1.861   0.991   0.332
  473SOL     OW 1426   2.092   0.628   1.975
  473SOL    HW1 1427   1.999   0.626   2.012
  473SOL    HW2 1428   2.093   0.589   1.883
  474SOL     OW 1429   2.093   1.713   2.345
  474SOL    HW1 1430   2.127   1.790   2.399
  474SOL    HW2 1431   2.137   1.713   2.255
  475SOL     OW 1432   2.092   1.434   2.400
  475SOL    HW1 1433   2.066   1.530   2.400
  475SOL    HW2 1434   2.021   1.380   2.445
  476SOL     OW 1435   1.984   0.643   2.425
  476SOL    HW1 1436   1.939   0.555   2.442
  476SOL    HW2 1437   1.983   0.697   2.509
  477SOL     OW 1438   1.889   1.596   1.979
  477SOL    HW1 1439   1.870   1.500   2.000
  477SOL    HW2 1440   1.856   1.654   2.054
  478SOL     OW 1441   2.460   0.729   2.132
  478SOL    HW1 1442   2.484   0.798   2.064
  478SOL    HW2 1443   2.382   0.762   2.186
  479SOL     OW 1444   1.938   0.811   2.651
  479SOL    HW1 1445   2.037   0.799   2.660
  479SOL    HW2 1446   1.914   0.906   2.672
  480SOL     OW 1447   2.727   0.348   2.057
  480SOL    HW1 1448   2.786   0.411   2.008
  480SOL    HW2 1449   2.746   0.254   2.028
  481SOL     OW 1450   2.213   1.801   2.715
  481SOL    HW1 1451   2.263   1.715   2.721
  481SOL    HW2 1452   2.278   1.878   2.712
  482SOL     OW 1453   2.183   0.943   2.104
  482SOL    HW1 1454   2.265   0.982   2.062
  482SOL    HW2 1455   2.156   0.861   2.055
  483SOL     OW 1456   2.326   1.743   2.185
  483SOL    HW1 1457   2.359   1.782   2.271
  483SOL    HW2 1458   2.402   1.736   2.120
  484SOL     OW 1459   2.244   0.700   2.342
  484SOL    HW1 1460   2.289   0.610   2.339
  484SOL    HW2 1461   2.150   0.689   2.375
  485SOL     OW 1462   2.476   0.122   1.979
  485SOL    HW1 1463   2.574   0.100   1.986
  485SOL    HW2 1464   2.445   0.105   1.886
  486SOL     OW 1465   2.401   0.064   2.374
  486SOL    HW1 1466   2.320   0.065   2.432
  486SOL    HW2 1467   2.404   0.147   2.319
  487SOL     OW 1468   2.159   0.035   2.033
  487SOL    HW1 1469   2.208   0.119   2.012
  487SOL    HW2 1470   2.221  -0.030   2.078
  488SOL     OW 1471   2.797   0.236   2.342
  488SOL    HW1 1472   2.749   0.277   2.264
  488SOL    HW2 1473   2.896   0.234   2.323
  489SOL     OW 1474   2.321   1.152   2.603
  489SOL    HW1 1475   2.250   1.125   2.668
  489SOL    HW2 1476   2.295   1.124   2.510
  490SOL     OW 1477   2.389   0.256   2.190
  490SOL    HW1 1478   2.416   0.197   2.115
  490SOL    HW2 1479   2.389   0.351   2.159
  491SOL     OW 1480   2.229   1.100   2.363
  491SOL    HW1 1481   2.222   1.183   2.307
  491SOL    HW2 1482   2.233   1.020   2.303
  492SOL     OW 1483   2.169   0.063   2.480
  492SOL    HW1 1484   2.158   0.157   2.513
  492SOL    HW2 1485   2.164   0.000   2.557
  493SOL     OW 1486   1.870   1.326   2.062
  493SOL    HW1 1487   1.777   1.347   2.031
  493SOL    HW2 1488   1.880   1.227   2.075
  494SOL     OW 1489   2.677   0.572   2.187
  494SOL    HW1 1490   2.684   0.483   2.141
  494SOL    HW2 1491   2.583   0.606   2.179
  495SOL     OW 1492   2.335   0.500   2.053
  495SOL    HW1 1493   2.396   0.580   2.057
  495SOL    HW2 1494   2.240   0.531   2.060
  496SOL     OW 1495   2.452   1.487   2.353
  496SOL    HW1 1496   2.494   1.429   2.283
  496SOL    HW2 1497   2.408   1.566   2.309
  497SOL     OW 1498   2.117   1.348   2.152
  497SOL    HW1 1499   2.021   1.349   2.125
  497SOL    HW2 1500   2.129   1.401   2.236
  498SOL     OW 1501   1.937   0.345   1.895
  498SOL    HW1 1502   1.845   0.317   1.866
  498SOL    HW2 1503   1.968   0.422   1.839
  499SOL     OW 1504   1.934   0.166   2.180
  499SOL    HW1 1505   1.917   0.249   2.126
  499SOL    HW2 1506   2.024   0.129   2.158
  500SOL     OW 1507   2.456   0.745   2.514
  500SOL    HW1 1508   2.506   0.830   2.495
  500SOL    HW2 1509   2.368   0.747   2.466
  501SOL     OW 1510   1.941   1.240   2.515
  501SOL    HW1 1511   1.940   1.193   2.603
  501SOL    HW2 1512   2.023   1.212   2.464
  502SOL     OW 1513   2.290   0.424   2.382
  502SOL    HW1 1514   2.320   0.352   2.320
  502SOL    HW2 1515   2.251   0.384   2.465
  503SOL     OW 1516   1.901   1.077   2.162
  503SOL    HW1 1517   2.000   1.066   2.153
  503SOL    HW2 1518   1.861   0.991   2.194
  504SOL     OW 1519   2.087   2.137   0.996
  504SOL    HW1 1520   2.122   2.120   1.088
  504SOL    HW2 1521   1.999   2.092   0.984
  505SOL     OW 1522   1.881   2.230   0.647
  505SOL    HW1 1523   1.799   2.273   0.686
  505SOL    HW2 1524   1.853   2.157   0.584
  506SOL     OW 1525   2.712   2.660   1.823
  506SOL    HW1 1526   2.708   2.736   1.888
  506SOL    HW2 1527   2.734   2.696   1.732
  507SOL     OW 1528   2.300   2.254   1.499
  507SOL    HW1 1529   2.382   2.198   1.508
  507SOL    HW2 1530   2.219   2.196   1.503
  508SOL     OW 1531   1.984   2.505   0.563
  508SOL    HW1 1532   1.939   2.417   0.580
  508SOL    HW2 1533   1.983   2.559   0.647
  509SOL     OW 1534   2.671   1.866   0.502
  509SOL    HW1 1535   2.711   1.957   0.493
  509SOL    HW2 1536   2.571   1.874   0.508
  510SOL     OW 1537   2.179   2.113   1.801
  510SOL    HW1 1538   2.250   2.184   1.807
  510SOL    HW2 1539   2.091   2.152   1.829
  511SOL     OW 1540   2.727   2.210   0.195
  511SOL    HW1 1541   2.786   2.273   0.146
  511SOL    HW2 1542   2.746   2.116   0.166
  512SOL     OW 1543   2.412   2.058   0.885
  512SOL    HW1 1544   2.407   2.053   0.985
  512SOL    HW2 1545   2.414   2.154   0.856
  513SOL     OW 1546   2.064   2.147   1.498
  513SOL    HW1 1547   1.984   2.207   1.485
  513SOL    HW2 1548   2.054   2.098   1.584
  514SOL     OW 1549   2.476   1.984   0.117
  514SOL    HW1 1550   2.574   1.962   0.124
  514SOL    HW2 1551   2.445   1.967   0.024
  515SOL     OW 1552   2.401   1.926   0.512
  515SOL    HW1 1553   2.320   1.927   0.570
  515SOL    HW2 1554   2.404   2.009   0.457
  516SOL     OW 1555   2.797   2.098   0.480
  516SOL    HW1 1556   2.749   2.139   0.402
  516SOL    HW2 1557   2.896   2.096   0.461
  517SOL     OW 1558   1.940   2.418   1.386
  517SOL    HW1 1559   2.032   2.417   1.345
  517SOL    HW2 1560   1.934   2.492   1.453
  518SOL     OW 1561   2.423   2.084   1.147
  518SOL    HW1 1562   2.461   2.000   1.184
  518SOL    HW2 1563   2.335   2.103   1.191
  519SOL     OW 1564   2.389   2.118   0.328
  519SOL    HW1 1565   2.416   2.059   0.253
  519SOL    HW2 1566   2.389   2.213   0.297
  520SOL     OW 1567   2.428   2.399   0.865
  520SOL    HW1 1568   2.440   2.465   0.791
  520SOL    HW2 1569   2.474   2.433   0.948
  521SOL     OW 1570   2.366   1.912   1.740
  521SOL    HW1 1571   2.324   1.855   1.670
  521SOL    HW2 1572   2.300   1.981   1.772
  522SOL     OW 1573   2.169   2.075   1.231
  522SOL    HW1 1574   2.146   2.112   1.321
  522SOL    HW2 1575   2.139   1.980   1.225
  523SOL     OW 1576   2.169   1.925   0.618
  523SOL    HW1 1577   2.158   2.019   0.651
  523SOL    HW2 1578   2.164   1.862   0.695
  524SOL     OW 1579   2.181   2.672   0.949
  524SOL    HW1 1580   2.274   2.708   0.954
  524SOL    HW2 1581   2.175   2.587   1.001
  525SOL     OW 1582   2.201   2.371   1.006
  525SOL    HW1 1583   2.149   2.288   0.989
  525SOL    HW2 1584   2.278   2.376   0.942
  526SOL     OW 1585   1.902   2.406   1.114
  526SOL    HW1 1586   1.987   2.373   1.073
  526SOL    HW2 1587   1.915   2.421   1.212
  527SOL     OW 1588   2.051   2.382   1.722
  527SOL    HW1 1589   2.110   2.342   1.652
  527SOL    HW2 1590   1.993   2.453   1.681
  528SOL     OW 1591   2.677   2.434   0.325
  528SOL    HW1 1592   2.684   2.345   0.279
  528SOL    HW2 1593   2.583   2.468   0.317
  529SOL     OW 1594   2.335   2.362   0.191
  529SOL    HW1 1595   2.396   2.442   0.195
  529SOL    HW2 1596   2.240   2.393   0.198
  530SOL     OW 1597   2.125   2.188   0.720
  530SOL    HW1 1598   2.046   2.239   0.686
  530SOL    HW2 1599   2.116   2.173   0.818
  531SOL     OW 1600   2.534   2.065   1.489
  531SOL    HW1 1601   2.624   2.049   1.449
  531SOL    HW2 1602   2.542   2.070   1.588
  532SOL     OW 1603   1.937   2.207   0.033
  532SOL    HW1 1604   1.845   2.179   0.004
  532SOL    HW2 1605   1.968   2.284  -0.023
  533SOL     OW 1606   2.290   2.286   0.520
  533SOL    HW1 1607   2.320   2.214   0.458
  533SOL    HW2 1608   2.251   2.246   0.603
  534SOL     OW 1609   2.179   2.409   1.280
  534SOL    HW1 1610   2.217   2.350   1.352
  534SOL    HW2 1611   2.219   2.383   1.192
  535SOL     OW 1612   1.984   2.505   2.425
  535SOL    HW1 1613   1.939   2.417   2.442
  535SOL    HW2 1614   1.983   2.559   2.509
  536SOL     OW 1615   2.671   1.866   2.364
  536SOL    HW1 1616   2.711   1.957   2.355
  536SOL    HW2 1617   2.571   1.874   2.370
  537SOL     OW 1618   2.727   2.210   2.057
  537SOL    HW1 1619   2.786   2.273   2.008
  537SOL    HW2 1620   2.746   2.116   2.028
  538SOL     OW 1621   2.476   1.984   1.979
  538SOL    HW1 1622   2.574   1.962   1.986
  538SOL    HW2 1623   2.445   1.967   1.886
  539SOL     OW 1624   2.401   1.926   2.374
  539SOL    HW1 1625   2.320   1.927   2.432
  539SOL    HW2 1626   2.404   2.009   2.319
  540SOL     OW 1627   2.159   1.897   2.033
  540SOL    HW1 1628   2.208   1.981   2.012
  540SOL    HW2 1629   2.221   1.832   2.078
  541SOL     OW 1630   2.797   2.098   2.342
  541SOL    HW1 1631   2.749   2.139   2.264
  541SOL    HW2 1632   2.896   2.096   2.323
  542SOL     OW 1633   2.389   2.118   2.190
  542SOL    HW1 1634   2.416   2.059   2.115
  542SOL    HW2 1635   2.389   2.213   2.159
  543SOL     OW 1636   2.169   1.925   2.480
  543SOL    HW1 1637   2.158   2.019   2.513
  543SOL    HW2 1638   2.164   1.862   2.557
  544SOL     OW 1639   2.677   2.434   2.187
  544SOL    HW1 1640   2.684   2.345   2.141
  544SOL    HW2 1641   2.583   2.468   2.179
  545SOL     OW 1642   2.335   2.362   2.053
  545SOL    HW1 1643   2.396   2.442   2.057
  545SOL    HW2 1644   2.240   2.393   2.060
  546SOL     OW 1645   1.937   2.207   1.895
  546SOL    HW1 1646   1.845   2.179   1.866
  546SOL    HW2 1647   1.968   2.284   1.839
  547SOL     OW 1648   1.934   2.028   2.180
  547SOL    HW1 1649   1.917   2.111   2.126
  547SOL    HW2 1650   2.024   1.991   2.158
  548SOL     OW 1651   2.290   2.286   2.382
  548SOL    HW1 1652   2.320   2.214   2.320
  548SOL    HW2 1653   2.251   2.246   2.465
   2.55982   2.55982   2.55982
