; mobley_2364370_GMX.itp created by acpype (v: 2023.10.27) on Thu May 14 13:43:22 2026

[ atomtypes ]
;name   bond_type     mass     charge   ptype   sigma         epsilon       Amb
 c        c           0.00000  0.00000   A     3.31521e-01   4.13379e-01 ; 1.86  0.0988
 c3       c3          0.00000  0.00000   A     3.39771e-01   4.51035e-01 ; 1.91  0.1078
 o        o           0.00000  0.00000   A     3.04812e-01   6.12119e-01 ; 1.71  0.1463
 os       os          0.00000  0.00000   A     3.15610e-01   3.03758e-01 ; 1.77  0.0726
 hc       hc          0.00000  0.00000   A     2.60018e-01   8.70272e-02 ; 1.46  0.0208
 h1       h1          0.00000  0.00000   A     2.42200e-01   8.70272e-02 ; 1.36  0.0208

[ moleculetype ]
;name            nrexcl
 mobley_2364370   3

[ atoms ]
;   nr  type  resi  res  atom  cgnr     charge      mass       ; qtot   bond_type
     1    c     1   MOL    C1    1     0.632101     12.01000 ; qtot 0.632
     2   c3     1   MOL    C2    2    -0.150100     12.01000 ; qtot 0.482
     3   c3     1   MOL    C3    3    -0.092100     12.01000 ; qtot 0.390
     4   c3     1   MOL    C4    4    -0.079400     12.01000 ; qtot 0.311
     5   c3     1   MOL    C5    5    -0.086400     12.01000 ; qtot 0.224
     6   c3     1   MOL    C6    6     0.139400     12.01000 ; qtot 0.364
     7    o     1   MOL    O1    7    -0.544000     16.00000 ; qtot -0.180
     8   os     1   MOL    O2    8    -0.445900     16.00000 ; qtot -0.626
     9   hc     1   MOL    H1    9     0.075700      1.00800 ; qtot -0.551
    10   hc     1   MOL    H2   10     0.075700      1.00800 ; qtot -0.475
    11   hc     1   MOL    H3   11     0.075700      1.00800 ; qtot -0.399
    12   hc     1   MOL    H4   12     0.035033      1.00800 ; qtot -0.364
    13   hc     1   MOL    H5   13     0.035033      1.00800 ; qtot -0.329
    14   hc     1   MOL    H6   14     0.035033      1.00800 ; qtot -0.294
    15   hc     1   MOL    H7   15     0.041700      1.00800 ; qtot -0.252
    16   hc     1   MOL    H8   16     0.041700      1.00800 ; qtot -0.211
    17   hc     1   MOL    H9   17     0.053700      1.00800 ; qtot -0.157
    18   hc     1   MOL   H10   18     0.053700      1.00800 ; qtot -0.103
    19   h1     1   MOL   H11   19     0.051700      1.00800 ; qtot -0.052
    20   h1     1   MOL   H12   20     0.051700      1.00800 ; qtot 0.000

[ bonds ]
;   ai     aj funct   r             k
     1      2   1    1.5270e-01    1.9652e+05 ;     C1 - C2    
     1      7   1    1.2190e-01    4.9421e+05 ;     C1 - O1    
     1      8   1    1.3621e-01    2.9398e+05 ;     C1 - O2    
     2      9   1    1.0962e-01    2.8891e+05 ;     C2 - H1    
     2     10   1    1.0962e-01    2.8891e+05 ;     C2 - H2    
     2     11   1    1.0962e-01    2.8891e+05 ;     C2 - H3    
     3      4   1    1.5354e-01    1.9154e+05 ;     C3 - C4    
     3     12   1    1.0962e-01    2.8891e+05 ;     C3 - H4    
     3     13   1    1.0962e-01    2.8891e+05 ;     C3 - H5    
     3     14   1    1.0962e-01    2.8891e+05 ;     C3 - H6    
     4      5   1    1.5354e-01    1.9154e+05 ;     C4 - C5    
     4     15   1    1.0962e-01    2.8891e+05 ;     C4 - H7    
     4     16   1    1.0962e-01    2.8891e+05 ;     C4 - H8    
     5      6   1    1.5354e-01    1.9154e+05 ;     C5 - C6    
     5     17   1    1.0962e-01    2.8891e+05 ;     C5 - H9    
     5     18   1    1.0962e-01    2.8891e+05 ;     C5 - H10   
     6      8   1    1.4273e-01    2.3620e+05 ;     C6 - O2    
     6     19   1    1.0969e-01    2.8804e+05 ;     C6 - H11   
     6     20   1    1.0969e-01    2.8804e+05 ;     C6 - H12   

[ pairs ]
;   ai     aj    funct
     1      5      1 ;     C1 - C5    
     1     19      1 ;     C1 - H11   
     1     20      1 ;     C1 - H12   
     2      6      1 ;     C2 - C6    
     3      6      1 ;     C3 - C6    
     3     17      1 ;     C3 - H9    
     3     18      1 ;     C3 - H10   
     4      8      1 ;     C4 - O2    
     4     19      1 ;     C4 - H11   
     4     20      1 ;     C4 - H12   
     5     12      1 ;     C5 - H4    
     5     13      1 ;     C5 - H5    
     5     14      1 ;     C5 - H6    
     6     15      1 ;     C6 - H7    
     6     16      1 ;     C6 - H8    
     7      6      1 ;     O1 - C6    
     7      9      1 ;     O1 - H1    
     7     10      1 ;     O1 - H2    
     7     11      1 ;     O1 - H3    
     8      9      1 ;     O2 - H1    
     8     10      1 ;     O2 - H2    
     8     11      1 ;     O2 - H3    
     8     17      1 ;     O2 - H9    
     8     18      1 ;     O2 - H10   
    12     15      1 ;     H4 - H7    
    12     16      1 ;     H4 - H8    
    13     15      1 ;     H5 - H7    
    13     16      1 ;     H5 - H8    
    14     15      1 ;     H6 - H7    
    14     16      1 ;     H6 - H8    
    15     17      1 ;     H7 - H9    
    15     18      1 ;     H7 - H10   
    16     17      1 ;     H8 - H9    
    16     18      1 ;     H8 - H10   
    17     19      1 ;     H9 - H11   
    17     20      1 ;     H9 - H12   
    18     19      1 ;    H10 - H11   
    18     20      1 ;    H10 - H12   

[ angles ]
;   ai     aj     ak    funct   theta         cth
     1      2      9      1    1.0895e+02    3.6510e+02 ;     C1 - C2     - H1    
     1      2     10      1    1.0895e+02    3.6510e+02 ;     C1 - C2     - H2    
     1      2     11      1    1.0895e+02    3.6510e+02 ;     C1 - C2     - H3    
     1      8      6      1    1.1582e+02    7.4835e+02 ;     C1 - O2     - C6    
     2      1      7      1    1.2290e+02    6.3973e+02 ;     C2 - C1     - O1    
     2      1      8      1    1.1080e+02    6.5245e+02 ;     C2 - C1     - O2    
     3      4      5      1    1.1263e+02    5.0099e+02 ;     C3 - C4     - C5    
     3      4     15      1    1.0968e+02    3.6208e+02 ;     C3 - C4     - H7    
     3      4     16      1    1.0968e+02    3.6208e+02 ;     C3 - C4     - H8    
     4      3     12      1    1.0968e+02    3.6208e+02 ;     C4 - C3     - H4    
     4      3     13      1    1.0968e+02    3.6208e+02 ;     C4 - C3     - H5    
     4      3     14      1    1.0968e+02    3.6208e+02 ;     C4 - C3     - H6    
     4      5      6      1    1.1263e+02    5.0099e+02 ;     C4 - C5     - C6    
     4      5     17      1    1.0968e+02    3.6208e+02 ;     C4 - C5     - H9    
     4      5     18      1    1.0968e+02    3.6208e+02 ;     C4 - C5     - H10   
     5      4     15      1    1.0968e+02    3.6208e+02 ;     C5 - C4     - H7    
     5      4     16      1    1.0968e+02    3.6208e+02 ;     C5 - C4     - H8    
     5      6      8      1    1.0762e+02    6.4802e+02 ;     C5 - C6     - O2    
     5      6     19      1    1.0959e+02    3.6217e+02 ;     C5 - C6     - H11   
     5      6     20      1    1.0959e+02    3.6217e+02 ;     C5 - C6     - H12   
     6      5     17      1    1.0968e+02    3.6208e+02 ;     C6 - C5     - H9    
     6      5     18      1    1.0968e+02    3.6208e+02 ;     C6 - C5     - H10   
     7      1      8      1    1.2320e+02    8.4734e+02 ;     O1 - C1     - O2    
     8      6     19      1    1.1034e+02    4.7028e+02 ;     O2 - C6     - H11   
     8      6     20      1    1.1034e+02    4.7028e+02 ;     O2 - C6     - H12   
     9      2     10      1    1.0773e+02    2.9957e+02 ;     H1 - C2     - H2    
     9      2     11      1    1.0773e+02    2.9957e+02 ;     H1 - C2     - H3    
    10      2     11      1    1.0773e+02    2.9957e+02 ;     H2 - C2     - H3    
    12      3     13      1    1.0773e+02    2.9957e+02 ;     H4 - C3     - H5    
    12      3     14      1    1.0773e+02    2.9957e+02 ;     H4 - C3     - H6    
    13      3     14      1    1.0773e+02    2.9957e+02 ;     H5 - C3     - H6    
    15      4     16      1    1.0773e+02    2.9957e+02 ;     H7 - C4     - H8    
    17      5     18      1    1.0773e+02    2.9957e+02 ;     H9 - C5     - H10   
    19      6     20      1    1.0855e+02    2.9824e+02 ;    H11 - C6     - H12   

[ dihedrals ] ; propers
; for gromacs 4.5 or higher, using funct 9
;    i      j      k      l   func   phase     kd      pn
     1      8      6      5      9     0.00   1.60247   3 ;     C1-    O2-    C6-    C5
     1      8      6      5      9   180.00   3.34720   1 ;     C1-    O2-    C6-    C5
     1      8      6     19      9     0.00   1.60387   3 ;     C1-    O2-    C6-   H11
     1      8      6     20      9     0.00   1.60387   3 ;     C1-    O2-    C6-   H12
     2      1      8      6      9     0.00   3.13800   3 ;     C2-    C1-    O2-    C6
     2      1      8      6      9   180.00   7.90776   1 ;     C2-    C1-    O2-    C6
     2      1      8      6      9   180.00  13.76536   2 ;     C2-    C1-    O2-    C6
     3      4      5      6      9     0.00   2.17568   3 ;     C3-    C4-    C5-    C6
     3      4      5     17      9     0.00   0.54392   3 ;     C3-    C4-    C5-    H9
     3      4      5     18      9     0.00   0.54392   3 ;     C3-    C4-    C5-   H10
     4      5      6      8      9     0.00   0.65084   3 ;     C4-    C5-    C6-    O2
     4      5      6     19      9     0.00   0.65084   3 ;     C4-    C5-    C6-   H11
     4      5      6     20      9     0.00   0.65084   3 ;     C4-    C5-    C6-   H12
     5      4      3     12      9     0.00   0.54392   3 ;     C5-    C4-    C3-    H4
     5      4      3     13      9     0.00   0.54392   3 ;     C5-    C4-    C3-    H5
     5      4      3     14      9     0.00   0.54392   3 ;     C5-    C4-    C3-    H6
     6      5      4     15      9     0.00   0.54392   3 ;     C6-    C5-    C4-    H7
     6      5      4     16      9     0.00   0.54392   3 ;     C6-    C5-    C4-    H8
     7      1      2      9      9     0.00  16.86152   1 ;     O1-    C1-    C2-    H1
     7      1      2      9      9   180.00  15.31344   2 ;     O1-    C1-    C2-    H1
     7      1      2     10      9     0.00  16.86152   1 ;     O1-    C1-    C2-    H2
     7      1      2     10      9   180.00  15.31344   2 ;     O1-    C1-    C2-    H2
     7      1      2     11      9     0.00  16.86152   1 ;     O1-    C1-    C2-    H3
     7      1      2     11      9   180.00  15.31344   2 ;     O1-    C1-    C2-    H3
     7      1      8      6      9   180.00   5.85760   1 ;     O1-    C1-    O2-    C6
     7      1      8      6      9   180.00  11.29680   2 ;     O1-    C1-    O2-    C6
     8      1      2      9      9   180.00   0.00000   2 ;     O2-    C1-    C2-    H1
     8      1      2     10      9   180.00   0.00000   2 ;     O2-    C1-    C2-    H2
     8      1      2     11      9   180.00   0.00000   2 ;     O2-    C1-    C2-    H3
     8      6      5     17      9     0.00   0.00000   0 ;     O2-    C6-    C5-    H9
     8      6      5     17      9     0.00   1.04600   1 ;     O2-    C6-    C5-    H9
     8      6      5     18      9     0.00   0.00000   0 ;     O2-    C6-    C5-   H10
     8      6      5     18      9     0.00   1.04600   1 ;     O2-    C6-    C5-   H10
    12      3      4     15      9     0.00   0.50208   3 ;     H4-    C3-    C4-    H7
    12      3      4     16      9     0.00   0.50208   3 ;     H4-    C3-    C4-    H8
    13      3      4     15      9     0.00   0.50208   3 ;     H5-    C3-    C4-    H7
    13      3      4     16      9     0.00   0.50208   3 ;     H5-    C3-    C4-    H8
    14      3      4     15      9     0.00   0.50208   3 ;     H6-    C3-    C4-    H7
    14      3      4     16      9     0.00   0.50208   3 ;     H6-    C3-    C4-    H8
    15      4      5     17      9     0.00   0.50208   3 ;     H7-    C4-    C5-    H9
    15      4      5     18      9     0.00   0.50208   3 ;     H7-    C4-    C5-   H10
    16      4      5     17      9     0.00   0.50208   3 ;     H8-    C4-    C5-    H9
    16      4      5     18      9     0.00   0.50208   3 ;     H8-    C4-    C5-   H10
    17      5      6     19      9     0.00   0.65084   3 ;     H9-    C5-    C6-   H11
    17      5      6     20      9     0.00   0.65084   3 ;     H9-    C5-    C6-   H12
    18      5      6     19      9     0.00   0.65084   3 ;    H10-    C5-    C6-   H11
    18      5      6     20      9     0.00   0.65084   3 ;    H10-    C5-    C6-   H12

[ dihedrals ] ; impropers
; treated as propers in GROMACS to use correct AMBER analytical function
;    i      j      k      l   func   phase     kd      pn
     8      1      7      2      4   180.00   4.60240   2 ;     O2-    C1-    O1-    C2
