; mobley_820789_GMX.itp created by acpype (v: 2023.10.27) on Thu May 14 13:25:58 2026

[ atomtypes ]
;name   bond_type     mass     charge   ptype   sigma         epsilon       Amb
 c        c           0.00000  0.00000   A     3.31521e-01   4.13379e-01 ; 1.86  0.0988
 c3       c3          0.00000  0.00000   A     3.39771e-01   4.51035e-01 ; 1.91  0.1078
 o        o           0.00000  0.00000   A     3.04812e-01   6.12119e-01 ; 1.71  0.1463
 oh       oh          0.00000  0.00000   A     3.24287e-01   3.89112e-01 ; 1.82  0.0930
 hc       hc          0.00000  0.00000   A     2.60018e-01   8.70272e-02 ; 1.46  0.0208
 ho       ho          0.00000  0.00000   A     5.37925e-02   1.96648e-02 ; 0.30  0.0047

[ moleculetype ]
;name            nrexcl
 mobley_820789    3

[ atoms ]
;   nr  type  resi  res  atom  cgnr     charge      mass       ; qtot   bond_type
     1    c     1   MOL    C1    1     0.635099     12.01000 ; qtot 0.635
     2   c3     1   MOL    C2    2    -0.094100     12.01000 ; qtot 0.541
     3   c3     1   MOL    C3    3    -0.127400     12.01000 ; qtot 0.414
     4   c3     1   MOL    C4    4    -0.080400     12.01000 ; qtot 0.333
     5    o     1   MOL    O1    5    -0.551000     16.00000 ; qtot -0.218
     6   oh     1   MOL    O2    6    -0.612100     16.00000 ; qtot -0.830
     7   hc     1   MOL    H1    7     0.037367      1.00800 ; qtot -0.793
     8   hc     1   MOL    H2    8     0.037367      1.00800 ; qtot -0.755
     9   hc     1   MOL    H3    9     0.037367      1.00800 ; qtot -0.718
    10   hc     1   MOL    H4   10     0.079700      1.00800 ; qtot -0.638
    11   hc     1   MOL    H5   11     0.079700      1.00800 ; qtot -0.558
    12   hc     1   MOL    H6   12     0.057700      1.00800 ; qtot -0.501
    13   hc     1   MOL    H7   13     0.057700      1.00800 ; qtot -0.443
    14   ho     1   MOL    H8   14     0.443000      1.00800 ; qtot 0.000

[ bonds ]
;   ai     aj funct   r             k
     1      3   1    1.5270e-01    1.9652e+05 ;     C1 - C3    
     1      5   1    1.2190e-01    4.9421e+05 ;     C1 - O1    
     1      6   1    1.3556e-01    3.0064e+05 ;     C1 - O2    
     2      4   1    1.5354e-01    1.9154e+05 ;     C2 - C4    
     2      7   1    1.0962e-01    2.8891e+05 ;     C2 - H1    
     2      8   1    1.0962e-01    2.8891e+05 ;     C2 - H2    
     2      9   1    1.0962e-01    2.8891e+05 ;     C2 - H3    
     3      4   1    1.5354e-01    1.9154e+05 ;     C3 - C4    
     3     10   1    1.0962e-01    2.8891e+05 ;     C3 - H4    
     3     11   1    1.0962e-01    2.8891e+05 ;     C3 - H5    
     4     12   1    1.0962e-01    2.8891e+05 ;     C4 - H6    
     4     13   1    1.0962e-01    2.8891e+05 ;     C4 - H7    
     6     14   1    9.7250e-02    4.4811e+05 ;     O2 - H8    

[ pairs ]
;   ai     aj    funct
     1      2      1 ;     C1 - C2    
     1     12      1 ;     C1 - H6    
     1     13      1 ;     C1 - H7    
     2     10      1 ;     C2 - H4    
     2     11      1 ;     C2 - H5    
     3      7      1 ;     C3 - H1    
     3      8      1 ;     C3 - H2    
     3      9      1 ;     C3 - H3    
     3     14      1 ;     C3 - H8    
     5      4      1 ;     O1 - C4    
     5     10      1 ;     O1 - H4    
     5     11      1 ;     O1 - H5    
     5     14      1 ;     O1 - H8    
     6      4      1 ;     O2 - C4    
     6     10      1 ;     O2 - H4    
     6     11      1 ;     O2 - H5    
     7     12      1 ;     H1 - H6    
     7     13      1 ;     H1 - H7    
     8     12      1 ;     H2 - H6    
     8     13      1 ;     H2 - H7    
     9     12      1 ;     H3 - H6    
     9     13      1 ;     H3 - H7    
    10     12      1 ;     H4 - H6    
    10     13      1 ;     H4 - H7    
    11     12      1 ;     H5 - H6    
    11     13      1 ;     H5 - H7    

[ angles ]
;   ai     aj     ak    funct   theta         cth
     1      3      4      1    1.1143e+02    5.0509e+02 ;     C1 - C3     - C4    
     1      3     10      1    1.0895e+02    3.6510e+02 ;     C1 - C3     - H4    
     1      3     11      1    1.0895e+02    3.6510e+02 ;     C1 - C3     - H5    
     1      6     14      1    1.0654e+02    5.7287e+02 ;     C1 - O2     - H8    
     2      4      3      1    1.1263e+02    5.0099e+02 ;     C2 - C4     - C3    
     2      4     12      1    1.0968e+02    3.6208e+02 ;     C2 - C4     - H6    
     2      4     13      1    1.0968e+02    3.6208e+02 ;     C2 - C4     - H7    
     3      1      5      1    1.2290e+02    6.3973e+02 ;     C3 - C1     - O1    
     3      1      6      1    1.1274e+02    6.4785e+02 ;     C3 - C1     - O2    
     3      4     12      1    1.0968e+02    3.6208e+02 ;     C3 - C4     - H6    
     3      4     13      1    1.0968e+02    3.6208e+02 ;     C3 - C4     - H7    
     4      2      7      1    1.0968e+02    3.6208e+02 ;     C4 - C2     - H1    
     4      2      8      1    1.0968e+02    3.6208e+02 ;     C4 - C2     - H2    
     4      2      9      1    1.0968e+02    3.6208e+02 ;     C4 - C2     - H3    
     4      3     10      1    1.0968e+02    3.6208e+02 ;     C4 - C3     - H4    
     4      3     11      1    1.0968e+02    3.6208e+02 ;     C4 - C3     - H5    
     5      1      6      1    1.2209e+02    8.5379e+02 ;     O1 - C1     - O2    
     7      2      8      1    1.0773e+02    2.9957e+02 ;     H1 - C2     - H2    
     7      2      9      1    1.0773e+02    2.9957e+02 ;     H1 - C2     - H3    
     8      2      9      1    1.0773e+02    2.9957e+02 ;     H2 - C2     - H3    
    10      3     11      1    1.0773e+02    2.9957e+02 ;     H4 - C3     - H5    
    12      4     13      1    1.0773e+02    2.9957e+02 ;     H6 - C4     - H7    

[ dihedrals ] ; propers
; for gromacs 4.5 or higher, using funct 9
;    i      j      k      l   func   phase     kd      pn
     1      3      4      2      9     0.00   0.00000   0 ;     C1-    C3-    C4-    C2
     1      3      4      2      9     0.00   0.16736   2 ;     C1-    C3-    C4-    C2
     1      3      4      2      9   180.00   1.92464   1 ;     C1-    C3-    C4-    C2
     1      3      4     12      9     0.00   0.65084   3 ;     C1-    C3-    C4-    H6
     1      3      4     13      9     0.00   0.65084   3 ;     C1-    C3-    C4-    H7
     2      4      3     10      9     0.00   0.54392   3 ;     C2-    C4-    C3-    H4
     2      4      3     11      9     0.00   0.54392   3 ;     C2-    C4-    C3-    H5
     3      1      6     14      9   180.00   7.53120   2 ;     C3-    C1-    O2-    H8
     3      4      2      7      9     0.00   0.54392   3 ;     C3-    C4-    C2-    H1
     3      4      2      8      9     0.00   0.54392   3 ;     C3-    C4-    C2-    H2
     3      4      2      9      9     0.00   0.54392   3 ;     C3-    C4-    C2-    H3
     5      1      3      4      9     0.00   2.84512   1 ;     O1-    C1-    C3-    C4
     5      1      3      4      9   180.00   0.83680   2 ;     O1-    C1-    C3-    C4
     5      1      3      4      9   180.00   1.84096   3 ;     O1-    C1-    C3-    C4
     5      1      3     10      9     0.00  16.86152   1 ;     O1-    C1-    C3-    H4
     5      1      3     10      9   180.00  15.31344   2 ;     O1-    C1-    C3-    H4
     5      1      3     11      9     0.00  16.86152   1 ;     O1-    C1-    C3-    H5
     5      1      3     11      9   180.00  15.31344   2 ;     O1-    C1-    C3-    H5
     5      1      6     14      9     0.00   7.94960   1 ;     O1-    C1-    O2-    H8
     5      1      6     14      9   180.00   9.62320   2 ;     O1-    C1-    O2-    H8
     6      1      3      4      9   180.00   0.00000   2 ;     O2-    C1-    C3-    C4
     6      1      3     10      9   180.00   0.00000   2 ;     O2-    C1-    C3-    H4
     6      1      3     11      9   180.00   0.00000   2 ;     O2-    C1-    C3-    H5
     7      2      4     12      9     0.00   0.50208   3 ;     H1-    C2-    C4-    H6
     7      2      4     13      9     0.00   0.50208   3 ;     H1-    C2-    C4-    H7
     8      2      4     12      9     0.00   0.50208   3 ;     H2-    C2-    C4-    H6
     8      2      4     13      9     0.00   0.50208   3 ;     H2-    C2-    C4-    H7
     9      2      4     12      9     0.00   0.50208   3 ;     H3-    C2-    C4-    H6
     9      2      4     13      9     0.00   0.50208   3 ;     H3-    C2-    C4-    H7
    10      3      4     12      9     0.00   0.50208   3 ;     H4-    C3-    C4-    H6
    10      3      4     13      9     0.00   0.50208   3 ;     H4-    C3-    C4-    H7
    11      3      4     12      9     0.00   0.50208   3 ;     H5-    C3-    C4-    H6
    11      3      4     13      9     0.00   0.50208   3 ;     H5-    C3-    C4-    H7

[ dihedrals ] ; impropers
; treated as propers in GROMACS to use correct AMBER analytical function
;    i      j      k      l   func   phase     kd      pn
     6      1      5      3      4   180.00   4.60240   2 ;     O2-    C1-    O1-    C3
