; mobley_2279874_GMX.itp created by acpype (v: 2023.10.27) on Thu May 14 13:45:45 2026

[ atomtypes ]
;name   bond_type     mass     charge   ptype   sigma         epsilon       Amb
 c3       c3          0.00000  0.00000   A     3.39771e-01   4.51035e-01 ; 1.91  0.1078
 os       os          0.00000  0.00000   A     3.15610e-01   3.03758e-01 ; 1.77  0.0726
 h1       h1          0.00000  0.00000   A     2.42200e-01   8.70272e-02 ; 1.36  0.0208
 h3       h3          0.00000  0.00000   A     2.06564e-01   8.70272e-02 ; 1.16  0.0208

[ moleculetype ]
;name            nrexcl
 mobley_2279874   3

[ atoms ]
;   nr  type  resi  res  atom  cgnr     charge      mass       ; qtot   bond_type
     1   c3     1   MOL    C1    1     0.129367     12.01000 ; qtot 0.129
     2   c3     1   MOL    C2    2     0.129367     12.01000 ; qtot 0.259
     3   c3     1   MOL    C3    3     0.129367     12.01000 ; qtot 0.388
     4   c3     1   MOL    C4    4     0.511697     12.01000 ; qtot 0.900
     5   os     1   MOL    O1    5    -0.449267     16.00000 ; qtot 0.451
     6   os     1   MOL    O2    6    -0.449267     16.00000 ; qtot 0.001
     7   os     1   MOL    O3    7    -0.449267     16.00000 ; qtot -0.448
     8   h1     1   MOL    H1    8     0.040367      1.00800 ; qtot -0.408
     9   h1     1   MOL    H2    9     0.040367      1.00800 ; qtot -0.367
    10   h1     1   MOL    H3   10     0.040367      1.00800 ; qtot -0.327
    11   h1     1   MOL    H4   11     0.040367      1.00800 ; qtot -0.287
    12   h1     1   MOL    H5   12     0.040367      1.00800 ; qtot -0.246
    13   h1     1   MOL    H6   13     0.040367      1.00800 ; qtot -0.206
    14   h1     1   MOL    H7   14     0.040367      1.00800 ; qtot -0.165
    15   h1     1   MOL    H8   15     0.040367      1.00800 ; qtot -0.125
    16   h1     1   MOL    H9   16     0.040367      1.00800 ; qtot -0.085
    17   h3     1   MOL   H10   17     0.084700      1.00800 ; qtot 0.000

[ bonds ]
;   ai     aj funct   r             k
     1      5   1    1.4273e-01    2.3620e+05 ;     C1 - O1    
     1      8   1    1.0969e-01    2.8804e+05 ;     C1 - H1    
     1      9   1    1.0969e-01    2.8804e+05 ;     C1 - H2    
     1     10   1    1.0969e-01    2.8804e+05 ;     C1 - H3    
     2      6   1    1.4273e-01    2.3620e+05 ;     C2 - O2    
     2     11   1    1.0969e-01    2.8804e+05 ;     C2 - H4    
     2     12   1    1.0969e-01    2.8804e+05 ;     C2 - H5    
     2     13   1    1.0969e-01    2.8804e+05 ;     C2 - H6    
     3      7   1    1.4273e-01    2.3620e+05 ;     C3 - O3    
     3     14   1    1.0969e-01    2.8804e+05 ;     C3 - H7    
     3     15   1    1.0969e-01    2.8804e+05 ;     C3 - H8    
     3     16   1    1.0969e-01    2.8804e+05 ;     C3 - H9    
     4      5   1    1.4273e-01    2.3620e+05 ;     C4 - O1    
     4      6   1    1.4273e-01    2.3620e+05 ;     C4 - O2    
     4      7   1    1.4273e-01    2.3620e+05 ;     C4 - O3    
     4     17   1    1.0938e-01    2.9188e+05 ;     C4 - H10   

[ pairs ]
;   ai     aj    funct
     1      6      1 ;     C1 - O2    
     1      7      1 ;     C1 - O3    
     1     17      1 ;     C1 - H10   
     2      5      1 ;     C2 - O1    
     2      7      1 ;     C2 - O3    
     2     17      1 ;     C2 - H10   
     3      5      1 ;     C3 - O1    
     3      6      1 ;     C3 - O2    
     3     17      1 ;     C3 - H10   
     4     11      1 ;     C4 - H4    
     4     12      1 ;     C4 - H5    
     4     13      1 ;     C4 - H6    
     4     14      1 ;     C4 - H7    
     4     15      1 ;     C4 - H8    
     4     16      1 ;     C4 - H9    
     8      4      1 ;     H1 - C4    
     9      4      1 ;     H2 - C4    
    10      4      1 ;     H3 - C4    

[ angles ]
;   ai     aj     ak    funct   theta         cth
     1      5      4      1    1.1360e+02    7.3915e+02 ;     C1 - O1     - C4    
     2      6      4      1    1.1360e+02    7.3915e+02 ;     C2 - O2     - C4    
     3      7      4      1    1.1360e+02    7.3915e+02 ;     C3 - O3     - C4    
     5      1      8      1    1.1034e+02    4.7028e+02 ;     O1 - C1     - H1    
     5      1      9      1    1.1034e+02    4.7028e+02 ;     O1 - C1     - H2    
     5      1     10      1    1.1034e+02    4.7028e+02 ;     O1 - C1     - H3    
     5      4      6      1    1.0789e+02    8.2375e+02 ;     O1 - C4     - O2    
     5      4      7      1    1.0789e+02    8.2375e+02 ;     O1 - C4     - O3    
     5      4     17      1    1.1181e+02    4.6744e+02 ;     O1 - C4     - H10   
     6      2     11      1    1.1034e+02    4.7028e+02 ;     O2 - C2     - H4    
     6      2     12      1    1.1034e+02    4.7028e+02 ;     O2 - C2     - H5    
     6      2     13      1    1.1034e+02    4.7028e+02 ;     O2 - C2     - H6    
     6      4      7      1    1.0789e+02    8.2375e+02 ;     O2 - C4     - O3    
     6      4     17      1    1.1181e+02    4.6744e+02 ;     O2 - C4     - H10   
     7      3     14      1    1.1034e+02    4.7028e+02 ;     O3 - C3     - H7    
     7      3     15      1    1.1034e+02    4.7028e+02 ;     O3 - C3     - H8    
     7      3     16      1    1.1034e+02    4.7028e+02 ;     O3 - C3     - H9    
     7      4     17      1    1.1181e+02    4.6744e+02 ;     O3 - C4     - H10   
     8      1      9      1    1.0855e+02    2.9824e+02 ;     H1 - C1     - H2    
     8      1     10      1    1.0855e+02    2.9824e+02 ;     H1 - C1     - H3    
     9      1     10      1    1.0855e+02    2.9824e+02 ;     H2 - C1     - H3    
    11      2     12      1    1.0855e+02    2.9824e+02 ;     H4 - C2     - H5    
    11      2     13      1    1.0855e+02    2.9824e+02 ;     H4 - C2     - H6    
    12      2     13      1    1.0855e+02    2.9824e+02 ;     H5 - C2     - H6    
    14      3     15      1    1.0855e+02    2.9824e+02 ;     H7 - C3     - H8    
    14      3     16      1    1.0855e+02    2.9824e+02 ;     H7 - C3     - H9    
    15      3     16      1    1.0855e+02    2.9824e+02 ;     H8 - C3     - H9    

[ dihedrals ] ; propers
; for gromacs 4.5 or higher, using funct 9
;    i      j      k      l   func   phase     kd      pn
     1      5      4      6      9     0.00   3.55640   2 ;     C1-    O1-    C4-    O2
     1      5      4      6      9     0.00   3.55640   3 ;     C1-    O1-    C4-    O2
     1      5      4      6      9   180.00   1.92464   1 ;     C1-    O1-    C4-    O2
     1      5      4      7      9     0.00   3.55640   2 ;     C1-    O1-    C4-    O3
     1      5      4      7      9     0.00   3.55640   3 ;     C1-    O1-    C4-    O3
     1      5      4      7      9   180.00   1.92464   1 ;     C1-    O1-    C4-    O3
     1      5      4     17      9     0.00   1.60387   3 ;     C1-    O1-    C4-   H10
     2      6      4      5      9     0.00   3.55640   2 ;     C2-    O2-    C4-    O1
     2      6      4      5      9     0.00   3.55640   3 ;     C2-    O2-    C4-    O1
     2      6      4      5      9   180.00   1.92464   1 ;     C2-    O2-    C4-    O1
     2      6      4      7      9     0.00   3.55640   2 ;     C2-    O2-    C4-    O3
     2      6      4      7      9     0.00   3.55640   3 ;     C2-    O2-    C4-    O3
     2      6      4      7      9   180.00   1.92464   1 ;     C2-    O2-    C4-    O3
     2      6      4     17      9     0.00   1.60387   3 ;     C2-    O2-    C4-   H10
     3      7      4      5      9     0.00   3.55640   2 ;     C3-    O3-    C4-    O1
     3      7      4      5      9     0.00   3.55640   3 ;     C3-    O3-    C4-    O1
     3      7      4      5      9   180.00   1.92464   1 ;     C3-    O3-    C4-    O1
     3      7      4      6      9     0.00   3.55640   2 ;     C3-    O3-    C4-    O2
     3      7      4      6      9     0.00   3.55640   3 ;     C3-    O3-    C4-    O2
     3      7      4      6      9   180.00   1.92464   1 ;     C3-    O3-    C4-    O2
     3      7      4     17      9     0.00   1.60387   3 ;     C3-    O3-    C4-   H10
     4      6      2     11      9     0.00   1.41001   3 ;     C4-    O2-    C2-    H4
     4      6      2     12      9     0.00   1.41001   3 ;     C4-    O2-    C2-    H5
     4      6      2     13      9     0.00   1.41001   3 ;     C4-    O2-    C2-    H6
     4      7      3     14      9     0.00   1.41001   3 ;     C4-    O3-    C3-    H7
     4      7      3     15      9     0.00   1.41001   3 ;     C4-    O3-    C3-    H8
     4      7      3     16      9     0.00   1.41001   3 ;     C4-    O3-    C3-    H9
     8      1      5      4      9     0.00   1.41001   3 ;     H1-    C1-    O1-    C4
     9      1      5      4      9     0.00   1.41001   3 ;     H2-    C1-    O1-    C4
    10      1      5      4      9     0.00   1.41001   3 ;     H3-    C1-    O1-    C4
