; mobley_5708811_GMX.itp created by acpype (v: 2023.10.27) on Thu May 14 13:46:34 2026

[ atomtypes ]
;name   bond_type     mass     charge   ptype   sigma         epsilon       Amb
 ca       ca          0.00000  0.00000   A     3.31521e-01   4.13379e-01 ; 1.86  0.0988
 c        c           0.00000  0.00000   A     3.31521e-01   4.13379e-01 ; 1.86  0.0988
 c3       c3          0.00000  0.00000   A     3.39771e-01   4.51035e-01 ; 1.91  0.1078
 o        o           0.00000  0.00000   A     3.04812e-01   6.12119e-01 ; 1.71  0.1463
 oh       oh          0.00000  0.00000   A     3.24287e-01   3.89112e-01 ; 1.82  0.0930
 os       os          0.00000  0.00000   A     3.15610e-01   3.03758e-01 ; 1.77  0.0726
 cl       cl          0.00000  0.00000   A     3.46595e-01   1.10374e+00 ; 1.95  0.2638
 ha       ha          0.00000  0.00000   A     2.62548e-01   6.73624e-02 ; 1.47  0.0161
 h1       h1          0.00000  0.00000   A     2.42200e-01   8.70272e-02 ; 1.36  0.0208
 ho       ho          0.00000  0.00000   A     5.37925e-02   1.96648e-02 ; 0.30  0.0047

[ moleculetype ]
;name            nrexcl
 mobley_5708811   3

[ atoms ]
;   nr  type  resi  res  atom  cgnr     charge      mass       ; qtot   bond_type
     1   ca     1   MOL    C1    1    -0.132000     12.01000 ; qtot -0.132
     2   ca     1   MOL    C2    2    -0.089000     12.01000 ; qtot -0.221
     3   ca     1   MOL    C3    3    -0.118600     12.01000 ; qtot -0.340
     4   ca     1   MOL    C4    4     0.152100     12.01000 ; qtot -0.188
     5   ca     1   MOL    C5    5     0.063400     12.01000 ; qtot -0.124
     6   ca     1   MOL    C6    6    -0.007600     12.01000 ; qtot -0.132
     7    c     1   MOL    C7    7     0.665701     12.01000 ; qtot 0.534
     8   c3     1   MOL    C8    8     0.108700     12.01000 ; qtot 0.643
     9    o     1   MOL    O1    9    -0.540000     16.00000 ; qtot 0.103
    10   oh     1   MOL    O2   10    -0.582100     16.00000 ; qtot -0.479
    11   os     1   MOL    O3   11    -0.335900     16.00000 ; qtot -0.815
    12   cl     1   MOL   CL1   12    -0.058400     35.45000 ; qtot -0.874
    13   cl     1   MOL   CL2   13    -0.058400     35.45000 ; qtot -0.932
    14   ha     1   MOL    H1   14     0.160000      1.00800 ; qtot -0.772
    15   ha     1   MOL    H2   15     0.159000      1.00800 ; qtot -0.613
    16   h1     1   MOL    H3   16     0.055033      1.00800 ; qtot -0.558
    17   h1     1   MOL    H4   17     0.055033      1.00800 ; qtot -0.503
    18   h1     1   MOL    H5   18     0.055033      1.00800 ; qtot -0.448
    19   ho     1   MOL    H6   19     0.448000      1.00800 ; qtot 0.000

[ bonds ]
;   ai     aj funct   r             k
     1      2   1    1.3986e-01    2.9644e+05 ;     C1 - C2    
     1      5   1    1.3986e-01    2.9644e+05 ;     C1 - C5    
     1     14   1    1.0860e-01    3.0183e+05 ;     C1 - H1    
     2      6   1    1.3986e-01    2.9644e+05 ;     C2 - C6    
     2     15   1    1.0860e-01    3.0183e+05 ;     C2 - H2    
     3      4   1    1.3986e-01    2.9644e+05 ;     C3 - C4    
     3      5   1    1.3986e-01    2.9644e+05 ;     C3 - C5    
     3      7   1    1.4907e-01    2.1994e+05 ;     C3 - C7    
     4      6   1    1.3986e-01    2.9644e+05 ;     C4 - C6    
     4     11   1    1.3688e-01    2.8731e+05 ;     C4 - O3    
     5     12   1    1.7572e-01    1.5730e+05 ;     C5 - CL1   
     6     13   1    1.7572e-01    1.5730e+05 ;     C6 - CL2   
     7      9   1    1.2190e-01    4.9421e+05 ;     C7 - O1    
     7     10   1    1.3556e-01    3.0064e+05 ;     C7 - O2    
     8     11   1    1.4273e-01    2.3620e+05 ;     C8 - O3    
     8     16   1    1.0969e-01    2.8804e+05 ;     C8 - H3    
     8     17   1    1.0969e-01    2.8804e+05 ;     C8 - H4    
     8     18   1    1.0969e-01    2.8804e+05 ;     C8 - H5    
    10     19   1    9.7250e-02    4.4811e+05 ;     O2 - H6    

[ pairs ]
;   ai     aj    funct
     1      4      1 ;     C1 - C4    
     1      7      1 ;     C1 - C7    
     1     13      1 ;     C1 - CL2   
     2      3      1 ;     C2 - C3    
     2     11      1 ;     C2 - O3    
     2     12      1 ;     C2 - CL1   
     3      8      1 ;     C3 - C8    
     3     13      1 ;     C3 - CL2   
     3     19      1 ;     C3 - H6    
     4      9      1 ;     C4 - O1    
     4     10      1 ;     C4 - O2    
     4     12      1 ;     C4 - CL1   
     4     15      1 ;     C4 - H2    
     4     16      1 ;     C4 - H3    
     4     17      1 ;     C4 - H4    
     4     18      1 ;     C4 - H5    
     5      6      1 ;     C5 - C6    
     5      9      1 ;     C5 - O1    
     5     10      1 ;     C5 - O2    
     5     11      1 ;     C5 - O3    
     5     15      1 ;     C5 - H2    
     6      7      1 ;     C6 - C7    
     6      8      1 ;     C6 - C8    
     7     11      1 ;     C7 - O3    
     7     12      1 ;     C7 - CL1   
     9     19      1 ;     O1 - H6    
    11     13      1 ;     O3 - CL2   
    13     15      1 ;    CL2 - H2    
    14      3      1 ;     H1 - C3    
    14      6      1 ;     H1 - C6    
    14     12      1 ;     H1 - CL1   
    14     15      1 ;     H1 - H2    

[ angles ]
;   ai     aj     ak    funct   theta         cth
     1      2      6      1    1.2002e+02    5.3279e+02 ;     C1 - C2     - C6    
     1      2     15      1    1.1988e+02    3.7572e+02 ;     C1 - C2     - H2    
     1      5      3      1    1.2002e+02    5.3279e+02 ;     C1 - C5     - C3    
     1      5     12      1    1.1938e+02    5.3605e+02 ;     C1 - C5     - CL1   
     2      1      5      1    1.2002e+02    5.3279e+02 ;     C2 - C1     - C5    
     2      1     14      1    1.1988e+02    3.7572e+02 ;     C2 - C1     - H1    
     2      6      4      1    1.2002e+02    5.3279e+02 ;     C2 - C6     - C4    
     2      6     13      1    1.1938e+02    5.3605e+02 ;     C2 - C6     - CL2   
     3      4      6      1    1.2002e+02    5.3279e+02 ;     C3 - C4     - C6    
     3      4     11      1    1.1911e+02    6.6107e+02 ;     C3 - C4     - O3    
     3      5     12      1    1.1938e+02    5.3605e+02 ;     C3 - C5     - CL1   
     3      7      9      1    1.2260e+02    6.5237e+02 ;     C3 - C7     - O1    
     3      7     10      1    1.1345e+02    6.5580e+02 ;     C3 - C7     - O2    
     4      3      5      1    1.2002e+02    5.3279e+02 ;     C4 - C3     - C5    
     4      3      7      1    1.2033e+02    5.1413e+02 ;     C4 - C3     - C7    
     4      6     13      1    1.1938e+02    5.3605e+02 ;     C4 - C6     - CL2   
     4     11      8      1    1.1839e+02    7.3856e+02 ;     C4 - O3     - C8    
     5      1     14      1    1.1988e+02    3.7572e+02 ;     C5 - C1     - H1    
     5      3      7      1    1.2033e+02    5.1413e+02 ;     C5 - C3     - C7    
     6      2     15      1    1.1988e+02    3.7572e+02 ;     C6 - C2     - H2    
     6      4     11      1    1.1911e+02    6.6107e+02 ;     C6 - C4     - O3    
     7     10     19      1    1.0654e+02    5.7287e+02 ;     C7 - O2     - H6    
     9      7     10      1    1.2209e+02    8.5379e+02 ;     O1 - C7     - O2    
    11      8     16      1    1.1034e+02    4.7028e+02 ;     O3 - C8     - H3    
    11      8     17      1    1.1034e+02    4.7028e+02 ;     O3 - C8     - H4    
    11      8     18      1    1.1034e+02    4.7028e+02 ;     O3 - C8     - H5    
    16      8     17      1    1.0855e+02    2.9824e+02 ;     H3 - C8     - H4    
    16      8     18      1    1.0855e+02    2.9824e+02 ;     H3 - C8     - H5    
    17      8     18      1    1.0855e+02    2.9824e+02 ;     H4 - C8     - H5    

[ dihedrals ] ; propers
; for gromacs 4.5 or higher, using funct 9
;    i      j      k      l   func   phase     kd      pn
     1      2      6      4      9   180.00  15.16700   2 ;     C1-    C2-    C6-    C4
     1      2      6     13      9   180.00  15.16700   2 ;     C1-    C2-    C6-   CL2
     1      5      3      4      9   180.00  15.16700   2 ;     C1-    C5-    C3-    C4
     1      5      3      7      9   180.00  15.16700   2 ;     C1-    C5-    C3-    C7
     2      1      5      3      9   180.00  15.16700   2 ;     C2-    C1-    C5-    C3
     2      1      5     12      9   180.00  15.16700   2 ;     C2-    C1-    C5-   CL1
     2      6      4      3      9   180.00  15.16700   2 ;     C2-    C6-    C4-    C3
     2      6      4     11      9   180.00  15.16700   2 ;     C2-    C6-    C4-    O3
     3      4      6     13      9   180.00  15.16700   2 ;     C3-    C4-    C6-   CL2
     3      4     11      8      9   180.00   6.94544   2 ;     C3-    C4-    O3-    C8
     3      7     10     19      9   180.00   9.62320   2 ;     C3-    C7-    O2-    H6
     4      3      5     12      9   180.00  15.16700   2 ;     C4-    C3-    C5-   CL1
     4      3      7      9      9   180.00   2.42672   2 ;     C4-    C3-    C7-    O1
     4      3      7     10      9   180.00   4.18400   2 ;     C4-    C3-    C7-    O2
     4      6      2     15      9   180.00  15.16700   2 ;     C4-    C6-    C2-    H2
     4     11      8     16      9     0.00   1.60387   3 ;     C4-    O3-    C8-    H3
     4     11      8     17      9     0.00   1.60387   3 ;     C4-    O3-    C8-    H4
     4     11      8     18      9     0.00   1.60387   3 ;     C4-    O3-    C8-    H5
     5      1      2      6      9   180.00  15.16700   2 ;     C5-    C1-    C2-    C6
     5      1      2     15      9   180.00  15.16700   2 ;     C5-    C1-    C2-    H2
     5      3      4      6      9   180.00  15.16700   2 ;     C5-    C3-    C4-    C6
     5      3      4     11      9   180.00  15.16700   2 ;     C5-    C3-    C4-    O3
     5      3      7      9      9   180.00   2.42672   2 ;     C5-    C3-    C7-    O1
     5      3      7     10      9   180.00   4.18400   2 ;     C5-    C3-    C7-    O2
     6      4      3      7      9   180.00  15.16700   2 ;     C6-    C4-    C3-    C7
     6      4     11      8      9   180.00   6.94544   2 ;     C6-    C4-    O3-    C8
     7      3      4     11      9   180.00  15.16700   2 ;     C7-    C3-    C4-    O3
     7      3      5     12      9   180.00  15.16700   2 ;     C7-    C3-    C5-   CL1
     9      7     10     19      9     0.00   7.94960   1 ;     O1-    C7-    O2-    H6
     9      7     10     19      9   180.00   9.62320   2 ;     O1-    C7-    O2-    H6
    11      4      6     13      9   180.00  15.16700   2 ;     O3-    C4-    C6-   CL2
    13      6      2     15      9   180.00  15.16700   2 ;    CL2-    C6-    C2-    H2
    14      1      2      6      9   180.00  15.16700   2 ;     H1-    C1-    C2-    C6
    14      1      2     15      9   180.00  15.16700   2 ;     H1-    C1-    C2-    H2
    14      1      5      3      9   180.00  15.16700   2 ;     H1-    C1-    C5-    C3
    14      1      5     12      9   180.00  15.16700   2 ;     H1-    C1-    C5-   CL1

[ dihedrals ] ; impropers
; treated as propers in GROMACS to use correct AMBER analytical function
;    i      j      k      l   func   phase     kd      pn
     1      3      5     12      4   180.00   4.60240   2 ;     C1-    C3-    C5-   CL1
     1      6      2     15      4   180.00   4.60240   2 ;     C1-    C6-    C2-    H2
     2      4      6     13      4   180.00   4.60240   2 ;     C2-    C4-    C6-   CL2
     3      6      4     11      4   180.00   4.60240   2 ;     C3-    C6-    C4-    O3
     3      9      7     10      4   180.00   4.60240   2 ;     C3-    O1-    C7-    O2
     7      4      3      5      4   180.00   4.60240   2 ;     C7-    C4-    C3-    C5
    14      1      5      2      4   180.00   4.60240   2 ;     H1-    C1-    C5-    C2
