mobley_3359593_GMX.gro created by acpype (v: 2023.10.27) on Thu May 14 13:40:30 2026
 2336
    1MOL     C1    1   1.438   1.486   1.259
    1MOL     C2    2   1.311   1.539   1.233
    1MOL     C3    3   1.396   1.503   1.496
    1MOL     C4    4   1.480   1.468   1.391
    1MOL     C5    5   1.227   1.574   1.338
    1MOL     C6    6   1.269   1.556   1.470
    1MOL     C7    7   1.750   1.200   1.455
    1MOL     C8    8   1.238   1.568   1.706
    1MOL     C9    9   1.615   1.411   1.419
    1MOL    C10   10   1.612   1.258   1.429
    1MOL     O1   11   1.104   1.625   1.311
    1MOL     O2   12   1.188   1.589   1.574
    1MOL     H1   13   1.503   1.459   1.176
    1MOL     H2   14   1.279   1.552   1.130
    1MOL     H3   15   1.428   1.489   1.599
    1MOL     H4   16   1.820   1.229   1.375
    1MOL     H5   17   1.791   1.235   1.550
    1MOL     H6   18   1.746   1.091   1.458
    1MOL     H7   19   1.163   1.599   1.779
    1MOL     H8   20   1.330   1.625   1.719
    1MOL     H9   21   1.260   1.462   1.719
    1MOL    H10   22   1.686   1.441   1.340
    1MOL    H11   23   1.656   1.453   1.513
    1MOL    H12   24   1.545   1.227   1.510
    1MOL    H13   25   1.572   1.215   1.337
    1MOL    H14   26   1.090   1.631   1.215
    2SOL     OW   27   0.230   0.628   0.113
    2SOL    HW1   28   0.137   0.626   0.150
    2SOL    HW2   29   0.231   0.589   0.021
    3SOL     OW   30   0.225   0.275   0.996
    3SOL    HW1   31   0.260   0.258   1.088
    3SOL    HW2   32   0.137   0.230   0.984
    4SOL     OW   33   0.019   0.368   0.647
    4SOL    HW1   34  -0.063   0.411   0.686
    4SOL    HW2   35  -0.009   0.295   0.584
    5SOL     OW   36   0.569   1.275   1.165
    5SOL    HW1   37   0.476   1.268   1.128
    5SOL    HW2   38   0.580   1.364   1.209
    6SOL     OW   39   1.555   1.511   0.703
    6SOL    HW1   40   1.498   1.495   0.784
    6SOL    HW2   41   1.496   1.521   0.623
    7SOL     OW   42   1.135   0.703   0.717
    7SOL    HW1   43   1.192   0.781   0.692
    7SOL    HW2   44   1.075   0.729   0.793
    8SOL     OW   45   1.755   0.607   0.231
    8SOL    HW1   46   1.743   0.594   0.132
    8SOL    HW2   47   1.725   0.526   0.280
    9SOL     OW   48   0.768   1.144   1.023
    9SOL    HW1   49   0.690   1.161   1.083
    9SOL    HW2   50   0.802   1.231   0.987
   10SOL     OW   51   0.850   0.798   1.823
   10SOL    HW1   52   0.846   0.874   1.888
   10SOL    HW2   53   0.872   0.834   1.732
   11SOL     OW   54   0.685   1.012   0.665
   11SOL    HW1   55   0.754   0.996   0.735
   11SOL    HW2   56   0.612   1.069   0.703
   12SOL     OW   57   0.686   1.161   1.803
   12SOL    HW1   58   0.746   1.240   1.817
   12SOL    HW2   59   0.600   1.192   1.762
   13SOL     OW   60   0.335   1.435   1.061
   13SOL    HW1   61   0.257   1.404   1.008
   13SOL    HW2   62   0.393   1.493   1.004
   14SOL     OW   63   0.438   0.392   1.499
   14SOL    HW1   64   0.520   0.336   1.508
   14SOL    HW2   65   0.357   0.334   1.503
   15SOL     OW   66   1.603   0.447   0.737
   15SOL    HW1   67   1.529   0.493   0.687
   15SOL    HW2   68   1.654   0.515   0.790
   16SOL     OW   69   0.231   1.713   0.483
   16SOL    HW1   70   0.265   1.790   0.537
   16SOL    HW2   71   0.275   1.713   0.393
   17SOL     OW   72   1.127   1.341   1.690
   17SOL    HW1   73   1.174   1.341   1.778
   17SOL    HW2   74   1.079   1.254   1.679
   18SOL     OW   75   0.230   1.434   0.538
   18SOL    HW1   76   0.204   1.530   0.538
   18SOL    HW2   77   0.159   1.380   0.583
   19SOL     OW   78   0.240   1.091   0.886
   19SOL    HW1   79   0.254   1.007   0.938
   19SOL    HW2   80   0.185   1.155   0.941
   20SOL     OW   81   0.620   1.786   1.439
   20SOL    HW1   82   0.528   1.769   1.474
   20SOL    HW2   83   0.648   1.878   1.465
   21SOL     OW   84   0.606   0.964   0.123
   21SOL    HW1   85   0.613   1.048   0.069
   21SOL    HW2   86   0.652   0.977   0.211
   22SOL     OW   87   1.594   0.114   1.480
   22SOL    HW1   88   1.576   0.181   1.408
   22SOL    HW2   89   1.591   0.160   1.569
   23SOL     OW   90   0.122   0.643   0.563
   23SOL    HW1   91   0.077   0.555   0.580
   23SOL    HW2   92   0.121   0.697   0.647
   24SOL     OW   93   1.842   1.767   0.359
   24SOL    HW1   94   1.896   1.738   0.439
   24SOL    HW2   95   1.872   1.857   0.330
   25SOL     OW   96   0.027   1.596   0.117
   25SOL    HW1   97   0.008   1.500   0.138
   25SOL    HW2   98  -0.006   1.654   0.192
   26SOL     OW   99   1.689   0.922   0.612
   26SOL    HW1  100   1.784   0.893   0.620
   26SOL    HW2  101   1.681   0.987   0.537
   27SOL     OW  102   1.641   1.108   0.432
   27SOL    HW1  103   1.727   1.110   0.380
   27SOL    HW2  104   1.655   1.155   0.520
   28SOL     OW  105   0.113   0.737   1.597
   28SOL    HW1  106   0.201   0.724   1.642
   28SOL    HW2  107   0.100   0.834   1.575
   29SOL     OW  108   0.613   1.365   0.726
   29SOL    HW1  109   0.564   1.278   0.735
   29SOL    HW2  110   0.590   1.408   0.639
   30SOL     OW  111   1.293   1.228   1.423
   30SOL    HW1  112   1.330   1.155   1.365
   30SOL    HW2  113   1.345   1.233   1.508
   31SOL     OW  114   0.809   0.004   0.502
   31SOL    HW1  115   0.849   0.095   0.493
   31SOL    HW2  116   0.709   0.012   0.508
   32SOL     OW  117   0.197   0.976   1.264
   32SOL    HW1  118   0.286   0.931   1.250
   32SOL    HW2  119   0.124   0.911   1.245
   33SOL     OW  120   1.525   0.999   0.190
   33SOL    HW1  121   1.462   0.923   0.203
   33SOL    HW2  122   1.573   1.017   0.276
   34SOL     OW  123   0.317   0.251   1.801
   34SOL    HW1  124   0.388   0.322   1.807
   34SOL    HW2  125   0.229   0.290   1.829
   35SOL     OW  126   1.466   1.417   0.953
   35SOL    HW1  127   1.407   1.423   1.033
   35SOL    HW2  128   1.451   1.329   0.907
   36SOL     OW  129   1.667   1.714   0.572
   36SOL    HW1  130   1.626   1.691   0.484
   36SOL    HW2  131   1.649   1.640   0.637
   37SOL     OW  132   0.598   0.729   0.270
   37SOL    HW1  133   0.622   0.798   0.202
   37SOL    HW2  134   0.520   0.762   0.324
   38SOL     OW  135   1.281   0.345   0.944
   38SOL    HW1  136   1.195   0.295   0.931
   38SOL    HW2  137   1.343   0.291   1.000
   39SOL     OW  138   1.576   1.662   0.307
   39SOL    HW1  139   1.665   1.708   0.310
   39SOL    HW2  140   1.555   1.638   0.212
   40SOL     OW  141   0.807   0.605   1.465
   40SOL    HW1  142   0.760   0.602   1.554
   40SOL    HW2  143   0.756   0.550   1.399
   41SOL     OW  144   1.394   0.469   1.674
   41SOL    HW1  145   1.374   0.512   1.762
   41SOL    HW2  146   1.472   0.407   1.683
   42SOL     OW  147   0.973   0.890   1.572
   42SOL    HW1  148   1.019   0.806   1.543
   42SOL    HW2  149   0.917   0.924   1.497
   43SOL     OW  150   0.991   0.410   1.242
   43SOL    HW1  151   0.914   0.444   1.296
   43SOL    HW2  152   0.957   0.359   1.163
   44SOL     OW  153   1.041   0.701   0.429
   44SOL    HW1  154   1.067   0.697   0.525
   44SOL    HW2  155   0.956   0.650   0.415
   45SOL     OW  156   0.076   0.811   0.789
   45SOL    HW1  157   0.175   0.799   0.798
   45SOL    HW2  158   0.052   0.906   0.810
   46SOL     OW  159   0.130   1.821   1.571
   46SOL    HW1  160   0.120   1.806   1.670
   46SOL    HW2  161   0.044   1.857   1.535
   47SOL     OW  162   0.865   0.348   0.195
   47SOL    HW1  163   0.924   0.411   0.146
   47SOL    HW2  164   0.884   0.254   0.166
   48SOL     OW  165   1.719   0.585   1.831
   48SOL    HW1  166   1.693   0.674   1.795
   48SOL    HW2  167   1.717   0.517   1.758
   49SOL     OW  168   1.362   1.144   0.545
   49SOL    HW1  169   1.445   1.115   0.497
   49SOL    HW2  170   1.313   1.211   0.489
   50SOL     OW  171   0.550   0.196   0.885
   50SOL    HW1  172   0.545   0.191   0.985
   50SOL    HW2  173   0.552   0.292   0.856
   51SOL     OW  174   1.008   1.456   0.477
   51SOL    HW1  175   0.962   1.528   0.425
   51SOL    HW2  176   1.004   1.476   0.575
   52SOL     OW  177   0.351   1.801   0.853
   52SOL    HW1  178   0.401   1.715   0.859
   52SOL    HW2  179   0.416   1.878   0.850
   53SOL     OW  180   1.795   1.066   0.873
   53SOL    HW1  181   1.733   1.051   0.797
   53SOL    HW2  182   1.743   1.077   0.958
   54SOL     OW  183   0.321   0.943   0.242
   54SOL    HW1  184   0.403   0.982   0.200
   54SOL    HW2  185   0.294   0.861   0.193
   55SOL     OW  186   1.458   0.735   0.728
   55SOL    HW1  187   1.453   0.670   0.803
   55SOL    HW2  188   1.538   0.794   0.741
   56SOL     OW  189   0.461   1.266   1.727
   56SOL    HW1  190   0.411   1.267   1.641
   56SOL    HW2  191   0.398   1.248   1.803
   57SOL     OW  192   1.111   1.776   0.237
   57SOL    HW1  193   1.051   1.714   0.287
   57SOL    HW2  194   1.142   1.732   0.152
   58SOL     OW  195   0.202   0.285   1.498
   58SOL    HW1  196   0.122   0.345   1.485
   58SOL    HW2  197   0.192   0.236   1.584
   59SOL     OW  198   1.632   1.377   0.081
   59SOL    HW1  199   1.600   1.471   0.071
   59SOL    HW2  200   1.556   1.314   0.069
   60SOL     OW  201   0.464   1.743   0.323
   60SOL    HW1  202   0.497   1.782   0.409
   60SOL    HW2  203   0.540   1.736   0.258
   61SOL     OW  204   1.400   0.107   0.426
   61SOL    HW1  205   1.376   0.070   0.336
   61SOL    HW2  206   1.499   0.123   0.430
   62SOL     OW  207   0.249   1.785   1.241
   62SOL    HW1  208   0.306   1.720   1.291
   62SOL    HW2  209   0.233   1.752   1.148
   63SOL     OW  210   0.940   1.698   0.904
   63SOL    HW1  211   1.020   1.641   0.925
   63SOL    HW2  212   0.891   1.658   0.827
   64SOL     OW  213   0.382   0.700   0.480
   64SOL    HW1  214   0.427   0.610   0.477
   64SOL    HW2  215   0.288   0.689   0.513
   65SOL     OW  216   1.547   0.222   1.729
   65SOL    HW1  217   1.542   0.259   1.821
   65SOL    HW2  218   1.475   0.153   1.717
   66SOL     OW  219   0.614   0.122   0.117
   66SOL    HW1  220   0.712   0.100   0.124
   66SOL    HW2  221   0.583   0.105   0.024
   67SOL     OW  222   0.781   0.264   1.749
   67SOL    HW1  223   0.848   0.203   1.792
   67SOL    HW2  224   0.708   0.283   1.814
   68SOL     OW  225   0.888   1.514   1.195
   68SOL    HW1  226   0.865   1.489   1.101
   68SOL    HW2  227   0.949   1.445   1.234
   69SOL     OW  228   1.351   0.590   1.433
   69SOL    HW1  229   1.379   0.547   1.518
   69SOL    HW2  230   1.376   0.686   1.434
   70SOL     OW  231   0.803   1.402   0.924
   70SOL    HW1  232   0.893   1.416   0.882
   70SOL    HW2  233   0.732   1.404   0.853
   71SOL     OW  234   0.922   0.503   0.899
   71SOL    HW1  235   0.897   0.494   0.803
   71SOL    HW2  236   0.970   0.421   0.930
   72SOL     OW  237   0.539   0.064   0.512
   72SOL    HW1  238   0.458   0.065   0.570
   72SOL    HW2  239   0.542   0.147   0.457
   73SOL     OW  240   1.434   1.188   0.041
   73SOL    HW1  241   1.466   1.112   0.098
   73SOL    HW2  242   1.342   1.215   0.071
   74SOL     OW  243   0.297   0.035   0.171
   74SOL    HW1  244   0.346   0.119   0.150
   74SOL    HW2  245   0.359  -0.030   0.216
   75SOL     OW  246   0.935   0.236   0.480
   75SOL    HW1  247   0.887   0.277   0.402
   75SOL    HW2  248   1.034   0.234   0.461
   76SOL     OW  249   1.076   0.683   1.464
   76SOL    HW1  250   0.996   0.622   1.467
   76SOL    HW2  251   1.157   0.630   1.440
   77SOL     OW  252   1.227   1.570   0.793
   77SOL    HW1  253   1.248   1.644   0.728
   77SOL    HW2  254   1.295   1.570   0.866
   78SOL     OW  255   0.459   1.152   0.741
   78SOL    HW1  256   0.388   1.125   0.806
   78SOL    HW2  257   0.433   1.124   0.648
   79SOL     OW  258   1.271   1.797   0.591
   79SOL    HW1  259   1.315   1.861   0.527
   79SOL    HW2  260   1.221   1.849   0.661
   80SOL     OW  261   1.032   0.549   0.016
   80SOL    HW1  262   0.991   0.631  -0.023
   80SOL    HW2  263   1.096   0.575   0.089
   81SOL     OW  264   0.078   0.556   1.386
   81SOL    HW1  265   0.170   0.555   1.345
   81SOL    HW2  266   0.072   0.630   1.453
   82SOL     OW  267   0.561   0.222   1.147
   82SOL    HW1  268   0.599   0.138   1.184
   82SOL    HW2  269   0.473   0.241   1.191
   83SOL     OW  270   0.866   0.454   0.642
   83SOL    HW1  271   0.834   0.526   0.580
   83SOL    HW2  272   0.890   0.373   0.589
   84SOL     OW  273   1.017   0.039   0.753
   84SOL    HW1  274   0.945   0.044   0.684
   84SOL    HW2  275   0.993  -0.030   0.822
   85SOL     OW  276   1.429   1.173   0.867
   85SOL    HW1  277   1.374   1.089   0.860
   85SOL    HW2  278   1.455   1.202   0.775
   86SOL     OW  279   1.466   0.590   0.992
   86SOL    HW1  280   1.436   0.495   0.999
   86SOL    HW2  281   1.539   0.606   1.058
   87SOL     OW  282   1.857   0.833   0.377
   87SOL    HW1  283   1.899   0.769   0.441
   87SOL    HW2  284   1.819   0.782   0.299
   88SOL     OW  285   0.488   1.385   0.174
   88SOL    HW1  286   0.401   1.370   0.221
   88SOL    HW2  287   0.471   1.411   0.079
   89SOL     OW  288   1.664   1.280   0.657
   89SOL    HW1  289   1.763   1.288   0.671
   89SOL    HW2  290   1.619   1.364   0.688
   90SOL     OW  291   1.390   0.575   0.078
   90SOL    HW1  292   1.336   0.554   0.159
   90SOL    HW2  293   1.481   0.534   0.087
   91SOL     OW  294   0.527   0.256   0.328
   91SOL    HW1  295   0.554   0.197   0.253
   91SOL    HW2  296   0.527   0.351   0.297
   92SOL     OW  297   1.064   1.347   1.340
   92SOL    HW1  298   0.984   1.324   1.395
   92SOL    HW2  299   1.147   1.321   1.389
   93SOL     OW  300   1.592   1.629   1.625
   93SOL    HW1  301   1.619   1.663   1.535
   93SOL    HW2  302   1.671   1.591   1.671
   94SOL     OW  303   1.111   1.195   1.100
   94SOL    HW1  304   1.071   1.239   1.181
   94SOL    HW2  305   1.070   1.232   1.017
   95SOL     OW  306   1.638   1.099   1.079
   95SOL    HW1  307   1.643   1.180   1.138
   95SOL    HW2  308   1.552   1.101   1.028
   96SOL     OW  309   0.915   0.089   1.402
   96SOL    HW1  310   0.940   0.069   1.307
   96SOL    HW2  311   0.987   0.145   1.444
   97SOL     OW  312   0.980   1.116   1.719
   97SOL    HW1  313   0.881   1.122   1.729
   97SOL    HW2  314   1.003   1.036   1.663
   98SOL     OW  315   0.705   1.050   0.368
   98SOL    HW1  316   0.691   1.057   0.467
   98SOL    HW2  317   0.789   0.999   0.350
   99SOL     OW  318   0.410   0.813   1.251
   99SOL    HW1  319   0.496   0.825   1.301
   99SOL    HW2  320   0.368   0.726   1.278
  100SOL     OW  321   1.274   0.386   1.262
  100SOL    HW1  322   1.295   0.460   1.326
  100SOL    HW2  323   1.185   0.403   1.219
  101SOL     OW  324   0.064   1.564   1.331
  101SOL    HW1  325   0.018   1.646   1.297
  101SOL    HW2  326   0.162   1.583   1.340
  102SOL     OW  327   0.367   1.100   0.501
  102SOL    HW1  328   0.360   1.183   0.445
  102SOL    HW2  329   0.371   1.020   0.441
  103SOL     OW  330   0.566   0.537   0.865
  103SOL    HW1  331   0.578   0.603   0.791
  103SOL    HW2  332   0.612   0.571   0.948
  104SOL     OW  333   1.252   1.348   0.388
  104SOL    HW1  334   1.302   1.425   0.428
  104SOL    HW2  335   1.157   1.350   0.420
  105SOL     OW  336   1.582   0.639   0.472
  105SOL    HW1  337   1.551   0.700   0.545
  105SOL    HW2  338   1.632   0.691   0.403
  106SOL     OW  339   0.354   1.510   1.329
  106SOL    HW1  340   0.333   1.466   1.242
  106SOL    HW2  341   0.451   1.536   1.332
  107SOL     OW  342   0.402   0.751   1.598
  107SOL    HW1  343   0.470   0.806   1.551
  107SOL    HW2  344   0.442   0.663   1.625
  108SOL     OW  345   1.587   0.779   1.670
  108SOL    HW1  346   1.495   0.817   1.665
  108SOL    HW2  347   1.647   0.826   1.605
  109SOL     OW  348   1.013   0.105   1.770
  109SOL    HW1  349   1.019   0.190   1.718
  109SOL    HW2  350   1.045   0.029   1.713
  110SOL     OW  351   0.504   0.050   1.740
  110SOL    HW1  352   0.462  -0.007   1.670
  110SOL    HW2  353   0.438   0.119   1.772
  111SOL     OW  354   0.573   0.870   1.029
  111SOL    HW1  355   0.617   0.959   1.020
  111SOL    HW2  356   0.510   0.870   1.106
  112SOL     OW  357   1.360   0.862   1.045
  112SOL    HW1  358   1.285   0.862   0.979
  112SOL    HW2  359   1.397   0.770   1.054
  113SOL     OW  360   1.209   0.525   0.275
  113SOL    HW1  361   1.222   0.441   0.329
  113SOL    HW2  362   1.180   0.599   0.335
  114SOL     OW  363   0.307   0.213   1.231
  114SOL    HW1  364   0.284   0.250   1.321
  114SOL    HW2  365   0.277   0.118   1.225
  115SOL     OW  366   0.037   1.310   1.282
  115SOL    HW1  367   0.090   1.261   1.350
  115SOL    HW2  368   0.059   1.408   1.287
  116SOL     OW  369   0.732   0.634   1.064
  116SOL    HW1  370   0.791   0.608   0.988
  116SOL    HW2  371   0.704   0.730   1.053
  117SOL     OW  372   1.728   0.935   1.854
  117SOL    HW1  373   1.682   0.928   1.765
  117SOL    HW2  374   1.666   0.979   1.920
  118SOL     OW  375   0.307   0.063   0.618
  118SOL    HW1  376   0.296   0.157   0.651
  118SOL    HW2  377   0.302   0.000   0.695
  119SOL     OW  378   1.622   0.367   0.374
  119SOL    HW1  379   1.624   0.291   0.438
  119SOL    HW2  380   1.574   0.444   0.414
  120SOL     OW  381   1.023   0.766   0.966
  120SOL    HW1  382   1.038   0.787   1.062
  120SOL    HW2  383   0.993   0.671   0.957
  121SOL     OW  384   0.980   1.573   1.700
  121SOL    HW1  385   0.960   1.617   1.612
  121SOL    HW2  386   1.019   1.482   1.684
  122SOL     OW  387   1.859   1.518   1.605
  122SOL    HW1  388   1.873   1.545   1.510
  122SOL    HW2  389   1.942   1.540   1.658
  123SOL     OW  390   0.350   0.898   1.804
  123SOL    HW1  391   0.426   0.942   1.852
  123SOL    HW2  392   0.385   0.851   1.722
  124SOL     OW  393   1.540   0.274   0.125
  124SOL    HW1  394   1.479   0.199   0.148
  124SOL    HW2  395   1.562   0.326   0.208
  125SOL     OW  396   1.303   0.838   0.042
  125SOL    HW1  397   1.337   0.745   0.057
  125SOL    HW2  398   1.321   0.865  -0.053
  126SOL     OW  399   1.068   1.333   0.849
  126SOL    HW1  400   1.075   1.249   0.794
  126SOL    HW2  401   1.130   1.402   0.813
  127SOL     OW  402   0.319   0.810   0.949
  127SOL    HW1  403   0.412   0.846   0.954
  127SOL    HW2  404   0.313   0.725   1.001
  128SOL     OW  405   0.339   0.509   1.006
  128SOL    HW1  406   0.287   0.426   0.989
  128SOL    HW2  407   0.416   0.514   0.942
  129SOL     OW  408   1.138   0.380   1.678
  129SOL    HW1  409   1.093   0.443   1.742
  129SOL    HW2  410   1.231   0.411   1.661
  130SOL     OW  411   1.160   0.207   1.477
  130SOL    HW1  412   1.160   0.271   1.554
  130SOL    HW2  413   1.188   0.255   1.394
  131SOL     OW  414   0.008   1.326   0.200
  131SOL    HW1  415  -0.085   1.347   0.169
  131SOL    HW2  416   0.018   1.227   0.213
  132SOL     OW  417   0.088   1.801   0.927
  132SOL    HW1  418   0.046   1.715   0.900
  132SOL    HW2  419   0.182   1.804   0.893
  133SOL     OW  420   0.504   1.568   0.910
  133SOL    HW1  421   0.570   1.642   0.919
  133SOL    HW2  422   0.548   1.489   0.868
  134SOL     OW  423   1.002   0.796   1.238
  134SOL    HW1  424   1.043   0.764   1.324
  134SOL    HW2  425   0.906   0.769   1.235
  135SOL     OW  426   0.040   0.544   1.114
  135SOL    HW1  427   0.125   0.511   1.073
  135SOL    HW2  428   0.053   0.559   1.212
  136SOL     OW  429   0.189   0.520   1.722
  136SOL    HW1  430   0.248   0.480   1.652
  136SOL    HW2  431   0.131   0.591   1.681
  137SOL     OW  432   1.369   0.950   1.660
  137SOL    HW1  433   1.408   1.039   1.680
  137SOL    HW2  434   1.379   0.930   1.563
  138SOL     OW  435   0.815   0.572   0.325
  138SOL    HW1  436   0.822   0.483   0.279
  138SOL    HW2  437   0.721   0.606   0.317
  139SOL     OW  438   1.657   0.604   1.206
  139SOL    HW1  439   1.619   0.535   1.268
  139SOL    HW2  440   1.739   0.568   1.162
  140SOL     OW  441   0.252   1.564   1.744
  140SOL    HW1  442   0.222   1.621   1.820
  140SOL    HW2  443   0.245   1.467   1.770
  141SOL     OW  444   0.671   0.464   1.269
  141SOL    HW1  445   0.637   0.375   1.239
  141SOL    HW2  446   0.697   0.518   1.189
  142SOL     OW  447   0.930   1.678   1.465
  142SOL    HW1  448   0.906   1.660   1.370
  142SOL    HW2  449   0.960   1.772   1.475
  143SOL     OW  450   0.473   0.500   0.191
  143SOL    HW1  451   0.534   0.580   0.195
  143SOL    HW2  452   0.378   0.531   0.198
  144SOL     OW  453   0.159   1.137   1.466
  144SOL    HW1  454   0.181   1.076   1.542
  144SOL    HW2  455   0.169   1.088   1.380
  145SOL     OW  456   1.347   1.059   1.234
  145SOL    HW1  457   1.371   0.996   1.160
  145SOL    HW2  458   1.257   1.099   1.216
  146SOL     OW  459   1.302   0.855   0.309
  146SOL    HW1  460   1.216   0.824   0.351
  146SOL    HW2  461   1.298   0.841   0.210
  147SOL     OW  462   1.759   1.747   1.154
  147SOL    HW1  463   1.820   1.777   1.081
  147SOL    HW2  464   1.721   1.658   1.132
  148SOL     OW  465   0.083   1.258   1.022
  148SOL    HW1  466   0.078   1.257   1.122
  148SOL    HW2  467   0.000   1.217   0.984
  149SOL     OW  468   0.688   1.662   1.716
  149SOL    HW1  469   0.632   1.743   1.725
  149SOL    HW2  470   0.740   1.666   1.630
  150SOL     OW  471   0.903   0.086   0.133
  150SOL    HW1  472   0.954   0.087   0.047
  150SOL    HW2  473   0.959   0.044   0.204
  151SOL     OW  474   1.726   0.135   0.523
  151SOL    HW1  475   1.799   0.118   0.456
  151SOL    HW2  476   1.695   0.048   0.561
  152SOL     OW  477   1.388   1.573   0.477
  152SOL    HW1  478   1.455   1.585   0.403
  152SOL    HW2  479   1.348   1.662   0.500
  153SOL     OW  480   0.130   1.794   1.851
  153SOL    HW1  481   0.089   1.720   1.904
  153SOL    HW2  482   0.194   1.845   1.909
  154SOL     OW  483   1.280   0.927   0.672
  154SOL    HW1  484   1.340   0.846   0.674
  154SOL    HW2  485   1.320   0.996   0.612
  155SOL     OW  486   0.830   1.273   1.422
  155SOL    HW1  487   0.825   1.306   1.517
  155SOL    HW2  488   0.744   1.292   1.376
  156SOL     OW  489   0.672   1.616   0.154
  156SOL    HW1  490   0.681   1.626   0.055
  156SOL    HW2  491   0.632   1.527   0.175
  157SOL     OW  492   1.650   1.720   1.394
  157SOL    HW1  493   1.703   1.730   1.310
  157SOL    HW2  494   1.623   1.810   1.428
  158SOL     OW  495   1.841   0.175   0.963
  158SOL    HW1  496   1.880   0.090   0.927
  158SOL    HW2  497   1.743   0.177   0.944
  159SOL     OW  498   0.263   0.326   0.720
  159SOL    HW1  499   0.184   0.377   0.686
  159SOL    HW2  500   0.254   0.311   0.818
  160SOL     OW  501   1.194   1.612   0.031
  160SOL    HW1  502   1.200   1.519   0.068
  160SOL    HW2  503   1.135   1.612  -0.049
  161SOL     OW  504   0.822   1.002   1.372
  161SOL    HW1  505   0.862   1.001   1.280
  161SOL    HW2  506   0.832   1.094   1.412
  162SOL     OW  507   0.916   0.910   0.291
  162SOL    HW1  508   0.979   0.948   0.223
  162SOL    HW2  509   0.956   0.827   0.330
  163SOL     OW  510   1.504   1.607   0.044
  163SOL    HW1  511   1.412   1.644   0.051
  163SOL    HW2  512   1.542   1.627  -0.046
  164SOL     OW  513   0.372   1.288   1.490
  164SOL    HW1  514   0.359   1.381   1.456
  164SOL    HW2  515   0.288   1.236   1.477
  165SOL     OW  516   1.039   1.098   0.696
  165SOL    HW1  517   0.969   1.051   0.750
  165SOL    HW2  518   1.098   1.030   0.653
  166SOL     OW  519   1.014   0.236   0.971
  166SOL    HW1  520   1.006   0.200   0.878
  166SOL    HW2  521   1.012   0.160   1.036
  167SOL     OW  522   0.590   1.487   0.491
  167SOL    HW1  523   0.632   1.429   0.421
  167SOL    HW2  524   0.546   1.566   0.447
  168SOL     OW  525   1.709   0.385   1.381
  168SOL    HW1  526   1.782   0.454   1.385
  168SOL    HW2  527   1.737   0.310   1.322
  169SOL     OW  528   0.255   1.348   0.290
  169SOL    HW1  529   0.159   1.349   0.263
  169SOL    HW2  530   0.267   1.401   0.374
  170SOL     OW  531   0.105   1.013   1.726
  170SOL    HW1  532   0.028   0.980   1.780
  170SOL    HW2  533   0.190   0.983   1.768
  171SOL     OW  534   0.672   0.203   1.489
  171SOL    HW1  535   0.762   0.187   1.449
  171SOL    HW2  536   0.680   0.208   1.588
  172SOL     OW  537   0.075   0.345   0.033
  172SOL    HW1  538  -0.017   0.317   0.004
  172SOL    HW2  539   0.106   0.422  -0.023
  173SOL     OW  540   1.440   0.856   1.398
  173SOL    HW1  541   1.383   0.908   1.335
  173SOL    HW2  542   1.536   0.868   1.374
  174SOL     OW  543   0.072   0.166   0.318
  174SOL    HW1  544   0.055   0.249   0.264
  174SOL    HW2  545   0.162   0.129   0.296
  175SOL     OW  546   1.183   1.335   0.119
  175SOL    HW1  547   1.084   1.324   0.121
  175SOL    HW2  548   1.217   1.350   0.212
  176SOL     OW  549   0.613   0.842   1.431
  176SOL    HW1  550   0.669   0.923   1.414
  176SOL    HW2  551   0.672   0.762   1.434
  177SOL     OW  552   1.493   1.767   0.959
  177SOL    HW1  553   1.526   1.831   0.890
  177SOL    HW2  554   1.559   1.761   1.034
  178SOL     OW  555   0.716   0.565   1.708
  178SOL    HW1  556   0.735   0.630   1.782
  178SOL    HW2  557   0.776   0.485   1.717
  179SOL     OW  558   0.390   1.741   1.560
  179SOL    HW1  559   0.299   1.782   1.558
  179SOL    HW2  560   0.383   1.647   1.592
  180SOL     OW  561   1.674   0.883   1.254
  180SOL    HW1  562   1.647   0.794   1.217
  180SOL    HW2  563   1.675   0.951   1.181
  181SOL     OW  564   1.225   0.325   0.449
  181SOL    HW1  565   1.290   0.251   0.438
  181SOL    HW2  566   1.245   0.375   0.533
  182SOL     OW  567   0.594   0.745   0.652
  182SOL    HW1  568   0.644   0.830   0.633
  182SOL    HW2  569   0.506   0.747   0.604
  183SOL     OW  570   1.777   0.342   1.642
  183SOL    HW1  571   1.760   0.373   1.548
  183SOL    HW2  572   1.693   0.305   1.680
  184SOL     OW  573   0.859   1.374   0.016
  184SOL    HW1  574   0.813   1.389   0.104
  184SOL    HW2  575   0.903   1.459  -0.014
  185SOL     OW  576   0.661   1.790   0.953
  185SOL    HW1  577   0.615   1.878   0.940
  185SOL    HW2  578   0.760   1.802   0.946
  186SOL     OW  579   0.859   0.956   0.861
  186SOL    HW1  580   0.913   0.887   0.909
  186SOL    HW2  581   0.827   1.025   0.927
  187SOL     OW  582   1.083   0.984   0.087
  187SOL    HW1  583   1.060   1.037   0.005
  187SOL    HW2  584   1.164   0.928   0.068
  188SOL     OW  585   1.861   1.569   0.851
  188SOL    HW1  586   1.790   1.557   0.781
  188SOL    HW2  587   1.862   1.490   0.911
  189SOL     OW  588   0.221   1.314   1.844
  189SOL    HW1  589   0.156   1.241   1.823
  189SOL    HW2  590   0.225   1.328   1.942
  190SOL     OW  591   0.079   1.240   0.653
  190SOL    HW1  592   0.078   1.193   0.741
  190SOL    HW2  593   0.161   1.212   0.602
  191SOL     OW  594   0.672   1.391   1.624
  191SOL    HW1  595   0.594   1.341   1.662
  191SOL    HW2  596   0.669   1.486   1.655
  192SOL     OW  597   1.824   0.192   1.227
  192SOL    HW1  598   1.820   0.102   1.271
  192SOL    HW2  599   1.827   0.181   1.128
  193SOL     OW  600   0.428   0.424   0.520
  193SOL    HW1  601   0.458   0.352   0.458
  193SOL    HW2  602   0.389   0.384   0.603
  194SOL     OW  603   1.705   1.487   1.104
  194SOL    HW1  604   1.612   1.462   1.077
  194SOL    HW2  605   1.731   1.437   1.186
  195SOL     OW  606   0.317   0.547   1.280
  195SOL    HW1  607   0.355   0.488   1.352
  195SOL    HW2  608   0.357   0.521   1.192
  196SOL     OW  609   0.812   1.586   0.687
  196SOL    HW1  610   0.844   1.596   0.593
  196SOL    HW2  611   0.733   1.524   0.689
  197SOL     OW  612   1.424   0.214   1.112
  197SOL    HW1  613   1.476   0.149   1.167
  197SOL    HW2  614   1.375   0.277   1.173
  198SOL     OW  615   1.001   0.034   1.154
  198SOL    HW1  616   0.938  -0.038   1.123
  198SOL    HW2  617   1.094  -0.002   1.154
  199SOL     OW  618   0.770   1.330   0.301
  199SOL    HW1  619   0.724   1.243   0.318
  199SOL    HW2  620   0.861   1.327   0.342
  200SOL     OW  621   0.618   1.567   1.284
  200SOL    HW1  622   0.613   1.649   1.341
  200SOL    HW2  623   0.707   1.564   1.239
  201SOL     OW  624   1.352   0.052   0.168
  201SOL    HW1  625   1.387   0.011   0.084
  201SOL    HW2  626   1.262   0.014   0.188
  202SOL     OW  627   1.300   0.453   0.691
  202SOL    HW1  628   1.241   0.533   0.695
  202SOL    HW2  629   1.315   0.418   0.784
  203SOL     OW  630   1.593   0.221   0.882
  203SOL    HW1  631   1.509   0.220   0.936
  203SOL    HW2  632   1.595   0.304   0.826
  204SOL     OW  633   0.039   1.077   0.300
  204SOL    HW1  634   0.138   1.066   0.291
  204SOL    HW2  635  -0.001   0.991   0.332
  205SOL     OW  636   0.875   1.646   0.337
  205SOL    HW1  637   0.798   1.611   0.283
  205SOL    HW2  638   0.843   1.717   0.399
  206SOL     OW  639   0.230   0.628   1.975
  206SOL    HW1  640   0.137   0.626   2.012
  206SOL    HW2  641   0.231   0.589   1.883
  207SOL     OW  642   0.019   0.368   2.509
  207SOL    HW1  643  -0.063   0.411   2.548
  207SOL    HW2  644  -0.009   0.295   2.446
  208SOL     OW  645   1.555   1.511   2.565
  208SOL    HW1  646   1.498   1.495   2.646
  208SOL    HW2  647   1.496   1.521   2.485
  209SOL     OW  648   1.135   0.703   2.579
  209SOL    HW1  649   1.192   0.781   2.554
  209SOL    HW2  650   1.075   0.729   2.655
  210SOL     OW  651   1.755   0.607   2.093
  210SOL    HW1  652   1.743   0.594   1.994
  210SOL    HW2  653   1.725   0.526   2.142
  211SOL     OW  654   0.768   1.144   2.885
  211SOL    HW1  655   0.690   1.161   2.945
  211SOL    HW2  656   0.802   1.231   2.849
  212SOL     OW  657   0.685   1.012   2.527
  212SOL    HW1  658   0.754   0.996   2.597
  212SOL    HW2  659   0.612   1.069   2.565
  213SOL     OW  660   1.603   0.447   2.599
  213SOL    HW1  661   1.529   0.493   2.549
  213SOL    HW2  662   1.654   0.515   2.652
  214SOL     OW  663   0.231   1.713   2.345
  214SOL    HW1  664   0.265   1.790   2.399
  214SOL    HW2  665   0.275   1.713   2.255
  215SOL     OW  666   0.230   1.434   2.400
  215SOL    HW1  667   0.204   1.530   2.400
  215SOL    HW2  668   0.159   1.380   2.445
  216SOL     OW  669   0.240   1.091   2.748
  216SOL    HW1  670   0.254   1.007   2.800
  216SOL    HW2  671   0.185   1.155   2.803
  217SOL     OW  672   0.606   0.964   1.985
  217SOL    HW1  673   0.613   1.048   1.931
  217SOL    HW2  674   0.652   0.977   2.073
  218SOL     OW  675   0.122   0.643   2.425
  218SOL    HW1  676   0.077   0.555   2.442
  218SOL    HW2  677   0.121   0.697   2.509
  219SOL     OW  678   1.842   1.767   2.221
  219SOL    HW1  679   1.896   1.738   2.301
  219SOL    HW2  680   1.872   1.857   2.192
  220SOL     OW  681   0.027   1.596   1.979
  220SOL    HW1  682   0.008   1.500   2.000
  220SOL    HW2  683  -0.006   1.654   2.054
  221SOL     OW  684   1.689   0.922   2.474
  221SOL    HW1  685   1.784   0.893   2.482
  221SOL    HW2  686   1.681   0.987   2.399
  222SOL     OW  687   1.641   1.108   2.294
  222SOL    HW1  688   1.727   1.110   2.242
  222SOL    HW2  689   1.655   1.155   2.382
  223SOL     OW  690   0.613   1.365   2.588
  223SOL    HW1  691   0.564   1.278   2.597
  223SOL    HW2  692   0.590   1.408   2.501
  224SOL     OW  693   0.809   0.004   2.364
  224SOL    HW1  694   0.849   0.095   2.355
  224SOL    HW2  695   0.709   0.012   2.370
  225SOL     OW  696   1.525   0.999   2.052
  225SOL    HW1  697   1.462   0.923   2.065
  225SOL    HW2  698   1.573   1.017   2.138
  226SOL     OW  699   1.466   1.417   2.815
  226SOL    HW1  700   1.407   1.423   2.895
  226SOL    HW2  701   1.451   1.329   2.769
  227SOL     OW  702   1.667   1.714   2.434
  227SOL    HW1  703   1.626   1.691   2.346
  227SOL    HW2  704   1.649   1.640   2.499
  228SOL     OW  705   0.598   0.729   2.132
  228SOL    HW1  706   0.622   0.798   2.064
  228SOL    HW2  707   0.520   0.762   2.186
  229SOL     OW  708   1.281   0.345   2.806
  229SOL    HW1  709   1.195   0.295   2.793
  229SOL    HW2  710   1.343   0.291   2.862
  230SOL     OW  711   1.576   1.662   2.169
  230SOL    HW1  712   1.665   1.708   2.172
  230SOL    HW2  713   1.555   1.638   2.074
  231SOL     OW  714   1.041   0.701   2.291
  231SOL    HW1  715   1.067   0.697   2.387
  231SOL    HW2  716   0.956   0.650   2.277
  232SOL     OW  717   0.076   0.811   2.651
  232SOL    HW1  718   0.175   0.799   2.660
  232SOL    HW2  719   0.052   0.906   2.672
  233SOL     OW  720   0.865   0.348   2.057
  233SOL    HW1  721   0.924   0.411   2.008
  233SOL    HW2  722   0.884   0.254   2.028
  234SOL     OW  723   1.362   1.144   2.407
  234SOL    HW1  724   1.445   1.115   2.359
  234SOL    HW2  725   1.313   1.211   2.351
  235SOL     OW  726   1.008   1.456   2.339
  235SOL    HW1  727   0.962   1.528   2.287
  235SOL    HW2  728   1.004   1.476   2.437
  236SOL     OW  729   0.351   1.801   2.715
  236SOL    HW1  730   0.401   1.715   2.721
  236SOL    HW2  731   0.416   1.878   2.712
  237SOL     OW  732   1.795   1.066   2.735
  237SOL    HW1  733   1.733   1.051   2.659
  237SOL    HW2  734   1.743   1.077   2.820
  238SOL     OW  735   0.321   0.943   2.104
  238SOL    HW1  736   0.403   0.982   2.062
  238SOL    HW2  737   0.294   0.861   2.055
  239SOL     OW  738   1.458   0.735   2.590
  239SOL    HW1  739   1.453   0.670   2.665
  239SOL    HW2  740   1.538   0.794   2.603
  240SOL     OW  741   1.111   1.776   2.099
  240SOL    HW1  742   1.051   1.714   2.149
  240SOL    HW2  743   1.142   1.732   2.014
  241SOL     OW  744   1.632   1.377   1.943
  241SOL    HW1  745   1.600   1.471   1.933
  241SOL    HW2  746   1.556   1.314   1.931
  242SOL     OW  747   0.464   1.743   2.185
  242SOL    HW1  748   0.497   1.782   2.271
  242SOL    HW2  749   0.540   1.736   2.120
  243SOL     OW  750   1.400   0.107   2.288
  243SOL    HW1  751   1.376   0.070   2.198
  243SOL    HW2  752   1.499   0.123   2.292
  244SOL     OW  753   0.382   0.700   2.342
  244SOL    HW1  754   0.427   0.610   2.339
  244SOL    HW2  755   0.288   0.689   2.375
  245SOL     OW  756   0.614   0.122   1.979
  245SOL    HW1  757   0.712   0.100   1.986
  245SOL    HW2  758   0.583   0.105   1.886
  246SOL     OW  759   0.922   0.503   2.761
  246SOL    HW1  760   0.897   0.494   2.665
  246SOL    HW2  761   0.970   0.421   2.792
  247SOL     OW  762   0.539   0.064   2.374
  247SOL    HW1  763   0.458   0.065   2.432
  247SOL    HW2  764   0.542   0.147   2.319
  248SOL     OW  765   1.434   1.188   1.903
  248SOL    HW1  766   1.466   1.112   1.960
  248SOL    HW2  767   1.342   1.215   1.933
  249SOL     OW  768   0.297   0.035   2.033
  249SOL    HW1  769   0.346   0.119   2.012
  249SOL    HW2  770   0.359  -0.030   2.078
  250SOL     OW  771   0.935   0.236   2.342
  250SOL    HW1  772   0.887   0.277   2.264
  250SOL    HW2  773   1.034   0.234   2.323
  251SOL     OW  774   1.227   1.570   2.655
  251SOL    HW1  775   1.248   1.644   2.590
  251SOL    HW2  776   1.295   1.570   2.728
  252SOL     OW  777   0.459   1.152   2.603
  252SOL    HW1  778   0.388   1.125   2.668
  252SOL    HW2  779   0.433   1.124   2.510
  253SOL     OW  780   1.271   1.797   2.453
  253SOL    HW1  781   1.315   1.861   2.389
  253SOL    HW2  782   1.221   1.849   2.523
  254SOL     OW  783   1.032   0.549   1.878
  254SOL    HW1  784   0.991   0.631   1.839
  254SOL    HW2  785   1.096   0.575   1.951
  255SOL     OW  786   0.866   0.454   2.504
  255SOL    HW1  787   0.834   0.526   2.442
  255SOL    HW2  788   0.890   0.373   2.451
  256SOL     OW  789   1.017   0.039   2.615
  256SOL    HW1  790   0.945   0.044   2.546
  256SOL    HW2  791   0.993  -0.030   2.684
  257SOL     OW  792   1.429   1.173   2.729
  257SOL    HW1  793   1.374   1.089   2.722
  257SOL    HW2  794   1.455   1.202   2.637
  258SOL     OW  795   1.857   0.833   2.239
  258SOL    HW1  796   1.899   0.769   2.303
  258SOL    HW2  797   1.819   0.782   2.161
  259SOL     OW  798   0.488   1.385   2.036
  259SOL    HW1  799   0.401   1.370   2.083
  259SOL    HW2  800   0.471   1.411   1.941
  260SOL     OW  801   1.664   1.280   2.519
  260SOL    HW1  802   1.763   1.288   2.533
  260SOL    HW2  803   1.619   1.364   2.550
  261SOL     OW  804   1.390   0.575   1.940
  261SOL    HW1  805   1.336   0.554   2.021
  261SOL    HW2  806   1.481   0.534   1.949
  262SOL     OW  807   0.527   0.256   2.190
  262SOL    HW1  808   0.554   0.197   2.115
  262SOL    HW2  809   0.527   0.351   2.159
  263SOL     OW  810   0.705   1.050   2.230
  263SOL    HW1  811   0.691   1.057   2.329
  263SOL    HW2  812   0.789   0.999   2.212
  264SOL     OW  813   0.367   1.100   2.363
  264SOL    HW1  814   0.360   1.183   2.307
  264SOL    HW2  815   0.371   1.020   2.303
  265SOL     OW  816   0.566   0.537   2.727
  265SOL    HW1  817   0.578   0.603   2.653
  265SOL    HW2  818   0.612   0.571   2.810
  266SOL     OW  819   1.252   1.348   2.250
  266SOL    HW1  820   1.302   1.425   2.290
  266SOL    HW2  821   1.157   1.350   2.282
  267SOL     OW  822   1.582   0.639   2.334
  267SOL    HW1  823   1.551   0.700   2.407
  267SOL    HW2  824   1.632   0.691   2.265
  268SOL     OW  825   1.209   0.525   2.137
  268SOL    HW1  826   1.222   0.441   2.191
  268SOL    HW2  827   1.180   0.599   2.197
  269SOL     OW  828   0.732   0.634   2.926
  269SOL    HW1  829   0.791   0.608   2.850
  269SOL    HW2  830   0.704   0.730   2.915
  270SOL     OW  831   0.307   0.063   2.480
  270SOL    HW1  832   0.296   0.157   2.513
  270SOL    HW2  833   0.302   0.000   2.557
  271SOL     OW  834   1.622   0.367   2.236
  271SOL    HW1  835   1.624   0.291   2.300
  271SOL    HW2  836   1.574   0.444   2.276
  272SOL     OW  837   1.540   0.274   1.987
  272SOL    HW1  838   1.479   0.199   2.010
  272SOL    HW2  839   1.562   0.326   2.070
  273SOL     OW  840   1.303   0.838   1.904
  273SOL    HW1  841   1.337   0.745   1.919
  273SOL    HW2  842   1.321   0.865   1.809
  274SOL     OW  843   1.068   1.333   2.711
  274SOL    HW1  844   1.075   1.249   2.656
  274SOL    HW2  845   1.130   1.402   2.675
  275SOL     OW  846   0.319   0.810   2.811
  275SOL    HW1  847   0.412   0.846   2.816
  275SOL    HW2  848   0.313   0.725   2.863
  276SOL     OW  849   0.008   1.326   2.062
  276SOL    HW1  850  -0.085   1.347   2.031
  276SOL    HW2  851   0.018   1.227   2.075
  277SOL     OW  852   0.088   1.801   2.789
  277SOL    HW1  853   0.046   1.715   2.762
  277SOL    HW2  854   0.182   1.804   2.755
  278SOL     OW  855   0.504   1.568   2.772
  278SOL    HW1  856   0.570   1.642   2.781
  278SOL    HW2  857   0.548   1.489   2.730
  279SOL     OW  858   0.815   0.572   2.187
  279SOL    HW1  859   0.822   0.483   2.141
  279SOL    HW2  860   0.721   0.606   2.179
  280SOL     OW  861   0.671   0.464   3.131
  280SOL    HW1  862   0.637   0.375   3.101
  280SOL    HW2  863   0.697   0.518   3.051
  281SOL     OW  864   0.473   0.500   2.053
  281SOL    HW1  865   0.534   0.580   2.057
  281SOL    HW2  866   0.378   0.531   2.060
  282SOL     OW  867   1.302   0.855   2.171
  282SOL    HW1  868   1.216   0.824   2.213
  282SOL    HW2  869   1.298   0.841   2.072
  283SOL     OW  870   1.759   1.747   3.016
  283SOL    HW1  871   1.820   1.777   2.943
  283SOL    HW2  872   1.721   1.658   2.994
  284SOL     OW  873   1.726   0.135   2.385
  284SOL    HW1  874   1.799   0.118   2.318
  284SOL    HW2  875   1.695   0.048   2.423
  285SOL     OW  876   1.388   1.573   2.339
  285SOL    HW1  877   1.455   1.585   2.265
  285SOL    HW2  878   1.348   1.662   2.362
  286SOL     OW  879   1.280   0.927   2.534
  286SOL    HW1  880   1.340   0.846   2.536
  286SOL    HW2  881   1.320   0.996   2.474
  287SOL     OW  882   0.672   1.616   2.016
  287SOL    HW1  883   0.681   1.626   1.917
  287SOL    HW2  884   0.632   1.527   2.037
  288SOL     OW  885   1.841   0.175   2.825
  288SOL    HW1  886   1.880   0.090   2.789
  288SOL    HW2  887   1.743   0.177   2.806
  289SOL     OW  888   0.263   0.326   2.582
  289SOL    HW1  889   0.184   0.377   2.548
  289SOL    HW2  890   0.254   0.311   2.680
  290SOL     OW  891   0.916   0.910   2.153
  290SOL    HW1  892   0.979   0.948   2.085
  290SOL    HW2  893   0.956   0.827   2.192
  291SOL     OW  894   1.504   1.607   1.906
  291SOL    HW1  895   1.412   1.644   1.913
  291SOL    HW2  896   1.542   1.627   1.816
  292SOL     OW  897   1.039   1.098   2.558
  292SOL    HW1  898   0.969   1.051   2.612
  292SOL    HW2  899   1.098   1.030   2.515
  293SOL     OW  900   0.590   1.487   2.353
  293SOL    HW1  901   0.632   1.429   2.283
  293SOL    HW2  902   0.546   1.566   2.309
  294SOL     OW  903   0.255   1.348   2.152
  294SOL    HW1  904   0.159   1.349   2.125
  294SOL    HW2  905   0.267   1.401   2.236
  295SOL     OW  906   0.075   0.345   1.895
  295SOL    HW1  907  -0.017   0.317   1.866
  295SOL    HW2  908   0.106   0.422   1.839
  296SOL     OW  909   0.072   0.166   2.180
  296SOL    HW1  910   0.055   0.249   2.126
  296SOL    HW2  911   0.162   0.129   2.158
  297SOL     OW  912   1.183   1.335   1.981
  297SOL    HW1  913   1.084   1.324   1.983
  297SOL    HW2  914   1.217   1.350   2.074
  298SOL     OW  915   1.674   0.883   3.116
  298SOL    HW1  916   1.647   0.794   3.079
  298SOL    HW2  917   1.675   0.951   3.043
  299SOL     OW  918   1.225   0.325   2.311
  299SOL    HW1  919   1.290   0.251   2.300
  299SOL    HW2  920   1.245   0.375   2.395
  300SOL     OW  921   0.594   0.745   2.514
  300SOL    HW1  922   0.644   0.830   2.495
  300SOL    HW2  923   0.506   0.747   2.466
  301SOL     OW  924   0.859   1.374   1.878
  301SOL    HW1  925   0.813   1.389   1.966
  301SOL    HW2  926   0.903   1.459   1.848
  302SOL     OW  927   0.661   1.790   2.815
  302SOL    HW1  928   0.615   1.878   2.802
  302SOL    HW2  929   0.760   1.802   2.808
  303SOL     OW  930   0.859   0.956   2.723
  303SOL    HW1  931   0.913   0.887   2.771
  303SOL    HW2  932   0.827   1.025   2.789
  304SOL     OW  933   1.083   0.984   1.949
  304SOL    HW1  934   1.060   1.037   1.867
  304SOL    HW2  935   1.164   0.928   1.930
  305SOL     OW  936   1.861   1.569   2.713
  305SOL    HW1  937   1.790   1.557   2.643
  305SOL    HW2  938   1.862   1.490   2.773
  306SOL     OW  939   0.079   1.240   2.515
  306SOL    HW1  940   0.078   1.193   2.603
  306SOL    HW2  941   0.161   1.212   2.464
  307SOL     OW  942   1.824   0.192   3.089
  307SOL    HW1  943   1.820   0.102   3.133
  307SOL    HW2  944   1.827   0.181   2.990
  308SOL     OW  945   0.428   0.424   2.382
  308SOL    HW1  946   0.458   0.352   2.320
  308SOL    HW2  947   0.389   0.384   2.465
  309SOL     OW  948   0.812   1.586   2.549
  309SOL    HW1  949   0.844   1.596   2.455
  309SOL    HW2  950   0.733   1.524   2.551
  310SOL     OW  951   0.770   1.330   2.163
  310SOL    HW1  952   0.724   1.243   2.180
  310SOL    HW2  953   0.861   1.327   2.204
  311SOL     OW  954   1.352   0.052   2.030
  311SOL    HW1  955   1.387   0.011   1.946
  311SOL    HW2  956   1.262   0.014   2.050
  312SOL     OW  957   1.300   0.453   2.553
  312SOL    HW1  958   1.241   0.533   2.557
  312SOL    HW2  959   1.315   0.418   2.646
  313SOL     OW  960   1.593   0.221   2.744
  313SOL    HW1  961   1.509   0.220   2.798
  313SOL    HW2  962   1.595   0.304   2.688
  314SOL     OW  963   0.039   1.077   2.162
  314SOL    HW1  964   0.138   1.066   2.153
  314SOL    HW2  965  -0.001   0.991   2.194
  315SOL     OW  966   0.875   1.646   2.199
  315SOL    HW1  967   0.798   1.611   2.145
  315SOL    HW2  968   0.843   1.717   2.261
  316SOL     OW  969   0.230   2.490   0.113
  316SOL    HW1  970   0.137   2.488   0.150
  316SOL    HW2  971   0.231   2.451   0.021
  317SOL     OW  972   0.225   2.137   0.996
  317SOL    HW1  973   0.260   2.120   1.088
  317SOL    HW2  974   0.137   2.092   0.984
  318SOL     OW  975   0.019   2.230   0.647
  318SOL    HW1  976  -0.063   2.273   0.686
  318SOL    HW2  977  -0.009   2.157   0.584
  319SOL     OW  978   1.135   2.565   0.717
  319SOL    HW1  979   1.192   2.643   0.692
  319SOL    HW2  980   1.075   2.591   0.793
  320SOL     OW  981   1.755   2.469   0.231
  320SOL    HW1  982   1.743   2.456   0.132
  320SOL    HW2  983   1.725   2.388   0.280
  321SOL     OW  984   0.850   2.660   1.823
  321SOL    HW1  985   0.846   2.736   1.888
  321SOL    HW2  986   0.872   2.696   1.732
  322SOL     OW  987   0.685   2.874   0.665
  322SOL    HW1  988   0.754   2.858   0.735
  322SOL    HW2  989   0.612   2.931   0.703
  323SOL     OW  990   0.438   2.254   1.499
  323SOL    HW1  991   0.520   2.198   1.508
  323SOL    HW2  992   0.357   2.196   1.503
  324SOL     OW  993   1.603   2.309   0.737
  324SOL    HW1  994   1.529   2.355   0.687
  324SOL    HW2  995   1.654   2.377   0.790
  325SOL     OW  996   1.594   1.976   1.480
  325SOL    HW1  997   1.576   2.043   1.408
  325SOL    HW2  998   1.591   2.022   1.569
  326SOL     OW  999   0.122   2.505   0.563
  326SOL    HW1 1000   0.077   2.417   0.580
  326SOL    HW2 1001   0.121   2.559   0.647
  327SOL     OW 1002   0.113   2.599   1.597
  327SOL    HW1 1003   0.201   2.586   1.642
  327SOL    HW2 1004   0.100   2.696   1.575
  328SOL     OW 1005   0.809   1.866   0.502
  328SOL    HW1 1006   0.849   1.957   0.493
  328SOL    HW2 1007   0.709   1.874   0.508
  329SOL     OW 1008   0.197   2.838   1.264
  329SOL    HW1 1009   0.286   2.793   1.250
  329SOL    HW2 1010   0.124   2.773   1.245
  330SOL     OW 1011   1.525   2.861   0.190
  330SOL    HW1 1012   1.462   2.785   0.203
  330SOL    HW2 1013   1.573   2.879   0.276
  331SOL     OW 1014   0.317   2.113   1.801
  331SOL    HW1 1015   0.388   2.184   1.807
  331SOL    HW2 1016   0.229   2.152   1.829
  332SOL     OW 1017   0.598   2.591   0.270
  332SOL    HW1 1018   0.622   2.660   0.202
  332SOL    HW2 1019   0.520   2.624   0.324
  333SOL     OW 1020   1.281   2.207   0.944
  333SOL    HW1 1021   1.195   2.157   0.931
  333SOL    HW2 1022   1.343   2.153   1.000
  334SOL     OW 1023   0.807   2.467   1.465
  334SOL    HW1 1024   0.760   2.464   1.554
  334SOL    HW2 1025   0.756   2.412   1.399
  335SOL     OW 1026   1.394   2.331   1.674
  335SOL    HW1 1027   1.374   2.374   1.762
  335SOL    HW2 1028   1.472   2.269   1.683
  336SOL     OW 1029   0.973   2.752   1.572
  336SOL    HW1 1030   1.019   2.668   1.543
  336SOL    HW2 1031   0.917   2.786   1.497
  337SOL     OW 1032   0.991   2.272   1.242
  337SOL    HW1 1033   0.914   2.306   1.296
  337SOL    HW2 1034   0.957   2.221   1.163
  338SOL     OW 1035   1.041   2.563   0.429
  338SOL    HW1 1036   1.067   2.559   0.525
  338SOL    HW2 1037   0.956   2.512   0.415
  339SOL     OW 1038   0.076   2.673   0.789
  339SOL    HW1 1039   0.175   2.661   0.798
  339SOL    HW2 1040   0.052   2.768   0.810
  340SOL     OW 1041   0.865   2.210   0.195
  340SOL    HW1 1042   0.924   2.273   0.146
  340SOL    HW2 1043   0.884   2.116   0.166
  341SOL     OW 1044   1.719   2.447   1.831
  341SOL    HW1 1045   1.693   2.536   1.795
  341SOL    HW2 1046   1.717   2.379   1.758
  342SOL     OW 1047   0.550   2.058   0.885
  342SOL    HW1 1048   0.545   2.053   0.985
  342SOL    HW2 1049   0.552   2.154   0.856
  343SOL     OW 1050   1.458   2.597   0.728
  343SOL    HW1 1051   1.453   2.532   0.803
  343SOL    HW2 1052   1.538   2.656   0.741
  344SOL     OW 1053   0.202   2.147   1.498
  344SOL    HW1 1054   0.122   2.207   1.485
  344SOL    HW2 1055   0.192   2.098   1.584
  345SOL     OW 1056   1.400   1.969   0.426
  345SOL    HW1 1057   1.376   1.932   0.336
  345SOL    HW2 1058   1.499   1.985   0.430
  346SOL     OW 1059   0.382   2.562   0.480
  346SOL    HW1 1060   0.427   2.472   0.477
  346SOL    HW2 1061   0.288   2.551   0.513
  347SOL     OW 1062   1.547   2.084   1.729
  347SOL    HW1 1063   1.542   2.121   1.821
  347SOL    HW2 1064   1.475   2.015   1.717
  348SOL     OW 1065   0.614   1.984   0.117
  348SOL    HW1 1066   0.712   1.962   0.124
  348SOL    HW2 1067   0.583   1.967   0.024
  349SOL     OW 1068   0.781   2.126   1.749
  349SOL    HW1 1069   0.848   2.065   1.792
  349SOL    HW2 1070   0.708   2.145   1.814
  350SOL     OW 1071   1.351   2.452   1.433
  350SOL    HW1 1072   1.379   2.409   1.518
  350SOL    HW2 1073   1.376   2.548   1.434
  351SOL     OW 1074   0.922   2.365   0.899
  351SOL    HW1 1075   0.897   2.356   0.803
  351SOL    HW2 1076   0.970   2.283   0.930
  352SOL     OW 1077   0.539   1.926   0.512
  352SOL    HW1 1078   0.458   1.927   0.570
  352SOL    HW2 1079   0.542   2.009   0.457
  353SOL     OW 1080   0.297   1.897   0.171
  353SOL    HW1 1081   0.346   1.981   0.150
  353SOL    HW2 1082   0.359   1.832   0.216
  354SOL     OW 1083   0.935   2.098   0.480
  354SOL    HW1 1084   0.887   2.139   0.402
  354SOL    HW2 1085   1.034   2.096   0.461
  355SOL     OW 1086   1.076   2.545   1.464
  355SOL    HW1 1087   0.996   2.484   1.467
  355SOL    HW2 1088   1.157   2.492   1.440
  356SOL     OW 1089   1.032   2.411   0.016
  356SOL    HW1 1090   0.991   2.493  -0.023
  356SOL    HW2 1091   1.096   2.437   0.089
  357SOL     OW 1092   0.078   2.418   1.386
  357SOL    HW1 1093   0.170   2.417   1.345
  357SOL    HW2 1094   0.072   2.492   1.453
  358SOL     OW 1095   0.561   2.084   1.147
  358SOL    HW1 1096   0.599   2.000   1.184
  358SOL    HW2 1097   0.473   2.103   1.191
  359SOL     OW 1098   0.866   2.316   0.642
  359SOL    HW1 1099   0.834   2.388   0.580
  359SOL    HW2 1100   0.890   2.235   0.589
  360SOL     OW 1101   1.017   1.901   0.753
  360SOL    HW1 1102   0.945   1.906   0.684
  360SOL    HW2 1103   0.993   1.832   0.822
  361SOL     OW 1104   1.466   2.452   0.992
  361SOL    HW1 1105   1.436   2.357   0.999
  361SOL    HW2 1106   1.539   2.468   1.058
  362SOL     OW 1107   1.857   2.695   0.377
  362SOL    HW1 1108   1.899   2.631   0.441
  362SOL    HW2 1109   1.819   2.644   0.299
  363SOL     OW 1110   1.390   2.437   0.078
  363SOL    HW1 1111   1.336   2.416   0.159
  363SOL    HW2 1112   1.481   2.396   0.087
  364SOL     OW 1113   0.527   2.118   0.328
  364SOL    HW1 1114   0.554   2.059   0.253
  364SOL    HW2 1115   0.527   2.213   0.297
  365SOL     OW 1116   1.638   2.961   1.079
  365SOL    HW1 1117   1.643   3.042   1.138
  365SOL    HW2 1118   1.552   2.963   1.028
  366SOL     OW 1119   0.915   1.951   1.402
  366SOL    HW1 1120   0.940   1.931   1.307
  366SOL    HW2 1121   0.987   2.007   1.444
  367SOL     OW 1122   0.410   2.675   1.251
  367SOL    HW1 1123   0.496   2.687   1.301
  367SOL    HW2 1124   0.368   2.588   1.278
  368SOL     OW 1125   1.274   2.248   1.262
  368SOL    HW1 1126   1.295   2.322   1.326
  368SOL    HW2 1127   1.185   2.265   1.219
  369SOL     OW 1128   0.566   2.399   0.865
  369SOL    HW1 1129   0.578   2.465   0.791
  369SOL    HW2 1130   0.612   2.433   0.948
  370SOL     OW 1131   1.582   2.501   0.472
  370SOL    HW1 1132   1.551   2.562   0.545
  370SOL    HW2 1133   1.632   2.553   0.403
  371SOL     OW 1134   0.402   2.613   1.598
  371SOL    HW1 1135   0.470   2.668   1.551
  371SOL    HW2 1136   0.442   2.525   1.625
  372SOL     OW 1137   1.587   2.641   1.670
  372SOL    HW1 1138   1.495   2.679   1.665
  372SOL    HW2 1139   1.647   2.688   1.605
  373SOL     OW 1140   1.013   1.967   1.770
  373SOL    HW1 1141   1.019   2.052   1.718
  373SOL    HW2 1142   1.045   1.891   1.713
  374SOL     OW 1143   0.504   1.912   1.740
  374SOL    HW1 1144   0.462   1.855   1.670
  374SOL    HW2 1145   0.438   1.981   1.772
  375SOL     OW 1146   0.573   2.732   1.029
  375SOL    HW1 1147   0.617   2.821   1.020
  375SOL    HW2 1148   0.510   2.732   1.106
  376SOL     OW 1149   1.360   2.724   1.045
  376SOL    HW1 1150   1.285   2.724   0.979
  376SOL    HW2 1151   1.397   2.632   1.054
  377SOL     OW 1152   1.209   2.387   0.275
  377SOL    HW1 1153   1.222   2.303   0.329
  377SOL    HW2 1154   1.180   2.461   0.335
  378SOL     OW 1155   0.307   2.075   1.231
  378SOL    HW1 1156   0.284   2.112   1.321
  378SOL    HW2 1157   0.277   1.980   1.225
  379SOL     OW 1158   0.037   3.172   1.282
  379SOL    HW1 1159   0.090   3.123   1.350
  379SOL    HW2 1160   0.059   3.270   1.287
  380SOL     OW 1161   0.732   2.496   1.064
  380SOL    HW1 1162   0.791   2.470   0.988
  380SOL    HW2 1163   0.704   2.592   1.053
  381SOL     OW 1164   1.728   2.797   1.854
  381SOL    HW1 1165   1.682   2.790   1.765
  381SOL    HW2 1166   1.666   2.841   1.920
  382SOL     OW 1167   0.307   1.925   0.618
  382SOL    HW1 1168   0.296   2.019   0.651
  382SOL    HW2 1169   0.302   1.862   0.695
  383SOL     OW 1170   1.622   2.229   0.374
  383SOL    HW1 1171   1.624   2.153   0.438
  383SOL    HW2 1172   1.574   2.306   0.414
  384SOL     OW 1173   1.023   2.628   0.966
  384SOL    HW1 1174   1.038   2.649   1.062
  384SOL    HW2 1175   0.993   2.533   0.957
  385SOL     OW 1176   0.350   2.760   1.804
  385SOL    HW1 1177   0.426   2.804   1.852
  385SOL    HW2 1178   0.385   2.713   1.722
  386SOL     OW 1179   1.540   2.136   0.125
  386SOL    HW1 1180   1.479   2.061   0.148
  386SOL    HW2 1181   1.562   2.188   0.208
  387SOL     OW 1182   1.303   2.700   0.042
  387SOL    HW1 1183   1.337   2.607   0.057
  387SOL    HW2 1184   1.321   2.727  -0.053
  388SOL     OW 1185   0.319   2.672   0.949
  388SOL    HW1 1186   0.412   2.708   0.954
  388SOL    HW2 1187   0.313   2.587   1.001
  389SOL     OW 1188   0.339   2.371   1.006
  389SOL    HW1 1189   0.287   2.288   0.989
  389SOL    HW2 1190   0.416   2.376   0.942
  390SOL     OW 1191   1.138   2.242   1.678
  390SOL    HW1 1192   1.093   2.305   1.742
  390SOL    HW2 1193   1.231   2.273   1.661
  391SOL     OW 1194   1.160   2.069   1.477
  391SOL    HW1 1195   1.160   2.133   1.554
  391SOL    HW2 1196   1.188   2.117   1.394
  392SOL     OW 1197   1.002   2.658   1.238
  392SOL    HW1 1198   1.043   2.626   1.324
  392SOL    HW2 1199   0.906   2.631   1.235
  393SOL     OW 1200   0.040   2.406   1.114
  393SOL    HW1 1201   0.125   2.373   1.073
  393SOL    HW2 1202   0.053   2.421   1.212
  394SOL     OW 1203   0.189   2.382   1.722
  394SOL    HW1 1204   0.248   2.342   1.652
  394SOL    HW2 1205   0.131   2.453   1.681
  395SOL     OW 1206   1.369   2.812   1.660
  395SOL    HW1 1207   1.408   2.901   1.680
  395SOL    HW2 1208   1.379   2.792   1.563
  396SOL     OW 1209   0.815   2.434   0.325
  396SOL    HW1 1210   0.822   2.345   0.279
  396SOL    HW2 1211   0.721   2.468   0.317
  397SOL     OW 1212   1.657   2.466   1.206
  397SOL    HW1 1213   1.619   2.397   1.268
  397SOL    HW2 1214   1.739   2.430   1.162
  398SOL     OW 1215   0.671   2.326   1.269
  398SOL    HW1 1216   0.637   2.237   1.239
  398SOL    HW2 1217   0.697   2.380   1.189
  399SOL     OW 1218   0.473   2.362   0.191
  399SOL    HW1 1219   0.534   2.442   0.195
  399SOL    HW2 1220   0.378   2.393   0.198
  400SOL     OW 1221   0.159   2.999   1.466
  400SOL    HW1 1222   0.181   2.938   1.542
  400SOL    HW2 1223   0.169   2.950   1.380
  401SOL     OW 1224   1.347   2.921   1.234
  401SOL    HW1 1225   1.371   2.858   1.160
  401SOL    HW2 1226   1.257   2.961   1.216
  402SOL     OW 1227   1.302   2.717   0.309
  402SOL    HW1 1228   1.216   2.686   0.351
  402SOL    HW2 1229   1.298   2.703   0.210
  403SOL     OW 1230   0.903   1.948   0.133
  403SOL    HW1 1231   0.954   1.949   0.047
  403SOL    HW2 1232   0.959   1.906   0.204
  404SOL     OW 1233   1.726   1.997   0.523
  404SOL    HW1 1234   1.799   1.980   0.456
  404SOL    HW2 1235   1.695   1.910   0.561
  405SOL     OW 1236   1.280   2.789   0.672
  405SOL    HW1 1237   1.340   2.708   0.674
  405SOL    HW2 1238   1.320   2.858   0.612
  406SOL     OW 1239   1.841   2.037   0.963
  406SOL    HW1 1240   1.880   1.952   0.927
  406SOL    HW2 1241   1.743   2.039   0.944
  407SOL     OW 1242   0.263   2.188   0.720
  407SOL    HW1 1243   0.184   2.239   0.686
  407SOL    HW2 1244   0.254   2.173   0.818
  408SOL     OW 1245   1.014   2.098   0.971
  408SOL    HW1 1246   1.006   2.062   0.878
  408SOL    HW2 1247   1.012   2.022   1.036
  409SOL     OW 1248   1.709   2.247   1.381
  409SOL    HW1 1249   1.782   2.316   1.385
  409SOL    HW2 1250   1.737   2.172   1.322
  410SOL     OW 1251   0.105   2.875   1.726
  410SOL    HW1 1252   0.028   2.842   1.780
  410SOL    HW2 1253   0.190   2.845   1.768
  411SOL     OW 1254   0.672   2.065   1.489
  411SOL    HW1 1255   0.762   2.049   1.449
  411SOL    HW2 1256   0.680   2.070   1.588
  412SOL     OW 1257   0.075   2.207   0.033
  412SOL    HW1 1258  -0.017   2.179   0.004
  412SOL    HW2 1259   0.106   2.284  -0.023
  413SOL     OW 1260   1.440   2.718   1.398
  413SOL    HW1 1261   1.383   2.770   1.335
  413SOL    HW2 1262   1.536   2.730   1.374
  414SOL     OW 1263   0.072   2.028   0.318
  414SOL    HW1 1264   0.055   2.111   0.264
  414SOL    HW2 1265   0.162   1.991   0.296
  415SOL     OW 1266   0.613   2.704   1.431
  415SOL    HW1 1267   0.669   2.785   1.414
  415SOL    HW2 1268   0.672   2.624   1.434
  416SOL     OW 1269   0.716   2.427   1.708
  416SOL    HW1 1270   0.735   2.492   1.782
  416SOL    HW2 1271   0.776   2.347   1.717
  417SOL     OW 1272   1.674   2.745   1.254
  417SOL    HW1 1273   1.647   2.656   1.217
  417SOL    HW2 1274   1.675   2.813   1.181
  418SOL     OW 1275   1.225   2.187   0.449
  418SOL    HW1 1276   1.290   2.113   0.438
  418SOL    HW2 1277   1.245   2.237   0.533
  419SOL     OW 1278   0.594   2.607   0.652
  419SOL    HW1 1279   0.644   2.692   0.633
  419SOL    HW2 1280   0.506   2.609   0.604
  420SOL     OW 1281   1.777   2.204   1.642
  420SOL    HW1 1282   1.760   2.235   1.548
  420SOL    HW2 1283   1.693   2.167   1.680
  421SOL     OW 1284   1.730   2.796   1.517
  421SOL    HW1 1285   1.768   2.887   1.532
  421SOL    HW2 1286   1.722   2.779   1.418
  422SOL     OW 1287   1.824   2.054   1.227
  422SOL    HW1 1288   1.820   1.964   1.271
  422SOL    HW2 1289   1.827   2.043   1.128
  423SOL     OW 1290   0.428   2.286   0.520
  423SOL    HW1 1291   0.458   2.214   0.458
  423SOL    HW2 1292   0.389   2.246   0.603
  424SOL     OW 1293   0.317   2.409   1.280
  424SOL    HW1 1294   0.355   2.350   1.352
  424SOL    HW2 1295   0.357   2.383   1.192
  425SOL     OW 1296   1.424   2.076   1.112
  425SOL    HW1 1297   1.476   2.011   1.167
  425SOL    HW2 1298   1.375   2.139   1.173
  426SOL     OW 1299   1.001   1.896   1.154
  426SOL    HW1 1300   0.938   1.824   1.123
  426SOL    HW2 1301   1.094   1.860   1.154
  427SOL     OW 1302   1.352   1.914   0.168
  427SOL    HW1 1303   1.387   1.873   0.084
  427SOL    HW2 1304   1.262   1.876   0.188
  428SOL     OW 1305   1.300   2.315   0.691
  428SOL    HW1 1306   1.241   2.395   0.695
  428SOL    HW2 1307   1.315   2.280   0.784
  429SOL     OW 1308   1.593   2.083   0.882
  429SOL    HW1 1309   1.509   2.082   0.936
  429SOL    HW2 1310   1.595   2.166   0.826
  430SOL     OW 1311   0.230   2.490   1.975
  430SOL    HW1 1312   0.137   2.488   2.012
  430SOL    HW2 1313   0.231   2.451   1.883
  431SOL     OW 1314   0.019   2.230   2.509
  431SOL    HW1 1315  -0.063   2.273   2.548
  431SOL    HW2 1316  -0.009   2.157   2.446
  432SOL     OW 1317   1.135   2.565   2.579
  432SOL    HW1 1318   1.192   2.643   2.554
  432SOL    HW2 1319   1.075   2.591   2.655
  433SOL     OW 1320   1.755   2.469   2.093
  433SOL    HW1 1321   1.743   2.456   1.994
  433SOL    HW2 1322   1.725   2.388   2.142
  434SOL     OW 1323   0.685   2.874   2.527
  434SOL    HW1 1324   0.754   2.858   2.597
  434SOL    HW2 1325   0.612   2.931   2.565
  435SOL     OW 1326   1.603   2.309   2.599
  435SOL    HW1 1327   1.529   2.355   2.549
  435SOL    HW2 1328   1.654   2.377   2.652
  436SOL     OW 1329   0.240   2.953   2.748
  436SOL    HW1 1330   0.254   2.869   2.800
  436SOL    HW2 1331   0.185   3.017   2.803
  437SOL     OW 1332   0.122   2.505   2.425
  437SOL    HW1 1333   0.077   2.417   2.442
  437SOL    HW2 1334   0.121   2.559   2.509
  438SOL     OW 1335   0.613   3.227   2.588
  438SOL    HW1 1336   0.564   3.140   2.597
  438SOL    HW2 1337   0.590   3.270   2.501
  439SOL     OW 1338   0.809   1.866   2.364
  439SOL    HW1 1339   0.849   1.957   2.355
  439SOL    HW2 1340   0.709   1.874   2.370
  440SOL     OW 1341   1.525   2.861   2.052
  440SOL    HW1 1342   1.462   2.785   2.065
  440SOL    HW2 1343   1.573   2.879   2.138
  441SOL     OW 1344   0.598   2.591   2.132
  441SOL    HW1 1345   0.622   2.660   2.064
  441SOL    HW2 1346   0.520   2.624   2.186
  442SOL     OW 1347   1.281   2.207   2.806
  442SOL    HW1 1348   1.195   2.157   2.793
  442SOL    HW2 1349   1.343   2.153   2.862
  443SOL     OW 1350   1.041   2.563   2.291
  443SOL    HW1 1351   1.067   2.559   2.387
  443SOL    HW2 1352   0.956   2.512   2.277
  444SOL     OW 1353   0.076   2.673   2.651
  444SOL    HW1 1354   0.175   2.661   2.660
  444SOL    HW2 1355   0.052   2.768   2.672
  445SOL     OW 1356   0.865   2.210   2.057
  445SOL    HW1 1357   0.924   2.273   2.008
  445SOL    HW2 1358   0.884   2.116   2.028
  446SOL     OW 1359   1.458   2.597   2.590
  446SOL    HW1 1360   1.453   2.532   2.665
  446SOL    HW2 1361   1.538   2.656   2.603
  447SOL     OW 1362   1.400   1.969   2.288
  447SOL    HW1 1363   1.376   1.932   2.198
  447SOL    HW2 1364   1.499   1.985   2.292
  448SOL     OW 1365   0.382   2.562   2.342
  448SOL    HW1 1366   0.427   2.472   2.339
  448SOL    HW2 1367   0.288   2.551   2.375
  449SOL     OW 1368   0.614   1.984   1.979
  449SOL    HW1 1369   0.712   1.962   1.986
  449SOL    HW2 1370   0.583   1.967   1.886
  450SOL     OW 1371   0.922   2.365   2.761
  450SOL    HW1 1372   0.897   2.356   2.665
  450SOL    HW2 1373   0.970   2.283   2.792
  451SOL     OW 1374   0.539   1.926   2.374
  451SOL    HW1 1375   0.458   1.927   2.432
  451SOL    HW2 1376   0.542   2.009   2.319
  452SOL     OW 1377   0.297   1.897   2.033
  452SOL    HW1 1378   0.346   1.981   2.012
  452SOL    HW2 1379   0.359   1.832   2.078
  453SOL     OW 1380   0.935   2.098   2.342
  453SOL    HW1 1381   0.887   2.139   2.264
  453SOL    HW2 1382   1.034   2.096   2.323
  454SOL     OW 1383   1.032   2.411   1.878
  454SOL    HW1 1384   0.991   2.493   1.839
  454SOL    HW2 1385   1.096   2.437   1.951
  455SOL     OW 1386   0.866   2.316   2.504
  455SOL    HW1 1387   0.834   2.388   2.442
  455SOL    HW2 1388   0.890   2.235   2.451
  456SOL     OW 1389   1.017   1.901   2.615
  456SOL    HW1 1390   0.945   1.906   2.546
  456SOL    HW2 1391   0.993   1.832   2.684
  457SOL     OW 1392   1.857   2.695   2.239
  457SOL    HW1 1393   1.899   2.631   2.303
  457SOL    HW2 1394   1.819   2.644   2.161
  458SOL     OW 1395   1.390   2.437   1.940
  458SOL    HW1 1396   1.336   2.416   2.021
  458SOL    HW2 1397   1.481   2.396   1.949
  459SOL     OW 1398   0.527   2.118   2.190
  459SOL    HW1 1399   0.554   2.059   2.115
  459SOL    HW2 1400   0.527   2.213   2.159
  460SOL     OW 1401   1.111   3.057   2.962
  460SOL    HW1 1402   1.071   3.101   3.043
  460SOL    HW2 1403   1.070   3.094   2.879
  461SOL     OW 1404   1.638   2.961   2.941
  461SOL    HW1 1405   1.643   3.042   3.000
  461SOL    HW2 1406   1.552   2.963   2.890
  462SOL     OW 1407   0.566   2.399   2.727
  462SOL    HW1 1408   0.578   2.465   2.653
  462SOL    HW2 1409   0.612   2.433   2.810
  463SOL     OW 1410   1.582   2.501   2.334
  463SOL    HW1 1411   1.551   2.562   2.407
  463SOL    HW2 1412   1.632   2.553   2.265
  464SOL     OW 1413   0.573   2.732   2.891
  464SOL    HW1 1414   0.617   2.821   2.882
  464SOL    HW2 1415   0.510   2.732   2.968
  465SOL     OW 1416   1.209   2.387   2.137
  465SOL    HW1 1417   1.222   2.303   2.191
  465SOL    HW2 1418   1.180   2.461   2.197
  466SOL     OW 1419   0.732   2.496   2.926
  466SOL    HW1 1420   0.791   2.470   2.850
  466SOL    HW2 1421   0.704   2.592   2.915
  467SOL     OW 1422   0.307   1.925   2.480
  467SOL    HW1 1423   0.296   2.019   2.513
  467SOL    HW2 1424   0.302   1.862   2.557
  468SOL     OW 1425   1.622   2.229   2.236
  468SOL    HW1 1426   1.624   2.153   2.300
  468SOL    HW2 1427   1.574   2.306   2.276
  469SOL     OW 1428   1.540   2.136   1.987
  469SOL    HW1 1429   1.479   2.061   2.010
  469SOL    HW2 1430   1.562   2.188   2.070
  470SOL     OW 1431   1.303   2.700   1.904
  470SOL    HW1 1432   1.337   2.607   1.919
  470SOL    HW2 1433   1.321   2.727   1.809
  471SOL     OW 1434   0.319   2.672   2.811
  471SOL    HW1 1435   0.412   2.708   2.816
  471SOL    HW2 1436   0.313   2.587   2.863
  472SOL     OW 1437   0.815   2.434   2.187
  472SOL    HW1 1438   0.822   2.345   2.141
  472SOL    HW2 1439   0.721   2.468   2.179
  473SOL     OW 1440   0.671   2.326   3.131
  473SOL    HW1 1441   0.637   2.237   3.101
  473SOL    HW2 1442   0.697   2.380   3.051
  474SOL     OW 1443   0.473   2.362   2.053
  474SOL    HW1 1444   0.534   2.442   2.057
  474SOL    HW2 1445   0.378   2.393   2.060
  475SOL     OW 1446   1.302   2.717   2.171
  475SOL    HW1 1447   1.216   2.686   2.213
  475SOL    HW2 1448   1.298   2.703   2.072
  476SOL     OW 1449   1.726   1.997   2.385
  476SOL    HW1 1450   1.799   1.980   2.318
  476SOL    HW2 1451   1.695   1.910   2.423
  477SOL     OW 1452   1.280   2.789   2.534
  477SOL    HW1 1453   1.340   2.708   2.536
  477SOL    HW2 1454   1.320   2.858   2.474
  478SOL     OW 1455   1.841   2.037   2.825
  478SOL    HW1 1456   1.880   1.952   2.789
  478SOL    HW2 1457   1.743   2.039   2.806
  479SOL     OW 1458   0.263   2.188   2.582
  479SOL    HW1 1459   0.184   2.239   2.548
  479SOL    HW2 1460   0.254   2.173   2.680
  480SOL     OW 1461   0.916   2.772   2.153
  480SOL    HW1 1462   0.979   2.810   2.085
  480SOL    HW2 1463   0.956   2.689   2.192
  481SOL     OW 1464   0.075   2.207   1.895
  481SOL    HW1 1465  -0.017   2.179   1.866
  481SOL    HW2 1466   0.106   2.284   1.839
  482SOL     OW 1467   0.072   2.028   2.180
  482SOL    HW1 1468   0.055   2.111   2.126
  482SOL    HW2 1469   0.162   1.991   2.158
  483SOL     OW 1470   1.674   2.745   3.116
  483SOL    HW1 1471   1.647   2.656   3.079
  483SOL    HW2 1472   1.675   2.813   3.043
  484SOL     OW 1473   1.225   2.187   2.311
  484SOL    HW1 1474   1.290   2.113   2.300
  484SOL    HW2 1475   1.245   2.237   2.395
  485SOL     OW 1476   0.594   2.607   2.514
  485SOL    HW1 1477   0.644   2.692   2.495
  485SOL    HW2 1478   0.506   2.609   2.466
  486SOL     OW 1479   1.824   2.054   3.089
  486SOL    HW1 1480   1.820   1.964   3.133
  486SOL    HW2 1481   1.827   2.043   2.990
  487SOL     OW 1482   0.428   2.286   2.382
  487SOL    HW1 1483   0.458   2.214   2.320
  487SOL    HW2 1484   0.389   2.246   2.465
  488SOL     OW 1485   1.352   1.914   2.030
  488SOL    HW1 1486   1.387   1.873   1.946
  488SOL    HW2 1487   1.262   1.876   2.050
  489SOL     OW 1488   1.300   2.315   2.553
  489SOL    HW1 1489   1.241   2.395   2.557
  489SOL    HW2 1490   1.315   2.280   2.646
  490SOL     OW 1491   1.593   2.083   2.744
  490SOL    HW1 1492   1.509   2.082   2.798
  490SOL    HW2 1493   1.595   2.166   2.688
  491SOL     OW 1494   2.092   0.628   0.113
  491SOL    HW1 1495   1.999   0.626   0.150
  491SOL    HW2 1496   2.093   0.589   0.021
  492SOL     OW 1497   2.087   0.275   0.996
  492SOL    HW1 1498   2.122   0.258   1.088
  492SOL    HW2 1499   1.999   0.230   0.984
  493SOL     OW 1500   1.881   0.368   0.647
  493SOL    HW1 1501   1.799   0.411   0.686
  493SOL    HW2 1502   1.853   0.295   0.584
  494SOL     OW 1503   2.431   1.275   1.165
  494SOL    HW1 1504   2.338   1.268   1.128
  494SOL    HW2 1505   2.442   1.364   1.209
  495SOL     OW 1506   2.630   1.144   1.023
  495SOL    HW1 1507   2.552   1.161   1.083
  495SOL    HW2 1508   2.664   1.231   0.987
  496SOL     OW 1509   2.712   0.798   1.823
  496SOL    HW1 1510   2.708   0.874   1.888
  496SOL    HW2 1511   2.734   0.834   1.732
  497SOL     OW 1512   2.547   1.012   0.665
  497SOL    HW1 1513   2.616   0.996   0.735
  497SOL    HW2 1514   2.474   1.069   0.703
  498SOL     OW 1515   2.548   1.161   1.803
  498SOL    HW1 1516   2.608   1.240   1.817
  498SOL    HW2 1517   2.462   1.192   1.762
  499SOL     OW 1518   2.197   1.435   1.061
  499SOL    HW1 1519   2.119   1.404   1.008
  499SOL    HW2 1520   2.255   1.493   1.004
  500SOL     OW 1521   2.300   0.392   1.499
  500SOL    HW1 1522   2.382   0.336   1.508
  500SOL    HW2 1523   2.219   0.334   1.503
  501SOL     OW 1524   2.093   1.713   0.483
  501SOL    HW1 1525   2.127   1.790   0.537
  501SOL    HW2 1526   2.137   1.713   0.393
  502SOL     OW 1527   2.092   1.434   0.538
  502SOL    HW1 1528   2.066   1.530   0.538
  502SOL    HW2 1529   2.021   1.380   0.583
  503SOL     OW 1530   2.102   1.091   0.886
  503SOL    HW1 1531   2.116   1.007   0.938
  503SOL    HW2 1532   2.047   1.155   0.941
  504SOL     OW 1533   2.482   1.786   1.439
  504SOL    HW1 1534   2.390   1.769   1.474
  504SOL    HW2 1535   2.510   1.878   1.465
  505SOL     OW 1536   2.468   0.964   0.123
  505SOL    HW1 1537   2.475   1.048   0.069
  505SOL    HW2 1538   2.514   0.977   0.211
  506SOL     OW 1539   1.984   0.643   0.563
  506SOL    HW1 1540   1.939   0.555   0.580
  506SOL    HW2 1541   1.983   0.697   0.647
  507SOL     OW 1542   1.975   0.737   1.597
  507SOL    HW1 1543   2.063   0.724   1.642
  507SOL    HW2 1544   1.962   0.834   1.575
  508SOL     OW 1545   2.475   1.365   0.726
  508SOL    HW1 1546   2.426   1.278   0.735
  508SOL    HW2 1547   2.452   1.408   0.639
  509SOL     OW 1548   2.671   0.004   0.502
  509SOL    HW1 1549   2.711   0.095   0.493
  509SOL    HW2 1550   2.571   0.012   0.508
  510SOL     OW 1551   2.059   0.976   1.264
  510SOL    HW1 1552   2.148   0.931   1.250
  510SOL    HW2 1553   1.986   0.911   1.245
  511SOL     OW 1554   2.179   0.251   1.801
  511SOL    HW1 1555   2.250   0.322   1.807
  511SOL    HW2 1556   2.091   0.290   1.829
  512SOL     OW 1557   2.460   0.729   0.270
  512SOL    HW1 1558   2.484   0.798   0.202
  512SOL    HW2 1559   2.382   0.762   0.324
  513SOL     OW 1560   2.669   0.605   1.465
  513SOL    HW1 1561   2.622   0.602   1.554
  513SOL    HW2 1562   2.618   0.550   1.399
  514SOL     OW 1563   1.938   0.811   0.789
  514SOL    HW1 1564   2.037   0.799   0.798
  514SOL    HW2 1565   1.914   0.906   0.810
  515SOL     OW 1566   1.992   1.821   1.571
  515SOL    HW1 1567   1.982   1.806   1.670
  515SOL    HW2 1568   1.906   1.857   1.535
  516SOL     OW 1569   2.727   0.348   0.195
  516SOL    HW1 1570   2.786   0.411   0.146
  516SOL    HW2 1571   2.746   0.254   0.166
  517SOL     OW 1572   2.412   0.196   0.885
  517SOL    HW1 1573   2.407   0.191   0.985
  517SOL    HW2 1574   2.414   0.292   0.856
  518SOL     OW 1575   2.870   1.456   0.477
  518SOL    HW1 1576   2.824   1.528   0.425
  518SOL    HW2 1577   2.866   1.476   0.575
  519SOL     OW 1578   2.213   1.801   0.853
  519SOL    HW1 1579   2.263   1.715   0.859
  519SOL    HW2 1580   2.278   1.878   0.850
  520SOL     OW 1581   2.183   0.943   0.242
  520SOL    HW1 1582   2.265   0.982   0.200
  520SOL    HW2 1583   2.156   0.861   0.193
  521SOL     OW 1584   2.323   1.266   1.727
  521SOL    HW1 1585   2.273   1.267   1.641
  521SOL    HW2 1586   2.260   1.248   1.803
  522SOL     OW 1587   2.064   0.285   1.498
  522SOL    HW1 1588   1.984   0.345   1.485
  522SOL    HW2 1589   2.054   0.236   1.584
  523SOL     OW 1590   2.326   1.743   0.323
  523SOL    HW1 1591   2.359   1.782   0.409
  523SOL    HW2 1592   2.402   1.736   0.258
  524SOL     OW 1593   2.111   1.785   1.241
  524SOL    HW1 1594   2.168   1.720   1.291
  524SOL    HW2 1595   2.095   1.752   1.148
  525SOL     OW 1596   2.244   0.700   0.480
  525SOL    HW1 1597   2.289   0.610   0.477
  525SOL    HW2 1598   2.150   0.689   0.513
  526SOL     OW 1599   2.476   0.122   0.117
  526SOL    HW1 1600   2.574   0.100   0.124
  526SOL    HW2 1601   2.445   0.105   0.024
  527SOL     OW 1602   2.643   0.264   1.749
  527SOL    HW1 1603   2.710   0.203   1.792
  527SOL    HW2 1604   2.570   0.283   1.814
  528SOL     OW 1605   2.750   1.514   1.195
  528SOL    HW1 1606   2.727   1.489   1.101
  528SOL    HW2 1607   2.811   1.445   1.234
  529SOL     OW 1608   2.665   1.402   0.924
  529SOL    HW1 1609   2.755   1.416   0.882
  529SOL    HW2 1610   2.594   1.404   0.853
  530SOL     OW 1611   2.784   0.503   0.899
  530SOL    HW1 1612   2.759   0.494   0.803
  530SOL    HW2 1613   2.832   0.421   0.930
  531SOL     OW 1614   2.401   0.064   0.512
  531SOL    HW1 1615   2.320   0.065   0.570
  531SOL    HW2 1616   2.404   0.147   0.457
  532SOL     OW 1617   2.159   0.035   0.171
  532SOL    HW1 1618   2.208   0.119   0.150
  532SOL    HW2 1619   2.221  -0.030   0.216
  533SOL     OW 1620   3.089   1.570   0.793
  533SOL    HW1 1621   3.110   1.644   0.728
  533SOL    HW2 1622   3.157   1.570   0.866
  534SOL     OW 1623   2.321   1.152   0.741
  534SOL    HW1 1624   2.250   1.125   0.806
  534SOL    HW2 1625   2.295   1.124   0.648
  535SOL     OW 1626   1.940   0.556   1.386
  535SOL    HW1 1627   2.032   0.555   1.345
  535SOL    HW2 1628   1.934   0.630   1.453
  536SOL     OW 1629   2.423   0.222   1.147
  536SOL    HW1 1630   2.461   0.138   1.184
  536SOL    HW2 1631   2.335   0.241   1.191
  537SOL     OW 1632   2.350   1.385   0.174
  537SOL    HW1 1633   2.263   1.370   0.221
  537SOL    HW2 1634   2.333   1.411   0.079
  538SOL     OW 1635   2.389   0.256   0.328
  538SOL    HW1 1636   2.416   0.197   0.253
  538SOL    HW2 1637   2.389   0.351   0.297
  539SOL     OW 1638   2.777   0.089   1.402
  539SOL    HW1 1639   2.802   0.069   1.307
  539SOL    HW2 1640   2.849   0.145   1.444
  540SOL     OW 1641   2.567   1.050   0.368
  540SOL    HW1 1642   2.553   1.057   0.467
  540SOL    HW2 1643   2.651   0.999   0.350
  541SOL     OW 1644   2.272   0.813   1.251
  541SOL    HW1 1645   2.358   0.825   1.301
  541SOL    HW2 1646   2.230   0.726   1.278
  542SOL     OW 1647   1.926   1.564   1.331
  542SOL    HW1 1648   1.880   1.646   1.297
  542SOL    HW2 1649   2.024   1.583   1.340
  543SOL     OW 1650   2.229   1.100   0.501
  543SOL    HW1 1651   2.222   1.183   0.445
  543SOL    HW2 1652   2.233   1.020   0.441
  544SOL     OW 1653   2.428   0.537   0.865
  544SOL    HW1 1654   2.440   0.603   0.791
  544SOL    HW2 1655   2.474   0.571   0.948
  545SOL     OW 1656   2.216   1.510   1.329
  545SOL    HW1 1657   2.195   1.466   1.242
  545SOL    HW2 1658   2.313   1.536   1.332
  546SOL     OW 1659   2.264   0.751   1.598
  546SOL    HW1 1660   2.332   0.806   1.551
  546SOL    HW2 1661   2.304   0.663   1.625
  547SOL     OW 1662   2.366   0.050   1.740
  547SOL    HW1 1663   2.324  -0.007   1.670
  547SOL    HW2 1664   2.300   0.119   1.772
  548SOL     OW 1665   2.435   0.870   1.029
  548SOL    HW1 1666   2.479   0.959   1.020
  548SOL    HW2 1667   2.372   0.870   1.106
  549SOL     OW 1668   3.071   0.525   0.275
  549SOL    HW1 1669   3.084   0.441   0.329
  549SOL    HW2 1670   3.042   0.599   0.335
  550SOL     OW 1671   2.169   0.213   1.231
  550SOL    HW1 1672   2.146   0.250   1.321
  550SOL    HW2 1673   2.139   0.118   1.225
  551SOL     OW 1674   2.594   0.634   1.064
  551SOL    HW1 1675   2.653   0.608   0.988
  551SOL    HW2 1676   2.566   0.730   1.053
  552SOL     OW 1677   2.169   0.063   0.618
  552SOL    HW1 1678   2.158   0.157   0.651
  552SOL    HW2 1679   2.164   0.000   0.695
  553SOL     OW 1680   2.885   0.766   0.966
  553SOL    HW1 1681   2.900   0.787   1.062
  553SOL    HW2 1682   2.855   0.671   0.957
  554SOL     OW 1683   2.842   1.573   1.700
  554SOL    HW1 1684   2.822   1.617   1.612
  554SOL    HW2 1685   2.881   1.482   1.684
  555SOL     OW 1686   2.212   0.898   1.804
  555SOL    HW1 1687   2.288   0.942   1.852
  555SOL    HW2 1688   2.247   0.851   1.722
  556SOL     OW 1689   2.181   0.810   0.949
  556SOL    HW1 1690   2.274   0.846   0.954
  556SOL    HW2 1691   2.175   0.725   1.001
  557SOL     OW 1692   2.201   0.509   1.006
  557SOL    HW1 1693   2.149   0.426   0.989
  557SOL    HW2 1694   2.278   0.514   0.942
  558SOL     OW 1695   1.870   1.326   0.200
  558SOL    HW1 1696   1.777   1.347   0.169
  558SOL    HW2 1697   1.880   1.227   0.213
  559SOL     OW 1698   1.950   1.801   0.927
  559SOL    HW1 1699   1.908   1.715   0.900
  559SOL    HW2 1700   2.044   1.804   0.893
  560SOL     OW 1701   2.366   1.568   0.910
  560SOL    HW1 1702   2.432   1.642   0.919
  560SOL    HW2 1703   2.410   1.489   0.868
  561SOL     OW 1704   2.864   0.796   1.238
  561SOL    HW1 1705   2.905   0.764   1.324
  561SOL    HW2 1706   2.768   0.769   1.235
  562SOL     OW 1707   1.902   0.544   1.114
  562SOL    HW1 1708   1.987   0.511   1.073
  562SOL    HW2 1709   1.915   0.559   1.212
  563SOL     OW 1710   2.051   0.520   1.722
  563SOL    HW1 1711   2.110   0.480   1.652
  563SOL    HW2 1712   1.993   0.591   1.681
  564SOL     OW 1713   2.677   0.572   0.325
  564SOL    HW1 1714   2.684   0.483   0.279
  564SOL    HW2 1715   2.583   0.606   0.317
  565SOL     OW 1716   2.114   1.564   1.744
  565SOL    HW1 1717   2.084   1.621   1.820
  565SOL    HW2 1718   2.107   1.467   1.770
  566SOL     OW 1719   2.533   0.464   1.269
  566SOL    HW1 1720   2.499   0.375   1.239
  566SOL    HW2 1721   2.559   0.518   1.189
  567SOL     OW 1722   2.792   1.678   1.465
  567SOL    HW1 1723   2.768   1.660   1.370
  567SOL    HW2 1724   2.822   1.772   1.475
  568SOL     OW 1725   2.335   0.500   0.191
  568SOL    HW1 1726   2.396   0.580   0.195
  568SOL    HW2 1727   2.240   0.531   0.198
  569SOL     OW 1728   2.021   1.137   1.466
  569SOL    HW1 1729   2.043   1.076   1.542
  569SOL    HW2 1730   2.031   1.088   1.380
  570SOL     OW 1731   1.945   1.258   1.022
  570SOL    HW1 1732   1.940   1.257   1.122
  570SOL    HW2 1733   1.862   1.217   0.984
  571SOL     OW 1734   2.550   1.662   1.716
  571SOL    HW1 1735   2.494   1.743   1.725
  571SOL    HW2 1736   2.602   1.666   1.630
  572SOL     OW 1737   2.765   0.086   0.133
  572SOL    HW1 1738   2.816   0.087   0.047
  572SOL    HW2 1739   2.821   0.044   0.204
  573SOL     OW 1740   1.992   1.794   1.851
  573SOL    HW1 1741   1.951   1.720   1.904
  573SOL    HW2 1742   2.056   1.845   1.909
  574SOL     OW 1743   3.142   0.927   0.672
  574SOL    HW1 1744   3.202   0.846   0.674
  574SOL    HW2 1745   3.182   0.996   0.612
  575SOL     OW 1746   2.692   1.273   1.422
  575SOL    HW1 1747   2.687   1.306   1.517
  575SOL    HW2 1748   2.606   1.292   1.376
  576SOL     OW 1749   2.534   1.616   0.154
  576SOL    HW1 1750   2.543   1.626   0.055
  576SOL    HW2 1751   2.494   1.527   0.175
  577SOL     OW 1752   2.125   0.326   0.720
  577SOL    HW1 1753   2.046   0.377   0.686
  577SOL    HW2 1754   2.116   0.311   0.818
  578SOL     OW 1755   2.684   1.002   1.372
  578SOL    HW1 1756   2.724   1.001   1.280
  578SOL    HW2 1757   2.694   1.094   1.412
  579SOL     OW 1758   2.234   1.288   1.490
  579SOL    HW1 1759   2.221   1.381   1.456
  579SOL    HW2 1760   2.150   1.236   1.477
  580SOL     OW 1761   2.452   1.487   0.491
  580SOL    HW1 1762   2.494   1.429   0.421
  580SOL    HW2 1763   2.408   1.566   0.447
  581SOL     OW 1764   2.117   1.348   0.290
  581SOL    HW1 1765   2.021   1.349   0.263
  581SOL    HW2 1766   2.129   1.401   0.374
  582SOL     OW 1767   1.967   1.013   1.726
  582SOL    HW1 1768   1.890   0.980   1.780
  582SOL    HW2 1769   2.052   0.983   1.768
  583SOL     OW 1770   2.534   0.203   1.489
  583SOL    HW1 1771   2.624   0.187   1.449
  583SOL    HW2 1772   2.542   0.208   1.588
  584SOL     OW 1773   1.937   0.345   0.033
  584SOL    HW1 1774   1.845   0.317   0.004
  584SOL    HW2 1775   1.968   0.422  -0.023
  585SOL     OW 1776   2.475   0.842   1.431
  585SOL    HW1 1777   2.531   0.923   1.414
  585SOL    HW2 1778   2.534   0.762   1.434
  586SOL     OW 1779   2.578   0.565   1.708
  586SOL    HW1 1780   2.597   0.630   1.782
  586SOL    HW2 1781   2.638   0.485   1.717
  587SOL     OW 1782   2.252   1.741   1.560
  587SOL    HW1 1783   2.161   1.782   1.558
  587SOL    HW2 1784   2.245   1.647   1.592
  588SOL     OW 1785   3.087   0.325   0.449
  588SOL    HW1 1786   3.152   0.251   0.438
  588SOL    HW2 1787   3.107   0.375   0.533
  589SOL     OW 1788   2.456   0.745   0.652
  589SOL    HW1 1789   2.506   0.830   0.633
  589SOL    HW2 1790   2.368   0.747   0.604
  590SOL     OW 1791   2.721   1.374   0.016
  590SOL    HW1 1792   2.675   1.389   0.104
  590SOL    HW2 1793   2.765   1.459  -0.014
  591SOL     OW 1794   2.523   1.790   0.953
  591SOL    HW1 1795   2.477   1.878   0.940
  591SOL    HW2 1796   2.622   1.802   0.946
  592SOL     OW 1797   2.721   0.956   0.861
  592SOL    HW1 1798   2.775   0.887   0.909
  592SOL    HW2 1799   2.689   1.025   0.927
  593SOL     OW 1800   2.945   0.984   0.087
  593SOL    HW1 1801   2.922   1.037   0.005
  593SOL    HW2 1802   3.026   0.928   0.068
  594SOL     OW 1803   2.083   1.314   1.844
  594SOL    HW1 1804   2.018   1.241   1.823
  594SOL    HW2 1805   2.087   1.328   1.942
  595SOL     OW 1806   1.941   1.240   0.653
  595SOL    HW1 1807   1.940   1.193   0.741
  595SOL    HW2 1808   2.023   1.212   0.602
  596SOL     OW 1809   2.534   1.391   1.624
  596SOL    HW1 1810   2.456   1.341   1.662
  596SOL    HW2 1811   2.531   1.486   1.655
  597SOL     OW 1812   2.290   0.424   0.520
  597SOL    HW1 1813   2.320   0.352   0.458
  597SOL    HW2 1814   2.251   0.384   0.603
  598SOL     OW 1815   2.179   0.547   1.280
  598SOL    HW1 1816   2.217   0.488   1.352
  598SOL    HW2 1817   2.219   0.521   1.192
  599SOL     OW 1818   2.674   1.586   0.687
  599SOL    HW1 1819   2.706   1.596   0.593
  599SOL    HW2 1820   2.595   1.524   0.689
  600SOL     OW 1821   2.863   0.034   1.154
  600SOL    HW1 1822   2.800  -0.038   1.123
  600SOL    HW2 1823   2.956  -0.002   1.154
  601SOL     OW 1824   2.632   1.330   0.301
  601SOL    HW1 1825   2.586   1.243   0.318
  601SOL    HW2 1826   2.723   1.327   0.342
  602SOL     OW 1827   2.480   1.567   1.284
  602SOL    HW1 1828   2.475   1.649   1.341
  602SOL    HW2 1829   2.569   1.564   1.239
  603SOL     OW 1830   1.901   1.077   0.300
  603SOL    HW1 1831   2.000   1.066   0.291
  603SOL    HW2 1832   1.861   0.991   0.332
  604SOL     OW 1833   2.737   1.646   0.337
  604SOL    HW1 1834   2.660   1.611   0.283
  604SOL    HW2 1835   2.705   1.717   0.399
  605SOL     OW 1836   2.092   0.628   1.975
  605SOL    HW1 1837   1.999   0.626   2.012
  605SOL    HW2 1838   2.093   0.589   1.883
  606SOL     OW 1839   1.881   0.368   2.509
  606SOL    HW1 1840   1.799   0.411   2.548
  606SOL    HW2 1841   1.853   0.295   2.446
  607SOL     OW 1842   2.630   1.144   2.885
  607SOL    HW1 1843   2.552   1.161   2.945
  607SOL    HW2 1844   2.664   1.231   2.849
  608SOL     OW 1845   2.547   1.012   2.527
  608SOL    HW1 1846   2.616   0.996   2.597
  608SOL    HW2 1847   2.474   1.069   2.565
  609SOL     OW 1848   2.093   1.713   2.345
  609SOL    HW1 1849   2.127   1.790   2.399
  609SOL    HW2 1850   2.137   1.713   2.255
  610SOL     OW 1851   2.092   1.434   2.400
  610SOL    HW1 1852   2.066   1.530   2.400
  610SOL    HW2 1853   2.021   1.380   2.445
  611SOL     OW 1854   2.102   1.091   2.748
  611SOL    HW1 1855   2.116   1.007   2.800
  611SOL    HW2 1856   2.047   1.155   2.803
  612SOL     OW 1857   2.468   0.964   1.985
  612SOL    HW1 1858   2.475   1.048   1.931
  612SOL    HW2 1859   2.514   0.977   2.073
  613SOL     OW 1860   1.984   0.643   2.425
  613SOL    HW1 1861   1.939   0.555   2.442
  613SOL    HW2 1862   1.983   0.697   2.509
  614SOL     OW 1863   1.889   1.596   1.979
  614SOL    HW1 1864   1.870   1.500   2.000
  614SOL    HW2 1865   1.856   1.654   2.054
  615SOL     OW 1866   2.475   1.365   2.588
  615SOL    HW1 1867   2.426   1.278   2.597
  615SOL    HW2 1868   2.452   1.408   2.501
  616SOL     OW 1869   2.671   0.004   2.364
  616SOL    HW1 1870   2.711   0.095   2.355
  616SOL    HW2 1871   2.571   0.012   2.370
  617SOL     OW 1872   2.460   0.729   2.132
  617SOL    HW1 1873   2.484   0.798   2.064
  617SOL    HW2 1874   2.382   0.762   2.186
  618SOL     OW 1875   1.938   0.811   2.651
  618SOL    HW1 1876   2.037   0.799   2.660
  618SOL    HW2 1877   1.914   0.906   2.672
  619SOL     OW 1878   2.727   0.348   2.057
  619SOL    HW1 1879   2.786   0.411   2.008
  619SOL    HW2 1880   2.746   0.254   2.028
  620SOL     OW 1881   2.870   1.456   2.339
  620SOL    HW1 1882   2.824   1.528   2.287
  620SOL    HW2 1883   2.866   1.476   2.437
  621SOL     OW 1884   2.213   1.801   2.715
  621SOL    HW1 1885   2.263   1.715   2.721
  621SOL    HW2 1886   2.278   1.878   2.712
  622SOL     OW 1887   2.183   0.943   2.104
  622SOL    HW1 1888   2.265   0.982   2.062
  622SOL    HW2 1889   2.156   0.861   2.055
  623SOL     OW 1890   2.326   1.743   2.185
  623SOL    HW1 1891   2.359   1.782   2.271
  623SOL    HW2 1892   2.402   1.736   2.120
  624SOL     OW 1893   2.244   0.700   2.342
  624SOL    HW1 1894   2.289   0.610   2.339
  624SOL    HW2 1895   2.150   0.689   2.375
  625SOL     OW 1896   2.476   0.122   1.979
  625SOL    HW1 1897   2.574   0.100   1.986
  625SOL    HW2 1898   2.445   0.105   1.886
  626SOL     OW 1899   2.784   0.503   2.761
  626SOL    HW1 1900   2.759   0.494   2.665
  626SOL    HW2 1901   2.832   0.421   2.792
  627SOL     OW 1902   2.401   0.064   2.374
  627SOL    HW1 1903   2.320   0.065   2.432
  627SOL    HW2 1904   2.404   0.147   2.319
  628SOL     OW 1905   2.159   0.035   2.033
  628SOL    HW1 1906   2.208   0.119   2.012
  628SOL    HW2 1907   2.221  -0.030   2.078
  629SOL     OW 1908   3.089   1.570   2.655
  629SOL    HW1 1909   3.110   1.644   2.590
  629SOL    HW2 1910   3.157   1.570   2.728
  630SOL     OW 1911   2.321   1.152   2.603
  630SOL    HW1 1912   2.250   1.125   2.668
  630SOL    HW2 1913   2.295   1.124   2.510
  631SOL     OW 1914   2.350   1.385   2.036
  631SOL    HW1 1915   2.263   1.370   2.083
  631SOL    HW2 1916   2.333   1.411   1.941
  632SOL     OW 1917   2.389   0.256   2.190
  632SOL    HW1 1918   2.416   0.197   2.115
  632SOL    HW2 1919   2.389   0.351   2.159
  633SOL     OW 1920   2.567   1.050   2.230
  633SOL    HW1 1921   2.553   1.057   2.329
  633SOL    HW2 1922   2.651   0.999   2.212
  634SOL     OW 1923   2.229   1.100   2.363
  634SOL    HW1 1924   2.222   1.183   2.307
  634SOL    HW2 1925   2.233   1.020   2.303
  635SOL     OW 1926   2.428   0.537   2.727
  635SOL    HW1 1927   2.440   0.603   2.653
  635SOL    HW2 1928   2.474   0.571   2.810
  636SOL     OW 1929   3.071   0.525   2.137
  636SOL    HW1 1930   3.084   0.441   2.191
  636SOL    HW2 1931   3.042   0.599   2.197
  637SOL     OW 1932   2.594   0.634   2.926
  637SOL    HW1 1933   2.653   0.608   2.850
  637SOL    HW2 1934   2.566   0.730   2.915
  638SOL     OW 1935   2.169   0.063   2.480
  638SOL    HW1 1936   2.158   0.157   2.513
  638SOL    HW2 1937   2.164   0.000   2.557
  639SOL     OW 1938   2.885   0.766   2.828
  639SOL    HW1 1939   2.900   0.787   2.924
  639SOL    HW2 1940   2.855   0.671   2.819
  640SOL     OW 1941   2.181   0.810   2.811
  640SOL    HW1 1942   2.274   0.846   2.816
  640SOL    HW2 1943   2.175   0.725   2.863
  641SOL     OW 1944   1.870   1.326   2.062
  641SOL    HW1 1945   1.777   1.347   2.031
  641SOL    HW2 1946   1.880   1.227   2.075
  642SOL     OW 1947   1.950   1.801   2.789
  642SOL    HW1 1948   1.908   1.715   2.762
  642SOL    HW2 1949   2.044   1.804   2.755
  643SOL     OW 1950   2.366   1.568   2.772
  643SOL    HW1 1951   2.432   1.642   2.781
  643SOL    HW2 1952   2.410   1.489   2.730
  644SOL     OW 1953   2.864   0.796   3.100
  644SOL    HW1 1954   2.905   0.764   3.186
  644SOL    HW2 1955   2.768   0.769   3.097
  645SOL     OW 1956   2.677   0.572   2.187
  645SOL    HW1 1957   2.684   0.483   2.141
  645SOL    HW2 1958   2.583   0.606   2.179
  646SOL     OW 1959   2.533   0.464   3.131
  646SOL    HW1 1960   2.499   0.375   3.101
  646SOL    HW2 1961   2.559   0.518   3.051
  647SOL     OW 1962   2.335   0.500   2.053
  647SOL    HW1 1963   2.396   0.580   2.057
  647SOL    HW2 1964   2.240   0.531   2.060
  648SOL     OW 1965   3.114   1.731   2.990
  648SOL    HW1 1966   3.198   1.736   2.936
  648SOL    HW2 1967   3.091   1.635   3.008
  649SOL     OW 1968   2.765   0.086   1.995
  649SOL    HW1 1969   2.816   0.087   1.909
  649SOL    HW2 1970   2.821   0.044   2.066
  650SOL     OW 1971   3.142   0.927   2.534
  650SOL    HW1 1972   3.202   0.846   2.536
  650SOL    HW2 1973   3.182   0.996   2.474
  651SOL     OW 1974   2.534   1.616   2.016
  651SOL    HW1 1975   2.543   1.626   1.917
  651SOL    HW2 1976   2.494   1.527   2.037
  652SOL     OW 1977   2.125   0.326   2.582
  652SOL    HW1 1978   2.046   0.377   2.548
  652SOL    HW2 1979   2.116   0.311   2.680
  653SOL     OW 1980   2.452   1.487   2.353
  653SOL    HW1 1981   2.494   1.429   2.283
  653SOL    HW2 1982   2.408   1.566   2.309
  654SOL     OW 1983   2.117   1.348   2.152
  654SOL    HW1 1984   2.021   1.349   2.125
  654SOL    HW2 1985   2.129   1.401   2.236
  655SOL     OW 1986   1.937   0.345   1.895
  655SOL    HW1 1987   1.845   0.317   1.866
  655SOL    HW2 1988   1.968   0.422   1.839
  656SOL     OW 1989   1.934   0.166   2.180
  656SOL    HW1 1990   1.917   0.249   2.126
  656SOL    HW2 1991   2.024   0.129   2.158
  657SOL     OW 1992   3.087   0.325   2.311
  657SOL    HW1 1993   3.152   0.251   2.300
  657SOL    HW2 1994   3.107   0.375   2.395
  658SOL     OW 1995   2.456   0.745   2.514
  658SOL    HW1 1996   2.506   0.830   2.495
  658SOL    HW2 1997   2.368   0.747   2.466
  659SOL     OW 1998   2.721   1.374   1.878
  659SOL    HW1 1999   2.675   1.389   1.966
  659SOL    HW2 2000   2.765   1.459   1.848
  660SOL     OW 2001   2.523   1.790   2.815
  660SOL    HW1 2002   2.477   1.878   2.802
  660SOL    HW2 2003   2.622   1.802   2.808
  661SOL     OW 2004   2.721   0.956   2.723
  661SOL    HW1 2005   2.775   0.887   2.771
  661SOL    HW2 2006   2.689   1.025   2.789
  662SOL     OW 2007   1.941   1.240   2.515
  662SOL    HW1 2008   1.940   1.193   2.603
  662SOL    HW2 2009   2.023   1.212   2.464
  663SOL     OW 2010   2.290   0.424   2.382
  663SOL    HW1 2011   2.320   0.352   2.320
  663SOL    HW2 2012   2.251   0.384   2.465
  664SOL     OW 2013   2.674   1.586   2.549
  664SOL    HW1 2014   2.706   1.596   2.455
  664SOL    HW2 2015   2.595   1.524   2.551
  665SOL     OW 2016   2.632   1.330   2.163
  665SOL    HW1 2017   2.586   1.243   2.180
  665SOL    HW2 2018   2.723   1.327   2.204
  666SOL     OW 2019   1.901   1.077   2.162
  666SOL    HW1 2020   2.000   1.066   2.153
  666SOL    HW2 2021   1.861   0.991   2.194
  667SOL     OW 2022   2.737   1.646   2.199
  667SOL    HW1 2023   2.660   1.611   2.145
  667SOL    HW2 2024   2.705   1.717   2.261
  668SOL     OW 2025   2.092   2.490   0.113
  668SOL    HW1 2026   1.999   2.488   0.150
  668SOL    HW2 2027   2.093   2.451   0.021
  669SOL     OW 2028   2.087   2.137   0.996
  669SOL    HW1 2029   2.122   2.120   1.088
  669SOL    HW2 2030   1.999   2.092   0.984
  670SOL     OW 2031   1.881   2.230   0.647
  670SOL    HW1 2032   1.799   2.273   0.686
  670SOL    HW2 2033   1.853   2.157   0.584
  671SOL     OW 2034   2.712   2.660   1.823
  671SOL    HW1 2035   2.708   2.736   1.888
  671SOL    HW2 2036   2.734   2.696   1.732
  672SOL     OW 2037   2.547   2.874   0.665
  672SOL    HW1 2038   2.616   2.858   0.735
  672SOL    HW2 2039   2.474   2.931   0.703
  673SOL     OW 2040   2.300   2.254   1.499
  673SOL    HW1 2041   2.382   2.198   1.508
  673SOL    HW2 2042   2.219   2.196   1.503
  674SOL     OW 2043   1.984   2.505   0.563
  674SOL    HW1 2044   1.939   2.417   0.580
  674SOL    HW2 2045   1.983   2.559   0.647
  675SOL     OW 2046   1.975   2.599   1.597
  675SOL    HW1 2047   2.063   2.586   1.642
  675SOL    HW2 2048   1.962   2.696   1.575
  676SOL     OW 2049   2.671   1.866   0.502
  676SOL    HW1 2050   2.711   1.957   0.493
  676SOL    HW2 2051   2.571   1.874   0.508
  677SOL     OW 2052   2.059   2.838   1.264
  677SOL    HW1 2053   2.148   2.793   1.250
  677SOL    HW2 2054   1.986   2.773   1.245
  678SOL     OW 2055   2.179   2.113   1.801
  678SOL    HW1 2056   2.250   2.184   1.807
  678SOL    HW2 2057   2.091   2.152   1.829
  679SOL     OW 2058   2.460   2.591   0.270
  679SOL    HW1 2059   2.484   2.660   0.202
  679SOL    HW2 2060   2.382   2.624   0.324
  680SOL     OW 2061   2.669   2.467   1.465
  680SOL    HW1 2062   2.622   2.464   1.554
  680SOL    HW2 2063   2.618   2.412   1.399
  681SOL     OW 2064   2.853   2.272   1.242
  681SOL    HW1 2065   2.776   2.306   1.296
  681SOL    HW2 2066   2.819   2.221   1.163
  682SOL     OW 2067   1.938   2.673   0.789
  682SOL    HW1 2068   2.037   2.661   0.798
  682SOL    HW2 2069   1.914   2.768   0.810
  683SOL     OW 2070   2.727   2.210   0.195
  683SOL    HW1 2071   2.786   2.273   0.146
  683SOL    HW2 2072   2.746   2.116   0.166
  684SOL     OW 2073   2.412   2.058   0.885
  684SOL    HW1 2074   2.407   2.053   0.985
  684SOL    HW2 2075   2.414   2.154   0.856
  685SOL     OW 2076   2.064   2.147   1.498
  685SOL    HW1 2077   1.984   2.207   1.485
  685SOL    HW2 2078   2.054   2.098   1.584
  686SOL     OW 2079   2.244   2.562   0.480
  686SOL    HW1 2080   2.289   2.472   0.477
  686SOL    HW2 2081   2.150   2.551   0.513
  687SOL     OW 2082   2.476   1.984   0.117
  687SOL    HW1 2083   2.574   1.962   0.124
  687SOL    HW2 2084   2.445   1.967   0.024
  688SOL     OW 2085   2.643   2.126   1.749
  688SOL    HW1 2086   2.710   2.065   1.792
  688SOL    HW2 2087   2.570   2.145   1.814
  689SOL     OW 2088   2.784   2.365   0.899
  689SOL    HW1 2089   2.759   2.356   0.803
  689SOL    HW2 2090   2.832   2.283   0.930
  690SOL     OW 2091   2.401   1.926   0.512
  690SOL    HW1 2092   2.320   1.927   0.570
  690SOL    HW2 2093   2.404   2.009   0.457
  691SOL     OW 2094   2.159   1.897   0.171
  691SOL    HW1 2095   2.208   1.981   0.150
  691SOL    HW2 2096   2.221   1.832   0.216
  692SOL     OW 2097   1.940   2.418   1.386
  692SOL    HW1 2098   2.032   2.417   1.345
  692SOL    HW2 2099   1.934   2.492   1.453
  693SOL     OW 2100   2.423   2.084   1.147
  693SOL    HW1 2101   2.461   2.000   1.184
  693SOL    HW2 2102   2.335   2.103   1.191
  694SOL     OW 2103   2.879   1.901   0.753
  694SOL    HW1 2104   2.807   1.906   0.684
  694SOL    HW2 2105   2.855   1.832   0.822
  695SOL     OW 2106   2.389   2.118   0.328
  695SOL    HW1 2107   2.416   2.059   0.253
  695SOL    HW2 2108   2.389   2.213   0.297
  696SOL     OW 2109   2.777   1.951   1.402
  696SOL    HW1 2110   2.802   1.931   1.307
  696SOL    HW2 2111   2.849   2.007   1.444
  697SOL     OW 2112   2.272   2.675   1.251
  697SOL    HW1 2113   2.358   2.687   1.301
  697SOL    HW2 2114   2.230   2.588   1.278
  698SOL     OW 2115   2.428   2.399   0.865
  698SOL    HW1 2116   2.440   2.465   0.791
  698SOL    HW2 2117   2.474   2.433   0.948
  699SOL     OW 2118   2.264   2.613   1.598
  699SOL    HW1 2119   2.332   2.668   1.551
  699SOL    HW2 2120   2.304   2.525   1.625
  700SOL     OW 2121   2.366   1.912   1.740
  700SOL    HW1 2122   2.324   1.855   1.670
  700SOL    HW2 2123   2.300   1.981   1.772
  701SOL     OW 2124   2.435   2.732   1.029
  701SOL    HW1 2125   2.479   2.821   1.020
  701SOL    HW2 2126   2.372   2.732   1.106
  702SOL     OW 2127   3.071   2.387   0.275
  702SOL    HW1 2128   3.084   2.303   0.329
  702SOL    HW2 2129   3.042   2.461   0.335
  703SOL     OW 2130   2.169   2.075   1.231
  703SOL    HW1 2131   2.146   2.112   1.321
  703SOL    HW2 2132   2.139   1.980   1.225
  704SOL     OW 2133   2.594   2.496   1.064
  704SOL    HW1 2134   2.653   2.470   0.988
  704SOL    HW2 2135   2.566   2.592   1.053
  705SOL     OW 2136   2.169   1.925   0.618
  705SOL    HW1 2137   2.158   2.019   0.651
  705SOL    HW2 2138   2.164   1.862   0.695
  706SOL     OW 2139   2.885   2.628   0.966
  706SOL    HW1 2140   2.900   2.649   1.062
  706SOL    HW2 2141   2.855   2.533   0.957
  707SOL     OW 2142   2.212   2.760   1.804
  707SOL    HW1 2143   2.288   2.804   1.852
  707SOL    HW2 2144   2.247   2.713   1.722
  708SOL     OW 2145   2.930   3.195   0.849
  708SOL    HW1 2146   2.937   3.111   0.794
  708SOL    HW2 2147   2.992   3.264   0.813
  709SOL     OW 2148   2.181   2.672   0.949
  709SOL    HW1 2149   2.274   2.708   0.954
  709SOL    HW2 2150   2.175   2.587   1.001
  710SOL     OW 2151   2.201   2.371   1.006
  710SOL    HW1 2152   2.149   2.288   0.989
  710SOL    HW2 2153   2.278   2.376   0.942
  711SOL     OW 2154   2.864   2.658   1.238
  711SOL    HW1 2155   2.905   2.626   1.324
  711SOL    HW2 2156   2.768   2.631   1.235
  712SOL     OW 2157   1.902   2.406   1.114
  712SOL    HW1 2158   1.987   2.373   1.073
  712SOL    HW2 2159   1.915   2.421   1.212
  713SOL     OW 2160   2.051   2.382   1.722
  713SOL    HW1 2161   2.110   2.342   1.652
  713SOL    HW2 2162   1.993   2.453   1.681
  714SOL     OW 2163   2.677   2.434   0.325
  714SOL    HW1 2164   2.684   2.345   0.279
  714SOL    HW2 2165   2.583   2.468   0.317
  715SOL     OW 2166   2.533   2.326   1.269
  715SOL    HW1 2167   2.499   2.237   1.239
  715SOL    HW2 2168   2.559   2.380   1.189
  716SOL     OW 2169   2.335   2.362   0.191
  716SOL    HW1 2170   2.396   2.442   0.195
  716SOL    HW2 2171   2.240   2.393   0.198
  717SOL     OW 2172   2.021   2.999   1.466
  717SOL    HW1 2173   2.043   2.938   1.542
  717SOL    HW2 2174   2.031   2.950   1.380
  718SOL     OW 2175   3.164   2.717   0.309
  718SOL    HW1 2176   3.078   2.686   0.351
  718SOL    HW2 2177   3.160   2.703   0.210
  719SOL     OW 2178   2.765   1.948   0.133
  719SOL    HW1 2179   2.816   1.949   0.047
  719SOL    HW2 2180   2.821   1.906   0.204
  720SOL     OW 2181   2.125   2.188   0.720
  720SOL    HW1 2182   2.046   2.239   0.686
  720SOL    HW2 2183   2.116   2.173   0.818
  721SOL     OW 2184   2.901   2.960   0.696
  721SOL    HW1 2185   2.831   2.913   0.750
  721SOL    HW2 2186   2.960   2.892   0.653
  722SOL     OW 2187   1.967   2.875   1.726
  722SOL    HW1 2188   1.890   2.842   1.780
  722SOL    HW2 2189   2.052   2.845   1.768
  723SOL     OW 2190   2.534   2.065   1.489
  723SOL    HW1 2191   2.624   2.049   1.449
  723SOL    HW2 2192   2.542   2.070   1.588
  724SOL     OW 2193   1.937   2.207   0.033
  724SOL    HW1 2194   1.845   2.179   0.004
  724SOL    HW2 2195   1.968   2.284  -0.023
  725SOL     OW 2196   2.475   2.704   1.431
  725SOL    HW1 2197   2.531   2.785   1.414
  725SOL    HW2 2198   2.534   2.624   1.434
  726SOL     OW 2199   2.578   2.427   1.708
  726SOL    HW1 2200   2.597   2.492   1.782
  726SOL    HW2 2201   2.638   2.347   1.717
  727SOL     OW 2202   3.087   2.187   0.449
  727SOL    HW1 2203   3.152   2.113   0.438
  727SOL    HW2 2204   3.107   2.237   0.533
  728SOL     OW 2205   2.456   2.607   0.652
  728SOL    HW1 2206   2.506   2.692   0.633
  728SOL    HW2 2207   2.368   2.609   0.604
  729SOL     OW 2208   2.721   2.818   0.861
  729SOL    HW1 2209   2.775   2.749   0.909
  729SOL    HW2 2210   2.689   2.887   0.927
  730SOL     OW 2211   2.290   2.286   0.520
  730SOL    HW1 2212   2.320   2.214   0.458
  730SOL    HW2 2213   2.251   2.246   0.603
  731SOL     OW 2214   2.179   2.409   1.280
  731SOL    HW1 2215   2.217   2.350   1.352
  731SOL    HW2 2216   2.219   2.383   1.192
  732SOL     OW 2217   2.863   1.896   1.154
  732SOL    HW1 2218   2.800   1.824   1.123
  732SOL    HW2 2219   2.956   1.860   1.154
  733SOL     OW 2220   2.092   2.490   1.975
  733SOL    HW1 2221   1.999   2.488   2.012
  733SOL    HW2 2222   2.093   2.451   1.883
  734SOL     OW 2223   1.881   2.230   2.509
  734SOL    HW1 2224   1.799   2.273   2.548
  734SOL    HW2 2225   1.853   2.157   2.446
  735SOL     OW 2226   2.547   2.874   2.527
  735SOL    HW1 2227   2.616   2.858   2.597
  735SOL    HW2 2228   2.474   2.931   2.565
  736SOL     OW 2229   2.102   2.953   2.748
  736SOL    HW1 2230   2.116   2.869   2.800
  736SOL    HW2 2231   2.047   3.017   2.803
  737SOL     OW 2232   1.984   2.505   2.425
  737SOL    HW1 2233   1.939   2.417   2.442
  737SOL    HW2 2234   1.983   2.559   2.509
  738SOL     OW 2235   2.475   3.227   2.588
  738SOL    HW1 2236   2.426   3.140   2.597
  738SOL    HW2 2237   2.452   3.270   2.501
  739SOL     OW 2238   2.671   1.866   2.364
  739SOL    HW1 2239   2.711   1.957   2.355
  739SOL    HW2 2240   2.571   1.874   2.370
  740SOL     OW 2241   2.460   2.591   2.132
  740SOL    HW1 2242   2.484   2.660   2.064
  740SOL    HW2 2243   2.382   2.624   2.186
  741SOL     OW 2244   1.938   2.673   2.651
  741SOL    HW1 2245   2.037   2.661   2.660
  741SOL    HW2 2246   1.914   2.768   2.672
  742SOL     OW 2247   2.727   2.210   2.057
  742SOL    HW1 2248   2.786   2.273   2.008
  742SOL    HW2 2249   2.746   2.116   2.028
  743SOL     OW 2250   2.244   2.562   2.342
  743SOL    HW1 2251   2.289   2.472   2.339
  743SOL    HW2 2252   2.150   2.551   2.375
  744SOL     OW 2253   2.476   1.984   1.979
  744SOL    HW1 2254   2.574   1.962   1.986
  744SOL    HW2 2255   2.445   1.967   1.886
  745SOL     OW 2256   2.784   2.365   2.761
  745SOL    HW1 2257   2.759   2.356   2.665
  745SOL    HW2 2258   2.832   2.283   2.792
  746SOL     OW 2259   2.401   1.926   2.374
  746SOL    HW1 2260   2.320   1.927   2.432
  746SOL    HW2 2261   2.404   2.009   2.319
  747SOL     OW 2262   2.159   1.897   2.033
  747SOL    HW1 2263   2.208   1.981   2.012
  747SOL    HW2 2264   2.221   1.832   2.078
  748SOL     OW 2265   2.879   1.901   2.615
  748SOL    HW1 2266   2.807   1.906   2.546
  748SOL    HW2 2267   2.855   1.832   2.684
  749SOL     OW 2268   2.389   2.118   2.190
  749SOL    HW1 2269   2.416   2.059   2.115
  749SOL    HW2 2270   2.389   2.213   2.159
  750SOL     OW 2271   2.428   2.399   2.727
  750SOL    HW1 2272   2.440   2.465   2.653
  750SOL    HW2 2273   2.474   2.433   2.810
  751SOL     OW 2274   2.435   2.732   2.891
  751SOL    HW1 2275   2.479   2.821   2.882
  751SOL    HW2 2276   2.372   2.732   2.968
  752SOL     OW 2277   3.071   2.387   2.137
  752SOL    HW1 2278   3.084   2.303   2.191
  752SOL    HW2 2279   3.042   2.461   2.197
  753SOL     OW 2280   2.594   2.496   2.926
  753SOL    HW1 2281   2.653   2.470   2.850
  753SOL    HW2 2282   2.566   2.592   2.915
  754SOL     OW 2283   2.169   1.925   2.480
  754SOL    HW1 2284   2.158   2.019   2.513
  754SOL    HW2 2285   2.164   1.862   2.557
  755SOL     OW 2286   2.885   2.628   2.828
  755SOL    HW1 2287   2.900   2.649   2.924
  755SOL    HW2 2288   2.855   2.533   2.819
  756SOL     OW 2289   2.930   3.195   2.711
  756SOL    HW1 2290   2.937   3.111   2.656
  756SOL    HW2 2291   2.992   3.264   2.675
  757SOL     OW 2292   2.181   2.672   2.811
  757SOL    HW1 2293   2.274   2.708   2.816
  757SOL    HW2 2294   2.175   2.587   2.863
  758SOL     OW 2295   2.864   2.658   3.100
  758SOL    HW1 2296   2.905   2.626   3.186
  758SOL    HW2 2297   2.768   2.631   3.097
  759SOL     OW 2298   2.677   2.434   2.187
  759SOL    HW1 2299   2.684   2.345   2.141
  759SOL    HW2 2300   2.583   2.468   2.179
  760SOL     OW 2301   2.533   2.326   3.131
  760SOL    HW1 2302   2.499   2.237   3.101
  760SOL    HW2 2303   2.559   2.380   3.051
  761SOL     OW 2304   2.335   2.362   2.053
  761SOL    HW1 2305   2.396   2.442   2.057
  761SOL    HW2 2306   2.240   2.393   2.060
  762SOL     OW 2307   3.164   2.717   2.171
  762SOL    HW1 2308   3.078   2.686   2.213
  762SOL    HW2 2309   3.160   2.703   2.072
  763SOL     OW 2310   2.765   1.948   1.995
  763SOL    HW1 2311   2.816   1.949   1.909
  763SOL    HW2 2312   2.821   1.906   2.066
  764SOL     OW 2313   2.125   2.188   2.582
  764SOL    HW1 2314   2.046   2.239   2.548
  764SOL    HW2 2315   2.116   2.173   2.680
  765SOL     OW 2316   2.901   2.960   2.558
  765SOL    HW1 2317   2.831   2.913   2.612
  765SOL    HW2 2318   2.960   2.892   2.515
  766SOL     OW 2319   1.937   2.207   1.895
  766SOL    HW1 2320   1.845   2.179   1.866
  766SOL    HW2 2321   1.968   2.284   1.839
  767SOL     OW 2322   1.934   2.028   2.180
  767SOL    HW1 2323   1.917   2.111   2.126
  767SOL    HW2 2324   2.024   1.991   2.158
  768SOL     OW 2325   3.087   2.187   2.311
  768SOL    HW1 2326   3.152   2.113   2.300
  768SOL    HW2 2327   3.107   2.237   2.395
  769SOL     OW 2328   2.456   2.607   2.514
  769SOL    HW1 2329   2.506   2.692   2.495
  769SOL    HW2 2330   2.368   2.609   2.466
  770SOL     OW 2331   2.721   2.818   2.723
  770SOL    HW1 2332   2.775   2.749   2.771
  770SOL    HW2 2333   2.689   2.887   2.789
  771SOL     OW 2334   2.290   2.286   2.382
  771SOL    HW1 2335   2.320   2.214   2.320
  771SOL    HW2 2336   2.251   2.246   2.465
   2.88373   2.88373   2.88373
