; mobley_9028462_GMX.itp created by acpype (v: 2023.10.27) on Thu May 14 14:01:34 2026

[ atomtypes ]
;name   bond_type     mass     charge   ptype   sigma         epsilon       Amb
 c        c           0.00000  0.00000   A     3.31521e-01   4.13379e-01 ; 1.86  0.0988
 c3       c3          0.00000  0.00000   A     3.39771e-01   4.51035e-01 ; 1.91  0.1078
 o        o           0.00000  0.00000   A     3.04812e-01   6.12119e-01 ; 1.71  0.1463
 os       os          0.00000  0.00000   A     3.15610e-01   3.03758e-01 ; 1.77  0.0726
 f        f           0.00000  0.00000   A     3.03422e-01   3.48109e-01 ; 1.70  0.0832
 h1       h1          0.00000  0.00000   A     2.42200e-01   8.70272e-02 ; 1.36  0.0208

[ moleculetype ]
;name            nrexcl
 mobley_9028462   3

[ atoms ]
;   nr  type  resi  res  atom  cgnr     charge      mass       ; qtot   bond_type
     1    c     1   MOL    C1    1     0.591100     12.01000 ; qtot 0.591
     2   c3     1   MOL    C2    2     0.122700     12.01000 ; qtot 0.714
     3   c3     1   MOL    C3    3     0.603900     12.01000 ; qtot 1.318
     4    o     1   MOL    O1    4    -0.467000     16.00000 ; qtot 0.851
     5   os     1   MOL    O2    5    -0.404900     16.00000 ; qtot 0.446
     6    f     1   MOL    F1    6    -0.211967     19.00000 ; qtot 0.234
     7    f     1   MOL    F2    7    -0.211967     19.00000 ; qtot 0.022
     8    f     1   MOL    F3    8    -0.211967     19.00000 ; qtot -0.190
     9   h1     1   MOL    H1    9     0.063367      1.00800 ; qtot -0.127
    10   h1     1   MOL    H2   10     0.063367      1.00800 ; qtot -0.063
    11   h1     1   MOL    H3   11     0.063367      1.00800 ; qtot 0.000

[ bonds ]
;   ai     aj funct   r             k
     1      3   1    1.5270e-01    1.9652e+05 ;     C1 - C3    
     1      4   1    1.2190e-01    4.9421e+05 ;     C1 - O1    
     1      5   1    1.3621e-01    2.9398e+05 ;     C1 - O2    
     2      5   1    1.4273e-01    2.3620e+05 ;     C2 - O2    
     2      9   1    1.0969e-01    2.8804e+05 ;     C2 - H1    
     2     10   1    1.0969e-01    2.8804e+05 ;     C2 - H2    
     2     11   1    1.0969e-01    2.8804e+05 ;     C2 - H3    
     3      6   1    1.3512e-01    2.7973e+05 ;     C3 - F1    
     3      7   1    1.3512e-01    2.7973e+05 ;     C3 - F2    
     3      8   1    1.3512e-01    2.7973e+05 ;     C3 - F3    

[ pairs ]
;   ai     aj    funct
     1      9      1 ;     C1 - H1    
     1     10      1 ;     C1 - H2    
     1     11      1 ;     C1 - H3    
     3      2      1 ;     C3 - C2    
     4      2      1 ;     O1 - C2    
     4      6      1 ;     O1 - F1    
     4      7      1 ;     O1 - F2    
     4      8      1 ;     O1 - F3    
     5      6      1 ;     O2 - F1    
     5      7      1 ;     O2 - F2    
     5      8      1 ;     O2 - F3    

[ angles ]
;   ai     aj     ak    funct   theta         cth
     1      3      6      1    1.1034e+02    6.6392e+02 ;     C1 - C3     - F1    
     1      3      7      1    1.1034e+02    6.6392e+02 ;     C1 - C3     - F2    
     1      3      8      1    1.1034e+02    6.6392e+02 ;     C1 - C3     - F3    
     1      5      2      1    1.1582e+02    7.4835e+02 ;     C1 - O2     - C2    
     3      1      4      1    1.2290e+02    6.3973e+02 ;     C3 - C1     - O1    
     3      1      5      1    1.1080e+02    6.5245e+02 ;     C3 - C1     - O2    
     4      1      5      1    1.2320e+02    8.4734e+02 ;     O1 - C1     - O2    
     5      2      9      1    1.1034e+02    4.7028e+02 ;     O2 - C2     - H1    
     5      2     10      1    1.1034e+02    4.7028e+02 ;     O2 - C2     - H2    
     5      2     11      1    1.1034e+02    4.7028e+02 ;     O2 - C2     - H3    
     6      3      7      1    1.0737e+02    8.9437e+02 ;     F1 - C3     - F2    
     6      3      8      1    1.0737e+02    8.9437e+02 ;     F1 - C3     - F3    
     7      3      8      1    1.0737e+02    8.9437e+02 ;     F2 - C3     - F3    
     9      2     10      1    1.0855e+02    2.9824e+02 ;     H1 - C2     - H2    
     9      2     11      1    1.0855e+02    2.9824e+02 ;     H1 - C2     - H3    
    10      2     11      1    1.0855e+02    2.9824e+02 ;     H2 - C2     - H3    

[ dihedrals ] ; propers
; for gromacs 4.5 or higher, using funct 9
;    i      j      k      l   func   phase     kd      pn
     1      5      2      9      9     0.00   1.60387   3 ;     C1-    O2-    C2-    H1
     1      5      2     10      9     0.00   1.60387   3 ;     C1-    O2-    C2-    H2
     1      5      2     11      9     0.00   1.60387   3 ;     C1-    O2-    C2-    H3
     3      1      5      2      9     0.00   3.13800   3 ;     C3-    C1-    O2-    C2
     3      1      5      2      9   180.00   7.90776   1 ;     C3-    C1-    O2-    C2
     3      1      5      2      9   180.00  13.76536   2 ;     C3-    C1-    O2-    C2
     4      1      3      6      9   180.00   0.00000   2 ;     O1-    C1-    C3-    F1
     4      1      3      7      9   180.00   0.00000   2 ;     O1-    C1-    C3-    F2
     4      1      3      8      9   180.00   0.00000   2 ;     O1-    C1-    C3-    F3
     4      1      5      2      9   180.00   5.85760   1 ;     O1-    C1-    O2-    C2
     4      1      5      2      9   180.00  11.29680   2 ;     O1-    C1-    O2-    C2
     5      1      3      6      9   180.00   0.00000   2 ;     O2-    C1-    C3-    F1
     5      1      3      7      9   180.00   0.00000   2 ;     O2-    C1-    C3-    F2
     5      1      3      8      9   180.00   0.00000   2 ;     O2-    C1-    C3-    F3

[ dihedrals ] ; impropers
; treated as propers in GROMACS to use correct AMBER analytical function
;    i      j      k      l   func   phase     kd      pn
     5      1      4      3      4   180.00   4.60240   2 ;     O2-    C1-    O1-    C3
