mobley_5616693_GMX.gro created by acpype (v: 2023.10.27) on Thu May 14 13:46:25 2026
 2237
    1MOL     C1    1   1.529   1.503   1.487
    1MOL     C2    2   1.570   1.560   1.352
    1MOL     C3    3   1.353   1.359   1.383
    1MOL     C4    4   1.387   1.420   1.247
    1MOL     C5    5   1.384   1.455   1.498
    1MOL     C6    6   1.535   1.461   1.240
    1MOL     C7    7   1.568   1.522   1.104
    1MOL     C8    8   1.207   1.391   1.664
    1MOL     C9    9   1.411   1.246   1.634
    1MOL    C10   10   1.357   1.389   1.633
    1MOL     O1   11   1.606   1.505   1.582
    1MOL     H1   12   1.518   1.655   1.339
    1MOL     H2   13   1.677   1.579   1.353
    1MOL     H3   14   1.247   1.332   1.385
    1MOL     H4   15   1.411   1.266   1.395
    1MOL     H5   16   1.365   1.347   1.168
    1MOL     H6   17   1.323   1.507   1.229
    1MOL     H7   18   1.321   1.545   1.489
    1MOL     H8   19   1.596   1.371   1.253
    1MOL     H9   20   1.508   1.612   1.088
    1MOL    H10   21   1.545   1.450   1.025
    1MOL    H11   22   1.673   1.548   1.099
    1MOL    H12   23   1.151   1.334   1.589
    1MOL    H13   24   1.169   1.493   1.665
    1MOL    H14   25   1.187   1.346   1.762
    1MOL    H15   26   1.362   1.185   1.558
    1MOL    H16   27   1.394   1.200   1.732
    1MOL    H17   28   1.519   1.246   1.615
    1MOL    H18   29   1.408   1.447   1.711
    2SOL     OW   30   0.230   0.628   0.113
    2SOL    HW1   31   0.137   0.626   0.150
    2SOL    HW2   32   0.231   0.589   0.021
    3SOL     OW   33   0.225   0.275   0.996
    3SOL    HW1   34   0.260   0.258   1.088
    3SOL    HW2   35   0.137   0.230   0.984
    4SOL     OW   36   0.019   0.368   0.647
    4SOL    HW1   37  -0.063   0.411   0.686
    4SOL    HW2   38  -0.009   0.295   0.584
    5SOL     OW   39   0.569   1.275   1.165
    5SOL    HW1   40   0.476   1.268   1.128
    5SOL    HW2   41   0.580   1.364   1.209
    6SOL     OW   42   1.555   1.511   0.703
    6SOL    HW1   43   1.498   1.495   0.784
    6SOL    HW2   44   1.496   1.521   0.623
    7SOL     OW   45   1.135   0.703   0.717
    7SOL    HW1   46   1.192   0.781   0.692
    7SOL    HW2   47   1.075   0.729   0.793
    8SOL     OW   48   1.755   0.607   0.231
    8SOL    HW1   49   1.743   0.594   0.132
    8SOL    HW2   50   1.725   0.526   0.280
    9SOL     OW   51   0.768   1.144   1.023
    9SOL    HW1   52   0.690   1.161   1.083
    9SOL    HW2   53   0.802   1.231   0.987
   10SOL     OW   54   0.850   0.798   1.823
   10SOL    HW1   55   0.846   0.874   1.888
   10SOL    HW2   56   0.872   0.834   1.732
   11SOL     OW   57   0.685   1.012   0.665
   11SOL    HW1   58   0.754   0.996   0.735
   11SOL    HW2   59   0.612   1.069   0.703
   12SOL     OW   60   0.686   1.161   1.803
   12SOL    HW1   61   0.746   1.240   1.817
   12SOL    HW2   62   0.600   1.192   1.762
   13SOL     OW   63   0.335   1.435   1.061
   13SOL    HW1   64   0.257   1.404   1.008
   13SOL    HW2   65   0.393   1.493   1.004
   14SOL     OW   66   0.438   0.392   1.499
   14SOL    HW1   67   0.520   0.336   1.508
   14SOL    HW2   68   0.357   0.334   1.503
   15SOL     OW   69   1.603   0.447   0.737
   15SOL    HW1   70   1.529   0.493   0.687
   15SOL    HW2   71   1.654   0.515   0.790
   16SOL     OW   72   0.231   1.713   0.483
   16SOL    HW1   73   0.265   1.790   0.537
   16SOL    HW2   74   0.275   1.713   0.393
   17SOL     OW   75   0.230   1.434   0.538
   17SOL    HW1   76   0.204   1.530   0.538
   17SOL    HW2   77   0.159   1.380   0.583
   18SOL     OW   78   0.240   1.091   0.886
   18SOL    HW1   79   0.254   1.007   0.938
   18SOL    HW2   80   0.185   1.155   0.941
   19SOL     OW   81   0.620   1.786   1.439
   19SOL    HW1   82   0.528   1.769   1.474
   19SOL    HW2   83   0.648   1.878   1.465
   20SOL     OW   84   0.606   0.964   0.123
   20SOL    HW1   85   0.613   1.048   0.069
   20SOL    HW2   86   0.652   0.977   0.211
   21SOL     OW   87   1.594   0.114   1.480
   21SOL    HW1   88   1.576   0.181   1.408
   21SOL    HW2   89   1.591   0.160   1.569
   22SOL     OW   90   0.122   0.643   0.563
   22SOL    HW1   91   0.077   0.555   0.580
   22SOL    HW2   92   0.121   0.697   0.647
   23SOL     OW   93   1.842   1.767   0.359
   23SOL    HW1   94   1.896   1.738   0.439
   23SOL    HW2   95   1.872   1.857   0.330
   24SOL     OW   96   0.027   1.596   0.117
   24SOL    HW1   97   0.008   1.500   0.138
   24SOL    HW2   98  -0.006   1.654   0.192
   25SOL     OW   99   1.689   0.922   0.612
   25SOL    HW1  100   1.784   0.893   0.620
   25SOL    HW2  101   1.681   0.987   0.537
   26SOL     OW  102   1.641   1.108   0.432
   26SOL    HW1  103   1.727   1.110   0.380
   26SOL    HW2  104   1.655   1.155   0.520
   27SOL     OW  105   0.113   0.737   1.597
   27SOL    HW1  106   0.201   0.724   1.642
   27SOL    HW2  107   0.100   0.834   1.575
   28SOL     OW  108   0.613   1.365   0.726
   28SOL    HW1  109   0.564   1.278   0.735
   28SOL    HW2  110   0.590   1.408   0.639
   29SOL     OW  111   0.809   0.004   0.502
   29SOL    HW1  112   0.849   0.095   0.493
   29SOL    HW2  113   0.709   0.012   0.508
   30SOL     OW  114   0.197   0.976   1.264
   30SOL    HW1  115   0.286   0.931   1.250
   30SOL    HW2  116   0.124   0.911   1.245
   31SOL     OW  117   1.525   0.999   0.190
   31SOL    HW1  118   1.462   0.923   0.203
   31SOL    HW2  119   1.573   1.017   0.276
   32SOL     OW  120   1.187   1.792   1.616
   32SOL    HW1  121   1.211   1.852   1.540
   32SOL    HW2  122   1.194   1.697   1.586
   33SOL     OW  123   0.317   0.251   1.801
   33SOL    HW1  124   0.388   0.322   1.807
   33SOL    HW2  125   0.229   0.290   1.829
   34SOL     OW  126   1.667   1.714   0.572
   34SOL    HW1  127   1.626   1.691   0.484
   34SOL    HW2  128   1.649   1.640   0.637
   35SOL     OW  129   0.598   0.729   0.270
   35SOL    HW1  130   0.622   0.798   0.202
   35SOL    HW2  131   0.520   0.762   0.324
   36SOL     OW  132   1.281   0.345   0.944
   36SOL    HW1  133   1.195   0.295   0.931
   36SOL    HW2  134   1.343   0.291   1.000
   37SOL     OW  135   1.576   1.662   0.307
   37SOL    HW1  136   1.665   1.708   0.310
   37SOL    HW2  137   1.555   1.638   0.212
   38SOL     OW  138   0.807   0.605   1.465
   38SOL    HW1  139   0.760   0.602   1.554
   38SOL    HW2  140   0.756   0.550   1.399
   39SOL     OW  141   1.394   0.469   1.674
   39SOL    HW1  142   1.374   0.512   1.762
   39SOL    HW2  143   1.472   0.407   1.683
   40SOL     OW  144   0.973   0.890   1.572
   40SOL    HW1  145   1.019   0.806   1.543
   40SOL    HW2  146   0.917   0.924   1.497
   41SOL     OW  147   0.991   0.410   1.242
   41SOL    HW1  148   0.914   0.444   1.296
   41SOL    HW2  149   0.957   0.359   1.163
   42SOL     OW  150   1.041   0.701   0.429
   42SOL    HW1  151   1.067   0.697   0.525
   42SOL    HW2  152   0.956   0.650   0.415
   43SOL     OW  153   0.076   0.811   0.789
   43SOL    HW1  154   0.175   0.799   0.798
   43SOL    HW2  155   0.052   0.906   0.810
   44SOL     OW  156   0.130   1.821   1.571
   44SOL    HW1  157   0.120   1.806   1.670
   44SOL    HW2  158   0.044   1.857   1.535
   45SOL     OW  159   0.865   0.348   0.195
   45SOL    HW1  160   0.924   0.411   0.146
   45SOL    HW2  161   0.884   0.254   0.166
   46SOL     OW  162   1.719   0.585   1.831
   46SOL    HW1  163   1.693   0.674   1.795
   46SOL    HW2  164   1.717   0.517   1.758
   47SOL     OW  165   1.362   1.144   0.545
   47SOL    HW1  166   1.445   1.115   0.497
   47SOL    HW2  167   1.313   1.211   0.489
   48SOL     OW  168   0.550   0.196   0.885
   48SOL    HW1  169   0.545   0.191   0.985
   48SOL    HW2  170   0.552   0.292   0.856
   49SOL     OW  171   1.008   1.456   0.477
   49SOL    HW1  172   0.962   1.528   0.425
   49SOL    HW2  173   1.004   1.476   0.575
   50SOL     OW  174   0.351   1.801   0.853
   50SOL    HW1  175   0.401   1.715   0.859
   50SOL    HW2  176   0.416   1.878   0.850
   51SOL     OW  177   1.795   1.066   0.873
   51SOL    HW1  178   1.733   1.051   0.797
   51SOL    HW2  179   1.743   1.077   0.958
   52SOL     OW  180   0.321   0.943   0.242
   52SOL    HW1  181   0.403   0.982   0.200
   52SOL    HW2  182   0.294   0.861   0.193
   53SOL     OW  183   1.458   0.735   0.728
   53SOL    HW1  184   1.453   0.670   0.803
   53SOL    HW2  185   1.538   0.794   0.741
   54SOL     OW  186   0.461   1.266   1.727
   54SOL    HW1  187   0.411   1.267   1.641
   54SOL    HW2  188   0.398   1.248   1.803
   55SOL     OW  189   1.111   1.776   0.237
   55SOL    HW1  190   1.051   1.714   0.287
   55SOL    HW2  191   1.142   1.732   0.152
   56SOL     OW  192   0.202   0.285   1.498
   56SOL    HW1  193   0.122   0.345   1.485
   56SOL    HW2  194   0.192   0.236   1.584
   57SOL     OW  195   1.632   1.377   0.081
   57SOL    HW1  196   1.600   1.471   0.071
   57SOL    HW2  197   1.556   1.314   0.069
   58SOL     OW  198   0.464   1.743   0.323
   58SOL    HW1  199   0.497   1.782   0.409
   58SOL    HW2  200   0.540   1.736   0.258
   59SOL     OW  201   1.400   0.107   0.426
   59SOL    HW1  202   1.376   0.070   0.336
   59SOL    HW2  203   1.499   0.123   0.430
   60SOL     OW  204   0.249   1.785   1.241
   60SOL    HW1  205   0.306   1.720   1.291
   60SOL    HW2  206   0.233   1.752   1.148
   61SOL     OW  207   0.940   1.698   0.904
   61SOL    HW1  208   1.020   1.641   0.925
   61SOL    HW2  209   0.891   1.658   0.827
   62SOL     OW  210   0.382   0.700   0.480
   62SOL    HW1  211   0.427   0.610   0.477
   62SOL    HW2  212   0.288   0.689   0.513
   63SOL     OW  213   1.547   0.222   1.729
   63SOL    HW1  214   1.542   0.259   1.821
   63SOL    HW2  215   1.475   0.153   1.717
   64SOL     OW  216   0.614   0.122   0.117
   64SOL    HW1  217   0.712   0.100   0.124
   64SOL    HW2  218   0.583   0.105   0.024
   65SOL     OW  219   0.781   0.264   1.749
   65SOL    HW1  220   0.848   0.203   1.792
   65SOL    HW2  221   0.708   0.283   1.814
   66SOL     OW  222   0.888   1.514   1.195
   66SOL    HW1  223   0.865   1.489   1.101
   66SOL    HW2  224   0.949   1.445   1.234
   67SOL     OW  225   1.351   0.590   1.433
   67SOL    HW1  226   1.379   0.547   1.518
   67SOL    HW2  227   1.376   0.686   1.434
   68SOL     OW  228   0.803   1.402   0.924
   68SOL    HW1  229   0.893   1.416   0.882
   68SOL    HW2  230   0.732   1.404   0.853
   69SOL     OW  231   0.922   0.503   0.899
   69SOL    HW1  232   0.897   0.494   0.803
   69SOL    HW2  233   0.970   0.421   0.930
   70SOL     OW  234   0.539   0.064   0.512
   70SOL    HW1  235   0.458   0.065   0.570
   70SOL    HW2  236   0.542   0.147   0.457
   71SOL     OW  237   1.434   1.188   0.041
   71SOL    HW1  238   1.466   1.112   0.098
   71SOL    HW2  239   1.342   1.215   0.071
   72SOL     OW  240   0.297   0.035   0.171
   72SOL    HW1  241   0.346   0.119   0.150
   72SOL    HW2  242   0.359  -0.030   0.216
   73SOL     OW  243   0.935   0.236   0.480
   73SOL    HW1  244   0.887   0.277   0.402
   73SOL    HW2  245   1.034   0.234   0.461
   74SOL     OW  246   1.076   0.683   1.464
   74SOL    HW1  247   0.996   0.622   1.467
   74SOL    HW2  248   1.157   0.630   1.440
   75SOL     OW  249   1.227   1.570   0.793
   75SOL    HW1  250   1.248   1.644   0.728
   75SOL    HW2  251   1.295   1.570   0.866
   76SOL     OW  252   0.459   1.152   0.741
   76SOL    HW1  253   0.388   1.125   0.806
   76SOL    HW2  254   0.433   1.124   0.648
   77SOL     OW  255   1.271   1.797   0.591
   77SOL    HW1  256   1.315   1.861   0.527
   77SOL    HW2  257   1.221   1.849   0.661
   78SOL     OW  258   1.032   0.549   0.016
   78SOL    HW1  259   0.991   0.631  -0.023
   78SOL    HW2  260   1.096   0.575   0.089
   79SOL     OW  261   0.078   0.556   1.386
   79SOL    HW1  262   0.170   0.555   1.345
   79SOL    HW2  263   0.072   0.630   1.453
   80SOL     OW  264   0.561   0.222   1.147
   80SOL    HW1  265   0.599   0.138   1.184
   80SOL    HW2  266   0.473   0.241   1.191
   81SOL     OW  267   0.866   0.454   0.642
   81SOL    HW1  268   0.834   0.526   0.580
   81SOL    HW2  269   0.890   0.373   0.589
   82SOL     OW  270   1.017   0.039   0.753
   82SOL    HW1  271   0.945   0.044   0.684
   82SOL    HW2  272   0.993  -0.030   0.822
   83SOL     OW  273   1.429   1.173   0.867
   83SOL    HW1  274   1.374   1.089   0.860
   83SOL    HW2  275   1.455   1.202   0.775
   84SOL     OW  276   1.466   0.590   0.992
   84SOL    HW1  277   1.436   0.495   0.999
   84SOL    HW2  278   1.539   0.606   1.058
   85SOL     OW  279   1.857   0.833   0.377
   85SOL    HW1  280   1.899   0.769   0.441
   85SOL    HW2  281   1.819   0.782   0.299
   86SOL     OW  282   0.488   1.385   0.174
   86SOL    HW1  283   0.401   1.370   0.221
   86SOL    HW2  284   0.471   1.411   0.079
   87SOL     OW  285   1.664   1.280   0.657
   87SOL    HW1  286   1.763   1.288   0.671
   87SOL    HW2  287   1.619   1.364   0.688
   88SOL     OW  288   1.390   0.575   0.078
   88SOL    HW1  289   1.336   0.554   0.159
   88SOL    HW2  290   1.481   0.534   0.087
   89SOL     OW  291   0.527   0.256   0.328
   89SOL    HW1  292   0.554   0.197   0.253
   89SOL    HW2  293   0.527   0.351   0.297
   90SOL     OW  294   1.754   1.223   1.588
   90SOL    HW1  295   1.845   1.184   1.575
   90SOL    HW2  296   1.762   1.319   1.612
   91SOL     OW  297   1.111   1.195   1.100
   91SOL    HW1  298   1.071   1.239   1.181
   91SOL    HW2  299   1.070   1.232   1.017
   92SOL     OW  300   1.638   1.099   1.079
   92SOL    HW1  301   1.643   1.180   1.138
   92SOL    HW2  302   1.552   1.101   1.028
   93SOL     OW  303   0.915   0.089   1.402
   93SOL    HW1  304   0.940   0.069   1.307
   93SOL    HW2  305   0.987   0.145   1.444
   94SOL     OW  306   0.980   1.116   1.719
   94SOL    HW1  307   0.881   1.122   1.729
   94SOL    HW2  308   1.003   1.036   1.663
   95SOL     OW  309   0.705   1.050   0.368
   95SOL    HW1  310   0.691   1.057   0.467
   95SOL    HW2  311   0.789   0.999   0.350
   96SOL     OW  312   0.410   0.813   1.251
   96SOL    HW1  313   0.496   0.825   1.301
   96SOL    HW2  314   0.368   0.726   1.278
   97SOL     OW  315   1.274   0.386   1.262
   97SOL    HW1  316   1.295   0.460   1.326
   97SOL    HW2  317   1.185   0.403   1.219
   98SOL     OW  318   0.064   1.564   1.331
   98SOL    HW1  319   0.018   1.646   1.297
   98SOL    HW2  320   0.162   1.583   1.340
   99SOL     OW  321   0.367   1.100   0.501
   99SOL    HW1  322   0.360   1.183   0.445
   99SOL    HW2  323   0.371   1.020   0.441
  100SOL     OW  324   0.566   0.537   0.865
  100SOL    HW1  325   0.578   0.603   0.791
  100SOL    HW2  326   0.612   0.571   0.948
  101SOL     OW  327   1.252   1.348   0.388
  101SOL    HW1  328   1.302   1.425   0.428
  101SOL    HW2  329   1.157   1.350   0.420
  102SOL     OW  330   1.582   0.639   0.472
  102SOL    HW1  331   1.551   0.700   0.545
  102SOL    HW2  332   1.632   0.691   0.403
  103SOL     OW  333   0.354   1.510   1.329
  103SOL    HW1  334   0.333   1.466   1.242
  103SOL    HW2  335   0.451   1.536   1.332
  104SOL     OW  336   0.402   0.751   1.598
  104SOL    HW1  337   0.470   0.806   1.551
  104SOL    HW2  338   0.442   0.663   1.625
  105SOL     OW  339   1.587   0.779   1.670
  105SOL    HW1  340   1.495   0.817   1.665
  105SOL    HW2  341   1.647   0.826   1.605
  106SOL     OW  342   1.013   0.105   1.770
  106SOL    HW1  343   1.019   0.190   1.718
  106SOL    HW2  344   1.045   0.029   1.713
  107SOL     OW  345   0.504   0.050   1.740
  107SOL    HW1  346   0.462  -0.007   1.670
  107SOL    HW2  347   0.438   0.119   1.772
  108SOL     OW  348   0.573   0.870   1.029
  108SOL    HW1  349   0.617   0.959   1.020
  108SOL    HW2  350   0.510   0.870   1.106
  109SOL     OW  351   1.360   0.862   1.045
  109SOL    HW1  352   1.285   0.862   0.979
  109SOL    HW2  353   1.397   0.770   1.054
  110SOL     OW  354   1.209   0.525   0.275
  110SOL    HW1  355   1.222   0.441   0.329
  110SOL    HW2  356   1.180   0.599   0.335
  111SOL     OW  357   0.307   0.213   1.231
  111SOL    HW1  358   0.284   0.250   1.321
  111SOL    HW2  359   0.277   0.118   1.225
  112SOL     OW  360   0.037   1.310   1.282
  112SOL    HW1  361   0.090   1.261   1.350
  112SOL    HW2  362   0.059   1.408   1.287
  113SOL     OW  363   0.732   0.634   1.064
  113SOL    HW1  364   0.791   0.608   0.988
  113SOL    HW2  365   0.704   0.730   1.053
  114SOL     OW  366   1.728   0.935   1.854
  114SOL    HW1  367   1.682   0.928   1.765
  114SOL    HW2  368   1.666   0.979   1.920
  115SOL     OW  369   0.307   0.063   0.618
  115SOL    HW1  370   0.296   0.157   0.651
  115SOL    HW2  371   0.302   0.000   0.695
  116SOL     OW  372   1.622   0.367   0.374
  116SOL    HW1  373   1.624   0.291   0.438
  116SOL    HW2  374   1.574   0.444   0.414
  117SOL     OW  375   1.023   0.766   0.966
  117SOL    HW1  376   1.038   0.787   1.062
  117SOL    HW2  377   0.993   0.671   0.957
  118SOL     OW  378   0.980   1.573   1.700
  118SOL    HW1  379   0.960   1.617   1.612
  118SOL    HW2  380   1.019   1.482   1.684
  119SOL     OW  381   1.859   1.518   1.605
  119SOL    HW1  382   1.873   1.545   1.510
  119SOL    HW2  383   1.942   1.540   1.658
  120SOL     OW  384   0.350   0.898   1.804
  120SOL    HW1  385   0.426   0.942   1.852
  120SOL    HW2  386   0.385   0.851   1.722
  121SOL     OW  387   1.540   0.274   0.125
  121SOL    HW1  388   1.479   0.199   0.148
  121SOL    HW2  389   1.562   0.326   0.208
  122SOL     OW  390   1.303   0.838   0.042
  122SOL    HW1  391   1.337   0.745   0.057
  122SOL    HW2  392   1.321   0.865  -0.053
  123SOL     OW  393   1.068   1.333   0.849
  123SOL    HW1  394   1.075   1.249   0.794
  123SOL    HW2  395   1.130   1.402   0.813
  124SOL     OW  396   0.319   0.810   0.949
  124SOL    HW1  397   0.412   0.846   0.954
  124SOL    HW2  398   0.313   0.725   1.001
  125SOL     OW  399   0.339   0.509   1.006
  125SOL    HW1  400   0.287   0.426   0.989
  125SOL    HW2  401   0.416   0.514   0.942
  126SOL     OW  402   1.138   0.380   1.678
  126SOL    HW1  403   1.093   0.443   1.742
  126SOL    HW2  404   1.231   0.411   1.661
  127SOL     OW  405   1.160   0.207   1.477
  127SOL    HW1  406   1.160   0.271   1.554
  127SOL    HW2  407   1.188   0.255   1.394
  128SOL     OW  408   0.008   1.326   0.200
  128SOL    HW1  409  -0.085   1.347   0.169
  128SOL    HW2  410   0.018   1.227   0.213
  129SOL     OW  411   0.088   1.801   0.927
  129SOL    HW1  412   0.046   1.715   0.900
  129SOL    HW2  413   0.182   1.804   0.893
  130SOL     OW  414   0.504   1.568   0.910
  130SOL    HW1  415   0.570   1.642   0.919
  130SOL    HW2  416   0.548   1.489   0.868
  131SOL     OW  417   1.002   0.796   1.238
  131SOL    HW1  418   1.043   0.764   1.324
  131SOL    HW2  419   0.906   0.769   1.235
  132SOL     OW  420   0.040   0.544   1.114
  132SOL    HW1  421   0.125   0.511   1.073
  132SOL    HW2  422   0.053   0.559   1.212
  133SOL     OW  423   0.189   0.520   1.722
  133SOL    HW1  424   0.248   0.480   1.652
  133SOL    HW2  425   0.131   0.591   1.681
  134SOL     OW  426   1.369   0.950   1.660
  134SOL    HW1  427   1.408   1.039   1.680
  134SOL    HW2  428   1.379   0.930   1.563
  135SOL     OW  429   0.815   0.572   0.325
  135SOL    HW1  430   0.822   0.483   0.279
  135SOL    HW2  431   0.721   0.606   0.317
  136SOL     OW  432   1.657   0.604   1.206
  136SOL    HW1  433   1.619   0.535   1.268
  136SOL    HW2  434   1.739   0.568   1.162
  137SOL     OW  435   0.252   1.564   1.744
  137SOL    HW1  436   0.222   1.621   1.820
  137SOL    HW2  437   0.245   1.467   1.770
  138SOL     OW  438   0.671   0.464   1.269
  138SOL    HW1  439   0.637   0.375   1.239
  138SOL    HW2  440   0.697   0.518   1.189
  139SOL     OW  441   0.930   1.678   1.465
  139SOL    HW1  442   0.906   1.660   1.370
  139SOL    HW2  443   0.960   1.772   1.475
  140SOL     OW  444   0.473   0.500   0.191
  140SOL    HW1  445   0.534   0.580   0.195
  140SOL    HW2  446   0.378   0.531   0.198
  141SOL     OW  447   0.159   1.137   1.466
  141SOL    HW1  448   0.181   1.076   1.542
  141SOL    HW2  449   0.169   1.088   1.380
  142SOL     OW  450   1.347   1.059   1.234
  142SOL    HW1  451   1.371   0.996   1.160
  142SOL    HW2  452   1.257   1.099   1.216
  143SOL     OW  453   1.302   0.855   0.309
  143SOL    HW1  454   1.216   0.824   0.351
  143SOL    HW2  455   1.298   0.841   0.210
  144SOL     OW  456   1.252   1.731   1.128
  144SOL    HW1  457   1.336   1.736   1.074
  144SOL    HW2  458   1.229   1.635   1.146
  145SOL     OW  459   0.083   1.258   1.022
  145SOL    HW1  460   0.078   1.257   1.122
  145SOL    HW2  461   0.000   1.217   0.984
  146SOL     OW  462   0.688   1.662   1.716
  146SOL    HW1  463   0.632   1.743   1.725
  146SOL    HW2  464   0.740   1.666   1.630
  147SOL     OW  465   0.903   0.086   0.133
  147SOL    HW1  466   0.954   0.087   0.047
  147SOL    HW2  467   0.959   0.044   0.204
  148SOL     OW  468   1.726   0.135   0.523
  148SOL    HW1  469   1.799   0.118   0.456
  148SOL    HW2  470   1.695   0.048   0.561
  149SOL     OW  471   1.388   1.573   0.477
  149SOL    HW1  472   1.455   1.585   0.403
  149SOL    HW2  473   1.348   1.662   0.500
  150SOL     OW  474   0.130   1.794   1.851
  150SOL    HW1  475   0.089   1.720   1.904
  150SOL    HW2  476   0.194   1.845   1.909
  151SOL     OW  477   1.280   0.927   0.672
  151SOL    HW1  478   1.340   0.846   0.674
  151SOL    HW2  479   1.320   0.996   0.612
  152SOL     OW  480   0.830   1.273   1.422
  152SOL    HW1  481   0.825   1.306   1.517
  152SOL    HW2  482   0.744   1.292   1.376
  153SOL     OW  483   0.672   1.616   0.154
  153SOL    HW1  484   0.681   1.626   0.055
  153SOL    HW2  485   0.632   1.527   0.175
  154SOL     OW  486   1.841   0.175   0.963
  154SOL    HW1  487   1.880   0.090   0.927
  154SOL    HW2  488   1.743   0.177   0.944
  155SOL     OW  489   0.263   0.326   0.720
  155SOL    HW1  490   0.184   0.377   0.686
  155SOL    HW2  491   0.254   0.311   0.818
  156SOL     OW  492   1.194   1.612   0.031
  156SOL    HW1  493   1.200   1.519   0.068
  156SOL    HW2  494   1.135   1.612  -0.049
  157SOL     OW  495   0.822   1.002   1.372
  157SOL    HW1  496   0.862   1.001   1.280
  157SOL    HW2  497   0.832   1.094   1.412
  158SOL     OW  498   0.916   0.910   0.291
  158SOL    HW1  499   0.979   0.948   0.223
  158SOL    HW2  500   0.956   0.827   0.330
  159SOL     OW  501   1.504   1.607   0.044
  159SOL    HW1  502   1.412   1.644   0.051
  159SOL    HW2  503   1.542   1.627  -0.046
  160SOL     OW  504   0.372   1.288   1.490
  160SOL    HW1  505   0.359   1.381   1.456
  160SOL    HW2  506   0.288   1.236   1.477
  161SOL     OW  507   1.039   1.098   0.696
  161SOL    HW1  508   0.969   1.051   0.750
  161SOL    HW2  509   1.098   1.030   0.653
  162SOL     OW  510   1.014   0.236   0.971
  162SOL    HW1  511   1.006   0.200   0.878
  162SOL    HW2  512   1.012   0.160   1.036
  163SOL     OW  513   0.590   1.487   0.491
  163SOL    HW1  514   0.632   1.429   0.421
  163SOL    HW2  515   0.546   1.566   0.447
  164SOL     OW  516   1.709   0.385   1.381
  164SOL    HW1  517   1.782   0.454   1.385
  164SOL    HW2  518   1.737   0.310   1.322
  165SOL     OW  519   0.255   1.348   0.290
  165SOL    HW1  520   0.159   1.349   0.263
  165SOL    HW2  521   0.267   1.401   0.374
  166SOL     OW  522   0.105   1.013   1.726
  166SOL    HW1  523   0.028   0.980   1.780
  166SOL    HW2  524   0.190   0.983   1.768
  167SOL     OW  525   0.672   0.203   1.489
  167SOL    HW1  526   0.762   0.187   1.449
  167SOL    HW2  527   0.680   0.208   1.588
  168SOL     OW  528   0.075   0.345   0.033
  168SOL    HW1  529  -0.017   0.317   0.004
  168SOL    HW2  530   0.106   0.422  -0.023
  169SOL     OW  531   1.440   0.856   1.398
  169SOL    HW1  532   1.383   0.908   1.335
  169SOL    HW2  533   1.536   0.868   1.374
  170SOL     OW  534   0.072   0.166   0.318
  170SOL    HW1  535   0.055   0.249   0.264
  170SOL    HW2  536   0.162   0.129   0.296
  171SOL     OW  537   1.183   1.335   0.119
  171SOL    HW1  538   1.084   1.324   0.121
  171SOL    HW2  539   1.217   1.350   0.212
  172SOL     OW  540   0.613   0.842   1.431
  172SOL    HW1  541   0.669   0.923   1.414
  172SOL    HW2  542   0.672   0.762   1.434
  173SOL     OW  543   1.493   1.767   0.959
  173SOL    HW1  544   1.526   1.831   0.890
  173SOL    HW2  545   1.559   1.761   1.034
  174SOL     OW  546   0.716   0.565   1.708
  174SOL    HW1  547   0.735   0.630   1.782
  174SOL    HW2  548   0.776   0.485   1.717
  175SOL     OW  549   0.390   1.741   1.560
  175SOL    HW1  550   0.299   1.782   1.558
  175SOL    HW2  551   0.383   1.647   1.592
  176SOL     OW  552   1.674   0.883   1.254
  176SOL    HW1  553   1.647   0.794   1.217
  176SOL    HW2  554   1.675   0.951   1.181
  177SOL     OW  555   1.225   0.325   0.449
  177SOL    HW1  556   1.290   0.251   0.438
  177SOL    HW2  557   1.245   0.375   0.533
  178SOL     OW  558   0.594   0.745   0.652
  178SOL    HW1  559   0.644   0.830   0.633
  178SOL    HW2  560   0.506   0.747   0.604
  179SOL     OW  561   1.777   0.342   1.642
  179SOL    HW1  562   1.760   0.373   1.548
  179SOL    HW2  563   1.693   0.305   1.680
  180SOL     OW  564   1.730   0.934   1.517
  180SOL    HW1  565   1.768   1.025   1.532
  180SOL    HW2  566   1.722   0.917   1.418
  181SOL     OW  567   0.859   1.374   0.016
  181SOL    HW1  568   0.813   1.389   0.104
  181SOL    HW2  569   0.903   1.459  -0.014
  182SOL     OW  570   0.661   1.790   0.953
  182SOL    HW1  571   0.615   1.878   0.940
  182SOL    HW2  572   0.760   1.802   0.946
  183SOL     OW  573   0.859   0.956   0.861
  183SOL    HW1  574   0.913   0.887   0.909
  183SOL    HW2  575   0.827   1.025   0.927
  184SOL     OW  576   1.083   0.984   0.087
  184SOL    HW1  577   1.060   1.037   0.005
  184SOL    HW2  578   1.164   0.928   0.068
  185SOL     OW  579   1.861   1.569   0.851
  185SOL    HW1  580   1.790   1.557   0.781
  185SOL    HW2  581   1.862   1.490   0.911
  186SOL     OW  582   0.221   1.314   1.844
  186SOL    HW1  583   0.156   1.241   1.823
  186SOL    HW2  584   0.225   1.328   1.942
  187SOL     OW  585   0.079   1.240   0.653
  187SOL    HW1  586   0.078   1.193   0.741
  187SOL    HW2  587   0.161   1.212   0.602
  188SOL     OW  588   0.672   1.391   1.624
  188SOL    HW1  589   0.594   1.341   1.662
  188SOL    HW2  590   0.669   1.486   1.655
  189SOL     OW  591   1.824   0.192   1.227
  189SOL    HW1  592   1.820   0.102   1.271
  189SOL    HW2  593   1.827   0.181   1.128
  190SOL     OW  594   0.428   0.424   0.520
  190SOL    HW1  595   0.458   0.352   0.458
  190SOL    HW2  596   0.389   0.384   0.603
  191SOL     OW  597   0.317   0.547   1.280
  191SOL    HW1  598   0.355   0.488   1.352
  191SOL    HW2  599   0.357   0.521   1.192
  192SOL     OW  600   0.812   1.586   0.687
  192SOL    HW1  601   0.844   1.596   0.593
  192SOL    HW2  602   0.733   1.524   0.689
  193SOL     OW  603   1.424   0.214   1.112
  193SOL    HW1  604   1.476   0.149   1.167
  193SOL    HW2  605   1.375   0.277   1.173
  194SOL     OW  606   1.001   0.034   1.154
  194SOL    HW1  607   0.938  -0.038   1.123
  194SOL    HW2  608   1.094  -0.002   1.154
  195SOL     OW  609   0.770   1.330   0.301
  195SOL    HW1  610   0.724   1.243   0.318
  195SOL    HW2  611   0.861   1.327   0.342
  196SOL     OW  612   0.618   1.567   1.284
  196SOL    HW1  613   0.613   1.649   1.341
  196SOL    HW2  614   0.707   1.564   1.239
  197SOL     OW  615   1.352   0.052   0.168
  197SOL    HW1  616   1.387   0.011   0.084
  197SOL    HW2  617   1.262   0.014   0.188
  198SOL     OW  618   1.300   0.453   0.691
  198SOL    HW1  619   1.241   0.533   0.695
  198SOL    HW2  620   1.315   0.418   0.784
  199SOL     OW  621   1.593   0.221   0.882
  199SOL    HW1  622   1.509   0.220   0.936
  199SOL    HW2  623   1.595   0.304   0.826
  200SOL     OW  624   0.039   1.077   0.300
  200SOL    HW1  625   0.138   1.066   0.291
  200SOL    HW2  626  -0.001   0.991   0.332
  201SOL     OW  627   0.875   1.646   0.337
  201SOL    HW1  628   0.798   1.611   0.283
  201SOL    HW2  629   0.843   1.717   0.399
  202SOL     OW  630   0.230   0.628   1.975
  202SOL    HW1  631   0.137   0.626   2.012
  202SOL    HW2  632   0.231   0.589   1.883
  203SOL     OW  633   0.019   0.368   2.509
  203SOL    HW1  634  -0.063   0.411   2.548
  203SOL    HW2  635  -0.009   0.295   2.446
  204SOL     OW  636   1.555   1.511   2.565
  204SOL    HW1  637   1.498   1.495   2.646
  204SOL    HW2  638   1.496   1.521   2.485
  205SOL     OW  639   1.135   0.703   2.579
  205SOL    HW1  640   1.192   0.781   2.554
  205SOL    HW2  641   1.075   0.729   2.655
  206SOL     OW  642   1.755   0.607   2.093
  206SOL    HW1  643   1.743   0.594   1.994
  206SOL    HW2  644   1.725   0.526   2.142
  207SOL     OW  645   0.685   1.012   2.527
  207SOL    HW1  646   0.754   0.996   2.597
  207SOL    HW2  647   0.612   1.069   2.565
  208SOL     OW  648   1.603   0.447   2.599
  208SOL    HW1  649   1.529   0.493   2.549
  208SOL    HW2  650   1.654   0.515   2.652
  209SOL     OW  651   0.231   1.713   2.345
  209SOL    HW1  652   0.265   1.790   2.399
  209SOL    HW2  653   0.275   1.713   2.255
  210SOL     OW  654   0.230   1.434   2.400
  210SOL    HW1  655   0.204   1.530   2.400
  210SOL    HW2  656   0.159   1.380   2.445
  211SOL     OW  657   0.240   1.091   2.748
  211SOL    HW1  658   0.254   1.007   2.800
  211SOL    HW2  659   0.185   1.155   2.803
  212SOL     OW  660   0.606   0.964   1.985
  212SOL    HW1  661   0.613   1.048   1.931
  212SOL    HW2  662   0.652   0.977   2.073
  213SOL     OW  663   0.122   0.643   2.425
  213SOL    HW1  664   0.077   0.555   2.442
  213SOL    HW2  665   0.121   0.697   2.509
  214SOL     OW  666   1.842   1.767   2.221
  214SOL    HW1  667   1.896   1.738   2.301
  214SOL    HW2  668   1.872   1.857   2.192
  215SOL     OW  669   0.027   1.596   1.979
  215SOL    HW1  670   0.008   1.500   2.000
  215SOL    HW2  671  -0.006   1.654   2.054
  216SOL     OW  672   1.689   0.922   2.474
  216SOL    HW1  673   1.784   0.893   2.482
  216SOL    HW2  674   1.681   0.987   2.399
  217SOL     OW  675   1.641   1.108   2.294
  217SOL    HW1  676   1.727   1.110   2.242
  217SOL    HW2  677   1.655   1.155   2.382
  218SOL     OW  678   0.613   1.365   2.588
  218SOL    HW1  679   0.564   1.278   2.597
  218SOL    HW2  680   0.590   1.408   2.501
  219SOL     OW  681   0.809   0.004   2.364
  219SOL    HW1  682   0.849   0.095   2.355
  219SOL    HW2  683   0.709   0.012   2.370
  220SOL     OW  684   1.525   0.999   2.052
  220SOL    HW1  685   1.462   0.923   2.065
  220SOL    HW2  686   1.573   1.017   2.138
  221SOL     OW  687   1.466   1.417   2.815
  221SOL    HW1  688   1.407   1.423   2.895
  221SOL    HW2  689   1.451   1.329   2.769
  222SOL     OW  690   1.667   1.714   2.434
  222SOL    HW1  691   1.626   1.691   2.346
  222SOL    HW2  692   1.649   1.640   2.499
  223SOL     OW  693   0.598   0.729   2.132
  223SOL    HW1  694   0.622   0.798   2.064
  223SOL    HW2  695   0.520   0.762   2.186
  224SOL     OW  696   1.281   0.345   2.806
  224SOL    HW1  697   1.195   0.295   2.793
  224SOL    HW2  698   1.343   0.291   2.862
  225SOL     OW  699   1.576   1.662   2.169
  225SOL    HW1  700   1.665   1.708   2.172
  225SOL    HW2  701   1.555   1.638   2.074
  226SOL     OW  702   1.041   0.701   2.291
  226SOL    HW1  703   1.067   0.697   2.387
  226SOL    HW2  704   0.956   0.650   2.277
  227SOL     OW  705   0.076   0.811   2.651
  227SOL    HW1  706   0.175   0.799   2.660
  227SOL    HW2  707   0.052   0.906   2.672
  228SOL     OW  708   0.865   0.348   2.057
  228SOL    HW1  709   0.924   0.411   2.008
  228SOL    HW2  710   0.884   0.254   2.028
  229SOL     OW  711   1.362   1.144   2.407
  229SOL    HW1  712   1.445   1.115   2.359
  229SOL    HW2  713   1.313   1.211   2.351
  230SOL     OW  714   1.008   1.456   2.339
  230SOL    HW1  715   0.962   1.528   2.287
  230SOL    HW2  716   1.004   1.476   2.437
  231SOL     OW  717   0.351   1.801   2.715
  231SOL    HW1  718   0.401   1.715   2.721
  231SOL    HW2  719   0.416   1.878   2.712
  232SOL     OW  720   1.795   1.066   2.735
  232SOL    HW1  721   1.733   1.051   2.659
  232SOL    HW2  722   1.743   1.077   2.820
  233SOL     OW  723   0.321   0.943   2.104
  233SOL    HW1  724   0.403   0.982   2.062
  233SOL    HW2  725   0.294   0.861   2.055
  234SOL     OW  726   1.458   0.735   2.590
  234SOL    HW1  727   1.453   0.670   2.665
  234SOL    HW2  728   1.538   0.794   2.603
  235SOL     OW  729   1.111   1.776   2.099
  235SOL    HW1  730   1.051   1.714   2.149
  235SOL    HW2  731   1.142   1.732   2.014
  236SOL     OW  732   1.632   1.377   1.943
  236SOL    HW1  733   1.600   1.471   1.933
  236SOL    HW2  734   1.556   1.314   1.931
  237SOL     OW  735   0.464   1.743   2.185
  237SOL    HW1  736   0.497   1.782   2.271
  237SOL    HW2  737   0.540   1.736   2.120
  238SOL     OW  738   1.400   0.107   2.288
  238SOL    HW1  739   1.376   0.070   2.198
  238SOL    HW2  740   1.499   0.123   2.292
  239SOL     OW  741   0.382   0.700   2.342
  239SOL    HW1  742   0.427   0.610   2.339
  239SOL    HW2  743   0.288   0.689   2.375
  240SOL     OW  744   0.614   0.122   1.979
  240SOL    HW1  745   0.712   0.100   1.986
  240SOL    HW2  746   0.583   0.105   1.886
  241SOL     OW  747   0.539   0.064   2.374
  241SOL    HW1  748   0.458   0.065   2.432
  241SOL    HW2  749   0.542   0.147   2.319
  242SOL     OW  750   1.434   1.188   1.903
  242SOL    HW1  751   1.466   1.112   1.960
  242SOL    HW2  752   1.342   1.215   1.933
  243SOL     OW  753   0.297   0.035   2.033
  243SOL    HW1  754   0.346   0.119   2.012
  243SOL    HW2  755   0.359  -0.030   2.078
  244SOL     OW  756   0.935   0.236   2.342
  244SOL    HW1  757   0.887   0.277   2.264
  244SOL    HW2  758   1.034   0.234   2.323
  245SOL     OW  759   1.227   1.570   2.655
  245SOL    HW1  760   1.248   1.644   2.590
  245SOL    HW2  761   1.295   1.570   2.728
  246SOL     OW  762   0.459   1.152   2.603
  246SOL    HW1  763   0.388   1.125   2.668
  246SOL    HW2  764   0.433   1.124   2.510
  247SOL     OW  765   1.271   1.797   2.453
  247SOL    HW1  766   1.315   1.861   2.389
  247SOL    HW2  767   1.221   1.849   2.523
  248SOL     OW  768   1.032   0.549   1.878
  248SOL    HW1  769   0.991   0.631   1.839
  248SOL    HW2  770   1.096   0.575   1.951
  249SOL     OW  771   0.866   0.454   2.504
  249SOL    HW1  772   0.834   0.526   2.442
  249SOL    HW2  773   0.890   0.373   2.451
  250SOL     OW  774   1.017   0.039   2.615
  250SOL    HW1  775   0.945   0.044   2.546
  250SOL    HW2  776   0.993  -0.030   2.684
  251SOL     OW  777   1.857   0.833   2.239
  251SOL    HW1  778   1.899   0.769   2.303
  251SOL    HW2  779   1.819   0.782   2.161
  252SOL     OW  780   0.488   1.385   2.036
  252SOL    HW1  781   0.401   1.370   2.083
  252SOL    HW2  782   0.471   1.411   1.941
  253SOL     OW  783   1.664   1.280   2.519
  253SOL    HW1  784   1.763   1.288   2.533
  253SOL    HW2  785   1.619   1.364   2.550
  254SOL     OW  786   1.390   0.575   1.940
  254SOL    HW1  787   1.336   0.554   2.021
  254SOL    HW2  788   1.481   0.534   1.949
  255SOL     OW  789   0.527   0.256   2.190
  255SOL    HW1  790   0.554   0.197   2.115
  255SOL    HW2  791   0.527   0.351   2.159
  256SOL     OW  792   0.705   1.050   2.230
  256SOL    HW1  793   0.691   1.057   2.329
  256SOL    HW2  794   0.789   0.999   2.212
  257SOL     OW  795   0.367   1.100   2.363
  257SOL    HW1  796   0.360   1.183   2.307
  257SOL    HW2  797   0.371   1.020   2.303
  258SOL     OW  798   0.566   0.537   2.727
  258SOL    HW1  799   0.578   0.603   2.653
  258SOL    HW2  800   0.612   0.571   2.810
  259SOL     OW  801   1.252   1.348   2.250
  259SOL    HW1  802   1.302   1.425   2.290
  259SOL    HW2  803   1.157   1.350   2.282
  260SOL     OW  804   1.582   0.639   2.334
  260SOL    HW1  805   1.551   0.700   2.407
  260SOL    HW2  806   1.632   0.691   2.265
  261SOL     OW  807   1.209   0.525   2.137
  261SOL    HW1  808   1.222   0.441   2.191
  261SOL    HW2  809   1.180   0.599   2.197
  262SOL     OW  810   0.732   0.634   2.926
  262SOL    HW1  811   0.791   0.608   2.850
  262SOL    HW2  812   0.704   0.730   2.915
  263SOL     OW  813   0.307   0.063   2.480
  263SOL    HW1  814   0.296   0.157   2.513
  263SOL    HW2  815   0.302   0.000   2.557
  264SOL     OW  816   1.622   0.367   2.236
  264SOL    HW1  817   1.624   0.291   2.300
  264SOL    HW2  818   1.574   0.444   2.276
  265SOL     OW  819   1.540   0.274   1.987
  265SOL    HW1  820   1.479   0.199   2.010
  265SOL    HW2  821   1.562   0.326   2.070
  266SOL     OW  822   1.303   0.838   1.904
  266SOL    HW1  823   1.337   0.745   1.919
  266SOL    HW2  824   1.321   0.865   1.809
  267SOL     OW  825   1.068   1.333   2.711
  267SOL    HW1  826   1.075   1.249   2.656
  267SOL    HW2  827   1.130   1.402   2.675
  268SOL     OW  828   0.319   0.810   2.811
  268SOL    HW1  829   0.412   0.846   2.816
  268SOL    HW2  830   0.313   0.725   2.863
  269SOL     OW  831   0.008   1.326   2.062
  269SOL    HW1  832  -0.085   1.347   2.031
  269SOL    HW2  833   0.018   1.227   2.075
  270SOL     OW  834   0.088   1.801   2.789
  270SOL    HW1  835   0.046   1.715   2.762
  270SOL    HW2  836   0.182   1.804   2.755
  271SOL     OW  837   0.504   1.568   2.772
  271SOL    HW1  838   0.570   1.642   2.781
  271SOL    HW2  839   0.548   1.489   2.730
  272SOL     OW  840   0.815   0.572   2.187
  272SOL    HW1  841   0.822   0.483   2.141
  272SOL    HW2  842   0.721   0.606   2.179
  273SOL     OW  843   0.473   0.500   2.053
  273SOL    HW1  844   0.534   0.580   2.057
  273SOL    HW2  845   0.378   0.531   2.060
  274SOL     OW  846   1.302   0.855   2.171
  274SOL    HW1  847   1.216   0.824   2.213
  274SOL    HW2  848   1.298   0.841   2.072
  275SOL     OW  849   1.759   1.747   3.016
  275SOL    HW1  850   1.820   1.777   2.943
  275SOL    HW2  851   1.721   1.658   2.994
  276SOL     OW  852   1.726   0.135   2.385
  276SOL    HW1  853   1.799   0.118   2.318
  276SOL    HW2  854   1.695   0.048   2.423
  277SOL     OW  855   1.388   1.573   2.339
  277SOL    HW1  856   1.455   1.585   2.265
  277SOL    HW2  857   1.348   1.662   2.362
  278SOL     OW  858   1.280   0.927   2.534
  278SOL    HW1  859   1.340   0.846   2.536
  278SOL    HW2  860   1.320   0.996   2.474
  279SOL     OW  861   0.672   1.616   2.016
  279SOL    HW1  862   0.681   1.626   1.917
  279SOL    HW2  863   0.632   1.527   2.037
  280SOL     OW  864   1.841   0.175   2.825
  280SOL    HW1  865   1.880   0.090   2.789
  280SOL    HW2  866   1.743   0.177   2.806
  281SOL     OW  867   0.263   0.326   2.582
  281SOL    HW1  868   0.184   0.377   2.548
  281SOL    HW2  869   0.254   0.311   2.680
  282SOL     OW  870   1.194   1.612   1.893
  282SOL    HW1  871   1.200   1.519   1.930
  282SOL    HW2  872   1.135   1.612   1.813
  283SOL     OW  873   0.916   0.910   2.153
  283SOL    HW1  874   0.979   0.948   2.085
  283SOL    HW2  875   0.956   0.827   2.192
  284SOL     OW  876   1.504   1.607   1.906
  284SOL    HW1  877   1.412   1.644   1.913
  284SOL    HW2  878   1.542   1.627   1.816
  285SOL     OW  879   1.039   1.098   2.558
  285SOL    HW1  880   0.969   1.051   2.612
  285SOL    HW2  881   1.098   1.030   2.515
  286SOL     OW  882   0.590   1.487   2.353
  286SOL    HW1  883   0.632   1.429   2.283
  286SOL    HW2  884   0.546   1.566   2.309
  287SOL     OW  885   0.255   1.348   2.152
  287SOL    HW1  886   0.159   1.349   2.125
  287SOL    HW2  887   0.267   1.401   2.236
  288SOL     OW  888   0.075   0.345   1.895
  288SOL    HW1  889  -0.017   0.317   1.866
  288SOL    HW2  890   0.106   0.422   1.839
  289SOL     OW  891   0.072   0.166   2.180
  289SOL    HW1  892   0.055   0.249   2.126
  289SOL    HW2  893   0.162   0.129   2.158
  290SOL     OW  894   1.183   1.335   1.981
  290SOL    HW1  895   1.084   1.324   1.983
  290SOL    HW2  896   1.217   1.350   2.074
  291SOL     OW  897   1.674   0.883   3.116
  291SOL    HW1  898   1.647   0.794   3.079
  291SOL    HW2  899   1.675   0.951   3.043
  292SOL     OW  900   1.225   0.325   2.311
  292SOL    HW1  901   1.290   0.251   2.300
  292SOL    HW2  902   1.245   0.375   2.395
  293SOL     OW  903   0.594   0.745   2.514
  293SOL    HW1  904   0.644   0.830   2.495
  293SOL    HW2  905   0.506   0.747   2.466
  294SOL     OW  906   0.859   1.374   1.878
  294SOL    HW1  907   0.813   1.389   1.966
  294SOL    HW2  908   0.903   1.459   1.848
  295SOL     OW  909   0.661   1.790   2.815
  295SOL    HW1  910   0.615   1.878   2.802
  295SOL    HW2  911   0.760   1.802   2.808
  296SOL     OW  912   0.859   0.956   2.723
  296SOL    HW1  913   0.913   0.887   2.771
  296SOL    HW2  914   0.827   1.025   2.789
  297SOL     OW  915   1.083   0.984   1.949
  297SOL    HW1  916   1.060   1.037   1.867
  297SOL    HW2  917   1.164   0.928   1.930
  298SOL     OW  918   1.861   1.569   2.713
  298SOL    HW1  919   1.790   1.557   2.643
  298SOL    HW2  920   1.862   1.490   2.773
  299SOL     OW  921   0.079   1.240   2.515
  299SOL    HW1  922   0.078   1.193   2.603
  299SOL    HW2  923   0.161   1.212   2.464
  300SOL     OW  924   1.824   0.192   3.089
  300SOL    HW1  925   1.820   0.102   3.133
  300SOL    HW2  926   1.827   0.181   2.990
  301SOL     OW  927   0.428   0.424   2.382
  301SOL    HW1  928   0.458   0.352   2.320
  301SOL    HW2  929   0.389   0.384   2.465
  302SOL     OW  930   0.812   1.586   2.549
  302SOL    HW1  931   0.844   1.596   2.455
  302SOL    HW2  932   0.733   1.524   2.551
  303SOL     OW  933   0.770   1.330   2.163
  303SOL    HW1  934   0.724   1.243   2.180
  303SOL    HW2  935   0.861   1.327   2.204
  304SOL     OW  936   1.352   0.052   2.030
  304SOL    HW1  937   1.387   0.011   1.946
  304SOL    HW2  938   1.262   0.014   2.050
  305SOL     OW  939   1.300   0.453   2.553
  305SOL    HW1  940   1.241   0.533   2.557
  305SOL    HW2  941   1.315   0.418   2.646
  306SOL     OW  942   1.593   0.221   2.744
  306SOL    HW1  943   1.509   0.220   2.798
  306SOL    HW2  944   1.595   0.304   2.688
  307SOL     OW  945   0.039   1.077   2.162
  307SOL    HW1  946   0.138   1.066   2.153
  307SOL    HW2  947  -0.001   0.991   2.194
  308SOL     OW  948   0.875   1.646   2.199
  308SOL    HW1  949   0.798   1.611   2.145
  308SOL    HW2  950   0.843   1.717   2.261
  309SOL     OW  951   0.230   2.490   0.113
  309SOL    HW1  952   0.137   2.488   0.150
  309SOL    HW2  953   0.231   2.451   0.021
  310SOL     OW  954   0.225   2.137   0.996
  310SOL    HW1  955   0.260   2.120   1.088
  310SOL    HW2  956   0.137   2.092   0.984
  311SOL     OW  957   0.019   2.230   0.647
  311SOL    HW1  958  -0.063   2.273   0.686
  311SOL    HW2  959  -0.009   2.157   0.584
  312SOL     OW  960   1.135   2.565   0.717
  312SOL    HW1  961   1.192   2.643   0.692
  312SOL    HW2  962   1.075   2.591   0.793
  313SOL     OW  963   1.755   2.469   0.231
  313SOL    HW1  964   1.743   2.456   0.132
  313SOL    HW2  965   1.725   2.388   0.280
  314SOL     OW  966   0.850   2.660   1.823
  314SOL    HW1  967   0.846   2.736   1.888
  314SOL    HW2  968   0.872   2.696   1.732
  315SOL     OW  969   0.685   2.874   0.665
  315SOL    HW1  970   0.754   2.858   0.735
  315SOL    HW2  971   0.612   2.931   0.703
  316SOL     OW  972   0.438   2.254   1.499
  316SOL    HW1  973   0.520   2.198   1.508
  316SOL    HW2  974   0.357   2.196   1.503
  317SOL     OW  975   1.603   2.309   0.737
  317SOL    HW1  976   1.529   2.355   0.687
  317SOL    HW2  977   1.654   2.377   0.790
  318SOL     OW  978   1.594   1.976   1.480
  318SOL    HW1  979   1.576   2.043   1.408
  318SOL    HW2  980   1.591   2.022   1.569
  319SOL     OW  981   0.122   2.505   0.563
  319SOL    HW1  982   0.077   2.417   0.580
  319SOL    HW2  983   0.121   2.559   0.647
  320SOL     OW  984   0.113   2.599   1.597
  320SOL    HW1  985   0.201   2.586   1.642
  320SOL    HW2  986   0.100   2.696   1.575
  321SOL     OW  987   0.809   1.866   0.502
  321SOL    HW1  988   0.849   1.957   0.493
  321SOL    HW2  989   0.709   1.874   0.508
  322SOL     OW  990   1.525   2.861   0.190
  322SOL    HW1  991   1.462   2.785   0.203
  322SOL    HW2  992   1.573   2.879   0.276
  323SOL     OW  993   0.317   2.113   1.801
  323SOL    HW1  994   0.388   2.184   1.807
  323SOL    HW2  995   0.229   2.152   1.829
  324SOL     OW  996   0.598   2.591   0.270
  324SOL    HW1  997   0.622   2.660   0.202
  324SOL    HW2  998   0.520   2.624   0.324
  325SOL     OW  999   1.281   2.207   0.944
  325SOL    HW1 1000   1.195   2.157   0.931
  325SOL    HW2 1001   1.343   2.153   1.000
  326SOL     OW 1002   0.807   2.467   1.465
  326SOL    HW1 1003   0.760   2.464   1.554
  326SOL    HW2 1004   0.756   2.412   1.399
  327SOL     OW 1005   1.394   2.331   1.674
  327SOL    HW1 1006   1.374   2.374   1.762
  327SOL    HW2 1007   1.472   2.269   1.683
  328SOL     OW 1008   0.973   2.752   1.572
  328SOL    HW1 1009   1.019   2.668   1.543
  328SOL    HW2 1010   0.917   2.786   1.497
  329SOL     OW 1011   0.991   2.272   1.242
  329SOL    HW1 1012   0.914   2.306   1.296
  329SOL    HW2 1013   0.957   2.221   1.163
  330SOL     OW 1014   1.041   2.563   0.429
  330SOL    HW1 1015   1.067   2.559   0.525
  330SOL    HW2 1016   0.956   2.512   0.415
  331SOL     OW 1017   0.076   2.673   0.789
  331SOL    HW1 1018   0.175   2.661   0.798
  331SOL    HW2 1019   0.052   2.768   0.810
  332SOL     OW 1020   0.865   2.210   0.195
  332SOL    HW1 1021   0.924   2.273   0.146
  332SOL    HW2 1022   0.884   2.116   0.166
  333SOL     OW 1023   1.719   2.447   1.831
  333SOL    HW1 1024   1.693   2.536   1.795
  333SOL    HW2 1025   1.717   2.379   1.758
  334SOL     OW 1026   0.550   2.058   0.885
  334SOL    HW1 1027   0.545   2.053   0.985
  334SOL    HW2 1028   0.552   2.154   0.856
  335SOL     OW 1029   1.458   2.597   0.728
  335SOL    HW1 1030   1.453   2.532   0.803
  335SOL    HW2 1031   1.538   2.656   0.741
  336SOL     OW 1032   0.202   2.147   1.498
  336SOL    HW1 1033   0.122   2.207   1.485
  336SOL    HW2 1034   0.192   2.098   1.584
  337SOL     OW 1035   1.400   1.969   0.426
  337SOL    HW1 1036   1.376   1.932   0.336
  337SOL    HW2 1037   1.499   1.985   0.430
  338SOL     OW 1038   0.382   2.562   0.480
  338SOL    HW1 1039   0.427   2.472   0.477
  338SOL    HW2 1040   0.288   2.551   0.513
  339SOL     OW 1041   1.547   2.084   1.729
  339SOL    HW1 1042   1.542   2.121   1.821
  339SOL    HW2 1043   1.475   2.015   1.717
  340SOL     OW 1044   0.781   2.126   1.749
  340SOL    HW1 1045   0.848   2.065   1.792
  340SOL    HW2 1046   0.708   2.145   1.814
  341SOL     OW 1047   1.351   2.452   1.433
  341SOL    HW1 1048   1.379   2.409   1.518
  341SOL    HW2 1049   1.376   2.548   1.434
  342SOL     OW 1050   0.922   2.365   0.899
  342SOL    HW1 1051   0.897   2.356   0.803
  342SOL    HW2 1052   0.970   2.283   0.930
  343SOL     OW 1053   0.539   1.926   0.512
  343SOL    HW1 1054   0.458   1.927   0.570
  343SOL    HW2 1055   0.542   2.009   0.457
  344SOL     OW 1056   0.297   1.897   0.171
  344SOL    HW1 1057   0.346   1.981   0.150
  344SOL    HW2 1058   0.359   1.832   0.216
  345SOL     OW 1059   0.935   2.098   0.480
  345SOL    HW1 1060   0.887   2.139   0.402
  345SOL    HW2 1061   1.034   2.096   0.461
  346SOL     OW 1062   1.076   2.545   1.464
  346SOL    HW1 1063   0.996   2.484   1.467
  346SOL    HW2 1064   1.157   2.492   1.440
  347SOL     OW 1065   1.032   2.411   0.016
  347SOL    HW1 1066   0.991   2.493  -0.023
  347SOL    HW2 1067   1.096   2.437   0.089
  348SOL     OW 1068   0.078   2.418   1.386
  348SOL    HW1 1069   0.170   2.417   1.345
  348SOL    HW2 1070   0.072   2.492   1.453
  349SOL     OW 1071   0.561   2.084   1.147
  349SOL    HW1 1072   0.599   2.000   1.184
  349SOL    HW2 1073   0.473   2.103   1.191
  350SOL     OW 1074   0.866   2.316   0.642
  350SOL    HW1 1075   0.834   2.388   0.580
  350SOL    HW2 1076   0.890   2.235   0.589
  351SOL     OW 1077   1.017   1.901   0.753
  351SOL    HW1 1078   0.945   1.906   0.684
  351SOL    HW2 1079   0.993   1.832   0.822
  352SOL     OW 1080   1.466   2.452   0.992
  352SOL    HW1 1081   1.436   2.357   0.999
  352SOL    HW2 1082   1.539   2.468   1.058
  353SOL     OW 1083   1.857   2.695   0.377
  353SOL    HW1 1084   1.899   2.631   0.441
  353SOL    HW2 1085   1.819   2.644   0.299
  354SOL     OW 1086   1.390   2.437   0.078
  354SOL    HW1 1087   1.336   2.416   0.159
  354SOL    HW2 1088   1.481   2.396   0.087
  355SOL     OW 1089   0.527   2.118   0.328
  355SOL    HW1 1090   0.554   2.059   0.253
  355SOL    HW2 1091   0.527   2.213   0.297
  356SOL     OW 1092   1.638   2.961   1.079
  356SOL    HW1 1093   1.643   3.042   1.138
  356SOL    HW2 1094   1.552   2.963   1.028
  357SOL     OW 1095   0.915   1.951   1.402
  357SOL    HW1 1096   0.940   1.931   1.307
  357SOL    HW2 1097   0.987   2.007   1.444
  358SOL     OW 1098   0.410   2.675   1.251
  358SOL    HW1 1099   0.496   2.687   1.301
  358SOL    HW2 1100   0.368   2.588   1.278
  359SOL     OW 1101   1.274   2.248   1.262
  359SOL    HW1 1102   1.295   2.322   1.326
  359SOL    HW2 1103   1.185   2.265   1.219
  360SOL     OW 1104   0.566   2.399   0.865
  360SOL    HW1 1105   0.578   2.465   0.791
  360SOL    HW2 1106   0.612   2.433   0.948
  361SOL     OW 1107   1.582   2.501   0.472
  361SOL    HW1 1108   1.551   2.562   0.545
  361SOL    HW2 1109   1.632   2.553   0.403
  362SOL     OW 1110   0.402   2.613   1.598
  362SOL    HW1 1111   0.470   2.668   1.551
  362SOL    HW2 1112   0.442   2.525   1.625
  363SOL     OW 1113   1.587   2.641   1.670
  363SOL    HW1 1114   1.495   2.679   1.665
  363SOL    HW2 1115   1.647   2.688   1.605
  364SOL     OW 1116   1.013   1.967   1.770
  364SOL    HW1 1117   1.019   2.052   1.718
  364SOL    HW2 1118   1.045   1.891   1.713
  365SOL     OW 1119   0.504   1.912   1.740
  365SOL    HW1 1120   0.462   1.855   1.670
  365SOL    HW2 1121   0.438   1.981   1.772
  366SOL     OW 1122   0.573   2.732   1.029
  366SOL    HW1 1123   0.617   2.821   1.020
  366SOL    HW2 1124   0.510   2.732   1.106
  367SOL     OW 1125   1.360   2.724   1.045
  367SOL    HW1 1126   1.285   2.724   0.979
  367SOL    HW2 1127   1.397   2.632   1.054
  368SOL     OW 1128   1.209   2.387   0.275
  368SOL    HW1 1129   1.222   2.303   0.329
  368SOL    HW2 1130   1.180   2.461   0.335
  369SOL     OW 1131   0.307   2.075   1.231
  369SOL    HW1 1132   0.284   2.112   1.321
  369SOL    HW2 1133   0.277   1.980   1.225
  370SOL     OW 1134   0.732   2.496   1.064
  370SOL    HW1 1135   0.791   2.470   0.988
  370SOL    HW2 1136   0.704   2.592   1.053
  371SOL     OW 1137   1.728   2.797   1.854
  371SOL    HW1 1138   1.682   2.790   1.765
  371SOL    HW2 1139   1.666   2.841   1.920
  372SOL     OW 1140   0.307   1.925   0.618
  372SOL    HW1 1141   0.296   2.019   0.651
  372SOL    HW2 1142   0.302   1.862   0.695
  373SOL     OW 1143   1.622   2.229   0.374
  373SOL    HW1 1144   1.624   2.153   0.438
  373SOL    HW2 1145   1.574   2.306   0.414
  374SOL     OW 1146   1.023   2.628   0.966
  374SOL    HW1 1147   1.038   2.649   1.062
  374SOL    HW2 1148   0.993   2.533   0.957
  375SOL     OW 1149   0.350   2.760   1.804
  375SOL    HW1 1150   0.426   2.804   1.852
  375SOL    HW2 1151   0.385   2.713   1.722
  376SOL     OW 1152   1.540   2.136   0.125
  376SOL    HW1 1153   1.479   2.061   0.148
  376SOL    HW2 1154   1.562   2.188   0.208
  377SOL     OW 1155   1.303   2.700   0.042
  377SOL    HW1 1156   1.337   2.607   0.057
  377SOL    HW2 1157   1.321   2.727  -0.053
  378SOL     OW 1158   0.319   2.672   0.949
  378SOL    HW1 1159   0.412   2.708   0.954
  378SOL    HW2 1160   0.313   2.587   1.001
  379SOL     OW 1161   0.339   2.371   1.006
  379SOL    HW1 1162   0.287   2.288   0.989
  379SOL    HW2 1163   0.416   2.376   0.942
  380SOL     OW 1164   1.138   2.242   1.678
  380SOL    HW1 1165   1.093   2.305   1.742
  380SOL    HW2 1166   1.231   2.273   1.661
  381SOL     OW 1167   1.160   2.069   1.477
  381SOL    HW1 1168   1.160   2.133   1.554
  381SOL    HW2 1169   1.188   2.117   1.394
  382SOL     OW 1170   1.002   2.658   1.238
  382SOL    HW1 1171   1.043   2.626   1.324
  382SOL    HW2 1172   0.906   2.631   1.235
  383SOL     OW 1173   0.040   2.406   1.114
  383SOL    HW1 1174   0.125   2.373   1.073
  383SOL    HW2 1175   0.053   2.421   1.212
  384SOL     OW 1176   0.189   2.382   1.722
  384SOL    HW1 1177   0.248   2.342   1.652
  384SOL    HW2 1178   0.131   2.453   1.681
  385SOL     OW 1179   0.815   2.434   0.325
  385SOL    HW1 1180   0.822   2.345   0.279
  385SOL    HW2 1181   0.721   2.468   0.317
  386SOL     OW 1182   1.657   2.466   1.206
  386SOL    HW1 1183   1.619   2.397   1.268
  386SOL    HW2 1184   1.739   2.430   1.162
  387SOL     OW 1185   0.671   2.326   1.269
  387SOL    HW1 1186   0.637   2.237   1.239
  387SOL    HW2 1187   0.697   2.380   1.189
  388SOL     OW 1188   0.473   2.362   0.191
  388SOL    HW1 1189   0.534   2.442   0.195
  388SOL    HW2 1190   0.378   2.393   0.198
  389SOL     OW 1191   1.347   2.921   1.234
  389SOL    HW1 1192   1.371   2.858   1.160
  389SOL    HW2 1193   1.257   2.961   1.216
  390SOL     OW 1194   1.302   2.717   0.309
  390SOL    HW1 1195   1.216   2.686   0.351
  390SOL    HW2 1196   1.298   2.703   0.210
  391SOL     OW 1197   0.903   1.948   0.133
  391SOL    HW1 1198   0.954   1.949   0.047
  391SOL    HW2 1199   0.959   1.906   0.204
  392SOL     OW 1200   1.726   1.997   0.523
  392SOL    HW1 1201   1.799   1.980   0.456
  392SOL    HW2 1202   1.695   1.910   0.561
  393SOL     OW 1203   1.280   2.789   0.672
  393SOL    HW1 1204   1.340   2.708   0.674
  393SOL    HW2 1205   1.320   2.858   0.612
  394SOL     OW 1206   1.841   2.037   0.963
  394SOL    HW1 1207   1.880   1.952   0.927
  394SOL    HW2 1208   1.743   2.039   0.944
  395SOL     OW 1209   0.263   2.188   0.720
  395SOL    HW1 1210   0.184   2.239   0.686
  395SOL    HW2 1211   0.254   2.173   0.818
  396SOL     OW 1212   1.014   2.098   0.971
  396SOL    HW1 1213   1.006   2.062   0.878
  396SOL    HW2 1214   1.012   2.022   1.036
  397SOL     OW 1215   1.709   2.247   1.381
  397SOL    HW1 1216   1.782   2.316   1.385
  397SOL    HW2 1217   1.737   2.172   1.322
  398SOL     OW 1218   0.105   2.875   1.726
  398SOL    HW1 1219   0.028   2.842   1.780
  398SOL    HW2 1220   0.190   2.845   1.768
  399SOL     OW 1221   0.672   2.065   1.489
  399SOL    HW1 1222   0.762   2.049   1.449
  399SOL    HW2 1223   0.680   2.070   1.588
  400SOL     OW 1224   0.075   2.207   0.033
  400SOL    HW1 1225  -0.017   2.179   0.004
  400SOL    HW2 1226   0.106   2.284  -0.023
  401SOL     OW 1227   1.440   2.718   1.398
  401SOL    HW1 1228   1.383   2.770   1.335
  401SOL    HW2 1229   1.536   2.730   1.374
  402SOL     OW 1230   0.072   2.028   0.318
  402SOL    HW1 1231   0.055   2.111   0.264
  402SOL    HW2 1232   0.162   1.991   0.296
  403SOL     OW 1233   0.613   2.704   1.431
  403SOL    HW1 1234   0.669   2.785   1.414
  403SOL    HW2 1235   0.672   2.624   1.434
  404SOL     OW 1236   0.716   2.427   1.708
  404SOL    HW1 1237   0.735   2.492   1.782
  404SOL    HW2 1238   0.776   2.347   1.717
  405SOL     OW 1239   1.674   2.745   1.254
  405SOL    HW1 1240   1.647   2.656   1.217
  405SOL    HW2 1241   1.675   2.813   1.181
  406SOL     OW 1242   1.225   2.187   0.449
  406SOL    HW1 1243   1.290   2.113   0.438
  406SOL    HW2 1244   1.245   2.237   0.533
  407SOL     OW 1245   0.594   2.607   0.652
  407SOL    HW1 1246   0.644   2.692   0.633
  407SOL    HW2 1247   0.506   2.609   0.604
  408SOL     OW 1248   1.777   2.204   1.642
  408SOL    HW1 1249   1.760   2.235   1.548
  408SOL    HW2 1250   1.693   2.167   1.680
  409SOL     OW 1251   1.730   2.796   1.517
  409SOL    HW1 1252   1.768   2.887   1.532
  409SOL    HW2 1253   1.722   2.779   1.418
  410SOL     OW 1254   1.824   2.054   1.227
  410SOL    HW1 1255   1.820   1.964   1.271
  410SOL    HW2 1256   1.827   2.043   1.128
  411SOL     OW 1257   0.428   2.286   0.520
  411SOL    HW1 1258   0.458   2.214   0.458
  411SOL    HW2 1259   0.389   2.246   0.603
  412SOL     OW 1260   0.317   2.409   1.280
  412SOL    HW1 1261   0.355   2.350   1.352
  412SOL    HW2 1262   0.357   2.383   1.192
  413SOL     OW 1263   1.424   2.076   1.112
  413SOL    HW1 1264   1.476   2.011   1.167
  413SOL    HW2 1265   1.375   2.139   1.173
  414SOL     OW 1266   1.001   1.896   1.154
  414SOL    HW1 1267   0.938   1.824   1.123
  414SOL    HW2 1268   1.094   1.860   1.154
  415SOL     OW 1269   1.352   1.914   0.168
  415SOL    HW1 1270   1.387   1.873   0.084
  415SOL    HW2 1271   1.262   1.876   0.188
  416SOL     OW 1272   1.300   2.315   0.691
  416SOL    HW1 1273   1.241   2.395   0.695
  416SOL    HW2 1274   1.315   2.280   0.784
  417SOL     OW 1275   1.593   2.083   0.882
  417SOL    HW1 1276   1.509   2.082   0.936
  417SOL    HW2 1277   1.595   2.166   0.826
  418SOL     OW 1278   0.230   2.490   1.975
  418SOL    HW1 1279   0.137   2.488   2.012
  418SOL    HW2 1280   0.231   2.451   1.883
  419SOL     OW 1281   0.019   2.230   2.509
  419SOL    HW1 1282  -0.063   2.273   2.548
  419SOL    HW2 1283  -0.009   2.157   2.446
  420SOL     OW 1284   1.135   2.565   2.579
  420SOL    HW1 1285   1.192   2.643   2.554
  420SOL    HW2 1286   1.075   2.591   2.655
  421SOL     OW 1287   1.755   2.469   2.093
  421SOL    HW1 1288   1.743   2.456   1.994
  421SOL    HW2 1289   1.725   2.388   2.142
  422SOL     OW 1290   0.685   2.874   2.527
  422SOL    HW1 1291   0.754   2.858   2.597
  422SOL    HW2 1292   0.612   2.931   2.565
  423SOL     OW 1293   1.603   2.309   2.599
  423SOL    HW1 1294   1.529   2.355   2.549
  423SOL    HW2 1295   1.654   2.377   2.652
  424SOL     OW 1296   0.240   2.953   2.748
  424SOL    HW1 1297   0.254   2.869   2.800
  424SOL    HW2 1298   0.185   3.017   2.803
  425SOL     OW 1299   0.122   2.505   2.425
  425SOL    HW1 1300   0.077   2.417   2.442
  425SOL    HW2 1301   0.121   2.559   2.509
  426SOL     OW 1302   0.809   1.866   2.364
  426SOL    HW1 1303   0.849   1.957   2.355
  426SOL    HW2 1304   0.709   1.874   2.370
  427SOL     OW 1305   1.525   2.861   2.052
  427SOL    HW1 1306   1.462   2.785   2.065
  427SOL    HW2 1307   1.573   2.879   2.138
  428SOL     OW 1308   0.598   2.591   2.132
  428SOL    HW1 1309   0.622   2.660   2.064
  428SOL    HW2 1310   0.520   2.624   2.186
  429SOL     OW 1311   1.281   2.207   2.806
  429SOL    HW1 1312   1.195   2.157   2.793
  429SOL    HW2 1313   1.343   2.153   2.862
  430SOL     OW 1314   1.041   2.563   2.291
  430SOL    HW1 1315   1.067   2.559   2.387
  430SOL    HW2 1316   0.956   2.512   2.277
  431SOL     OW 1317   0.076   2.673   2.651
  431SOL    HW1 1318   0.175   2.661   2.660
  431SOL    HW2 1319   0.052   2.768   2.672
  432SOL     OW 1320   0.865   2.210   2.057
  432SOL    HW1 1321   0.924   2.273   2.008
  432SOL    HW2 1322   0.884   2.116   2.028
  433SOL     OW 1323   0.550   2.058   2.747
  433SOL    HW1 1324   0.545   2.053   2.847
  433SOL    HW2 1325   0.552   2.154   2.718
  434SOL     OW 1326   1.458   2.597   2.590
  434SOL    HW1 1327   1.453   2.532   2.665
  434SOL    HW2 1328   1.538   2.656   2.603
  435SOL     OW 1329   1.400   1.969   2.288
  435SOL    HW1 1330   1.376   1.932   2.198
  435SOL    HW2 1331   1.499   1.985   2.292
  436SOL     OW 1332   0.382   2.562   2.342
  436SOL    HW1 1333   0.427   2.472   2.339
  436SOL    HW2 1334   0.288   2.551   2.375
  437SOL     OW 1335   0.614   1.984   1.979
  437SOL    HW1 1336   0.712   1.962   1.986
  437SOL    HW2 1337   0.583   1.967   1.886
  438SOL     OW 1338   0.539   1.926   2.374
  438SOL    HW1 1339   0.458   1.927   2.432
  438SOL    HW2 1340   0.542   2.009   2.319
  439SOL     OW 1341   0.297   1.897   2.033
  439SOL    HW1 1342   0.346   1.981   2.012
  439SOL    HW2 1343   0.359   1.832   2.078
  440SOL     OW 1344   0.935   2.098   2.342
  440SOL    HW1 1345   0.887   2.139   2.264
  440SOL    HW2 1346   1.034   2.096   2.323
  441SOL     OW 1347   1.032   2.411   1.878
  441SOL    HW1 1348   0.991   2.493   1.839
  441SOL    HW2 1349   1.096   2.437   1.951
  442SOL     OW 1350   0.866   2.316   2.504
  442SOL    HW1 1351   0.834   2.388   2.442
  442SOL    HW2 1352   0.890   2.235   2.451
  443SOL     OW 1353   1.017   1.901   2.615
  443SOL    HW1 1354   0.945   1.906   2.546
  443SOL    HW2 1355   0.993   1.832   2.684
  444SOL     OW 1356   1.857   2.695   2.239
  444SOL    HW1 1357   1.899   2.631   2.303
  444SOL    HW2 1358   1.819   2.644   2.161
  445SOL     OW 1359   1.390   2.437   1.940
  445SOL    HW1 1360   1.336   2.416   2.021
  445SOL    HW2 1361   1.481   2.396   1.949
  446SOL     OW 1362   0.527   2.118   2.190
  446SOL    HW1 1363   0.554   2.059   2.115
  446SOL    HW2 1364   0.527   2.213   2.159
  447SOL     OW 1365   1.111   3.057   2.962
  447SOL    HW1 1366   1.071   3.101   3.043
  447SOL    HW2 1367   1.070   3.094   2.879
  448SOL     OW 1368   0.566   2.399   2.727
  448SOL    HW1 1369   0.578   2.465   2.653
  448SOL    HW2 1370   0.612   2.433   2.810
  449SOL     OW 1371   1.582   2.501   2.334
  449SOL    HW1 1372   1.551   2.562   2.407
  449SOL    HW2 1373   1.632   2.553   2.265
  450SOL     OW 1374   1.209   2.387   2.137
  450SOL    HW1 1375   1.222   2.303   2.191
  450SOL    HW2 1376   1.180   2.461   2.197
  451SOL     OW 1377   0.732   2.496   2.926
  451SOL    HW1 1378   0.791   2.470   2.850
  451SOL    HW2 1379   0.704   2.592   2.915
  452SOL     OW 1380   0.307   1.925   2.480
  452SOL    HW1 1381   0.296   2.019   2.513
  452SOL    HW2 1382   0.302   1.862   2.557
  453SOL     OW 1383   1.622   2.229   2.236
  453SOL    HW1 1384   1.624   2.153   2.300
  453SOL    HW2 1385   1.574   2.306   2.276
  454SOL     OW 1386   1.540   2.136   1.987
  454SOL    HW1 1387   1.479   2.061   2.010
  454SOL    HW2 1388   1.562   2.188   2.070
  455SOL     OW 1389   1.303   2.700   1.904
  455SOL    HW1 1390   1.337   2.607   1.919
  455SOL    HW2 1391   1.321   2.727   1.809
  456SOL     OW 1392   0.319   2.672   2.811
  456SOL    HW1 1393   0.412   2.708   2.816
  456SOL    HW2 1394   0.313   2.587   2.863
  457SOL     OW 1395   0.815   2.434   2.187
  457SOL    HW1 1396   0.822   2.345   2.141
  457SOL    HW2 1397   0.721   2.468   2.179
  458SOL     OW 1398   0.473   2.362   2.053
  458SOL    HW1 1399   0.534   2.442   2.057
  458SOL    HW2 1400   0.378   2.393   2.060
  459SOL     OW 1401   1.302   2.717   2.171
  459SOL    HW1 1402   1.216   2.686   2.213
  459SOL    HW2 1403   1.298   2.703   2.072
  460SOL     OW 1404   1.726   1.997   2.385
  460SOL    HW1 1405   1.799   1.980   2.318
  460SOL    HW2 1406   1.695   1.910   2.423
  461SOL     OW 1407   1.280   2.789   2.534
  461SOL    HW1 1408   1.340   2.708   2.536
  461SOL    HW2 1409   1.320   2.858   2.474
  462SOL     OW 1410   1.841   2.037   2.825
  462SOL    HW1 1411   1.880   1.952   2.789
  462SOL    HW2 1412   1.743   2.039   2.806
  463SOL     OW 1413   0.263   2.188   2.582
  463SOL    HW1 1414   0.184   2.239   2.548
  463SOL    HW2 1415   0.254   2.173   2.680
  464SOL     OW 1416   0.916   2.772   2.153
  464SOL    HW1 1417   0.979   2.810   2.085
  464SOL    HW2 1418   0.956   2.689   2.192
  465SOL     OW 1419   0.075   2.207   1.895
  465SOL    HW1 1420  -0.017   2.179   1.866
  465SOL    HW2 1421   0.106   2.284   1.839
  466SOL     OW 1422   0.072   2.028   2.180
  466SOL    HW1 1423   0.055   2.111   2.126
  466SOL    HW2 1424   0.162   1.991   2.158
  467SOL     OW 1425   1.674   2.745   3.116
  467SOL    HW1 1426   1.647   2.656   3.079
  467SOL    HW2 1427   1.675   2.813   3.043
  468SOL     OW 1428   1.225   2.187   2.311
  468SOL    HW1 1429   1.290   2.113   2.300
  468SOL    HW2 1430   1.245   2.237   2.395
  469SOL     OW 1431   0.594   2.607   2.514
  469SOL    HW1 1432   0.644   2.692   2.495
  469SOL    HW2 1433   0.506   2.609   2.466
  470SOL     OW 1434   0.428   2.286   2.382
  470SOL    HW1 1435   0.458   2.214   2.320
  470SOL    HW2 1436   0.389   2.246   2.465
  471SOL     OW 1437   1.352   1.914   2.030
  471SOL    HW1 1438   1.387   1.873   1.946
  471SOL    HW2 1439   1.262   1.876   2.050
  472SOL     OW 1440   1.300   2.315   2.553
  472SOL    HW1 1441   1.241   2.395   2.557
  472SOL    HW2 1442   1.315   2.280   2.646
  473SOL     OW 1443   1.593   2.083   2.744
  473SOL    HW1 1444   1.509   2.082   2.798
  473SOL    HW2 1445   1.595   2.166   2.688
  474SOL     OW 1446   2.092   0.628   0.113
  474SOL    HW1 1447   1.999   0.626   0.150
  474SOL    HW2 1448   2.093   0.589   0.021
  475SOL     OW 1449   2.087   0.275   0.996
  475SOL    HW1 1450   2.122   0.258   1.088
  475SOL    HW2 1451   1.999   0.230   0.984
  476SOL     OW 1452   1.881   0.368   0.647
  476SOL    HW1 1453   1.799   0.411   0.686
  476SOL    HW2 1454   1.853   0.295   0.584
  477SOL     OW 1455   2.431   1.275   1.165
  477SOL    HW1 1456   2.338   1.268   1.128
  477SOL    HW2 1457   2.442   1.364   1.209
  478SOL     OW 1458   2.630   1.144   1.023
  478SOL    HW1 1459   2.552   1.161   1.083
  478SOL    HW2 1460   2.664   1.231   0.987
  479SOL     OW 1461   2.712   0.798   1.823
  479SOL    HW1 1462   2.708   0.874   1.888
  479SOL    HW2 1463   2.734   0.834   1.732
  480SOL     OW 1464   2.547   1.012   0.665
  480SOL    HW1 1465   2.616   0.996   0.735
  480SOL    HW2 1466   2.474   1.069   0.703
  481SOL     OW 1467   2.548   1.161   1.803
  481SOL    HW1 1468   2.608   1.240   1.817
  481SOL    HW2 1469   2.462   1.192   1.762
  482SOL     OW 1470   2.197   1.435   1.061
  482SOL    HW1 1471   2.119   1.404   1.008
  482SOL    HW2 1472   2.255   1.493   1.004
  483SOL     OW 1473   2.300   0.392   1.499
  483SOL    HW1 1474   2.382   0.336   1.508
  483SOL    HW2 1475   2.219   0.334   1.503
  484SOL     OW 1476   2.093   1.713   0.483
  484SOL    HW1 1477   2.127   1.790   0.537
  484SOL    HW2 1478   2.137   1.713   0.393
  485SOL     OW 1479   2.092   1.434   0.538
  485SOL    HW1 1480   2.066   1.530   0.538
  485SOL    HW2 1481   2.021   1.380   0.583
  486SOL     OW 1482   2.102   1.091   0.886
  486SOL    HW1 1483   2.116   1.007   0.938
  486SOL    HW2 1484   2.047   1.155   0.941
  487SOL     OW 1485   2.482   1.786   1.439
  487SOL    HW1 1486   2.390   1.769   1.474
  487SOL    HW2 1487   2.510   1.878   1.465
  488SOL     OW 1488   2.468   0.964   0.123
  488SOL    HW1 1489   2.475   1.048   0.069
  488SOL    HW2 1490   2.514   0.977   0.211
  489SOL     OW 1491   1.984   0.643   0.563
  489SOL    HW1 1492   1.939   0.555   0.580
  489SOL    HW2 1493   1.983   0.697   0.647
  490SOL     OW 1494   1.975   0.737   1.597
  490SOL    HW1 1495   2.063   0.724   1.642
  490SOL    HW2 1496   1.962   0.834   1.575
  491SOL     OW 1497   2.475   1.365   0.726
  491SOL    HW1 1498   2.426   1.278   0.735
  491SOL    HW2 1499   2.452   1.408   0.639
  492SOL     OW 1500   2.671   0.004   0.502
  492SOL    HW1 1501   2.711   0.095   0.493
  492SOL    HW2 1502   2.571   0.012   0.508
  493SOL     OW 1503   2.059   0.976   1.264
  493SOL    HW1 1504   2.148   0.931   1.250
  493SOL    HW2 1505   1.986   0.911   1.245
  494SOL     OW 1506   2.179   0.251   1.801
  494SOL    HW1 1507   2.250   0.322   1.807
  494SOL    HW2 1508   2.091   0.290   1.829
  495SOL     OW 1509   2.460   0.729   0.270
  495SOL    HW1 1510   2.484   0.798   0.202
  495SOL    HW2 1511   2.382   0.762   0.324
  496SOL     OW 1512   2.669   0.605   1.465
  496SOL    HW1 1513   2.622   0.602   1.554
  496SOL    HW2 1514   2.618   0.550   1.399
  497SOL     OW 1515   2.853   0.410   1.242
  497SOL    HW1 1516   2.776   0.444   1.296
  497SOL    HW2 1517   2.819   0.359   1.163
  498SOL     OW 1518   1.938   0.811   0.789
  498SOL    HW1 1519   2.037   0.799   0.798
  498SOL    HW2 1520   1.914   0.906   0.810
  499SOL     OW 1521   1.992   1.821   1.571
  499SOL    HW1 1522   1.982   1.806   1.670
  499SOL    HW2 1523   1.906   1.857   1.535
  500SOL     OW 1524   2.727   0.348   0.195
  500SOL    HW1 1525   2.786   0.411   0.146
  500SOL    HW2 1526   2.746   0.254   0.166
  501SOL     OW 1527   2.412   0.196   0.885
  501SOL    HW1 1528   2.407   0.191   0.985
  501SOL    HW2 1529   2.414   0.292   0.856
  502SOL     OW 1530   2.870   1.456   0.477
  502SOL    HW1 1531   2.824   1.528   0.425
  502SOL    HW2 1532   2.866   1.476   0.575
  503SOL     OW 1533   2.213   1.801   0.853
  503SOL    HW1 1534   2.263   1.715   0.859
  503SOL    HW2 1535   2.278   1.878   0.850
  504SOL     OW 1536   2.183   0.943   0.242
  504SOL    HW1 1537   2.265   0.982   0.200
  504SOL    HW2 1538   2.156   0.861   0.193
  505SOL     OW 1539   2.323   1.266   1.727
  505SOL    HW1 1540   2.273   1.267   1.641
  505SOL    HW2 1541   2.260   1.248   1.803
  506SOL     OW 1542   2.064   0.285   1.498
  506SOL    HW1 1543   1.984   0.345   1.485
  506SOL    HW2 1544   2.054   0.236   1.584
  507SOL     OW 1545   2.326   1.743   0.323
  507SOL    HW1 1546   2.359   1.782   0.409
  507SOL    HW2 1547   2.402   1.736   0.258
  508SOL     OW 1548   2.111   1.785   1.241
  508SOL    HW1 1549   2.168   1.720   1.291
  508SOL    HW2 1550   2.095   1.752   1.148
  509SOL     OW 1551   2.244   0.700   0.480
  509SOL    HW1 1552   2.289   0.610   0.477
  509SOL    HW2 1553   2.150   0.689   0.513
  510SOL     OW 1554   2.476   0.122   0.117
  510SOL    HW1 1555   2.574   0.100   0.124
  510SOL    HW2 1556   2.445   0.105   0.024
  511SOL     OW 1557   2.643   0.264   1.749
  511SOL    HW1 1558   2.710   0.203   1.792
  511SOL    HW2 1559   2.570   0.283   1.814
  512SOL     OW 1560   2.665   1.402   0.924
  512SOL    HW1 1561   2.755   1.416   0.882
  512SOL    HW2 1562   2.594   1.404   0.853
  513SOL     OW 1563   2.784   0.503   0.899
  513SOL    HW1 1564   2.759   0.494   0.803
  513SOL    HW2 1565   2.832   0.421   0.930
  514SOL     OW 1566   2.401   0.064   0.512
  514SOL    HW1 1567   2.320   0.065   0.570
  514SOL    HW2 1568   2.404   0.147   0.457
  515SOL     OW 1569   2.159   0.035   0.171
  515SOL    HW1 1570   2.208   0.119   0.150
  515SOL    HW2 1571   2.221  -0.030   0.216
  516SOL     OW 1572   3.089   1.570   0.793
  516SOL    HW1 1573   3.110   1.644   0.728
  516SOL    HW2 1574   3.157   1.570   0.866
  517SOL     OW 1575   2.321   1.152   0.741
  517SOL    HW1 1576   2.250   1.125   0.806
  517SOL    HW2 1577   2.295   1.124   0.648
  518SOL     OW 1578   1.940   0.556   1.386
  518SOL    HW1 1579   2.032   0.555   1.345
  518SOL    HW2 1580   1.934   0.630   1.453
  519SOL     OW 1581   2.423   0.222   1.147
  519SOL    HW1 1582   2.461   0.138   1.184
  519SOL    HW2 1583   2.335   0.241   1.191
  520SOL     OW 1584   2.350   1.385   0.174
  520SOL    HW1 1585   2.263   1.370   0.221
  520SOL    HW2 1586   2.333   1.411   0.079
  521SOL     OW 1587   2.389   0.256   0.328
  521SOL    HW1 1588   2.416   0.197   0.253
  521SOL    HW2 1589   2.389   0.351   0.297
  522SOL     OW 1590   2.777   0.089   1.402
  522SOL    HW1 1591   2.802   0.069   1.307
  522SOL    HW2 1592   2.849   0.145   1.444
  523SOL     OW 1593   2.567   1.050   0.368
  523SOL    HW1 1594   2.553   1.057   0.467
  523SOL    HW2 1595   2.651   0.999   0.350
  524SOL     OW 1596   2.272   0.813   1.251
  524SOL    HW1 1597   2.358   0.825   1.301
  524SOL    HW2 1598   2.230   0.726   1.278
  525SOL     OW 1599   1.926   1.564   1.331
  525SOL    HW1 1600   1.880   1.646   1.297
  525SOL    HW2 1601   2.024   1.583   1.340
  526SOL     OW 1602   2.229   1.100   0.501
  526SOL    HW1 1603   2.222   1.183   0.445
  526SOL    HW2 1604   2.233   1.020   0.441
  527SOL     OW 1605   2.428   0.537   0.865
  527SOL    HW1 1606   2.440   0.603   0.791
  527SOL    HW2 1607   2.474   0.571   0.948
  528SOL     OW 1608   2.216   1.510   1.329
  528SOL    HW1 1609   2.195   1.466   1.242
  528SOL    HW2 1610   2.313   1.536   1.332
  529SOL     OW 1611   2.264   0.751   1.598
  529SOL    HW1 1612   2.332   0.806   1.551
  529SOL    HW2 1613   2.304   0.663   1.625
  530SOL     OW 1614   2.366   0.050   1.740
  530SOL    HW1 1615   2.324  -0.007   1.670
  530SOL    HW2 1616   2.300   0.119   1.772
  531SOL     OW 1617   2.435   0.870   1.029
  531SOL    HW1 1618   2.479   0.959   1.020
  531SOL    HW2 1619   2.372   0.870   1.106
  532SOL     OW 1620   3.071   0.525   0.275
  532SOL    HW1 1621   3.084   0.441   0.329
  532SOL    HW2 1622   3.042   0.599   0.335
  533SOL     OW 1623   2.169   0.213   1.231
  533SOL    HW1 1624   2.146   0.250   1.321
  533SOL    HW2 1625   2.139   0.118   1.225
  534SOL     OW 1626   1.899   1.310   1.282
  534SOL    HW1 1627   1.952   1.261   1.350
  534SOL    HW2 1628   1.921   1.408   1.287
  535SOL     OW 1629   2.594   0.634   1.064
  535SOL    HW1 1630   2.653   0.608   0.988
  535SOL    HW2 1631   2.566   0.730   1.053
  536SOL     OW 1632   2.169   0.063   0.618
  536SOL    HW1 1633   2.158   0.157   0.651
  536SOL    HW2 1634   2.164   0.000   0.695
  537SOL     OW 1635   2.885   0.766   0.966
  537SOL    HW1 1636   2.900   0.787   1.062
  537SOL    HW2 1637   2.855   0.671   0.957
  538SOL     OW 1638   2.842   1.573   1.700
  538SOL    HW1 1639   2.822   1.617   1.612
  538SOL    HW2 1640   2.881   1.482   1.684
  539SOL     OW 1641   2.212   0.898   1.804
  539SOL    HW1 1642   2.288   0.942   1.852
  539SOL    HW2 1643   2.247   0.851   1.722
  540SOL     OW 1644   2.181   0.810   0.949
  540SOL    HW1 1645   2.274   0.846   0.954
  540SOL    HW2 1646   2.175   0.725   1.001
  541SOL     OW 1647   2.201   0.509   1.006
  541SOL    HW1 1648   2.149   0.426   0.989
  541SOL    HW2 1649   2.278   0.514   0.942
  542SOL     OW 1650   1.870   1.326   0.200
  542SOL    HW1 1651   1.777   1.347   0.169
  542SOL    HW2 1652   1.880   1.227   0.213
  543SOL     OW 1653   1.950   1.801   0.927
  543SOL    HW1 1654   1.908   1.715   0.900
  543SOL    HW2 1655   2.044   1.804   0.893
  544SOL     OW 1656   2.366   1.568   0.910
  544SOL    HW1 1657   2.432   1.642   0.919
  544SOL    HW2 1658   2.410   1.489   0.868
  545SOL     OW 1659   2.864   0.796   1.238
  545SOL    HW1 1660   2.905   0.764   1.324
  545SOL    HW2 1661   2.768   0.769   1.235
  546SOL     OW 1662   1.902   0.544   1.114
  546SOL    HW1 1663   1.987   0.511   1.073
  546SOL    HW2 1664   1.915   0.559   1.212
  547SOL     OW 1665   2.051   0.520   1.722
  547SOL    HW1 1666   2.110   0.480   1.652
  547SOL    HW2 1667   1.993   0.591   1.681
  548SOL     OW 1668   2.677   0.572   0.325
  548SOL    HW1 1669   2.684   0.483   0.279
  548SOL    HW2 1670   2.583   0.606   0.317
  549SOL     OW 1671   2.114   1.564   1.744
  549SOL    HW1 1672   2.084   1.621   1.820
  549SOL    HW2 1673   2.107   1.467   1.770
  550SOL     OW 1674   2.533   0.464   1.269
  550SOL    HW1 1675   2.499   0.375   1.239
  550SOL    HW2 1676   2.559   0.518   1.189
  551SOL     OW 1677   2.335   0.500   0.191
  551SOL    HW1 1678   2.396   0.580   0.195
  551SOL    HW2 1679   2.240   0.531   0.198
  552SOL     OW 1680   2.021   1.137   1.466
  552SOL    HW1 1681   2.043   1.076   1.542
  552SOL    HW2 1682   2.031   1.088   1.380
  553SOL     OW 1683   1.945   1.258   1.022
  553SOL    HW1 1684   1.940   1.257   1.122
  553SOL    HW2 1685   1.862   1.217   0.984
  554SOL     OW 1686   2.550   1.662   1.716
  554SOL    HW1 1687   2.494   1.743   1.725
  554SOL    HW2 1688   2.602   1.666   1.630
  555SOL     OW 1689   2.765   0.086   0.133
  555SOL    HW1 1690   2.816   0.087   0.047
  555SOL    HW2 1691   2.821   0.044   0.204
  556SOL     OW 1692   1.992   1.794   1.851
  556SOL    HW1 1693   1.951   1.720   1.904
  556SOL    HW2 1694   2.056   1.845   1.909
  557SOL     OW 1695   2.692   1.273   1.422
  557SOL    HW1 1696   2.687   1.306   1.517
  557SOL    HW2 1697   2.606   1.292   1.376
  558SOL     OW 1698   2.534   1.616   0.154
  558SOL    HW1 1699   2.543   1.626   0.055
  558SOL    HW2 1700   2.494   1.527   0.175
  559SOL     OW 1701   2.125   0.326   0.720
  559SOL    HW1 1702   2.046   0.377   0.686
  559SOL    HW2 1703   2.116   0.311   0.818
  560SOL     OW 1704   3.056   1.612   0.031
  560SOL    HW1 1705   3.062   1.519   0.068
  560SOL    HW2 1706   2.997   1.612  -0.049
  561SOL     OW 1707   2.684   1.002   1.372
  561SOL    HW1 1708   2.724   1.001   1.280
  561SOL    HW2 1709   2.694   1.094   1.412
  562SOL     OW 1710   2.234   1.288   1.490
  562SOL    HW1 1711   2.221   1.381   1.456
  562SOL    HW2 1712   2.150   1.236   1.477
  563SOL     OW 1713   2.452   1.487   0.491
  563SOL    HW1 1714   2.494   1.429   0.421
  563SOL    HW2 1715   2.408   1.566   0.447
  564SOL     OW 1716   2.117   1.348   0.290
  564SOL    HW1 1717   2.021   1.349   0.263
  564SOL    HW2 1718   2.129   1.401   0.374
  565SOL     OW 1719   1.967   1.013   1.726
  565SOL    HW1 1720   1.890   0.980   1.780
  565SOL    HW2 1721   2.052   0.983   1.768
  566SOL     OW 1722   2.534   0.203   1.489
  566SOL    HW1 1723   2.624   0.187   1.449
  566SOL    HW2 1724   2.542   0.208   1.588
  567SOL     OW 1725   2.475   0.842   1.431
  567SOL    HW1 1726   2.531   0.923   1.414
  567SOL    HW2 1727   2.534   0.762   1.434
  568SOL     OW 1728   2.578   0.565   1.708
  568SOL    HW1 1729   2.597   0.630   1.782
  568SOL    HW2 1730   2.638   0.485   1.717
  569SOL     OW 1731   2.252   1.741   1.560
  569SOL    HW1 1732   2.161   1.782   1.558
  569SOL    HW2 1733   2.245   1.647   1.592
  570SOL     OW 1734   3.087   0.325   0.449
  570SOL    HW1 1735   3.152   0.251   0.438
  570SOL    HW2 1736   3.107   0.375   0.533
  571SOL     OW 1737   2.456   0.745   0.652
  571SOL    HW1 1738   2.506   0.830   0.633
  571SOL    HW2 1739   2.368   0.747   0.604
  572SOL     OW 1740   2.523   1.790   0.953
  572SOL    HW1 1741   2.477   1.878   0.940
  572SOL    HW2 1742   2.622   1.802   0.946
  573SOL     OW 1743   2.721   0.956   0.861
  573SOL    HW1 1744   2.775   0.887   0.909
  573SOL    HW2 1745   2.689   1.025   0.927
  574SOL     OW 1746   2.945   0.984   0.087
  574SOL    HW1 1747   2.922   1.037   0.005
  574SOL    HW2 1748   3.026   0.928   0.068
  575SOL     OW 1749   2.083   1.314   1.844
  575SOL    HW1 1750   2.018   1.241   1.823
  575SOL    HW2 1751   2.087   1.328   1.942
  576SOL     OW 1752   1.941   1.240   0.653
  576SOL    HW1 1753   1.940   1.193   0.741
  576SOL    HW2 1754   2.023   1.212   0.602
  577SOL     OW 1755   2.534   1.391   1.624
  577SOL    HW1 1756   2.456   1.341   1.662
  577SOL    HW2 1757   2.531   1.486   1.655
  578SOL     OW 1758   2.290   0.424   0.520
  578SOL    HW1 1759   2.320   0.352   0.458
  578SOL    HW2 1760   2.251   0.384   0.603
  579SOL     OW 1761   2.179   0.547   1.280
  579SOL    HW1 1762   2.217   0.488   1.352
  579SOL    HW2 1763   2.219   0.521   1.192
  580SOL     OW 1764   2.674   1.586   0.687
  580SOL    HW1 1765   2.706   1.596   0.593
  580SOL    HW2 1766   2.595   1.524   0.689
  581SOL     OW 1767   2.863   0.034   1.154
  581SOL    HW1 1768   2.800  -0.038   1.123
  581SOL    HW2 1769   2.956  -0.002   1.154
  582SOL     OW 1770   2.632   1.330   0.301
  582SOL    HW1 1771   2.586   1.243   0.318
  582SOL    HW2 1772   2.723   1.327   0.342
  583SOL     OW 1773   2.480   1.567   1.284
  583SOL    HW1 1774   2.475   1.649   1.341
  583SOL    HW2 1775   2.569   1.564   1.239
  584SOL     OW 1776   1.901   1.077   0.300
  584SOL    HW1 1777   2.000   1.066   0.291
  584SOL    HW2 1778   1.861   0.991   0.332
  585SOL     OW 1779   2.737   1.646   0.337
  585SOL    HW1 1780   2.660   1.611   0.283
  585SOL    HW2 1781   2.705   1.717   0.399
  586SOL     OW 1782   2.092   0.628   1.975
  586SOL    HW1 1783   1.999   0.626   2.012
  586SOL    HW2 1784   2.093   0.589   1.883
  587SOL     OW 1785   2.087   0.275   2.858
  587SOL    HW1 1786   2.122   0.258   2.950
  587SOL    HW2 1787   1.999   0.230   2.846
  588SOL     OW 1788   1.881   0.368   2.509
  588SOL    HW1 1789   1.799   0.411   2.548
  588SOL    HW2 1790   1.853   0.295   2.446
  589SOL     OW 1791   2.630   1.144   2.885
  589SOL    HW1 1792   2.552   1.161   2.945
  589SOL    HW2 1793   2.664   1.231   2.849
  590SOL     OW 1794   2.547   1.012   2.527
  590SOL    HW1 1795   2.616   0.996   2.597
  590SOL    HW2 1796   2.474   1.069   2.565
  591SOL     OW 1797   2.093   1.713   2.345
  591SOL    HW1 1798   2.127   1.790   2.399
  591SOL    HW2 1799   2.137   1.713   2.255
  592SOL     OW 1800   2.092   1.434   2.400
  592SOL    HW1 1801   2.066   1.530   2.400
  592SOL    HW2 1802   2.021   1.380   2.445
  593SOL     OW 1803   2.102   1.091   2.748
  593SOL    HW1 1804   2.116   1.007   2.800
  593SOL    HW2 1805   2.047   1.155   2.803
  594SOL     OW 1806   2.468   0.964   1.985
  594SOL    HW1 1807   2.475   1.048   1.931
  594SOL    HW2 1808   2.514   0.977   2.073
  595SOL     OW 1809   1.984   0.643   2.425
  595SOL    HW1 1810   1.939   0.555   2.442
  595SOL    HW2 1811   1.983   0.697   2.509
  596SOL     OW 1812   1.889   1.596   1.979
  596SOL    HW1 1813   1.870   1.500   2.000
  596SOL    HW2 1814   1.856   1.654   2.054
  597SOL     OW 1815   2.475   1.365   2.588
  597SOL    HW1 1816   2.426   1.278   2.597
  597SOL    HW2 1817   2.452   1.408   2.501
  598SOL     OW 1818   2.671   0.004   2.364
  598SOL    HW1 1819   2.711   0.095   2.355
  598SOL    HW2 1820   2.571   0.012   2.370
  599SOL     OW 1821   2.460   0.729   2.132
  599SOL    HW1 1822   2.484   0.798   2.064
  599SOL    HW2 1823   2.382   0.762   2.186
  600SOL     OW 1824   1.938   0.811   2.651
  600SOL    HW1 1825   2.037   0.799   2.660
  600SOL    HW2 1826   1.914   0.906   2.672
  601SOL     OW 1827   2.727   0.348   2.057
  601SOL    HW1 1828   2.786   0.411   2.008
  601SOL    HW2 1829   2.746   0.254   2.028
  602SOL     OW 1830   2.870   1.456   2.339
  602SOL    HW1 1831   2.824   1.528   2.287
  602SOL    HW2 1832   2.866   1.476   2.437
  603SOL     OW 1833   2.213   1.801   2.715
  603SOL    HW1 1834   2.263   1.715   2.721
  603SOL    HW2 1835   2.278   1.878   2.712
  604SOL     OW 1836   2.183   0.943   2.104
  604SOL    HW1 1837   2.265   0.982   2.062
  604SOL    HW2 1838   2.156   0.861   2.055
  605SOL     OW 1839   2.326   1.743   2.185
  605SOL    HW1 1840   2.359   1.782   2.271
  605SOL    HW2 1841   2.402   1.736   2.120
  606SOL     OW 1842   2.244   0.700   2.342
  606SOL    HW1 1843   2.289   0.610   2.339
  606SOL    HW2 1844   2.150   0.689   2.375
  607SOL     OW 1845   2.476   0.122   1.979
  607SOL    HW1 1846   2.574   0.100   1.986
  607SOL    HW2 1847   2.445   0.105   1.886
  608SOL     OW 1848   2.665   1.402   2.786
  608SOL    HW1 1849   2.755   1.416   2.744
  608SOL    HW2 1850   2.594   1.404   2.715
  609SOL     OW 1851   2.401   0.064   2.374
  609SOL    HW1 1852   2.320   0.065   2.432
  609SOL    HW2 1853   2.404   0.147   2.319
  610SOL     OW 1854   2.159   0.035   2.033
  610SOL    HW1 1855   2.208   0.119   2.012
  610SOL    HW2 1856   2.221  -0.030   2.078
  611SOL     OW 1857   3.089   1.570   2.655
  611SOL    HW1 1858   3.110   1.644   2.590
  611SOL    HW2 1859   3.157   1.570   2.728
  612SOL     OW 1860   2.321   1.152   2.603
  612SOL    HW1 1861   2.250   1.125   2.668
  612SOL    HW2 1862   2.295   1.124   2.510
  613SOL     OW 1863   2.350   1.385   2.036
  613SOL    HW1 1864   2.263   1.370   2.083
  613SOL    HW2 1865   2.333   1.411   1.941
  614SOL     OW 1866   2.389   0.256   2.190
  614SOL    HW1 1867   2.416   0.197   2.115
  614SOL    HW2 1868   2.389   0.351   2.159
  615SOL     OW 1869   2.567   1.050   2.230
  615SOL    HW1 1870   2.553   1.057   2.329
  615SOL    HW2 1871   2.651   0.999   2.212
  616SOL     OW 1872   2.229   1.100   2.363
  616SOL    HW1 1873   2.222   1.183   2.307
  616SOL    HW2 1874   2.233   1.020   2.303
  617SOL     OW 1875   2.428   0.537   2.727
  617SOL    HW1 1876   2.440   0.603   2.653
  617SOL    HW2 1877   2.474   0.571   2.810
  618SOL     OW 1878   3.071   0.525   2.137
  618SOL    HW1 1879   3.084   0.441   2.191
  618SOL    HW2 1880   3.042   0.599   2.197
  619SOL     OW 1881   2.594   0.634   2.926
  619SOL    HW1 1882   2.653   0.608   2.850
  619SOL    HW2 1883   2.566   0.730   2.915
  620SOL     OW 1884   2.169   0.063   2.480
  620SOL    HW1 1885   2.158   0.157   2.513
  620SOL    HW2 1886   2.164   0.000   2.557
  621SOL     OW 1887   2.885   0.766   2.828
  621SOL    HW1 1888   2.900   0.787   2.924
  621SOL    HW2 1889   2.855   0.671   2.819
  622SOL     OW 1890   2.181   0.810   2.811
  622SOL    HW1 1891   2.274   0.846   2.816
  622SOL    HW2 1892   2.175   0.725   2.863
  623SOL     OW 1893   1.870   1.326   2.062
  623SOL    HW1 1894   1.777   1.347   2.031
  623SOL    HW2 1895   1.880   1.227   2.075
  624SOL     OW 1896   1.950   1.801   2.789
  624SOL    HW1 1897   1.908   1.715   2.762
  624SOL    HW2 1898   2.044   1.804   2.755
  625SOL     OW 1899   2.366   1.568   2.772
  625SOL    HW1 1900   2.432   1.642   2.781
  625SOL    HW2 1901   2.410   1.489   2.730
  626SOL     OW 1902   2.864   0.796   3.100
  626SOL    HW1 1903   2.905   0.764   3.186
  626SOL    HW2 1904   2.768   0.769   3.097
  627SOL     OW 1905   2.677   0.572   2.187
  627SOL    HW1 1906   2.684   0.483   2.141
  627SOL    HW2 1907   2.583   0.606   2.179
  628SOL     OW 1908   2.335   0.500   2.053
  628SOL    HW1 1909   2.396   0.580   2.057
  628SOL    HW2 1910   2.240   0.531   2.060
  629SOL     OW 1911   2.765   0.086   1.995
  629SOL    HW1 1912   2.816   0.087   1.909
  629SOL    HW2 1913   2.821   0.044   2.066
  630SOL     OW 1914   2.534   1.616   2.016
  630SOL    HW1 1915   2.543   1.626   1.917
  630SOL    HW2 1916   2.494   1.527   2.037
  631SOL     OW 1917   2.125   0.326   2.582
  631SOL    HW1 1918   2.046   0.377   2.548
  631SOL    HW2 1919   2.116   0.311   2.680
  632SOL     OW 1920   2.452   1.487   2.353
  632SOL    HW1 1921   2.494   1.429   2.283
  632SOL    HW2 1922   2.408   1.566   2.309
  633SOL     OW 1923   2.117   1.348   2.152
  633SOL    HW1 1924   2.021   1.349   2.125
  633SOL    HW2 1925   2.129   1.401   2.236
  634SOL     OW 1926   1.937   0.345   1.895
  634SOL    HW1 1927   1.845   0.317   1.866
  634SOL    HW2 1928   1.968   0.422   1.839
  635SOL     OW 1929   1.934   0.166   2.180
  635SOL    HW1 1930   1.917   0.249   2.126
  635SOL    HW2 1931   2.024   0.129   2.158
  636SOL     OW 1932   3.087   0.325   2.311
  636SOL    HW1 1933   3.152   0.251   2.300
  636SOL    HW2 1934   3.107   0.375   2.395
  637SOL     OW 1935   2.456   0.745   2.514
  637SOL    HW1 1936   2.506   0.830   2.495
  637SOL    HW2 1937   2.368   0.747   2.466
  638SOL     OW 1938   2.523   1.790   2.815
  638SOL    HW1 1939   2.477   1.878   2.802
  638SOL    HW2 1940   2.622   1.802   2.808
  639SOL     OW 1941   2.721   0.956   2.723
  639SOL    HW1 1942   2.775   0.887   2.771
  639SOL    HW2 1943   2.689   1.025   2.789
  640SOL     OW 1944   1.941   1.240   2.515
  640SOL    HW1 1945   1.940   1.193   2.603
  640SOL    HW2 1946   2.023   1.212   2.464
  641SOL     OW 1947   2.290   0.424   2.382
  641SOL    HW1 1948   2.320   0.352   2.320
  641SOL    HW2 1949   2.251   0.384   2.465
  642SOL     OW 1950   2.674   1.586   2.549
  642SOL    HW1 1951   2.706   1.596   2.455
  642SOL    HW2 1952   2.595   1.524   2.551
  643SOL     OW 1953   2.632   1.330   2.163
  643SOL    HW1 1954   2.586   1.243   2.180
  643SOL    HW2 1955   2.723   1.327   2.204
  644SOL     OW 1956   1.901   1.077   2.162
  644SOL    HW1 1957   2.000   1.066   2.153
  644SOL    HW2 1958   1.861   0.991   2.194
  645SOL     OW 1959   2.737   1.646   2.199
  645SOL    HW1 1960   2.660   1.611   2.145
  645SOL    HW2 1961   2.705   1.717   2.261
  646SOL     OW 1962   2.092   2.490   0.113
  646SOL    HW1 1963   1.999   2.488   0.150
  646SOL    HW2 1964   2.093   2.451   0.021
  647SOL     OW 1965   2.087   2.137   0.996
  647SOL    HW1 1966   2.122   2.120   1.088
  647SOL    HW2 1967   1.999   2.092   0.984
  648SOL     OW 1968   1.881   2.230   0.647
  648SOL    HW1 1969   1.799   2.273   0.686
  648SOL    HW2 1970   1.853   2.157   0.584
  649SOL     OW 1971   2.712   2.660   1.823
  649SOL    HW1 1972   2.708   2.736   1.888
  649SOL    HW2 1973   2.734   2.696   1.732
  650SOL     OW 1974   2.547   2.874   0.665
  650SOL    HW1 1975   2.616   2.858   0.735
  650SOL    HW2 1976   2.474   2.931   0.703
  651SOL     OW 1977   2.300   2.254   1.499
  651SOL    HW1 1978   2.382   2.198   1.508
  651SOL    HW2 1979   2.219   2.196   1.503
  652SOL     OW 1980   1.984   2.505   0.563
  652SOL    HW1 1981   1.939   2.417   0.580
  652SOL    HW2 1982   1.983   2.559   0.647
  653SOL     OW 1983   1.975   2.599   1.597
  653SOL    HW1 1984   2.063   2.586   1.642
  653SOL    HW2 1985   1.962   2.696   1.575
  654SOL     OW 1986   2.671   1.866   0.502
  654SOL    HW1 1987   2.711   1.957   0.493
  654SOL    HW2 1988   2.571   1.874   0.508
  655SOL     OW 1989   2.179   2.113   1.801
  655SOL    HW1 1990   2.250   2.184   1.807
  655SOL    HW2 1991   2.091   2.152   1.829
  656SOL     OW 1992   2.460   2.591   0.270
  656SOL    HW1 1993   2.484   2.660   0.202
  656SOL    HW2 1994   2.382   2.624   0.324
  657SOL     OW 1995   2.669   2.467   1.465
  657SOL    HW1 1996   2.622   2.464   1.554
  657SOL    HW2 1997   2.618   2.412   1.399
  658SOL     OW 1998   2.853   2.272   1.242
  658SOL    HW1 1999   2.776   2.306   1.296
  658SOL    HW2 2000   2.819   2.221   1.163
  659SOL     OW 2001   1.938   2.673   0.789
  659SOL    HW1 2002   2.037   2.661   0.798
  659SOL    HW2 2003   1.914   2.768   0.810
  660SOL     OW 2004   2.727   2.210   0.195
  660SOL    HW1 2005   2.786   2.273   0.146
  660SOL    HW2 2006   2.746   2.116   0.166
  661SOL     OW 2007   2.412   2.058   0.885
  661SOL    HW1 2008   2.407   2.053   0.985
  661SOL    HW2 2009   2.414   2.154   0.856
  662SOL     OW 2010   2.064   2.147   1.498
  662SOL    HW1 2011   1.984   2.207   1.485
  662SOL    HW2 2012   2.054   2.098   1.584
  663SOL     OW 2013   2.244   2.562   0.480
  663SOL    HW1 2014   2.289   2.472   0.477
  663SOL    HW2 2015   2.150   2.551   0.513
  664SOL     OW 2016   2.643   2.126   1.749
  664SOL    HW1 2017   2.710   2.065   1.792
  664SOL    HW2 2018   2.570   2.145   1.814
  665SOL     OW 2019   2.784   2.365   0.899
  665SOL    HW1 2020   2.759   2.356   0.803
  665SOL    HW2 2021   2.832   2.283   0.930
  666SOL     OW 2022   2.401   1.926   0.512
  666SOL    HW1 2023   2.320   1.927   0.570
  666SOL    HW2 2024   2.404   2.009   0.457
  667SOL     OW 2025   2.159   1.897   0.171
  667SOL    HW1 2026   2.208   1.981   0.150
  667SOL    HW2 2027   2.221   1.832   0.216
  668SOL     OW 2028   1.940   2.418   1.386
  668SOL    HW1 2029   2.032   2.417   1.345
  668SOL    HW2 2030   1.934   2.492   1.453
  669SOL     OW 2031   2.423   2.084   1.147
  669SOL    HW1 2032   2.461   2.000   1.184
  669SOL    HW2 2033   2.335   2.103   1.191
  670SOL     OW 2034   2.389   2.118   0.328
  670SOL    HW1 2035   2.416   2.059   0.253
  670SOL    HW2 2036   2.389   2.213   0.297
  671SOL     OW 2037   2.777   1.951   1.402
  671SOL    HW1 2038   2.802   1.931   1.307
  671SOL    HW2 2039   2.849   2.007   1.444
  672SOL     OW 2040   2.272   2.675   1.251
  672SOL    HW1 2041   2.358   2.687   1.301
  672SOL    HW2 2042   2.230   2.588   1.278
  673SOL     OW 2043   2.428   2.399   0.865
  673SOL    HW1 2044   2.440   2.465   0.791
  673SOL    HW2 2045   2.474   2.433   0.948
  674SOL     OW 2046   2.264   2.613   1.598
  674SOL    HW1 2047   2.332   2.668   1.551
  674SOL    HW2 2048   2.304   2.525   1.625
  675SOL     OW 2049   2.366   1.912   1.740
  675SOL    HW1 2050   2.324   1.855   1.670
  675SOL    HW2 2051   2.300   1.981   1.772
  676SOL     OW 2052   2.435   2.732   1.029
  676SOL    HW1 2053   2.479   2.821   1.020
  676SOL    HW2 2054   2.372   2.732   1.106
  677SOL     OW 2055   3.071   2.387   0.275
  677SOL    HW1 2056   3.084   2.303   0.329
  677SOL    HW2 2057   3.042   2.461   0.335
  678SOL     OW 2058   2.169   2.075   1.231
  678SOL    HW1 2059   2.146   2.112   1.321
  678SOL    HW2 2060   2.139   1.980   1.225
  679SOL     OW 2061   2.594   2.496   1.064
  679SOL    HW1 2062   2.653   2.470   0.988
  679SOL    HW2 2063   2.566   2.592   1.053
  680SOL     OW 2064   2.169   1.925   0.618
  680SOL    HW1 2065   2.158   2.019   0.651
  680SOL    HW2 2066   2.164   1.862   0.695
  681SOL     OW 2067   2.885   2.628   0.966
  681SOL    HW1 2068   2.900   2.649   1.062
  681SOL    HW2 2069   2.855   2.533   0.957
  682SOL     OW 2070   2.212   2.760   1.804
  682SOL    HW1 2071   2.288   2.804   1.852
  682SOL    HW2 2072   2.247   2.713   1.722
  683SOL     OW 2073   2.181   2.672   0.949
  683SOL    HW1 2074   2.274   2.708   0.954
  683SOL    HW2 2075   2.175   2.587   1.001
  684SOL     OW 2076   2.201   2.371   1.006
  684SOL    HW1 2077   2.149   2.288   0.989
  684SOL    HW2 2078   2.278   2.376   0.942
  685SOL     OW 2079   2.864   2.658   1.238
  685SOL    HW1 2080   2.905   2.626   1.324
  685SOL    HW2 2081   2.768   2.631   1.235
  686SOL     OW 2082   1.902   2.406   1.114
  686SOL    HW1 2083   1.987   2.373   1.073
  686SOL    HW2 2084   1.915   2.421   1.212
  687SOL     OW 2085   2.051   2.382   1.722
  687SOL    HW1 2086   2.110   2.342   1.652
  687SOL    HW2 2087   1.993   2.453   1.681
  688SOL     OW 2088   2.677   2.434   0.325
  688SOL    HW1 2089   2.684   2.345   0.279
  688SOL    HW2 2090   2.583   2.468   0.317
  689SOL     OW 2091   2.533   2.326   1.269
  689SOL    HW1 2092   2.499   2.237   1.239
  689SOL    HW2 2093   2.559   2.380   1.189
  690SOL     OW 2094   2.335   2.362   0.191
  690SOL    HW1 2095   2.396   2.442   0.195
  690SOL    HW2 2096   2.240   2.393   0.198
  691SOL     OW 2097   2.765   1.948   0.133
  691SOL    HW1 2098   2.816   1.949   0.047
  691SOL    HW2 2099   2.821   1.906   0.204
  692SOL     OW 2100   2.125   2.188   0.720
  692SOL    HW1 2101   2.046   2.239   0.686
  692SOL    HW2 2102   2.116   2.173   0.818
  693SOL     OW 2103   2.901   2.960   0.696
  693SOL    HW1 2104   2.831   2.913   0.750
  693SOL    HW2 2105   2.960   2.892   0.653
  694SOL     OW 2106   1.967   2.875   1.726
  694SOL    HW1 2107   1.890   2.842   1.780
  694SOL    HW2 2108   2.052   2.845   1.768
  695SOL     OW 2109   2.534   2.065   1.489
  695SOL    HW1 2110   2.624   2.049   1.449
  695SOL    HW2 2111   2.542   2.070   1.588
  696SOL     OW 2112   1.934   2.028   0.318
  696SOL    HW1 2113   1.917   2.111   0.264
  696SOL    HW2 2114   2.024   1.991   0.296
  697SOL     OW 2115   2.475   2.704   1.431
  697SOL    HW1 2116   2.531   2.785   1.414
  697SOL    HW2 2117   2.534   2.624   1.434
  698SOL     OW 2118   2.578   2.427   1.708
  698SOL    HW1 2119   2.597   2.492   1.782
  698SOL    HW2 2120   2.638   2.347   1.717
  699SOL     OW 2121   3.087   2.187   0.449
  699SOL    HW1 2122   3.152   2.113   0.438
  699SOL    HW2 2123   3.107   2.237   0.533
  700SOL     OW 2124   2.456   2.607   0.652
  700SOL    HW1 2125   2.506   2.692   0.633
  700SOL    HW2 2126   2.368   2.609   0.604
  701SOL     OW 2127   2.721   2.818   0.861
  701SOL    HW1 2128   2.775   2.749   0.909
  701SOL    HW2 2129   2.689   2.887   0.927
  702SOL     OW 2130   2.290   2.286   0.520
  702SOL    HW1 2131   2.320   2.214   0.458
  702SOL    HW2 2132   2.251   2.246   0.603
  703SOL     OW 2133   2.179   2.409   1.280
  703SOL    HW1 2134   2.217   2.350   1.352
  703SOL    HW2 2135   2.219   2.383   1.192
  704SOL     OW 2136   2.863   1.896   1.154
  704SOL    HW1 2137   2.800   1.824   1.123
  704SOL    HW2 2138   2.956   1.860   1.154
  705SOL     OW 2139   2.092   2.490   1.975
  705SOL    HW1 2140   1.999   2.488   2.012
  705SOL    HW2 2141   2.093   2.451   1.883
  706SOL     OW 2142   2.087   2.137   2.858
  706SOL    HW1 2143   2.122   2.120   2.950
  706SOL    HW2 2144   1.999   2.092   2.846
  707SOL     OW 2145   1.881   2.230   2.509
  707SOL    HW1 2146   1.799   2.273   2.548
  707SOL    HW2 2147   1.853   2.157   2.446
  708SOL     OW 2148   2.547   2.874   2.527
  708SOL    HW1 2149   2.616   2.858   2.597
  708SOL    HW2 2150   2.474   2.931   2.565
  709SOL     OW 2151   1.984   2.505   2.425
  709SOL    HW1 2152   1.939   2.417   2.442
  709SOL    HW2 2153   1.983   2.559   2.509
  710SOL     OW 2154   2.671   1.866   2.364
  710SOL    HW1 2155   2.711   1.957   2.355
  710SOL    HW2 2156   2.571   1.874   2.370
  711SOL     OW 2157   2.460   2.591   2.132
  711SOL    HW1 2158   2.484   2.660   2.064
  711SOL    HW2 2159   2.382   2.624   2.186
  712SOL     OW 2160   1.938   2.673   2.651
  712SOL    HW1 2161   2.037   2.661   2.660
  712SOL    HW2 2162   1.914   2.768   2.672
  713SOL     OW 2163   2.727   2.210   2.057
  713SOL    HW1 2164   2.786   2.273   2.008
  713SOL    HW2 2165   2.746   2.116   2.028
  714SOL     OW 2166   2.412   2.058   2.747
  714SOL    HW1 2167   2.407   2.053   2.847
  714SOL    HW2 2168   2.414   2.154   2.718
  715SOL     OW 2169   2.244   2.562   2.342
  715SOL    HW1 2170   2.289   2.472   2.339
  715SOL    HW2 2171   2.150   2.551   2.375
  716SOL     OW 2172   2.476   1.984   1.979
  716SOL    HW1 2173   2.574   1.962   1.986
  716SOL    HW2 2174   2.445   1.967   1.886
  717SOL     OW 2175   2.401   1.926   2.374
  717SOL    HW1 2176   2.320   1.927   2.432
  717SOL    HW2 2177   2.404   2.009   2.319
  718SOL     OW 2178   2.159   1.897   2.033
  718SOL    HW1 2179   2.208   1.981   2.012
  718SOL    HW2 2180   2.221   1.832   2.078
  719SOL     OW 2181   2.389   2.118   2.190
  719SOL    HW1 2182   2.416   2.059   2.115
  719SOL    HW2 2183   2.389   2.213   2.159
  720SOL     OW 2184   2.428   2.399   2.727
  720SOL    HW1 2185   2.440   2.465   2.653
  720SOL    HW2 2186   2.474   2.433   2.810
  721SOL     OW 2187   3.071   2.387   2.137
  721SOL    HW1 2188   3.084   2.303   2.191
  721SOL    HW2 2189   3.042   2.461   2.197
  722SOL     OW 2190   2.594   2.496   2.926
  722SOL    HW1 2191   2.653   2.470   2.850
  722SOL    HW2 2192   2.566   2.592   2.915
  723SOL     OW 2193   2.169   1.925   2.480
  723SOL    HW1 2194   2.158   2.019   2.513
  723SOL    HW2 2195   2.164   1.862   2.557
  724SOL     OW 2196   2.885   2.628   2.828
  724SOL    HW1 2197   2.900   2.649   2.924
  724SOL    HW2 2198   2.855   2.533   2.819
  725SOL     OW 2199   2.181   2.672   2.811
  725SOL    HW1 2200   2.274   2.708   2.816
  725SOL    HW2 2201   2.175   2.587   2.863
  726SOL     OW 2202   2.864   2.658   3.100
  726SOL    HW1 2203   2.905   2.626   3.186
  726SOL    HW2 2204   2.768   2.631   3.097
  727SOL     OW 2205   2.677   2.434   2.187
  727SOL    HW1 2206   2.684   2.345   2.141
  727SOL    HW2 2207   2.583   2.468   2.179
  728SOL     OW 2208   2.335   2.362   2.053
  728SOL    HW1 2209   2.396   2.442   2.057
  728SOL    HW2 2210   2.240   2.393   2.060
  729SOL     OW 2211   2.765   1.948   1.995
  729SOL    HW1 2212   2.816   1.949   1.909
  729SOL    HW2 2213   2.821   1.906   2.066
  730SOL     OW 2214   2.125   2.188   2.582
  730SOL    HW1 2215   2.046   2.239   2.548
  730SOL    HW2 2216   2.116   2.173   2.680
  731SOL     OW 2217   2.901   2.960   2.558
  731SOL    HW1 2218   2.831   2.913   2.612
  731SOL    HW2 2219   2.960   2.892   2.515
  732SOL     OW 2220   1.937   2.207   1.895
  732SOL    HW1 2221   1.845   2.179   1.866
  732SOL    HW2 2222   1.968   2.284   1.839
  733SOL     OW 2223   1.934   2.028   2.180
  733SOL    HW1 2224   1.917   2.111   2.126
  733SOL    HW2 2225   2.024   1.991   2.158
  734SOL     OW 2226   3.087   2.187   2.311
  734SOL    HW1 2227   3.152   2.113   2.300
  734SOL    HW2 2228   3.107   2.237   2.395
  735SOL     OW 2229   2.456   2.607   2.514
  735SOL    HW1 2230   2.506   2.692   2.495
  735SOL    HW2 2231   2.368   2.609   2.466
  736SOL     OW 2232   2.721   2.818   2.723
  736SOL    HW1 2233   2.775   2.749   2.771
  736SOL    HW2 2234   2.689   2.887   2.789
  737SOL     OW 2235   2.290   2.286   2.382
  737SOL    HW1 2236   2.320   2.214   2.320
  737SOL    HW2 2237   2.251   2.246   2.465
   2.84650   2.84650   2.84650
