; mobley_8311321_GMX.top created by acpype (v: 2023.10.27) on Thu May 14 14:01:31 2026

[ defaults ]
; nbfunc        comb-rule       gen-pairs       fudgeLJ fudgeQQ
1               2               yes             0.5     0.8333333333

; Include mobley_8311321_GMX.itp topology
#include "mobley_8311321_GMX.itp"

; Ligand position restraints
#ifdef POSRES_LIG
#include "posre_mobley_8311321.itp"
#endif

#include "../common/SOL.TIP3P.itp"

[ system ]
mobley_8311321 in water

[ molecules ]
; Compound        nmols
 mobley_8311321   1     
SOL               374
