mobley_3968043_GMX.gro created by acpype (v: 2023.10.27) on Thu May 14 13:44:34 2026
 1451
    1MOL     C1    1   1.103   1.243   1.174
    1MOL     C2    2   1.211   1.348   1.177
    1MOL     C3    3   1.149   1.112   1.233
    1MOL     C4    4   1.334   1.266   1.213
    1MOL     C5    5   1.280   1.153   1.300
    1MOL     O1    6   0.990   1.261   1.129
    1MOL     H1    7   1.221   1.397   1.080
    1MOL     H2    8   1.187   1.421   1.255
    1MOL     H3    9   1.077   1.073   1.306
    1MOL     H4   10   1.166   1.041   1.152
    1MOL     H5   11   1.379   1.224   1.122
    1MOL     H6   12   1.410   1.325   1.264
    1MOL     H7   13   1.261   1.190   1.401
    1MOL     H8   14   1.350   1.069   1.308
    2SOL     OW   15   0.230   0.628   0.113
    2SOL    HW1   16   0.137   0.626   0.150
    2SOL    HW2   17   0.231   0.589   0.021
    3SOL     OW   18   0.225   0.275   0.996
    3SOL    HW1   19   0.260   0.258   1.088
    3SOL    HW2   20   0.137   0.230   0.984
    4SOL     OW   21   0.019   0.368   0.647
    4SOL    HW1   22  -0.063   0.411   0.686
    4SOL    HW2   23  -0.009   0.295   0.584
    5SOL     OW   24   0.569   1.275   1.165
    5SOL    HW1   25   0.476   1.268   1.128
    5SOL    HW2   26   0.580   1.364   1.209
    6SOL     OW   27   1.555   1.511   0.703
    6SOL    HW1   28   1.498   1.495   0.784
    6SOL    HW2   29   1.496   1.521   0.623
    7SOL     OW   30   1.135   0.703   0.717
    7SOL    HW1   31   1.192   0.781   0.692
    7SOL    HW2   32   1.075   0.729   0.793
    8SOL     OW   33   1.755   0.607   0.231
    8SOL    HW1   34   1.743   0.594   0.132
    8SOL    HW2   35   1.725   0.526   0.280
    9SOL     OW   36   0.768   1.144   1.023
    9SOL    HW1   37   0.690   1.161   1.083
    9SOL    HW2   38   0.802   1.231   0.987
   10SOL     OW   39   0.850   0.798   1.823
   10SOL    HW1   40   0.846   0.874   1.888
   10SOL    HW2   41   0.872   0.834   1.732
   11SOL     OW   42   0.685   1.012   0.665
   11SOL    HW1   43   0.754   0.996   0.735
   11SOL    HW2   44   0.612   1.069   0.703
   12SOL     OW   45   0.686   1.161   1.803
   12SOL    HW1   46   0.746   1.240   1.817
   12SOL    HW2   47   0.600   1.192   1.762
   13SOL     OW   48   0.335   1.435   1.061
   13SOL    HW1   49   0.257   1.404   1.008
   13SOL    HW2   50   0.393   1.493   1.004
   14SOL     OW   51   1.460   1.505   1.339
   14SOL    HW1   52   1.484   1.599   1.365
   14SOL    HW2   53   1.444   1.451   1.421
   15SOL     OW   54   0.438   0.392   1.499
   15SOL    HW1   55   0.520   0.336   1.508
   15SOL    HW2   56   0.357   0.334   1.503
   16SOL     OW   57   1.603   0.447   0.737
   16SOL    HW1   58   1.529   0.493   0.687
   16SOL    HW2   59   1.654   0.515   0.790
   17SOL     OW   60   0.231   1.713   0.483
   17SOL    HW1   61   0.265   1.790   0.537
   17SOL    HW2   62   0.275   1.713   0.393
   18SOL     OW   63   1.127   1.341   1.690
   18SOL    HW1   64   1.174   1.341   1.778
   18SOL    HW2   65   1.079   1.254   1.679
   19SOL     OW   66   0.230   1.434   0.538
   19SOL    HW1   67   0.204   1.530   0.538
   19SOL    HW2   68   0.159   1.380   0.583
   20SOL     OW   69   0.240   1.091   0.886
   20SOL    HW1   70   0.254   1.007   0.938
   20SOL    HW2   71   0.185   1.155   0.941
   21SOL     OW   72   0.620   1.786   1.439
   21SOL    HW1   73   0.528   1.769   1.474
   21SOL    HW2   74   0.648   1.878   1.465
   22SOL     OW   75   0.606   0.964   0.123
   22SOL    HW1   76   0.613   1.048   0.069
   22SOL    HW2   77   0.652   0.977   0.211
   23SOL     OW   78   1.594   0.114   1.480
   23SOL    HW1   79   1.576   0.181   1.408
   23SOL    HW2   80   1.591   0.160   1.569
   24SOL     OW   81   0.122   0.643   0.563
   24SOL    HW1   82   0.077   0.555   0.580
   24SOL    HW2   83   0.121   0.697   0.647
   25SOL     OW   84   1.842   1.767   0.359
   25SOL    HW1   85   1.896   1.738   0.439
   25SOL    HW2   86   1.872   1.857   0.330
   26SOL     OW   87   0.027   1.596   0.117
   26SOL    HW1   88   0.008   1.500   0.138
   26SOL    HW2   89  -0.006   1.654   0.192
   27SOL     OW   90   1.689   0.922   0.612
   27SOL    HW1   91   1.784   0.893   0.620
   27SOL    HW2   92   1.681   0.987   0.537
   28SOL     OW   93   1.641   1.108   0.432
   28SOL    HW1   94   1.727   1.110   0.380
   28SOL    HW2   95   1.655   1.155   0.520
   29SOL     OW   96   0.113   0.737   1.597
   29SOL    HW1   97   0.201   0.724   1.642
   29SOL    HW2   98   0.100   0.834   1.575
   30SOL     OW   99   0.613   1.365   0.726
   30SOL    HW1  100   0.564   1.278   0.735
   30SOL    HW2  101   0.590   1.408   0.639
   31SOL     OW  102   0.809   0.004   0.502
   31SOL    HW1  103   0.849   0.095   0.493
   31SOL    HW2  104   0.709   0.012   0.508
   32SOL     OW  105   0.197   0.976   1.264
   32SOL    HW1  106   0.286   0.931   1.250
   32SOL    HW2  107   0.124   0.911   1.245
   33SOL     OW  108   1.525   0.999   0.190
   33SOL    HW1  109   1.462   0.923   0.203
   33SOL    HW2  110   1.573   1.017   0.276
   34SOL     OW  111   1.187   1.792   1.616
   34SOL    HW1  112   1.211   1.852   1.540
   34SOL    HW2  113   1.194   1.697   1.586
   35SOL     OW  114   0.317   0.251   1.801
   35SOL    HW1  115   0.388   0.322   1.807
   35SOL    HW2  116   0.229   0.290   1.829
   36SOL     OW  117   1.466   1.417   0.953
   36SOL    HW1  118   1.407   1.423   1.033
   36SOL    HW2  119   1.451   1.329   0.907
   37SOL     OW  120   1.667   1.714   0.572
   37SOL    HW1  121   1.626   1.691   0.484
   37SOL    HW2  122   1.649   1.640   0.637
   38SOL     OW  123   0.598   0.729   0.270
   38SOL    HW1  124   0.622   0.798   0.202
   38SOL    HW2  125   0.520   0.762   0.324
   39SOL     OW  126   1.281   0.345   0.944
   39SOL    HW1  127   1.195   0.295   0.931
   39SOL    HW2  128   1.343   0.291   1.000
   40SOL     OW  129   1.576   1.662   0.307
   40SOL    HW1  130   1.665   1.708   0.310
   40SOL    HW2  131   1.555   1.638   0.212
   41SOL     OW  132   0.807   0.605   1.465
   41SOL    HW1  133   0.760   0.602   1.554
   41SOL    HW2  134   0.756   0.550   1.399
   42SOL     OW  135   1.394   0.469   1.674
   42SOL    HW1  136   1.374   0.512   1.762
   42SOL    HW2  137   1.472   0.407   1.683
   43SOL     OW  138   0.973   0.890   1.572
   43SOL    HW1  139   1.019   0.806   1.543
   43SOL    HW2  140   0.917   0.924   1.497
   44SOL     OW  141   0.991   0.410   1.242
   44SOL    HW1  142   0.914   0.444   1.296
   44SOL    HW2  143   0.957   0.359   1.163
   45SOL     OW  144   1.041   0.701   0.429
   45SOL    HW1  145   1.067   0.697   0.525
   45SOL    HW2  146   0.956   0.650   0.415
   46SOL     OW  147   0.076   0.811   0.789
   46SOL    HW1  148   0.175   0.799   0.798
   46SOL    HW2  149   0.052   0.906   0.810
   47SOL     OW  150   0.130   1.821   1.571
   47SOL    HW1  151   0.120   1.806   1.670
   47SOL    HW2  152   0.044   1.857   1.535
   48SOL     OW  153   0.865   0.348   0.195
   48SOL    HW1  154   0.924   0.411   0.146
   48SOL    HW2  155   0.884   0.254   0.166
   49SOL     OW  156   1.719   0.585   1.831
   49SOL    HW1  157   1.693   0.674   1.795
   49SOL    HW2  158   1.717   0.517   1.758
   50SOL     OW  159   1.362   1.144   0.545
   50SOL    HW1  160   1.445   1.115   0.497
   50SOL    HW2  161   1.313   1.211   0.489
   51SOL     OW  162   0.550   0.196   0.885
   51SOL    HW1  163   0.545   0.191   0.985
   51SOL    HW2  164   0.552   0.292   0.856
   52SOL     OW  165   1.008   1.456   0.477
   52SOL    HW1  166   0.962   1.528   0.425
   52SOL    HW2  167   1.004   1.476   0.575
   53SOL     OW  168   0.351   1.801   0.853
   53SOL    HW1  169   0.401   1.715   0.859
   53SOL    HW2  170   0.416   1.878   0.850
   54SOL     OW  171   1.795   1.066   0.873
   54SOL    HW1  172   1.733   1.051   0.797
   54SOL    HW2  173   1.743   1.077   0.958
   55SOL     OW  174   1.227   1.550   1.506
   55SOL    HW1  175   1.233   1.473   1.570
   55SOL    HW2  176   1.175   1.524   1.426
   56SOL     OW  177   0.321   0.943   0.242
   56SOL    HW1  178   0.403   0.982   0.200
   56SOL    HW2  179   0.294   0.861   0.193
   57SOL     OW  180   1.458   0.735   0.728
   57SOL    HW1  181   1.453   0.670   0.803
   57SOL    HW2  182   1.538   0.794   0.741
   58SOL     OW  183   0.461   1.266   1.727
   58SOL    HW1  184   0.411   1.267   1.641
   58SOL    HW2  185   0.398   1.248   1.803
   59SOL     OW  186   1.111   1.776   0.237
   59SOL    HW1  187   1.051   1.714   0.287
   59SOL    HW2  188   1.142   1.732   0.152
   60SOL     OW  189   0.202   0.285   1.498
   60SOL    HW1  190   0.122   0.345   1.485
   60SOL    HW2  191   0.192   0.236   1.584
   61SOL     OW  192   1.632   1.377   0.081
   61SOL    HW1  193   1.600   1.471   0.071
   61SOL    HW2  194   1.556   1.314   0.069
   62SOL     OW  195   0.464   1.743   0.323
   62SOL    HW1  196   0.497   1.782   0.409
   62SOL    HW2  197   0.540   1.736   0.258
   63SOL     OW  198   1.400   0.107   0.426
   63SOL    HW1  199   1.376   0.070   0.336
   63SOL    HW2  200   1.499   0.123   0.430
   64SOL     OW  201   0.249   1.785   1.241
   64SOL    HW1  202   0.306   1.720   1.291
   64SOL    HW2  203   0.233   1.752   1.148
   65SOL     OW  204   0.940   1.698   0.904
   65SOL    HW1  205   1.020   1.641   0.925
   65SOL    HW2  206   0.891   1.658   0.827
   66SOL     OW  207   0.382   0.700   0.480
   66SOL    HW1  208   0.427   0.610   0.477
   66SOL    HW2  209   0.288   0.689   0.513
   67SOL     OW  210   1.547   0.222   1.729
   67SOL    HW1  211   1.542   0.259   1.821
   67SOL    HW2  212   1.475   0.153   1.717
   68SOL     OW  213   0.614   0.122   0.117
   68SOL    HW1  214   0.712   0.100   0.124
   68SOL    HW2  215   0.583   0.105   0.024
   69SOL     OW  216   0.781   0.264   1.749
   69SOL    HW1  217   0.848   0.203   1.792
   69SOL    HW2  218   0.708   0.283   1.814
   70SOL     OW  219   0.888   1.514   1.195
   70SOL    HW1  220   0.865   1.489   1.101
   70SOL    HW2  221   0.949   1.445   1.234
   71SOL     OW  222   1.351   0.590   1.433
   71SOL    HW1  223   1.379   0.547   1.518
   71SOL    HW2  224   1.376   0.686   1.434
   72SOL     OW  225   0.803   1.402   0.924
   72SOL    HW1  226   0.893   1.416   0.882
   72SOL    HW2  227   0.732   1.404   0.853
   73SOL     OW  228   0.922   0.503   0.899
   73SOL    HW1  229   0.897   0.494   0.803
   73SOL    HW2  230   0.970   0.421   0.930
   74SOL     OW  231   0.539   0.064   0.512
   74SOL    HW1  232   0.458   0.065   0.570
   74SOL    HW2  233   0.542   0.147   0.457
   75SOL     OW  234   1.434   1.188   0.041
   75SOL    HW1  235   1.466   1.112   0.098
   75SOL    HW2  236   1.342   1.215   0.071
   76SOL     OW  237   0.297   0.035   0.171
   76SOL    HW1  238   0.346   0.119   0.150
   76SOL    HW2  239   0.359  -0.030   0.216
   77SOL     OW  240   0.935   0.236   0.480
   77SOL    HW1  241   0.887   0.277   0.402
   77SOL    HW2  242   1.034   0.234   0.461
   78SOL     OW  243   1.076   0.683   1.464
   78SOL    HW1  244   0.996   0.622   1.467
   78SOL    HW2  245   1.157   0.630   1.440
   79SOL     OW  246   1.227   1.570   0.793
   79SOL    HW1  247   1.248   1.644   0.728
   79SOL    HW2  248   1.295   1.570   0.866
   80SOL     OW  249   0.459   1.152   0.741
   80SOL    HW1  250   0.388   1.125   0.806
   80SOL    HW2  251   0.433   1.124   0.648
   81SOL     OW  252   1.271   1.797   0.591
   81SOL    HW1  253   1.315   1.861   0.527
   81SOL    HW2  254   1.221   1.849   0.661
   82SOL     OW  255   1.032   0.549   0.016
   82SOL    HW1  256   0.991   0.631  -0.023
   82SOL    HW2  257   1.096   0.575   0.089
   83SOL     OW  258   0.078   0.556   1.386
   83SOL    HW1  259   0.170   0.555   1.345
   83SOL    HW2  260   0.072   0.630   1.453
   84SOL     OW  261   0.561   0.222   1.147
   84SOL    HW1  262   0.599   0.138   1.184
   84SOL    HW2  263   0.473   0.241   1.191
   85SOL     OW  264   0.866   0.454   0.642
   85SOL    HW1  265   0.834   0.526   0.580
   85SOL    HW2  266   0.890   0.373   0.589
   86SOL     OW  267   1.017   0.039   0.753
   86SOL    HW1  268   0.945   0.044   0.684
   86SOL    HW2  269   0.993  -0.030   0.822
   87SOL     OW  270   1.429   1.173   0.867
   87SOL    HW1  271   1.374   1.089   0.860
   87SOL    HW2  272   1.455   1.202   0.775
   88SOL     OW  273   1.466   0.590   0.992
   88SOL    HW1  274   1.436   0.495   0.999
   88SOL    HW2  275   1.539   0.606   1.058
   89SOL     OW  276   1.857   0.833   0.377
   89SOL    HW1  277   1.899   0.769   0.441
   89SOL    HW2  278   1.819   0.782   0.299
   90SOL     OW  279   0.488   1.385   0.174
   90SOL    HW1  280   0.401   1.370   0.221
   90SOL    HW2  281   0.471   1.411   0.079
   91SOL     OW  282   1.664   1.280   0.657
   91SOL    HW1  283   1.763   1.288   0.671
   91SOL    HW2  284   1.619   1.364   0.688
   92SOL     OW  285   1.390   0.575   0.078
   92SOL    HW1  286   1.336   0.554   0.159
   92SOL    HW2  287   1.481   0.534   0.087
   93SOL     OW  288   0.527   0.256   0.328
   93SOL    HW1  289   0.554   0.197   0.253
   93SOL    HW2  290   0.527   0.351   0.297
   94SOL     OW  291   1.754   1.223   1.588
   94SOL    HW1  292   1.845   1.184   1.575
   94SOL    HW2  293   1.762   1.319   1.612
   95SOL     OW  294   1.064   1.347   1.340
   95SOL    HW1  295   0.984   1.324   1.395
   95SOL    HW2  296   1.147   1.321   1.389
   96SOL     OW  297   1.592   1.629   1.625
   96SOL    HW1  298   1.619   1.663   1.535
   96SOL    HW2  299   1.671   1.591   1.671
   97SOL     OW  300   1.638   1.099   1.079
   97SOL    HW1  301   1.643   1.180   1.138
   97SOL    HW2  302   1.552   1.101   1.028
   98SOL     OW  303   0.915   0.089   1.402
   98SOL    HW1  304   0.940   0.069   1.307
   98SOL    HW2  305   0.987   0.145   1.444
   99SOL     OW  306   0.980   1.116   1.719
   99SOL    HW1  307   0.881   1.122   1.729
   99SOL    HW2  308   1.003   1.036   1.663
  100SOL     OW  309   0.705   1.050   0.368
  100SOL    HW1  310   0.691   1.057   0.467
  100SOL    HW2  311   0.789   0.999   0.350
  101SOL     OW  312   0.410   0.813   1.251
  101SOL    HW1  313   0.496   0.825   1.301
  101SOL    HW2  314   0.368   0.726   1.278
  102SOL     OW  315   1.274   0.386   1.262
  102SOL    HW1  316   1.295   0.460   1.326
  102SOL    HW2  317   1.185   0.403   1.219
  103SOL     OW  318   0.064   1.564   1.331
  103SOL    HW1  319   0.018   1.646   1.297
  103SOL    HW2  320   0.162   1.583   1.340
  104SOL     OW  321   0.367   1.100   0.501
  104SOL    HW1  322   0.360   1.183   0.445
  104SOL    HW2  323   0.371   1.020   0.441
  105SOL     OW  324   0.566   0.537   0.865
  105SOL    HW1  325   0.578   0.603   0.791
  105SOL    HW2  326   0.612   0.571   0.948
  106SOL     OW  327   1.252   1.348   0.388
  106SOL    HW1  328   1.302   1.425   0.428
  106SOL    HW2  329   1.157   1.350   0.420
  107SOL     OW  330   1.582   0.639   0.472
  107SOL    HW1  331   1.551   0.700   0.545
  107SOL    HW2  332   1.632   0.691   0.403
  108SOL     OW  333   0.354   1.510   1.329
  108SOL    HW1  334   0.333   1.466   1.242
  108SOL    HW2  335   0.451   1.536   1.332
  109SOL     OW  336   0.402   0.751   1.598
  109SOL    HW1  337   0.470   0.806   1.551
  109SOL    HW2  338   0.442   0.663   1.625
  110SOL     OW  339   1.587   0.779   1.670
  110SOL    HW1  340   1.495   0.817   1.665
  110SOL    HW2  341   1.647   0.826   1.605
  111SOL     OW  342   1.013   0.105   1.770
  111SOL    HW1  343   1.019   0.190   1.718
  111SOL    HW2  344   1.045   0.029   1.713
  112SOL     OW  345   0.504   0.050   1.740
  112SOL    HW1  346   0.462  -0.007   1.670
  112SOL    HW2  347   0.438   0.119   1.772
  113SOL     OW  348   0.573   0.870   1.029
  113SOL    HW1  349   0.617   0.959   1.020
  113SOL    HW2  350   0.510   0.870   1.106
  114SOL     OW  351   1.360   0.862   1.045
  114SOL    HW1  352   1.285   0.862   0.979
  114SOL    HW2  353   1.397   0.770   1.054
  115SOL     OW  354   1.209   0.525   0.275
  115SOL    HW1  355   1.222   0.441   0.329
  115SOL    HW2  356   1.180   0.599   0.335
  116SOL     OW  357   0.307   0.213   1.231
  116SOL    HW1  358   0.284   0.250   1.321
  116SOL    HW2  359   0.277   0.118   1.225
  117SOL     OW  360   0.037   1.310   1.282
  117SOL    HW1  361   0.090   1.261   1.350
  117SOL    HW2  362   0.059   1.408   1.287
  118SOL     OW  363   0.732   0.634   1.064
  118SOL    HW1  364   0.791   0.608   0.988
  118SOL    HW2  365   0.704   0.730   1.053
  119SOL     OW  366   1.728   0.935   1.854
  119SOL    HW1  367   1.682   0.928   1.765
  119SOL    HW2  368   1.666   0.979   1.920
  120SOL     OW  369   0.307   0.063   0.618
  120SOL    HW1  370   0.296   0.157   0.651
  120SOL    HW2  371   0.302   0.000   0.695
  121SOL     OW  372   1.622   0.367   0.374
  121SOL    HW1  373   1.624   0.291   0.438
  121SOL    HW2  374   1.574   0.444   0.414
  122SOL     OW  375   1.023   0.766   0.966
  122SOL    HW1  376   1.038   0.787   1.062
  122SOL    HW2  377   0.993   0.671   0.957
  123SOL     OW  378   0.980   1.573   1.700
  123SOL    HW1  379   0.960   1.617   1.612
  123SOL    HW2  380   1.019   1.482   1.684
  124SOL     OW  381   1.859   1.518   1.605
  124SOL    HW1  382   1.873   1.545   1.510
  124SOL    HW2  383   1.942   1.540   1.658
  125SOL     OW  384   0.350   0.898   1.804
  125SOL    HW1  385   0.426   0.942   1.852
  125SOL    HW2  386   0.385   0.851   1.722
  126SOL     OW  387   1.540   0.274   0.125
  126SOL    HW1  388   1.479   0.199   0.148
  126SOL    HW2  389   1.562   0.326   0.208
  127SOL     OW  390   1.303   0.838   0.042
  127SOL    HW1  391   1.337   0.745   0.057
  127SOL    HW2  392   1.321   0.865  -0.053
  128SOL     OW  393   1.068   1.333   0.849
  128SOL    HW1  394   1.075   1.249   0.794
  128SOL    HW2  395   1.130   1.402   0.813
  129SOL     OW  396   0.319   0.810   0.949
  129SOL    HW1  397   0.412   0.846   0.954
  129SOL    HW2  398   0.313   0.725   1.001
  130SOL     OW  399   0.339   0.509   1.006
  130SOL    HW1  400   0.287   0.426   0.989
  130SOL    HW2  401   0.416   0.514   0.942
  131SOL     OW  402   1.138   0.380   1.678
  131SOL    HW1  403   1.093   0.443   1.742
  131SOL    HW2  404   1.231   0.411   1.661
  132SOL     OW  405   1.160   0.207   1.477
  132SOL    HW1  406   1.160   0.271   1.554
  132SOL    HW2  407   1.188   0.255   1.394
  133SOL     OW  408   0.008   1.326   0.200
  133SOL    HW1  409  -0.085   1.347   0.169
  133SOL    HW2  410   0.018   1.227   0.213
  134SOL     OW  411   0.088   1.801   0.927
  134SOL    HW1  412   0.046   1.715   0.900
  134SOL    HW2  413   0.182   1.804   0.893
  135SOL     OW  414   0.504   1.568   0.910
  135SOL    HW1  415   0.570   1.642   0.919
  135SOL    HW2  416   0.548   1.489   0.868
  136SOL     OW  417   1.002   0.796   1.238
  136SOL    HW1  418   1.043   0.764   1.324
  136SOL    HW2  419   0.906   0.769   1.235
  137SOL     OW  420   0.040   0.544   1.114
  137SOL    HW1  421   0.125   0.511   1.073
  137SOL    HW2  422   0.053   0.559   1.212
  138SOL     OW  423   0.189   0.520   1.722
  138SOL    HW1  424   0.248   0.480   1.652
  138SOL    HW2  425   0.131   0.591   1.681
  139SOL     OW  426   1.369   0.950   1.660
  139SOL    HW1  427   1.408   1.039   1.680
  139SOL    HW2  428   1.379   0.930   1.563
  140SOL     OW  429   0.815   0.572   0.325
  140SOL    HW1  430   0.822   0.483   0.279
  140SOL    HW2  431   0.721   0.606   0.317
  141SOL     OW  432   1.657   0.604   1.206
  141SOL    HW1  433   1.619   0.535   1.268
  141SOL    HW2  434   1.739   0.568   1.162
  142SOL     OW  435   0.252   1.564   1.744
  142SOL    HW1  436   0.222   1.621   1.820
  142SOL    HW2  437   0.245   1.467   1.770
  143SOL     OW  438   0.671   0.464   1.269
  143SOL    HW1  439   0.637   0.375   1.239
  143SOL    HW2  440   0.697   0.518   1.189
  144SOL     OW  441   0.930   1.678   1.465
  144SOL    HW1  442   0.906   1.660   1.370
  144SOL    HW2  443   0.960   1.772   1.475
  145SOL     OW  444   0.473   0.500   0.191
  145SOL    HW1  445   0.534   0.580   0.195
  145SOL    HW2  446   0.378   0.531   0.198
  146SOL     OW  447   0.159   1.137   1.466
  146SOL    HW1  448   0.181   1.076   1.542
  146SOL    HW2  449   0.169   1.088   1.380
  147SOL     OW  450   1.302   0.855   0.309
  147SOL    HW1  451   1.216   0.824   0.351
  147SOL    HW2  452   1.298   0.841   0.210
  148SOL     OW  453   1.759   1.747   1.154
  148SOL    HW1  454   1.820   1.777   1.081
  148SOL    HW2  455   1.721   1.658   1.132
  149SOL     OW  456   1.252   1.731   1.128
  149SOL    HW1  457   1.336   1.736   1.074
  149SOL    HW2  458   1.229   1.635   1.146
  150SOL     OW  459   0.083   1.258   1.022
  150SOL    HW1  460   0.078   1.257   1.122
  150SOL    HW2  461   0.000   1.217   0.984
  151SOL     OW  462   0.688   1.662   1.716
  151SOL    HW1  463   0.632   1.743   1.725
  151SOL    HW2  464   0.740   1.666   1.630
  152SOL     OW  465   0.903   0.086   0.133
  152SOL    HW1  466   0.954   0.087   0.047
  152SOL    HW2  467   0.959   0.044   0.204
  153SOL     OW  468   1.726   0.135   0.523
  153SOL    HW1  469   1.799   0.118   0.456
  153SOL    HW2  470   1.695   0.048   0.561
  154SOL     OW  471   1.388   1.573   0.477
  154SOL    HW1  472   1.455   1.585   0.403
  154SOL    HW2  473   1.348   1.662   0.500
  155SOL     OW  474   0.130   1.794   1.851
  155SOL    HW1  475   0.089   1.720   1.904
  155SOL    HW2  476   0.194   1.845   1.909
  156SOL     OW  477   1.280   0.927   0.672
  156SOL    HW1  478   1.340   0.846   0.674
  156SOL    HW2  479   1.320   0.996   0.612
  157SOL     OW  480   0.830   1.273   1.422
  157SOL    HW1  481   0.825   1.306   1.517
  157SOL    HW2  482   0.744   1.292   1.376
  158SOL     OW  483   0.672   1.616   0.154
  158SOL    HW1  484   0.681   1.626   0.055
  158SOL    HW2  485   0.632   1.527   0.175
  159SOL     OW  486   1.650   1.720   1.394
  159SOL    HW1  487   1.703   1.730   1.310
  159SOL    HW2  488   1.623   1.810   1.428
  160SOL     OW  489   1.841   0.175   0.963
  160SOL    HW1  490   1.880   0.090   0.927
  160SOL    HW2  491   1.743   0.177   0.944
  161SOL     OW  492   0.263   0.326   0.720
  161SOL    HW1  493   0.184   0.377   0.686
  161SOL    HW2  494   0.254   0.311   0.818
  162SOL     OW  495   1.194   1.612   0.031
  162SOL    HW1  496   1.200   1.519   0.068
  162SOL    HW2  497   1.135   1.612  -0.049
  163SOL     OW  498   0.822   1.002   1.372
  163SOL    HW1  499   0.862   1.001   1.280
  163SOL    HW2  500   0.832   1.094   1.412
  164SOL     OW  501   0.916   0.910   0.291
  164SOL    HW1  502   0.979   0.948   0.223
  164SOL    HW2  503   0.956   0.827   0.330
  165SOL     OW  504   1.504   1.607   0.044
  165SOL    HW1  505   1.412   1.644   0.051
  165SOL    HW2  506   1.542   1.627  -0.046
  166SOL     OW  507   0.372   1.288   1.490
  166SOL    HW1  508   0.359   1.381   1.456
  166SOL    HW2  509   0.288   1.236   1.477
  167SOL     OW  510   1.614   1.292   1.289
  167SOL    HW1  511   1.674   1.295   1.369
  167SOL    HW2  512   1.539   1.356   1.302
  168SOL     OW  513   1.039   1.098   0.696
  168SOL    HW1  514   0.969   1.051   0.750
  168SOL    HW2  515   1.098   1.030   0.653
  169SOL     OW  516   1.014   0.236   0.971
  169SOL    HW1  517   1.006   0.200   0.878
  169SOL    HW2  518   1.012   0.160   1.036
  170SOL     OW  519   0.590   1.487   0.491
  170SOL    HW1  520   0.632   1.429   0.421
  170SOL    HW2  521   0.546   1.566   0.447
  171SOL     OW  522   1.709   0.385   1.381
  171SOL    HW1  523   1.782   0.454   1.385
  171SOL    HW2  524   1.737   0.310   1.322
  172SOL     OW  525   0.255   1.348   0.290
  172SOL    HW1  526   0.159   1.349   0.263
  172SOL    HW2  527   0.267   1.401   0.374
  173SOL     OW  528   0.105   1.013   1.726
  173SOL    HW1  529   0.028   0.980   1.780
  173SOL    HW2  530   0.190   0.983   1.768
  174SOL     OW  531   0.672   0.203   1.489
  174SOL    HW1  532   0.762   0.187   1.449
  174SOL    HW2  533   0.680   0.208   1.588
  175SOL     OW  534   0.075   0.345   0.033
  175SOL    HW1  535  -0.017   0.317   0.004
  175SOL    HW2  536   0.106   0.422  -0.023
  176SOL     OW  537   1.440   0.856   1.398
  176SOL    HW1  538   1.383   0.908   1.335
  176SOL    HW2  539   1.536   0.868   1.374
  177SOL     OW  540   0.072   0.166   0.318
  177SOL    HW1  541   0.055   0.249   0.264
  177SOL    HW2  542   0.162   0.129   0.296
  178SOL     OW  543   1.183   1.335   0.119
  178SOL    HW1  544   1.084   1.324   0.121
  178SOL    HW2  545   1.217   1.350   0.212
  179SOL     OW  546   0.613   0.842   1.431
  179SOL    HW1  547   0.669   0.923   1.414
  179SOL    HW2  548   0.672   0.762   1.434
  180SOL     OW  549   1.493   1.767   0.959
  180SOL    HW1  550   1.526   1.831   0.890
  180SOL    HW2  551   1.559   1.761   1.034
  181SOL     OW  552   0.716   0.565   1.708
  181SOL    HW1  553   0.735   0.630   1.782
  181SOL    HW2  554   0.776   0.485   1.717
  182SOL     OW  555   1.450   1.220   1.633
  182SOL    HW1  556   1.441   1.210   1.732
  182SOL    HW2  557   1.546   1.213   1.607
  183SOL     OW  558   0.390   1.741   1.560
  183SOL    HW1  559   0.299   1.782   1.558
  183SOL    HW2  560   0.383   1.647   1.592
  184SOL     OW  561   1.674   0.883   1.254
  184SOL    HW1  562   1.647   0.794   1.217
  184SOL    HW2  563   1.675   0.951   1.181
  185SOL     OW  564   1.225   0.325   0.449
  185SOL    HW1  565   1.290   0.251   0.438
  185SOL    HW2  566   1.245   0.375   0.533
  186SOL     OW  567   0.594   0.745   0.652
  186SOL    HW1  568   0.644   0.830   0.633
  186SOL    HW2  569   0.506   0.747   0.604
  187SOL     OW  570   1.777   0.342   1.642
  187SOL    HW1  571   1.760   0.373   1.548
  187SOL    HW2  572   1.693   0.305   1.680
  188SOL     OW  573   1.730   0.934   1.517
  188SOL    HW1  574   1.768   1.025   1.532
  188SOL    HW2  575   1.722   0.917   1.418
  189SOL     OW  576   0.859   1.374   0.016
  189SOL    HW1  577   0.813   1.389   0.104
  189SOL    HW2  578   0.903   1.459  -0.014
  190SOL     OW  579   0.661   1.790   0.953
  190SOL    HW1  580   0.615   1.878   0.940
  190SOL    HW2  581   0.760   1.802   0.946
  191SOL     OW  582   0.859   0.956   0.861
  191SOL    HW1  583   0.913   0.887   0.909
  191SOL    HW2  584   0.827   1.025   0.927
  192SOL     OW  585   1.083   0.984   0.087
  192SOL    HW1  586   1.060   1.037   0.005
  192SOL    HW2  587   1.164   0.928   0.068
  193SOL     OW  588   1.861   1.569   0.851
  193SOL    HW1  589   1.790   1.557   0.781
  193SOL    HW2  590   1.862   1.490   0.911
  194SOL     OW  591   0.221   1.314   1.844
  194SOL    HW1  592   0.156   1.241   1.823
  194SOL    HW2  593   0.225   1.328   1.942
  195SOL     OW  594   0.079   1.240   0.653
  195SOL    HW1  595   0.078   1.193   0.741
  195SOL    HW2  596   0.161   1.212   0.602
  196SOL     OW  597   0.672   1.391   1.624
  196SOL    HW1  598   0.594   1.341   1.662
  196SOL    HW2  599   0.669   1.486   1.655
  197SOL     OW  600   1.824   0.192   1.227
  197SOL    HW1  601   1.820   0.102   1.271
  197SOL    HW2  602   1.827   0.181   1.128
  198SOL     OW  603   0.428   0.424   0.520
  198SOL    HW1  604   0.458   0.352   0.458
  198SOL    HW2  605   0.389   0.384   0.603
  199SOL     OW  606   1.705   1.487   1.104
  199SOL    HW1  607   1.612   1.462   1.077
  199SOL    HW2  608   1.731   1.437   1.186
  200SOL     OW  609   0.317   0.547   1.280
  200SOL    HW1  610   0.355   0.488   1.352
  200SOL    HW2  611   0.357   0.521   1.192
  201SOL     OW  612   0.812   1.586   0.687
  201SOL    HW1  613   0.844   1.596   0.593
  201SOL    HW2  614   0.733   1.524   0.689
  202SOL     OW  615   1.424   0.214   1.112
  202SOL    HW1  616   1.476   0.149   1.167
  202SOL    HW2  617   1.375   0.277   1.173
  203SOL     OW  618   1.001   0.034   1.154
  203SOL    HW1  619   0.938  -0.038   1.123
  203SOL    HW2  620   1.094  -0.002   1.154
  204SOL     OW  621   0.770   1.330   0.301
  204SOL    HW1  622   0.724   1.243   0.318
  204SOL    HW2  623   0.861   1.327   0.342
  205SOL     OW  624   0.618   1.567   1.284
  205SOL    HW1  625   0.613   1.649   1.341
  205SOL    HW2  626   0.707   1.564   1.239
  206SOL     OW  627   1.352   0.052   0.168
  206SOL    HW1  628   1.387   0.011   0.084
  206SOL    HW2  629   1.262   0.014   0.188
  207SOL     OW  630   1.300   0.453   0.691
  207SOL    HW1  631   1.241   0.533   0.695
  207SOL    HW2  632   1.315   0.418   0.784
  208SOL     OW  633   1.593   0.221   0.882
  208SOL    HW1  634   1.509   0.220   0.936
  208SOL    HW2  635   1.595   0.304   0.826
  209SOL     OW  636   0.039   1.077   0.300
  209SOL    HW1  637   0.138   1.066   0.291
  209SOL    HW2  638  -0.001   0.991   0.332
  210SOL     OW  639   0.875   1.646   0.337
  210SOL    HW1  640   0.798   1.611   0.283
  210SOL    HW2  641   0.843   1.717   0.399
  211SOL     OW  642   0.230   0.628   1.975
  211SOL    HW1  643   0.137   0.626   2.012
  211SOL    HW2  644   0.231   0.589   1.883
  212SOL     OW  645   1.755   0.607   2.093
  212SOL    HW1  646   1.743   0.594   1.994
  212SOL    HW2  647   1.725   0.526   2.142
  213SOL     OW  648   0.231   1.713   2.345
  213SOL    HW1  649   0.265   1.790   2.399
  213SOL    HW2  650   0.275   1.713   2.255
  214SOL     OW  651   0.230   1.434   2.400
  214SOL    HW1  652   0.204   1.530   2.400
  214SOL    HW2  653   0.159   1.380   2.445
  215SOL     OW  654   0.606   0.964   1.985
  215SOL    HW1  655   0.613   1.048   1.931
  215SOL    HW2  656   0.652   0.977   2.073
  216SOL     OW  657   1.842   1.767   2.221
  216SOL    HW1  658   1.896   1.738   2.301
  216SOL    HW2  659   1.872   1.857   2.192
  217SOL     OW  660   0.027   1.596   1.979
  217SOL    HW1  661   0.008   1.500   2.000
  217SOL    HW2  662  -0.006   1.654   2.054
  218SOL     OW  663   1.689   0.922   2.474
  218SOL    HW1  664   1.784   0.893   2.482
  218SOL    HW2  665   1.681   0.987   2.399
  219SOL     OW  666   1.641   1.108   2.294
  219SOL    HW1  667   1.727   1.110   2.242
  219SOL    HW2  668   1.655   1.155   2.382
  220SOL     OW  669   0.809   0.004   2.364
  220SOL    HW1  670   0.849   0.095   2.355
  220SOL    HW2  671   0.709   0.012   2.370
  221SOL     OW  672   1.525   0.999   2.052
  221SOL    HW1  673   1.462   0.923   2.065
  221SOL    HW2  674   1.573   1.017   2.138
  222SOL     OW  675   0.598   0.729   2.132
  222SOL    HW1  676   0.622   0.798   2.064
  222SOL    HW2  677   0.520   0.762   2.186
  223SOL     OW  678   1.576   1.662   2.169
  223SOL    HW1  679   1.665   1.708   2.172
  223SOL    HW2  680   1.555   1.638   2.074
  224SOL     OW  681   0.865   0.348   2.057
  224SOL    HW1  682   0.924   0.411   2.008
  224SOL    HW2  683   0.884   0.254   2.028
  225SOL     OW  684   0.321   0.943   2.104
  225SOL    HW1  685   0.403   0.982   2.062
  225SOL    HW2  686   0.294   0.861   2.055
  226SOL     OW  687   1.111   1.776   2.099
  226SOL    HW1  688   1.051   1.714   2.149
  226SOL    HW2  689   1.142   1.732   2.014
  227SOL     OW  690   1.632   1.377   1.943
  227SOL    HW1  691   1.600   1.471   1.933
  227SOL    HW2  692   1.556   1.314   1.931
  228SOL     OW  693   0.464   1.743   2.185
  228SOL    HW1  694   0.497   1.782   2.271
  228SOL    HW2  695   0.540   1.736   2.120
  229SOL     OW  696   1.400   0.107   2.288
  229SOL    HW1  697   1.376   0.070   2.198
  229SOL    HW2  698   1.499   0.123   2.292
  230SOL     OW  699   0.382   0.700   2.342
  230SOL    HW1  700   0.427   0.610   2.339
  230SOL    HW2  701   0.288   0.689   2.375
  231SOL     OW  702   0.614   0.122   1.979
  231SOL    HW1  703   0.712   0.100   1.986
  231SOL    HW2  704   0.583   0.105   1.886
  232SOL     OW  705   1.434   1.188   1.903
  232SOL    HW1  706   1.466   1.112   1.960
  232SOL    HW2  707   1.342   1.215   1.933
  233SOL     OW  708   0.297   0.035   2.033
  233SOL    HW1  709   0.346   0.119   2.012
  233SOL    HW2  710   0.359  -0.030   2.078
  234SOL     OW  711   0.935   0.236   2.342
  234SOL    HW1  712   0.887   0.277   2.264
  234SOL    HW2  713   1.034   0.234   2.323
  235SOL     OW  714   0.459   1.152   2.603
  235SOL    HW1  715   0.388   1.125   2.668
  235SOL    HW2  716   0.433   1.124   2.510
  236SOL     OW  717   1.032   0.549   1.878
  236SOL    HW1  718   0.991   0.631   1.839
  236SOL    HW2  719   1.096   0.575   1.951
  237SOL     OW  720   1.857   0.833   2.239
  237SOL    HW1  721   1.899   0.769   2.303
  237SOL    HW2  722   1.819   0.782   2.161
  238SOL     OW  723   0.488   1.385   2.036
  238SOL    HW1  724   0.401   1.370   2.083
  238SOL    HW2  725   0.471   1.411   1.941
  239SOL     OW  726   1.390   0.575   1.940
  239SOL    HW1  727   1.336   0.554   2.021
  239SOL    HW2  728   1.481   0.534   1.949
  240SOL     OW  729   0.527   0.256   2.190
  240SOL    HW1  730   0.554   0.197   2.115
  240SOL    HW2  731   0.527   0.351   2.159
  241SOL     OW  732   0.705   1.050   2.230
  241SOL    HW1  733   0.691   1.057   2.329
  241SOL    HW2  734   0.789   0.999   2.212
  242SOL     OW  735   0.367   1.100   2.363
  242SOL    HW1  736   0.360   1.183   2.307
  242SOL    HW2  737   0.371   1.020   2.303
  243SOL     OW  738   1.252   1.348   2.250
  243SOL    HW1  739   1.302   1.425   2.290
  243SOL    HW2  740   1.157   1.350   2.282
  244SOL     OW  741   1.582   0.639   2.334
  244SOL    HW1  742   1.551   0.700   2.407
  244SOL    HW2  743   1.632   0.691   2.265
  245SOL     OW  744   1.209   0.525   2.137
  245SOL    HW1  745   1.222   0.441   2.191
  245SOL    HW2  746   1.180   0.599   2.197
  246SOL     OW  747   1.622   0.367   2.236
  246SOL    HW1  748   1.624   0.291   2.300
  246SOL    HW2  749   1.574   0.444   2.276
  247SOL     OW  750   1.540   0.274   1.987
  247SOL    HW1  751   1.479   0.199   2.010
  247SOL    HW2  752   1.562   0.326   2.070
  248SOL     OW  753   1.303   0.838   1.904
  248SOL    HW1  754   1.337   0.745   1.919
  248SOL    HW2  755   1.321   0.865   1.809
  249SOL     OW  756   0.008   1.326   2.062
  249SOL    HW1  757  -0.085   1.347   2.031
  249SOL    HW2  758   0.018   1.227   2.075
  250SOL     OW  759   0.815   0.572   2.187
  250SOL    HW1  760   0.822   0.483   2.141
  250SOL    HW2  761   0.721   0.606   2.179
  251SOL     OW  762   0.473   0.500   2.053
  251SOL    HW1  763   0.534   0.580   2.057
  251SOL    HW2  764   0.378   0.531   2.060
  252SOL     OW  765   1.302   0.855   2.171
  252SOL    HW1  766   1.216   0.824   2.213
  252SOL    HW2  767   1.298   0.841   2.072
  253SOL     OW  768   1.726   0.135   2.385
  253SOL    HW1  769   1.799   0.118   2.318
  253SOL    HW2  770   1.695   0.048   2.423
  254SOL     OW  771   1.388   1.573   2.339
  254SOL    HW1  772   1.455   1.585   2.265
  254SOL    HW2  773   1.348   1.662   2.362
  255SOL     OW  774   0.672   1.616   2.016
  255SOL    HW1  775   0.681   1.626   1.917
  255SOL    HW2  776   0.632   1.527   2.037
  256SOL     OW  777   1.194   1.612   1.893
  256SOL    HW1  778   1.200   1.519   1.930
  256SOL    HW2  779   1.135   1.612   1.813
  257SOL     OW  780   0.916   0.910   2.153
  257SOL    HW1  781   0.979   0.948   2.085
  257SOL    HW2  782   0.956   0.827   2.192
  258SOL     OW  783   1.504   1.607   1.906
  258SOL    HW1  784   1.412   1.644   1.913
  258SOL    HW2  785   1.542   1.627   1.816
  259SOL     OW  786   0.590   1.487   2.353
  259SOL    HW1  787   0.632   1.429   2.283
  259SOL    HW2  788   0.546   1.566   2.309
  260SOL     OW  789   0.255   1.348   2.152
  260SOL    HW1  790   0.159   1.349   2.125
  260SOL    HW2  791   0.267   1.401   2.236
  261SOL     OW  792   0.075   0.345   1.895
  261SOL    HW1  793  -0.017   0.317   1.866
  261SOL    HW2  794   0.106   0.422   1.839
  262SOL     OW  795   0.072   0.166   2.180
  262SOL    HW1  796   0.055   0.249   2.126
  262SOL    HW2  797   0.162   0.129   2.158
  263SOL     OW  798   1.183   1.335   1.981
  263SOL    HW1  799   1.084   1.324   1.983
  263SOL    HW2  800   1.217   1.350   2.074
  264SOL     OW  801   1.225   0.325   2.311
  264SOL    HW1  802   1.290   0.251   2.300
  264SOL    HW2  803   1.245   0.375   2.395
  265SOL     OW  804   0.859   1.374   1.878
  265SOL    HW1  805   0.813   1.389   1.966
  265SOL    HW2  806   0.903   1.459   1.848
  266SOL     OW  807   1.083   0.984   1.949
  266SOL    HW1  808   1.060   1.037   1.867
  266SOL    HW2  809   1.164   0.928   1.930
  267SOL     OW  810   0.428   0.424   2.382
  267SOL    HW1  811   0.458   0.352   2.320
  267SOL    HW2  812   0.389   0.384   2.465
  268SOL     OW  813   0.770   1.330   2.163
  268SOL    HW1  814   0.724   1.243   2.180
  268SOL    HW2  815   0.861   1.327   2.204
  269SOL     OW  816   1.352   0.052   2.030
  269SOL    HW1  817   1.387   0.011   1.946
  269SOL    HW2  818   1.262   0.014   2.050
  270SOL     OW  819   0.039   1.077   2.162
  270SOL    HW1  820   0.138   1.066   2.153
  270SOL    HW2  821  -0.001   0.991   2.194
  271SOL     OW  822   0.875   1.646   2.199
  271SOL    HW1  823   0.798   1.611   2.145
  271SOL    HW2  824   0.843   1.717   2.261
  272SOL     OW  825   0.225   2.137   0.996
  272SOL    HW1  826   0.260   2.120   1.088
  272SOL    HW2  827   0.137   2.092   0.984
  273SOL     OW  828   0.019   2.230   0.647
  273SOL    HW1  829  -0.063   2.273   0.686
  273SOL    HW2  830  -0.009   2.157   0.584
  274SOL     OW  831   1.755   2.469   0.231
  274SOL    HW1  832   1.743   2.456   0.132
  274SOL    HW2  833   1.725   2.388   0.280
  275SOL     OW  834   0.438   2.254   1.499
  275SOL    HW1  835   0.520   2.198   1.508
  275SOL    HW2  836   0.357   2.196   1.503
  276SOL     OW  837   1.603   2.309   0.737
  276SOL    HW1  838   1.529   2.355   0.687
  276SOL    HW2  839   1.654   2.377   0.790
  277SOL     OW  840   1.594   1.976   1.480
  277SOL    HW1  841   1.576   2.043   1.408
  277SOL    HW2  842   1.591   2.022   1.569
  278SOL     OW  843   0.122   2.505   0.563
  278SOL    HW1  844   0.077   2.417   0.580
  278SOL    HW2  845   0.121   2.559   0.647
  279SOL     OW  846   0.809   1.866   0.502
  279SOL    HW1  847   0.849   1.957   0.493
  279SOL    HW2  848   0.709   1.874   0.508
  280SOL     OW  849   0.317   2.113   1.801
  280SOL    HW1  850   0.388   2.184   1.807
  280SOL    HW2  851   0.229   2.152   1.829
  281SOL     OW  852   1.281   2.207   0.944
  281SOL    HW1  853   1.195   2.157   0.931
  281SOL    HW2  854   1.343   2.153   1.000
  282SOL     OW  855   1.394   2.331   1.674
  282SOL    HW1  856   1.374   2.374   1.762
  282SOL    HW2  857   1.472   2.269   1.683
  283SOL     OW  858   0.991   2.272   1.242
  283SOL    HW1  859   0.914   2.306   1.296
  283SOL    HW2  860   0.957   2.221   1.163
  284SOL     OW  861   0.865   2.210   0.195
  284SOL    HW1  862   0.924   2.273   0.146
  284SOL    HW2  863   0.884   2.116   0.166
  285SOL     OW  864   1.719   2.447   1.831
  285SOL    HW1  865   1.693   2.536   1.795
  285SOL    HW2  866   1.717   2.379   1.758
  286SOL     OW  867   0.550   2.058   0.885
  286SOL    HW1  868   0.545   2.053   0.985
  286SOL    HW2  869   0.552   2.154   0.856
  287SOL     OW  870   0.202   2.147   1.498
  287SOL    HW1  871   0.122   2.207   1.485
  287SOL    HW2  872   0.192   2.098   1.584
  288SOL     OW  873   1.400   1.969   0.426
  288SOL    HW1  874   1.376   1.932   0.336
  288SOL    HW2  875   1.499   1.985   0.430
  289SOL     OW  876   1.547   2.084   1.729
  289SOL    HW1  877   1.542   2.121   1.821
  289SOL    HW2  878   1.475   2.015   1.717
  290SOL     OW  879   0.614   1.984   0.117
  290SOL    HW1  880   0.712   1.962   0.124
  290SOL    HW2  881   0.583   1.967   0.024
  291SOL     OW  882   0.781   2.126   1.749
  291SOL    HW1  883   0.848   2.065   1.792
  291SOL    HW2  884   0.708   2.145   1.814
  292SOL     OW  885   1.351   2.452   1.433
  292SOL    HW1  886   1.379   2.409   1.518
  292SOL    HW2  887   1.376   2.548   1.434
  293SOL     OW  888   0.539   1.926   0.512
  293SOL    HW1  889   0.458   1.927   0.570
  293SOL    HW2  890   0.542   2.009   0.457
  294SOL     OW  891   0.297   1.897   0.171
  294SOL    HW1  892   0.346   1.981   0.150
  294SOL    HW2  893   0.359   1.832   0.216
  295SOL     OW  894   0.935   2.098   0.480
  295SOL    HW1  895   0.887   2.139   0.402
  295SOL    HW2  896   1.034   2.096   0.461
  296SOL     OW  897   0.078   2.418   1.386
  296SOL    HW1  898   0.170   2.417   1.345
  296SOL    HW2  899   0.072   2.492   1.453
  297SOL     OW  900   0.561   2.084   1.147
  297SOL    HW1  901   0.599   2.000   1.184
  297SOL    HW2  902   0.473   2.103   1.191
  298SOL     OW  903   1.017   1.901   0.753
  298SOL    HW1  904   0.945   1.906   0.684
  298SOL    HW2  905   0.993   1.832   0.822
  299SOL     OW  906   1.466   2.452   0.992
  299SOL    HW1  907   1.436   2.357   0.999
  299SOL    HW2  908   1.539   2.468   1.058
  300SOL     OW  909   0.527   2.118   0.328
  300SOL    HW1  910   0.554   2.059   0.253
  300SOL    HW2  911   0.527   2.213   0.297
  301SOL     OW  912   0.915   1.951   1.402
  301SOL    HW1  913   0.940   1.931   1.307
  301SOL    HW2  914   0.987   2.007   1.444
  302SOL     OW  915   1.274   2.248   1.262
  302SOL    HW1  916   1.295   2.322   1.326
  302SOL    HW2  917   1.185   2.265   1.219
  303SOL     OW  918   0.566   2.399   0.865
  303SOL    HW1  919   0.578   2.465   0.791
  303SOL    HW2  920   0.612   2.433   0.948
  304SOL     OW  921   1.013   1.967   1.770
  304SOL    HW1  922   1.019   2.052   1.718
  304SOL    HW2  923   1.045   1.891   1.713
  305SOL     OW  924   0.504   1.912   1.740
  305SOL    HW1  925   0.462   1.855   1.670
  305SOL    HW2  926   0.438   1.981   1.772
  306SOL     OW  927   0.307   2.075   1.231
  306SOL    HW1  928   0.284   2.112   1.321
  306SOL    HW2  929   0.277   1.980   1.225
  307SOL     OW  930   0.732   2.496   1.064
  307SOL    HW1  931   0.791   2.470   0.988
  307SOL    HW2  932   0.704   2.592   1.053
  308SOL     OW  933   0.307   1.925   0.618
  308SOL    HW1  934   0.296   2.019   0.651
  308SOL    HW2  935   0.302   1.862   0.695
  309SOL     OW  936   1.622   2.229   0.374
  309SOL    HW1  937   1.624   2.153   0.438
  309SOL    HW2  938   1.574   2.306   0.414
  310SOL     OW  939   1.540   2.136   0.125
  310SOL    HW1  940   1.479   2.061   0.148
  310SOL    HW2  941   1.562   2.188   0.208
  311SOL     OW  942   0.339   2.371   1.006
  311SOL    HW1  943   0.287   2.288   0.989
  311SOL    HW2  944   0.416   2.376   0.942
  312SOL     OW  945   1.138   2.242   1.678
  312SOL    HW1  946   1.093   2.305   1.742
  312SOL    HW2  947   1.231   2.273   1.661
  313SOL     OW  948   1.160   2.069   1.477
  313SOL    HW1  949   1.160   2.133   1.554
  313SOL    HW2  950   1.188   2.117   1.394
  314SOL     OW  951   1.002   2.658   1.238
  314SOL    HW1  952   1.043   2.626   1.324
  314SOL    HW2  953   0.906   2.631   1.235
  315SOL     OW  954   0.040   2.406   1.114
  315SOL    HW1  955   0.125   2.373   1.073
  315SOL    HW2  956   0.053   2.421   1.212
  316SOL     OW  957   0.189   2.382   1.722
  316SOL    HW1  958   0.248   2.342   1.652
  316SOL    HW2  959   0.131   2.453   1.681
  317SOL     OW  960   0.815   2.434   0.325
  317SOL    HW1  961   0.822   2.345   0.279
  317SOL    HW2  962   0.721   2.468   0.317
  318SOL     OW  963   1.657   2.466   1.206
  318SOL    HW1  964   1.619   2.397   1.268
  318SOL    HW2  965   1.739   2.430   1.162
  319SOL     OW  966   0.671   2.326   1.269
  319SOL    HW1  967   0.637   2.237   1.239
  319SOL    HW2  968   0.697   2.380   1.189
  320SOL     OW  969   0.903   1.948   0.133
  320SOL    HW1  970   0.954   1.949   0.047
  320SOL    HW2  971   0.959   1.906   0.204
  321SOL     OW  972   1.726   1.997   0.523
  321SOL    HW1  973   1.799   1.980   0.456
  321SOL    HW2  974   1.695   1.910   0.561
  322SOL     OW  975   1.841   2.037   0.963
  322SOL    HW1  976   1.880   1.952   0.927
  322SOL    HW2  977   1.743   2.039   0.944
  323SOL     OW  978   0.263   2.188   0.720
  323SOL    HW1  979   0.184   2.239   0.686
  323SOL    HW2  980   0.254   2.173   0.818
  324SOL     OW  981   1.014   2.098   0.971
  324SOL    HW1  982   1.006   2.062   0.878
  324SOL    HW2  983   1.012   2.022   1.036
  325SOL     OW  984   1.709   2.247   1.381
  325SOL    HW1  985   1.782   2.316   1.385
  325SOL    HW2  986   1.737   2.172   1.322
  326SOL     OW  987   0.672   2.065   1.489
  326SOL    HW1  988   0.762   2.049   1.449
  326SOL    HW2  989   0.680   2.070   1.588
  327SOL     OW  990   0.075   2.207   0.033
  327SOL    HW1  991  -0.017   2.179   0.004
  327SOL    HW2  992   0.106   2.284  -0.023
  328SOL     OW  993   0.072   2.028   0.318
  328SOL    HW1  994   0.055   2.111   0.264
  328SOL    HW2  995   0.162   1.991   0.296
  329SOL     OW  996   0.716   2.427   1.708
  329SOL    HW1  997   0.735   2.492   1.782
  329SOL    HW2  998   0.776   2.347   1.717
  330SOL     OW  999   1.225   2.187   0.449
  330SOL    HW1 1000   1.290   2.113   0.438
  330SOL    HW2 1001   1.245   2.237   0.533
  331SOL     OW 1002   1.777   2.204   1.642
  331SOL    HW1 1003   1.760   2.235   1.548
  331SOL    HW2 1004   1.693   2.167   1.680
  332SOL     OW 1005   1.824   2.054   1.227
  332SOL    HW1 1006   1.820   1.964   1.271
  332SOL    HW2 1007   1.827   2.043   1.128
  333SOL     OW 1008   0.428   2.286   0.520
  333SOL    HW1 1009   0.458   2.214   0.458
  333SOL    HW2 1010   0.389   2.246   0.603
  334SOL     OW 1011   0.317   2.409   1.280
  334SOL    HW1 1012   0.355   2.350   1.352
  334SOL    HW2 1013   0.357   2.383   1.192
  335SOL     OW 1014   1.424   2.076   1.112
  335SOL    HW1 1015   1.476   2.011   1.167
  335SOL    HW2 1016   1.375   2.139   1.173
  336SOL     OW 1017   1.001   1.896   1.154
  336SOL    HW1 1018   0.938   1.824   1.123
  336SOL    HW2 1019   1.094   1.860   1.154
  337SOL     OW 1020   1.352   1.914   0.168
  337SOL    HW1 1021   1.387   1.873   0.084
  337SOL    HW2 1022   1.262   1.876   0.188
  338SOL     OW 1023   1.300   2.315   0.691
  338SOL    HW1 1024   1.241   2.395   0.695
  338SOL    HW2 1025   1.315   2.280   0.784
  339SOL     OW 1026   1.593   2.083   0.882
  339SOL    HW1 1027   1.509   2.082   0.936
  339SOL    HW2 1028   1.595   2.166   0.826
  340SOL     OW 1029   1.135   2.565   2.579
  340SOL    HW1 1030   1.192   2.643   2.554
  340SOL    HW2 1031   1.075   2.591   2.655
  341SOL     OW 1032   1.755   2.469   2.093
  341SOL    HW1 1033   1.743   2.456   1.994
  341SOL    HW2 1034   1.725   2.388   2.142
  342SOL     OW 1035   0.122   2.505   2.425
  342SOL    HW1 1036   0.077   2.417   2.442
  342SOL    HW2 1037   0.121   2.559   2.509
  343SOL     OW 1038   0.809   1.866   2.364
  343SOL    HW1 1039   0.849   1.957   2.355
  343SOL    HW2 1040   0.709   1.874   2.370
  344SOL     OW 1041   0.865   2.210   2.057
  344SOL    HW1 1042   0.924   2.273   2.008
  344SOL    HW2 1043   0.884   2.116   2.028
  345SOL     OW 1044   1.400   1.969   2.288
  345SOL    HW1 1045   1.376   1.932   2.198
  345SOL    HW2 1046   1.499   1.985   2.292
  346SOL     OW 1047   0.382   2.562   2.342
  346SOL    HW1 1048   0.427   2.472   2.339
  346SOL    HW2 1049   0.288   2.551   2.375
  347SOL     OW 1050   0.614   1.984   1.979
  347SOL    HW1 1051   0.712   1.962   1.986
  347SOL    HW2 1052   0.583   1.967   1.886
  348SOL     OW 1053   0.297   1.897   2.033
  348SOL    HW1 1054   0.346   1.981   2.012
  348SOL    HW2 1055   0.359   1.832   2.078
  349SOL     OW 1056   0.935   2.098   2.342
  349SOL    HW1 1057   0.887   2.139   2.264
  349SOL    HW2 1058   1.034   2.096   2.323
  350SOL     OW 1059   0.527   2.118   2.190
  350SOL    HW1 1060   0.554   2.059   2.115
  350SOL    HW2 1061   0.527   2.213   2.159
  351SOL     OW 1062   1.622   2.229   2.236
  351SOL    HW1 1063   1.624   2.153   2.300
  351SOL    HW2 1064   1.574   2.306   2.276
  352SOL     OW 1065   1.540   2.136   1.987
  352SOL    HW1 1066   1.479   2.061   2.010
  352SOL    HW2 1067   1.562   2.188   2.070
  353SOL     OW 1068   1.303   2.700   1.904
  353SOL    HW1 1069   1.337   2.607   1.919
  353SOL    HW2 1070   1.321   2.727   1.809
  354SOL     OW 1071   0.815   2.434   2.187
  354SOL    HW1 1072   0.822   2.345   2.141
  354SOL    HW2 1073   0.721   2.468   2.179
  355SOL     OW 1074   1.726   1.997   2.385
  355SOL    HW1 1075   1.799   1.980   2.318
  355SOL    HW2 1076   1.695   1.910   2.423
  356SOL     OW 1077   0.075   2.207   1.895
  356SOL    HW1 1078  -0.017   2.179   1.866
  356SOL    HW2 1079   0.106   2.284   1.839
  357SOL     OW 1080   0.072   2.028   2.180
  357SOL    HW1 1081   0.055   2.111   2.126
  357SOL    HW2 1082   0.162   1.991   2.158
  358SOL     OW 1083   1.225   2.187   2.311
  358SOL    HW1 1084   1.290   2.113   2.300
  358SOL    HW2 1085   1.245   2.237   2.395
  359SOL     OW 1086   0.428   2.286   2.382
  359SOL    HW1 1087   0.458   2.214   2.320
  359SOL    HW2 1088   0.389   2.246   2.465
  360SOL     OW 1089   1.352   1.914   2.030
  360SOL    HW1 1090   1.387   1.873   1.946
  360SOL    HW2 1091   1.262   1.876   2.050
  361SOL     OW 1092   2.092   0.628   0.113
  361SOL    HW1 1093   1.999   0.626   0.150
  361SOL    HW2 1094   2.093   0.589   0.021
  362SOL     OW 1095   2.087   0.275   0.996
  362SOL    HW1 1096   2.122   0.258   1.088
  362SOL    HW2 1097   1.999   0.230   0.984
  363SOL     OW 1098   1.881   0.368   0.647
  363SOL    HW1 1099   1.799   0.411   0.686
  363SOL    HW2 1100   1.853   0.295   0.584
  364SOL     OW 1101   2.547   1.012   0.665
  364SOL    HW1 1102   2.616   0.996   0.735
  364SOL    HW2 1103   2.474   1.069   0.703
  365SOL     OW 1104   2.197   1.435   1.061
  365SOL    HW1 1105   2.119   1.404   1.008
  365SOL    HW2 1106   2.255   1.493   1.004
  366SOL     OW 1107   2.300   0.392   1.499
  366SOL    HW1 1108   2.382   0.336   1.508
  366SOL    HW2 1109   2.219   0.334   1.503
  367SOL     OW 1110   2.093   1.713   0.483
  367SOL    HW1 1111   2.127   1.790   0.537
  367SOL    HW2 1112   2.137   1.713   0.393
  368SOL     OW 1113   2.092   1.434   0.538
  368SOL    HW1 1114   2.066   1.530   0.538
  368SOL    HW2 1115   2.021   1.380   0.583
  369SOL     OW 1116   2.102   1.091   0.886
  369SOL    HW1 1117   2.116   1.007   0.938
  369SOL    HW2 1118   2.047   1.155   0.941
  370SOL     OW 1119   1.984   0.643   0.563
  370SOL    HW1 1120   1.939   0.555   0.580
  370SOL    HW2 1121   1.983   0.697   0.647
  371SOL     OW 1122   1.889   1.596   0.117
  371SOL    HW1 1123   1.870   1.500   0.138
  371SOL    HW2 1124   1.856   1.654   0.192
  372SOL     OW 1125   1.975   0.737   1.597
  372SOL    HW1 1126   2.063   0.724   1.642
  372SOL    HW2 1127   1.962   0.834   1.575
  373SOL     OW 1128   2.059   0.976   1.264
  373SOL    HW1 1129   2.148   0.931   1.250
  373SOL    HW2 1130   1.986   0.911   1.245
  374SOL     OW 1131   2.179   0.251   1.801
  374SOL    HW1 1132   2.250   0.322   1.807
  374SOL    HW2 1133   2.091   0.290   1.829
  375SOL     OW 1134   2.460   0.729   0.270
  375SOL    HW1 1135   2.484   0.798   0.202
  375SOL    HW2 1136   2.382   0.762   0.324
  376SOL     OW 1137   1.938   0.811   0.789
  376SOL    HW1 1138   2.037   0.799   0.798
  376SOL    HW2 1139   1.914   0.906   0.810
  377SOL     OW 1140   1.992   1.821   1.571
  377SOL    HW1 1141   1.982   1.806   1.670
  377SOL    HW2 1142   1.906   1.857   1.535
  378SOL     OW 1143   2.412   0.196   0.885
  378SOL    HW1 1144   2.407   0.191   0.985
  378SOL    HW2 1145   2.414   0.292   0.856
  379SOL     OW 1146   2.213   1.801   0.853
  379SOL    HW1 1147   2.263   1.715   0.859
  379SOL    HW2 1148   2.278   1.878   0.850
  380SOL     OW 1149   2.183   0.943   0.242
  380SOL    HW1 1150   2.265   0.982   0.200
  380SOL    HW2 1151   2.156   0.861   0.193
  381SOL     OW 1152   2.323   1.266   1.727
  381SOL    HW1 1153   2.273   1.267   1.641
  381SOL    HW2 1154   2.260   1.248   1.803
  382SOL     OW 1155   2.064   0.285   1.498
  382SOL    HW1 1156   1.984   0.345   1.485
  382SOL    HW2 1157   2.054   0.236   1.584
  383SOL     OW 1158   2.111   1.785   1.241
  383SOL    HW1 1159   2.168   1.720   1.291
  383SOL    HW2 1160   2.095   1.752   1.148
  384SOL     OW 1161   2.244   0.700   0.480
  384SOL    HW1 1162   2.289   0.610   0.477
  384SOL    HW2 1163   2.150   0.689   0.513
  385SOL     OW 1164   2.401   0.064   0.512
  385SOL    HW1 1165   2.320   0.065   0.570
  385SOL    HW2 1166   2.404   0.147   0.457
  386SOL     OW 1167   2.159   0.035   0.171
  386SOL    HW1 1168   2.208   0.119   0.150
  386SOL    HW2 1169   2.221  -0.030   0.216
  387SOL     OW 1170   2.321   1.152   0.741
  387SOL    HW1 1171   2.250   1.125   0.806
  387SOL    HW2 1172   2.295   1.124   0.648
  388SOL     OW 1173   1.940   0.556   1.386
  388SOL    HW1 1174   2.032   0.555   1.345
  388SOL    HW2 1175   1.934   0.630   1.453
  389SOL     OW 1176   2.423   0.222   1.147
  389SOL    HW1 1177   2.461   0.138   1.184
  389SOL    HW2 1178   2.335   0.241   1.191
  390SOL     OW 1179   2.272   0.813   1.251
  390SOL    HW1 1180   2.358   0.825   1.301
  390SOL    HW2 1181   2.230   0.726   1.278
  391SOL     OW 1182   1.926   1.564   1.331
  391SOL    HW1 1183   1.880   1.646   1.297
  391SOL    HW2 1184   2.024   1.583   1.340
  392SOL     OW 1185   2.229   1.100   0.501
  392SOL    HW1 1186   2.222   1.183   0.445
  392SOL    HW2 1187   2.233   1.020   0.441
  393SOL     OW 1188   2.428   0.537   0.865
  393SOL    HW1 1189   2.440   0.603   0.791
  393SOL    HW2 1190   2.474   0.571   0.948
  394SOL     OW 1191   2.216   1.510   1.329
  394SOL    HW1 1192   2.195   1.466   1.242
  394SOL    HW2 1193   2.313   1.536   1.332
  395SOL     OW 1194   2.264   0.751   1.598
  395SOL    HW1 1195   2.332   0.806   1.551
  395SOL    HW2 1196   2.304   0.663   1.625
  396SOL     OW 1197   2.366   0.050   1.740
  396SOL    HW1 1198   2.324  -0.007   1.670
  396SOL    HW2 1199   2.300   0.119   1.772
  397SOL     OW 1200   2.435   0.870   1.029
  397SOL    HW1 1201   2.479   0.959   1.020
  397SOL    HW2 1202   2.372   0.870   1.106
  398SOL     OW 1203   2.169   0.213   1.231
  398SOL    HW1 1204   2.146   0.250   1.321
  398SOL    HW2 1205   2.139   0.118   1.225
  399SOL     OW 1206   1.899   1.310   1.282
  399SOL    HW1 1207   1.952   1.261   1.350
  399SOL    HW2 1208   1.921   1.408   1.287
  400SOL     OW 1209   2.169   0.063   0.618
  400SOL    HW1 1210   2.158   0.157   0.651
  400SOL    HW2 1211   2.164   0.000   0.695
  401SOL     OW 1212   2.212   0.898   1.804
  401SOL    HW1 1213   2.288   0.942   1.852
  401SOL    HW2 1214   2.247   0.851   1.722
  402SOL     OW 1215   2.181   0.810   0.949
  402SOL    HW1 1216   2.274   0.846   0.954
  402SOL    HW2 1217   2.175   0.725   1.001
  403SOL     OW 1218   2.201   0.509   1.006
  403SOL    HW1 1219   2.149   0.426   0.989
  403SOL    HW2 1220   2.278   0.514   0.942
  404SOL     OW 1221   1.870   1.326   0.200
  404SOL    HW1 1222   1.777   1.347   0.169
  404SOL    HW2 1223   1.880   1.227   0.213
  405SOL     OW 1224   1.950   1.801   0.927
  405SOL    HW1 1225   1.908   1.715   0.900
  405SOL    HW2 1226   2.044   1.804   0.893
  406SOL     OW 1227   1.902   0.544   1.114
  406SOL    HW1 1228   1.987   0.511   1.073
  406SOL    HW2 1229   1.915   0.559   1.212
  407SOL     OW 1230   2.051   0.520   1.722
  407SOL    HW1 1231   2.110   0.480   1.652
  407SOL    HW2 1232   1.993   0.591   1.681
  408SOL     OW 1233   2.677   0.572   0.325
  408SOL    HW1 1234   2.684   0.483   0.279
  408SOL    HW2 1235   2.583   0.606   0.317
  409SOL     OW 1236   2.114   1.564   1.744
  409SOL    HW1 1237   2.084   1.621   1.820
  409SOL    HW2 1238   2.107   1.467   1.770
  410SOL     OW 1239   2.335   0.500   0.191
  410SOL    HW1 1240   2.396   0.580   0.195
  410SOL    HW2 1241   2.240   0.531   0.198
  411SOL     OW 1242   2.021   1.137   1.466
  411SOL    HW1 1243   2.043   1.076   1.542
  411SOL    HW2 1244   2.031   1.088   1.380
  412SOL     OW 1245   1.945   1.258   1.022
  412SOL    HW1 1246   1.940   1.257   1.122
  412SOL    HW2 1247   1.862   1.217   0.984
  413SOL     OW 1248   1.992   1.794   1.851
  413SOL    HW1 1249   1.951   1.720   1.904
  413SOL    HW2 1250   2.056   1.845   1.909
  414SOL     OW 1251   2.125   0.326   0.720
  414SOL    HW1 1252   2.046   0.377   0.686
  414SOL    HW2 1253   2.116   0.311   0.818
  415SOL     OW 1254   2.234   1.288   1.490
  415SOL    HW1 1255   2.221   1.381   1.456
  415SOL    HW2 1256   2.150   1.236   1.477
  416SOL     OW 1257   2.452   1.487   0.491
  416SOL    HW1 1258   2.494   1.429   0.421
  416SOL    HW2 1259   2.408   1.566   0.447
  417SOL     OW 1260   2.117   1.348   0.290
  417SOL    HW1 1261   2.021   1.349   0.263
  417SOL    HW2 1262   2.129   1.401   0.374
  418SOL     OW 1263   1.967   1.013   1.726
  418SOL    HW1 1264   1.890   0.980   1.780
  418SOL    HW2 1265   2.052   0.983   1.768
  419SOL     OW 1266   1.937   0.345   0.033
  419SOL    HW1 1267   1.845   0.317   0.004
  419SOL    HW2 1268   1.968   0.422  -0.023
  420SOL     OW 1269   1.934   0.166   0.318
  420SOL    HW1 1270   1.917   0.249   0.264
  420SOL    HW2 1271   2.024   0.129   0.296
  421SOL     OW 1272   2.252   1.741   1.560
  421SOL    HW1 1273   2.161   1.782   1.558
  421SOL    HW2 1274   2.245   1.647   1.592
  422SOL     OW 1275   2.083   1.314   1.844
  422SOL    HW1 1276   2.018   1.241   1.823
  422SOL    HW2 1277   2.087   1.328   1.942
  423SOL     OW 1278   1.941   1.240   0.653
  423SOL    HW1 1279   1.940   1.193   0.741
  423SOL    HW2 1280   2.023   1.212   0.602
  424SOL     OW 1281   2.534   1.391   1.624
  424SOL    HW1 1282   2.456   1.341   1.662
  424SOL    HW2 1283   2.531   1.486   1.655
  425SOL     OW 1284   2.290   0.424   0.520
  425SOL    HW1 1285   2.320   0.352   0.458
  425SOL    HW2 1286   2.251   0.384   0.603
  426SOL     OW 1287   2.179   0.547   1.280
  426SOL    HW1 1288   2.217   0.488   1.352
  426SOL    HW2 1289   2.219   0.521   1.192
  427SOL     OW 1290   1.901   1.077   0.300
  427SOL    HW1 1291   2.000   1.066   0.291
  427SOL    HW2 1292   1.861   0.991   0.332
  428SOL     OW 1293   2.092   0.628   1.975
  428SOL    HW1 1294   1.999   0.626   2.012
  428SOL    HW2 1295   2.093   0.589   1.883
  429SOL     OW 1296   2.547   1.012   2.527
  429SOL    HW1 1297   2.616   0.996   2.597
  429SOL    HW2 1298   2.474   1.069   2.565
  430SOL     OW 1299   2.093   1.713   2.345
  430SOL    HW1 1300   2.127   1.790   2.399
  430SOL    HW2 1301   2.137   1.713   2.255
  431SOL     OW 1302   2.092   1.434   2.400
  431SOL    HW1 1303   2.066   1.530   2.400
  431SOL    HW2 1304   2.021   1.380   2.445
  432SOL     OW 1305   1.889   1.596   1.979
  432SOL    HW1 1306   1.870   1.500   2.000
  432SOL    HW2 1307   1.856   1.654   2.054
  433SOL     OW 1308   2.460   0.729   2.132
  433SOL    HW1 1309   2.484   0.798   2.064
  433SOL    HW2 1310   2.382   0.762   2.186
  434SOL     OW 1311   2.183   0.943   2.104
  434SOL    HW1 1312   2.265   0.982   2.062
  434SOL    HW2 1313   2.156   0.861   2.055
  435SOL     OW 1314   2.244   0.700   2.342
  435SOL    HW1 1315   2.289   0.610   2.339
  435SOL    HW2 1316   2.150   0.689   2.375
  436SOL     OW 1317   2.476   0.122   1.979
  436SOL    HW1 1318   2.574   0.100   1.986
  436SOL    HW2 1319   2.445   0.105   1.886
  437SOL     OW 1320   2.401   0.064   2.374
  437SOL    HW1 1321   2.320   0.065   2.432
  437SOL    HW2 1322   2.404   0.147   2.319
  438SOL     OW 1323   2.159   0.035   2.033
  438SOL    HW1 1324   2.208   0.119   2.012
  438SOL    HW2 1325   2.221  -0.030   2.078
  439SOL     OW 1326   2.321   1.152   2.603
  439SOL    HW1 1327   2.250   1.125   2.668
  439SOL    HW2 1328   2.295   1.124   2.510
  440SOL     OW 1329   2.229   1.100   2.363
  440SOL    HW1 1330   2.222   1.183   2.307
  440SOL    HW2 1331   2.233   1.020   2.303
  441SOL     OW 1332   1.870   1.326   2.062
  441SOL    HW1 1333   1.777   1.347   2.031
  441SOL    HW2 1334   1.880   1.227   2.075
  442SOL     OW 1335   2.677   0.572   2.187
  442SOL    HW1 1336   2.684   0.483   2.141
  442SOL    HW2 1337   2.583   0.606   2.179
  443SOL     OW 1338   2.335   0.500   2.053
  443SOL    HW1 1339   2.396   0.580   2.057
  443SOL    HW2 1340   2.240   0.531   2.060
  444SOL     OW 1341   2.452   1.487   2.353
  444SOL    HW1 1342   2.494   1.429   2.283
  444SOL    HW2 1343   2.408   1.566   2.309
  445SOL     OW 1344   2.117   1.348   2.152
  445SOL    HW1 1345   2.021   1.349   2.125
  445SOL    HW2 1346   2.129   1.401   2.236
  446SOL     OW 1347   1.937   0.345   1.895
  446SOL    HW1 1348   1.845   0.317   1.866
  446SOL    HW2 1349   1.968   0.422   1.839
  447SOL     OW 1350   1.934   0.166   2.180
  447SOL    HW1 1351   1.917   0.249   2.126
  447SOL    HW2 1352   2.024   0.129   2.158
  448SOL     OW 1353   2.290   0.424   2.382
  448SOL    HW1 1354   2.320   0.352   2.320
  448SOL    HW2 1355   2.251   0.384   2.465
  449SOL     OW 1356   1.901   1.077   2.162
  449SOL    HW1 1357   2.000   1.066   2.153
  449SOL    HW2 1358   1.861   0.991   2.194
  450SOL     OW 1359   2.087   2.137   0.996
  450SOL    HW1 1360   2.122   2.120   1.088
  450SOL    HW2 1361   1.999   2.092   0.984
  451SOL     OW 1362   1.881   2.230   0.647
  451SOL    HW1 1363   1.799   2.273   0.686
  451SOL    HW2 1364   1.853   2.157   0.584
  452SOL     OW 1365   2.300   2.254   1.499
  452SOL    HW1 1366   2.382   2.198   1.508
  452SOL    HW2 1367   2.219   2.196   1.503
  453SOL     OW 1368   1.984   2.505   0.563
  453SOL    HW1 1369   1.939   2.417   0.580
  453SOL    HW2 1370   1.983   2.559   0.647
  454SOL     OW 1371   2.179   2.113   1.801
  454SOL    HW1 1372   2.250   2.184   1.807
  454SOL    HW2 1373   2.091   2.152   1.829
  455SOL     OW 1374   2.412   2.058   0.885
  455SOL    HW1 1375   2.407   2.053   0.985
  455SOL    HW2 1376   2.414   2.154   0.856
  456SOL     OW 1377   2.064   2.147   1.498
  456SOL    HW1 1378   1.984   2.207   1.485
  456SOL    HW2 1379   2.054   2.098   1.584
  457SOL     OW 1380   2.476   1.984   0.117
  457SOL    HW1 1381   2.574   1.962   0.124
  457SOL    HW2 1382   2.445   1.967   0.024
  458SOL     OW 1383   2.401   1.926   0.512
  458SOL    HW1 1384   2.320   1.927   0.570
  458SOL    HW2 1385   2.404   2.009   0.457
  459SOL     OW 1386   2.159   1.897   0.171
  459SOL    HW1 1387   2.208   1.981   0.150
  459SOL    HW2 1388   2.221   1.832   0.216
  460SOL     OW 1389   1.940   2.418   1.386
  460SOL    HW1 1390   2.032   2.417   1.345
  460SOL    HW2 1391   1.934   2.492   1.453
  461SOL     OW 1392   2.423   2.084   1.147
  461SOL    HW1 1393   2.461   2.000   1.184
  461SOL    HW2 1394   2.335   2.103   1.191
  462SOL     OW 1395   2.428   2.399   0.865
  462SOL    HW1 1396   2.440   2.465   0.791
  462SOL    HW2 1397   2.474   2.433   0.948
  463SOL     OW 1398   2.366   1.912   1.740
  463SOL    HW1 1399   2.324   1.855   1.670
  463SOL    HW2 1400   2.300   1.981   1.772
  464SOL     OW 1401   2.169   2.075   1.231
  464SOL    HW1 1402   2.146   2.112   1.321
  464SOL    HW2 1403   2.139   1.980   1.225
  465SOL     OW 1404   2.169   1.925   0.618
  465SOL    HW1 1405   2.158   2.019   0.651
  465SOL    HW2 1406   2.164   1.862   0.695
  466SOL     OW 1407   2.201   2.371   1.006
  466SOL    HW1 1408   2.149   2.288   0.989
  466SOL    HW2 1409   2.278   2.376   0.942
  467SOL     OW 1410   1.902   2.406   1.114
  467SOL    HW1 1411   1.987   2.373   1.073
  467SOL    HW2 1412   1.915   2.421   1.212
  468SOL     OW 1413   2.051   2.382   1.722
  468SOL    HW1 1414   2.110   2.342   1.652
  468SOL    HW2 1415   1.993   2.453   1.681
  469SOL     OW 1416   2.125   2.188   0.720
  469SOL    HW1 1417   2.046   2.239   0.686
  469SOL    HW2 1418   2.116   2.173   0.818
  470SOL     OW 1419   1.937   2.207   0.033
  470SOL    HW1 1420   1.845   2.179   0.004
  470SOL    HW2 1421   1.968   2.284  -0.023
  471SOL     OW 1422   1.934   2.028   0.318
  471SOL    HW1 1423   1.917   2.111   0.264
  471SOL    HW2 1424   2.024   1.991   0.296
  472SOL     OW 1425   2.290   2.286   0.520
  472SOL    HW1 1426   2.320   2.214   0.458
  472SOL    HW2 1427   2.251   2.246   0.603
  473SOL     OW 1428   2.179   2.409   1.280
  473SOL    HW1 1429   2.217   2.350   1.352
  473SOL    HW2 1430   2.219   2.383   1.192
  474SOL     OW 1431   1.984   2.505   2.425
  474SOL    HW1 1432   1.939   2.417   2.442
  474SOL    HW2 1433   1.983   2.559   2.509
  475SOL     OW 1434   2.476   1.984   1.979
  475SOL    HW1 1435   2.574   1.962   1.986
  475SOL    HW2 1436   2.445   1.967   1.886
  476SOL     OW 1437   2.159   1.897   2.033
  476SOL    HW1 1438   2.208   1.981   2.012
  476SOL    HW2 1439   2.221   1.832   2.078
  477SOL     OW 1440   2.428   2.399   2.727
  477SOL    HW1 1441   2.440   2.465   2.653
  477SOL    HW2 1442   2.474   2.433   2.810
  478SOL     OW 1443   1.937   2.207   1.895
  478SOL    HW1 1444   1.845   2.179   1.866
  478SOL    HW2 1445   1.968   2.284   1.839
  479SOL     OW 1446   1.934   2.028   2.180
  479SOL    HW1 1447   1.917   2.111   2.126
  479SOL    HW2 1448   2.024   1.991   2.158
  480SOL     OW 1449   2.290   2.286   2.382
  480SOL    HW1 1450   2.320   2.214   2.320
  480SOL    HW2 1451   2.251   2.246   2.465
   2.44578   2.44578   2.44578
