mobley_7532833_GMX.gro created by acpype (v: 2023.10.27) on Thu May 14 13:22:02 2026
 1239
    1MOL     C1    1   1.115   1.238   1.195
    1MOL     C2    2   1.181   1.119   1.141
    1MOL     N1    3   1.064   1.332   1.239
    1MOL     H1    4   1.287   1.138   1.124
    1MOL     H2    5   1.136   1.091   1.045
    1MOL     H3    6   1.171   1.035   1.209
    2SOL     OW    7   0.230   0.628   0.113
    2SOL    HW1    8   0.137   0.626   0.150
    2SOL    HW2    9   0.231   0.589   0.021
    3SOL     OW   10   0.225   0.275   0.996
    3SOL    HW1   11   0.260   0.258   1.088
    3SOL    HW2   12   0.137   0.230   0.984
    4SOL     OW   13   0.019   0.368   0.647
    4SOL    HW1   14  -0.063   0.411   0.686
    4SOL    HW2   15  -0.009   0.295   0.584
    5SOL     OW   16   0.569   1.275   1.165
    5SOL    HW1   17   0.476   1.268   1.128
    5SOL    HW2   18   0.580   1.364   1.209
    6SOL     OW   19   1.555   1.511   0.703
    6SOL    HW1   20   1.498   1.495   0.784
    6SOL    HW2   21   1.496   1.521   0.623
    7SOL     OW   22   1.135   0.703   0.717
    7SOL    HW1   23   1.192   0.781   0.692
    7SOL    HW2   24   1.075   0.729   0.793
    8SOL     OW   25   1.755   0.607   0.231
    8SOL    HW1   26   1.743   0.594   0.132
    8SOL    HW2   27   1.725   0.526   0.280
    9SOL     OW   28   0.768   1.144   1.023
    9SOL    HW1   29   0.690   1.161   1.083
    9SOL    HW2   30   0.802   1.231   0.987
   10SOL     OW   31   0.850   0.798   1.823
   10SOL    HW1   32   0.846   0.874   1.888
   10SOL    HW2   33   0.872   0.834   1.732
   11SOL     OW   34   0.685   1.012   0.665
   11SOL    HW1   35   0.754   0.996   0.735
   11SOL    HW2   36   0.612   1.069   0.703
   12SOL     OW   37   0.686   1.161   1.803
   12SOL    HW1   38   0.746   1.240   1.817
   12SOL    HW2   39   0.600   1.192   1.762
   13SOL     OW   40   0.335   1.435   1.061
   13SOL    HW1   41   0.257   1.404   1.008
   13SOL    HW2   42   0.393   1.493   1.004
   14SOL     OW   43   1.460   1.505   1.339
   14SOL    HW1   44   1.484   1.599   1.365
   14SOL    HW2   45   1.444   1.451   1.421
   15SOL     OW   46   0.438   0.392   1.499
   15SOL    HW1   47   0.520   0.336   1.508
   15SOL    HW2   48   0.357   0.334   1.503
   16SOL     OW   49   1.603   0.447   0.737
   16SOL    HW1   50   1.529   0.493   0.687
   16SOL    HW2   51   1.654   0.515   0.790
   17SOL     OW   52   0.231   1.713   0.483
   17SOL    HW1   53   0.265   1.790   0.537
   17SOL    HW2   54   0.275   1.713   0.393
   18SOL     OW   55   1.127   1.341   1.690
   18SOL    HW1   56   1.174   1.341   1.778
   18SOL    HW2   57   1.079   1.254   1.679
   19SOL     OW   58   0.230   1.434   0.538
   19SOL    HW1   59   0.204   1.530   0.538
   19SOL    HW2   60   0.159   1.380   0.583
   20SOL     OW   61   0.240   1.091   0.886
   20SOL    HW1   62   0.254   1.007   0.938
   20SOL    HW2   63   0.185   1.155   0.941
   21SOL     OW   64   0.620   1.786   1.439
   21SOL    HW1   65   0.528   1.769   1.474
   21SOL    HW2   66   0.648   1.878   1.465
   22SOL     OW   67   0.606   0.964   0.123
   22SOL    HW1   68   0.613   1.048   0.069
   22SOL    HW2   69   0.652   0.977   0.211
   23SOL     OW   70   1.594   0.114   1.480
   23SOL    HW1   71   1.576   0.181   1.408
   23SOL    HW2   72   1.591   0.160   1.569
   24SOL     OW   73   0.122   0.643   0.563
   24SOL    HW1   74   0.077   0.555   0.580
   24SOL    HW2   75   0.121   0.697   0.647
   25SOL     OW   76   1.842   1.767   0.359
   25SOL    HW1   77   1.896   1.738   0.439
   25SOL    HW2   78   1.872   1.857   0.330
   26SOL     OW   79   0.027   1.596   0.117
   26SOL    HW1   80   0.008   1.500   0.138
   26SOL    HW2   81  -0.006   1.654   0.192
   27SOL     OW   82   1.689   0.922   0.612
   27SOL    HW1   83   1.784   0.893   0.620
   27SOL    HW2   84   1.681   0.987   0.537
   28SOL     OW   85   1.641   1.108   0.432
   28SOL    HW1   86   1.727   1.110   0.380
   28SOL    HW2   87   1.655   1.155   0.520
   29SOL     OW   88   0.113   0.737   1.597
   29SOL    HW1   89   0.201   0.724   1.642
   29SOL    HW2   90   0.100   0.834   1.575
   30SOL     OW   91   0.613   1.365   0.726
   30SOL    HW1   92   0.564   1.278   0.735
   30SOL    HW2   93   0.590   1.408   0.639
   31SOL     OW   94   1.293   1.228   1.423
   31SOL    HW1   95   1.330   1.155   1.365
   31SOL    HW2   96   1.345   1.233   1.508
   32SOL     OW   97   0.809   0.004   0.502
   32SOL    HW1   98   0.849   0.095   0.493
   32SOL    HW2   99   0.709   0.012   0.508
   33SOL     OW  100   0.197   0.976   1.264
   33SOL    HW1  101   0.286   0.931   1.250
   33SOL    HW2  102   0.124   0.911   1.245
   34SOL     OW  103   1.525   0.999   0.190
   34SOL    HW1  104   1.462   0.923   0.203
   34SOL    HW2  105   1.573   1.017   0.276
   35SOL     OW  106   1.187   1.792   1.616
   35SOL    HW1  107   1.211   1.852   1.540
   35SOL    HW2  108   1.194   1.697   1.586
   36SOL     OW  109   0.317   0.251   1.801
   36SOL    HW1  110   0.388   0.322   1.807
   36SOL    HW2  111   0.229   0.290   1.829
   37SOL     OW  112   1.466   1.417   0.953
   37SOL    HW1  113   1.407   1.423   1.033
   37SOL    HW2  114   1.451   1.329   0.907
   38SOL     OW  115   1.667   1.714   0.572
   38SOL    HW1  116   1.626   1.691   0.484
   38SOL    HW2  117   1.649   1.640   0.637
   39SOL     OW  118   0.598   0.729   0.270
   39SOL    HW1  119   0.622   0.798   0.202
   39SOL    HW2  120   0.520   0.762   0.324
   40SOL     OW  121   1.281   0.345   0.944
   40SOL    HW1  122   1.195   0.295   0.931
   40SOL    HW2  123   1.343   0.291   1.000
   41SOL     OW  124   1.576   1.662   0.307
   41SOL    HW1  125   1.665   1.708   0.310
   41SOL    HW2  126   1.555   1.638   0.212
   42SOL     OW  127   0.807   0.605   1.465
   42SOL    HW1  128   0.760   0.602   1.554
   42SOL    HW2  129   0.756   0.550   1.399
   43SOL     OW  130   1.394   0.469   1.674
   43SOL    HW1  131   1.374   0.512   1.762
   43SOL    HW2  132   1.472   0.407   1.683
   44SOL     OW  133   0.973   0.890   1.572
   44SOL    HW1  134   1.019   0.806   1.543
   44SOL    HW2  135   0.917   0.924   1.497
   45SOL     OW  136   0.991   0.410   1.242
   45SOL    HW1  137   0.914   0.444   1.296
   45SOL    HW2  138   0.957   0.359   1.163
   46SOL     OW  139   1.041   0.701   0.429
   46SOL    HW1  140   1.067   0.697   0.525
   46SOL    HW2  141   0.956   0.650   0.415
   47SOL     OW  142   0.076   0.811   0.789
   47SOL    HW1  143   0.175   0.799   0.798
   47SOL    HW2  144   0.052   0.906   0.810
   48SOL     OW  145   0.130   1.821   1.571
   48SOL    HW1  146   0.120   1.806   1.670
   48SOL    HW2  147   0.044   1.857   1.535
   49SOL     OW  148   0.865   0.348   0.195
   49SOL    HW1  149   0.924   0.411   0.146
   49SOL    HW2  150   0.884   0.254   0.166
   50SOL     OW  151   1.719   0.585   1.831
   50SOL    HW1  152   1.693   0.674   1.795
   50SOL    HW2  153   1.717   0.517   1.758
   51SOL     OW  154   1.362   1.144   0.545
   51SOL    HW1  155   1.445   1.115   0.497
   51SOL    HW2  156   1.313   1.211   0.489
   52SOL     OW  157   0.550   0.196   0.885
   52SOL    HW1  158   0.545   0.191   0.985
   52SOL    HW2  159   0.552   0.292   0.856
   53SOL     OW  160   1.008   1.456   0.477
   53SOL    HW1  161   0.962   1.528   0.425
   53SOL    HW2  162   1.004   1.476   0.575
   54SOL     OW  163   0.351   1.801   0.853
   54SOL    HW1  164   0.401   1.715   0.859
   54SOL    HW2  165   0.416   1.878   0.850
   55SOL     OW  166   1.795   1.066   0.873
   55SOL    HW1  167   1.733   1.051   0.797
   55SOL    HW2  168   1.743   1.077   0.958
   56SOL     OW  169   1.227   1.550   1.506
   56SOL    HW1  170   1.233   1.473   1.570
   56SOL    HW2  171   1.175   1.524   1.426
   57SOL     OW  172   0.321   0.943   0.242
   57SOL    HW1  173   0.403   0.982   0.200
   57SOL    HW2  174   0.294   0.861   0.193
   58SOL     OW  175   1.458   0.735   0.728
   58SOL    HW1  176   1.453   0.670   0.803
   58SOL    HW2  177   1.538   0.794   0.741
   59SOL     OW  178   0.461   1.266   1.727
   59SOL    HW1  179   0.411   1.267   1.641
   59SOL    HW2  180   0.398   1.248   1.803
   60SOL     OW  181   1.111   1.776   0.237
   60SOL    HW1  182   1.051   1.714   0.287
   60SOL    HW2  183   1.142   1.732   0.152
   61SOL     OW  184   0.202   0.285   1.498
   61SOL    HW1  185   0.122   0.345   1.485
   61SOL    HW2  186   0.192   0.236   1.584
   62SOL     OW  187   1.632   1.377   0.081
   62SOL    HW1  188   1.600   1.471   0.071
   62SOL    HW2  189   1.556   1.314   0.069
   63SOL     OW  190   0.464   1.743   0.323
   63SOL    HW1  191   0.497   1.782   0.409
   63SOL    HW2  192   0.540   1.736   0.258
   64SOL     OW  193   1.400   0.107   0.426
   64SOL    HW1  194   1.376   0.070   0.336
   64SOL    HW2  195   1.499   0.123   0.430
   65SOL     OW  196   0.249   1.785   1.241
   65SOL    HW1  197   0.306   1.720   1.291
   65SOL    HW2  198   0.233   1.752   1.148
   66SOL     OW  199   0.940   1.698   0.904
   66SOL    HW1  200   1.020   1.641   0.925
   66SOL    HW2  201   0.891   1.658   0.827
   67SOL     OW  202   0.382   0.700   0.480
   67SOL    HW1  203   0.427   0.610   0.477
   67SOL    HW2  204   0.288   0.689   0.513
   68SOL     OW  205   1.547   0.222   1.729
   68SOL    HW1  206   1.542   0.259   1.821
   68SOL    HW2  207   1.475   0.153   1.717
   69SOL     OW  208   0.614   0.122   0.117
   69SOL    HW1  209   0.712   0.100   0.124
   69SOL    HW2  210   0.583   0.105   0.024
   70SOL     OW  211   0.781   0.264   1.749
   70SOL    HW1  212   0.848   0.203   1.792
   70SOL    HW2  213   0.708   0.283   1.814
   71SOL     OW  214   0.888   1.514   1.195
   71SOL    HW1  215   0.865   1.489   1.101
   71SOL    HW2  216   0.949   1.445   1.234
   72SOL     OW  217   1.351   0.590   1.433
   72SOL    HW1  218   1.379   0.547   1.518
   72SOL    HW2  219   1.376   0.686   1.434
   73SOL     OW  220   0.803   1.402   0.924
   73SOL    HW1  221   0.893   1.416   0.882
   73SOL    HW2  222   0.732   1.404   0.853
   74SOL     OW  223   0.922   0.503   0.899
   74SOL    HW1  224   0.897   0.494   0.803
   74SOL    HW2  225   0.970   0.421   0.930
   75SOL     OW  226   0.539   0.064   0.512
   75SOL    HW1  227   0.458   0.065   0.570
   75SOL    HW2  228   0.542   0.147   0.457
   76SOL     OW  229   1.434   1.188   0.041
   76SOL    HW1  230   1.466   1.112   0.098
   76SOL    HW2  231   1.342   1.215   0.071
   77SOL     OW  232   0.297   0.035   0.171
   77SOL    HW1  233   0.346   0.119   0.150
   77SOL    HW2  234   0.359  -0.030   0.216
   78SOL     OW  235   0.935   0.236   0.480
   78SOL    HW1  236   0.887   0.277   0.402
   78SOL    HW2  237   1.034   0.234   0.461
   79SOL     OW  238   1.076   0.683   1.464
   79SOL    HW1  239   0.996   0.622   1.467
   79SOL    HW2  240   1.157   0.630   1.440
   80SOL     OW  241   1.227   1.570   0.793
   80SOL    HW1  242   1.248   1.644   0.728
   80SOL    HW2  243   1.295   1.570   0.866
   81SOL     OW  244   0.459   1.152   0.741
   81SOL    HW1  245   0.388   1.125   0.806
   81SOL    HW2  246   0.433   1.124   0.648
   82SOL     OW  247   1.271   1.797   0.591
   82SOL    HW1  248   1.315   1.861   0.527
   82SOL    HW2  249   1.221   1.849   0.661
   83SOL     OW  250   1.032   0.549   0.016
   83SOL    HW1  251   0.991   0.631  -0.023
   83SOL    HW2  252   1.096   0.575   0.089
   84SOL     OW  253   0.078   0.556   1.386
   84SOL    HW1  254   0.170   0.555   1.345
   84SOL    HW2  255   0.072   0.630   1.453
   85SOL     OW  256   0.561   0.222   1.147
   85SOL    HW1  257   0.599   0.138   1.184
   85SOL    HW2  258   0.473   0.241   1.191
   86SOL     OW  259   0.866   0.454   0.642
   86SOL    HW1  260   0.834   0.526   0.580
   86SOL    HW2  261   0.890   0.373   0.589
   87SOL     OW  262   1.017   0.039   0.753
   87SOL    HW1  263   0.945   0.044   0.684
   87SOL    HW2  264   0.993  -0.030   0.822
   88SOL     OW  265   1.429   1.173   0.867
   88SOL    HW1  266   1.374   1.089   0.860
   88SOL    HW2  267   1.455   1.202   0.775
   89SOL     OW  268   1.466   0.590   0.992
   89SOL    HW1  269   1.436   0.495   0.999
   89SOL    HW2  270   1.539   0.606   1.058
   90SOL     OW  271   1.857   0.833   0.377
   90SOL    HW1  272   1.899   0.769   0.441
   90SOL    HW2  273   1.819   0.782   0.299
   91SOL     OW  274   0.488   1.385   0.174
   91SOL    HW1  275   0.401   1.370   0.221
   91SOL    HW2  276   0.471   1.411   0.079
   92SOL     OW  277   1.664   1.280   0.657
   92SOL    HW1  278   1.763   1.288   0.671
   92SOL    HW2  279   1.619   1.364   0.688
   93SOL     OW  280   1.390   0.575   0.078
   93SOL    HW1  281   1.336   0.554   0.159
   93SOL    HW2  282   1.481   0.534   0.087
   94SOL     OW  283   0.527   0.256   0.328
   94SOL    HW1  284   0.554   0.197   0.253
   94SOL    HW2  285   0.527   0.351   0.297
   95SOL     OW  286   1.754   1.223   1.588
   95SOL    HW1  287   1.845   1.184   1.575
   95SOL    HW2  288   1.762   1.319   1.612
   96SOL     OW  289   1.592   1.629   1.625
   96SOL    HW1  290   1.619   1.663   1.535
   96SOL    HW2  291   1.671   1.591   1.671
   97SOL     OW  292   1.638   1.099   1.079
   97SOL    HW1  293   1.643   1.180   1.138
   97SOL    HW2  294   1.552   1.101   1.028
   98SOL     OW  295   0.915   0.089   1.402
   98SOL    HW1  296   0.940   0.069   1.307
   98SOL    HW2  297   0.987   0.145   1.444
   99SOL     OW  298   0.980   1.116   1.719
   99SOL    HW1  299   0.881   1.122   1.729
   99SOL    HW2  300   1.003   1.036   1.663
  100SOL     OW  301   0.705   1.050   0.368
  100SOL    HW1  302   0.691   1.057   0.467
  100SOL    HW2  303   0.789   0.999   0.350
  101SOL     OW  304   0.410   0.813   1.251
  101SOL    HW1  305   0.496   0.825   1.301
  101SOL    HW2  306   0.368   0.726   1.278
  102SOL     OW  307   1.274   0.386   1.262
  102SOL    HW1  308   1.295   0.460   1.326
  102SOL    HW2  309   1.185   0.403   1.219
  103SOL     OW  310   0.064   1.564   1.331
  103SOL    HW1  311   0.018   1.646   1.297
  103SOL    HW2  312   0.162   1.583   1.340
  104SOL     OW  313   0.367   1.100   0.501
  104SOL    HW1  314   0.360   1.183   0.445
  104SOL    HW2  315   0.371   1.020   0.441
  105SOL     OW  316   0.566   0.537   0.865
  105SOL    HW1  317   0.578   0.603   0.791
  105SOL    HW2  318   0.612   0.571   0.948
  106SOL     OW  319   1.252   1.348   0.388
  106SOL    HW1  320   1.302   1.425   0.428
  106SOL    HW2  321   1.157   1.350   0.420
  107SOL     OW  322   1.272   1.445   1.142
  107SOL    HW1  323   1.319   1.458   1.229
  107SOL    HW2  324   1.206   1.371   1.151
  108SOL     OW  325   1.582   0.639   0.472
  108SOL    HW1  326   1.551   0.700   0.545
  108SOL    HW2  327   1.632   0.691   0.403
  109SOL     OW  328   0.354   1.510   1.329
  109SOL    HW1  329   0.333   1.466   1.242
  109SOL    HW2  330   0.451   1.536   1.332
  110SOL     OW  331   0.402   0.751   1.598
  110SOL    HW1  332   0.470   0.806   1.551
  110SOL    HW2  333   0.442   0.663   1.625
  111SOL     OW  334   1.587   0.779   1.670
  111SOL    HW1  335   1.495   0.817   1.665
  111SOL    HW2  336   1.647   0.826   1.605
  112SOL     OW  337   1.013   0.105   1.770
  112SOL    HW1  338   1.019   0.190   1.718
  112SOL    HW2  339   1.045   0.029   1.713
  113SOL     OW  340   0.504   0.050   1.740
  113SOL    HW1  341   0.462  -0.007   1.670
  113SOL    HW2  342   0.438   0.119   1.772
  114SOL     OW  343   0.573   0.870   1.029
  114SOL    HW1  344   0.617   0.959   1.020
  114SOL    HW2  345   0.510   0.870   1.106
  115SOL     OW  346   1.360   0.862   1.045
  115SOL    HW1  347   1.285   0.862   0.979
  115SOL    HW2  348   1.397   0.770   1.054
  116SOL     OW  349   1.209   0.525   0.275
  116SOL    HW1  350   1.222   0.441   0.329
  116SOL    HW2  351   1.180   0.599   0.335
  117SOL     OW  352   0.307   0.213   1.231
  117SOL    HW1  353   0.284   0.250   1.321
  117SOL    HW2  354   0.277   0.118   1.225
  118SOL     OW  355   0.037   1.310   1.282
  118SOL    HW1  356   0.090   1.261   1.350
  118SOL    HW2  357   0.059   1.408   1.287
  119SOL     OW  358   0.732   0.634   1.064
  119SOL    HW1  359   0.791   0.608   0.988
  119SOL    HW2  360   0.704   0.730   1.053
  120SOL     OW  361   1.728   0.935   1.854
  120SOL    HW1  362   1.682   0.928   1.765
  120SOL    HW2  363   1.666   0.979   1.920
  121SOL     OW  364   0.307   0.063   0.618
  121SOL    HW1  365   0.296   0.157   0.651
  121SOL    HW2  366   0.302   0.000   0.695
  122SOL     OW  367   1.622   0.367   0.374
  122SOL    HW1  368   1.624   0.291   0.438
  122SOL    HW2  369   1.574   0.444   0.414
  123SOL     OW  370   1.023   0.766   0.966
  123SOL    HW1  371   1.038   0.787   1.062
  123SOL    HW2  372   0.993   0.671   0.957
  124SOL     OW  373   0.980   1.573   1.700
  124SOL    HW1  374   0.960   1.617   1.612
  124SOL    HW2  375   1.019   1.482   1.684
  125SOL     OW  376   1.859   1.518   1.605
  125SOL    HW1  377   1.873   1.545   1.510
  125SOL    HW2  378   1.942   1.540   1.658
  126SOL     OW  379   0.350   0.898   1.804
  126SOL    HW1  380   0.426   0.942   1.852
  126SOL    HW2  381   0.385   0.851   1.722
  127SOL     OW  382   1.540   0.274   0.125
  127SOL    HW1  383   1.479   0.199   0.148
  127SOL    HW2  384   1.562   0.326   0.208
  128SOL     OW  385   1.303   0.838   0.042
  128SOL    HW1  386   1.337   0.745   0.057
  128SOL    HW2  387   1.321   0.865  -0.053
  129SOL     OW  388   1.068   1.333   0.849
  129SOL    HW1  389   1.075   1.249   0.794
  129SOL    HW2  390   1.130   1.402   0.813
  130SOL     OW  391   0.319   0.810   0.949
  130SOL    HW1  392   0.412   0.846   0.954
  130SOL    HW2  393   0.313   0.725   1.001
  131SOL     OW  394   0.339   0.509   1.006
  131SOL    HW1  395   0.287   0.426   0.989
  131SOL    HW2  396   0.416   0.514   0.942
  132SOL     OW  397   1.138   0.380   1.678
  132SOL    HW1  398   1.093   0.443   1.742
  132SOL    HW2  399   1.231   0.411   1.661
  133SOL     OW  400   1.160   0.207   1.477
  133SOL    HW1  401   1.160   0.271   1.554
  133SOL    HW2  402   1.188   0.255   1.394
  134SOL     OW  403   0.008   1.326   0.200
  134SOL    HW1  404  -0.085   1.347   0.169
  134SOL    HW2  405   0.018   1.227   0.213
  135SOL     OW  406   0.088   1.801   0.927
  135SOL    HW1  407   0.046   1.715   0.900
  135SOL    HW2  408   0.182   1.804   0.893
  136SOL     OW  409   0.504   1.568   0.910
  136SOL    HW1  410   0.570   1.642   0.919
  136SOL    HW2  411   0.548   1.489   0.868
  137SOL     OW  412   1.002   0.796   1.238
  137SOL    HW1  413   1.043   0.764   1.324
  137SOL    HW2  414   0.906   0.769   1.235
  138SOL     OW  415   0.040   0.544   1.114
  138SOL    HW1  416   0.125   0.511   1.073
  138SOL    HW2  417   0.053   0.559   1.212
  139SOL     OW  418   0.189   0.520   1.722
  139SOL    HW1  419   0.248   0.480   1.652
  139SOL    HW2  420   0.131   0.591   1.681
  140SOL     OW  421   1.369   0.950   1.660
  140SOL    HW1  422   1.408   1.039   1.680
  140SOL    HW2  423   1.379   0.930   1.563
  141SOL     OW  424   0.815   0.572   0.325
  141SOL    HW1  425   0.822   0.483   0.279
  141SOL    HW2  426   0.721   0.606   0.317
  142SOL     OW  427   1.657   0.604   1.206
  142SOL    HW1  428   1.619   0.535   1.268
  142SOL    HW2  429   1.739   0.568   1.162
  143SOL     OW  430   0.252   1.564   1.744
  143SOL    HW1  431   0.222   1.621   1.820
  143SOL    HW2  432   0.245   1.467   1.770
  144SOL     OW  433   0.671   0.464   1.269
  144SOL    HW1  434   0.637   0.375   1.239
  144SOL    HW2  435   0.697   0.518   1.189
  145SOL     OW  436   0.930   1.678   1.465
  145SOL    HW1  437   0.906   1.660   1.370
  145SOL    HW2  438   0.960   1.772   1.475
  146SOL     OW  439   0.473   0.500   0.191
  146SOL    HW1  440   0.534   0.580   0.195
  146SOL    HW2  441   0.378   0.531   0.198
  147SOL     OW  442   0.159   1.137   1.466
  147SOL    HW1  443   0.181   1.076   1.542
  147SOL    HW2  444   0.169   1.088   1.380
  148SOL     OW  445   1.302   0.855   0.309
  148SOL    HW1  446   1.216   0.824   0.351
  148SOL    HW2  447   1.298   0.841   0.210
  149SOL     OW  448   1.759   1.747   1.154
  149SOL    HW1  449   1.820   1.777   1.081
  149SOL    HW2  450   1.721   1.658   1.132
  150SOL     OW  451   1.252   1.731   1.128
  150SOL    HW1  452   1.336   1.736   1.074
  150SOL    HW2  453   1.229   1.635   1.146
  151SOL     OW  454   0.083   1.258   1.022
  151SOL    HW1  455   0.078   1.257   1.122
  151SOL    HW2  456   0.000   1.217   0.984
  152SOL     OW  457   0.688   1.662   1.716
  152SOL    HW1  458   0.632   1.743   1.725
  152SOL    HW2  459   0.740   1.666   1.630
  153SOL     OW  460   0.903   0.086   0.133
  153SOL    HW1  461   0.954   0.087   0.047
  153SOL    HW2  462   0.959   0.044   0.204
  154SOL     OW  463   1.726   0.135   0.523
  154SOL    HW1  464   1.799   0.118   0.456
  154SOL    HW2  465   1.695   0.048   0.561
  155SOL     OW  466   1.388   1.573   0.477
  155SOL    HW1  467   1.455   1.585   0.403
  155SOL    HW2  468   1.348   1.662   0.500
  156SOL     OW  469   0.130   1.794   1.851
  156SOL    HW1  470   0.089   1.720   1.904
  156SOL    HW2  471   0.194   1.845   1.909
  157SOL     OW  472   1.280   0.927   0.672
  157SOL    HW1  473   1.340   0.846   0.674
  157SOL    HW2  474   1.320   0.996   0.612
  158SOL     OW  475   0.830   1.273   1.422
  158SOL    HW1  476   0.825   1.306   1.517
  158SOL    HW2  477   0.744   1.292   1.376
  159SOL     OW  478   0.672   1.616   0.154
  159SOL    HW1  479   0.681   1.626   0.055
  159SOL    HW2  480   0.632   1.527   0.175
  160SOL     OW  481   1.650   1.720   1.394
  160SOL    HW1  482   1.703   1.730   1.310
  160SOL    HW2  483   1.623   1.810   1.428
  161SOL     OW  484   1.841   0.175   0.963
  161SOL    HW1  485   1.880   0.090   0.927
  161SOL    HW2  486   1.743   0.177   0.944
  162SOL     OW  487   0.263   0.326   0.720
  162SOL    HW1  488   0.184   0.377   0.686
  162SOL    HW2  489   0.254   0.311   0.818
  163SOL     OW  490   1.194   1.612   0.031
  163SOL    HW1  491   1.200   1.519   0.068
  163SOL    HW2  492   1.135   1.612  -0.049
  164SOL     OW  493   0.822   1.002   1.372
  164SOL    HW1  494   0.862   1.001   1.280
  164SOL    HW2  495   0.832   1.094   1.412
  165SOL     OW  496   0.916   0.910   0.291
  165SOL    HW1  497   0.979   0.948   0.223
  165SOL    HW2  498   0.956   0.827   0.330
  166SOL     OW  499   1.504   1.607   0.044
  166SOL    HW1  500   1.412   1.644   0.051
  166SOL    HW2  501   1.542   1.627  -0.046
  167SOL     OW  502   0.372   1.288   1.490
  167SOL    HW1  503   0.359   1.381   1.456
  167SOL    HW2  504   0.288   1.236   1.477
  168SOL     OW  505   1.614   1.292   1.289
  168SOL    HW1  506   1.674   1.295   1.369
  168SOL    HW2  507   1.539   1.356   1.302
  169SOL     OW  508   1.039   1.098   0.696
  169SOL    HW1  509   0.969   1.051   0.750
  169SOL    HW2  510   1.098   1.030   0.653
  170SOL     OW  511   1.014   0.236   0.971
  170SOL    HW1  512   1.006   0.200   0.878
  170SOL    HW2  513   1.012   0.160   1.036
  171SOL     OW  514   0.590   1.487   0.491
  171SOL    HW1  515   0.632   1.429   0.421
  171SOL    HW2  516   0.546   1.566   0.447
  172SOL     OW  517   1.709   0.385   1.381
  172SOL    HW1  518   1.782   0.454   1.385
  172SOL    HW2  519   1.737   0.310   1.322
  173SOL     OW  520   0.255   1.348   0.290
  173SOL    HW1  521   0.159   1.349   0.263
  173SOL    HW2  522   0.267   1.401   0.374
  174SOL     OW  523   0.105   1.013   1.726
  174SOL    HW1  524   0.028   0.980   1.780
  174SOL    HW2  525   0.190   0.983   1.768
  175SOL     OW  526   0.672   0.203   1.489
  175SOL    HW1  527   0.762   0.187   1.449
  175SOL    HW2  528   0.680   0.208   1.588
  176SOL     OW  529   0.075   0.345   0.033
  176SOL    HW1  530  -0.017   0.317   0.004
  176SOL    HW2  531   0.106   0.422  -0.023
  177SOL     OW  532   1.440   0.856   1.398
  177SOL    HW1  533   1.383   0.908   1.335
  177SOL    HW2  534   1.536   0.868   1.374
  178SOL     OW  535   0.072   0.166   0.318
  178SOL    HW1  536   0.055   0.249   0.264
  178SOL    HW2  537   0.162   0.129   0.296
  179SOL     OW  538   1.183   1.335   0.119
  179SOL    HW1  539   1.084   1.324   0.121
  179SOL    HW2  540   1.217   1.350   0.212
  180SOL     OW  541   0.613   0.842   1.431
  180SOL    HW1  542   0.669   0.923   1.414
  180SOL    HW2  543   0.672   0.762   1.434
  181SOL     OW  544   1.493   1.767   0.959
  181SOL    HW1  545   1.526   1.831   0.890
  181SOL    HW2  546   1.559   1.761   1.034
  182SOL     OW  547   0.716   0.565   1.708
  182SOL    HW1  548   0.735   0.630   1.782
  182SOL    HW2  549   0.776   0.485   1.717
  183SOL     OW  550   1.450   1.220   1.633
  183SOL    HW1  551   1.441   1.210   1.732
  183SOL    HW2  552   1.546   1.213   1.607
  184SOL     OW  553   0.390   1.741   1.560
  184SOL    HW1  554   0.299   1.782   1.558
  184SOL    HW2  555   0.383   1.647   1.592
  185SOL     OW  556   1.674   0.883   1.254
  185SOL    HW1  557   1.647   0.794   1.217
  185SOL    HW2  558   1.675   0.951   1.181
  186SOL     OW  559   1.225   0.325   0.449
  186SOL    HW1  560   1.290   0.251   0.438
  186SOL    HW2  561   1.245   0.375   0.533
  187SOL     OW  562   0.594   0.745   0.652
  187SOL    HW1  563   0.644   0.830   0.633
  187SOL    HW2  564   0.506   0.747   0.604
  188SOL     OW  565   1.777   0.342   1.642
  188SOL    HW1  566   1.760   0.373   1.548
  188SOL    HW2  567   1.693   0.305   1.680
  189SOL     OW  568   1.730   0.934   1.517
  189SOL    HW1  569   1.768   1.025   1.532
  189SOL    HW2  570   1.722   0.917   1.418
  190SOL     OW  571   0.859   1.374   0.016
  190SOL    HW1  572   0.813   1.389   0.104
  190SOL    HW2  573   0.903   1.459  -0.014
  191SOL     OW  574   0.661   1.790   0.953
  191SOL    HW1  575   0.615   1.878   0.940
  191SOL    HW2  576   0.760   1.802   0.946
  192SOL     OW  577   0.859   0.956   0.861
  192SOL    HW1  578   0.913   0.887   0.909
  192SOL    HW2  579   0.827   1.025   0.927
  193SOL     OW  580   1.083   0.984   0.087
  193SOL    HW1  581   1.060   1.037   0.005
  193SOL    HW2  582   1.164   0.928   0.068
  194SOL     OW  583   1.861   1.569   0.851
  194SOL    HW1  584   1.790   1.557   0.781
  194SOL    HW2  585   1.862   1.490   0.911
  195SOL     OW  586   0.221   1.314   1.844
  195SOL    HW1  587   0.156   1.241   1.823
  195SOL    HW2  588   0.225   1.328   1.942
  196SOL     OW  589   0.079   1.240   0.653
  196SOL    HW1  590   0.078   1.193   0.741
  196SOL    HW2  591   0.161   1.212   0.602
  197SOL     OW  592   0.672   1.391   1.624
  197SOL    HW1  593   0.594   1.341   1.662
  197SOL    HW2  594   0.669   1.486   1.655
  198SOL     OW  595   1.824   0.192   1.227
  198SOL    HW1  596   1.820   0.102   1.271
  198SOL    HW2  597   1.827   0.181   1.128
  199SOL     OW  598   0.428   0.424   0.520
  199SOL    HW1  599   0.458   0.352   0.458
  199SOL    HW2  600   0.389   0.384   0.603
  200SOL     OW  601   1.705   1.487   1.104
  200SOL    HW1  602   1.612   1.462   1.077
  200SOL    HW2  603   1.731   1.437   1.186
  201SOL     OW  604   0.317   0.547   1.280
  201SOL    HW1  605   0.355   0.488   1.352
  201SOL    HW2  606   0.357   0.521   1.192
  202SOL     OW  607   0.812   1.586   0.687
  202SOL    HW1  608   0.844   1.596   0.593
  202SOL    HW2  609   0.733   1.524   0.689
  203SOL     OW  610   1.424   0.214   1.112
  203SOL    HW1  611   1.476   0.149   1.167
  203SOL    HW2  612   1.375   0.277   1.173
  204SOL     OW  613   1.001   0.034   1.154
  204SOL    HW1  614   0.938  -0.038   1.123
  204SOL    HW2  615   1.094  -0.002   1.154
  205SOL     OW  616   0.770   1.330   0.301
  205SOL    HW1  617   0.724   1.243   0.318
  205SOL    HW2  618   0.861   1.327   0.342
  206SOL     OW  619   0.618   1.567   1.284
  206SOL    HW1  620   0.613   1.649   1.341
  206SOL    HW2  621   0.707   1.564   1.239
  207SOL     OW  622   1.352   0.052   0.168
  207SOL    HW1  623   1.387   0.011   0.084
  207SOL    HW2  624   1.262   0.014   0.188
  208SOL     OW  625   1.300   0.453   0.691
  208SOL    HW1  626   1.241   0.533   0.695
  208SOL    HW2  627   1.315   0.418   0.784
  209SOL     OW  628   1.593   0.221   0.882
  209SOL    HW1  629   1.509   0.220   0.936
  209SOL    HW2  630   1.595   0.304   0.826
  210SOL     OW  631   0.039   1.077   0.300
  210SOL    HW1  632   0.138   1.066   0.291
  210SOL    HW2  633  -0.001   0.991   0.332
  211SOL     OW  634   0.875   1.646   0.337
  211SOL    HW1  635   0.798   1.611   0.283
  211SOL    HW2  636   0.843   1.717   0.399
  212SOL     OW  637   0.230   0.628   1.975
  212SOL    HW1  638   0.137   0.626   2.012
  212SOL    HW2  639   0.231   0.589   1.883
  213SOL     OW  640   1.755   0.607   2.093
  213SOL    HW1  641   1.743   0.594   1.994
  213SOL    HW2  642   1.725   0.526   2.142
  214SOL     OW  643   0.231   1.713   2.345
  214SOL    HW1  644   0.265   1.790   2.399
  214SOL    HW2  645   0.275   1.713   2.255
  215SOL     OW  646   0.230   1.434   2.400
  215SOL    HW1  647   0.204   1.530   2.400
  215SOL    HW2  648   0.159   1.380   2.445
  216SOL     OW  649   0.606   0.964   1.985
  216SOL    HW1  650   0.613   1.048   1.931
  216SOL    HW2  651   0.652   0.977   2.073
  217SOL     OW  652   1.842   1.767   2.221
  217SOL    HW1  653   1.896   1.738   2.301
  217SOL    HW2  654   1.872   1.857   2.192
  218SOL     OW  655   0.027   1.596   1.979
  218SOL    HW1  656   0.008   1.500   2.000
  218SOL    HW2  657  -0.006   1.654   2.054
  219SOL     OW  658   1.689   0.922   2.474
  219SOL    HW1  659   1.784   0.893   2.482
  219SOL    HW2  660   1.681   0.987   2.399
  220SOL     OW  661   1.641   1.108   2.294
  220SOL    HW1  662   1.727   1.110   2.242
  220SOL    HW2  663   1.655   1.155   2.382
  221SOL     OW  664   1.525   0.999   2.052
  221SOL    HW1  665   1.462   0.923   2.065
  221SOL    HW2  666   1.573   1.017   2.138
  222SOL     OW  667   0.598   0.729   2.132
  222SOL    HW1  668   0.622   0.798   2.064
  222SOL    HW2  669   0.520   0.762   2.186
  223SOL     OW  670   0.865   0.348   2.057
  223SOL    HW1  671   0.924   0.411   2.008
  223SOL    HW2  672   0.884   0.254   2.028
  224SOL     OW  673   0.321   0.943   2.104
  224SOL    HW1  674   0.403   0.982   2.062
  224SOL    HW2  675   0.294   0.861   2.055
  225SOL     OW  676   1.111   1.776   2.099
  225SOL    HW1  677   1.051   1.714   2.149
  225SOL    HW2  678   1.142   1.732   2.014
  226SOL     OW  679   1.632   1.377   1.943
  226SOL    HW1  680   1.600   1.471   1.933
  226SOL    HW2  681   1.556   1.314   1.931
  227SOL     OW  682   0.464   1.743   2.185
  227SOL    HW1  683   0.497   1.782   2.271
  227SOL    HW2  684   0.540   1.736   2.120
  228SOL     OW  685   0.614   0.122   1.979
  228SOL    HW1  686   0.712   0.100   1.986
  228SOL    HW2  687   0.583   0.105   1.886
  229SOL     OW  688   1.434   1.188   1.903
  229SOL    HW1  689   1.466   1.112   1.960
  229SOL    HW2  690   1.342   1.215   1.933
  230SOL     OW  691   0.297   0.035   2.033
  230SOL    HW1  692   0.346   0.119   2.012
  230SOL    HW2  693   0.359  -0.030   2.078
  231SOL     OW  694   1.032   0.549   1.878
  231SOL    HW1  695   0.991   0.631   1.839
  231SOL    HW2  696   1.096   0.575   1.951
  232SOL     OW  697   1.857   0.833   2.239
  232SOL    HW1  698   1.899   0.769   2.303
  232SOL    HW2  699   1.819   0.782   2.161
  233SOL     OW  700   0.488   1.385   2.036
  233SOL    HW1  701   0.401   1.370   2.083
  233SOL    HW2  702   0.471   1.411   1.941
  234SOL     OW  703   1.390   0.575   1.940
  234SOL    HW1  704   1.336   0.554   2.021
  234SOL    HW2  705   1.481   0.534   1.949
  235SOL     OW  706   0.527   0.256   2.190
  235SOL    HW1  707   0.554   0.197   2.115
  235SOL    HW2  708   0.527   0.351   2.159
  236SOL     OW  709   0.367   1.100   2.363
  236SOL    HW1  710   0.360   1.183   2.307
  236SOL    HW2  711   0.371   1.020   2.303
  237SOL     OW  712   1.252   1.348   2.250
  237SOL    HW1  713   1.302   1.425   2.290
  237SOL    HW2  714   1.157   1.350   2.282
  238SOL     OW  715   1.582   0.639   2.334
  238SOL    HW1  716   1.551   0.700   2.407
  238SOL    HW2  717   1.632   0.691   2.265
  239SOL     OW  718   1.209   0.525   2.137
  239SOL    HW1  719   1.222   0.441   2.191
  239SOL    HW2  720   1.180   0.599   2.197
  240SOL     OW  721   1.622   0.367   2.236
  240SOL    HW1  722   1.624   0.291   2.300
  240SOL    HW2  723   1.574   0.444   2.276
  241SOL     OW  724   1.540   0.274   1.987
  241SOL    HW1  725   1.479   0.199   2.010
  241SOL    HW2  726   1.562   0.326   2.070
  242SOL     OW  727   1.303   0.838   1.904
  242SOL    HW1  728   1.337   0.745   1.919
  242SOL    HW2  729   1.321   0.865   1.809
  243SOL     OW  730   0.008   1.326   2.062
  243SOL    HW1  731  -0.085   1.347   2.031
  243SOL    HW2  732   0.018   1.227   2.075
  244SOL     OW  733   0.815   0.572   2.187
  244SOL    HW1  734   0.822   0.483   2.141
  244SOL    HW2  735   0.721   0.606   2.179
  245SOL     OW  736   0.473   0.500   2.053
  245SOL    HW1  737   0.534   0.580   2.057
  245SOL    HW2  738   0.378   0.531   2.060
  246SOL     OW  739   1.726   0.135   2.385
  246SOL    HW1  740   1.799   0.118   2.318
  246SOL    HW2  741   1.695   0.048   2.423
  247SOL     OW  742   0.672   1.616   2.016
  247SOL    HW1  743   0.681   1.626   1.917
  247SOL    HW2  744   0.632   1.527   2.037
  248SOL     OW  745   0.263   0.326   2.582
  248SOL    HW1  746   0.184   0.377   2.548
  248SOL    HW2  747   0.254   0.311   2.680
  249SOL     OW  748   1.194   1.612   1.893
  249SOL    HW1  749   1.200   1.519   1.930
  249SOL    HW2  750   1.135   1.612   1.813
  250SOL     OW  751   0.916   0.910   2.153
  250SOL    HW1  752   0.979   0.948   2.085
  250SOL    HW2  753   0.956   0.827   2.192
  251SOL     OW  754   1.504   1.607   1.906
  251SOL    HW1  755   1.412   1.644   1.913
  251SOL    HW2  756   1.542   1.627   1.816
  252SOL     OW  757   0.255   1.348   2.152
  252SOL    HW1  758   0.159   1.349   2.125
  252SOL    HW2  759   0.267   1.401   2.236
  253SOL     OW  760   0.075   0.345   1.895
  253SOL    HW1  761  -0.017   0.317   1.866
  253SOL    HW2  762   0.106   0.422   1.839
  254SOL     OW  763   0.072   0.166   2.180
  254SOL    HW1  764   0.055   0.249   2.126
  254SOL    HW2  765   0.162   0.129   2.158
  255SOL     OW  766   1.183   1.335   1.981
  255SOL    HW1  767   1.084   1.324   1.983
  255SOL    HW2  768   1.217   1.350   2.074
  256SOL     OW  769   1.225   0.325   2.311
  256SOL    HW1  770   1.290   0.251   2.300
  256SOL    HW2  771   1.245   0.375   2.395
  257SOL     OW  772   0.859   1.374   1.878
  257SOL    HW1  773   0.813   1.389   1.966
  257SOL    HW2  774   0.903   1.459   1.848
  258SOL     OW  775   1.083   0.984   1.949
  258SOL    HW1  776   1.060   1.037   1.867
  258SOL    HW2  777   1.164   0.928   1.930
  259SOL     OW  778   1.352   0.052   2.030
  259SOL    HW1  779   1.387   0.011   1.946
  259SOL    HW2  780   1.262   0.014   2.050
  260SOL     OW  781   0.039   1.077   2.162
  260SOL    HW1  782   0.138   1.066   2.153
  260SOL    HW2  783  -0.001   0.991   2.194
  261SOL     OW  784   0.875   1.646   2.199
  261SOL    HW1  785   0.798   1.611   2.145
  261SOL    HW2  786   0.843   1.717   2.261
  262SOL     OW  787   0.225   2.137   0.996
  262SOL    HW1  788   0.260   2.120   1.088
  262SOL    HW2  789   0.137   2.092   0.984
  263SOL     OW  790   0.019   2.230   0.647
  263SOL    HW1  791  -0.063   2.273   0.686
  263SOL    HW2  792  -0.009   2.157   0.584
  264SOL     OW  793   0.438   2.254   1.499
  264SOL    HW1  794   0.520   2.198   1.508
  264SOL    HW2  795   0.357   2.196   1.503
  265SOL     OW  796   1.603   2.309   0.737
  265SOL    HW1  797   1.529   2.355   0.687
  265SOL    HW2  798   1.654   2.377   0.790
  266SOL     OW  799   1.594   1.976   1.480
  266SOL    HW1  800   1.576   2.043   1.408
  266SOL    HW2  801   1.591   2.022   1.569
  267SOL     OW  802   0.122   2.505   0.563
  267SOL    HW1  803   0.077   2.417   0.580
  267SOL    HW2  804   0.121   2.559   0.647
  268SOL     OW  805   0.809   1.866   0.502
  268SOL    HW1  806   0.849   1.957   0.493
  268SOL    HW2  807   0.709   1.874   0.508
  269SOL     OW  808   0.317   2.113   1.801
  269SOL    HW1  809   0.388   2.184   1.807
  269SOL    HW2  810   0.229   2.152   1.829
  270SOL     OW  811   1.281   2.207   0.944
  270SOL    HW1  812   1.195   2.157   0.931
  270SOL    HW2  813   1.343   2.153   1.000
  271SOL     OW  814   1.394   2.331   1.674
  271SOL    HW1  815   1.374   2.374   1.762
  271SOL    HW2  816   1.472   2.269   1.683
  272SOL     OW  817   1.719   2.447   1.831
  272SOL    HW1  818   1.693   2.536   1.795
  272SOL    HW2  819   1.717   2.379   1.758
  273SOL     OW  820   0.550   2.058   0.885
  273SOL    HW1  821   0.545   2.053   0.985
  273SOL    HW2  822   0.552   2.154   0.856
  274SOL     OW  823   0.202   2.147   1.498
  274SOL    HW1  824   0.122   2.207   1.485
  274SOL    HW2  825   0.192   2.098   1.584
  275SOL     OW  826   1.400   1.969   0.426
  275SOL    HW1  827   1.376   1.932   0.336
  275SOL    HW2  828   1.499   1.985   0.430
  276SOL     OW  829   1.547   2.084   1.729
  276SOL    HW1  830   1.542   2.121   1.821
  276SOL    HW2  831   1.475   2.015   1.717
  277SOL     OW  832   0.614   1.984   0.117
  277SOL    HW1  833   0.712   1.962   0.124
  277SOL    HW2  834   0.583   1.967   0.024
  278SOL     OW  835   0.781   2.126   1.749
  278SOL    HW1  836   0.848   2.065   1.792
  278SOL    HW2  837   0.708   2.145   1.814
  279SOL     OW  838   1.351   2.452   1.433
  279SOL    HW1  839   1.379   2.409   1.518
  279SOL    HW2  840   1.376   2.548   1.434
  280SOL     OW  841   0.539   1.926   0.512
  280SOL    HW1  842   0.458   1.927   0.570
  280SOL    HW2  843   0.542   2.009   0.457
  281SOL     OW  844   0.935   2.098   0.480
  281SOL    HW1  845   0.887   2.139   0.402
  281SOL    HW2  846   1.034   2.096   0.461
  282SOL     OW  847   0.078   2.418   1.386
  282SOL    HW1  848   0.170   2.417   1.345
  282SOL    HW2  849   0.072   2.492   1.453
  283SOL     OW  850   0.561   2.084   1.147
  283SOL    HW1  851   0.599   2.000   1.184
  283SOL    HW2  852   0.473   2.103   1.191
  284SOL     OW  853   1.017   1.901   0.753
  284SOL    HW1  854   0.945   1.906   0.684
  284SOL    HW2  855   0.993   1.832   0.822
  285SOL     OW  856   0.527   2.118   0.328
  285SOL    HW1  857   0.554   2.059   0.253
  285SOL    HW2  858   0.527   2.213   0.297
  286SOL     OW  859   0.915   1.951   1.402
  286SOL    HW1  860   0.940   1.931   1.307
  286SOL    HW2  861   0.987   2.007   1.444
  287SOL     OW  862   1.013   1.967   1.770
  287SOL    HW1  863   1.019   2.052   1.718
  287SOL    HW2  864   1.045   1.891   1.713
  288SOL     OW  865   0.504   1.912   1.740
  288SOL    HW1  866   0.462   1.855   1.670
  288SOL    HW2  867   0.438   1.981   1.772
  289SOL     OW  868   0.307   2.075   1.231
  289SOL    HW1  869   0.284   2.112   1.321
  289SOL    HW2  870   0.277   1.980   1.225
  290SOL     OW  871   0.732   2.496   1.064
  290SOL    HW1  872   0.791   2.470   0.988
  290SOL    HW2  873   0.704   2.592   1.053
  291SOL     OW  874   0.307   1.925   0.618
  291SOL    HW1  875   0.296   2.019   0.651
  291SOL    HW2  876   0.302   1.862   0.695
  292SOL     OW  877   1.622   2.229   0.374
  292SOL    HW1  878   1.624   2.153   0.438
  292SOL    HW2  879   1.574   2.306   0.414
  293SOL     OW  880   1.540   2.136   0.125
  293SOL    HW1  881   1.479   2.061   0.148
  293SOL    HW2  882   1.562   2.188   0.208
  294SOL     OW  883   0.339   2.371   1.006
  294SOL    HW1  884   0.287   2.288   0.989
  294SOL    HW2  885   0.416   2.376   0.942
  295SOL     OW  886   1.160   2.069   1.477
  295SOL    HW1  887   1.160   2.133   1.554
  295SOL    HW2  888   1.188   2.117   1.394
  296SOL     OW  889   0.040   2.406   1.114
  296SOL    HW1  890   0.125   2.373   1.073
  296SOL    HW2  891   0.053   2.421   1.212
  297SOL     OW  892   0.189   2.382   1.722
  297SOL    HW1  893   0.248   2.342   1.652
  297SOL    HW2  894   0.131   2.453   1.681
  298SOL     OW  895   0.815   2.434   0.325
  298SOL    HW1  896   0.822   2.345   0.279
  298SOL    HW2  897   0.721   2.468   0.317
  299SOL     OW  898   0.903   1.948   0.133
  299SOL    HW1  899   0.954   1.949   0.047
  299SOL    HW2  900   0.959   1.906   0.204
  300SOL     OW  901   1.726   1.997   0.523
  300SOL    HW1  902   1.799   1.980   0.456
  300SOL    HW2  903   1.695   1.910   0.561
  301SOL     OW  904   1.841   2.037   0.963
  301SOL    HW1  905   1.880   1.952   0.927
  301SOL    HW2  906   1.743   2.039   0.944
  302SOL     OW  907   1.014   2.098   0.971
  302SOL    HW1  908   1.006   2.062   0.878
  302SOL    HW2  909   1.012   2.022   1.036
  303SOL     OW  910   1.709   2.247   1.381
  303SOL    HW1  911   1.782   2.316   1.385
  303SOL    HW2  912   1.737   2.172   1.322
  304SOL     OW  913   0.672   2.065   1.489
  304SOL    HW1  914   0.762   2.049   1.449
  304SOL    HW2  915   0.680   2.070   1.588
  305SOL     OW  916   0.075   2.207   0.033
  305SOL    HW1  917  -0.017   2.179   0.004
  305SOL    HW2  918   0.106   2.284  -0.023
  306SOL     OW  919   0.072   2.028   0.318
  306SOL    HW1  920   0.055   2.111   0.264
  306SOL    HW2  921   0.162   1.991   0.296
  307SOL     OW  922   1.225   2.187   0.449
  307SOL    HW1  923   1.290   2.113   0.438
  307SOL    HW2  924   1.245   2.237   0.533
  308SOL     OW  925   1.777   2.204   1.642
  308SOL    HW1  926   1.760   2.235   1.548
  308SOL    HW2  927   1.693   2.167   1.680
  309SOL     OW  928   1.824   2.054   1.227
  309SOL    HW1  929   1.820   1.964   1.271
  309SOL    HW2  930   1.827   2.043   1.128
  310SOL     OW  931   1.424   2.076   1.112
  310SOL    HW1  932   1.476   2.011   1.167
  310SOL    HW2  933   1.375   2.139   1.173
  311SOL     OW  934   1.001   1.896   1.154
  311SOL    HW1  935   0.938   1.824   1.123
  311SOL    HW2  936   1.094   1.860   1.154
  312SOL     OW  937   1.352   1.914   0.168
  312SOL    HW1  938   1.387   1.873   0.084
  312SOL    HW2  939   1.262   1.876   0.188
  313SOL     OW  940   1.300   2.315   0.691
  313SOL    HW1  941   1.241   2.395   0.695
  313SOL    HW2  942   1.315   2.280   0.784
  314SOL     OW  943   1.593   2.083   0.882
  314SOL    HW1  944   1.509   2.082   0.936
  314SOL    HW2  945   1.595   2.166   0.826
  315SOL     OW  946   1.755   2.469   2.093
  315SOL    HW1  947   1.743   2.456   1.994
  315SOL    HW2  948   1.725   2.388   2.142
  316SOL     OW  949   1.041   2.563   2.291
  316SOL    HW1  950   1.067   2.559   2.387
  316SOL    HW2  951   0.956   2.512   2.277
  317SOL     OW  952   0.865   2.210   2.057
  317SOL    HW1  953   0.924   2.273   2.008
  317SOL    HW2  954   0.884   2.116   2.028
  318SOL     OW  955   0.382   2.562   2.342
  318SOL    HW1  956   0.427   2.472   2.339
  318SOL    HW2  957   0.288   2.551   2.375
  319SOL     OW  958   0.614   1.984   1.979
  319SOL    HW1  959   0.712   1.962   1.986
  319SOL    HW2  960   0.583   1.967   1.886
  320SOL     OW  961   0.297   1.897   2.033
  320SOL    HW1  962   0.346   1.981   2.012
  320SOL    HW2  963   0.359   1.832   2.078
  321SOL     OW  964   0.527   2.118   2.190
  321SOL    HW1  965   0.554   2.059   2.115
  321SOL    HW2  966   0.527   2.213   2.159
  322SOL     OW  967   0.307   1.925   2.480
  322SOL    HW1  968   0.296   2.019   2.513
  322SOL    HW2  969   0.302   1.862   2.557
  323SOL     OW  970   1.622   2.229   2.236
  323SOL    HW1  971   1.624   2.153   2.300
  323SOL    HW2  972   1.574   2.306   2.276
  324SOL     OW  973   1.540   2.136   1.987
  324SOL    HW1  974   1.479   2.061   2.010
  324SOL    HW2  975   1.562   2.188   2.070
  325SOL     OW  976   0.815   2.434   2.187
  325SOL    HW1  977   0.822   2.345   2.141
  325SOL    HW2  978   0.721   2.468   2.179
  326SOL     OW  979   1.726   1.997   2.385
  326SOL    HW1  980   1.799   1.980   2.318
  326SOL    HW2  981   1.695   1.910   2.423
  327SOL     OW  982   0.075   2.207   1.895
  327SOL    HW1  983  -0.017   2.179   1.866
  327SOL    HW2  984   0.106   2.284   1.839
  328SOL     OW  985   0.072   2.028   2.180
  328SOL    HW1  986   0.055   2.111   2.126
  328SOL    HW2  987   0.162   1.991   2.158
  329SOL     OW  988   1.225   2.187   2.311
  329SOL    HW1  989   1.290   2.113   2.300
  329SOL    HW2  990   1.245   2.237   2.395
  330SOL     OW  991   1.352   1.914   2.030
  330SOL    HW1  992   1.387   1.873   1.946
  330SOL    HW2  993   1.262   1.876   2.050
  331SOL     OW  994   2.092   0.628   0.113
  331SOL    HW1  995   1.999   0.626   0.150
  331SOL    HW2  996   2.093   0.589   0.021
  332SOL     OW  997   2.087   0.275   0.996
  332SOL    HW1  998   2.122   0.258   1.088
  332SOL    HW2  999   1.999   0.230   0.984
  333SOL     OW 1000   1.881   0.368   0.647
  333SOL    HW1 1001   1.799   0.411   0.686
  333SOL    HW2 1002   1.853   0.295   0.584
  334SOL     OW 1003   2.547   1.012   0.665
  334SOL    HW1 1004   2.616   0.996   0.735
  334SOL    HW2 1005   2.474   1.069   0.703
  335SOL     OW 1006   2.197   1.435   1.061
  335SOL    HW1 1007   2.119   1.404   1.008
  335SOL    HW2 1008   2.255   1.493   1.004
  336SOL     OW 1009   2.093   1.713   0.483
  336SOL    HW1 1010   2.127   1.790   0.537
  336SOL    HW2 1011   2.137   1.713   0.393
  337SOL     OW 1012   2.092   1.434   0.538
  337SOL    HW1 1013   2.066   1.530   0.538
  337SOL    HW2 1014   2.021   1.380   0.583
  338SOL     OW 1015   2.102   1.091   0.886
  338SOL    HW1 1016   2.116   1.007   0.938
  338SOL    HW2 1017   2.047   1.155   0.941
  339SOL     OW 1018   1.984   0.643   0.563
  339SOL    HW1 1019   1.939   0.555   0.580
  339SOL    HW2 1020   1.983   0.697   0.647
  340SOL     OW 1021   1.889   1.596   0.117
  340SOL    HW1 1022   1.870   1.500   0.138
  340SOL    HW2 1023   1.856   1.654   0.192
  341SOL     OW 1024   1.975   0.737   1.597
  341SOL    HW1 1025   2.063   0.724   1.642
  341SOL    HW2 1026   1.962   0.834   1.575
  342SOL     OW 1027   2.059   0.976   1.264
  342SOL    HW1 1028   2.148   0.931   1.250
  342SOL    HW2 1029   1.986   0.911   1.245
  343SOL     OW 1030   2.460   0.729   0.270
  343SOL    HW1 1031   2.484   0.798   0.202
  343SOL    HW2 1032   2.382   0.762   0.324
  344SOL     OW 1033   1.938   0.811   0.789
  344SOL    HW1 1034   2.037   0.799   0.798
  344SOL    HW2 1035   1.914   0.906   0.810
  345SOL     OW 1036   1.992   1.821   1.571
  345SOL    HW1 1037   1.982   1.806   1.670
  345SOL    HW2 1038   1.906   1.857   1.535
  346SOL     OW 1039   2.183   0.943   0.242
  346SOL    HW1 1040   2.265   0.982   0.200
  346SOL    HW2 1041   2.156   0.861   0.193
  347SOL     OW 1042   2.323   1.266   1.727
  347SOL    HW1 1043   2.273   1.267   1.641
  347SOL    HW2 1044   2.260   1.248   1.803
  348SOL     OW 1045   2.064   0.285   1.498
  348SOL    HW1 1046   1.984   0.345   1.485
  348SOL    HW2 1047   2.054   0.236   1.584
  349SOL     OW 1048   2.326   1.743   0.323
  349SOL    HW1 1049   2.359   1.782   0.409
  349SOL    HW2 1050   2.402   1.736   0.258
  350SOL     OW 1051   2.111   1.785   1.241
  350SOL    HW1 1052   2.168   1.720   1.291
  350SOL    HW2 1053   2.095   1.752   1.148
  351SOL     OW 1054   2.244   0.700   0.480
  351SOL    HW1 1055   2.289   0.610   0.477
  351SOL    HW2 1056   2.150   0.689   0.513
  352SOL     OW 1057   2.159   0.035   0.171
  352SOL    HW1 1058   2.208   0.119   0.150
  352SOL    HW2 1059   2.221  -0.030   0.216
  353SOL     OW 1060   1.940   0.556   1.386
  353SOL    HW1 1061   2.032   0.555   1.345
  353SOL    HW2 1062   1.934   0.630   1.453
  354SOL     OW 1063   1.926   1.564   1.331
  354SOL    HW1 1064   1.880   1.646   1.297
  354SOL    HW2 1065   2.024   1.583   1.340
  355SOL     OW 1066   2.229   1.100   0.501
  355SOL    HW1 1067   2.222   1.183   0.445
  355SOL    HW2 1068   2.233   1.020   0.441
  356SOL     OW 1069   2.428   0.537   0.865
  356SOL    HW1 1070   2.440   0.603   0.791
  356SOL    HW2 1071   2.474   0.571   0.948
  357SOL     OW 1072   2.169   0.213   1.231
  357SOL    HW1 1073   2.146   0.250   1.321
  357SOL    HW2 1074   2.139   0.118   1.225
  358SOL     OW 1075   1.899   1.310   1.282
  358SOL    HW1 1076   1.952   1.261   1.350
  358SOL    HW2 1077   1.921   1.408   1.287
  359SOL     OW 1078   2.181   0.810   0.949
  359SOL    HW1 1079   2.274   0.846   0.954
  359SOL    HW2 1080   2.175   0.725   1.001
  360SOL     OW 1081   2.201   0.509   1.006
  360SOL    HW1 1082   2.149   0.426   0.989
  360SOL    HW2 1083   2.278   0.514   0.942
  361SOL     OW 1084   1.870   1.326   0.200
  361SOL    HW1 1085   1.777   1.347   0.169
  361SOL    HW2 1086   1.880   1.227   0.213
  362SOL     OW 1087   1.950   1.801   0.927
  362SOL    HW1 1088   1.908   1.715   0.900
  362SOL    HW2 1089   2.044   1.804   0.893
  363SOL     OW 1090   1.902   0.544   1.114
  363SOL    HW1 1091   1.987   0.511   1.073
  363SOL    HW2 1092   1.915   0.559   1.212
  364SOL     OW 1093   2.051   0.520   1.722
  364SOL    HW1 1094   2.110   0.480   1.652
  364SOL    HW2 1095   1.993   0.591   1.681
  365SOL     OW 1096   2.114   1.564   1.744
  365SOL    HW1 1097   2.084   1.621   1.820
  365SOL    HW2 1098   2.107   1.467   1.770
  366SOL     OW 1099   2.021   1.137   1.466
  366SOL    HW1 1100   2.043   1.076   1.542
  366SOL    HW2 1101   2.031   1.088   1.380
  367SOL     OW 1102   1.945   1.258   1.022
  367SOL    HW1 1103   1.940   1.257   1.122
  367SOL    HW2 1104   1.862   1.217   0.984
  368SOL     OW 1105   1.992   1.794   1.851
  368SOL    HW1 1106   1.951   1.720   1.904
  368SOL    HW2 1107   2.056   1.845   1.909
  369SOL     OW 1108   2.125   0.326   0.720
  369SOL    HW1 1109   2.046   0.377   0.686
  369SOL    HW2 1110   2.116   0.311   0.818
  370SOL     OW 1111   2.234   1.288   1.490
  370SOL    HW1 1112   2.221   1.381   1.456
  370SOL    HW2 1113   2.150   1.236   1.477
  371SOL     OW 1114   2.117   1.348   0.290
  371SOL    HW1 1115   2.021   1.349   0.263
  371SOL    HW2 1116   2.129   1.401   0.374
  372SOL     OW 1117   1.967   1.013   1.726
  372SOL    HW1 1118   1.890   0.980   1.780
  372SOL    HW2 1119   2.052   0.983   1.768
  373SOL     OW 1120   1.937   0.345   0.033
  373SOL    HW1 1121   1.845   0.317   0.004
  373SOL    HW2 1122   1.968   0.422  -0.023
  374SOL     OW 1123   1.934   0.166   0.318
  374SOL    HW1 1124   1.917   0.249   0.264
  374SOL    HW2 1125   2.024   0.129   0.296
  375SOL     OW 1126   2.475   0.842   1.431
  375SOL    HW1 1127   2.531   0.923   1.414
  375SOL    HW2 1128   2.534   0.762   1.434
  376SOL     OW 1129   2.252   1.741   1.560
  376SOL    HW1 1130   2.161   1.782   1.558
  376SOL    HW2 1131   2.245   1.647   1.592
  377SOL     OW 1132   2.083   1.314   1.844
  377SOL    HW1 1133   2.018   1.241   1.823
  377SOL    HW2 1134   2.087   1.328   1.942
  378SOL     OW 1135   1.941   1.240   0.653
  378SOL    HW1 1136   1.940   1.193   0.741
  378SOL    HW2 1137   2.023   1.212   0.602
  379SOL     OW 1138   2.179   0.547   1.280
  379SOL    HW1 1139   2.217   0.488   1.352
  379SOL    HW2 1140   2.219   0.521   1.192
  380SOL     OW 1141   1.901   1.077   0.300
  380SOL    HW1 1142   2.000   1.066   0.291
  380SOL    HW2 1143   1.861   0.991   0.332
  381SOL     OW 1144   2.092   0.628   1.975
  381SOL    HW1 1145   1.999   0.626   2.012
  381SOL    HW2 1146   2.093   0.589   1.883
  382SOL     OW 1147   2.093   1.713   2.345
  382SOL    HW1 1148   2.127   1.790   2.399
  382SOL    HW2 1149   2.137   1.713   2.255
  383SOL     OW 1150   2.092   1.434   2.400
  383SOL    HW1 1151   2.066   1.530   2.400
  383SOL    HW2 1152   2.021   1.380   2.445
  384SOL     OW 1153   1.889   1.596   1.979
  384SOL    HW1 1154   1.870   1.500   2.000
  384SOL    HW2 1155   1.856   1.654   2.054
  385SOL     OW 1156   2.460   0.729   2.132
  385SOL    HW1 1157   2.484   0.798   2.064
  385SOL    HW2 1158   2.382   0.762   2.186
  386SOL     OW 1159   2.183   0.943   2.104
  386SOL    HW1 1160   2.265   0.982   2.062
  386SOL    HW2 1161   2.156   0.861   2.055
  387SOL     OW 1162   2.326   1.743   2.185
  387SOL    HW1 1163   2.359   1.782   2.271
  387SOL    HW2 1164   2.402   1.736   2.120
  388SOL     OW 1165   2.159   0.035   2.033
  388SOL    HW1 1166   2.208   0.119   2.012
  388SOL    HW2 1167   2.221  -0.030   2.078
  389SOL     OW 1168   2.229   1.100   2.363
  389SOL    HW1 1169   2.222   1.183   2.307
  389SOL    HW2 1170   2.233   1.020   2.303
  390SOL     OW 1171   1.870   1.326   2.062
  390SOL    HW1 1172   1.777   1.347   2.031
  390SOL    HW2 1173   1.880   1.227   2.075
  391SOL     OW 1174   2.125   0.326   2.582
  391SOL    HW1 1175   2.046   0.377   2.548
  391SOL    HW2 1176   2.116   0.311   2.680
  392SOL     OW 1177   2.117   1.348   2.152
  392SOL    HW1 1178   2.021   1.349   2.125
  392SOL    HW2 1179   2.129   1.401   2.236
  393SOL     OW 1180   1.937   0.345   1.895
  393SOL    HW1 1181   1.845   0.317   1.866
  393SOL    HW2 1182   1.968   0.422   1.839
  394SOL     OW 1183   1.934   0.166   2.180
  394SOL    HW1 1184   1.917   0.249   2.126
  394SOL    HW2 1185   2.024   0.129   2.158
  395SOL     OW 1186   1.901   1.077   2.162
  395SOL    HW1 1187   2.000   1.066   2.153
  395SOL    HW2 1188   1.861   0.991   2.194
  396SOL     OW 1189   2.087   2.137   0.996
  396SOL    HW1 1190   2.122   2.120   1.088
  396SOL    HW2 1191   1.999   2.092   0.984
  397SOL     OW 1192   1.881   2.230   0.647
  397SOL    HW1 1193   1.799   2.273   0.686
  397SOL    HW2 1194   1.853   2.157   0.584
  398SOL     OW 1195   1.984   2.505   0.563
  398SOL    HW1 1196   1.939   2.417   0.580
  398SOL    HW2 1197   1.983   2.559   0.647
  399SOL     OW 1198   2.064   2.147   1.498
  399SOL    HW1 1199   1.984   2.207   1.485
  399SOL    HW2 1200   2.054   2.098   1.584
  400SOL     OW 1201   1.940   2.418   1.386
  400SOL    HW1 1202   2.032   2.417   1.345
  400SOL    HW2 1203   1.934   2.492   1.453
  401SOL     OW 1204   2.423   2.084   1.147
  401SOL    HW1 1205   2.461   2.000   1.184
  401SOL    HW2 1206   2.335   2.103   1.191
  402SOL     OW 1207   2.169   2.075   1.231
  402SOL    HW1 1208   2.146   2.112   1.321
  402SOL    HW2 1209   2.139   1.980   1.225
  403SOL     OW 1210   2.169   1.925   0.618
  403SOL    HW1 1211   2.158   2.019   0.651
  403SOL    HW2 1212   2.164   1.862   0.695
  404SOL     OW 1213   2.201   2.371   1.006
  404SOL    HW1 1214   2.149   2.288   0.989
  404SOL    HW2 1215   2.278   2.376   0.942
  405SOL     OW 1216   2.051   2.382   1.722
  405SOL    HW1 1217   2.110   2.342   1.652
  405SOL    HW2 1218   1.993   2.453   1.681
  406SOL     OW 1219   2.125   2.188   0.720
  406SOL    HW1 1220   2.046   2.239   0.686
  406SOL    HW2 1221   2.116   2.173   0.818
  407SOL     OW 1222   1.937   2.207   0.033
  407SOL    HW1 1223   1.845   2.179   0.004
  407SOL    HW2 1224   1.968   2.284  -0.023
  408SOL     OW 1225   1.934   2.028   0.318
  408SOL    HW1 1226   1.917   2.111   0.264
  408SOL    HW2 1227   2.024   1.991   0.296
  409SOL     OW 1228   2.159   1.897   2.033
  409SOL    HW1 1229   2.208   1.981   2.012
  409SOL    HW2 1230   2.221   1.832   2.078
  410SOL     OW 1231   2.169   1.925   2.480
  410SOL    HW1 1232   2.158   2.019   2.513
  410SOL    HW2 1233   2.164   1.862   2.557
  411SOL     OW 1234   1.937   2.207   1.895
  411SOL    HW1 1235   1.845   2.179   1.866
  411SOL    HW2 1236   1.968   2.284   1.839
  412SOL     OW 1237   1.934   2.028   2.180
  412SOL    HW1 1238   1.917   2.111   2.126
  412SOL    HW2 1239   2.024   1.991   2.158
   2.31765   2.31765   2.31765
