; mobley_3709920_GMX.itp created by acpype (v: 2023.10.27) on Thu May 14 13:54:45 2026

[ atomtypes ]
;name   bond_type     mass     charge   ptype   sigma         epsilon       Amb
 c2       c2          0.00000  0.00000   A     3.31521e-01   4.13379e-01 ; 1.86  0.0988
 c3       c3          0.00000  0.00000   A     3.39771e-01   4.51035e-01 ; 1.91  0.1078
 ha       ha          0.00000  0.00000   A     2.62548e-01   6.73624e-02 ; 1.47  0.0161
 hc       hc          0.00000  0.00000   A     2.60018e-01   8.70272e-02 ; 1.46  0.0208

[ moleculetype ]
;name            nrexcl
 mobley_3709920   3

[ atoms ]
;   nr  type  resi  res  atom  cgnr     charge      mass       ; qtot   bond_type
     1   c2     1   MOL    C1    1    -0.227000     12.01000 ; qtot -0.227
     2   c2     1   MOL    C2    2    -0.163200     12.01000 ; qtot -0.390
     3   c3     1   MOL    C3    3    -0.092100     12.01000 ; qtot -0.482
     4   c3     1   MOL    C4    4    -0.052200     12.01000 ; qtot -0.534
     5   c3     1   MOL    C5    5    -0.080400     12.01000 ; qtot -0.615
     6   c3     1   MOL    C6    6    -0.076400     12.01000 ; qtot -0.691
     7   c3     1   MOL    C7    7    -0.079400     12.01000 ; qtot -0.771
     8   c3     1   MOL    C8    8    -0.079400     12.01000 ; qtot -0.850
     9   c3     1   MOL    C9    9    -0.079400     12.01000 ; qtot -0.930
    10   ha     1   MOL    H1   10     0.110500      1.00800 ; qtot -0.819
    11   ha     1   MOL    H2   11     0.110500      1.00800 ; qtot -0.709
    12   ha     1   MOL    H3   12     0.118000      1.00800 ; qtot -0.591
    13   hc     1   MOL    H4   13     0.032700      1.00800 ; qtot -0.558
    14   hc     1   MOL    H5   14     0.032700      1.00800 ; qtot -0.525
    15   hc     1   MOL    H6   15     0.032700      1.00800 ; qtot -0.492
    16   hc     1   MOL    H7   16     0.046700      1.00800 ; qtot -0.446
    17   hc     1   MOL    H8   17     0.046700      1.00800 ; qtot -0.399
    18   hc     1   MOL    H9   18     0.038700      1.00800 ; qtot -0.360
    19   hc     1   MOL   H10   19     0.038700      1.00800 ; qtot -0.322
    20   hc     1   MOL   H11   20     0.041700      1.00800 ; qtot -0.280
    21   hc     1   MOL   H12   21     0.041700      1.00800 ; qtot -0.238
    22   hc     1   MOL   H13   22     0.039700      1.00800 ; qtot -0.199
    23   hc     1   MOL   H14   23     0.039700      1.00800 ; qtot -0.159
    24   hc     1   MOL   H15   24     0.039700      1.00800 ; qtot -0.119
    25   hc     1   MOL   H16   25     0.039700      1.00800 ; qtot -0.079
    26   hc     1   MOL   H17   26     0.039700      1.00800 ; qtot -0.040
    27   hc     1   MOL   H18   27     0.039700      1.00800 ; qtot 0.000

[ bonds ]
;   ai     aj funct   r             k
     1      2   1    1.3379e-01    3.6484e+05 ;     C1 - C2    
     1     10   1    1.0882e-01    2.9898e+05 ;     C1 - H1    
     1     11   1    1.0882e-01    2.9898e+05 ;     C1 - H2    
     2      4   1    1.5088e-01    2.0786e+05 ;     C2 - C4    
     2     12   1    1.0882e-01    2.9898e+05 ;     C2 - H3    
     3      5   1    1.5354e-01    1.9154e+05 ;     C3 - C5    
     3     13   1    1.0962e-01    2.8891e+05 ;     C3 - H4    
     3     14   1    1.0962e-01    2.8891e+05 ;     C3 - H5    
     3     15   1    1.0962e-01    2.8891e+05 ;     C3 - H6    
     4      6   1    1.5354e-01    1.9154e+05 ;     C4 - C6    
     4     16   1    1.0962e-01    2.8891e+05 ;     C4 - H7    
     4     17   1    1.0962e-01    2.8891e+05 ;     C4 - H8    
     5      7   1    1.5354e-01    1.9154e+05 ;     C5 - C7    
     5     18   1    1.0962e-01    2.8891e+05 ;     C5 - H9    
     5     19   1    1.0962e-01    2.8891e+05 ;     C5 - H10   
     6      8   1    1.5354e-01    1.9154e+05 ;     C6 - C8    
     6     20   1    1.0962e-01    2.8891e+05 ;     C6 - H11   
     6     21   1    1.0962e-01    2.8891e+05 ;     C6 - H12   
     7      9   1    1.5354e-01    1.9154e+05 ;     C7 - C9    
     7     22   1    1.0962e-01    2.8891e+05 ;     C7 - H13   
     7     23   1    1.0962e-01    2.8891e+05 ;     C7 - H14   
     8      9   1    1.5354e-01    1.9154e+05 ;     C8 - C9    
     8     24   1    1.0962e-01    2.8891e+05 ;     C8 - H15   
     8     25   1    1.0962e-01    2.8891e+05 ;     C8 - H16   
     9     26   1    1.0962e-01    2.8891e+05 ;     C9 - H17   
     9     27   1    1.0962e-01    2.8891e+05 ;     C9 - H18   

[ pairs ]
;   ai     aj    funct
     1      6      1 ;     C1 - C6    
     1     16      1 ;     C1 - H7    
     1     17      1 ;     C1 - H8    
     2      8      1 ;     C2 - C8    
     2     20      1 ;     C2 - H11   
     2     21      1 ;     C2 - H12   
     3      9      1 ;     C3 - C9    
     3     22      1 ;     C3 - H13   
     3     23      1 ;     C3 - H14   
     4      9      1 ;     C4 - C9    
     4     24      1 ;     C4 - H15   
     4     25      1 ;     C4 - H16   
     5      8      1 ;     C5 - C8    
     5     26      1 ;     C5 - H17   
     5     27      1 ;     C5 - H18   
     6      7      1 ;     C6 - C7    
     6     12      1 ;     C6 - H3    
     6     26      1 ;     C6 - H17   
     6     27      1 ;     C6 - H18   
     7     13      1 ;     C7 - H4    
     7     14      1 ;     C7 - H5    
     7     15      1 ;     C7 - H6    
     7     24      1 ;     C7 - H15   
     7     25      1 ;     C7 - H16   
     8     16      1 ;     C8 - H7    
     8     17      1 ;     C8 - H8    
     8     22      1 ;     C8 - H13   
     8     23      1 ;     C8 - H14   
     9     18      1 ;     C9 - H9    
     9     19      1 ;     C9 - H10   
     9     20      1 ;     C9 - H11   
     9     21      1 ;     C9 - H12   
    10      4      1 ;     H1 - C4    
    10     12      1 ;     H1 - H3    
    11      4      1 ;     H2 - C4    
    11     12      1 ;     H2 - H3    
    12     16      1 ;     H3 - H7    
    12     17      1 ;     H3 - H8    
    13     18      1 ;     H4 - H9    
    13     19      1 ;     H4 - H10   
    14     18      1 ;     H5 - H9    
    14     19      1 ;     H5 - H10   
    15     18      1 ;     H6 - H9    
    15     19      1 ;     H6 - H10   
    16     20      1 ;     H7 - H11   
    16     21      1 ;     H7 - H12   
    17     20      1 ;     H8 - H11   
    17     21      1 ;     H8 - H12   
    18     22      1 ;     H9 - H13   
    18     23      1 ;     H9 - H14   
    19     22      1 ;    H10 - H13   
    19     23      1 ;    H10 - H14   
    20     24      1 ;    H11 - H15   
    20     25      1 ;    H11 - H16   
    21     24      1 ;    H12 - H15   
    21     25      1 ;    H12 - H16   
    22     26      1 ;    H13 - H17   
    22     27      1 ;    H13 - H18   
    23     26      1 ;    H14 - H17   
    23     27      1 ;    H14 - H18   
    24     26      1 ;    H15 - H17   
    24     27      1 ;    H15 - H18   
    25     26      1 ;    H16 - H17   
    25     27      1 ;    H16 - H18   

[ angles ]
;   ai     aj     ak    funct   theta         cth
     1      2      4      1    1.2495e+02    5.0944e+02 ;     C1 - C2     - C4    
     1      2     12      1    1.2039e+02    3.8802e+02 ;     C1 - C2     - H3    
     2      1     10      1    1.2039e+02    3.8802e+02 ;     C2 - C1     - H1    
     2      1     11      1    1.2039e+02    3.8802e+02 ;     C2 - C1     - H2    
     2      4      6      1    1.1258e+02    5.0543e+02 ;     C2 - C4     - C6    
     2      4     16      1    1.1065e+02    3.6618e+02 ;     C2 - C4     - H7    
     2      4     17      1    1.1065e+02    3.6618e+02 ;     C2 - C4     - H8    
     3      5      7      1    1.1263e+02    5.0099e+02 ;     C3 - C5     - C7    
     3      5     18      1    1.0968e+02    3.6208e+02 ;     C3 - C5     - H9    
     3      5     19      1    1.0968e+02    3.6208e+02 ;     C3 - C5     - H10   
     4      2     12      1    1.1505e+02    3.5941e+02 ;     C4 - C2     - H3    
     4      6      8      1    1.1263e+02    5.0099e+02 ;     C4 - C6     - C8    
     4      6     20      1    1.0968e+02    3.6208e+02 ;     C4 - C6     - H11   
     4      6     21      1    1.0968e+02    3.6208e+02 ;     C4 - C6     - H12   
     5      3     13      1    1.0968e+02    3.6208e+02 ;     C5 - C3     - H4    
     5      3     14      1    1.0968e+02    3.6208e+02 ;     C5 - C3     - H5    
     5      3     15      1    1.0968e+02    3.6208e+02 ;     C5 - C3     - H6    
     5      7      9      1    1.1263e+02    5.0099e+02 ;     C5 - C7     - C9    
     5      7     22      1    1.0968e+02    3.6208e+02 ;     C5 - C7     - H13   
     5      7     23      1    1.0968e+02    3.6208e+02 ;     C5 - C7     - H14   
     6      4     16      1    1.0968e+02    3.6208e+02 ;     C6 - C4     - H7    
     6      4     17      1    1.0968e+02    3.6208e+02 ;     C6 - C4     - H8    
     6      8      9      1    1.1263e+02    5.0099e+02 ;     C6 - C8     - C9    
     6      8     24      1    1.0968e+02    3.6208e+02 ;     C6 - C8     - H15   
     6      8     25      1    1.0968e+02    3.6208e+02 ;     C6 - C8     - H16   
     7      5     18      1    1.0968e+02    3.6208e+02 ;     C7 - C5     - H9    
     7      5     19      1    1.0968e+02    3.6208e+02 ;     C7 - C5     - H10   
     7      9      8      1    1.1263e+02    5.0099e+02 ;     C7 - C9     - C8    
     7      9     26      1    1.0968e+02    3.6208e+02 ;     C7 - C9     - H17   
     7      9     27      1    1.0968e+02    3.6208e+02 ;     C7 - C9     - H18   
     8      6     20      1    1.0968e+02    3.6208e+02 ;     C8 - C6     - H11   
     8      6     21      1    1.0968e+02    3.6208e+02 ;     C8 - C6     - H12   
     8      9     26      1    1.0968e+02    3.6208e+02 ;     C8 - C9     - H17   
     8      9     27      1    1.0968e+02    3.6208e+02 ;     C8 - C9     - H18   
     9      7     22      1    1.0968e+02    3.6208e+02 ;     C9 - C7     - H13   
     9      7     23      1    1.0968e+02    3.6208e+02 ;     C9 - C7     - H14   
     9      8     24      1    1.0968e+02    3.6208e+02 ;     C9 - C8     - H15   
     9      8     25      1    1.0968e+02    3.6208e+02 ;     C9 - C8     - H16   
    10      1     11      1    1.1666e+02    2.9003e+02 ;     H1 - C1     - H2    
    13      3     14      1    1.0773e+02    2.9957e+02 ;     H4 - C3     - H5    
    13      3     15      1    1.0773e+02    2.9957e+02 ;     H4 - C3     - H6    
    14      3     15      1    1.0773e+02    2.9957e+02 ;     H5 - C3     - H6    
    16      4     17      1    1.0773e+02    2.9957e+02 ;     H7 - C4     - H8    
    18      5     19      1    1.0773e+02    2.9957e+02 ;     H9 - C5     - H10   
    20      6     21      1    1.0773e+02    2.9957e+02 ;    H11 - C6     - H12   
    22      7     23      1    1.0773e+02    2.9957e+02 ;    H13 - C7     - H14   
    24      8     25      1    1.0773e+02    2.9957e+02 ;    H15 - C8     - H16   
    26      9     27      1    1.0773e+02    2.9957e+02 ;    H17 - C9     - H18   

[ dihedrals ] ; propers
; for gromacs 4.5 or higher, using funct 9
;    i      j      k      l   func   phase     kd      pn
     1      2      4      6      9     0.00   0.00000   0 ;     C1-    C2-    C4-    C6
     1      2      4     16      9   180.00   1.08784   3 ;     C1-    C2-    C4-    H7
     1      2      4     17      9   180.00   1.08784   3 ;     C1-    C2-    C4-    H8
     2      4      6      8      9     0.00   0.65084   3 ;     C2-    C4-    C6-    C8
     2      4      6     20      9     0.00   0.65084   3 ;     C2-    C4-    C6-   H11
     2      4      6     21      9     0.00   0.65084   3 ;     C2-    C4-    C6-   H12
     3      5      7      9      9     0.00   2.17568   3 ;     C3-    C5-    C7-    C9
     3      5      7     22      9     0.00   0.54392   3 ;     C3-    C5-    C7-   H13
     3      5      7     23      9     0.00   0.54392   3 ;     C3-    C5-    C7-   H14
     4      6      8      9      9     0.00   2.17568   3 ;     C4-    C6-    C8-    C9
     4      6      8     24      9     0.00   0.54392   3 ;     C4-    C6-    C8-   H15
     4      6      8     25      9     0.00   0.54392   3 ;     C4-    C6-    C8-   H16
     5      7      9      8      9     0.00   2.17568   3 ;     C5-    C7-    C9-    C8
     5      7      9     26      9     0.00   0.54392   3 ;     C5-    C7-    C9-   H17
     5      7      9     27      9     0.00   0.54392   3 ;     C5-    C7-    C9-   H18
     6      4      2     12      9     0.00   0.00000   0 ;     C6-    C4-    C2-    H3
     6      8      9      7      9     0.00   2.17568   3 ;     C6-    C8-    C9-    C7
     6      8      9     26      9     0.00   0.54392   3 ;     C6-    C8-    C9-   H17
     6      8      9     27      9     0.00   0.54392   3 ;     C6-    C8-    C9-   H18
     7      5      3     13      9     0.00   0.54392   3 ;     C7-    C5-    C3-    H4
     7      5      3     14      9     0.00   0.54392   3 ;     C7-    C5-    C3-    H5
     7      5      3     15      9     0.00   0.54392   3 ;     C7-    C5-    C3-    H6
     7      9      8     24      9     0.00   0.54392   3 ;     C7-    C9-    C8-   H15
     7      9      8     25      9     0.00   0.54392   3 ;     C7-    C9-    C8-   H16
     8      6      4     16      9     0.00   0.54392   3 ;     C8-    C6-    C4-    H7
     8      6      4     17      9     0.00   0.54392   3 ;     C8-    C6-    C4-    H8
     8      9      7     22      9     0.00   0.54392   3 ;     C8-    C9-    C7-   H13
     8      9      7     23      9     0.00   0.54392   3 ;     C8-    C9-    C7-   H14
     9      7      5     18      9     0.00   0.54392   3 ;     C9-    C7-    C5-    H9
     9      7      5     19      9     0.00   0.54392   3 ;     C9-    C7-    C5-   H10
     9      8      6     20      9     0.00   0.54392   3 ;     C9-    C8-    C6-   H11
     9      8      6     21      9     0.00   0.54392   3 ;     C9-    C8-    C6-   H12
    10      1      2      4      9   180.00  27.82360   2 ;     H1-    C1-    C2-    C4
    10      1      2     12      9   180.00  27.82360   2 ;     H1-    C1-    C2-    H3
    11      1      2      4      9   180.00  27.82360   2 ;     H2-    C1-    C2-    C4
    11      1      2     12      9   180.00  27.82360   2 ;     H2-    C1-    C2-    H3
    12      2      4     16      9     0.00   0.00000   0 ;     H3-    C2-    C4-    H7
    12      2      4     17      9     0.00   0.00000   0 ;     H3-    C2-    C4-    H8
    13      3      5     18      9     0.00   0.50208   3 ;     H4-    C3-    C5-    H9
    13      3      5     19      9     0.00   0.50208   3 ;     H4-    C3-    C5-   H10
    14      3      5     18      9     0.00   0.50208   3 ;     H5-    C3-    C5-    H9
    14      3      5     19      9     0.00   0.50208   3 ;     H5-    C3-    C5-   H10
    15      3      5     18      9     0.00   0.50208   3 ;     H6-    C3-    C5-    H9
    15      3      5     19      9     0.00   0.50208   3 ;     H6-    C3-    C5-   H10
    16      4      6     20      9     0.00   0.50208   3 ;     H7-    C4-    C6-   H11
    16      4      6     21      9     0.00   0.50208   3 ;     H7-    C4-    C6-   H12
    17      4      6     20      9     0.00   0.50208   3 ;     H8-    C4-    C6-   H11
    17      4      6     21      9     0.00   0.50208   3 ;     H8-    C4-    C6-   H12
    18      5      7     22      9     0.00   0.50208   3 ;     H9-    C5-    C7-   H13
    18      5      7     23      9     0.00   0.50208   3 ;     H9-    C5-    C7-   H14
    19      5      7     22      9     0.00   0.50208   3 ;    H10-    C5-    C7-   H13
    19      5      7     23      9     0.00   0.50208   3 ;    H10-    C5-    C7-   H14
    20      6      8     24      9     0.00   0.50208   3 ;    H11-    C6-    C8-   H15
    20      6      8     25      9     0.00   0.50208   3 ;    H11-    C6-    C8-   H16
    21      6      8     24      9     0.00   0.50208   3 ;    H12-    C6-    C8-   H15
    21      6      8     25      9     0.00   0.50208   3 ;    H12-    C6-    C8-   H16
    22      7      9     26      9     0.00   0.50208   3 ;    H13-    C7-    C9-   H17
    22      7      9     27      9     0.00   0.50208   3 ;    H13-    C7-    C9-   H18
    23      7      9     26      9     0.00   0.50208   3 ;    H14-    C7-    C9-   H17
    23      7      9     27      9     0.00   0.50208   3 ;    H14-    C7-    C9-   H18
    24      8      9     26      9     0.00   0.50208   3 ;    H15-    C8-    C9-   H17
    24      8      9     27      9     0.00   0.50208   3 ;    H15-    C8-    C9-   H18
    25      8      9     26      9     0.00   0.50208   3 ;    H16-    C8-    C9-   H17
    25      8      9     27      9     0.00   0.50208   3 ;    H16-    C8-    C9-   H18

[ dihedrals ] ; impropers
; treated as propers in GROMACS to use correct AMBER analytical function
;    i      j      k      l   func   phase     kd      pn
     1      4      2     12      4   180.00   4.60240   2 ;     C1-    C4-    C2-    H3
    11      1     10      2      4   180.00   4.60240   2 ;     H2-    C1-    H1-    C2
