mobley_4924862_GMX.gro created by acpype (v: 2023.10.27) on Thu May 14 13:48:15 2026
 1997
    1MOL     C1    1   1.336   1.360   1.019
    1MOL     C2    2   1.249   1.405   1.532
    1MOL     C3    3   1.447   1.252   1.528
    1MOL     C4    4   1.430   1.445   1.362
    1MOL     C5    5   1.357   1.367   1.253
    1MOL     C6    6   1.399   1.395   1.504
    1MOL     O1    7   1.257   1.268   1.019
    1MOL     O2    8   1.394   1.420   1.127
    1MOL     H1    9   1.373   1.410   0.927
    1MOL     H2   10   1.226   1.374   1.634
    1MOL     H3   11   1.192   1.341   1.463
    1MOL     H4   12   1.214   1.508   1.520
    1MOL     H5   13   1.403   1.183   1.455
    1MOL     H6   14   1.418   1.217   1.628
    1MOL     H7   15   1.556   1.244   1.521
    1MOL     H8   16   1.538   1.437   1.343
    1MOL     H9   17   1.406   1.551   1.353
    1MOL    H10   18   1.384   1.261   1.256
    1MOL    H11   19   1.248   1.377   1.263
    1MOL    H12   20   1.451   1.461   1.576
    2SOL     OW   21   0.230   0.628   0.113
    2SOL    HW1   22   0.137   0.626   0.150
    2SOL    HW2   23   0.231   0.589   0.021
    3SOL     OW   24   0.225   0.275   0.996
    3SOL    HW1   25   0.260   0.258   1.088
    3SOL    HW2   26   0.137   0.230   0.984
    4SOL     OW   27   0.019   0.368   0.647
    4SOL    HW1   28  -0.063   0.411   0.686
    4SOL    HW2   29  -0.009   0.295   0.584
    5SOL     OW   30   0.569   1.275   1.165
    5SOL    HW1   31   0.476   1.268   1.128
    5SOL    HW2   32   0.580   1.364   1.209
    6SOL     OW   33   1.555   1.511   0.703
    6SOL    HW1   34   1.498   1.495   0.784
    6SOL    HW2   35   1.496   1.521   0.623
    7SOL     OW   36   1.135   0.703   0.717
    7SOL    HW1   37   1.192   0.781   0.692
    7SOL    HW2   38   1.075   0.729   0.793
    8SOL     OW   39   1.755   0.607   0.231
    8SOL    HW1   40   1.743   0.594   0.132
    8SOL    HW2   41   1.725   0.526   0.280
    9SOL     OW   42   0.768   1.144   1.023
    9SOL    HW1   43   0.690   1.161   1.083
    9SOL    HW2   44   0.802   1.231   0.987
   10SOL     OW   45   0.850   0.798   1.823
   10SOL    HW1   46   0.846   0.874   1.888
   10SOL    HW2   47   0.872   0.834   1.732
   11SOL     OW   48   0.685   1.012   0.665
   11SOL    HW1   49   0.754   0.996   0.735
   11SOL    HW2   50   0.612   1.069   0.703
   12SOL     OW   51   0.686   1.161   1.803
   12SOL    HW1   52   0.746   1.240   1.817
   12SOL    HW2   53   0.600   1.192   1.762
   13SOL     OW   54   0.335   1.435   1.061
   13SOL    HW1   55   0.257   1.404   1.008
   13SOL    HW2   56   0.393   1.493   1.004
   14SOL     OW   57   0.438   0.392   1.499
   14SOL    HW1   58   0.520   0.336   1.508
   14SOL    HW2   59   0.357   0.334   1.503
   15SOL     OW   60   1.603   0.447   0.737
   15SOL    HW1   61   1.529   0.493   0.687
   15SOL    HW2   62   1.654   0.515   0.790
   16SOL     OW   63   0.231   1.713   0.483
   16SOL    HW1   64   0.265   1.790   0.537
   16SOL    HW2   65   0.275   1.713   0.393
   17SOL     OW   66   0.230   1.434   0.538
   17SOL    HW1   67   0.204   1.530   0.538
   17SOL    HW2   68   0.159   1.380   0.583
   18SOL     OW   69   0.240   1.091   0.886
   18SOL    HW1   70   0.254   1.007   0.938
   18SOL    HW2   71   0.185   1.155   0.941
   19SOL     OW   72   0.620   1.786   1.439
   19SOL    HW1   73   0.528   1.769   1.474
   19SOL    HW2   74   0.648   1.878   1.465
   20SOL     OW   75   0.606   0.964   0.123
   20SOL    HW1   76   0.613   1.048   0.069
   20SOL    HW2   77   0.652   0.977   0.211
   21SOL     OW   78   1.594   0.114   1.480
   21SOL    HW1   79   1.576   0.181   1.408
   21SOL    HW2   80   1.591   0.160   1.569
   22SOL     OW   81   0.122   0.643   0.563
   22SOL    HW1   82   0.077   0.555   0.580
   22SOL    HW2   83   0.121   0.697   0.647
   23SOL     OW   84   1.842   1.767   0.359
   23SOL    HW1   85   1.896   1.738   0.439
   23SOL    HW2   86   1.872   1.857   0.330
   24SOL     OW   87   0.027   1.596   0.117
   24SOL    HW1   88   0.008   1.500   0.138
   24SOL    HW2   89  -0.006   1.654   0.192
   25SOL     OW   90   1.689   0.922   0.612
   25SOL    HW1   91   1.784   0.893   0.620
   25SOL    HW2   92   1.681   0.987   0.537
   26SOL     OW   93   1.641   1.108   0.432
   26SOL    HW1   94   1.727   1.110   0.380
   26SOL    HW2   95   1.655   1.155   0.520
   27SOL     OW   96   0.113   0.737   1.597
   27SOL    HW1   97   0.201   0.724   1.642
   27SOL    HW2   98   0.100   0.834   1.575
   28SOL     OW   99   0.613   1.365   0.726
   28SOL    HW1  100   0.564   1.278   0.735
   28SOL    HW2  101   0.590   1.408   0.639
   29SOL     OW  102   0.809   0.004   0.502
   29SOL    HW1  103   0.849   0.095   0.493
   29SOL    HW2  104   0.709   0.012   0.508
   30SOL     OW  105   0.197   0.976   1.264
   30SOL    HW1  106   0.286   0.931   1.250
   30SOL    HW2  107   0.124   0.911   1.245
   31SOL     OW  108   1.525   0.999   0.190
   31SOL    HW1  109   1.462   0.923   0.203
   31SOL    HW2  110   1.573   1.017   0.276
   32SOL     OW  111   1.187   1.792   1.616
   32SOL    HW1  112   1.211   1.852   1.540
   32SOL    HW2  113   1.194   1.697   1.586
   33SOL     OW  114   0.317   0.251   1.801
   33SOL    HW1  115   0.388   0.322   1.807
   33SOL    HW2  116   0.229   0.290   1.829
   34SOL     OW  117   1.667   1.714   0.572
   34SOL    HW1  118   1.626   1.691   0.484
   34SOL    HW2  119   1.649   1.640   0.637
   35SOL     OW  120   0.598   0.729   0.270
   35SOL    HW1  121   0.622   0.798   0.202
   35SOL    HW2  122   0.520   0.762   0.324
   36SOL     OW  123   1.281   0.345   0.944
   36SOL    HW1  124   1.195   0.295   0.931
   36SOL    HW2  125   1.343   0.291   1.000
   37SOL     OW  126   1.576   1.662   0.307
   37SOL    HW1  127   1.665   1.708   0.310
   37SOL    HW2  128   1.555   1.638   0.212
   38SOL     OW  129   0.807   0.605   1.465
   38SOL    HW1  130   0.760   0.602   1.554
   38SOL    HW2  131   0.756   0.550   1.399
   39SOL     OW  132   1.394   0.469   1.674
   39SOL    HW1  133   1.374   0.512   1.762
   39SOL    HW2  134   1.472   0.407   1.683
   40SOL     OW  135   0.973   0.890   1.572
   40SOL    HW1  136   1.019   0.806   1.543
   40SOL    HW2  137   0.917   0.924   1.497
   41SOL     OW  138   0.991   0.410   1.242
   41SOL    HW1  139   0.914   0.444   1.296
   41SOL    HW2  140   0.957   0.359   1.163
   42SOL     OW  141   1.041   0.701   0.429
   42SOL    HW1  142   1.067   0.697   0.525
   42SOL    HW2  143   0.956   0.650   0.415
   43SOL     OW  144   0.076   0.811   0.789
   43SOL    HW1  145   0.175   0.799   0.798
   43SOL    HW2  146   0.052   0.906   0.810
   44SOL     OW  147   0.130   1.821   1.571
   44SOL    HW1  148   0.120   1.806   1.670
   44SOL    HW2  149   0.044   1.857   1.535
   45SOL     OW  150   0.865   0.348   0.195
   45SOL    HW1  151   0.924   0.411   0.146
   45SOL    HW2  152   0.884   0.254   0.166
   46SOL     OW  153   1.719   0.585   1.831
   46SOL    HW1  154   1.693   0.674   1.795
   46SOL    HW2  155   1.717   0.517   1.758
   47SOL     OW  156   1.362   1.144   0.545
   47SOL    HW1  157   1.445   1.115   0.497
   47SOL    HW2  158   1.313   1.211   0.489
   48SOL     OW  159   0.550   0.196   0.885
   48SOL    HW1  160   0.545   0.191   0.985
   48SOL    HW2  161   0.552   0.292   0.856
   49SOL     OW  162   1.008   1.456   0.477
   49SOL    HW1  163   0.962   1.528   0.425
   49SOL    HW2  164   1.004   1.476   0.575
   50SOL     OW  165   0.351   1.801   0.853
   50SOL    HW1  166   0.401   1.715   0.859
   50SOL    HW2  167   0.416   1.878   0.850
   51SOL     OW  168   1.795   1.066   0.873
   51SOL    HW1  169   1.733   1.051   0.797
   51SOL    HW2  170   1.743   1.077   0.958
   52SOL     OW  171   0.321   0.943   0.242
   52SOL    HW1  172   0.403   0.982   0.200
   52SOL    HW2  173   0.294   0.861   0.193
   53SOL     OW  174   1.458   0.735   0.728
   53SOL    HW1  175   1.453   0.670   0.803
   53SOL    HW2  176   1.538   0.794   0.741
   54SOL     OW  177   0.461   1.266   1.727
   54SOL    HW1  178   0.411   1.267   1.641
   54SOL    HW2  179   0.398   1.248   1.803
   55SOL     OW  180   1.111   1.776   0.237
   55SOL    HW1  181   1.051   1.714   0.287
   55SOL    HW2  182   1.142   1.732   0.152
   56SOL     OW  183   0.202   0.285   1.498
   56SOL    HW1  184   0.122   0.345   1.485
   56SOL    HW2  185   0.192   0.236   1.584
   57SOL     OW  186   1.632   1.377   0.081
   57SOL    HW1  187   1.600   1.471   0.071
   57SOL    HW2  188   1.556   1.314   0.069
   58SOL     OW  189   0.464   1.743   0.323
   58SOL    HW1  190   0.497   1.782   0.409
   58SOL    HW2  191   0.540   1.736   0.258
   59SOL     OW  192   1.400   0.107   0.426
   59SOL    HW1  193   1.376   0.070   0.336
   59SOL    HW2  194   1.499   0.123   0.430
   60SOL     OW  195   0.249   1.785   1.241
   60SOL    HW1  196   0.306   1.720   1.291
   60SOL    HW2  197   0.233   1.752   1.148
   61SOL     OW  198   0.940   1.698   0.904
   61SOL    HW1  199   1.020   1.641   0.925
   61SOL    HW2  200   0.891   1.658   0.827
   62SOL     OW  201   0.382   0.700   0.480
   62SOL    HW1  202   0.427   0.610   0.477
   62SOL    HW2  203   0.288   0.689   0.513
   63SOL     OW  204   1.547   0.222   1.729
   63SOL    HW1  205   1.542   0.259   1.821
   63SOL    HW2  206   1.475   0.153   1.717
   64SOL     OW  207   0.614   0.122   0.117
   64SOL    HW1  208   0.712   0.100   0.124
   64SOL    HW2  209   0.583   0.105   0.024
   65SOL     OW  210   0.781   0.264   1.749
   65SOL    HW1  211   0.848   0.203   1.792
   65SOL    HW2  212   0.708   0.283   1.814
   66SOL     OW  213   0.888   1.514   1.195
   66SOL    HW1  214   0.865   1.489   1.101
   66SOL    HW2  215   0.949   1.445   1.234
   67SOL     OW  216   1.351   0.590   1.433
   67SOL    HW1  217   1.379   0.547   1.518
   67SOL    HW2  218   1.376   0.686   1.434
   68SOL     OW  219   0.803   1.402   0.924
   68SOL    HW1  220   0.893   1.416   0.882
   68SOL    HW2  221   0.732   1.404   0.853
   69SOL     OW  222   0.922   0.503   0.899
   69SOL    HW1  223   0.897   0.494   0.803
   69SOL    HW2  224   0.970   0.421   0.930
   70SOL     OW  225   0.539   0.064   0.512
   70SOL    HW1  226   0.458   0.065   0.570
   70SOL    HW2  227   0.542   0.147   0.457
   71SOL     OW  228   1.434   1.188   0.041
   71SOL    HW1  229   1.466   1.112   0.098
   71SOL    HW2  230   1.342   1.215   0.071
   72SOL     OW  231   0.297   0.035   0.171
   72SOL    HW1  232   0.346   0.119   0.150
   72SOL    HW2  233   0.359  -0.030   0.216
   73SOL     OW  234   0.935   0.236   0.480
   73SOL    HW1  235   0.887   0.277   0.402
   73SOL    HW2  236   1.034   0.234   0.461
   74SOL     OW  237   1.076   0.683   1.464
   74SOL    HW1  238   0.996   0.622   1.467
   74SOL    HW2  239   1.157   0.630   1.440
   75SOL     OW  240   1.227   1.570   0.793
   75SOL    HW1  241   1.248   1.644   0.728
   75SOL    HW2  242   1.295   1.570   0.866
   76SOL     OW  243   0.459   1.152   0.741
   76SOL    HW1  244   0.388   1.125   0.806
   76SOL    HW2  245   0.433   1.124   0.648
   77SOL     OW  246   1.271   1.797   0.591
   77SOL    HW1  247   1.315   1.861   0.527
   77SOL    HW2  248   1.221   1.849   0.661
   78SOL     OW  249   1.032   0.549   0.016
   78SOL    HW1  250   0.991   0.631  -0.023
   78SOL    HW2  251   1.096   0.575   0.089
   79SOL     OW  252   0.078   0.556   1.386
   79SOL    HW1  253   0.170   0.555   1.345
   79SOL    HW2  254   0.072   0.630   1.453
   80SOL     OW  255   0.561   0.222   1.147
   80SOL    HW1  256   0.599   0.138   1.184
   80SOL    HW2  257   0.473   0.241   1.191
   81SOL     OW  258   0.866   0.454   0.642
   81SOL    HW1  259   0.834   0.526   0.580
   81SOL    HW2  260   0.890   0.373   0.589
   82SOL     OW  261   1.017   0.039   0.753
   82SOL    HW1  262   0.945   0.044   0.684
   82SOL    HW2  263   0.993  -0.030   0.822
   83SOL     OW  264   1.429   1.173   0.867
   83SOL    HW1  265   1.374   1.089   0.860
   83SOL    HW2  266   1.455   1.202   0.775
   84SOL     OW  267   1.466   0.590   0.992
   84SOL    HW1  268   1.436   0.495   0.999
   84SOL    HW2  269   1.539   0.606   1.058
   85SOL     OW  270   1.857   0.833   0.377
   85SOL    HW1  271   1.899   0.769   0.441
   85SOL    HW2  272   1.819   0.782   0.299
   86SOL     OW  273   0.488   1.385   0.174
   86SOL    HW1  274   0.401   1.370   0.221
   86SOL    HW2  275   0.471   1.411   0.079
   87SOL     OW  276   1.664   1.280   0.657
   87SOL    HW1  277   1.763   1.288   0.671
   87SOL    HW2  278   1.619   1.364   0.688
   88SOL     OW  279   1.390   0.575   0.078
   88SOL    HW1  280   1.336   0.554   0.159
   88SOL    HW2  281   1.481   0.534   0.087
   89SOL     OW  282   0.527   0.256   0.328
   89SOL    HW1  283   0.554   0.197   0.253
   89SOL    HW2  284   0.527   0.351   0.297
   90SOL     OW  285   1.754   1.223   1.588
   90SOL    HW1  286   1.845   1.184   1.575
   90SOL    HW2  287   1.762   1.319   1.612
   91SOL     OW  288   1.592   1.629   1.625
   91SOL    HW1  289   1.619   1.663   1.535
   91SOL    HW2  290   1.671   1.591   1.671
   92SOL     OW  291   1.111   1.195   1.100
   92SOL    HW1  292   1.071   1.239   1.181
   92SOL    HW2  293   1.070   1.232   1.017
   93SOL     OW  294   1.638   1.099   1.079
   93SOL    HW1  295   1.643   1.180   1.138
   93SOL    HW2  296   1.552   1.101   1.028
   94SOL     OW  297   0.915   0.089   1.402
   94SOL    HW1  298   0.940   0.069   1.307
   94SOL    HW2  299   0.987   0.145   1.444
   95SOL     OW  300   0.980   1.116   1.719
   95SOL    HW1  301   0.881   1.122   1.729
   95SOL    HW2  302   1.003   1.036   1.663
   96SOL     OW  303   0.705   1.050   0.368
   96SOL    HW1  304   0.691   1.057   0.467
   96SOL    HW2  305   0.789   0.999   0.350
   97SOL     OW  306   0.410   0.813   1.251
   97SOL    HW1  307   0.496   0.825   1.301
   97SOL    HW2  308   0.368   0.726   1.278
   98SOL     OW  309   1.274   0.386   1.262
   98SOL    HW1  310   1.295   0.460   1.326
   98SOL    HW2  311   1.185   0.403   1.219
   99SOL     OW  312   0.064   1.564   1.331
   99SOL    HW1  313   0.018   1.646   1.297
   99SOL    HW2  314   0.162   1.583   1.340
  100SOL     OW  315   0.367   1.100   0.501
  100SOL    HW1  316   0.360   1.183   0.445
  100SOL    HW2  317   0.371   1.020   0.441
  101SOL     OW  318   0.566   0.537   0.865
  101SOL    HW1  319   0.578   0.603   0.791
  101SOL    HW2  320   0.612   0.571   0.948
  102SOL     OW  321   1.252   1.348   0.388
  102SOL    HW1  322   1.302   1.425   0.428
  102SOL    HW2  323   1.157   1.350   0.420
  103SOL     OW  324   1.582   0.639   0.472
  103SOL    HW1  325   1.551   0.700   0.545
  103SOL    HW2  326   1.632   0.691   0.403
  104SOL     OW  327   0.354   1.510   1.329
  104SOL    HW1  328   0.333   1.466   1.242
  104SOL    HW2  329   0.451   1.536   1.332
  105SOL     OW  330   0.402   0.751   1.598
  105SOL    HW1  331   0.470   0.806   1.551
  105SOL    HW2  332   0.442   0.663   1.625
  106SOL     OW  333   1.587   0.779   1.670
  106SOL    HW1  334   1.495   0.817   1.665
  106SOL    HW2  335   1.647   0.826   1.605
  107SOL     OW  336   1.013   0.105   1.770
  107SOL    HW1  337   1.019   0.190   1.718
  107SOL    HW2  338   1.045   0.029   1.713
  108SOL     OW  339   0.504   0.050   1.740
  108SOL    HW1  340   0.462  -0.007   1.670
  108SOL    HW2  341   0.438   0.119   1.772
  109SOL     OW  342   0.573   0.870   1.029
  109SOL    HW1  343   0.617   0.959   1.020
  109SOL    HW2  344   0.510   0.870   1.106
  110SOL     OW  345   1.360   0.862   1.045
  110SOL    HW1  346   1.285   0.862   0.979
  110SOL    HW2  347   1.397   0.770   1.054
  111SOL     OW  348   1.209   0.525   0.275
  111SOL    HW1  349   1.222   0.441   0.329
  111SOL    HW2  350   1.180   0.599   0.335
  112SOL     OW  351   0.307   0.213   1.231
  112SOL    HW1  352   0.284   0.250   1.321
  112SOL    HW2  353   0.277   0.118   1.225
  113SOL     OW  354   0.037   1.310   1.282
  113SOL    HW1  355   0.090   1.261   1.350
  113SOL    HW2  356   0.059   1.408   1.287
  114SOL     OW  357   0.732   0.634   1.064
  114SOL    HW1  358   0.791   0.608   0.988
  114SOL    HW2  359   0.704   0.730   1.053
  115SOL     OW  360   1.728   0.935   1.854
  115SOL    HW1  361   1.682   0.928   1.765
  115SOL    HW2  362   1.666   0.979   1.920
  116SOL     OW  363   0.307   0.063   0.618
  116SOL    HW1  364   0.296   0.157   0.651
  116SOL    HW2  365   0.302   0.000   0.695
  117SOL     OW  366   1.622   0.367   0.374
  117SOL    HW1  367   1.624   0.291   0.438
  117SOL    HW2  368   1.574   0.444   0.414
  118SOL     OW  369   1.023   0.766   0.966
  118SOL    HW1  370   1.038   0.787   1.062
  118SOL    HW2  371   0.993   0.671   0.957
  119SOL     OW  372   0.980   1.573   1.700
  119SOL    HW1  373   0.960   1.617   1.612
  119SOL    HW2  374   1.019   1.482   1.684
  120SOL     OW  375   1.859   1.518   1.605
  120SOL    HW1  376   1.873   1.545   1.510
  120SOL    HW2  377   1.942   1.540   1.658
  121SOL     OW  378   0.350   0.898   1.804
  121SOL    HW1  379   0.426   0.942   1.852
  121SOL    HW2  380   0.385   0.851   1.722
  122SOL     OW  381   1.540   0.274   0.125
  122SOL    HW1  382   1.479   0.199   0.148
  122SOL    HW2  383   1.562   0.326   0.208
  123SOL     OW  384   1.303   0.838   0.042
  123SOL    HW1  385   1.337   0.745   0.057
  123SOL    HW2  386   1.321   0.865  -0.053
  124SOL     OW  387   1.068   1.333   0.849
  124SOL    HW1  388   1.075   1.249   0.794
  124SOL    HW2  389   1.130   1.402   0.813
  125SOL     OW  390   0.319   0.810   0.949
  125SOL    HW1  391   0.412   0.846   0.954
  125SOL    HW2  392   0.313   0.725   1.001
  126SOL     OW  393   0.339   0.509   1.006
  126SOL    HW1  394   0.287   0.426   0.989
  126SOL    HW2  395   0.416   0.514   0.942
  127SOL     OW  396   1.138   0.380   1.678
  127SOL    HW1  397   1.093   0.443   1.742
  127SOL    HW2  398   1.231   0.411   1.661
  128SOL     OW  399   1.160   0.207   1.477
  128SOL    HW1  400   1.160   0.271   1.554
  128SOL    HW2  401   1.188   0.255   1.394
  129SOL     OW  402   0.008   1.326   0.200
  129SOL    HW1  403  -0.085   1.347   0.169
  129SOL    HW2  404   0.018   1.227   0.213
  130SOL     OW  405   0.088   1.801   0.927
  130SOL    HW1  406   0.046   1.715   0.900
  130SOL    HW2  407   0.182   1.804   0.893
  131SOL     OW  408   0.504   1.568   0.910
  131SOL    HW1  409   0.570   1.642   0.919
  131SOL    HW2  410   0.548   1.489   0.868
  132SOL     OW  411   1.002   0.796   1.238
  132SOL    HW1  412   1.043   0.764   1.324
  132SOL    HW2  413   0.906   0.769   1.235
  133SOL     OW  414   0.040   0.544   1.114
  133SOL    HW1  415   0.125   0.511   1.073
  133SOL    HW2  416   0.053   0.559   1.212
  134SOL     OW  417   0.189   0.520   1.722
  134SOL    HW1  418   0.248   0.480   1.652
  134SOL    HW2  419   0.131   0.591   1.681
  135SOL     OW  420   1.369   0.950   1.660
  135SOL    HW1  421   1.408   1.039   1.680
  135SOL    HW2  422   1.379   0.930   1.563
  136SOL     OW  423   0.815   0.572   0.325
  136SOL    HW1  424   0.822   0.483   0.279
  136SOL    HW2  425   0.721   0.606   0.317
  137SOL     OW  426   1.657   0.604   1.206
  137SOL    HW1  427   1.619   0.535   1.268
  137SOL    HW2  428   1.739   0.568   1.162
  138SOL     OW  429   0.252   1.564   1.744
  138SOL    HW1  430   0.222   1.621   1.820
  138SOL    HW2  431   0.245   1.467   1.770
  139SOL     OW  432   0.671   0.464   1.269
  139SOL    HW1  433   0.637   0.375   1.239
  139SOL    HW2  434   0.697   0.518   1.189
  140SOL     OW  435   0.930   1.678   1.465
  140SOL    HW1  436   0.906   1.660   1.370
  140SOL    HW2  437   0.960   1.772   1.475
  141SOL     OW  438   0.473   0.500   0.191
  141SOL    HW1  439   0.534   0.580   0.195
  141SOL    HW2  440   0.378   0.531   0.198
  142SOL     OW  441   0.159   1.137   1.466
  142SOL    HW1  442   0.181   1.076   1.542
  142SOL    HW2  443   0.169   1.088   1.380
  143SOL     OW  444   1.347   1.059   1.234
  143SOL    HW1  445   1.371   0.996   1.160
  143SOL    HW2  446   1.257   1.099   1.216
  144SOL     OW  447   1.302   0.855   0.309
  144SOL    HW1  448   1.216   0.824   0.351
  144SOL    HW2  449   1.298   0.841   0.210
  145SOL     OW  450   1.759   1.747   1.154
  145SOL    HW1  451   1.820   1.777   1.081
  145SOL    HW2  452   1.721   1.658   1.132
  146SOL     OW  453   1.252   1.731   1.128
  146SOL    HW1  454   1.336   1.736   1.074
  146SOL    HW2  455   1.229   1.635   1.146
  147SOL     OW  456   0.083   1.258   1.022
  147SOL    HW1  457   0.078   1.257   1.122
  147SOL    HW2  458   0.000   1.217   0.984
  148SOL     OW  459   0.688   1.662   1.716
  148SOL    HW1  460   0.632   1.743   1.725
  148SOL    HW2  461   0.740   1.666   1.630
  149SOL     OW  462   0.903   0.086   0.133
  149SOL    HW1  463   0.954   0.087   0.047
  149SOL    HW2  464   0.959   0.044   0.204
  150SOL     OW  465   1.726   0.135   0.523
  150SOL    HW1  466   1.799   0.118   0.456
  150SOL    HW2  467   1.695   0.048   0.561
  151SOL     OW  468   1.388   1.573   0.477
  151SOL    HW1  469   1.455   1.585   0.403
  151SOL    HW2  470   1.348   1.662   0.500
  152SOL     OW  471   0.130   1.794   1.851
  152SOL    HW1  472   0.089   1.720   1.904
  152SOL    HW2  473   0.194   1.845   1.909
  153SOL     OW  474   1.280   0.927   0.672
  153SOL    HW1  475   1.340   0.846   0.674
  153SOL    HW2  476   1.320   0.996   0.612
  154SOL     OW  477   0.830   1.273   1.422
  154SOL    HW1  478   0.825   1.306   1.517
  154SOL    HW2  479   0.744   1.292   1.376
  155SOL     OW  480   0.672   1.616   0.154
  155SOL    HW1  481   0.681   1.626   0.055
  155SOL    HW2  482   0.632   1.527   0.175
  156SOL     OW  483   1.650   1.720   1.394
  156SOL    HW1  484   1.703   1.730   1.310
  156SOL    HW2  485   1.623   1.810   1.428
  157SOL     OW  486   1.841   0.175   0.963
  157SOL    HW1  487   1.880   0.090   0.927
  157SOL    HW2  488   1.743   0.177   0.944
  158SOL     OW  489   0.263   0.326   0.720
  158SOL    HW1  490   0.184   0.377   0.686
  158SOL    HW2  491   0.254   0.311   0.818
  159SOL     OW  492   1.194   1.612   0.031
  159SOL    HW1  493   1.200   1.519   0.068
  159SOL    HW2  494   1.135   1.612  -0.049
  160SOL     OW  495   0.822   1.002   1.372
  160SOL    HW1  496   0.862   1.001   1.280
  160SOL    HW2  497   0.832   1.094   1.412
  161SOL     OW  498   0.916   0.910   0.291
  161SOL    HW1  499   0.979   0.948   0.223
  161SOL    HW2  500   0.956   0.827   0.330
  162SOL     OW  501   1.504   1.607   0.044
  162SOL    HW1  502   1.412   1.644   0.051
  162SOL    HW2  503   1.542   1.627  -0.046
  163SOL     OW  504   0.372   1.288   1.490
  163SOL    HW1  505   0.359   1.381   1.456
  163SOL    HW2  506   0.288   1.236   1.477
  164SOL     OW  507   1.039   1.098   0.696
  164SOL    HW1  508   0.969   1.051   0.750
  164SOL    HW2  509   1.098   1.030   0.653
  165SOL     OW  510   1.014   0.236   0.971
  165SOL    HW1  511   1.006   0.200   0.878
  165SOL    HW2  512   1.012   0.160   1.036
  166SOL     OW  513   0.590   1.487   0.491
  166SOL    HW1  514   0.632   1.429   0.421
  166SOL    HW2  515   0.546   1.566   0.447
  167SOL     OW  516   1.709   0.385   1.381
  167SOL    HW1  517   1.782   0.454   1.385
  167SOL    HW2  518   1.737   0.310   1.322
  168SOL     OW  519   0.255   1.348   0.290
  168SOL    HW1  520   0.159   1.349   0.263
  168SOL    HW2  521   0.267   1.401   0.374
  169SOL     OW  522   0.105   1.013   1.726
  169SOL    HW1  523   0.028   0.980   1.780
  169SOL    HW2  524   0.190   0.983   1.768
  170SOL     OW  525   0.672   0.203   1.489
  170SOL    HW1  526   0.762   0.187   1.449
  170SOL    HW2  527   0.680   0.208   1.588
  171SOL     OW  528   0.075   0.345   0.033
  171SOL    HW1  529  -0.017   0.317   0.004
  171SOL    HW2  530   0.106   0.422  -0.023
  172SOL     OW  531   1.440   0.856   1.398
  172SOL    HW1  532   1.383   0.908   1.335
  172SOL    HW2  533   1.536   0.868   1.374
  173SOL     OW  534   0.072   0.166   0.318
  173SOL    HW1  535   0.055   0.249   0.264
  173SOL    HW2  536   0.162   0.129   0.296
  174SOL     OW  537   1.183   1.335   0.119
  174SOL    HW1  538   1.084   1.324   0.121
  174SOL    HW2  539   1.217   1.350   0.212
  175SOL     OW  540   0.613   0.842   1.431
  175SOL    HW1  541   0.669   0.923   1.414
  175SOL    HW2  542   0.672   0.762   1.434
  176SOL     OW  543   1.493   1.767   0.959
  176SOL    HW1  544   1.526   1.831   0.890
  176SOL    HW2  545   1.559   1.761   1.034
  177SOL     OW  546   0.716   0.565   1.708
  177SOL    HW1  547   0.735   0.630   1.782
  177SOL    HW2  548   0.776   0.485   1.717
  178SOL     OW  549   0.390   1.741   1.560
  178SOL    HW1  550   0.299   1.782   1.558
  178SOL    HW2  551   0.383   1.647   1.592
  179SOL     OW  552   1.674   0.883   1.254
  179SOL    HW1  553   1.647   0.794   1.217
  179SOL    HW2  554   1.675   0.951   1.181
  180SOL     OW  555   1.225   0.325   0.449
  180SOL    HW1  556   1.290   0.251   0.438
  180SOL    HW2  557   1.245   0.375   0.533
  181SOL     OW  558   0.594   0.745   0.652
  181SOL    HW1  559   0.644   0.830   0.633
  181SOL    HW2  560   0.506   0.747   0.604
  182SOL     OW  561   1.777   0.342   1.642
  182SOL    HW1  562   1.760   0.373   1.548
  182SOL    HW2  563   1.693   0.305   1.680
  183SOL     OW  564   1.730   0.934   1.517
  183SOL    HW1  565   1.768   1.025   1.532
  183SOL    HW2  566   1.722   0.917   1.418
  184SOL     OW  567   0.859   1.374   0.016
  184SOL    HW1  568   0.813   1.389   0.104
  184SOL    HW2  569   0.903   1.459  -0.014
  185SOL     OW  570   0.661   1.790   0.953
  185SOL    HW1  571   0.615   1.878   0.940
  185SOL    HW2  572   0.760   1.802   0.946
  186SOL     OW  573   0.859   0.956   0.861
  186SOL    HW1  574   0.913   0.887   0.909
  186SOL    HW2  575   0.827   1.025   0.927
  187SOL     OW  576   1.083   0.984   0.087
  187SOL    HW1  577   1.060   1.037   0.005
  187SOL    HW2  578   1.164   0.928   0.068
  188SOL     OW  579   1.861   1.569   0.851
  188SOL    HW1  580   1.790   1.557   0.781
  188SOL    HW2  581   1.862   1.490   0.911
  189SOL     OW  582   0.221   1.314   1.844
  189SOL    HW1  583   0.156   1.241   1.823
  189SOL    HW2  584   0.225   1.328   1.942
  190SOL     OW  585   0.079   1.240   0.653
  190SOL    HW1  586   0.078   1.193   0.741
  190SOL    HW2  587   0.161   1.212   0.602
  191SOL     OW  588   0.672   1.391   1.624
  191SOL    HW1  589   0.594   1.341   1.662
  191SOL    HW2  590   0.669   1.486   1.655
  192SOL     OW  591   1.824   0.192   1.227
  192SOL    HW1  592   1.820   0.102   1.271
  192SOL    HW2  593   1.827   0.181   1.128
  193SOL     OW  594   0.428   0.424   0.520
  193SOL    HW1  595   0.458   0.352   0.458
  193SOL    HW2  596   0.389   0.384   0.603
  194SOL     OW  597   1.705   1.487   1.104
  194SOL    HW1  598   1.612   1.462   1.077
  194SOL    HW2  599   1.731   1.437   1.186
  195SOL     OW  600   0.317   0.547   1.280
  195SOL    HW1  601   0.355   0.488   1.352
  195SOL    HW2  602   0.357   0.521   1.192
  196SOL     OW  603   0.812   1.586   0.687
  196SOL    HW1  604   0.844   1.596   0.593
  196SOL    HW2  605   0.733   1.524   0.689
  197SOL     OW  606   1.424   0.214   1.112
  197SOL    HW1  607   1.476   0.149   1.167
  197SOL    HW2  608   1.375   0.277   1.173
  198SOL     OW  609   1.001   0.034   1.154
  198SOL    HW1  610   0.938  -0.038   1.123
  198SOL    HW2  611   1.094  -0.002   1.154
  199SOL     OW  612   0.770   1.330   0.301
  199SOL    HW1  613   0.724   1.243   0.318
  199SOL    HW2  614   0.861   1.327   0.342
  200SOL     OW  615   0.618   1.567   1.284
  200SOL    HW1  616   0.613   1.649   1.341
  200SOL    HW2  617   0.707   1.564   1.239
  201SOL     OW  618   1.352   0.052   0.168
  201SOL    HW1  619   1.387   0.011   0.084
  201SOL    HW2  620   1.262   0.014   0.188
  202SOL     OW  621   1.300   0.453   0.691
  202SOL    HW1  622   1.241   0.533   0.695
  202SOL    HW2  623   1.315   0.418   0.784
  203SOL     OW  624   1.593   0.221   0.882
  203SOL    HW1  625   1.509   0.220   0.936
  203SOL    HW2  626   1.595   0.304   0.826
  204SOL     OW  627   0.039   1.077   0.300
  204SOL    HW1  628   0.138   1.066   0.291
  204SOL    HW2  629  -0.001   0.991   0.332
  205SOL     OW  630   0.875   1.646   0.337
  205SOL    HW1  631   0.798   1.611   0.283
  205SOL    HW2  632   0.843   1.717   0.399
  206SOL     OW  633   0.230   0.628   1.975
  206SOL    HW1  634   0.137   0.626   2.012
  206SOL    HW2  635   0.231   0.589   1.883
  207SOL     OW  636   0.225   0.275   2.858
  207SOL    HW1  637   0.260   0.258   2.950
  207SOL    HW2  638   0.137   0.230   2.846
  208SOL     OW  639   0.019   0.368   2.509
  208SOL    HW1  640  -0.063   0.411   2.548
  208SOL    HW2  641  -0.009   0.295   2.446
  209SOL     OW  642   1.555   1.511   2.565
  209SOL    HW1  643   1.498   1.495   2.646
  209SOL    HW2  644   1.496   1.521   2.485
  210SOL     OW  645   1.135   0.703   2.579
  210SOL    HW1  646   1.192   0.781   2.554
  210SOL    HW2  647   1.075   0.729   2.655
  211SOL     OW  648   1.755   0.607   2.093
  211SOL    HW1  649   1.743   0.594   1.994
  211SOL    HW2  650   1.725   0.526   2.142
  212SOL     OW  651   0.685   1.012   2.527
  212SOL    HW1  652   0.754   0.996   2.597
  212SOL    HW2  653   0.612   1.069   2.565
  213SOL     OW  654   1.603   0.447   2.599
  213SOL    HW1  655   1.529   0.493   2.549
  213SOL    HW2  656   1.654   0.515   2.652
  214SOL     OW  657   0.231   1.713   2.345
  214SOL    HW1  658   0.265   1.790   2.399
  214SOL    HW2  659   0.275   1.713   2.255
  215SOL     OW  660   0.230   1.434   2.400
  215SOL    HW1  661   0.204   1.530   2.400
  215SOL    HW2  662   0.159   1.380   2.445
  216SOL     OW  663   0.240   1.091   2.748
  216SOL    HW1  664   0.254   1.007   2.800
  216SOL    HW2  665   0.185   1.155   2.803
  217SOL     OW  666   0.606   0.964   1.985
  217SOL    HW1  667   0.613   1.048   1.931
  217SOL    HW2  668   0.652   0.977   2.073
  218SOL     OW  669   0.122   0.643   2.425
  218SOL    HW1  670   0.077   0.555   2.442
  218SOL    HW2  671   0.121   0.697   2.509
  219SOL     OW  672   1.842   1.767   2.221
  219SOL    HW1  673   1.896   1.738   2.301
  219SOL    HW2  674   1.872   1.857   2.192
  220SOL     OW  675   0.027   1.596   1.979
  220SOL    HW1  676   0.008   1.500   2.000
  220SOL    HW2  677  -0.006   1.654   2.054
  221SOL     OW  678   1.689   0.922   2.474
  221SOL    HW1  679   1.784   0.893   2.482
  221SOL    HW2  680   1.681   0.987   2.399
  222SOL     OW  681   1.641   1.108   2.294
  222SOL    HW1  682   1.727   1.110   2.242
  222SOL    HW2  683   1.655   1.155   2.382
  223SOL     OW  684   0.613   1.365   2.588
  223SOL    HW1  685   0.564   1.278   2.597
  223SOL    HW2  686   0.590   1.408   2.501
  224SOL     OW  687   0.809   0.004   2.364
  224SOL    HW1  688   0.849   0.095   2.355
  224SOL    HW2  689   0.709   0.012   2.370
  225SOL     OW  690   1.525   0.999   2.052
  225SOL    HW1  691   1.462   0.923   2.065
  225SOL    HW2  692   1.573   1.017   2.138
  226SOL     OW  693   1.667   1.714   2.434
  226SOL    HW1  694   1.626   1.691   2.346
  226SOL    HW2  695   1.649   1.640   2.499
  227SOL     OW  696   0.598   0.729   2.132
  227SOL    HW1  697   0.622   0.798   2.064
  227SOL    HW2  698   0.520   0.762   2.186
  228SOL     OW  699   1.281   0.345   2.806
  228SOL    HW1  700   1.195   0.295   2.793
  228SOL    HW2  701   1.343   0.291   2.862
  229SOL     OW  702   1.576   1.662   2.169
  229SOL    HW1  703   1.665   1.708   2.172
  229SOL    HW2  704   1.555   1.638   2.074
  230SOL     OW  705   1.041   0.701   2.291
  230SOL    HW1  706   1.067   0.697   2.387
  230SOL    HW2  707   0.956   0.650   2.277
  231SOL     OW  708   0.076   0.811   2.651
  231SOL    HW1  709   0.175   0.799   2.660
  231SOL    HW2  710   0.052   0.906   2.672
  232SOL     OW  711   0.865   0.348   2.057
  232SOL    HW1  712   0.924   0.411   2.008
  232SOL    HW2  713   0.884   0.254   2.028
  233SOL     OW  714   1.362   1.144   2.407
  233SOL    HW1  715   1.445   1.115   2.359
  233SOL    HW2  716   1.313   1.211   2.351
  234SOL     OW  717   1.008   1.456   2.339
  234SOL    HW1  718   0.962   1.528   2.287
  234SOL    HW2  719   1.004   1.476   2.437
  235SOL     OW  720   0.351   1.801   2.715
  235SOL    HW1  721   0.401   1.715   2.721
  235SOL    HW2  722   0.416   1.878   2.712
  236SOL     OW  723   1.795   1.066   2.735
  236SOL    HW1  724   1.733   1.051   2.659
  236SOL    HW2  725   1.743   1.077   2.820
  237SOL     OW  726   0.321   0.943   2.104
  237SOL    HW1  727   0.403   0.982   2.062
  237SOL    HW2  728   0.294   0.861   2.055
  238SOL     OW  729   1.458   0.735   2.590
  238SOL    HW1  730   1.453   0.670   2.665
  238SOL    HW2  731   1.538   0.794   2.603
  239SOL     OW  732   1.111   1.776   2.099
  239SOL    HW1  733   1.051   1.714   2.149
  239SOL    HW2  734   1.142   1.732   2.014
  240SOL     OW  735   1.632   1.377   1.943
  240SOL    HW1  736   1.600   1.471   1.933
  240SOL    HW2  737   1.556   1.314   1.931
  241SOL     OW  738   0.464   1.743   2.185
  241SOL    HW1  739   0.497   1.782   2.271
  241SOL    HW2  740   0.540   1.736   2.120
  242SOL     OW  741   1.400   0.107   2.288
  242SOL    HW1  742   1.376   0.070   2.198
  242SOL    HW2  743   1.499   0.123   2.292
  243SOL     OW  744   0.940   1.698   2.766
  243SOL    HW1  745   1.020   1.641   2.787
  243SOL    HW2  746   0.891   1.658   2.689
  244SOL     OW  747   0.382   0.700   2.342
  244SOL    HW1  748   0.427   0.610   2.339
  244SOL    HW2  749   0.288   0.689   2.375
  245SOL     OW  750   0.614   0.122   1.979
  245SOL    HW1  751   0.712   0.100   1.986
  245SOL    HW2  752   0.583   0.105   1.886
  246SOL     OW  753   0.539   0.064   2.374
  246SOL    HW1  754   0.458   0.065   2.432
  246SOL    HW2  755   0.542   0.147   2.319
  247SOL     OW  756   1.434   1.188   1.903
  247SOL    HW1  757   1.466   1.112   1.960
  247SOL    HW2  758   1.342   1.215   1.933
  248SOL     OW  759   0.297   0.035   2.033
  248SOL    HW1  760   0.346   0.119   2.012
  248SOL    HW2  761   0.359  -0.030   2.078
  249SOL     OW  762   0.935   0.236   2.342
  249SOL    HW1  763   0.887   0.277   2.264
  249SOL    HW2  764   1.034   0.234   2.323
  250SOL     OW  765   0.459   1.152   2.603
  250SOL    HW1  766   0.388   1.125   2.668
  250SOL    HW2  767   0.433   1.124   2.510
  251SOL     OW  768   1.271   1.797   2.453
  251SOL    HW1  769   1.315   1.861   2.389
  251SOL    HW2  770   1.221   1.849   2.523
  252SOL     OW  771   1.032   0.549   1.878
  252SOL    HW1  772   0.991   0.631   1.839
  252SOL    HW2  773   1.096   0.575   1.951
  253SOL     OW  774   0.866   0.454   2.504
  253SOL    HW1  775   0.834   0.526   2.442
  253SOL    HW2  776   0.890   0.373   2.451
  254SOL     OW  777   1.017   0.039   2.615
  254SOL    HW1  778   0.945   0.044   2.546
  254SOL    HW2  779   0.993  -0.030   2.684
  255SOL     OW  780   1.857   0.833   2.239
  255SOL    HW1  781   1.899   0.769   2.303
  255SOL    HW2  782   1.819   0.782   2.161
  256SOL     OW  783   0.488   1.385   2.036
  256SOL    HW1  784   0.401   1.370   2.083
  256SOL    HW2  785   0.471   1.411   1.941
  257SOL     OW  786   1.664   1.280   2.519
  257SOL    HW1  787   1.763   1.288   2.533
  257SOL    HW2  788   1.619   1.364   2.550
  258SOL     OW  789   1.390   0.575   1.940
  258SOL    HW1  790   1.336   0.554   2.021
  258SOL    HW2  791   1.481   0.534   1.949
  259SOL     OW  792   0.527   0.256   2.190
  259SOL    HW1  793   0.554   0.197   2.115
  259SOL    HW2  794   0.527   0.351   2.159
  260SOL     OW  795   0.705   1.050   2.230
  260SOL    HW1  796   0.691   1.057   2.329
  260SOL    HW2  797   0.789   0.999   2.212
  261SOL     OW  798   0.367   1.100   2.363
  261SOL    HW1  799   0.360   1.183   2.307
  261SOL    HW2  800   0.371   1.020   2.303
  262SOL     OW  801   0.566   0.537   2.727
  262SOL    HW1  802   0.578   0.603   2.653
  262SOL    HW2  803   0.612   0.571   2.810
  263SOL     OW  804   1.252   1.348   2.250
  263SOL    HW1  805   1.302   1.425   2.290
  263SOL    HW2  806   1.157   1.350   2.282
  264SOL     OW  807   1.582   0.639   2.334
  264SOL    HW1  808   1.551   0.700   2.407
  264SOL    HW2  809   1.632   0.691   2.265
  265SOL     OW  810   1.209   0.525   2.137
  265SOL    HW1  811   1.222   0.441   2.191
  265SOL    HW2  812   1.180   0.599   2.197
  266SOL     OW  813   0.307   0.063   2.480
  266SOL    HW1  814   0.296   0.157   2.513
  266SOL    HW2  815   0.302   0.000   2.557
  267SOL     OW  816   1.622   0.367   2.236
  267SOL    HW1  817   1.624   0.291   2.300
  267SOL    HW2  818   1.574   0.444   2.276
  268SOL     OW  819   1.540   0.274   1.987
  268SOL    HW1  820   1.479   0.199   2.010
  268SOL    HW2  821   1.562   0.326   2.070
  269SOL     OW  822   1.303   0.838   1.904
  269SOL    HW1  823   1.337   0.745   1.919
  269SOL    HW2  824   1.321   0.865   1.809
  270SOL     OW  825   0.008   1.326   2.062
  270SOL    HW1  826  -0.085   1.347   2.031
  270SOL    HW2  827   0.018   1.227   2.075
  271SOL     OW  828   0.815   0.572   2.187
  271SOL    HW1  829   0.822   0.483   2.141
  271SOL    HW2  830   0.721   0.606   2.179
  272SOL     OW  831   0.473   0.500   2.053
  272SOL    HW1  832   0.534   0.580   2.057
  272SOL    HW2  833   0.378   0.531   2.060
  273SOL     OW  834   1.302   0.855   2.171
  273SOL    HW1  835   1.216   0.824   2.213
  273SOL    HW2  836   1.298   0.841   2.072
  274SOL     OW  837   1.726   0.135   2.385
  274SOL    HW1  838   1.799   0.118   2.318
  274SOL    HW2  839   1.695   0.048   2.423
  275SOL     OW  840   1.388   1.573   2.339
  275SOL    HW1  841   1.455   1.585   2.265
  275SOL    HW2  842   1.348   1.662   2.362
  276SOL     OW  843   1.280   0.927   2.534
  276SOL    HW1  844   1.340   0.846   2.536
  276SOL    HW2  845   1.320   0.996   2.474
  277SOL     OW  846   0.672   1.616   2.016
  277SOL    HW1  847   0.681   1.626   1.917
  277SOL    HW2  848   0.632   1.527   2.037
  278SOL     OW  849   1.841   0.175   2.825
  278SOL    HW1  850   1.880   0.090   2.789
  278SOL    HW2  851   1.743   0.177   2.806
  279SOL     OW  852   0.263   0.326   2.582
  279SOL    HW1  853   0.184   0.377   2.548
  279SOL    HW2  854   0.254   0.311   2.680
  280SOL     OW  855   1.194   1.612   1.893
  280SOL    HW1  856   1.200   1.519   1.930
  280SOL    HW2  857   1.135   1.612   1.813
  281SOL     OW  858   0.916   0.910   2.153
  281SOL    HW1  859   0.979   0.948   2.085
  281SOL    HW2  860   0.956   0.827   2.192
  282SOL     OW  861   1.504   1.607   1.906
  282SOL    HW1  862   1.412   1.644   1.913
  282SOL    HW2  863   1.542   1.627   1.816
  283SOL     OW  864   1.039   1.098   2.558
  283SOL    HW1  865   0.969   1.051   2.612
  283SOL    HW2  866   1.098   1.030   2.515
  284SOL     OW  867   0.590   1.487   2.353
  284SOL    HW1  868   0.632   1.429   2.283
  284SOL    HW2  869   0.546   1.566   2.309
  285SOL     OW  870   0.255   1.348   2.152
  285SOL    HW1  871   0.159   1.349   2.125
  285SOL    HW2  872   0.267   1.401   2.236
  286SOL     OW  873   0.075   0.345   1.895
  286SOL    HW1  874  -0.017   0.317   1.866
  286SOL    HW2  875   0.106   0.422   1.839
  287SOL     OW  876   0.072   0.166   2.180
  287SOL    HW1  877   0.055   0.249   2.126
  287SOL    HW2  878   0.162   0.129   2.158
  288SOL     OW  879   1.183   1.335   1.981
  288SOL    HW1  880   1.084   1.324   1.983
  288SOL    HW2  881   1.217   1.350   2.074
  289SOL     OW  882   1.225   0.325   2.311
  289SOL    HW1  883   1.290   0.251   2.300
  289SOL    HW2  884   1.245   0.375   2.395
  290SOL     OW  885   0.594   0.745   2.514
  290SOL    HW1  886   0.644   0.830   2.495
  290SOL    HW2  887   0.506   0.747   2.466
  291SOL     OW  888   0.859   1.374   1.878
  291SOL    HW1  889   0.813   1.389   1.966
  291SOL    HW2  890   0.903   1.459   1.848
  292SOL     OW  891   0.661   1.790   2.815
  292SOL    HW1  892   0.615   1.878   2.802
  292SOL    HW2  893   0.760   1.802   2.808
  293SOL     OW  894   0.859   0.956   2.723
  293SOL    HW1  895   0.913   0.887   2.771
  293SOL    HW2  896   0.827   1.025   2.789
  294SOL     OW  897   1.083   0.984   1.949
  294SOL    HW1  898   1.060   1.037   1.867
  294SOL    HW2  899   1.164   0.928   1.930
  295SOL     OW  900   0.079   1.240   2.515
  295SOL    HW1  901   0.078   1.193   2.603
  295SOL    HW2  902   0.161   1.212   2.464
  296SOL     OW  903   0.428   0.424   2.382
  296SOL    HW1  904   0.458   0.352   2.320
  296SOL    HW2  905   0.389   0.384   2.465
  297SOL     OW  906   1.705   1.487   2.966
  297SOL    HW1  907   1.612   1.462   2.939
  297SOL    HW2  908   1.731   1.437   3.048
  298SOL     OW  909   0.812   1.586   2.549
  298SOL    HW1  910   0.844   1.596   2.455
  298SOL    HW2  911   0.733   1.524   2.551
  299SOL     OW  912   0.770   1.330   2.163
  299SOL    HW1  913   0.724   1.243   2.180
  299SOL    HW2  914   0.861   1.327   2.204
  300SOL     OW  915   1.352   0.052   2.030
  300SOL    HW1  916   1.387   0.011   1.946
  300SOL    HW2  917   1.262   0.014   2.050
  301SOL     OW  918   1.300   0.453   2.553
  301SOL    HW1  919   1.241   0.533   2.557
  301SOL    HW2  920   1.315   0.418   2.646
  302SOL     OW  921   0.039   1.077   2.162
  302SOL    HW1  922   0.138   1.066   2.153
  302SOL    HW2  923  -0.001   0.991   2.194
  303SOL     OW  924   0.875   1.646   2.199
  303SOL    HW1  925   0.798   1.611   2.145
  303SOL    HW2  926   0.843   1.717   2.261
  304SOL     OW  927   0.230   2.490   0.113
  304SOL    HW1  928   0.137   2.488   0.150
  304SOL    HW2  929   0.231   2.451   0.021
  305SOL     OW  930   0.225   2.137   0.996
  305SOL    HW1  931   0.260   2.120   1.088
  305SOL    HW2  932   0.137   2.092   0.984
  306SOL     OW  933   0.019   2.230   0.647
  306SOL    HW1  934  -0.063   2.273   0.686
  306SOL    HW2  935  -0.009   2.157   0.584
  307SOL     OW  936   1.135   2.565   0.717
  307SOL    HW1  937   1.192   2.643   0.692
  307SOL    HW2  938   1.075   2.591   0.793
  308SOL     OW  939   1.755   2.469   0.231
  308SOL    HW1  940   1.743   2.456   0.132
  308SOL    HW2  941   1.725   2.388   0.280
  309SOL     OW  942   0.850   2.660   1.823
  309SOL    HW1  943   0.846   2.736   1.888
  309SOL    HW2  944   0.872   2.696   1.732
  310SOL     OW  945   0.685   2.874   0.665
  310SOL    HW1  946   0.754   2.858   0.735
  310SOL    HW2  947   0.612   2.931   0.703
  311SOL     OW  948   0.438   2.254   1.499
  311SOL    HW1  949   0.520   2.198   1.508
  311SOL    HW2  950   0.357   2.196   1.503
  312SOL     OW  951   1.603   2.309   0.737
  312SOL    HW1  952   1.529   2.355   0.687
  312SOL    HW2  953   1.654   2.377   0.790
  313SOL     OW  954   1.594   1.976   1.480
  313SOL    HW1  955   1.576   2.043   1.408
  313SOL    HW2  956   1.591   2.022   1.569
  314SOL     OW  957   0.122   2.505   0.563
  314SOL    HW1  958   0.077   2.417   0.580
  314SOL    HW2  959   0.121   2.559   0.647
  315SOL     OW  960   0.113   2.599   1.597
  315SOL    HW1  961   0.201   2.586   1.642
  315SOL    HW2  962   0.100   2.696   1.575
  316SOL     OW  963   0.809   1.866   0.502
  316SOL    HW1  964   0.849   1.957   0.493
  316SOL    HW2  965   0.709   1.874   0.508
  317SOL     OW  966   0.317   2.113   1.801
  317SOL    HW1  967   0.388   2.184   1.807
  317SOL    HW2  968   0.229   2.152   1.829
  318SOL     OW  969   0.598   2.591   0.270
  318SOL    HW1  970   0.622   2.660   0.202
  318SOL    HW2  971   0.520   2.624   0.324
  319SOL     OW  972   1.281   2.207   0.944
  319SOL    HW1  973   1.195   2.157   0.931
  319SOL    HW2  974   1.343   2.153   1.000
  320SOL     OW  975   0.807   2.467   1.465
  320SOL    HW1  976   0.760   2.464   1.554
  320SOL    HW2  977   0.756   2.412   1.399
  321SOL     OW  978   1.394   2.331   1.674
  321SOL    HW1  979   1.374   2.374   1.762
  321SOL    HW2  980   1.472   2.269   1.683
  322SOL     OW  981   0.991   2.272   1.242
  322SOL    HW1  982   0.914   2.306   1.296
  322SOL    HW2  983   0.957   2.221   1.163
  323SOL     OW  984   1.041   2.563   0.429
  323SOL    HW1  985   1.067   2.559   0.525
  323SOL    HW2  986   0.956   2.512   0.415
  324SOL     OW  987   0.076   2.673   0.789
  324SOL    HW1  988   0.175   2.661   0.798
  324SOL    HW2  989   0.052   2.768   0.810
  325SOL     OW  990   0.865   2.210   0.195
  325SOL    HW1  991   0.924   2.273   0.146
  325SOL    HW2  992   0.884   2.116   0.166
  326SOL     OW  993   1.719   2.447   1.831
  326SOL    HW1  994   1.693   2.536   1.795
  326SOL    HW2  995   1.717   2.379   1.758
  327SOL     OW  996   0.550   2.058   0.885
  327SOL    HW1  997   0.545   2.053   0.985
  327SOL    HW2  998   0.552   2.154   0.856
  328SOL     OW  999   1.458   2.597   0.728
  328SOL    HW1 1000   1.453   2.532   0.803
  328SOL    HW2 1001   1.538   2.656   0.741
  329SOL     OW 1002   0.202   2.147   1.498
  329SOL    HW1 1003   0.122   2.207   1.485
  329SOL    HW2 1004   0.192   2.098   1.584
  330SOL     OW 1005   1.400   1.969   0.426
  330SOL    HW1 1006   1.376   1.932   0.336
  330SOL    HW2 1007   1.499   1.985   0.430
  331SOL     OW 1008   0.382   2.562   0.480
  331SOL    HW1 1009   0.427   2.472   0.477
  331SOL    HW2 1010   0.288   2.551   0.513
  332SOL     OW 1011   1.547   2.084   1.729
  332SOL    HW1 1012   1.542   2.121   1.821
  332SOL    HW2 1013   1.475   2.015   1.717
  333SOL     OW 1014   0.781   2.126   1.749
  333SOL    HW1 1015   0.848   2.065   1.792
  333SOL    HW2 1016   0.708   2.145   1.814
  334SOL     OW 1017   1.351   2.452   1.433
  334SOL    HW1 1018   1.379   2.409   1.518
  334SOL    HW2 1019   1.376   2.548   1.434
  335SOL     OW 1020   0.922   2.365   0.899
  335SOL    HW1 1021   0.897   2.356   0.803
  335SOL    HW2 1022   0.970   2.283   0.930
  336SOL     OW 1023   0.539   1.926   0.512
  336SOL    HW1 1024   0.458   1.927   0.570
  336SOL    HW2 1025   0.542   2.009   0.457
  337SOL     OW 1026   0.297   1.897   0.171
  337SOL    HW1 1027   0.346   1.981   0.150
  337SOL    HW2 1028   0.359   1.832   0.216
  338SOL     OW 1029   0.935   2.098   0.480
  338SOL    HW1 1030   0.887   2.139   0.402
  338SOL    HW2 1031   1.034   2.096   0.461
  339SOL     OW 1032   1.076   2.545   1.464
  339SOL    HW1 1033   0.996   2.484   1.467
  339SOL    HW2 1034   1.157   2.492   1.440
  340SOL     OW 1035   1.032   2.411   0.016
  340SOL    HW1 1036   0.991   2.493  -0.023
  340SOL    HW2 1037   1.096   2.437   0.089
  341SOL     OW 1038   0.078   2.418   1.386
  341SOL    HW1 1039   0.170   2.417   1.345
  341SOL    HW2 1040   0.072   2.492   1.453
  342SOL     OW 1041   0.561   2.084   1.147
  342SOL    HW1 1042   0.599   2.000   1.184
  342SOL    HW2 1043   0.473   2.103   1.191
  343SOL     OW 1044   0.866   2.316   0.642
  343SOL    HW1 1045   0.834   2.388   0.580
  343SOL    HW2 1046   0.890   2.235   0.589
  344SOL     OW 1047   1.017   1.901   0.753
  344SOL    HW1 1048   0.945   1.906   0.684
  344SOL    HW2 1049   0.993   1.832   0.822
  345SOL     OW 1050   1.466   2.452   0.992
  345SOL    HW1 1051   1.436   2.357   0.999
  345SOL    HW2 1052   1.539   2.468   1.058
  346SOL     OW 1053   1.857   2.695   0.377
  346SOL    HW1 1054   1.899   2.631   0.441
  346SOL    HW2 1055   1.819   2.644   0.299
  347SOL     OW 1056   1.390   2.437   0.078
  347SOL    HW1 1057   1.336   2.416   0.159
  347SOL    HW2 1058   1.481   2.396   0.087
  348SOL     OW 1059   0.527   2.118   0.328
  348SOL    HW1 1060   0.554   2.059   0.253
  348SOL    HW2 1061   0.527   2.213   0.297
  349SOL     OW 1062   0.915   1.951   1.402
  349SOL    HW1 1063   0.940   1.931   1.307
  349SOL    HW2 1064   0.987   2.007   1.444
  350SOL     OW 1065   0.705   2.912   0.368
  350SOL    HW1 1066   0.691   2.919   0.467
  350SOL    HW2 1067   0.789   2.861   0.350
  351SOL     OW 1068   0.410   2.675   1.251
  351SOL    HW1 1069   0.496   2.687   1.301
  351SOL    HW2 1070   0.368   2.588   1.278
  352SOL     OW 1071   1.274   2.248   1.262
  352SOL    HW1 1072   1.295   2.322   1.326
  352SOL    HW2 1073   1.185   2.265   1.219
  353SOL     OW 1074   0.566   2.399   0.865
  353SOL    HW1 1075   0.578   2.465   0.791
  353SOL    HW2 1076   0.612   2.433   0.948
  354SOL     OW 1077   1.582   2.501   0.472
  354SOL    HW1 1078   1.551   2.562   0.545
  354SOL    HW2 1079   1.632   2.553   0.403
  355SOL     OW 1080   1.587   2.641   1.670
  355SOL    HW1 1081   1.495   2.679   1.665
  355SOL    HW2 1082   1.647   2.688   1.605
  356SOL     OW 1083   1.013   1.967   1.770
  356SOL    HW1 1084   1.019   2.052   1.718
  356SOL    HW2 1085   1.045   1.891   1.713
  357SOL     OW 1086   0.504   1.912   1.740
  357SOL    HW1 1087   0.462   1.855   1.670
  357SOL    HW2 1088   0.438   1.981   1.772
  358SOL     OW 1089   1.360   2.724   1.045
  358SOL    HW1 1090   1.285   2.724   0.979
  358SOL    HW2 1091   1.397   2.632   1.054
  359SOL     OW 1092   1.209   2.387   0.275
  359SOL    HW1 1093   1.222   2.303   0.329
  359SOL    HW2 1094   1.180   2.461   0.335
  360SOL     OW 1095   0.307   2.075   1.231
  360SOL    HW1 1096   0.284   2.112   1.321
  360SOL    HW2 1097   0.277   1.980   1.225
  361SOL     OW 1098   0.732   2.496   1.064
  361SOL    HW1 1099   0.791   2.470   0.988
  361SOL    HW2 1100   0.704   2.592   1.053
  362SOL     OW 1101   1.728   2.797   1.854
  362SOL    HW1 1102   1.682   2.790   1.765
  362SOL    HW2 1103   1.666   2.841   1.920
  363SOL     OW 1104   0.307   1.925   0.618
  363SOL    HW1 1105   0.296   2.019   0.651
  363SOL    HW2 1106   0.302   1.862   0.695
  364SOL     OW 1107   1.622   2.229   0.374
  364SOL    HW1 1108   1.624   2.153   0.438
  364SOL    HW2 1109   1.574   2.306   0.414
  365SOL     OW 1110   1.540   2.136   0.125
  365SOL    HW1 1111   1.479   2.061   0.148
  365SOL    HW2 1112   1.562   2.188   0.208
  366SOL     OW 1113   0.319   2.672   0.949
  366SOL    HW1 1114   0.412   2.708   0.954
  366SOL    HW2 1115   0.313   2.587   1.001
  367SOL     OW 1116   0.339   2.371   1.006
  367SOL    HW1 1117   0.287   2.288   0.989
  367SOL    HW2 1118   0.416   2.376   0.942
  368SOL     OW 1119   1.138   2.242   1.678
  368SOL    HW1 1120   1.093   2.305   1.742
  368SOL    HW2 1121   1.231   2.273   1.661
  369SOL     OW 1122   1.160   2.069   1.477
  369SOL    HW1 1123   1.160   2.133   1.554
  369SOL    HW2 1124   1.188   2.117   1.394
  370SOL     OW 1125   0.040   2.406   1.114
  370SOL    HW1 1126   0.125   2.373   1.073
  370SOL    HW2 1127   0.053   2.421   1.212
  371SOL     OW 1128   0.189   2.382   1.722
  371SOL    HW1 1129   0.248   2.342   1.652
  371SOL    HW2 1130   0.131   2.453   1.681
  372SOL     OW 1131   0.815   2.434   0.325
  372SOL    HW1 1132   0.822   2.345   0.279
  372SOL    HW2 1133   0.721   2.468   0.317
  373SOL     OW 1134   1.657   2.466   1.206
  373SOL    HW1 1135   1.619   2.397   1.268
  373SOL    HW2 1136   1.739   2.430   1.162
  374SOL     OW 1137   0.671   2.326   1.269
  374SOL    HW1 1138   0.637   2.237   1.239
  374SOL    HW2 1139   0.697   2.380   1.189
  375SOL     OW 1140   0.473   2.362   0.191
  375SOL    HW1 1141   0.534   2.442   0.195
  375SOL    HW2 1142   0.378   2.393   0.198
  376SOL     OW 1143   0.903   1.948   0.133
  376SOL    HW1 1144   0.954   1.949   0.047
  376SOL    HW2 1145   0.959   1.906   0.204
  377SOL     OW 1146   1.726   1.997   0.523
  377SOL    HW1 1147   1.799   1.980   0.456
  377SOL    HW2 1148   1.695   1.910   0.561
  378SOL     OW 1149   1.280   2.789   0.672
  378SOL    HW1 1150   1.340   2.708   0.674
  378SOL    HW2 1151   1.320   2.858   0.612
  379SOL     OW 1152   1.841   2.037   0.963
  379SOL    HW1 1153   1.880   1.952   0.927
  379SOL    HW2 1154   1.743   2.039   0.944
  380SOL     OW 1155   0.263   2.188   0.720
  380SOL    HW1 1156   0.184   2.239   0.686
  380SOL    HW2 1157   0.254   2.173   0.818
  381SOL     OW 1158   1.014   2.098   0.971
  381SOL    HW1 1159   1.006   2.062   0.878
  381SOL    HW2 1160   1.012   2.022   1.036
  382SOL     OW 1161   1.709   2.247   1.381
  382SOL    HW1 1162   1.782   2.316   1.385
  382SOL    HW2 1163   1.737   2.172   1.322
  383SOL     OW 1164   0.105   2.875   1.726
  383SOL    HW1 1165   0.028   2.842   1.780
  383SOL    HW2 1166   0.190   2.845   1.768
  384SOL     OW 1167   0.672   2.065   1.489
  384SOL    HW1 1168   0.762   2.049   1.449
  384SOL    HW2 1169   0.680   2.070   1.588
  385SOL     OW 1170   0.075   2.207   0.033
  385SOL    HW1 1171  -0.017   2.179   0.004
  385SOL    HW2 1172   0.106   2.284  -0.023
  386SOL     OW 1173   1.440   2.718   1.398
  386SOL    HW1 1174   1.383   2.770   1.335
  386SOL    HW2 1175   1.536   2.730   1.374
  387SOL     OW 1176   0.072   2.028   0.318
  387SOL    HW1 1177   0.055   2.111   0.264
  387SOL    HW2 1178   0.162   1.991   0.296
  388SOL     OW 1179   0.613   2.704   1.431
  388SOL    HW1 1180   0.669   2.785   1.414
  388SOL    HW2 1181   0.672   2.624   1.434
  389SOL     OW 1182   0.716   2.427   1.708
  389SOL    HW1 1183   0.735   2.492   1.782
  389SOL    HW2 1184   0.776   2.347   1.717
  390SOL     OW 1185   1.674   2.745   1.254
  390SOL    HW1 1186   1.647   2.656   1.217
  390SOL    HW2 1187   1.675   2.813   1.181
  391SOL     OW 1188   1.225   2.187   0.449
  391SOL    HW1 1189   1.290   2.113   0.438
  391SOL    HW2 1190   1.245   2.237   0.533
  392SOL     OW 1191   0.594   2.607   0.652
  392SOL    HW1 1192   0.644   2.692   0.633
  392SOL    HW2 1193   0.506   2.609   0.604
  393SOL     OW 1194   1.777   2.204   1.642
  393SOL    HW1 1195   1.760   2.235   1.548
  393SOL    HW2 1196   1.693   2.167   1.680
  394SOL     OW 1197   1.824   2.054   1.227
  394SOL    HW1 1198   1.820   1.964   1.271
  394SOL    HW2 1199   1.827   2.043   1.128
  395SOL     OW 1200   0.428   2.286   0.520
  395SOL    HW1 1201   0.458   2.214   0.458
  395SOL    HW2 1202   0.389   2.246   0.603
  396SOL     OW 1203   0.317   2.409   1.280
  396SOL    HW1 1204   0.355   2.350   1.352
  396SOL    HW2 1205   0.357   2.383   1.192
  397SOL     OW 1206   1.424   2.076   1.112
  397SOL    HW1 1207   1.476   2.011   1.167
  397SOL    HW2 1208   1.375   2.139   1.173
  398SOL     OW 1209   1.001   1.896   1.154
  398SOL    HW1 1210   0.938   1.824   1.123
  398SOL    HW2 1211   1.094   1.860   1.154
  399SOL     OW 1212   1.352   1.914   0.168
  399SOL    HW1 1213   1.387   1.873   0.084
  399SOL    HW2 1214   1.262   1.876   0.188
  400SOL     OW 1215   1.300   2.315   0.691
  400SOL    HW1 1216   1.241   2.395   0.695
  400SOL    HW2 1217   1.315   2.280   0.784
  401SOL     OW 1218   1.593   2.083   0.882
  401SOL    HW1 1219   1.509   2.082   0.936
  401SOL    HW2 1220   1.595   2.166   0.826
  402SOL     OW 1221   0.230   2.490   1.975
  402SOL    HW1 1222   0.137   2.488   2.012
  402SOL    HW2 1223   0.231   2.451   1.883
  403SOL     OW 1224   0.225   2.137   2.858
  403SOL    HW1 1225   0.260   2.120   2.950
  403SOL    HW2 1226   0.137   2.092   2.846
  404SOL     OW 1227   0.019   2.230   2.509
  404SOL    HW1 1228  -0.063   2.273   2.548
  404SOL    HW2 1229  -0.009   2.157   2.446
  405SOL     OW 1230   1.135   2.565   2.579
  405SOL    HW1 1231   1.192   2.643   2.554
  405SOL    HW2 1232   1.075   2.591   2.655
  406SOL     OW 1233   1.755   2.469   2.093
  406SOL    HW1 1234   1.743   2.456   1.994
  406SOL    HW2 1235   1.725   2.388   2.142
  407SOL     OW 1236   0.685   2.874   2.527
  407SOL    HW1 1237   0.754   2.858   2.597
  407SOL    HW2 1238   0.612   2.931   2.565
  408SOL     OW 1239   1.603   2.309   2.599
  408SOL    HW1 1240   1.529   2.355   2.549
  408SOL    HW2 1241   1.654   2.377   2.652
  409SOL     OW 1242   0.122   2.505   2.425
  409SOL    HW1 1243   0.077   2.417   2.442
  409SOL    HW2 1244   0.121   2.559   2.509
  410SOL     OW 1245   0.809   1.866   2.364
  410SOL    HW1 1246   0.849   1.957   2.355
  410SOL    HW2 1247   0.709   1.874   2.370
  411SOL     OW 1248   0.598   2.591   2.132
  411SOL    HW1 1249   0.622   2.660   2.064
  411SOL    HW2 1250   0.520   2.624   2.186
  412SOL     OW 1251   1.281   2.207   2.806
  412SOL    HW1 1252   1.195   2.157   2.793
  412SOL    HW2 1253   1.343   2.153   2.862
  413SOL     OW 1254   1.041   2.563   2.291
  413SOL    HW1 1255   1.067   2.559   2.387
  413SOL    HW2 1256   0.956   2.512   2.277
  414SOL     OW 1257   0.076   2.673   2.651
  414SOL    HW1 1258   0.175   2.661   2.660
  414SOL    HW2 1259   0.052   2.768   2.672
  415SOL     OW 1260   0.865   2.210   2.057
  415SOL    HW1 1261   0.924   2.273   2.008
  415SOL    HW2 1262   0.884   2.116   2.028
  416SOL     OW 1263   1.458   2.597   2.590
  416SOL    HW1 1264   1.453   2.532   2.665
  416SOL    HW2 1265   1.538   2.656   2.603
  417SOL     OW 1266   1.400   1.969   2.288
  417SOL    HW1 1267   1.376   1.932   2.198
  417SOL    HW2 1268   1.499   1.985   2.292
  418SOL     OW 1269   0.382   2.562   2.342
  418SOL    HW1 1270   0.427   2.472   2.339
  418SOL    HW2 1271   0.288   2.551   2.375
  419SOL     OW 1272   0.614   1.984   1.979
  419SOL    HW1 1273   0.712   1.962   1.986
  419SOL    HW2 1274   0.583   1.967   1.886
  420SOL     OW 1275   0.539   1.926   2.374
  420SOL    HW1 1276   0.458   1.927   2.432
  420SOL    HW2 1277   0.542   2.009   2.319
  421SOL     OW 1278   0.297   1.897   2.033
  421SOL    HW1 1279   0.346   1.981   2.012
  421SOL    HW2 1280   0.359   1.832   2.078
  422SOL     OW 1281   0.935   2.098   2.342
  422SOL    HW1 1282   0.887   2.139   2.264
  422SOL    HW2 1283   1.034   2.096   2.323
  423SOL     OW 1284   0.459   3.014   2.603
  423SOL    HW1 1285   0.388   2.987   2.668
  423SOL    HW2 1286   0.433   2.986   2.510
  424SOL     OW 1287   1.032   2.411   1.878
  424SOL    HW1 1288   0.991   2.493   1.839
  424SOL    HW2 1289   1.096   2.437   1.951
  425SOL     OW 1290   0.866   2.316   2.504
  425SOL    HW1 1291   0.834   2.388   2.442
  425SOL    HW2 1292   0.890   2.235   2.451
  426SOL     OW 1293   1.017   1.901   2.615
  426SOL    HW1 1294   0.945   1.906   2.546
  426SOL    HW2 1295   0.993   1.832   2.684
  427SOL     OW 1296   1.857   2.695   2.239
  427SOL    HW1 1297   1.899   2.631   2.303
  427SOL    HW2 1298   1.819   2.644   2.161
  428SOL     OW 1299   1.390   2.437   1.940
  428SOL    HW1 1300   1.336   2.416   2.021
  428SOL    HW2 1301   1.481   2.396   1.949
  429SOL     OW 1302   0.527   2.118   2.190
  429SOL    HW1 1303   0.554   2.059   2.115
  429SOL    HW2 1304   0.527   2.213   2.159
  430SOL     OW 1305   0.705   2.912   2.230
  430SOL    HW1 1306   0.691   2.919   2.329
  430SOL    HW2 1307   0.789   2.861   2.212
  431SOL     OW 1308   0.566   2.399   2.727
  431SOL    HW1 1309   0.578   2.465   2.653
  431SOL    HW2 1310   0.612   2.433   2.810
  432SOL     OW 1311   1.582   2.501   2.334
  432SOL    HW1 1312   1.551   2.562   2.407
  432SOL    HW2 1313   1.632   2.553   2.265
  433SOL     OW 1314   1.209   2.387   2.137
  433SOL    HW1 1315   1.222   2.303   2.191
  433SOL    HW2 1316   1.180   2.461   2.197
  434SOL     OW 1317   0.307   1.925   2.480
  434SOL    HW1 1318   0.296   2.019   2.513
  434SOL    HW2 1319   0.302   1.862   2.557
  435SOL     OW 1320   1.622   2.229   2.236
  435SOL    HW1 1321   1.624   2.153   2.300
  435SOL    HW2 1322   1.574   2.306   2.276
  436SOL     OW 1323   1.540   2.136   1.987
  436SOL    HW1 1324   1.479   2.061   2.010
  436SOL    HW2 1325   1.562   2.188   2.070
  437SOL     OW 1326   0.815   2.434   2.187
  437SOL    HW1 1327   0.822   2.345   2.141
  437SOL    HW2 1328   0.721   2.468   2.179
  438SOL     OW 1329   0.473   2.362   2.053
  438SOL    HW1 1330   0.534   2.442   2.057
  438SOL    HW2 1331   0.378   2.393   2.060
  439SOL     OW 1332   1.726   1.997   2.385
  439SOL    HW1 1333   1.799   1.980   2.318
  439SOL    HW2 1334   1.695   1.910   2.423
  440SOL     OW 1335   1.280   2.789   2.534
  440SOL    HW1 1336   1.340   2.708   2.536
  440SOL    HW2 1337   1.320   2.858   2.474
  441SOL     OW 1338   1.841   2.037   2.825
  441SOL    HW1 1339   1.880   1.952   2.789
  441SOL    HW2 1340   1.743   2.039   2.806
  442SOL     OW 1341   0.263   2.188   2.582
  442SOL    HW1 1342   0.184   2.239   2.548
  442SOL    HW2 1343   0.254   2.173   2.680
  443SOL     OW 1344   0.916   2.772   2.153
  443SOL    HW1 1345   0.979   2.810   2.085
  443SOL    HW2 1346   0.956   2.689   2.192
  444SOL     OW 1347   0.075   2.207   1.895
  444SOL    HW1 1348  -0.017   2.179   1.866
  444SOL    HW2 1349   0.106   2.284   1.839
  445SOL     OW 1350   0.072   2.028   2.180
  445SOL    HW1 1351   0.055   2.111   2.126
  445SOL    HW2 1352   0.162   1.991   2.158
  446SOL     OW 1353   1.225   2.187   2.311
  446SOL    HW1 1354   1.290   2.113   2.300
  446SOL    HW2 1355   1.245   2.237   2.395
  447SOL     OW 1356   0.594   2.607   2.514
  447SOL    HW1 1357   0.644   2.692   2.495
  447SOL    HW2 1358   0.506   2.609   2.466
  448SOL     OW 1359   0.428   2.286   2.382
  448SOL    HW1 1360   0.458   2.214   2.320
  448SOL    HW2 1361   0.389   2.246   2.465
  449SOL     OW 1362   1.352   1.914   2.030
  449SOL    HW1 1363   1.387   1.873   1.946
  449SOL    HW2 1364   1.262   1.876   2.050
  450SOL     OW 1365   1.300   2.315   2.553
  450SOL    HW1 1366   1.241   2.395   2.557
  450SOL    HW2 1367   1.315   2.280   2.646
  451SOL     OW 1368   2.092   0.628   0.113
  451SOL    HW1 1369   1.999   0.626   0.150
  451SOL    HW2 1370   2.093   0.589   0.021
  452SOL     OW 1371   2.087   0.275   0.996
  452SOL    HW1 1372   2.122   0.258   1.088
  452SOL    HW2 1373   1.999   0.230   0.984
  453SOL     OW 1374   1.881   0.368   0.647
  453SOL    HW1 1375   1.799   0.411   0.686
  453SOL    HW2 1376   1.853   0.295   0.584
  454SOL     OW 1377   2.431   1.275   1.165
  454SOL    HW1 1378   2.338   1.268   1.128
  454SOL    HW2 1379   2.442   1.364   1.209
  455SOL     OW 1380   2.712   0.798   1.823
  455SOL    HW1 1381   2.708   0.874   1.888
  455SOL    HW2 1382   2.734   0.834   1.732
  456SOL     OW 1383   2.547   1.012   0.665
  456SOL    HW1 1384   2.616   0.996   0.735
  456SOL    HW2 1385   2.474   1.069   0.703
  457SOL     OW 1386   2.548   1.161   1.803
  457SOL    HW1 1387   2.608   1.240   1.817
  457SOL    HW2 1388   2.462   1.192   1.762
  458SOL     OW 1389   2.197   1.435   1.061
  458SOL    HW1 1390   2.119   1.404   1.008
  458SOL    HW2 1391   2.255   1.493   1.004
  459SOL     OW 1392   2.300   0.392   1.499
  459SOL    HW1 1393   2.382   0.336   1.508
  459SOL    HW2 1394   2.219   0.334   1.503
  460SOL     OW 1395   2.093   1.713   0.483
  460SOL    HW1 1396   2.127   1.790   0.537
  460SOL    HW2 1397   2.137   1.713   0.393
  461SOL     OW 1398   2.092   1.434   0.538
  461SOL    HW1 1399   2.066   1.530   0.538
  461SOL    HW2 1400   2.021   1.380   0.583
  462SOL     OW 1401   2.102   1.091   0.886
  462SOL    HW1 1402   2.116   1.007   0.938
  462SOL    HW2 1403   2.047   1.155   0.941
  463SOL     OW 1404   2.482   1.786   1.439
  463SOL    HW1 1405   2.390   1.769   1.474
  463SOL    HW2 1406   2.510   1.878   1.465
  464SOL     OW 1407   2.468   0.964   0.123
  464SOL    HW1 1408   2.475   1.048   0.069
  464SOL    HW2 1409   2.514   0.977   0.211
  465SOL     OW 1410   1.984   0.643   0.563
  465SOL    HW1 1411   1.939   0.555   0.580
  465SOL    HW2 1412   1.983   0.697   0.647
  466SOL     OW 1413   1.889   1.596   0.117
  466SOL    HW1 1414   1.870   1.500   0.138
  466SOL    HW2 1415   1.856   1.654   0.192
  467SOL     OW 1416   1.975   0.737   1.597
  467SOL    HW1 1417   2.063   0.724   1.642
  467SOL    HW2 1418   1.962   0.834   1.575
  468SOL     OW 1419   2.475   1.365   0.726
  468SOL    HW1 1420   2.426   1.278   0.735
  468SOL    HW2 1421   2.452   1.408   0.639
  469SOL     OW 1422   2.671   0.004   0.502
  469SOL    HW1 1423   2.711   0.095   0.493
  469SOL    HW2 1424   2.571   0.012   0.508
  470SOL     OW 1425   2.059   0.976   1.264
  470SOL    HW1 1426   2.148   0.931   1.250
  470SOL    HW2 1427   1.986   0.911   1.245
  471SOL     OW 1428   2.179   0.251   1.801
  471SOL    HW1 1429   2.250   0.322   1.807
  471SOL    HW2 1430   2.091   0.290   1.829
  472SOL     OW 1431   2.460   0.729   0.270
  472SOL    HW1 1432   2.484   0.798   0.202
  472SOL    HW2 1433   2.382   0.762   0.324
  473SOL     OW 1434   1.938   0.811   0.789
  473SOL    HW1 1435   2.037   0.799   0.798
  473SOL    HW2 1436   1.914   0.906   0.810
  474SOL     OW 1437   1.992   1.821   1.571
  474SOL    HW1 1438   1.982   1.806   1.670
  474SOL    HW2 1439   1.906   1.857   1.535
  475SOL     OW 1440   2.412   0.196   0.885
  475SOL    HW1 1441   2.407   0.191   0.985
  475SOL    HW2 1442   2.414   0.292   0.856
  476SOL     OW 1443   2.213   1.801   0.853
  476SOL    HW1 1444   2.263   1.715   0.859
  476SOL    HW2 1445   2.278   1.878   0.850
  477SOL     OW 1446   2.183   0.943   0.242
  477SOL    HW1 1447   2.265   0.982   0.200
  477SOL    HW2 1448   2.156   0.861   0.193
  478SOL     OW 1449   2.323   1.266   1.727
  478SOL    HW1 1450   2.273   1.267   1.641
  478SOL    HW2 1451   2.260   1.248   1.803
  479SOL     OW 1452   2.064   0.285   1.498
  479SOL    HW1 1453   1.984   0.345   1.485
  479SOL    HW2 1454   2.054   0.236   1.584
  480SOL     OW 1455   2.326   1.743   0.323
  480SOL    HW1 1456   2.359   1.782   0.409
  480SOL    HW2 1457   2.402   1.736   0.258
  481SOL     OW 1458   2.111   1.785   1.241
  481SOL    HW1 1459   2.168   1.720   1.291
  481SOL    HW2 1460   2.095   1.752   1.148
  482SOL     OW 1461   2.244   0.700   0.480
  482SOL    HW1 1462   2.289   0.610   0.477
  482SOL    HW2 1463   2.150   0.689   0.513
  483SOL     OW 1464   2.476   0.122   0.117
  483SOL    HW1 1465   2.574   0.100   0.124
  483SOL    HW2 1466   2.445   0.105   0.024
  484SOL     OW 1467   2.665   1.402   0.924
  484SOL    HW1 1468   2.755   1.416   0.882
  484SOL    HW2 1469   2.594   1.404   0.853
  485SOL     OW 1470   2.784   0.503   0.899
  485SOL    HW1 1471   2.759   0.494   0.803
  485SOL    HW2 1472   2.832   0.421   0.930
  486SOL     OW 1473   2.401   0.064   0.512
  486SOL    HW1 1474   2.320   0.065   0.570
  486SOL    HW2 1475   2.404   0.147   0.457
  487SOL     OW 1476   2.159   0.035   0.171
  487SOL    HW1 1477   2.208   0.119   0.150
  487SOL    HW2 1478   2.221  -0.030   0.216
  488SOL     OW 1479   2.321   1.152   0.741
  488SOL    HW1 1480   2.250   1.125   0.806
  488SOL    HW2 1481   2.295   1.124   0.648
  489SOL     OW 1482   1.940   0.556   1.386
  489SOL    HW1 1483   2.032   0.555   1.345
  489SOL    HW2 1484   1.934   0.630   1.453
  490SOL     OW 1485   2.423   0.222   1.147
  490SOL    HW1 1486   2.461   0.138   1.184
  490SOL    HW2 1487   2.335   0.241   1.191
  491SOL     OW 1488   2.350   1.385   0.174
  491SOL    HW1 1489   2.263   1.370   0.221
  491SOL    HW2 1490   2.333   1.411   0.079
  492SOL     OW 1491   2.389   0.256   0.328
  492SOL    HW1 1492   2.416   0.197   0.253
  492SOL    HW2 1493   2.389   0.351   0.297
  493SOL     OW 1494   2.777   0.089   1.402
  493SOL    HW1 1495   2.802   0.069   1.307
  493SOL    HW2 1496   2.849   0.145   1.444
  494SOL     OW 1497   2.272   0.813   1.251
  494SOL    HW1 1498   2.358   0.825   1.301
  494SOL    HW2 1499   2.230   0.726   1.278
  495SOL     OW 1500   1.926   1.564   1.331
  495SOL    HW1 1501   1.880   1.646   1.297
  495SOL    HW2 1502   2.024   1.583   1.340
  496SOL     OW 1503   2.229   1.100   0.501
  496SOL    HW1 1504   2.222   1.183   0.445
  496SOL    HW2 1505   2.233   1.020   0.441
  497SOL     OW 1506   2.428   0.537   0.865
  497SOL    HW1 1507   2.440   0.603   0.791
  497SOL    HW2 1508   2.474   0.571   0.948
  498SOL     OW 1509   2.216   1.510   1.329
  498SOL    HW1 1510   2.195   1.466   1.242
  498SOL    HW2 1511   2.313   1.536   1.332
  499SOL     OW 1512   2.264   0.751   1.598
  499SOL    HW1 1513   2.332   0.806   1.551
  499SOL    HW2 1514   2.304   0.663   1.625
  500SOL     OW 1515   2.366   0.050   1.740
  500SOL    HW1 1516   2.324  -0.007   1.670
  500SOL    HW2 1517   2.300   0.119   1.772
  501SOL     OW 1518   2.435   0.870   1.029
  501SOL    HW1 1519   2.479   0.959   1.020
  501SOL    HW2 1520   2.372   0.870   1.106
  502SOL     OW 1521   2.169   0.213   1.231
  502SOL    HW1 1522   2.146   0.250   1.321
  502SOL    HW2 1523   2.139   0.118   1.225
  503SOL     OW 1524   1.899   1.310   1.282
  503SOL    HW1 1525   1.952   1.261   1.350
  503SOL    HW2 1526   1.921   1.408   1.287
  504SOL     OW 1527   2.594   0.634   1.064
  504SOL    HW1 1528   2.653   0.608   0.988
  504SOL    HW2 1529   2.566   0.730   1.053
  505SOL     OW 1530   2.169   0.063   0.618
  505SOL    HW1 1531   2.158   0.157   0.651
  505SOL    HW2 1532   2.164   0.000   0.695
  506SOL     OW 1533   2.212   0.898   1.804
  506SOL    HW1 1534   2.288   0.942   1.852
  506SOL    HW2 1535   2.247   0.851   1.722
  507SOL     OW 1536   2.930   1.333   0.849
  507SOL    HW1 1537   2.937   1.249   0.794
  507SOL    HW2 1538   2.992   1.402   0.813
  508SOL     OW 1539   2.181   0.810   0.949
  508SOL    HW1 1540   2.274   0.846   0.954
  508SOL    HW2 1541   2.175   0.725   1.001
  509SOL     OW 1542   2.201   0.509   1.006
  509SOL    HW1 1543   2.149   0.426   0.989
  509SOL    HW2 1544   2.278   0.514   0.942
  510SOL     OW 1545   1.870   1.326   0.200
  510SOL    HW1 1546   1.777   1.347   0.169
  510SOL    HW2 1547   1.880   1.227   0.213
  511SOL     OW 1548   1.950   1.801   0.927
  511SOL    HW1 1549   1.908   1.715   0.900
  511SOL    HW2 1550   2.044   1.804   0.893
  512SOL     OW 1551   2.366   1.568   0.910
  512SOL    HW1 1552   2.432   1.642   0.919
  512SOL    HW2 1553   2.410   1.489   0.868
  513SOL     OW 1554   1.902   0.544   1.114
  513SOL    HW1 1555   1.987   0.511   1.073
  513SOL    HW2 1556   1.915   0.559   1.212
  514SOL     OW 1557   2.051   0.520   1.722
  514SOL    HW1 1558   2.110   0.480   1.652
  514SOL    HW2 1559   1.993   0.591   1.681
  515SOL     OW 1560   2.677   0.572   0.325
  515SOL    HW1 1561   2.684   0.483   0.279
  515SOL    HW2 1562   2.583   0.606   0.317
  516SOL     OW 1563   2.114   1.564   1.744
  516SOL    HW1 1564   2.084   1.621   1.820
  516SOL    HW2 1565   2.107   1.467   1.770
  517SOL     OW 1566   2.533   0.464   1.269
  517SOL    HW1 1567   2.499   0.375   1.239
  517SOL    HW2 1568   2.559   0.518   1.189
  518SOL     OW 1569   2.335   0.500   0.191
  518SOL    HW1 1570   2.396   0.580   0.195
  518SOL    HW2 1571   2.240   0.531   0.198
  519SOL     OW 1572   2.021   1.137   1.466
  519SOL    HW1 1573   2.043   1.076   1.542
  519SOL    HW2 1574   2.031   1.088   1.380
  520SOL     OW 1575   1.945   1.258   1.022
  520SOL    HW1 1576   1.940   1.257   1.122
  520SOL    HW2 1577   1.862   1.217   0.984
  521SOL     OW 1578   2.550   1.662   1.716
  521SOL    HW1 1579   2.494   1.743   1.725
  521SOL    HW2 1580   2.602   1.666   1.630
  522SOL     OW 1581   1.992   1.794   1.851
  522SOL    HW1 1582   1.951   1.720   1.904
  522SOL    HW2 1583   2.056   1.845   1.909
  523SOL     OW 1584   2.534   1.616   0.154
  523SOL    HW1 1585   2.543   1.626   0.055
  523SOL    HW2 1586   2.494   1.527   0.175
  524SOL     OW 1587   2.125   0.326   0.720
  524SOL    HW1 1588   2.046   0.377   0.686
  524SOL    HW2 1589   2.116   0.311   0.818
  525SOL     OW 1590   2.684   1.002   1.372
  525SOL    HW1 1591   2.724   1.001   1.280
  525SOL    HW2 1592   2.694   1.094   1.412
  526SOL     OW 1593   2.234   1.288   1.490
  526SOL    HW1 1594   2.221   1.381   1.456
  526SOL    HW2 1595   2.150   1.236   1.477
  527SOL     OW 1596   2.452   1.487   0.491
  527SOL    HW1 1597   2.494   1.429   0.421
  527SOL    HW2 1598   2.408   1.566   0.447
  528SOL     OW 1599   2.117   1.348   0.290
  528SOL    HW1 1600   2.021   1.349   0.263
  528SOL    HW2 1601   2.129   1.401   0.374
  529SOL     OW 1602   1.967   1.013   1.726
  529SOL    HW1 1603   1.890   0.980   1.780
  529SOL    HW2 1604   2.052   0.983   1.768
  530SOL     OW 1605   2.534   0.203   1.489
  530SOL    HW1 1606   2.624   0.187   1.449
  530SOL    HW2 1607   2.542   0.208   1.588
  531SOL     OW 1608   1.937   0.345   0.033
  531SOL    HW1 1609   1.845   0.317   0.004
  531SOL    HW2 1610   1.968   0.422  -0.023
  532SOL     OW 1611   1.934   0.166   0.318
  532SOL    HW1 1612   1.917   0.249   0.264
  532SOL    HW2 1613   2.024   0.129   0.296
  533SOL     OW 1614   2.475   0.842   1.431
  533SOL    HW1 1615   2.531   0.923   1.414
  533SOL    HW2 1616   2.534   0.762   1.434
  534SOL     OW 1617   2.578   0.565   1.708
  534SOL    HW1 1618   2.597   0.630   1.782
  534SOL    HW2 1619   2.638   0.485   1.717
  535SOL     OW 1620   2.252   1.741   1.560
  535SOL    HW1 1621   2.161   1.782   1.558
  535SOL    HW2 1622   2.245   1.647   1.592
  536SOL     OW 1623   2.456   0.745   0.652
  536SOL    HW1 1624   2.506   0.830   0.633
  536SOL    HW2 1625   2.368   0.747   0.604
  537SOL     OW 1626   2.523   1.790   0.953
  537SOL    HW1 1627   2.477   1.878   0.940
  537SOL    HW2 1628   2.622   1.802   0.946
  538SOL     OW 1629   2.083   1.314   1.844
  538SOL    HW1 1630   2.018   1.241   1.823
  538SOL    HW2 1631   2.087   1.328   1.942
  539SOL     OW 1632   1.941   1.240   0.653
  539SOL    HW1 1633   1.940   1.193   0.741
  539SOL    HW2 1634   2.023   1.212   0.602
  540SOL     OW 1635   2.534   1.391   1.624
  540SOL    HW1 1636   2.456   1.341   1.662
  540SOL    HW2 1637   2.531   1.486   1.655
  541SOL     OW 1638   2.290   0.424   0.520
  541SOL    HW1 1639   2.320   0.352   0.458
  541SOL    HW2 1640   2.251   0.384   0.603
  542SOL     OW 1641   2.179   0.547   1.280
  542SOL    HW1 1642   2.217   0.488   1.352
  542SOL    HW2 1643   2.219   0.521   1.192
  543SOL     OW 1644   2.674   1.586   0.687
  543SOL    HW1 1645   2.706   1.596   0.593
  543SOL    HW2 1646   2.595   1.524   0.689
  544SOL     OW 1647   2.863   0.034   1.154
  544SOL    HW1 1648   2.800  -0.038   1.123
  544SOL    HW2 1649   2.956  -0.002   1.154
  545SOL     OW 1650   2.480   1.567   1.284
  545SOL    HW1 1651   2.475   1.649   1.341
  545SOL    HW2 1652   2.569   1.564   1.239
  546SOL     OW 1653   1.901   1.077   0.300
  546SOL    HW1 1654   2.000   1.066   0.291
  546SOL    HW2 1655   1.861   0.991   0.332
  547SOL     OW 1656   2.092   0.628   1.975
  547SOL    HW1 1657   1.999   0.626   2.012
  547SOL    HW2 1658   2.093   0.589   1.883
  548SOL     OW 1659   2.087   0.275   2.858
  548SOL    HW1 1660   2.122   0.258   2.950
  548SOL    HW2 1661   1.999   0.230   2.846
  549SOL     OW 1662   1.881   0.368   2.509
  549SOL    HW1 1663   1.799   0.411   2.548
  549SOL    HW2 1664   1.853   0.295   2.446
  550SOL     OW 1665   2.547   1.012   2.527
  550SOL    HW1 1666   2.616   0.996   2.597
  550SOL    HW2 1667   2.474   1.069   2.565
  551SOL     OW 1668   2.093   1.713   2.345
  551SOL    HW1 1669   2.127   1.790   2.399
  551SOL    HW2 1670   2.137   1.713   2.255
  552SOL     OW 1671   2.092   1.434   2.400
  552SOL    HW1 1672   2.066   1.530   2.400
  552SOL    HW2 1673   2.021   1.380   2.445
  553SOL     OW 1674   2.102   1.091   2.748
  553SOL    HW1 1675   2.116   1.007   2.800
  553SOL    HW2 1676   2.047   1.155   2.803
  554SOL     OW 1677   2.468   0.964   1.985
  554SOL    HW1 1678   2.475   1.048   1.931
  554SOL    HW2 1679   2.514   0.977   2.073
  555SOL     OW 1680   1.984   0.643   2.425
  555SOL    HW1 1681   1.939   0.555   2.442
  555SOL    HW2 1682   1.983   0.697   2.509
  556SOL     OW 1683   1.889   1.596   1.979
  556SOL    HW1 1684   1.870   1.500   2.000
  556SOL    HW2 1685   1.856   1.654   2.054
  557SOL     OW 1686   2.475   1.365   2.588
  557SOL    HW1 1687   2.426   1.278   2.597
  557SOL    HW2 1688   2.452   1.408   2.501
  558SOL     OW 1689   2.671   0.004   2.364
  558SOL    HW1 1690   2.711   0.095   2.355
  558SOL    HW2 1691   2.571   0.012   2.370
  559SOL     OW 1692   2.460   0.729   2.132
  559SOL    HW1 1693   2.484   0.798   2.064
  559SOL    HW2 1694   2.382   0.762   2.186
  560SOL     OW 1695   1.938   0.811   2.651
  560SOL    HW1 1696   2.037   0.799   2.660
  560SOL    HW2 1697   1.914   0.906   2.672
  561SOL     OW 1698   2.213   1.801   2.715
  561SOL    HW1 1699   2.263   1.715   2.721
  561SOL    HW2 1700   2.278   1.878   2.712
  562SOL     OW 1701   2.183   0.943   2.104
  562SOL    HW1 1702   2.265   0.982   2.062
  562SOL    HW2 1703   2.156   0.861   2.055
  563SOL     OW 1704   2.326   1.743   2.185
  563SOL    HW1 1705   2.359   1.782   2.271
  563SOL    HW2 1706   2.402   1.736   2.120
  564SOL     OW 1707   2.244   0.700   2.342
  564SOL    HW1 1708   2.289   0.610   2.339
  564SOL    HW2 1709   2.150   0.689   2.375
  565SOL     OW 1710   2.476   0.122   1.979
  565SOL    HW1 1711   2.574   0.100   1.986
  565SOL    HW2 1712   2.445   0.105   1.886
  566SOL     OW 1713   2.401   0.064   2.374
  566SOL    HW1 1714   2.320   0.065   2.432
  566SOL    HW2 1715   2.404   0.147   2.319
  567SOL     OW 1716   2.159   0.035   2.033
  567SOL    HW1 1717   2.208   0.119   2.012
  567SOL    HW2 1718   2.221  -0.030   2.078
  568SOL     OW 1719   2.321   1.152   2.603
  568SOL    HW1 1720   2.250   1.125   2.668
  568SOL    HW2 1721   2.295   1.124   2.510
  569SOL     OW 1722   2.350   1.385   2.036
  569SOL    HW1 1723   2.263   1.370   2.083
  569SOL    HW2 1724   2.333   1.411   1.941
  570SOL     OW 1725   2.389   0.256   2.190
  570SOL    HW1 1726   2.416   0.197   2.115
  570SOL    HW2 1727   2.389   0.351   2.159
  571SOL     OW 1728   2.229   1.100   2.363
  571SOL    HW1 1729   2.222   1.183   2.307
  571SOL    HW2 1730   2.233   1.020   2.303
  572SOL     OW 1731   2.428   0.537   2.727
  572SOL    HW1 1732   2.440   0.603   2.653
  572SOL    HW2 1733   2.474   0.571   2.810
  573SOL     OW 1734   2.169   0.063   2.480
  573SOL    HW1 1735   2.158   0.157   2.513
  573SOL    HW2 1736   2.164   0.000   2.557
  574SOL     OW 1737   2.930   1.333   2.711
  574SOL    HW1 1738   2.937   1.249   2.656
  574SOL    HW2 1739   2.992   1.402   2.675
  575SOL     OW 1740   1.870   1.326   2.062
  575SOL    HW1 1741   1.777   1.347   2.031
  575SOL    HW2 1742   1.880   1.227   2.075
  576SOL     OW 1743   2.677   0.572   2.187
  576SOL    HW1 1744   2.684   0.483   2.141
  576SOL    HW2 1745   2.583   0.606   2.179
  577SOL     OW 1746   2.335   0.500   2.053
  577SOL    HW1 1747   2.396   0.580   2.057
  577SOL    HW2 1748   2.240   0.531   2.060
  578SOL     OW 1749   2.765   0.086   1.995
  578SOL    HW1 1750   2.816   0.087   1.909
  578SOL    HW2 1751   2.821   0.044   2.066
  579SOL     OW 1752   2.534   1.616   2.016
  579SOL    HW1 1753   2.543   1.626   1.917
  579SOL    HW2 1754   2.494   1.527   2.037
  580SOL     OW 1755   2.125   0.326   2.582
  580SOL    HW1 1756   2.046   0.377   2.548
  580SOL    HW2 1757   2.116   0.311   2.680
  581SOL     OW 1758   2.452   1.487   2.353
  581SOL    HW1 1759   2.494   1.429   2.283
  581SOL    HW2 1760   2.408   1.566   2.309
  582SOL     OW 1761   2.117   1.348   2.152
  582SOL    HW1 1762   2.021   1.349   2.125
  582SOL    HW2 1763   2.129   1.401   2.236
  583SOL     OW 1764   1.937   0.345   1.895
  583SOL    HW1 1765   1.845   0.317   1.866
  583SOL    HW2 1766   1.968   0.422   1.839
  584SOL     OW 1767   1.934   0.166   2.180
  584SOL    HW1 1768   1.917   0.249   2.126
  584SOL    HW2 1769   2.024   0.129   2.158
  585SOL     OW 1770   2.456   0.745   2.514
  585SOL    HW1 1771   2.506   0.830   2.495
  585SOL    HW2 1772   2.368   0.747   2.466
  586SOL     OW 1773   2.523   1.790   2.815
  586SOL    HW1 1774   2.477   1.878   2.802
  586SOL    HW2 1775   2.622   1.802   2.808
  587SOL     OW 1776   1.941   1.240   2.515
  587SOL    HW1 1777   1.940   1.193   2.603
  587SOL    HW2 1778   2.023   1.212   2.464
  588SOL     OW 1779   2.290   0.424   2.382
  588SOL    HW1 1780   2.320   0.352   2.320
  588SOL    HW2 1781   2.251   0.384   2.465
  589SOL     OW 1782   2.674   1.586   2.549
  589SOL    HW1 1783   2.706   1.596   2.455
  589SOL    HW2 1784   2.595   1.524   2.551
  590SOL     OW 1785   1.901   1.077   2.162
  590SOL    HW1 1786   2.000   1.066   2.153
  590SOL    HW2 1787   1.861   0.991   2.194
  591SOL     OW 1788   2.092   2.490   0.113
  591SOL    HW1 1789   1.999   2.488   0.150
  591SOL    HW2 1790   2.093   2.451   0.021
  592SOL     OW 1791   2.087   2.137   0.996
  592SOL    HW1 1792   2.122   2.120   1.088
  592SOL    HW2 1793   1.999   2.092   0.984
  593SOL     OW 1794   1.881   2.230   0.647
  593SOL    HW1 1795   1.799   2.273   0.686
  593SOL    HW2 1796   1.853   2.157   0.584
  594SOL     OW 1797   2.547   2.874   0.665
  594SOL    HW1 1798   2.616   2.858   0.735
  594SOL    HW2 1799   2.474   2.931   0.703
  595SOL     OW 1800   2.300   2.254   1.499
  595SOL    HW1 1801   2.382   2.198   1.508
  595SOL    HW2 1802   2.219   2.196   1.503
  596SOL     OW 1803   1.984   2.505   0.563
  596SOL    HW1 1804   1.939   2.417   0.580
  596SOL    HW2 1805   1.983   2.559   0.647
  597SOL     OW 1806   1.975   2.599   1.597
  597SOL    HW1 1807   2.063   2.586   1.642
  597SOL    HW2 1808   1.962   2.696   1.575
  598SOL     OW 1809   2.671   1.866   0.502
  598SOL    HW1 1810   2.711   1.957   0.493
  598SOL    HW2 1811   2.571   1.874   0.508
  599SOL     OW 1812   2.179   2.113   1.801
  599SOL    HW1 1813   2.250   2.184   1.807
  599SOL    HW2 1814   2.091   2.152   1.829
  600SOL     OW 1815   2.460   2.591   0.270
  600SOL    HW1 1816   2.484   2.660   0.202
  600SOL    HW2 1817   2.382   2.624   0.324
  601SOL     OW 1818   2.412   2.058   0.885
  601SOL    HW1 1819   2.407   2.053   0.985
  601SOL    HW2 1820   2.414   2.154   0.856
  602SOL     OW 1821   2.064   2.147   1.498
  602SOL    HW1 1822   1.984   2.207   1.485
  602SOL    HW2 1823   2.054   2.098   1.584
  603SOL     OW 1824   2.244   2.562   0.480
  603SOL    HW1 1825   2.289   2.472   0.477
  603SOL    HW2 1826   2.150   2.551   0.513
  604SOL     OW 1827   2.784   2.365   0.899
  604SOL    HW1 1828   2.759   2.356   0.803
  604SOL    HW2 1829   2.832   2.283   0.930
  605SOL     OW 1830   2.401   1.926   0.512
  605SOL    HW1 1831   2.320   1.927   0.570
  605SOL    HW2 1832   2.404   2.009   0.457
  606SOL     OW 1833   2.159   1.897   0.171
  606SOL    HW1 1834   2.208   1.981   0.150
  606SOL    HW2 1835   2.221   1.832   0.216
  607SOL     OW 1836   1.940   2.418   1.386
  607SOL    HW1 1837   2.032   2.417   1.345
  607SOL    HW2 1838   1.934   2.492   1.453
  608SOL     OW 1839   2.423   2.084   1.147
  608SOL    HW1 1840   2.461   2.000   1.184
  608SOL    HW2 1841   2.335   2.103   1.191
  609SOL     OW 1842   2.389   2.118   0.328
  609SOL    HW1 1843   2.416   2.059   0.253
  609SOL    HW2 1844   2.389   2.213   0.297
  610SOL     OW 1845   2.777   1.951   1.402
  610SOL    HW1 1846   2.802   1.931   1.307
  610SOL    HW2 1847   2.849   2.007   1.444
  611SOL     OW 1848   2.567   2.912   0.368
  611SOL    HW1 1849   2.553   2.919   0.467
  611SOL    HW2 1850   2.651   2.861   0.350
  612SOL     OW 1851   2.272   2.675   1.251
  612SOL    HW1 1852   2.358   2.687   1.301
  612SOL    HW2 1853   2.230   2.588   1.278
  613SOL     OW 1854   2.428   2.399   0.865
  613SOL    HW1 1855   2.440   2.465   0.791
  613SOL    HW2 1856   2.474   2.433   0.948
  614SOL     OW 1857   2.366   1.912   1.740
  614SOL    HW1 1858   2.324   1.855   1.670
  614SOL    HW2 1859   2.300   1.981   1.772
  615SOL     OW 1860   2.169   2.075   1.231
  615SOL    HW1 1861   2.146   2.112   1.321
  615SOL    HW2 1862   2.139   1.980   1.225
  616SOL     OW 1863   2.594   2.496   1.064
  616SOL    HW1 1864   2.653   2.470   0.988
  616SOL    HW2 1865   2.566   2.592   1.053
  617SOL     OW 1866   2.169   1.925   0.618
  617SOL    HW1 1867   2.158   2.019   0.651
  617SOL    HW2 1868   2.164   1.862   0.695
  618SOL     OW 1869   2.181   2.672   0.949
  618SOL    HW1 1870   2.274   2.708   0.954
  618SOL    HW2 1871   2.175   2.587   1.001
  619SOL     OW 1872   2.201   2.371   1.006
  619SOL    HW1 1873   2.149   2.288   0.989
  619SOL    HW2 1874   2.278   2.376   0.942
  620SOL     OW 1875   1.902   2.406   1.114
  620SOL    HW1 1876   1.987   2.373   1.073
  620SOL    HW2 1877   1.915   2.421   1.212
  621SOL     OW 1878   2.051   2.382   1.722
  621SOL    HW1 1879   2.110   2.342   1.652
  621SOL    HW2 1880   1.993   2.453   1.681
  622SOL     OW 1881   2.677   2.434   0.325
  622SOL    HW1 1882   2.684   2.345   0.279
  622SOL    HW2 1883   2.583   2.468   0.317
  623SOL     OW 1884   2.533   2.326   1.269
  623SOL    HW1 1885   2.499   2.237   1.239
  623SOL    HW2 1886   2.559   2.380   1.189
  624SOL     OW 1887   2.335   2.362   0.191
  624SOL    HW1 1888   2.396   2.442   0.195
  624SOL    HW2 1889   2.240   2.393   0.198
  625SOL     OW 1890   2.765   1.948   0.133
  625SOL    HW1 1891   2.816   1.949   0.047
  625SOL    HW2 1892   2.821   1.906   0.204
  626SOL     OW 1893   2.125   2.188   0.720
  626SOL    HW1 1894   2.046   2.239   0.686
  626SOL    HW2 1895   2.116   2.173   0.818
  627SOL     OW 1896   1.967   2.875   1.726
  627SOL    HW1 1897   1.890   2.842   1.780
  627SOL    HW2 1898   2.052   2.845   1.768
  628SOL     OW 1899   2.534   2.065   1.489
  628SOL    HW1 1900   2.624   2.049   1.449
  628SOL    HW2 1901   2.542   2.070   1.588
  629SOL     OW 1902   1.937   2.207   0.033
  629SOL    HW1 1903   1.845   2.179   0.004
  629SOL    HW2 1904   1.968   2.284  -0.023
  630SOL     OW 1905   1.934   2.028   0.318
  630SOL    HW1 1906   1.917   2.111   0.264
  630SOL    HW2 1907   2.024   1.991   0.296
  631SOL     OW 1908   2.475   2.704   1.431
  631SOL    HW1 1909   2.531   2.785   1.414
  631SOL    HW2 1910   2.534   2.624   1.434
  632SOL     OW 1911   2.578   2.427   1.708
  632SOL    HW1 1912   2.597   2.492   1.782
  632SOL    HW2 1913   2.638   2.347   1.717
  633SOL     OW 1914   2.456   2.607   0.652
  633SOL    HW1 1915   2.506   2.692   0.633
  633SOL    HW2 1916   2.368   2.609   0.604
  634SOL     OW 1917   2.290   2.286   0.520
  634SOL    HW1 1918   2.320   2.214   0.458
  634SOL    HW2 1919   2.251   2.246   0.603
  635SOL     OW 1920   2.179   2.409   1.280
  635SOL    HW1 1921   2.217   2.350   1.352
  635SOL    HW2 1922   2.219   2.383   1.192
  636SOL     OW 1923   2.092   2.490   1.975
  636SOL    HW1 1924   1.999   2.488   2.012
  636SOL    HW2 1925   2.093   2.451   1.883
  637SOL     OW 1926   2.087   2.137   2.858
  637SOL    HW1 1927   2.122   2.120   2.950
  637SOL    HW2 1928   1.999   2.092   2.846
  638SOL     OW 1929   1.881   2.230   2.509
  638SOL    HW1 1930   1.799   2.273   2.548
  638SOL    HW2 1931   1.853   2.157   2.446
  639SOL     OW 1932   2.547   2.874   2.527
  639SOL    HW1 1933   2.616   2.858   2.597
  639SOL    HW2 1934   2.474   2.931   2.565
  640SOL     OW 1935   1.984   2.505   2.425
  640SOL    HW1 1936   1.939   2.417   2.442
  640SOL    HW2 1937   1.983   2.559   2.509
  641SOL     OW 1938   2.671   1.866   2.364
  641SOL    HW1 1939   2.711   1.957   2.355
  641SOL    HW2 1940   2.571   1.874   2.370
  642SOL     OW 1941   2.460   2.591   2.132
  642SOL    HW1 1942   2.484   2.660   2.064
  642SOL    HW2 1943   2.382   2.624   2.186
  643SOL     OW 1944   2.244   2.562   2.342
  643SOL    HW1 1945   2.289   2.472   2.339
  643SOL    HW2 1946   2.150   2.551   2.375
  644SOL     OW 1947   2.476   1.984   1.979
  644SOL    HW1 1948   2.574   1.962   1.986
  644SOL    HW2 1949   2.445   1.967   1.886
  645SOL     OW 1950   2.401   1.926   2.374
  645SOL    HW1 1951   2.320   1.927   2.432
  645SOL    HW2 1952   2.404   2.009   2.319
  646SOL     OW 1953   2.159   1.897   2.033
  646SOL    HW1 1954   2.208   1.981   2.012
  646SOL    HW2 1955   2.221   1.832   2.078
  647SOL     OW 1956   2.321   3.014   2.603
  647SOL    HW1 1957   2.250   2.987   2.668
  647SOL    HW2 1958   2.295   2.986   2.510
  648SOL     OW 1959   2.879   1.901   2.615
  648SOL    HW1 1960   2.807   1.906   2.546
  648SOL    HW2 1961   2.855   1.832   2.684
  649SOL     OW 1962   2.389   2.118   2.190
  649SOL    HW1 1963   2.416   2.059   2.115
  649SOL    HW2 1964   2.389   2.213   2.159
  650SOL     OW 1965   2.567   2.912   2.230
  650SOL    HW1 1966   2.553   2.919   2.329
  650SOL    HW2 1967   2.651   2.861   2.212
  651SOL     OW 1968   2.428   2.399   2.727
  651SOL    HW1 1969   2.440   2.465   2.653
  651SOL    HW2 1970   2.474   2.433   2.810
  652SOL     OW 1971   2.169   1.925   2.480
  652SOL    HW1 1972   2.158   2.019   2.513
  652SOL    HW2 1973   2.164   1.862   2.557
  653SOL     OW 1974   2.677   2.434   2.187
  653SOL    HW1 1975   2.684   2.345   2.141
  653SOL    HW2 1976   2.583   2.468   2.179
  654SOL     OW 1977   2.335   2.362   2.053
  654SOL    HW1 1978   2.396   2.442   2.057
  654SOL    HW2 1979   2.240   2.393   2.060
  655SOL     OW 1980   2.765   1.948   1.995
  655SOL    HW1 1981   2.816   1.949   1.909
  655SOL    HW2 1982   2.821   1.906   2.066
  656SOL     OW 1983   2.125   2.188   2.582
  656SOL    HW1 1984   2.046   2.239   2.548
  656SOL    HW2 1985   2.116   2.173   2.680
  657SOL     OW 1986   1.937   2.207   1.895
  657SOL    HW1 1987   1.845   2.179   1.866
  657SOL    HW2 1988   1.968   2.284   1.839
  658SOL     OW 1989   1.934   2.028   2.180
  658SOL    HW1 1990   1.917   2.111   2.126
  658SOL    HW2 1991   2.024   1.991   2.158
  659SOL     OW 1992   2.456   2.607   2.514
  659SOL    HW1 1993   2.506   2.692   2.495
  659SOL    HW2 1994   2.368   2.609   2.466
  660SOL     OW 1995   2.290   2.286   2.382
  660SOL    HW1 1996   2.320   2.214   2.320
  660SOL    HW2 1997   2.251   2.246   2.465
   2.72847   2.72847   2.72847
