mobley_4177472_GMX.gro created by acpype (v: 2023.10.27) on Thu May 14 14:00:32 2026
 1919
    1MOL     C1    1   1.351   1.407   1.136
    1MOL     C2    2   1.557   1.478   1.260
    1MOL     C3    3   1.321   1.115   1.369
    1MOL     C4    4   1.186   1.247   1.531
    1MOL     C5    5   1.300   1.503   1.429
    1MOL     C6    6   1.441   1.377   1.256
    1MOL     C7    7   1.259   1.253   1.396
    1MOL     C8    8   1.364   1.368   1.391
    1MOL     H1    9   1.304   1.505   1.144
    1MOL     H2   10   1.410   1.407   1.043
    1MOL     H3   11   1.273   1.331   1.124
    1MOL     H4   12   1.620   1.462   1.348
    1MOL     H5   13   1.521   1.581   1.262
    1MOL     H6   14   1.620   1.467   1.172
    1MOL     H7   15   1.247   1.035   1.383
    1MOL     H8   16   1.356   1.107   1.266
    1MOL     H9   17   1.405   1.096   1.436
    1MOL    H10   18   1.124   1.335   1.548
    1MOL    H11   19   1.258   1.239   1.614
    1MOL    H12   20   1.119   1.160   1.536
    1MOL    H13   21   1.371   1.586   1.423
    1MOL    H14   22   1.265   1.502   1.533
    1MOL    H15   23   1.214   1.526   1.365
    1MOL    H16   24   1.489   1.280   1.238
    1MOL    H17   25   1.182   1.271   1.320
    1MOL    H18   26   1.440   1.346   1.468
    2SOL     OW   27   0.230   0.628   0.113
    2SOL    HW1   28   0.137   0.626   0.150
    2SOL    HW2   29   0.231   0.589   0.021
    3SOL     OW   30   0.225   0.275   0.996
    3SOL    HW1   31   0.260   0.258   1.088
    3SOL    HW2   32   0.137   0.230   0.984
    4SOL     OW   33   0.019   0.368   0.647
    4SOL    HW1   34  -0.063   0.411   0.686
    4SOL    HW2   35  -0.009   0.295   0.584
    5SOL     OW   36   0.569   1.275   1.165
    5SOL    HW1   37   0.476   1.268   1.128
    5SOL    HW2   38   0.580   1.364   1.209
    6SOL     OW   39   1.555   1.511   0.703
    6SOL    HW1   40   1.498   1.495   0.784
    6SOL    HW2   41   1.496   1.521   0.623
    7SOL     OW   42   1.135   0.703   0.717
    7SOL    HW1   43   1.192   0.781   0.692
    7SOL    HW2   44   1.075   0.729   0.793
    8SOL     OW   45   1.755   0.607   0.231
    8SOL    HW1   46   1.743   0.594   0.132
    8SOL    HW2   47   1.725   0.526   0.280
    9SOL     OW   48   0.768   1.144   1.023
    9SOL    HW1   49   0.690   1.161   1.083
    9SOL    HW2   50   0.802   1.231   0.987
   10SOL     OW   51   0.850   0.798   1.823
   10SOL    HW1   52   0.846   0.874   1.888
   10SOL    HW2   53   0.872   0.834   1.732
   11SOL     OW   54   0.685   1.012   0.665
   11SOL    HW1   55   0.754   0.996   0.735
   11SOL    HW2   56   0.612   1.069   0.703
   12SOL     OW   57   0.686   1.161   1.803
   12SOL    HW1   58   0.746   1.240   1.817
   12SOL    HW2   59   0.600   1.192   1.762
   13SOL     OW   60   0.335   1.435   1.061
   13SOL    HW1   61   0.257   1.404   1.008
   13SOL    HW2   62   0.393   1.493   1.004
   14SOL     OW   63   0.438   0.392   1.499
   14SOL    HW1   64   0.520   0.336   1.508
   14SOL    HW2   65   0.357   0.334   1.503
   15SOL     OW   66   1.603   0.447   0.737
   15SOL    HW1   67   1.529   0.493   0.687
   15SOL    HW2   68   1.654   0.515   0.790
   16SOL     OW   69   0.231   1.713   0.483
   16SOL    HW1   70   0.265   1.790   0.537
   16SOL    HW2   71   0.275   1.713   0.393
   17SOL     OW   72   0.230   1.434   0.538
   17SOL    HW1   73   0.204   1.530   0.538
   17SOL    HW2   74   0.159   1.380   0.583
   18SOL     OW   75   0.240   1.091   0.886
   18SOL    HW1   76   0.254   1.007   0.938
   18SOL    HW2   77   0.185   1.155   0.941
   19SOL     OW   78   0.620   1.786   1.439
   19SOL    HW1   79   0.528   1.769   1.474
   19SOL    HW2   80   0.648   1.878   1.465
   20SOL     OW   81   0.606   0.964   0.123
   20SOL    HW1   82   0.613   1.048   0.069
   20SOL    HW2   83   0.652   0.977   0.211
   21SOL     OW   84   1.594   0.114   1.480
   21SOL    HW1   85   1.576   0.181   1.408
   21SOL    HW2   86   1.591   0.160   1.569
   22SOL     OW   87   0.122   0.643   0.563
   22SOL    HW1   88   0.077   0.555   0.580
   22SOL    HW2   89   0.121   0.697   0.647
   23SOL     OW   90   1.842   1.767   0.359
   23SOL    HW1   91   1.896   1.738   0.439
   23SOL    HW2   92   1.872   1.857   0.330
   24SOL     OW   93   0.027   1.596   0.117
   24SOL    HW1   94   0.008   1.500   0.138
   24SOL    HW2   95  -0.006   1.654   0.192
   25SOL     OW   96   1.689   0.922   0.612
   25SOL    HW1   97   1.784   0.893   0.620
   25SOL    HW2   98   1.681   0.987   0.537
   26SOL     OW   99   1.641   1.108   0.432
   26SOL    HW1  100   1.727   1.110   0.380
   26SOL    HW2  101   1.655   1.155   0.520
   27SOL     OW  102   0.113   0.737   1.597
   27SOL    HW1  103   0.201   0.724   1.642
   27SOL    HW2  104   0.100   0.834   1.575
   28SOL     OW  105   0.613   1.365   0.726
   28SOL    HW1  106   0.564   1.278   0.735
   28SOL    HW2  107   0.590   1.408   0.639
   29SOL     OW  108   0.809   0.004   0.502
   29SOL    HW1  109   0.849   0.095   0.493
   29SOL    HW2  110   0.709   0.012   0.508
   30SOL     OW  111   0.197   0.976   1.264
   30SOL    HW1  112   0.286   0.931   1.250
   30SOL    HW2  113   0.124   0.911   1.245
   31SOL     OW  114   1.525   0.999   0.190
   31SOL    HW1  115   1.462   0.923   0.203
   31SOL    HW2  116   1.573   1.017   0.276
   32SOL     OW  117   1.187   1.792   1.616
   32SOL    HW1  118   1.211   1.852   1.540
   32SOL    HW2  119   1.194   1.697   1.586
   33SOL     OW  120   0.317   0.251   1.801
   33SOL    HW1  121   0.388   0.322   1.807
   33SOL    HW2  122   0.229   0.290   1.829
   34SOL     OW  123   1.667   1.714   0.572
   34SOL    HW1  124   1.626   1.691   0.484
   34SOL    HW2  125   1.649   1.640   0.637
   35SOL     OW  126   0.598   0.729   0.270
   35SOL    HW1  127   0.622   0.798   0.202
   35SOL    HW2  128   0.520   0.762   0.324
   36SOL     OW  129   1.281   0.345   0.944
   36SOL    HW1  130   1.195   0.295   0.931
   36SOL    HW2  131   1.343   0.291   1.000
   37SOL     OW  132   1.576   1.662   0.307
   37SOL    HW1  133   1.665   1.708   0.310
   37SOL    HW2  134   1.555   1.638   0.212
   38SOL     OW  135   0.807   0.605   1.465
   38SOL    HW1  136   0.760   0.602   1.554
   38SOL    HW2  137   0.756   0.550   1.399
   39SOL     OW  138   1.394   0.469   1.674
   39SOL    HW1  139   1.374   0.512   1.762
   39SOL    HW2  140   1.472   0.407   1.683
   40SOL     OW  141   0.973   0.890   1.572
   40SOL    HW1  142   1.019   0.806   1.543
   40SOL    HW2  143   0.917   0.924   1.497
   41SOL     OW  144   0.991   0.410   1.242
   41SOL    HW1  145   0.914   0.444   1.296
   41SOL    HW2  146   0.957   0.359   1.163
   42SOL     OW  147   1.041   0.701   0.429
   42SOL    HW1  148   1.067   0.697   0.525
   42SOL    HW2  149   0.956   0.650   0.415
   43SOL     OW  150   0.076   0.811   0.789
   43SOL    HW1  151   0.175   0.799   0.798
   43SOL    HW2  152   0.052   0.906   0.810
   44SOL     OW  153   0.130   1.821   1.571
   44SOL    HW1  154   0.120   1.806   1.670
   44SOL    HW2  155   0.044   1.857   1.535
   45SOL     OW  156   0.865   0.348   0.195
   45SOL    HW1  157   0.924   0.411   0.146
   45SOL    HW2  158   0.884   0.254   0.166
   46SOL     OW  159   1.719   0.585   1.831
   46SOL    HW1  160   1.693   0.674   1.795
   46SOL    HW2  161   1.717   0.517   1.758
   47SOL     OW  162   1.362   1.144   0.545
   47SOL    HW1  163   1.445   1.115   0.497
   47SOL    HW2  164   1.313   1.211   0.489
   48SOL     OW  165   0.550   0.196   0.885
   48SOL    HW1  166   0.545   0.191   0.985
   48SOL    HW2  167   0.552   0.292   0.856
   49SOL     OW  168   1.008   1.456   0.477
   49SOL    HW1  169   0.962   1.528   0.425
   49SOL    HW2  170   1.004   1.476   0.575
   50SOL     OW  171   0.351   1.801   0.853
   50SOL    HW1  172   0.401   1.715   0.859
   50SOL    HW2  173   0.416   1.878   0.850
   51SOL     OW  174   1.795   1.066   0.873
   51SOL    HW1  175   1.733   1.051   0.797
   51SOL    HW2  176   1.743   1.077   0.958
   52SOL     OW  177   0.321   0.943   0.242
   52SOL    HW1  178   0.403   0.982   0.200
   52SOL    HW2  179   0.294   0.861   0.193
   53SOL     OW  180   1.458   0.735   0.728
   53SOL    HW1  181   1.453   0.670   0.803
   53SOL    HW2  182   1.538   0.794   0.741
   54SOL     OW  183   0.461   1.266   1.727
   54SOL    HW1  184   0.411   1.267   1.641
   54SOL    HW2  185   0.398   1.248   1.803
   55SOL     OW  186   1.111   1.776   0.237
   55SOL    HW1  187   1.051   1.714   0.287
   55SOL    HW2  188   1.142   1.732   0.152
   56SOL     OW  189   0.202   0.285   1.498
   56SOL    HW1  190   0.122   0.345   1.485
   56SOL    HW2  191   0.192   0.236   1.584
   57SOL     OW  192   1.632   1.377   0.081
   57SOL    HW1  193   1.600   1.471   0.071
   57SOL    HW2  194   1.556   1.314   0.069
   58SOL     OW  195   0.464   1.743   0.323
   58SOL    HW1  196   0.497   1.782   0.409
   58SOL    HW2  197   0.540   1.736   0.258
   59SOL     OW  198   1.400   0.107   0.426
   59SOL    HW1  199   1.376   0.070   0.336
   59SOL    HW2  200   1.499   0.123   0.430
   60SOL     OW  201   0.249   1.785   1.241
   60SOL    HW1  202   0.306   1.720   1.291
   60SOL    HW2  203   0.233   1.752   1.148
   61SOL     OW  204   0.940   1.698   0.904
   61SOL    HW1  205   1.020   1.641   0.925
   61SOL    HW2  206   0.891   1.658   0.827
   62SOL     OW  207   0.382   0.700   0.480
   62SOL    HW1  208   0.427   0.610   0.477
   62SOL    HW2  209   0.288   0.689   0.513
   63SOL     OW  210   1.547   0.222   1.729
   63SOL    HW1  211   1.542   0.259   1.821
   63SOL    HW2  212   1.475   0.153   1.717
   64SOL     OW  213   0.614   0.122   0.117
   64SOL    HW1  214   0.712   0.100   0.124
   64SOL    HW2  215   0.583   0.105   0.024
   65SOL     OW  216   0.781   0.264   1.749
   65SOL    HW1  217   0.848   0.203   1.792
   65SOL    HW2  218   0.708   0.283   1.814
   66SOL     OW  219   0.888   1.514   1.195
   66SOL    HW1  220   0.865   1.489   1.101
   66SOL    HW2  221   0.949   1.445   1.234
   67SOL     OW  222   1.351   0.590   1.433
   67SOL    HW1  223   1.379   0.547   1.518
   67SOL    HW2  224   1.376   0.686   1.434
   68SOL     OW  225   0.803   1.402   0.924
   68SOL    HW1  226   0.893   1.416   0.882
   68SOL    HW2  227   0.732   1.404   0.853
   69SOL     OW  228   0.922   0.503   0.899
   69SOL    HW1  229   0.897   0.494   0.803
   69SOL    HW2  230   0.970   0.421   0.930
   70SOL     OW  231   0.539   0.064   0.512
   70SOL    HW1  232   0.458   0.065   0.570
   70SOL    HW2  233   0.542   0.147   0.457
   71SOL     OW  234   1.434   1.188   0.041
   71SOL    HW1  235   1.466   1.112   0.098
   71SOL    HW2  236   1.342   1.215   0.071
   72SOL     OW  237   0.297   0.035   0.171
   72SOL    HW1  238   0.346   0.119   0.150
   72SOL    HW2  239   0.359  -0.030   0.216
   73SOL     OW  240   0.935   0.236   0.480
   73SOL    HW1  241   0.887   0.277   0.402
   73SOL    HW2  242   1.034   0.234   0.461
   74SOL     OW  243   1.076   0.683   1.464
   74SOL    HW1  244   0.996   0.622   1.467
   74SOL    HW2  245   1.157   0.630   1.440
   75SOL     OW  246   1.227   1.570   0.793
   75SOL    HW1  247   1.248   1.644   0.728
   75SOL    HW2  248   1.295   1.570   0.866
   76SOL     OW  249   0.459   1.152   0.741
   76SOL    HW1  250   0.388   1.125   0.806
   76SOL    HW2  251   0.433   1.124   0.648
   77SOL     OW  252   1.271   1.797   0.591
   77SOL    HW1  253   1.315   1.861   0.527
   77SOL    HW2  254   1.221   1.849   0.661
   78SOL     OW  255   1.032   0.549   0.016
   78SOL    HW1  256   0.991   0.631  -0.023
   78SOL    HW2  257   1.096   0.575   0.089
   79SOL     OW  258   0.078   0.556   1.386
   79SOL    HW1  259   0.170   0.555   1.345
   79SOL    HW2  260   0.072   0.630   1.453
   80SOL     OW  261   0.561   0.222   1.147
   80SOL    HW1  262   0.599   0.138   1.184
   80SOL    HW2  263   0.473   0.241   1.191
   81SOL     OW  264   0.866   0.454   0.642
   81SOL    HW1  265   0.834   0.526   0.580
   81SOL    HW2  266   0.890   0.373   0.589
   82SOL     OW  267   1.017   0.039   0.753
   82SOL    HW1  268   0.945   0.044   0.684
   82SOL    HW2  269   0.993  -0.030   0.822
   83SOL     OW  270   1.429   1.173   0.867
   83SOL    HW1  271   1.374   1.089   0.860
   83SOL    HW2  272   1.455   1.202   0.775
   84SOL     OW  273   1.466   0.590   0.992
   84SOL    HW1  274   1.436   0.495   0.999
   84SOL    HW2  275   1.539   0.606   1.058
   85SOL     OW  276   1.857   0.833   0.377
   85SOL    HW1  277   1.899   0.769   0.441
   85SOL    HW2  278   1.819   0.782   0.299
   86SOL     OW  279   0.488   1.385   0.174
   86SOL    HW1  280   0.401   1.370   0.221
   86SOL    HW2  281   0.471   1.411   0.079
   87SOL     OW  282   1.664   1.280   0.657
   87SOL    HW1  283   1.763   1.288   0.671
   87SOL    HW2  284   1.619   1.364   0.688
   88SOL     OW  285   1.390   0.575   0.078
   88SOL    HW1  286   1.336   0.554   0.159
   88SOL    HW2  287   1.481   0.534   0.087
   89SOL     OW  288   0.527   0.256   0.328
   89SOL    HW1  289   0.554   0.197   0.253
   89SOL    HW2  290   0.527   0.351   0.297
   90SOL     OW  291   1.754   1.223   1.588
   90SOL    HW1  292   1.845   1.184   1.575
   90SOL    HW2  293   1.762   1.319   1.612
   91SOL     OW  294   1.592   1.629   1.625
   91SOL    HW1  295   1.619   1.663   1.535
   91SOL    HW2  296   1.671   1.591   1.671
   92SOL     OW  297   1.111   1.195   1.100
   92SOL    HW1  298   1.071   1.239   1.181
   92SOL    HW2  299   1.070   1.232   1.017
   93SOL     OW  300   1.638   1.099   1.079
   93SOL    HW1  301   1.643   1.180   1.138
   93SOL    HW2  302   1.552   1.101   1.028
   94SOL     OW  303   0.915   0.089   1.402
   94SOL    HW1  304   0.940   0.069   1.307
   94SOL    HW2  305   0.987   0.145   1.444
   95SOL     OW  306   0.980   1.116   1.719
   95SOL    HW1  307   0.881   1.122   1.729
   95SOL    HW2  308   1.003   1.036   1.663
   96SOL     OW  309   0.705   1.050   0.368
   96SOL    HW1  310   0.691   1.057   0.467
   96SOL    HW2  311   0.789   0.999   0.350
   97SOL     OW  312   0.410   0.813   1.251
   97SOL    HW1  313   0.496   0.825   1.301
   97SOL    HW2  314   0.368   0.726   1.278
   98SOL     OW  315   1.274   0.386   1.262
   98SOL    HW1  316   1.295   0.460   1.326
   98SOL    HW2  317   1.185   0.403   1.219
   99SOL     OW  318   0.064   1.564   1.331
   99SOL    HW1  319   0.018   1.646   1.297
   99SOL    HW2  320   0.162   1.583   1.340
  100SOL     OW  321   0.367   1.100   0.501
  100SOL    HW1  322   0.360   1.183   0.445
  100SOL    HW2  323   0.371   1.020   0.441
  101SOL     OW  324   0.566   0.537   0.865
  101SOL    HW1  325   0.578   0.603   0.791
  101SOL    HW2  326   0.612   0.571   0.948
  102SOL     OW  327   1.252   1.348   0.388
  102SOL    HW1  328   1.302   1.425   0.428
  102SOL    HW2  329   1.157   1.350   0.420
  103SOL     OW  330   1.582   0.639   0.472
  103SOL    HW1  331   1.551   0.700   0.545
  103SOL    HW2  332   1.632   0.691   0.403
  104SOL     OW  333   0.354   1.510   1.329
  104SOL    HW1  334   0.333   1.466   1.242
  104SOL    HW2  335   0.451   1.536   1.332
  105SOL     OW  336   0.402   0.751   1.598
  105SOL    HW1  337   0.470   0.806   1.551
  105SOL    HW2  338   0.442   0.663   1.625
  106SOL     OW  339   1.587   0.779   1.670
  106SOL    HW1  340   1.495   0.817   1.665
  106SOL    HW2  341   1.647   0.826   1.605
  107SOL     OW  342   1.013   0.105   1.770
  107SOL    HW1  343   1.019   0.190   1.718
  107SOL    HW2  344   1.045   0.029   1.713
  108SOL     OW  345   0.504   0.050   1.740
  108SOL    HW1  346   0.462  -0.007   1.670
  108SOL    HW2  347   0.438   0.119   1.772
  109SOL     OW  348   0.573   0.870   1.029
  109SOL    HW1  349   0.617   0.959   1.020
  109SOL    HW2  350   0.510   0.870   1.106
  110SOL     OW  351   1.360   0.862   1.045
  110SOL    HW1  352   1.285   0.862   0.979
  110SOL    HW2  353   1.397   0.770   1.054
  111SOL     OW  354   1.209   0.525   0.275
  111SOL    HW1  355   1.222   0.441   0.329
  111SOL    HW2  356   1.180   0.599   0.335
  112SOL     OW  357   0.307   0.213   1.231
  112SOL    HW1  358   0.284   0.250   1.321
  112SOL    HW2  359   0.277   0.118   1.225
  113SOL     OW  360   0.037   1.310   1.282
  113SOL    HW1  361   0.090   1.261   1.350
  113SOL    HW2  362   0.059   1.408   1.287
  114SOL     OW  363   0.732   0.634   1.064
  114SOL    HW1  364   0.791   0.608   0.988
  114SOL    HW2  365   0.704   0.730   1.053
  115SOL     OW  366   1.728   0.935   1.854
  115SOL    HW1  367   1.682   0.928   1.765
  115SOL    HW2  368   1.666   0.979   1.920
  116SOL     OW  369   0.307   0.063   0.618
  116SOL    HW1  370   0.296   0.157   0.651
  116SOL    HW2  371   0.302   0.000   0.695
  117SOL     OW  372   1.622   0.367   0.374
  117SOL    HW1  373   1.624   0.291   0.438
  117SOL    HW2  374   1.574   0.444   0.414
  118SOL     OW  375   1.023   0.766   0.966
  118SOL    HW1  376   1.038   0.787   1.062
  118SOL    HW2  377   0.993   0.671   0.957
  119SOL     OW  378   0.980   1.573   1.700
  119SOL    HW1  379   0.960   1.617   1.612
  119SOL    HW2  380   1.019   1.482   1.684
  120SOL     OW  381   1.859   1.518   1.605
  120SOL    HW1  382   1.873   1.545   1.510
  120SOL    HW2  383   1.942   1.540   1.658
  121SOL     OW  384   0.350   0.898   1.804
  121SOL    HW1  385   0.426   0.942   1.852
  121SOL    HW2  386   0.385   0.851   1.722
  122SOL     OW  387   1.540   0.274   0.125
  122SOL    HW1  388   1.479   0.199   0.148
  122SOL    HW2  389   1.562   0.326   0.208
  123SOL     OW  390   1.303   0.838   0.042
  123SOL    HW1  391   1.337   0.745   0.057
  123SOL    HW2  392   1.321   0.865  -0.053
  124SOL     OW  393   1.068   1.333   0.849
  124SOL    HW1  394   1.075   1.249   0.794
  124SOL    HW2  395   1.130   1.402   0.813
  125SOL     OW  396   0.319   0.810   0.949
  125SOL    HW1  397   0.412   0.846   0.954
  125SOL    HW2  398   0.313   0.725   1.001
  126SOL     OW  399   0.339   0.509   1.006
  126SOL    HW1  400   0.287   0.426   0.989
  126SOL    HW2  401   0.416   0.514   0.942
  127SOL     OW  402   1.138   0.380   1.678
  127SOL    HW1  403   1.093   0.443   1.742
  127SOL    HW2  404   1.231   0.411   1.661
  128SOL     OW  405   1.160   0.207   1.477
  128SOL    HW1  406   1.160   0.271   1.554
  128SOL    HW2  407   1.188   0.255   1.394
  129SOL     OW  408   0.008   1.326   0.200
  129SOL    HW1  409  -0.085   1.347   0.169
  129SOL    HW2  410   0.018   1.227   0.213
  130SOL     OW  411   0.088   1.801   0.927
  130SOL    HW1  412   0.046   1.715   0.900
  130SOL    HW2  413   0.182   1.804   0.893
  131SOL     OW  414   0.504   1.568   0.910
  131SOL    HW1  415   0.570   1.642   0.919
  131SOL    HW2  416   0.548   1.489   0.868
  132SOL     OW  417   1.002   0.796   1.238
  132SOL    HW1  418   1.043   0.764   1.324
  132SOL    HW2  419   0.906   0.769   1.235
  133SOL     OW  420   0.040   0.544   1.114
  133SOL    HW1  421   0.125   0.511   1.073
  133SOL    HW2  422   0.053   0.559   1.212
  134SOL     OW  423   0.189   0.520   1.722
  134SOL    HW1  424   0.248   0.480   1.652
  134SOL    HW2  425   0.131   0.591   1.681
  135SOL     OW  426   1.369   0.950   1.660
  135SOL    HW1  427   1.408   1.039   1.680
  135SOL    HW2  428   1.379   0.930   1.563
  136SOL     OW  429   0.815   0.572   0.325
  136SOL    HW1  430   0.822   0.483   0.279
  136SOL    HW2  431   0.721   0.606   0.317
  137SOL     OW  432   1.657   0.604   1.206
  137SOL    HW1  433   1.619   0.535   1.268
  137SOL    HW2  434   1.739   0.568   1.162
  138SOL     OW  435   0.252   1.564   1.744
  138SOL    HW1  436   0.222   1.621   1.820
  138SOL    HW2  437   0.245   1.467   1.770
  139SOL     OW  438   0.671   0.464   1.269
  139SOL    HW1  439   0.637   0.375   1.239
  139SOL    HW2  440   0.697   0.518   1.189
  140SOL     OW  441   0.930   1.678   1.465
  140SOL    HW1  442   0.906   1.660   1.370
  140SOL    HW2  443   0.960   1.772   1.475
  141SOL     OW  444   0.473   0.500   0.191
  141SOL    HW1  445   0.534   0.580   0.195
  141SOL    HW2  446   0.378   0.531   0.198
  142SOL     OW  447   0.159   1.137   1.466
  142SOL    HW1  448   0.181   1.076   1.542
  142SOL    HW2  449   0.169   1.088   1.380
  143SOL     OW  450   1.302   0.855   0.309
  143SOL    HW1  451   1.216   0.824   0.351
  143SOL    HW2  452   1.298   0.841   0.210
  144SOL     OW  453   1.759   1.747   1.154
  144SOL    HW1  454   1.820   1.777   1.081
  144SOL    HW2  455   1.721   1.658   1.132
  145SOL     OW  456   1.252   1.731   1.128
  145SOL    HW1  457   1.336   1.736   1.074
  145SOL    HW2  458   1.229   1.635   1.146
  146SOL     OW  459   0.083   1.258   1.022
  146SOL    HW1  460   0.078   1.257   1.122
  146SOL    HW2  461   0.000   1.217   0.984
  147SOL     OW  462   0.688   1.662   1.716
  147SOL    HW1  463   0.632   1.743   1.725
  147SOL    HW2  464   0.740   1.666   1.630
  148SOL     OW  465   0.903   0.086   0.133
  148SOL    HW1  466   0.954   0.087   0.047
  148SOL    HW2  467   0.959   0.044   0.204
  149SOL     OW  468   1.726   0.135   0.523
  149SOL    HW1  469   1.799   0.118   0.456
  149SOL    HW2  470   1.695   0.048   0.561
  150SOL     OW  471   1.388   1.573   0.477
  150SOL    HW1  472   1.455   1.585   0.403
  150SOL    HW2  473   1.348   1.662   0.500
  151SOL     OW  474   0.130   1.794   1.851
  151SOL    HW1  475   0.089   1.720   1.904
  151SOL    HW2  476   0.194   1.845   1.909
  152SOL     OW  477   1.280   0.927   0.672
  152SOL    HW1  478   1.340   0.846   0.674
  152SOL    HW2  479   1.320   0.996   0.612
  153SOL     OW  480   0.830   1.273   1.422
  153SOL    HW1  481   0.825   1.306   1.517
  153SOL    HW2  482   0.744   1.292   1.376
  154SOL     OW  483   0.672   1.616   0.154
  154SOL    HW1  484   0.681   1.626   0.055
  154SOL    HW2  485   0.632   1.527   0.175
  155SOL     OW  486   1.650   1.720   1.394
  155SOL    HW1  487   1.703   1.730   1.310
  155SOL    HW2  488   1.623   1.810   1.428
  156SOL     OW  489   1.841   0.175   0.963
  156SOL    HW1  490   1.880   0.090   0.927
  156SOL    HW2  491   1.743   0.177   0.944
  157SOL     OW  492   0.263   0.326   0.720
  157SOL    HW1  493   0.184   0.377   0.686
  157SOL    HW2  494   0.254   0.311   0.818
  158SOL     OW  495   1.194   1.612   0.031
  158SOL    HW1  496   1.200   1.519   0.068
  158SOL    HW2  497   1.135   1.612  -0.049
  159SOL     OW  498   0.822   1.002   1.372
  159SOL    HW1  499   0.862   1.001   1.280
  159SOL    HW2  500   0.832   1.094   1.412
  160SOL     OW  501   0.916   0.910   0.291
  160SOL    HW1  502   0.979   0.948   0.223
  160SOL    HW2  503   0.956   0.827   0.330
  161SOL     OW  504   1.504   1.607   0.044
  161SOL    HW1  505   1.412   1.644   0.051
  161SOL    HW2  506   1.542   1.627  -0.046
  162SOL     OW  507   0.372   1.288   1.490
  162SOL    HW1  508   0.359   1.381   1.456
  162SOL    HW2  509   0.288   1.236   1.477
  163SOL     OW  510   1.039   1.098   0.696
  163SOL    HW1  511   0.969   1.051   0.750
  163SOL    HW2  512   1.098   1.030   0.653
  164SOL     OW  513   1.014   0.236   0.971
  164SOL    HW1  514   1.006   0.200   0.878
  164SOL    HW2  515   1.012   0.160   1.036
  165SOL     OW  516   0.590   1.487   0.491
  165SOL    HW1  517   0.632   1.429   0.421
  165SOL    HW2  518   0.546   1.566   0.447
  166SOL     OW  519   1.709   0.385   1.381
  166SOL    HW1  520   1.782   0.454   1.385
  166SOL    HW2  521   1.737   0.310   1.322
  167SOL     OW  522   0.255   1.348   0.290
  167SOL    HW1  523   0.159   1.349   0.263
  167SOL    HW2  524   0.267   1.401   0.374
  168SOL     OW  525   0.105   1.013   1.726
  168SOL    HW1  526   0.028   0.980   1.780
  168SOL    HW2  527   0.190   0.983   1.768
  169SOL     OW  528   0.672   0.203   1.489
  169SOL    HW1  529   0.762   0.187   1.449
  169SOL    HW2  530   0.680   0.208   1.588
  170SOL     OW  531   0.075   0.345   0.033
  170SOL    HW1  532  -0.017   0.317   0.004
  170SOL    HW2  533   0.106   0.422  -0.023
  171SOL     OW  534   1.440   0.856   1.398
  171SOL    HW1  535   1.383   0.908   1.335
  171SOL    HW2  536   1.536   0.868   1.374
  172SOL     OW  537   0.072   0.166   0.318
  172SOL    HW1  538   0.055   0.249   0.264
  172SOL    HW2  539   0.162   0.129   0.296
  173SOL     OW  540   1.183   1.335   0.119
  173SOL    HW1  541   1.084   1.324   0.121
  173SOL    HW2  542   1.217   1.350   0.212
  174SOL     OW  543   0.613   0.842   1.431
  174SOL    HW1  544   0.669   0.923   1.414
  174SOL    HW2  545   0.672   0.762   1.434
  175SOL     OW  546   1.493   1.767   0.959
  175SOL    HW1  547   1.526   1.831   0.890
  175SOL    HW2  548   1.559   1.761   1.034
  176SOL     OW  549   0.716   0.565   1.708
  176SOL    HW1  550   0.735   0.630   1.782
  176SOL    HW2  551   0.776   0.485   1.717
  177SOL     OW  552   1.450   1.220   1.633
  177SOL    HW1  553   1.441   1.210   1.732
  177SOL    HW2  554   1.546   1.213   1.607
  178SOL     OW  555   0.390   1.741   1.560
  178SOL    HW1  556   0.299   1.782   1.558
  178SOL    HW2  557   0.383   1.647   1.592
  179SOL     OW  558   1.674   0.883   1.254
  179SOL    HW1  559   1.647   0.794   1.217
  179SOL    HW2  560   1.675   0.951   1.181
  180SOL     OW  561   1.225   0.325   0.449
  180SOL    HW1  562   1.290   0.251   0.438
  180SOL    HW2  563   1.245   0.375   0.533
  181SOL     OW  564   0.594   0.745   0.652
  181SOL    HW1  565   0.644   0.830   0.633
  181SOL    HW2  566   0.506   0.747   0.604
  182SOL     OW  567   1.777   0.342   1.642
  182SOL    HW1  568   1.760   0.373   1.548
  182SOL    HW2  569   1.693   0.305   1.680
  183SOL     OW  570   1.730   0.934   1.517
  183SOL    HW1  571   1.768   1.025   1.532
  183SOL    HW2  572   1.722   0.917   1.418
  184SOL     OW  573   0.859   1.374   0.016
  184SOL    HW1  574   0.813   1.389   0.104
  184SOL    HW2  575   0.903   1.459  -0.014
  185SOL     OW  576   0.661   1.790   0.953
  185SOL    HW1  577   0.615   1.878   0.940
  185SOL    HW2  578   0.760   1.802   0.946
  186SOL     OW  579   0.859   0.956   0.861
  186SOL    HW1  580   0.913   0.887   0.909
  186SOL    HW2  581   0.827   1.025   0.927
  187SOL     OW  582   1.083   0.984   0.087
  187SOL    HW1  583   1.060   1.037   0.005
  187SOL    HW2  584   1.164   0.928   0.068
  188SOL     OW  585   1.861   1.569   0.851
  188SOL    HW1  586   1.790   1.557   0.781
  188SOL    HW2  587   1.862   1.490   0.911
  189SOL     OW  588   0.221   1.314   1.844
  189SOL    HW1  589   0.156   1.241   1.823
  189SOL    HW2  590   0.225   1.328   1.942
  190SOL     OW  591   0.079   1.240   0.653
  190SOL    HW1  592   0.078   1.193   0.741
  190SOL    HW2  593   0.161   1.212   0.602
  191SOL     OW  594   0.672   1.391   1.624
  191SOL    HW1  595   0.594   1.341   1.662
  191SOL    HW2  596   0.669   1.486   1.655
  192SOL     OW  597   1.824   0.192   1.227
  192SOL    HW1  598   1.820   0.102   1.271
  192SOL    HW2  599   1.827   0.181   1.128
  193SOL     OW  600   0.428   0.424   0.520
  193SOL    HW1  601   0.458   0.352   0.458
  193SOL    HW2  602   0.389   0.384   0.603
  194SOL     OW  603   0.317   0.547   1.280
  194SOL    HW1  604   0.355   0.488   1.352
  194SOL    HW2  605   0.357   0.521   1.192
  195SOL     OW  606   0.812   1.586   0.687
  195SOL    HW1  607   0.844   1.596   0.593
  195SOL    HW2  608   0.733   1.524   0.689
  196SOL     OW  609   1.424   0.214   1.112
  196SOL    HW1  610   1.476   0.149   1.167
  196SOL    HW2  611   1.375   0.277   1.173
  197SOL     OW  612   1.001   0.034   1.154
  197SOL    HW1  613   0.938  -0.038   1.123
  197SOL    HW2  614   1.094  -0.002   1.154
  198SOL     OW  615   0.770   1.330   0.301
  198SOL    HW1  616   0.724   1.243   0.318
  198SOL    HW2  617   0.861   1.327   0.342
  199SOL     OW  618   0.618   1.567   1.284
  199SOL    HW1  619   0.613   1.649   1.341
  199SOL    HW2  620   0.707   1.564   1.239
  200SOL     OW  621   1.352   0.052   0.168
  200SOL    HW1  622   1.387   0.011   0.084
  200SOL    HW2  623   1.262   0.014   0.188
  201SOL     OW  624   1.300   0.453   0.691
  201SOL    HW1  625   1.241   0.533   0.695
  201SOL    HW2  626   1.315   0.418   0.784
  202SOL     OW  627   1.593   0.221   0.882
  202SOL    HW1  628   1.509   0.220   0.936
  202SOL    HW2  629   1.595   0.304   0.826
  203SOL     OW  630   0.039   1.077   0.300
  203SOL    HW1  631   0.138   1.066   0.291
  203SOL    HW2  632  -0.001   0.991   0.332
  204SOL     OW  633   0.875   1.646   0.337
  204SOL    HW1  634   0.798   1.611   0.283
  204SOL    HW2  635   0.843   1.717   0.399
  205SOL     OW  636   0.230   0.628   1.975
  205SOL    HW1  637   0.137   0.626   2.012
  205SOL    HW2  638   0.231   0.589   1.883
  206SOL     OW  639   0.225   0.275   2.858
  206SOL    HW1  640   0.260   0.258   2.950
  206SOL    HW2  641   0.137   0.230   2.846
  207SOL     OW  642   0.019   0.368   2.509
  207SOL    HW1  643  -0.063   0.411   2.548
  207SOL    HW2  644  -0.009   0.295   2.446
  208SOL     OW  645   1.755   0.607   2.093
  208SOL    HW1  646   1.743   0.594   1.994
  208SOL    HW2  647   1.725   0.526   2.142
  209SOL     OW  648   0.685   1.012   2.527
  209SOL    HW1  649   0.754   0.996   2.597
  209SOL    HW2  650   0.612   1.069   2.565
  210SOL     OW  651   1.603   0.447   2.599
  210SOL    HW1  652   1.529   0.493   2.549
  210SOL    HW2  653   1.654   0.515   2.652
  211SOL     OW  654   0.231   1.713   2.345
  211SOL    HW1  655   0.265   1.790   2.399
  211SOL    HW2  656   0.275   1.713   2.255
  212SOL     OW  657   0.230   1.434   2.400
  212SOL    HW1  658   0.204   1.530   2.400
  212SOL    HW2  659   0.159   1.380   2.445
  213SOL     OW  660   0.240   1.091   2.748
  213SOL    HW1  661   0.254   1.007   2.800
  213SOL    HW2  662   0.185   1.155   2.803
  214SOL     OW  663   0.606   0.964   1.985
  214SOL    HW1  664   0.613   1.048   1.931
  214SOL    HW2  665   0.652   0.977   2.073
  215SOL     OW  666   0.122   0.643   2.425
  215SOL    HW1  667   0.077   0.555   2.442
  215SOL    HW2  668   0.121   0.697   2.509
  216SOL     OW  669   1.842   1.767   2.221
  216SOL    HW1  670   1.896   1.738   2.301
  216SOL    HW2  671   1.872   1.857   2.192
  217SOL     OW  672   0.027   1.596   1.979
  217SOL    HW1  673   0.008   1.500   2.000
  217SOL    HW2  674  -0.006   1.654   2.054
  218SOL     OW  675   1.689   0.922   2.474
  218SOL    HW1  676   1.784   0.893   2.482
  218SOL    HW2  677   1.681   0.987   2.399
  219SOL     OW  678   1.641   1.108   2.294
  219SOL    HW1  679   1.727   1.110   2.242
  219SOL    HW2  680   1.655   1.155   2.382
  220SOL     OW  681   0.613   1.365   2.588
  220SOL    HW1  682   0.564   1.278   2.597
  220SOL    HW2  683   0.590   1.408   2.501
  221SOL     OW  684   0.809   0.004   2.364
  221SOL    HW1  685   0.849   0.095   2.355
  221SOL    HW2  686   0.709   0.012   2.370
  222SOL     OW  687   1.525   0.999   2.052
  222SOL    HW1  688   1.462   0.923   2.065
  222SOL    HW2  689   1.573   1.017   2.138
  223SOL     OW  690   1.667   1.714   2.434
  223SOL    HW1  691   1.626   1.691   2.346
  223SOL    HW2  692   1.649   1.640   2.499
  224SOL     OW  693   0.598   0.729   2.132
  224SOL    HW1  694   0.622   0.798   2.064
  224SOL    HW2  695   0.520   0.762   2.186
  225SOL     OW  696   1.281   0.345   2.806
  225SOL    HW1  697   1.195   0.295   2.793
  225SOL    HW2  698   1.343   0.291   2.862
  226SOL     OW  699   1.576   1.662   2.169
  226SOL    HW1  700   1.665   1.708   2.172
  226SOL    HW2  701   1.555   1.638   2.074
  227SOL     OW  702   1.041   0.701   2.291
  227SOL    HW1  703   1.067   0.697   2.387
  227SOL    HW2  704   0.956   0.650   2.277
  228SOL     OW  705   0.076   0.811   2.651
  228SOL    HW1  706   0.175   0.799   2.660
  228SOL    HW2  707   0.052   0.906   2.672
  229SOL     OW  708   0.865   0.348   2.057
  229SOL    HW1  709   0.924   0.411   2.008
  229SOL    HW2  710   0.884   0.254   2.028
  230SOL     OW  711   1.362   1.144   2.407
  230SOL    HW1  712   1.445   1.115   2.359
  230SOL    HW2  713   1.313   1.211   2.351
  231SOL     OW  714   1.008   1.456   2.339
  231SOL    HW1  715   0.962   1.528   2.287
  231SOL    HW2  716   1.004   1.476   2.437
  232SOL     OW  717   0.351   1.801   2.715
  232SOL    HW1  718   0.401   1.715   2.721
  232SOL    HW2  719   0.416   1.878   2.712
  233SOL     OW  720   1.795   1.066   2.735
  233SOL    HW1  721   1.733   1.051   2.659
  233SOL    HW2  722   1.743   1.077   2.820
  234SOL     OW  723   0.321   0.943   2.104
  234SOL    HW1  724   0.403   0.982   2.062
  234SOL    HW2  725   0.294   0.861   2.055
  235SOL     OW  726   1.111   1.776   2.099
  235SOL    HW1  727   1.051   1.714   2.149
  235SOL    HW2  728   1.142   1.732   2.014
  236SOL     OW  729   1.632   1.377   1.943
  236SOL    HW1  730   1.600   1.471   1.933
  236SOL    HW2  731   1.556   1.314   1.931
  237SOL     OW  732   0.464   1.743   2.185
  237SOL    HW1  733   0.497   1.782   2.271
  237SOL    HW2  734   0.540   1.736   2.120
  238SOL     OW  735   1.400   0.107   2.288
  238SOL    HW1  736   1.376   0.070   2.198
  238SOL    HW2  737   1.499   0.123   2.292
  239SOL     OW  738   0.940   1.698   2.766
  239SOL    HW1  739   1.020   1.641   2.787
  239SOL    HW2  740   0.891   1.658   2.689
  240SOL     OW  741   0.382   0.700   2.342
  240SOL    HW1  742   0.427   0.610   2.339
  240SOL    HW2  743   0.288   0.689   2.375
  241SOL     OW  744   0.614   0.122   1.979
  241SOL    HW1  745   0.712   0.100   1.986
  241SOL    HW2  746   0.583   0.105   1.886
  242SOL     OW  747   0.539   0.064   2.374
  242SOL    HW1  748   0.458   0.065   2.432
  242SOL    HW2  749   0.542   0.147   2.319
  243SOL     OW  750   1.434   1.188   1.903
  243SOL    HW1  751   1.466   1.112   1.960
  243SOL    HW2  752   1.342   1.215   1.933
  244SOL     OW  753   0.297   0.035   2.033
  244SOL    HW1  754   0.346   0.119   2.012
  244SOL    HW2  755   0.359  -0.030   2.078
  245SOL     OW  756   0.935   0.236   2.342
  245SOL    HW1  757   0.887   0.277   2.264
  245SOL    HW2  758   1.034   0.234   2.323
  246SOL     OW  759   0.459   1.152   2.603
  246SOL    HW1  760   0.388   1.125   2.668
  246SOL    HW2  761   0.433   1.124   2.510
  247SOL     OW  762   1.271   1.797   2.453
  247SOL    HW1  763   1.315   1.861   2.389
  247SOL    HW2  764   1.221   1.849   2.523
  248SOL     OW  765   1.032   0.549   1.878
  248SOL    HW1  766   0.991   0.631   1.839
  248SOL    HW2  767   1.096   0.575   1.951
  249SOL     OW  768   0.866   0.454   2.504
  249SOL    HW1  769   0.834   0.526   2.442
  249SOL    HW2  770   0.890   0.373   2.451
  250SOL     OW  771   1.857   0.833   2.239
  250SOL    HW1  772   1.899   0.769   2.303
  250SOL    HW2  773   1.819   0.782   2.161
  251SOL     OW  774   0.488   1.385   2.036
  251SOL    HW1  775   0.401   1.370   2.083
  251SOL    HW2  776   0.471   1.411   1.941
  252SOL     OW  777   1.664   1.280   2.519
  252SOL    HW1  778   1.763   1.288   2.533
  252SOL    HW2  779   1.619   1.364   2.550
  253SOL     OW  780   1.390   0.575   1.940
  253SOL    HW1  781   1.336   0.554   2.021
  253SOL    HW2  782   1.481   0.534   1.949
  254SOL     OW  783   0.527   0.256   2.190
  254SOL    HW1  784   0.554   0.197   2.115
  254SOL    HW2  785   0.527   0.351   2.159
  255SOL     OW  786   0.705   1.050   2.230
  255SOL    HW1  787   0.691   1.057   2.329
  255SOL    HW2  788   0.789   0.999   2.212
  256SOL     OW  789   0.367   1.100   2.363
  256SOL    HW1  790   0.360   1.183   2.307
  256SOL    HW2  791   0.371   1.020   2.303
  257SOL     OW  792   1.252   1.348   2.250
  257SOL    HW1  793   1.302   1.425   2.290
  257SOL    HW2  794   1.157   1.350   2.282
  258SOL     OW  795   1.582   0.639   2.334
  258SOL    HW1  796   1.551   0.700   2.407
  258SOL    HW2  797   1.632   0.691   2.265
  259SOL     OW  798   1.209   0.525   2.137
  259SOL    HW1  799   1.222   0.441   2.191
  259SOL    HW2  800   1.180   0.599   2.197
  260SOL     OW  801   0.307   0.063   2.480
  260SOL    HW1  802   0.296   0.157   2.513
  260SOL    HW2  803   0.302   0.000   2.557
  261SOL     OW  804   1.622   0.367   2.236
  261SOL    HW1  805   1.624   0.291   2.300
  261SOL    HW2  806   1.574   0.444   2.276
  262SOL     OW  807   1.540   0.274   1.987
  262SOL    HW1  808   1.479   0.199   2.010
  262SOL    HW2  809   1.562   0.326   2.070
  263SOL     OW  810   1.303   0.838   1.904
  263SOL    HW1  811   1.337   0.745   1.919
  263SOL    HW2  812   1.321   0.865   1.809
  264SOL     OW  813   0.008   1.326   2.062
  264SOL    HW1  814  -0.085   1.347   2.031
  264SOL    HW2  815   0.018   1.227   2.075
  265SOL     OW  816   0.040   0.544   2.976
  265SOL    HW1  817   0.125   0.511   2.935
  265SOL    HW2  818   0.053   0.559   3.074
  266SOL     OW  819   0.815   0.572   2.187
  266SOL    HW1  820   0.822   0.483   2.141
  266SOL    HW2  821   0.721   0.606   2.179
  267SOL     OW  822   0.473   0.500   2.053
  267SOL    HW1  823   0.534   0.580   2.057
  267SOL    HW2  824   0.378   0.531   2.060
  268SOL     OW  825   1.302   0.855   2.171
  268SOL    HW1  826   1.216   0.824   2.213
  268SOL    HW2  827   1.298   0.841   2.072
  269SOL     OW  828   1.726   0.135   2.385
  269SOL    HW1  829   1.799   0.118   2.318
  269SOL    HW2  830   1.695   0.048   2.423
  270SOL     OW  831   1.388   1.573   2.339
  270SOL    HW1  832   1.455   1.585   2.265
  270SOL    HW2  833   1.348   1.662   2.362
  271SOL     OW  834   0.672   1.616   2.016
  271SOL    HW1  835   0.681   1.626   1.917
  271SOL    HW2  836   0.632   1.527   2.037
  272SOL     OW  837   1.841   0.175   2.825
  272SOL    HW1  838   1.880   0.090   2.789
  272SOL    HW2  839   1.743   0.177   2.806
  273SOL     OW  840   0.263   0.326   2.582
  273SOL    HW1  841   0.184   0.377   2.548
  273SOL    HW2  842   0.254   0.311   2.680
  274SOL     OW  843   1.194   1.612   1.893
  274SOL    HW1  844   1.200   1.519   1.930
  274SOL    HW2  845   1.135   1.612   1.813
  275SOL     OW  846   0.916   0.910   2.153
  275SOL    HW1  847   0.979   0.948   2.085
  275SOL    HW2  848   0.956   0.827   2.192
  276SOL     OW  849   1.504   1.607   1.906
  276SOL    HW1  850   1.412   1.644   1.913
  276SOL    HW2  851   1.542   1.627   1.816
  277SOL     OW  852   0.590   1.487   2.353
  277SOL    HW1  853   0.632   1.429   2.283
  277SOL    HW2  854   0.546   1.566   2.309
  278SOL     OW  855   0.255   1.348   2.152
  278SOL    HW1  856   0.159   1.349   2.125
  278SOL    HW2  857   0.267   1.401   2.236
  279SOL     OW  858   0.075   0.345   1.895
  279SOL    HW1  859  -0.017   0.317   1.866
  279SOL    HW2  860   0.106   0.422   1.839
  280SOL     OW  861   0.072   0.166   2.180
  280SOL    HW1  862   0.055   0.249   2.126
  280SOL    HW2  863   0.162   0.129   2.158
  281SOL     OW  864   1.183   1.335   1.981
  281SOL    HW1  865   1.084   1.324   1.983
  281SOL    HW2  866   1.217   1.350   2.074
  282SOL     OW  867   1.225   0.325   2.311
  282SOL    HW1  868   1.290   0.251   2.300
  282SOL    HW2  869   1.245   0.375   2.395
  283SOL     OW  870   0.594   0.745   2.514
  283SOL    HW1  871   0.644   0.830   2.495
  283SOL    HW2  872   0.506   0.747   2.466
  284SOL     OW  873   0.859   1.374   1.878
  284SOL    HW1  874   0.813   1.389   1.966
  284SOL    HW2  875   0.903   1.459   1.848
  285SOL     OW  876   0.661   1.790   2.815
  285SOL    HW1  877   0.615   1.878   2.802
  285SOL    HW2  878   0.760   1.802   2.808
  286SOL     OW  879   0.859   0.956   2.723
  286SOL    HW1  880   0.913   0.887   2.771
  286SOL    HW2  881   0.827   1.025   2.789
  287SOL     OW  882   1.083   0.984   1.949
  287SOL    HW1  883   1.060   1.037   1.867
  287SOL    HW2  884   1.164   0.928   1.930
  288SOL     OW  885   0.079   1.240   2.515
  288SOL    HW1  886   0.078   1.193   2.603
  288SOL    HW2  887   0.161   1.212   2.464
  289SOL     OW  888   0.428   0.424   2.382
  289SOL    HW1  889   0.458   0.352   2.320
  289SOL    HW2  890   0.389   0.384   2.465
  290SOL     OW  891   1.705   1.487   2.966
  290SOL    HW1  892   1.612   1.462   2.939
  290SOL    HW2  893   1.731   1.437   3.048
  291SOL     OW  894   0.812   1.586   2.549
  291SOL    HW1  895   0.844   1.596   2.455
  291SOL    HW2  896   0.733   1.524   2.551
  292SOL     OW  897   0.770   1.330   2.163
  292SOL    HW1  898   0.724   1.243   2.180
  292SOL    HW2  899   0.861   1.327   2.204
  293SOL     OW  900   1.352   0.052   2.030
  293SOL    HW1  901   1.387   0.011   1.946
  293SOL    HW2  902   1.262   0.014   2.050
  294SOL     OW  903   1.300   0.453   2.553
  294SOL    HW1  904   1.241   0.533   2.557
  294SOL    HW2  905   1.315   0.418   2.646
  295SOL     OW  906   0.039   1.077   2.162
  295SOL    HW1  907   0.138   1.066   2.153
  295SOL    HW2  908  -0.001   0.991   2.194
  296SOL     OW  909   0.875   1.646   2.199
  296SOL    HW1  910   0.798   1.611   2.145
  296SOL    HW2  911   0.843   1.717   2.261
  297SOL     OW  912   0.230   2.490   0.113
  297SOL    HW1  913   0.137   2.488   0.150
  297SOL    HW2  914   0.231   2.451   0.021
  298SOL     OW  915   0.225   2.137   0.996
  298SOL    HW1  916   0.260   2.120   1.088
  298SOL    HW2  917   0.137   2.092   0.984
  299SOL     OW  918   0.019   2.230   0.647
  299SOL    HW1  919  -0.063   2.273   0.686
  299SOL    HW2  920  -0.009   2.157   0.584
  300SOL     OW  921   1.755   2.469   0.231
  300SOL    HW1  922   1.743   2.456   0.132
  300SOL    HW2  923   1.725   2.388   0.280
  301SOL     OW  924   0.850   2.660   1.823
  301SOL    HW1  925   0.846   2.736   1.888
  301SOL    HW2  926   0.872   2.696   1.732
  302SOL     OW  927   0.685   2.874   0.665
  302SOL    HW1  928   0.754   2.858   0.735
  302SOL    HW2  929   0.612   2.931   0.703
  303SOL     OW  930   0.438   2.254   1.499
  303SOL    HW1  931   0.520   2.198   1.508
  303SOL    HW2  932   0.357   2.196   1.503
  304SOL     OW  933   1.603   2.309   0.737
  304SOL    HW1  934   1.529   2.355   0.687
  304SOL    HW2  935   1.654   2.377   0.790
  305SOL     OW  936   1.594   1.976   1.480
  305SOL    HW1  937   1.576   2.043   1.408
  305SOL    HW2  938   1.591   2.022   1.569
  306SOL     OW  939   0.122   2.505   0.563
  306SOL    HW1  940   0.077   2.417   0.580
  306SOL    HW2  941   0.121   2.559   0.647
  307SOL     OW  942   0.113   2.599   1.597
  307SOL    HW1  943   0.201   2.586   1.642
  307SOL    HW2  944   0.100   2.696   1.575
  308SOL     OW  945   0.809   1.866   0.502
  308SOL    HW1  946   0.849   1.957   0.493
  308SOL    HW2  947   0.709   1.874   0.508
  309SOL     OW  948   0.317   2.113   1.801
  309SOL    HW1  949   0.388   2.184   1.807
  309SOL    HW2  950   0.229   2.152   1.829
  310SOL     OW  951   0.598   2.591   0.270
  310SOL    HW1  952   0.622   2.660   0.202
  310SOL    HW2  953   0.520   2.624   0.324
  311SOL     OW  954   1.281   2.207   0.944
  311SOL    HW1  955   1.195   2.157   0.931
  311SOL    HW2  956   1.343   2.153   1.000
  312SOL     OW  957   0.807   2.467   1.465
  312SOL    HW1  958   0.760   2.464   1.554
  312SOL    HW2  959   0.756   2.412   1.399
  313SOL     OW  960   1.394   2.331   1.674
  313SOL    HW1  961   1.374   2.374   1.762
  313SOL    HW2  962   1.472   2.269   1.683
  314SOL     OW  963   0.991   2.272   1.242
  314SOL    HW1  964   0.914   2.306   1.296
  314SOL    HW2  965   0.957   2.221   1.163
  315SOL     OW  966   1.041   2.563   0.429
  315SOL    HW1  967   1.067   2.559   0.525
  315SOL    HW2  968   0.956   2.512   0.415
  316SOL     OW  969   0.076   2.673   0.789
  316SOL    HW1  970   0.175   2.661   0.798
  316SOL    HW2  971   0.052   2.768   0.810
  317SOL     OW  972   0.865   2.210   0.195
  317SOL    HW1  973   0.924   2.273   0.146
  317SOL    HW2  974   0.884   2.116   0.166
  318SOL     OW  975   1.719   2.447   1.831
  318SOL    HW1  976   1.693   2.536   1.795
  318SOL    HW2  977   1.717   2.379   1.758
  319SOL     OW  978   0.550   2.058   0.885
  319SOL    HW1  979   0.545   2.053   0.985
  319SOL    HW2  980   0.552   2.154   0.856
  320SOL     OW  981   1.458   2.597   0.728
  320SOL    HW1  982   1.453   2.532   0.803
  320SOL    HW2  983   1.538   2.656   0.741
  321SOL     OW  984   0.202   2.147   1.498
  321SOL    HW1  985   0.122   2.207   1.485
  321SOL    HW2  986   0.192   2.098   1.584
  322SOL     OW  987   1.400   1.969   0.426
  322SOL    HW1  988   1.376   1.932   0.336
  322SOL    HW2  989   1.499   1.985   0.430
  323SOL     OW  990   0.382   2.562   0.480
  323SOL    HW1  991   0.427   2.472   0.477
  323SOL    HW2  992   0.288   2.551   0.513
  324SOL     OW  993   1.547   2.084   1.729
  324SOL    HW1  994   1.542   2.121   1.821
  324SOL    HW2  995   1.475   2.015   1.717
  325SOL     OW  996   0.781   2.126   1.749
  325SOL    HW1  997   0.848   2.065   1.792
  325SOL    HW2  998   0.708   2.145   1.814
  326SOL     OW  999   1.351   2.452   1.433
  326SOL    HW1 1000   1.379   2.409   1.518
  326SOL    HW2 1001   1.376   2.548   1.434
  327SOL     OW 1002   0.922   2.365   0.899
  327SOL    HW1 1003   0.897   2.356   0.803
  327SOL    HW2 1004   0.970   2.283   0.930
  328SOL     OW 1005   0.539   1.926   0.512
  328SOL    HW1 1006   0.458   1.927   0.570
  328SOL    HW2 1007   0.542   2.009   0.457
  329SOL     OW 1008   0.297   1.897   0.171
  329SOL    HW1 1009   0.346   1.981   0.150
  329SOL    HW2 1010   0.359   1.832   0.216
  330SOL     OW 1011   0.935   2.098   0.480
  330SOL    HW1 1012   0.887   2.139   0.402
  330SOL    HW2 1013   1.034   2.096   0.461
  331SOL     OW 1014   1.076   2.545   1.464
  331SOL    HW1 1015   0.996   2.484   1.467
  331SOL    HW2 1016   1.157   2.492   1.440
  332SOL     OW 1017   1.032   2.411   0.016
  332SOL    HW1 1018   0.991   2.493  -0.023
  332SOL    HW2 1019   1.096   2.437   0.089
  333SOL     OW 1020   0.078   2.418   1.386
  333SOL    HW1 1021   0.170   2.417   1.345
  333SOL    HW2 1022   0.072   2.492   1.453
  334SOL     OW 1023   0.561   2.084   1.147
  334SOL    HW1 1024   0.599   2.000   1.184
  334SOL    HW2 1025   0.473   2.103   1.191
  335SOL     OW 1026   0.866   2.316   0.642
  335SOL    HW1 1027   0.834   2.388   0.580
  335SOL    HW2 1028   0.890   2.235   0.589
  336SOL     OW 1029   1.017   1.901   0.753
  336SOL    HW1 1030   0.945   1.906   0.684
  336SOL    HW2 1031   0.993   1.832   0.822
  337SOL     OW 1032   1.466   2.452   0.992
  337SOL    HW1 1033   1.436   2.357   0.999
  337SOL    HW2 1034   1.539   2.468   1.058
  338SOL     OW 1035   1.390   2.437   0.078
  338SOL    HW1 1036   1.336   2.416   0.159
  338SOL    HW2 1037   1.481   2.396   0.087
  339SOL     OW 1038   0.527   2.118   0.328
  339SOL    HW1 1039   0.554   2.059   0.253
  339SOL    HW2 1040   0.527   2.213   0.297
  340SOL     OW 1041   0.915   1.951   1.402
  340SOL    HW1 1042   0.940   1.931   1.307
  340SOL    HW2 1043   0.987   2.007   1.444
  341SOL     OW 1044   0.705   2.912   0.368
  341SOL    HW1 1045   0.691   2.919   0.467
  341SOL    HW2 1046   0.789   2.861   0.350
  342SOL     OW 1047   0.410   2.675   1.251
  342SOL    HW1 1048   0.496   2.687   1.301
  342SOL    HW2 1049   0.368   2.588   1.278
  343SOL     OW 1050   1.274   2.248   1.262
  343SOL    HW1 1051   1.295   2.322   1.326
  343SOL    HW2 1052   1.185   2.265   1.219
  344SOL     OW 1053   0.566   2.399   0.865
  344SOL    HW1 1054   0.578   2.465   0.791
  344SOL    HW2 1055   0.612   2.433   0.948
  345SOL     OW 1056   1.582   2.501   0.472
  345SOL    HW1 1057   1.551   2.562   0.545
  345SOL    HW2 1058   1.632   2.553   0.403
  346SOL     OW 1059   1.587   2.641   1.670
  346SOL    HW1 1060   1.495   2.679   1.665
  346SOL    HW2 1061   1.647   2.688   1.605
  347SOL     OW 1062   1.013   1.967   1.770
  347SOL    HW1 1063   1.019   2.052   1.718
  347SOL    HW2 1064   1.045   1.891   1.713
  348SOL     OW 1065   0.504   1.912   1.740
  348SOL    HW1 1066   0.462   1.855   1.670
  348SOL    HW2 1067   0.438   1.981   1.772
  349SOL     OW 1068   1.360   2.724   1.045
  349SOL    HW1 1069   1.285   2.724   0.979
  349SOL    HW2 1070   1.397   2.632   1.054
  350SOL     OW 1071   1.209   2.387   0.275
  350SOL    HW1 1072   1.222   2.303   0.329
  350SOL    HW2 1073   1.180   2.461   0.335
  351SOL     OW 1074   0.307   2.075   1.231
  351SOL    HW1 1075   0.284   2.112   1.321
  351SOL    HW2 1076   0.277   1.980   1.225
  352SOL     OW 1077   0.732   2.496   1.064
  352SOL    HW1 1078   0.791   2.470   0.988
  352SOL    HW2 1079   0.704   2.592   1.053
  353SOL     OW 1080   1.728   2.797   1.854
  353SOL    HW1 1081   1.682   2.790   1.765
  353SOL    HW2 1082   1.666   2.841   1.920
  354SOL     OW 1083   0.307   1.925   0.618
  354SOL    HW1 1084   0.296   2.019   0.651
  354SOL    HW2 1085   0.302   1.862   0.695
  355SOL     OW 1086   1.622   2.229   0.374
  355SOL    HW1 1087   1.624   2.153   0.438
  355SOL    HW2 1088   1.574   2.306   0.414
  356SOL     OW 1089   1.540   2.136   0.125
  356SOL    HW1 1090   1.479   2.061   0.148
  356SOL    HW2 1091   1.562   2.188   0.208
  357SOL     OW 1092   0.319   2.672   0.949
  357SOL    HW1 1093   0.412   2.708   0.954
  357SOL    HW2 1094   0.313   2.587   1.001
  358SOL     OW 1095   0.339   2.371   1.006
  358SOL    HW1 1096   0.287   2.288   0.989
  358SOL    HW2 1097   0.416   2.376   0.942
  359SOL     OW 1098   1.138   2.242   1.678
  359SOL    HW1 1099   1.093   2.305   1.742
  359SOL    HW2 1100   1.231   2.273   1.661
  360SOL     OW 1101   1.160   2.069   1.477
  360SOL    HW1 1102   1.160   2.133   1.554
  360SOL    HW2 1103   1.188   2.117   1.394
  361SOL     OW 1104   0.040   2.406   1.114
  361SOL    HW1 1105   0.125   2.373   1.073
  361SOL    HW2 1106   0.053   2.421   1.212
  362SOL     OW 1107   0.189   2.382   1.722
  362SOL    HW1 1108   0.248   2.342   1.652
  362SOL    HW2 1109   0.131   2.453   1.681
  363SOL     OW 1110   0.815   2.434   0.325
  363SOL    HW1 1111   0.822   2.345   0.279
  363SOL    HW2 1112   0.721   2.468   0.317
  364SOL     OW 1113   1.657   2.466   1.206
  364SOL    HW1 1114   1.619   2.397   1.268
  364SOL    HW2 1115   1.739   2.430   1.162
  365SOL     OW 1116   0.671   2.326   1.269
  365SOL    HW1 1117   0.637   2.237   1.239
  365SOL    HW2 1118   0.697   2.380   1.189
  366SOL     OW 1119   0.473   2.362   0.191
  366SOL    HW1 1120   0.534   2.442   0.195
  366SOL    HW2 1121   0.378   2.393   0.198
  367SOL     OW 1122   0.903   1.948   0.133
  367SOL    HW1 1123   0.954   1.949   0.047
  367SOL    HW2 1124   0.959   1.906   0.204
  368SOL     OW 1125   1.726   1.997   0.523
  368SOL    HW1 1126   1.799   1.980   0.456
  368SOL    HW2 1127   1.695   1.910   0.561
  369SOL     OW 1128   1.280   2.789   0.672
  369SOL    HW1 1129   1.340   2.708   0.674
  369SOL    HW2 1130   1.320   2.858   0.612
  370SOL     OW 1131   1.841   2.037   0.963
  370SOL    HW1 1132   1.880   1.952   0.927
  370SOL    HW2 1133   1.743   2.039   0.944
  371SOL     OW 1134   0.263   2.188   0.720
  371SOL    HW1 1135   0.184   2.239   0.686
  371SOL    HW2 1136   0.254   2.173   0.818
  372SOL     OW 1137   1.014   2.098   0.971
  372SOL    HW1 1138   1.006   2.062   0.878
  372SOL    HW2 1139   1.012   2.022   1.036
  373SOL     OW 1140   1.709   2.247   1.381
  373SOL    HW1 1141   1.782   2.316   1.385
  373SOL    HW2 1142   1.737   2.172   1.322
  374SOL     OW 1143   0.105   2.875   1.726
  374SOL    HW1 1144   0.028   2.842   1.780
  374SOL    HW2 1145   0.190   2.845   1.768
  375SOL     OW 1146   0.672   2.065   1.489
  375SOL    HW1 1147   0.762   2.049   1.449
  375SOL    HW2 1148   0.680   2.070   1.588
  376SOL     OW 1149   0.075   2.207   0.033
  376SOL    HW1 1150  -0.017   2.179   0.004
  376SOL    HW2 1151   0.106   2.284  -0.023
  377SOL     OW 1152   0.072   2.028   0.318
  377SOL    HW1 1153   0.055   2.111   0.264
  377SOL    HW2 1154   0.162   1.991   0.296
  378SOL     OW 1155   0.716   2.427   1.708
  378SOL    HW1 1156   0.735   2.492   1.782
  378SOL    HW2 1157   0.776   2.347   1.717
  379SOL     OW 1158   1.225   2.187   0.449
  379SOL    HW1 1159   1.290   2.113   0.438
  379SOL    HW2 1160   1.245   2.237   0.533
  380SOL     OW 1161   0.594   2.607   0.652
  380SOL    HW1 1162   0.644   2.692   0.633
  380SOL    HW2 1163   0.506   2.609   0.604
  381SOL     OW 1164   1.777   2.204   1.642
  381SOL    HW1 1165   1.760   2.235   1.548
  381SOL    HW2 1166   1.693   2.167   1.680
  382SOL     OW 1167   0.859   2.818   0.861
  382SOL    HW1 1168   0.913   2.749   0.909
  382SOL    HW2 1169   0.827   2.887   0.927
  383SOL     OW 1170   1.824   2.054   1.227
  383SOL    HW1 1171   1.820   1.964   1.271
  383SOL    HW2 1172   1.827   2.043   1.128
  384SOL     OW 1173   0.428   2.286   0.520
  384SOL    HW1 1174   0.458   2.214   0.458
  384SOL    HW2 1175   0.389   2.246   0.603
  385SOL     OW 1176   0.317   2.409   1.280
  385SOL    HW1 1177   0.355   2.350   1.352
  385SOL    HW2 1178   0.357   2.383   1.192
  386SOL     OW 1179   1.424   2.076   1.112
  386SOL    HW1 1180   1.476   2.011   1.167
  386SOL    HW2 1181   1.375   2.139   1.173
  387SOL     OW 1182   1.001   1.896   1.154
  387SOL    HW1 1183   0.938   1.824   1.123
  387SOL    HW2 1184   1.094   1.860   1.154
  388SOL     OW 1185   1.352   1.914   0.168
  388SOL    HW1 1186   1.387   1.873   0.084
  388SOL    HW2 1187   1.262   1.876   0.188
  389SOL     OW 1188   1.300   2.315   0.691
  389SOL    HW1 1189   1.241   2.395   0.695
  389SOL    HW2 1190   1.315   2.280   0.784
  390SOL     OW 1191   1.593   2.083   0.882
  390SOL    HW1 1192   1.509   2.082   0.936
  390SOL    HW2 1193   1.595   2.166   0.826
  391SOL     OW 1194   0.230   2.490   1.975
  391SOL    HW1 1195   0.137   2.488   2.012
  391SOL    HW2 1196   0.231   2.451   1.883
  392SOL     OW 1197   0.225   2.137   2.858
  392SOL    HW1 1198   0.260   2.120   2.950
  392SOL    HW2 1199   0.137   2.092   2.846
  393SOL     OW 1200   0.019   2.230   2.509
  393SOL    HW1 1201  -0.063   2.273   2.548
  393SOL    HW2 1202  -0.009   2.157   2.446
  394SOL     OW 1203   1.755   2.469   2.093
  394SOL    HW1 1204   1.743   2.456   1.994
  394SOL    HW2 1205   1.725   2.388   2.142
  395SOL     OW 1206   0.685   2.874   2.527
  395SOL    HW1 1207   0.754   2.858   2.597
  395SOL    HW2 1208   0.612   2.931   2.565
  396SOL     OW 1209   1.603   2.309   2.599
  396SOL    HW1 1210   1.529   2.355   2.549
  396SOL    HW2 1211   1.654   2.377   2.652
  397SOL     OW 1212   0.122   2.505   2.425
  397SOL    HW1 1213   0.077   2.417   2.442
  397SOL    HW2 1214   0.121   2.559   2.509
  398SOL     OW 1215   0.809   1.866   2.364
  398SOL    HW1 1216   0.849   1.957   2.355
  398SOL    HW2 1217   0.709   1.874   2.370
  399SOL     OW 1218   0.598   2.591   2.132
  399SOL    HW1 1219   0.622   2.660   2.064
  399SOL    HW2 1220   0.520   2.624   2.186
  400SOL     OW 1221   1.281   2.207   2.806
  400SOL    HW1 1222   1.195   2.157   2.793
  400SOL    HW2 1223   1.343   2.153   2.862
  401SOL     OW 1224   1.041   2.563   2.291
  401SOL    HW1 1225   1.067   2.559   2.387
  401SOL    HW2 1226   0.956   2.512   2.277
  402SOL     OW 1227   0.076   2.673   2.651
  402SOL    HW1 1228   0.175   2.661   2.660
  402SOL    HW2 1229   0.052   2.768   2.672
  403SOL     OW 1230   0.865   2.210   2.057
  403SOL    HW1 1231   0.924   2.273   2.008
  403SOL    HW2 1232   0.884   2.116   2.028
  404SOL     OW 1233   1.400   1.969   2.288
  404SOL    HW1 1234   1.376   1.932   2.198
  404SOL    HW2 1235   1.499   1.985   2.292
  405SOL     OW 1236   0.382   2.562   2.342
  405SOL    HW1 1237   0.427   2.472   2.339
  405SOL    HW2 1238   0.288   2.551   2.375
  406SOL     OW 1239   0.614   1.984   1.979
  406SOL    HW1 1240   0.712   1.962   1.986
  406SOL    HW2 1241   0.583   1.967   1.886
  407SOL     OW 1242   0.539   1.926   2.374
  407SOL    HW1 1243   0.458   1.927   2.432
  407SOL    HW2 1244   0.542   2.009   2.319
  408SOL     OW 1245   0.297   1.897   2.033
  408SOL    HW1 1246   0.346   1.981   2.012
  408SOL    HW2 1247   0.359   1.832   2.078
  409SOL     OW 1248   0.935   2.098   2.342
  409SOL    HW1 1249   0.887   2.139   2.264
  409SOL    HW2 1250   1.034   2.096   2.323
  410SOL     OW 1251   1.032   2.411   1.878
  410SOL    HW1 1252   0.991   2.493   1.839
  410SOL    HW2 1253   1.096   2.437   1.951
  411SOL     OW 1254   0.866   2.316   2.504
  411SOL    HW1 1255   0.834   2.388   2.442
  411SOL    HW2 1256   0.890   2.235   2.451
  412SOL     OW 1257   1.390   2.437   1.940
  412SOL    HW1 1258   1.336   2.416   2.021
  412SOL    HW2 1259   1.481   2.396   1.949
  413SOL     OW 1260   0.527   2.118   2.190
  413SOL    HW1 1261   0.554   2.059   2.115
  413SOL    HW2 1262   0.527   2.213   2.159
  414SOL     OW 1263   0.705   2.912   2.230
  414SOL    HW1 1264   0.691   2.919   2.329
  414SOL    HW2 1265   0.789   2.861   2.212
  415SOL     OW 1266   1.582   2.501   2.334
  415SOL    HW1 1267   1.551   2.562   2.407
  415SOL    HW2 1268   1.632   2.553   2.265
  416SOL     OW 1269   1.209   2.387   2.137
  416SOL    HW1 1270   1.222   2.303   2.191
  416SOL    HW2 1271   1.180   2.461   2.197
  417SOL     OW 1272   0.307   1.925   2.480
  417SOL    HW1 1273   0.296   2.019   2.513
  417SOL    HW2 1274   0.302   1.862   2.557
  418SOL     OW 1275   1.622   2.229   2.236
  418SOL    HW1 1276   1.624   2.153   2.300
  418SOL    HW2 1277   1.574   2.306   2.276
  419SOL     OW 1278   1.540   2.136   1.987
  419SOL    HW1 1279   1.479   2.061   2.010
  419SOL    HW2 1280   1.562   2.188   2.070
  420SOL     OW 1281   0.040   2.406   2.976
  420SOL    HW1 1282   0.125   2.373   2.935
  420SOL    HW2 1283   0.053   2.421   3.074
  421SOL     OW 1284   0.815   2.434   2.187
  421SOL    HW1 1285   0.822   2.345   2.141
  421SOL    HW2 1286   0.721   2.468   2.179
  422SOL     OW 1287   0.473   2.362   2.053
  422SOL    HW1 1288   0.534   2.442   2.057
  422SOL    HW2 1289   0.378   2.393   2.060
  423SOL     OW 1290   1.726   1.997   2.385
  423SOL    HW1 1291   1.799   1.980   2.318
  423SOL    HW2 1292   1.695   1.910   2.423
  424SOL     OW 1293   1.280   2.789   2.534
  424SOL    HW1 1294   1.340   2.708   2.536
  424SOL    HW2 1295   1.320   2.858   2.474
  425SOL     OW 1296   1.841   2.037   2.825
  425SOL    HW1 1297   1.880   1.952   2.789
  425SOL    HW2 1298   1.743   2.039   2.806
  426SOL     OW 1299   0.263   2.188   2.582
  426SOL    HW1 1300   0.184   2.239   2.548
  426SOL    HW2 1301   0.254   2.173   2.680
  427SOL     OW 1302   0.916   2.772   2.153
  427SOL    HW1 1303   0.979   2.810   2.085
  427SOL    HW2 1304   0.956   2.689   2.192
  428SOL     OW 1305   1.039   2.960   2.558
  428SOL    HW1 1306   0.969   2.913   2.612
  428SOL    HW2 1307   1.098   2.892   2.515
  429SOL     OW 1308   0.075   2.207   1.895
  429SOL    HW1 1309  -0.017   2.179   1.866
  429SOL    HW2 1310   0.106   2.284   1.839
  430SOL     OW 1311   0.072   2.028   2.180
  430SOL    HW1 1312   0.055   2.111   2.126
  430SOL    HW2 1313   0.162   1.991   2.158
  431SOL     OW 1314   1.225   2.187   2.311
  431SOL    HW1 1315   1.290   2.113   2.300
  431SOL    HW2 1316   1.245   2.237   2.395
  432SOL     OW 1317   0.594   2.607   2.514
  432SOL    HW1 1318   0.644   2.692   2.495
  432SOL    HW2 1319   0.506   2.609   2.466
  433SOL     OW 1320   0.428   2.286   2.382
  433SOL    HW1 1321   0.458   2.214   2.320
  433SOL    HW2 1322   0.389   2.246   2.465
  434SOL     OW 1323   1.352   1.914   2.030
  434SOL    HW1 1324   1.387   1.873   1.946
  434SOL    HW2 1325   1.262   1.876   2.050
  435SOL     OW 1326   1.300   2.315   2.553
  435SOL    HW1 1327   1.241   2.395   2.557
  435SOL    HW2 1328   1.315   2.280   2.646
  436SOL     OW 1329   2.092   0.628   0.113
  436SOL    HW1 1330   1.999   0.626   0.150
  436SOL    HW2 1331   2.093   0.589   0.021
  437SOL     OW 1332   2.087   0.275   0.996
  437SOL    HW1 1333   2.122   0.258   1.088
  437SOL    HW2 1334   1.999   0.230   0.984
  438SOL     OW 1335   1.881   0.368   0.647
  438SOL    HW1 1336   1.799   0.411   0.686
  438SOL    HW2 1337   1.853   0.295   0.584
  439SOL     OW 1338   2.431   1.275   1.165
  439SOL    HW1 1339   2.338   1.268   1.128
  439SOL    HW2 1340   2.442   1.364   1.209
  440SOL     OW 1341   2.712   0.798   1.823
  440SOL    HW1 1342   2.708   0.874   1.888
  440SOL    HW2 1343   2.734   0.834   1.732
  441SOL     OW 1344   2.547   1.012   0.665
  441SOL    HW1 1345   2.616   0.996   0.735
  441SOL    HW2 1346   2.474   1.069   0.703
  442SOL     OW 1347   2.548   1.161   1.803
  442SOL    HW1 1348   2.608   1.240   1.817
  442SOL    HW2 1349   2.462   1.192   1.762
  443SOL     OW 1350   2.197   1.435   1.061
  443SOL    HW1 1351   2.119   1.404   1.008
  443SOL    HW2 1352   2.255   1.493   1.004
  444SOL     OW 1353   2.300   0.392   1.499
  444SOL    HW1 1354   2.382   0.336   1.508
  444SOL    HW2 1355   2.219   0.334   1.503
  445SOL     OW 1356   2.093   1.713   0.483
  445SOL    HW1 1357   2.127   1.790   0.537
  445SOL    HW2 1358   2.137   1.713   0.393
  446SOL     OW 1359   2.092   1.434   0.538
  446SOL    HW1 1360   2.066   1.530   0.538
  446SOL    HW2 1361   2.021   1.380   0.583
  447SOL     OW 1362   2.102   1.091   0.886
  447SOL    HW1 1363   2.116   1.007   0.938
  447SOL    HW2 1364   2.047   1.155   0.941
  448SOL     OW 1365   2.482   1.786   1.439
  448SOL    HW1 1366   2.390   1.769   1.474
  448SOL    HW2 1367   2.510   1.878   1.465
  449SOL     OW 1368   2.468   0.964   0.123
  449SOL    HW1 1369   2.475   1.048   0.069
  449SOL    HW2 1370   2.514   0.977   0.211
  450SOL     OW 1371   1.984   0.643   0.563
  450SOL    HW1 1372   1.939   0.555   0.580
  450SOL    HW2 1373   1.983   0.697   0.647
  451SOL     OW 1374   1.889   1.596   0.117
  451SOL    HW1 1375   1.870   1.500   0.138
  451SOL    HW2 1376   1.856   1.654   0.192
  452SOL     OW 1377   1.975   0.737   1.597
  452SOL    HW1 1378   2.063   0.724   1.642
  452SOL    HW2 1379   1.962   0.834   1.575
  453SOL     OW 1380   2.475   1.365   0.726
  453SOL    HW1 1381   2.426   1.278   0.735
  453SOL    HW2 1382   2.452   1.408   0.639
  454SOL     OW 1383   2.671   0.004   0.502
  454SOL    HW1 1384   2.711   0.095   0.493
  454SOL    HW2 1385   2.571   0.012   0.508
  455SOL     OW 1386   2.059   0.976   1.264
  455SOL    HW1 1387   2.148   0.931   1.250
  455SOL    HW2 1388   1.986   0.911   1.245
  456SOL     OW 1389   2.179   0.251   1.801
  456SOL    HW1 1390   2.250   0.322   1.807
  456SOL    HW2 1391   2.091   0.290   1.829
  457SOL     OW 1392   2.460   0.729   0.270
  457SOL    HW1 1393   2.484   0.798   0.202
  457SOL    HW2 1394   2.382   0.762   0.324
  458SOL     OW 1395   1.938   0.811   0.789
  458SOL    HW1 1396   2.037   0.799   0.798
  458SOL    HW2 1397   1.914   0.906   0.810
  459SOL     OW 1398   1.992   1.821   1.571
  459SOL    HW1 1399   1.982   1.806   1.670
  459SOL    HW2 1400   1.906   1.857   1.535
  460SOL     OW 1401   2.412   0.196   0.885
  460SOL    HW1 1402   2.407   0.191   0.985
  460SOL    HW2 1403   2.414   0.292   0.856
  461SOL     OW 1404   2.213   1.801   0.853
  461SOL    HW1 1405   2.263   1.715   0.859
  461SOL    HW2 1406   2.278   1.878   0.850
  462SOL     OW 1407   2.183   0.943   0.242
  462SOL    HW1 1408   2.265   0.982   0.200
  462SOL    HW2 1409   2.156   0.861   0.193
  463SOL     OW 1410   2.323   1.266   1.727
  463SOL    HW1 1411   2.273   1.267   1.641
  463SOL    HW2 1412   2.260   1.248   1.803
  464SOL     OW 1413   2.064   0.285   1.498
  464SOL    HW1 1414   1.984   0.345   1.485
  464SOL    HW2 1415   2.054   0.236   1.584
  465SOL     OW 1416   2.326   1.743   0.323
  465SOL    HW1 1417   2.359   1.782   0.409
  465SOL    HW2 1418   2.402   1.736   0.258
  466SOL     OW 1419   2.111   1.785   1.241
  466SOL    HW1 1420   2.168   1.720   1.291
  466SOL    HW2 1421   2.095   1.752   1.148
  467SOL     OW 1422   2.244   0.700   0.480
  467SOL    HW1 1423   2.289   0.610   0.477
  467SOL    HW2 1424   2.150   0.689   0.513
  468SOL     OW 1425   2.476   0.122   0.117
  468SOL    HW1 1426   2.574   0.100   0.124
  468SOL    HW2 1427   2.445   0.105   0.024
  469SOL     OW 1428   2.665   1.402   0.924
  469SOL    HW1 1429   2.755   1.416   0.882
  469SOL    HW2 1430   2.594   1.404   0.853
  470SOL     OW 1431   2.784   0.503   0.899
  470SOL    HW1 1432   2.759   0.494   0.803
  470SOL    HW2 1433   2.832   0.421   0.930
  471SOL     OW 1434   2.401   0.064   0.512
  471SOL    HW1 1435   2.320   0.065   0.570
  471SOL    HW2 1436   2.404   0.147   0.457
  472SOL     OW 1437   2.159   0.035   0.171
  472SOL    HW1 1438   2.208   0.119   0.150
  472SOL    HW2 1439   2.221  -0.030   0.216
  473SOL     OW 1440   2.321   1.152   0.741
  473SOL    HW1 1441   2.250   1.125   0.806
  473SOL    HW2 1442   2.295   1.124   0.648
  474SOL     OW 1443   1.940   0.556   1.386
  474SOL    HW1 1444   2.032   0.555   1.345
  474SOL    HW2 1445   1.934   0.630   1.453
  475SOL     OW 1446   2.423   0.222   1.147
  475SOL    HW1 1447   2.461   0.138   1.184
  475SOL    HW2 1448   2.335   0.241   1.191
  476SOL     OW 1449   2.350   1.385   0.174
  476SOL    HW1 1450   2.263   1.370   0.221
  476SOL    HW2 1451   2.333   1.411   0.079
  477SOL     OW 1452   2.389   0.256   0.328
  477SOL    HW1 1453   2.416   0.197   0.253
  477SOL    HW2 1454   2.389   0.351   0.297
  478SOL     OW 1455   2.777   0.089   1.402
  478SOL    HW1 1456   2.802   0.069   1.307
  478SOL    HW2 1457   2.849   0.145   1.444
  479SOL     OW 1458   2.272   0.813   1.251
  479SOL    HW1 1459   2.358   0.825   1.301
  479SOL    HW2 1460   2.230   0.726   1.278
  480SOL     OW 1461   1.926   1.564   1.331
  480SOL    HW1 1462   1.880   1.646   1.297
  480SOL    HW2 1463   2.024   1.583   1.340
  481SOL     OW 1464   2.229   1.100   0.501
  481SOL    HW1 1465   2.222   1.183   0.445
  481SOL    HW2 1466   2.233   1.020   0.441
  482SOL     OW 1467   2.428   0.537   0.865
  482SOL    HW1 1468   2.440   0.603   0.791
  482SOL    HW2 1469   2.474   0.571   0.948
  483SOL     OW 1470   2.216   1.510   1.329
  483SOL    HW1 1471   2.195   1.466   1.242
  483SOL    HW2 1472   2.313   1.536   1.332
  484SOL     OW 1473   2.264   0.751   1.598
  484SOL    HW1 1474   2.332   0.806   1.551
  484SOL    HW2 1475   2.304   0.663   1.625
  485SOL     OW 1476   2.366   0.050   1.740
  485SOL    HW1 1477   2.324  -0.007   1.670
  485SOL    HW2 1478   2.300   0.119   1.772
  486SOL     OW 1479   2.435   0.870   1.029
  486SOL    HW1 1480   2.479   0.959   1.020
  486SOL    HW2 1481   2.372   0.870   1.106
  487SOL     OW 1482   2.169   0.213   1.231
  487SOL    HW1 1483   2.146   0.250   1.321
  487SOL    HW2 1484   2.139   0.118   1.225
  488SOL     OW 1485   1.899   1.310   1.282
  488SOL    HW1 1486   1.952   1.261   1.350
  488SOL    HW2 1487   1.921   1.408   1.287
  489SOL     OW 1488   2.169   0.063   0.618
  489SOL    HW1 1489   2.158   0.157   0.651
  489SOL    HW2 1490   2.164   0.000   0.695
  490SOL     OW 1491   2.212   0.898   1.804
  490SOL    HW1 1492   2.288   0.942   1.852
  490SOL    HW2 1493   2.247   0.851   1.722
  491SOL     OW 1494   2.930   1.333   0.849
  491SOL    HW1 1495   2.937   1.249   0.794
  491SOL    HW2 1496   2.992   1.402   0.813
  492SOL     OW 1497   2.181   0.810   0.949
  492SOL    HW1 1498   2.274   0.846   0.954
  492SOL    HW2 1499   2.175   0.725   1.001
  493SOL     OW 1500   2.201   0.509   1.006
  493SOL    HW1 1501   2.149   0.426   0.989
  493SOL    HW2 1502   2.278   0.514   0.942
  494SOL     OW 1503   1.870   1.326   0.200
  494SOL    HW1 1504   1.777   1.347   0.169
  494SOL    HW2 1505   1.880   1.227   0.213
  495SOL     OW 1506   1.950   1.801   0.927
  495SOL    HW1 1507   1.908   1.715   0.900
  495SOL    HW2 1508   2.044   1.804   0.893
  496SOL     OW 1509   2.366   1.568   0.910
  496SOL    HW1 1510   2.432   1.642   0.919
  496SOL    HW2 1511   2.410   1.489   0.868
  497SOL     OW 1512   1.902   0.544   1.114
  497SOL    HW1 1513   1.987   0.511   1.073
  497SOL    HW2 1514   1.915   0.559   1.212
  498SOL     OW 1515   2.051   0.520   1.722
  498SOL    HW1 1516   2.110   0.480   1.652
  498SOL    HW2 1517   1.993   0.591   1.681
  499SOL     OW 1518   2.114   1.564   1.744
  499SOL    HW1 1519   2.084   1.621   1.820
  499SOL    HW2 1520   2.107   1.467   1.770
  500SOL     OW 1521   2.533   0.464   1.269
  500SOL    HW1 1522   2.499   0.375   1.239
  500SOL    HW2 1523   2.559   0.518   1.189
  501SOL     OW 1524   2.335   0.500   0.191
  501SOL    HW1 1525   2.396   0.580   0.195
  501SOL    HW2 1526   2.240   0.531   0.198
  502SOL     OW 1527   2.021   1.137   1.466
  502SOL    HW1 1528   2.043   1.076   1.542
  502SOL    HW2 1529   2.031   1.088   1.380
  503SOL     OW 1530   1.945   1.258   1.022
  503SOL    HW1 1531   1.940   1.257   1.122
  503SOL    HW2 1532   1.862   1.217   0.984
  504SOL     OW 1533   2.550   1.662   1.716
  504SOL    HW1 1534   2.494   1.743   1.725
  504SOL    HW2 1535   2.602   1.666   1.630
  505SOL     OW 1536   1.992   1.794   1.851
  505SOL    HW1 1537   1.951   1.720   1.904
  505SOL    HW2 1538   2.056   1.845   1.909
  506SOL     OW 1539   2.534   1.616   0.154
  506SOL    HW1 1540   2.543   1.626   0.055
  506SOL    HW2 1541   2.494   1.527   0.175
  507SOL     OW 1542   2.125   0.326   0.720
  507SOL    HW1 1543   2.046   0.377   0.686
  507SOL    HW2 1544   2.116   0.311   0.818
  508SOL     OW 1545   2.234   1.288   1.490
  508SOL    HW1 1546   2.221   1.381   1.456
  508SOL    HW2 1547   2.150   1.236   1.477
  509SOL     OW 1548   2.901   1.098   0.696
  509SOL    HW1 1549   2.831   1.051   0.750
  509SOL    HW2 1550   2.960   1.030   0.653
  510SOL     OW 1551   2.452   1.487   0.491
  510SOL    HW1 1552   2.494   1.429   0.421
  510SOL    HW2 1553   2.408   1.566   0.447
  511SOL     OW 1554   2.117   1.348   0.290
  511SOL    HW1 1555   2.021   1.349   0.263
  511SOL    HW2 1556   2.129   1.401   0.374
  512SOL     OW 1557   1.967   1.013   1.726
  512SOL    HW1 1558   1.890   0.980   1.780
  512SOL    HW2 1559   2.052   0.983   1.768
  513SOL     OW 1560   2.534   0.203   1.489
  513SOL    HW1 1561   2.624   0.187   1.449
  513SOL    HW2 1562   2.542   0.208   1.588
  514SOL     OW 1563   1.937   0.345   0.033
  514SOL    HW1 1564   1.845   0.317   0.004
  514SOL    HW2 1565   1.968   0.422  -0.023
  515SOL     OW 1566   1.934   0.166   0.318
  515SOL    HW1 1567   1.917   0.249   0.264
  515SOL    HW2 1568   2.024   0.129   0.296
  516SOL     OW 1569   2.475   0.842   1.431
  516SOL    HW1 1570   2.531   0.923   1.414
  516SOL    HW2 1571   2.534   0.762   1.434
  517SOL     OW 1572   2.578   0.565   1.708
  517SOL    HW1 1573   2.597   0.630   1.782
  517SOL    HW2 1574   2.638   0.485   1.717
  518SOL     OW 1575   2.252   1.741   1.560
  518SOL    HW1 1576   2.161   1.782   1.558
  518SOL    HW2 1577   2.245   1.647   1.592
  519SOL     OW 1578   2.456   0.745   0.652
  519SOL    HW1 1579   2.506   0.830   0.633
  519SOL    HW2 1580   2.368   0.747   0.604
  520SOL     OW 1581   2.523   1.790   0.953
  520SOL    HW1 1582   2.477   1.878   0.940
  520SOL    HW2 1583   2.622   1.802   0.946
  521SOL     OW 1584   2.083   1.314   1.844
  521SOL    HW1 1585   2.018   1.241   1.823
  521SOL    HW2 1586   2.087   1.328   1.942
  522SOL     OW 1587   1.941   1.240   0.653
  522SOL    HW1 1588   1.940   1.193   0.741
  522SOL    HW2 1589   2.023   1.212   0.602
  523SOL     OW 1590   2.534   1.391   1.624
  523SOL    HW1 1591   2.456   1.341   1.662
  523SOL    HW2 1592   2.531   1.486   1.655
  524SOL     OW 1593   2.290   0.424   0.520
  524SOL    HW1 1594   2.320   0.352   0.458
  524SOL    HW2 1595   2.251   0.384   0.603
  525SOL     OW 1596   2.179   0.547   1.280
  525SOL    HW1 1597   2.217   0.488   1.352
  525SOL    HW2 1598   2.219   0.521   1.192
  526SOL     OW 1599   2.674   1.586   0.687
  526SOL    HW1 1600   2.706   1.596   0.593
  526SOL    HW2 1601   2.595   1.524   0.689
  527SOL     OW 1602   2.480   1.567   1.284
  527SOL    HW1 1603   2.475   1.649   1.341
  527SOL    HW2 1604   2.569   1.564   1.239
  528SOL     OW 1605   1.901   1.077   0.300
  528SOL    HW1 1606   2.000   1.066   0.291
  528SOL    HW2 1607   1.861   0.991   0.332
  529SOL     OW 1608   2.092   0.628   1.975
  529SOL    HW1 1609   1.999   0.626   2.012
  529SOL    HW2 1610   2.093   0.589   1.883
  530SOL     OW 1611   2.087   0.275   2.858
  530SOL    HW1 1612   2.122   0.258   2.950
  530SOL    HW2 1613   1.999   0.230   2.846
  531SOL     OW 1614   1.881   0.368   2.509
  531SOL    HW1 1615   1.799   0.411   2.548
  531SOL    HW2 1616   1.853   0.295   2.446
  532SOL     OW 1617   2.547   1.012   2.527
  532SOL    HW1 1618   2.616   0.996   2.597
  532SOL    HW2 1619   2.474   1.069   2.565
  533SOL     OW 1620   2.093   1.713   2.345
  533SOL    HW1 1621   2.127   1.790   2.399
  533SOL    HW2 1622   2.137   1.713   2.255
  534SOL     OW 1623   2.092   1.434   2.400
  534SOL    HW1 1624   2.066   1.530   2.400
  534SOL    HW2 1625   2.021   1.380   2.445
  535SOL     OW 1626   2.102   1.091   2.748
  535SOL    HW1 1627   2.116   1.007   2.800
  535SOL    HW2 1628   2.047   1.155   2.803
  536SOL     OW 1629   2.468   0.964   1.985
  536SOL    HW1 1630   2.475   1.048   1.931
  536SOL    HW2 1631   2.514   0.977   2.073
  537SOL     OW 1632   1.984   0.643   2.425
  537SOL    HW1 1633   1.939   0.555   2.442
  537SOL    HW2 1634   1.983   0.697   2.509
  538SOL     OW 1635   1.889   1.596   1.979
  538SOL    HW1 1636   1.870   1.500   2.000
  538SOL    HW2 1637   1.856   1.654   2.054
  539SOL     OW 1638   2.475   1.365   2.588
  539SOL    HW1 1639   2.426   1.278   2.597
  539SOL    HW2 1640   2.452   1.408   2.501
  540SOL     OW 1641   2.671   0.004   2.364
  540SOL    HW1 1642   2.711   0.095   2.355
  540SOL    HW2 1643   2.571   0.012   2.370
  541SOL     OW 1644   2.460   0.729   2.132
  541SOL    HW1 1645   2.484   0.798   2.064
  541SOL    HW2 1646   2.382   0.762   2.186
  542SOL     OW 1647   1.938   0.811   2.651
  542SOL    HW1 1648   2.037   0.799   2.660
  542SOL    HW2 1649   1.914   0.906   2.672
  543SOL     OW 1650   2.213   1.801   2.715
  543SOL    HW1 1651   2.263   1.715   2.721
  543SOL    HW2 1652   2.278   1.878   2.712
  544SOL     OW 1653   2.183   0.943   2.104
  544SOL    HW1 1654   2.265   0.982   2.062
  544SOL    HW2 1655   2.156   0.861   2.055
  545SOL     OW 1656   2.326   1.743   2.185
  545SOL    HW1 1657   2.359   1.782   2.271
  545SOL    HW2 1658   2.402   1.736   2.120
  546SOL     OW 1659   2.244   0.700   2.342
  546SOL    HW1 1660   2.289   0.610   2.339
  546SOL    HW2 1661   2.150   0.689   2.375
  547SOL     OW 1662   2.476   0.122   1.979
  547SOL    HW1 1663   2.574   0.100   1.986
  547SOL    HW2 1664   2.445   0.105   1.886
  548SOL     OW 1665   2.401   0.064   2.374
  548SOL    HW1 1666   2.320   0.065   2.432
  548SOL    HW2 1667   2.404   0.147   2.319
  549SOL     OW 1668   2.159   0.035   2.033
  549SOL    HW1 1669   2.208   0.119   2.012
  549SOL    HW2 1670   2.221  -0.030   2.078
  550SOL     OW 1671   2.321   1.152   2.603
  550SOL    HW1 1672   2.250   1.125   2.668
  550SOL    HW2 1673   2.295   1.124   2.510
  551SOL     OW 1674   2.350   1.385   2.036
  551SOL    HW1 1675   2.263   1.370   2.083
  551SOL    HW2 1676   2.333   1.411   1.941
  552SOL     OW 1677   2.389   0.256   2.190
  552SOL    HW1 1678   2.416   0.197   2.115
  552SOL    HW2 1679   2.389   0.351   2.159
  553SOL     OW 1680   2.229   1.100   2.363
  553SOL    HW1 1681   2.222   1.183   2.307
  553SOL    HW2 1682   2.233   1.020   2.303
  554SOL     OW 1683   2.169   0.063   2.480
  554SOL    HW1 1684   2.158   0.157   2.513
  554SOL    HW2 1685   2.164   0.000   2.557
  555SOL     OW 1686   2.930   1.333   2.711
  555SOL    HW1 1687   2.937   1.249   2.656
  555SOL    HW2 1688   2.992   1.402   2.675
  556SOL     OW 1689   1.870   1.326   2.062
  556SOL    HW1 1690   1.777   1.347   2.031
  556SOL    HW2 1691   1.880   1.227   2.075
  557SOL     OW 1692   2.677   0.572   2.187
  557SOL    HW1 1693   2.684   0.483   2.141
  557SOL    HW2 1694   2.583   0.606   2.179
  558SOL     OW 1695   2.335   0.500   2.053
  558SOL    HW1 1696   2.396   0.580   2.057
  558SOL    HW2 1697   2.240   0.531   2.060
  559SOL     OW 1698   2.534   1.616   2.016
  559SOL    HW1 1699   2.543   1.626   1.917
  559SOL    HW2 1700   2.494   1.527   2.037
  560SOL     OW 1701   2.125   0.326   2.582
  560SOL    HW1 1702   2.046   0.377   2.548
  560SOL    HW2 1703   2.116   0.311   2.680
  561SOL     OW 1704   2.901   1.098   2.558
  561SOL    HW1 1705   2.831   1.051   2.612
  561SOL    HW2 1706   2.960   1.030   2.515
  562SOL     OW 1707   2.452   1.487   2.353
  562SOL    HW1 1708   2.494   1.429   2.283
  562SOL    HW2 1709   2.408   1.566   2.309
  563SOL     OW 1710   2.117   1.348   2.152
  563SOL    HW1 1711   2.021   1.349   2.125
  563SOL    HW2 1712   2.129   1.401   2.236
  564SOL     OW 1713   1.937   0.345   1.895
  564SOL    HW1 1714   1.845   0.317   1.866
  564SOL    HW2 1715   1.968   0.422   1.839
  565SOL     OW 1716   1.934   0.166   2.180
  565SOL    HW1 1717   1.917   0.249   2.126
  565SOL    HW2 1718   2.024   0.129   2.158
  566SOL     OW 1719   2.456   0.745   2.514
  566SOL    HW1 1720   2.506   0.830   2.495
  566SOL    HW2 1721   2.368   0.747   2.466
  567SOL     OW 1722   2.523   1.790   2.815
  567SOL    HW1 1723   2.477   1.878   2.802
  567SOL    HW2 1724   2.622   1.802   2.808
  568SOL     OW 1725   1.941   1.240   2.515
  568SOL    HW1 1726   1.940   1.193   2.603
  568SOL    HW2 1727   2.023   1.212   2.464
  569SOL     OW 1728   2.290   0.424   2.382
  569SOL    HW1 1729   2.320   0.352   2.320
  569SOL    HW2 1730   2.251   0.384   2.465
  570SOL     OW 1731   2.674   1.586   2.549
  570SOL    HW1 1732   2.706   1.596   2.455
  570SOL    HW2 1733   2.595   1.524   2.551
  571SOL     OW 1734   1.901   1.077   2.162
  571SOL    HW1 1735   2.000   1.066   2.153
  571SOL    HW2 1736   1.861   0.991   2.194
  572SOL     OW 1737   2.092   2.490   0.113
  572SOL    HW1 1738   1.999   2.488   0.150
  572SOL    HW2 1739   2.093   2.451   0.021
  573SOL     OW 1740   2.087   2.137   0.996
  573SOL    HW1 1741   2.122   2.120   1.088
  573SOL    HW2 1742   1.999   2.092   0.984
  574SOL     OW 1743   1.881   2.230   0.647
  574SOL    HW1 1744   1.799   2.273   0.686
  574SOL    HW2 1745   1.853   2.157   0.584
  575SOL     OW 1746   2.712   2.660   1.823
  575SOL    HW1 1747   2.708   2.736   1.888
  575SOL    HW2 1748   2.734   2.696   1.732
  576SOL     OW 1749   2.547   2.874   0.665
  576SOL    HW1 1750   2.616   2.858   0.735
  576SOL    HW2 1751   2.474   2.931   0.703
  577SOL     OW 1752   2.300   2.254   1.499
  577SOL    HW1 1753   2.382   2.198   1.508
  577SOL    HW2 1754   2.219   2.196   1.503
  578SOL     OW 1755   1.984   2.505   0.563
  578SOL    HW1 1756   1.939   2.417   0.580
  578SOL    HW2 1757   1.983   2.559   0.647
  579SOL     OW 1758   1.975   2.599   1.597
  579SOL    HW1 1759   2.063   2.586   1.642
  579SOL    HW2 1760   1.962   2.696   1.575
  580SOL     OW 1761   2.671   1.866   0.502
  580SOL    HW1 1762   2.711   1.957   0.493
  580SOL    HW2 1763   2.571   1.874   0.508
  581SOL     OW 1764   2.179   2.113   1.801
  581SOL    HW1 1765   2.250   2.184   1.807
  581SOL    HW2 1766   2.091   2.152   1.829
  582SOL     OW 1767   2.460   2.591   0.270
  582SOL    HW1 1768   2.484   2.660   0.202
  582SOL    HW2 1769   2.382   2.624   0.324
  583SOL     OW 1770   2.412   2.058   0.885
  583SOL    HW1 1771   2.407   2.053   0.985
  583SOL    HW2 1772   2.414   2.154   0.856
  584SOL     OW 1773   2.064   2.147   1.498
  584SOL    HW1 1774   1.984   2.207   1.485
  584SOL    HW2 1775   2.054   2.098   1.584
  585SOL     OW 1776   2.244   2.562   0.480
  585SOL    HW1 1777   2.289   2.472   0.477
  585SOL    HW2 1778   2.150   2.551   0.513
  586SOL     OW 1779   2.784   2.365   0.899
  586SOL    HW1 1780   2.759   2.356   0.803
  586SOL    HW2 1781   2.832   2.283   0.930
  587SOL     OW 1782   2.401   1.926   0.512
  587SOL    HW1 1783   2.320   1.927   0.570
  587SOL    HW2 1784   2.404   2.009   0.457
  588SOL     OW 1785   2.159   1.897   0.171
  588SOL    HW1 1786   2.208   1.981   0.150
  588SOL    HW2 1787   2.221   1.832   0.216
  589SOL     OW 1788   1.940   2.418   1.386
  589SOL    HW1 1789   2.032   2.417   1.345
  589SOL    HW2 1790   1.934   2.492   1.453
  590SOL     OW 1791   2.423   2.084   1.147
  590SOL    HW1 1792   2.461   2.000   1.184
  590SOL    HW2 1793   2.335   2.103   1.191
  591SOL     OW 1794   2.389   2.118   0.328
  591SOL    HW1 1795   2.416   2.059   0.253
  591SOL    HW2 1796   2.389   2.213   0.297
  592SOL     OW 1797   2.777   1.951   1.402
  592SOL    HW1 1798   2.802   1.931   1.307
  592SOL    HW2 1799   2.849   2.007   1.444
  593SOL     OW 1800   2.272   2.675   1.251
  593SOL    HW1 1801   2.358   2.687   1.301
  593SOL    HW2 1802   2.230   2.588   1.278
  594SOL     OW 1803   2.428   2.399   0.865
  594SOL    HW1 1804   2.440   2.465   0.791
  594SOL    HW2 1805   2.474   2.433   0.948
  595SOL     OW 1806   2.366   1.912   1.740
  595SOL    HW1 1807   2.324   1.855   1.670
  595SOL    HW2 1808   2.300   1.981   1.772
  596SOL     OW 1809   2.169   2.075   1.231
  596SOL    HW1 1810   2.146   2.112   1.321
  596SOL    HW2 1811   2.139   1.980   1.225
  597SOL     OW 1812   2.169   1.925   0.618
  597SOL    HW1 1813   2.158   2.019   0.651
  597SOL    HW2 1814   2.164   1.862   0.695
  598SOL     OW 1815   2.181   2.672   0.949
  598SOL    HW1 1816   2.274   2.708   0.954
  598SOL    HW2 1817   2.175   2.587   1.001
  599SOL     OW 1818   2.201   2.371   1.006
  599SOL    HW1 1819   2.149   2.288   0.989
  599SOL    HW2 1820   2.278   2.376   0.942
  600SOL     OW 1821   1.902   2.406   1.114
  600SOL    HW1 1822   1.987   2.373   1.073
  600SOL    HW2 1823   1.915   2.421   1.212
  601SOL     OW 1824   2.051   2.382   1.722
  601SOL    HW1 1825   2.110   2.342   1.652
  601SOL    HW2 1826   1.993   2.453   1.681
  602SOL     OW 1827   2.533   2.326   1.269
  602SOL    HW1 1828   2.499   2.237   1.239
  602SOL    HW2 1829   2.559   2.380   1.189
  603SOL     OW 1830   2.335   2.362   0.191
  603SOL    HW1 1831   2.396   2.442   0.195
  603SOL    HW2 1832   2.240   2.393   0.198
  604SOL     OW 1833   2.125   2.188   0.720
  604SOL    HW1 1834   2.046   2.239   0.686
  604SOL    HW2 1835   2.116   2.173   0.818
  605SOL     OW 1836   1.967   2.875   1.726
  605SOL    HW1 1837   1.890   2.842   1.780
  605SOL    HW2 1838   2.052   2.845   1.768
  606SOL     OW 1839   2.534   2.065   1.489
  606SOL    HW1 1840   2.624   2.049   1.449
  606SOL    HW2 1841   2.542   2.070   1.588
  607SOL     OW 1842   1.937   2.207   0.033
  607SOL    HW1 1843   1.845   2.179   0.004
  607SOL    HW2 1844   1.968   2.284  -0.023
  608SOL     OW 1845   1.934   2.028   0.318
  608SOL    HW1 1846   1.917   2.111   0.264
  608SOL    HW2 1847   2.024   1.991   0.296
  609SOL     OW 1848   2.578   2.427   1.708
  609SOL    HW1 1849   2.597   2.492   1.782
  609SOL    HW2 1850   2.638   2.347   1.717
  610SOL     OW 1851   2.456   2.607   0.652
  610SOL    HW1 1852   2.506   2.692   0.633
  610SOL    HW2 1853   2.368   2.609   0.604
  611SOL     OW 1854   2.290   2.286   0.520
  611SOL    HW1 1855   2.320   2.214   0.458
  611SOL    HW2 1856   2.251   2.246   0.603
  612SOL     OW 1857   2.179   2.409   1.280
  612SOL    HW1 1858   2.217   2.350   1.352
  612SOL    HW2 1859   2.219   2.383   1.192
  613SOL     OW 1860   2.092   2.490   1.975
  613SOL    HW1 1861   1.999   2.488   2.012
  613SOL    HW2 1862   2.093   2.451   1.883
  614SOL     OW 1863   2.087   2.137   2.858
  614SOL    HW1 1864   2.122   2.120   2.950
  614SOL    HW2 1865   1.999   2.092   2.846
  615SOL     OW 1866   1.881   2.230   2.509
  615SOL    HW1 1867   1.799   2.273   2.548
  615SOL    HW2 1868   1.853   2.157   2.446
  616SOL     OW 1869   2.547   2.874   2.527
  616SOL    HW1 1870   2.616   2.858   2.597
  616SOL    HW2 1871   2.474   2.931   2.565
  617SOL     OW 1872   1.984   2.505   2.425
  617SOL    HW1 1873   1.939   2.417   2.442
  617SOL    HW2 1874   1.983   2.559   2.509
  618SOL     OW 1875   2.671   1.866   2.364
  618SOL    HW1 1876   2.711   1.957   2.355
  618SOL    HW2 1877   2.571   1.874   2.370
  619SOL     OW 1878   2.460   2.591   2.132
  619SOL    HW1 1879   2.484   2.660   2.064
  619SOL    HW2 1880   2.382   2.624   2.186
  620SOL     OW 1881   2.244   2.562   2.342
  620SOL    HW1 1882   2.289   2.472   2.339
  620SOL    HW2 1883   2.150   2.551   2.375
  621SOL     OW 1884   2.476   1.984   1.979
  621SOL    HW1 1885   2.574   1.962   1.986
  621SOL    HW2 1886   2.445   1.967   1.886
  622SOL     OW 1887   2.401   1.926   2.374
  622SOL    HW1 1888   2.320   1.927   2.432
  622SOL    HW2 1889   2.404   2.009   2.319
  623SOL     OW 1890   2.159   1.897   2.033
  623SOL    HW1 1891   2.208   1.981   2.012
  623SOL    HW2 1892   2.221   1.832   2.078
  624SOL     OW 1893   2.389   2.118   2.190
  624SOL    HW1 1894   2.416   2.059   2.115
  624SOL    HW2 1895   2.389   2.213   2.159
  625SOL     OW 1896   2.169   1.925   2.480
  625SOL    HW1 1897   2.158   2.019   2.513
  625SOL    HW2 1898   2.164   1.862   2.557
  626SOL     OW 1899   2.677   2.434   2.187
  626SOL    HW1 1900   2.684   2.345   2.141
  626SOL    HW2 1901   2.583   2.468   2.179
  627SOL     OW 1902   2.335   2.362   2.053
  627SOL    HW1 1903   2.396   2.442   2.057
  627SOL    HW2 1904   2.240   2.393   2.060
  628SOL     OW 1905   2.125   2.188   2.582
  628SOL    HW1 1906   2.046   2.239   2.548
  628SOL    HW2 1907   2.116   2.173   2.680
  629SOL     OW 1908   1.937   2.207   1.895
  629SOL    HW1 1909   1.845   2.179   1.866
  629SOL    HW2 1910   1.968   2.284   1.839
  630SOL     OW 1911   1.934   2.028   2.180
  630SOL    HW1 1912   1.917   2.111   2.126
  630SOL    HW2 1913   2.024   1.991   2.158
  631SOL     OW 1914   2.456   2.607   2.514
  631SOL    HW1 1915   2.506   2.692   2.495
  631SOL    HW2 1916   2.368   2.609   2.466
  632SOL     OW 1917   2.290   2.286   2.382
  632SOL    HW1 1918   2.320   2.214   2.320
  632SOL    HW2 1919   2.251   2.246   2.465
   2.69119   2.69119   2.69119
