; mobley_3395921_GMX.itp created by acpype (v: 2023.10.27) on Thu May 14 13:55:23 2026

[ atomtypes ]
;name   bond_type     mass     charge   ptype   sigma         epsilon       Amb
 c6       c6          0.00000  0.00000   A     3.39771e-01   4.51035e-01 ; 1.91  0.1078
 os       os          0.00000  0.00000   A     3.15610e-01   3.03758e-01 ; 1.77  0.0726
 hc       hc          0.00000  0.00000   A     2.60018e-01   8.70272e-02 ; 1.46  0.0208
 h1       h1          0.00000  0.00000   A     2.42200e-01   8.70272e-02 ; 1.36  0.0208

[ moleculetype ]
;name            nrexcl
 mobley_3395921   3

[ atoms ]
;   nr  type  resi  res  atom  cgnr     charge      mass       ; qtot   bond_type
     1   c6     1   MOL    C1    1    -0.077400     12.01000 ; qtot -0.077
     2   c6     1   MOL    C2    2    -0.112400     12.01000 ; qtot -0.190
     3   c6     1   MOL    C3    3    -0.112400     12.01000 ; qtot -0.302
     4   c6     1   MOL    C4    4     0.127400     12.01000 ; qtot -0.175
     5   c6     1   MOL    C5    5     0.127400     12.01000 ; qtot -0.047
     6   os     1   MOL    O1    6    -0.415600     16.00000 ; qtot -0.463
     7   hc     1   MOL    H1    7     0.041700      1.00800 ; qtot -0.421
     8   hc     1   MOL    H2    8     0.041700      1.00800 ; qtot -0.380
     9   hc     1   MOL    H3    9     0.049700      1.00800 ; qtot -0.330
    10   hc     1   MOL    H4   10     0.049700      1.00800 ; qtot -0.280
    11   hc     1   MOL    H5   11     0.049700      1.00800 ; qtot -0.230
    12   hc     1   MOL    H6   12     0.049700      1.00800 ; qtot -0.181
    13   h1     1   MOL    H7   13     0.045200      1.00800 ; qtot -0.136
    14   h1     1   MOL    H8   14     0.045200      1.00800 ; qtot -0.090
    15   h1     1   MOL    H9   15     0.045200      1.00800 ; qtot -0.045
    16   h1     1   MOL   H10   16     0.045200      1.00800 ; qtot 0.000

[ bonds ]
;   ai     aj funct   r             k
     1      2   1    1.5384e-01    1.8979e+05 ;     C1 - C2    
     1      3   1    1.5384e-01    1.8979e+05 ;     C1 - C3    
     1      7   1    1.0979e-01    2.8681e+05 ;     C1 - H1    
     1      8   1    1.0979e-01    2.8681e+05 ;     C1 - H2    
     2      4   1    1.5384e-01    1.8979e+05 ;     C2 - C4    
     2      9   1    1.0979e-01    2.8681e+05 ;     C2 - H3    
     2     10   1    1.0979e-01    2.8681e+05 ;     C2 - H4    
     3      5   1    1.5384e-01    1.8979e+05 ;     C3 - C5    
     3     11   1    1.0979e-01    2.8681e+05 ;     C3 - H5    
     3     12   1    1.0979e-01    2.8681e+05 ;     C3 - H6    
     4      6   1    1.4300e-01    2.3412e+05 ;     C4 - O1    
     4     13   1    1.0984e-01    2.8620e+05 ;     C4 - H7    
     4     14   1    1.0984e-01    2.8620e+05 ;     C4 - H8    
     5      6   1    1.4300e-01    2.3412e+05 ;     C5 - O1    
     5     15   1    1.0984e-01    2.8620e+05 ;     C5 - H9    
     5     16   1    1.0984e-01    2.8620e+05 ;     C5 - H10   

[ pairs ]
;   ai     aj    funct
     1      6      1 ;     C1 - O1    
     1     13      1 ;     C1 - H7    
     1     14      1 ;     C1 - H8    
     1     15      1 ;     C1 - H9    
     1     16      1 ;     C1 - H10   
     2      5      1 ;     C2 - C5    
     2     11      1 ;     C2 - H5    
     2     12      1 ;     C2 - H6    
     3      4      1 ;     C3 - C4    
     3      9      1 ;     C3 - H3    
     3     10      1 ;     C3 - H4    
     4     15      1 ;     C4 - H9    
     4     16      1 ;     C4 - H10   
     5     13      1 ;     C5 - H7    
     5     14      1 ;     C5 - H8    
     6      9      1 ;     O1 - H3    
     6     10      1 ;     O1 - H4    
     6     11      1 ;     O1 - H5    
     6     12      1 ;     O1 - H6    
     7      4      1 ;     H1 - C4    
     7      5      1 ;     H1 - C5    
     7      9      1 ;     H1 - H3    
     7     10      1 ;     H1 - H4    
     7     11      1 ;     H1 - H5    
     7     12      1 ;     H1 - H6    
     8      4      1 ;     H2 - C4    
     8      5      1 ;     H2 - C5    
     8      9      1 ;     H2 - H3    
     8     10      1 ;     H2 - H4    
     8     11      1 ;     H2 - H5    
     8     12      1 ;     H2 - H6    
     9     13      1 ;     H3 - H7    
     9     14      1 ;     H3 - H8    
    10     13      1 ;     H4 - H7    
    10     14      1 ;     H4 - H8    
    11     15      1 ;     H5 - H9    
    11     16      1 ;     H5 - H10   
    12     15      1 ;     H6 - H9    
    12     16      1 ;     H6 - H10   

[ angles ]
;   ai     aj     ak    funct   theta         cth
     1      2      4      1    1.1106e+02    5.0359e+02 ;     C1 - C2     - C4    
     1      2      9      1    1.0945e+02    3.6175e+02 ;     C1 - C2     - H3    
     1      2     10      1    1.0945e+02    3.6175e+02 ;     C1 - C2     - H4    
     1      3      5      1    1.1106e+02    5.0359e+02 ;     C1 - C3     - C5    
     1      3     11      1    1.0945e+02    3.6175e+02 ;     C1 - C3     - H5    
     1      3     12      1    1.0945e+02    3.6175e+02 ;     C1 - C3     - H6    
     2      1      3      1    1.1106e+02    5.0359e+02 ;     C2 - C1     - C3    
     2      1      7      1    1.0945e+02    3.6175e+02 ;     C2 - C1     - H1    
     2      1      8      1    1.0945e+02    3.6175e+02 ;     C2 - C1     - H2    
     2      4      6      1    1.1009e+02    6.3948e+02 ;     C2 - C4     - O1    
     2      4     13      1    1.0918e+02    3.6217e+02 ;     C2 - C4     - H7    
     2      4     14      1    1.0918e+02    3.6217e+02 ;     C2 - C4     - H8    
     3      1      7      1    1.0945e+02    3.6175e+02 ;     C3 - C1     - H1    
     3      1      8      1    1.0945e+02    3.6175e+02 ;     C3 - C1     - H2    
     3      5      6      1    1.1009e+02    6.3948e+02 ;     C3 - C5     - O1    
     3      5     15      1    1.0918e+02    3.6217e+02 ;     C3 - C5     - H9    
     3      5     16      1    1.0918e+02    3.6217e+02 ;     C3 - C5     - H10   
     4      2      9      1    1.0945e+02    3.6175e+02 ;     C4 - C2     - H3    
     4      2     10      1    1.0945e+02    3.6175e+02 ;     C4 - C2     - H4    
     4      6      5      1    1.1330e+02    7.3873e+02 ;     C4 - O1     - C5    
     5      3     11      1    1.0945e+02    3.6175e+02 ;     C5 - C3     - H5    
     5      3     12      1    1.0945e+02    3.6175e+02 ;     C5 - C3     - H6    
     6      4     13      1    1.0808e+02    4.7430e+02 ;     O1 - C4     - H7    
     6      4     14      1    1.0808e+02    4.7430e+02 ;     O1 - C4     - H8    
     6      5     15      1    1.0808e+02    4.7430e+02 ;     O1 - C5     - H9    
     6      5     16      1    1.0808e+02    4.7430e+02 ;     O1 - C5     - H10   
     7      1      8      1    1.0662e+02    3.0066e+02 ;     H1 - C1     - H2    
     9      2     10      1    1.0662e+02    3.0066e+02 ;     H3 - C2     - H4    
    11      3     12      1    1.0662e+02    3.0066e+02 ;     H5 - C3     - H6    
    13      4     14      1    1.0750e+02    2.9932e+02 ;     H7 - C4     - H8    
    15      5     16      1    1.0750e+02    2.9932e+02 ;     H9 - C5     - H10   

[ dihedrals ] ; propers
; for gromacs 4.5 or higher, using funct 9
;    i      j      k      l   func   phase     kd      pn
     1      2      4      6      9     0.00   0.65084   3 ;     C1-    C2-    C4-    O1
     1      2      4     13      9     0.00   0.65084   3 ;     C1-    C2-    C4-    H7
     1      2      4     14      9     0.00   0.65084   3 ;     C1-    C2-    C4-    H8
     1      3      5      6      9     0.00   0.65084   3 ;     C1-    C3-    C5-    O1
     1      3      5     15      9     0.00   0.65084   3 ;     C1-    C3-    C5-    H9
     1      3      5     16      9     0.00   0.65084   3 ;     C1-    C3-    C5-   H10
     2      1      3      5      9     0.00   2.17568   3 ;     C2-    C1-    C3-    C5
     2      1      3     11      9     0.00   0.54392   3 ;     C2-    C1-    C3-    H5
     2      1      3     12      9     0.00   0.54392   3 ;     C2-    C1-    C3-    H6
     2      4      6      5      9     0.00   4.85344   3 ;     C2-    C4-    O1-    C5
     2      4      6      5      9     0.00   5.77392   2 ;     C2-    C4-    O1-    C5
     2      4      6      5      9   180.00   1.46440   1 ;     C2-    C4-    O1-    C5
     3      1      2      4      9     0.00   2.17568   3 ;     C3-    C1-    C2-    C4
     3      1      2      9      9     0.00   0.54392   3 ;     C3-    C1-    C2-    H3
     3      1      2     10      9     0.00   0.54392   3 ;     C3-    C1-    C2-    H4
     3      5      6      4      9     0.00   4.85344   3 ;     C3-    C5-    O1-    C4
     3      5      6      4      9     0.00   5.77392   2 ;     C3-    C5-    O1-    C4
     3      5      6      4      9   180.00   1.46440   1 ;     C3-    C5-    O1-    C4
     4      6      5     15      9     0.00   1.41001   3 ;     C4-    O1-    C5-    H9
     4      6      5     16      9     0.00   1.41001   3 ;     C4-    O1-    C5-   H10
     5      6      4     13      9     0.00   1.41001   3 ;     C5-    O1-    C4-    H7
     5      6      4     14      9     0.00   1.41001   3 ;     C5-    O1-    C4-    H8
     6      4      2      9      9     0.00   0.00000   0 ;     O1-    C4-    C2-    H3
     6      4      2      9      9     0.00   1.04600   1 ;     O1-    C4-    C2-    H3
     6      4      2     10      9     0.00   0.00000   0 ;     O1-    C4-    C2-    H4
     6      4      2     10      9     0.00   1.04600   1 ;     O1-    C4-    C2-    H4
     6      5      3     11      9     0.00   0.00000   0 ;     O1-    C5-    C3-    H5
     6      5      3     11      9     0.00   1.04600   1 ;     O1-    C5-    C3-    H5
     6      5      3     12      9     0.00   0.00000   0 ;     O1-    C5-    C3-    H6
     6      5      3     12      9     0.00   1.04600   1 ;     O1-    C5-    C3-    H6
     7      1      2      4      9     0.00   0.54392   3 ;     H1-    C1-    C2-    C4
     7      1      2      9      9     0.00   0.50208   3 ;     H1-    C1-    C2-    H3
     7      1      2     10      9     0.00   0.50208   3 ;     H1-    C1-    C2-    H4
     7      1      3      5      9     0.00   0.54392   3 ;     H1-    C1-    C3-    C5
     7      1      3     11      9     0.00   0.50208   3 ;     H1-    C1-    C3-    H5
     7      1      3     12      9     0.00   0.50208   3 ;     H1-    C1-    C3-    H6
     8      1      2      4      9     0.00   0.54392   3 ;     H2-    C1-    C2-    C4
     8      1      2      9      9     0.00   0.50208   3 ;     H2-    C1-    C2-    H3
     8      1      2     10      9     0.00   0.50208   3 ;     H2-    C1-    C2-    H4
     8      1      3      5      9     0.00   0.54392   3 ;     H2-    C1-    C3-    C5
     8      1      3     11      9     0.00   0.50208   3 ;     H2-    C1-    C3-    H5
     8      1      3     12      9     0.00   0.50208   3 ;     H2-    C1-    C3-    H6
     9      2      4     13      9     0.00   0.65084   3 ;     H3-    C2-    C4-    H7
     9      2      4     14      9     0.00   0.65084   3 ;     H3-    C2-    C4-    H8
    10      2      4     13      9     0.00   0.65084   3 ;     H4-    C2-    C4-    H7
    10      2      4     14      9     0.00   0.65084   3 ;     H4-    C2-    C4-    H8
    11      3      5     15      9     0.00   0.65084   3 ;     H5-    C3-    C5-    H9
    11      3      5     16      9     0.00   0.65084   3 ;     H5-    C3-    C5-   H10
    12      3      5     15      9     0.00   0.65084   3 ;     H6-    C3-    C5-    H9
    12      3      5     16      9     0.00   0.65084   3 ;     H6-    C3-    C5-   H10
