mobley_3053621_GMX.gro created by acpype (v: 2023.10.27) on Thu May 14 13:18:26 2026
 1506
    1MOL     C1    1   1.158   1.143   1.212
    1MOL     C2    2   1.247   1.193   1.116
    1MOL     C3    3   1.157   1.196   1.341
    1MOL     C4    4   1.336   1.296   1.150
    1MOL     C5    5   1.246   1.299   1.376
    1MOL     C6    6   1.335   1.349   1.280
    1MOL     H7    7   1.091   1.065   1.186
    1MOL     H8    8   1.248   1.153   1.018
    1MOL     H9    9   1.090   1.158   1.414
    1MOL    H10   10   1.404   1.334   1.078
    1MOL    H11   11   1.245   1.339   1.474
    1MOL    H12   12   1.402   1.427   1.306
    2SOL     OW   13   0.230   0.628   0.113
    2SOL    HW1   14   0.137   0.626   0.150
    2SOL    HW2   15   0.231   0.589   0.021
    3SOL     OW   16   0.225   0.275   0.996
    3SOL    HW1   17   0.260   0.258   1.088
    3SOL    HW2   18   0.137   0.230   0.984
    4SOL     OW   19   0.019   0.368   0.647
    4SOL    HW1   20  -0.063   0.411   0.686
    4SOL    HW2   21  -0.009   0.295   0.584
    5SOL     OW   22   0.569   1.275   1.165
    5SOL    HW1   23   0.476   1.268   1.128
    5SOL    HW2   24   0.580   1.364   1.209
    6SOL     OW   25   1.555   1.511   0.703
    6SOL    HW1   26   1.498   1.495   0.784
    6SOL    HW2   27   1.496   1.521   0.623
    7SOL     OW   28   1.135   0.703   0.717
    7SOL    HW1   29   1.192   0.781   0.692
    7SOL    HW2   30   1.075   0.729   0.793
    8SOL     OW   31   1.755   0.607   0.231
    8SOL    HW1   32   1.743   0.594   0.132
    8SOL    HW2   33   1.725   0.526   0.280
    9SOL     OW   34   0.768   1.144   1.023
    9SOL    HW1   35   0.690   1.161   1.083
    9SOL    HW2   36   0.802   1.231   0.987
   10SOL     OW   37   0.850   0.798   1.823
   10SOL    HW1   38   0.846   0.874   1.888
   10SOL    HW2   39   0.872   0.834   1.732
   11SOL     OW   40   0.685   1.012   0.665
   11SOL    HW1   41   0.754   0.996   0.735
   11SOL    HW2   42   0.612   1.069   0.703
   12SOL     OW   43   0.686   1.161   1.803
   12SOL    HW1   44   0.746   1.240   1.817
   12SOL    HW2   45   0.600   1.192   1.762
   13SOL     OW   46   0.335   1.435   1.061
   13SOL    HW1   47   0.257   1.404   1.008
   13SOL    HW2   48   0.393   1.493   1.004
   14SOL     OW   49   0.438   0.392   1.499
   14SOL    HW1   50   0.520   0.336   1.508
   14SOL    HW2   51   0.357   0.334   1.503
   15SOL     OW   52   1.603   0.447   0.737
   15SOL    HW1   53   1.529   0.493   0.687
   15SOL    HW2   54   1.654   0.515   0.790
   16SOL     OW   55   0.231   1.713   0.483
   16SOL    HW1   56   0.265   1.790   0.537
   16SOL    HW2   57   0.275   1.713   0.393
   17SOL     OW   58   1.127   1.341   1.690
   17SOL    HW1   59   1.174   1.341   1.778
   17SOL    HW2   60   1.079   1.254   1.679
   18SOL     OW   61   0.230   1.434   0.538
   18SOL    HW1   62   0.204   1.530   0.538
   18SOL    HW2   63   0.159   1.380   0.583
   19SOL     OW   64   0.240   1.091   0.886
   19SOL    HW1   65   0.254   1.007   0.938
   19SOL    HW2   66   0.185   1.155   0.941
   20SOL     OW   67   0.620   1.786   1.439
   20SOL    HW1   68   0.528   1.769   1.474
   20SOL    HW2   69   0.648   1.878   1.465
   21SOL     OW   70   0.606   0.964   0.123
   21SOL    HW1   71   0.613   1.048   0.069
   21SOL    HW2   72   0.652   0.977   0.211
   22SOL     OW   73   1.594   0.114   1.480
   22SOL    HW1   74   1.576   0.181   1.408
   22SOL    HW2   75   1.591   0.160   1.569
   23SOL     OW   76   0.122   0.643   0.563
   23SOL    HW1   77   0.077   0.555   0.580
   23SOL    HW2   78   0.121   0.697   0.647
   24SOL     OW   79   1.842   1.767   0.359
   24SOL    HW1   80   1.896   1.738   0.439
   24SOL    HW2   81   1.872   1.857   0.330
   25SOL     OW   82   0.027   1.596   0.117
   25SOL    HW1   83   0.008   1.500   0.138
   25SOL    HW2   84  -0.006   1.654   0.192
   26SOL     OW   85   1.689   0.922   0.612
   26SOL    HW1   86   1.784   0.893   0.620
   26SOL    HW2   87   1.681   0.987   0.537
   27SOL     OW   88   1.641   1.108   0.432
   27SOL    HW1   89   1.727   1.110   0.380
   27SOL    HW2   90   1.655   1.155   0.520
   28SOL     OW   91   0.113   0.737   1.597
   28SOL    HW1   92   0.201   0.724   1.642
   28SOL    HW2   93   0.100   0.834   1.575
   29SOL     OW   94   0.613   1.365   0.726
   29SOL    HW1   95   0.564   1.278   0.735
   29SOL    HW2   96   0.590   1.408   0.639
   30SOL     OW   97   0.809   0.004   0.502
   30SOL    HW1   98   0.849   0.095   0.493
   30SOL    HW2   99   0.709   0.012   0.508
   31SOL     OW  100   0.197   0.976   1.264
   31SOL    HW1  101   0.286   0.931   1.250
   31SOL    HW2  102   0.124   0.911   1.245
   32SOL     OW  103   1.525   0.999   0.190
   32SOL    HW1  104   1.462   0.923   0.203
   32SOL    HW2  105   1.573   1.017   0.276
   33SOL     OW  106   1.187   1.792   1.616
   33SOL    HW1  107   1.211   1.852   1.540
   33SOL    HW2  108   1.194   1.697   1.586
   34SOL     OW  109   0.317   0.251   1.801
   34SOL    HW1  110   0.388   0.322   1.807
   34SOL    HW2  111   0.229   0.290   1.829
   35SOL     OW  112   1.667   1.714   0.572
   35SOL    HW1  113   1.626   1.691   0.484
   35SOL    HW2  114   1.649   1.640   0.637
   36SOL     OW  115   0.598   0.729   0.270
   36SOL    HW1  116   0.622   0.798   0.202
   36SOL    HW2  117   0.520   0.762   0.324
   37SOL     OW  118   1.281   0.345   0.944
   37SOL    HW1  119   1.195   0.295   0.931
   37SOL    HW2  120   1.343   0.291   1.000
   38SOL     OW  121   1.576   1.662   0.307
   38SOL    HW1  122   1.665   1.708   0.310
   38SOL    HW2  123   1.555   1.638   0.212
   39SOL     OW  124   0.807   0.605   1.465
   39SOL    HW1  125   0.760   0.602   1.554
   39SOL    HW2  126   0.756   0.550   1.399
   40SOL     OW  127   1.394   0.469   1.674
   40SOL    HW1  128   1.374   0.512   1.762
   40SOL    HW2  129   1.472   0.407   1.683
   41SOL     OW  130   0.973   0.890   1.572
   41SOL    HW1  131   1.019   0.806   1.543
   41SOL    HW2  132   0.917   0.924   1.497
   42SOL     OW  133   0.991   0.410   1.242
   42SOL    HW1  134   0.914   0.444   1.296
   42SOL    HW2  135   0.957   0.359   1.163
   43SOL     OW  136   1.041   0.701   0.429
   43SOL    HW1  137   1.067   0.697   0.525
   43SOL    HW2  138   0.956   0.650   0.415
   44SOL     OW  139   0.076   0.811   0.789
   44SOL    HW1  140   0.175   0.799   0.798
   44SOL    HW2  141   0.052   0.906   0.810
   45SOL     OW  142   0.130   1.821   1.571
   45SOL    HW1  143   0.120   1.806   1.670
   45SOL    HW2  144   0.044   1.857   1.535
   46SOL     OW  145   0.865   0.348   0.195
   46SOL    HW1  146   0.924   0.411   0.146
   46SOL    HW2  147   0.884   0.254   0.166
   47SOL     OW  148   1.719   0.585   1.831
   47SOL    HW1  149   1.693   0.674   1.795
   47SOL    HW2  150   1.717   0.517   1.758
   48SOL     OW  151   1.362   1.144   0.545
   48SOL    HW1  152   1.445   1.115   0.497
   48SOL    HW2  153   1.313   1.211   0.489
   49SOL     OW  154   0.550   0.196   0.885
   49SOL    HW1  155   0.545   0.191   0.985
   49SOL    HW2  156   0.552   0.292   0.856
   50SOL     OW  157   1.008   1.456   0.477
   50SOL    HW1  158   0.962   1.528   0.425
   50SOL    HW2  159   1.004   1.476   0.575
   51SOL     OW  160   0.351   1.801   0.853
   51SOL    HW1  161   0.401   1.715   0.859
   51SOL    HW2  162   0.416   1.878   0.850
   52SOL     OW  163   1.795   1.066   0.873
   52SOL    HW1  164   1.733   1.051   0.797
   52SOL    HW2  165   1.743   1.077   0.958
   53SOL     OW  166   1.227   1.550   1.506
   53SOL    HW1  167   1.233   1.473   1.570
   53SOL    HW2  168   1.175   1.524   1.426
   54SOL     OW  169   0.321   0.943   0.242
   54SOL    HW1  170   0.403   0.982   0.200
   54SOL    HW2  171   0.294   0.861   0.193
   55SOL     OW  172   1.458   0.735   0.728
   55SOL    HW1  173   1.453   0.670   0.803
   55SOL    HW2  174   1.538   0.794   0.741
   56SOL     OW  175   0.461   1.266   1.727
   56SOL    HW1  176   0.411   1.267   1.641
   56SOL    HW2  177   0.398   1.248   1.803
   57SOL     OW  178   1.111   1.776   0.237
   57SOL    HW1  179   1.051   1.714   0.287
   57SOL    HW2  180   1.142   1.732   0.152
   58SOL     OW  181   0.202   0.285   1.498
   58SOL    HW1  182   0.122   0.345   1.485
   58SOL    HW2  183   0.192   0.236   1.584
   59SOL     OW  184   1.632   1.377   0.081
   59SOL    HW1  185   1.600   1.471   0.071
   59SOL    HW2  186   1.556   1.314   0.069
   60SOL     OW  187   0.464   1.743   0.323
   60SOL    HW1  188   0.497   1.782   0.409
   60SOL    HW2  189   0.540   1.736   0.258
   61SOL     OW  190   1.400   0.107   0.426
   61SOL    HW1  191   1.376   0.070   0.336
   61SOL    HW2  192   1.499   0.123   0.430
   62SOL     OW  193   0.249   1.785   1.241
   62SOL    HW1  194   0.306   1.720   1.291
   62SOL    HW2  195   0.233   1.752   1.148
   63SOL     OW  196   0.940   1.698   0.904
   63SOL    HW1  197   1.020   1.641   0.925
   63SOL    HW2  198   0.891   1.658   0.827
   64SOL     OW  199   0.382   0.700   0.480
   64SOL    HW1  200   0.427   0.610   0.477
   64SOL    HW2  201   0.288   0.689   0.513
   65SOL     OW  202   1.547   0.222   1.729
   65SOL    HW1  203   1.542   0.259   1.821
   65SOL    HW2  204   1.475   0.153   1.717
   66SOL     OW  205   0.614   0.122   0.117
   66SOL    HW1  206   0.712   0.100   0.124
   66SOL    HW2  207   0.583   0.105   0.024
   67SOL     OW  208   0.781   0.264   1.749
   67SOL    HW1  209   0.848   0.203   1.792
   67SOL    HW2  210   0.708   0.283   1.814
   68SOL     OW  211   0.888   1.514   1.195
   68SOL    HW1  212   0.865   1.489   1.101
   68SOL    HW2  213   0.949   1.445   1.234
   69SOL     OW  214   1.351   0.590   1.433
   69SOL    HW1  215   1.379   0.547   1.518
   69SOL    HW2  216   1.376   0.686   1.434
   70SOL     OW  217   0.803   1.402   0.924
   70SOL    HW1  218   0.893   1.416   0.882
   70SOL    HW2  219   0.732   1.404   0.853
   71SOL     OW  220   0.922   0.503   0.899
   71SOL    HW1  221   0.897   0.494   0.803
   71SOL    HW2  222   0.970   0.421   0.930
   72SOL     OW  223   0.539   0.064   0.512
   72SOL    HW1  224   0.458   0.065   0.570
   72SOL    HW2  225   0.542   0.147   0.457
   73SOL     OW  226   1.434   1.188   0.041
   73SOL    HW1  227   1.466   1.112   0.098
   73SOL    HW2  228   1.342   1.215   0.071
   74SOL     OW  229   0.297   0.035   0.171
   74SOL    HW1  230   0.346   0.119   0.150
   74SOL    HW2  231   0.359  -0.030   0.216
   75SOL     OW  232   0.935   0.236   0.480
   75SOL    HW1  233   0.887   0.277   0.402
   75SOL    HW2  234   1.034   0.234   0.461
   76SOL     OW  235   1.076   0.683   1.464
   76SOL    HW1  236   0.996   0.622   1.467
   76SOL    HW2  237   1.157   0.630   1.440
   77SOL     OW  238   1.227   1.570   0.793
   77SOL    HW1  239   1.248   1.644   0.728
   77SOL    HW2  240   1.295   1.570   0.866
   78SOL     OW  241   0.459   1.152   0.741
   78SOL    HW1  242   0.388   1.125   0.806
   78SOL    HW2  243   0.433   1.124   0.648
   79SOL     OW  244   1.271   1.797   0.591
   79SOL    HW1  245   1.315   1.861   0.527
   79SOL    HW2  246   1.221   1.849   0.661
   80SOL     OW  247   1.032   0.549   0.016
   80SOL    HW1  248   0.991   0.631  -0.023
   80SOL    HW2  249   1.096   0.575   0.089
   81SOL     OW  250   0.078   0.556   1.386
   81SOL    HW1  251   0.170   0.555   1.345
   81SOL    HW2  252   0.072   0.630   1.453
   82SOL     OW  253   0.561   0.222   1.147
   82SOL    HW1  254   0.599   0.138   1.184
   82SOL    HW2  255   0.473   0.241   1.191
   83SOL     OW  256   0.866   0.454   0.642
   83SOL    HW1  257   0.834   0.526   0.580
   83SOL    HW2  258   0.890   0.373   0.589
   84SOL     OW  259   1.017   0.039   0.753
   84SOL    HW1  260   0.945   0.044   0.684
   84SOL    HW2  261   0.993  -0.030   0.822
   85SOL     OW  262   1.429   1.173   0.867
   85SOL    HW1  263   1.374   1.089   0.860
   85SOL    HW2  264   1.455   1.202   0.775
   86SOL     OW  265   1.466   0.590   0.992
   86SOL    HW1  266   1.436   0.495   0.999
   86SOL    HW2  267   1.539   0.606   1.058
   87SOL     OW  268   1.857   0.833   0.377
   87SOL    HW1  269   1.899   0.769   0.441
   87SOL    HW2  270   1.819   0.782   0.299
   88SOL     OW  271   0.488   1.385   0.174
   88SOL    HW1  272   0.401   1.370   0.221
   88SOL    HW2  273   0.471   1.411   0.079
   89SOL     OW  274   1.664   1.280   0.657
   89SOL    HW1  275   1.763   1.288   0.671
   89SOL    HW2  276   1.619   1.364   0.688
   90SOL     OW  277   1.390   0.575   0.078
   90SOL    HW1  278   1.336   0.554   0.159
   90SOL    HW2  279   1.481   0.534   0.087
   91SOL     OW  280   0.527   0.256   0.328
   91SOL    HW1  281   0.554   0.197   0.253
   91SOL    HW2  282   0.527   0.351   0.297
   92SOL     OW  283   1.754   1.223   1.588
   92SOL    HW1  284   1.845   1.184   1.575
   92SOL    HW2  285   1.762   1.319   1.612
   93SOL     OW  286   1.592   1.629   1.625
   93SOL    HW1  287   1.619   1.663   1.535
   93SOL    HW2  288   1.671   1.591   1.671
   94SOL     OW  289   1.638   1.099   1.079
   94SOL    HW1  290   1.643   1.180   1.138
   94SOL    HW2  291   1.552   1.101   1.028
   95SOL     OW  292   0.915   0.089   1.402
   95SOL    HW1  293   0.940   0.069   1.307
   95SOL    HW2  294   0.987   0.145   1.444
   96SOL     OW  295   0.980   1.116   1.719
   96SOL    HW1  296   0.881   1.122   1.729
   96SOL    HW2  297   1.003   1.036   1.663
   97SOL     OW  298   0.705   1.050   0.368
   97SOL    HW1  299   0.691   1.057   0.467
   97SOL    HW2  300   0.789   0.999   0.350
   98SOL     OW  301   0.410   0.813   1.251
   98SOL    HW1  302   0.496   0.825   1.301
   98SOL    HW2  303   0.368   0.726   1.278
   99SOL     OW  304   1.274   0.386   1.262
   99SOL    HW1  305   1.295   0.460   1.326
   99SOL    HW2  306   1.185   0.403   1.219
  100SOL     OW  307   0.064   1.564   1.331
  100SOL    HW1  308   0.018   1.646   1.297
  100SOL    HW2  309   0.162   1.583   1.340
  101SOL     OW  310   0.367   1.100   0.501
  101SOL    HW1  311   0.360   1.183   0.445
  101SOL    HW2  312   0.371   1.020   0.441
  102SOL     OW  313   0.566   0.537   0.865
  102SOL    HW1  314   0.578   0.603   0.791
  102SOL    HW2  315   0.612   0.571   0.948
  103SOL     OW  316   1.252   1.348   0.388
  103SOL    HW1  317   1.302   1.425   0.428
  103SOL    HW2  318   1.157   1.350   0.420
  104SOL     OW  319   1.582   0.639   0.472
  104SOL    HW1  320   1.551   0.700   0.545
  104SOL    HW2  321   1.632   0.691   0.403
  105SOL     OW  322   0.354   1.510   1.329
  105SOL    HW1  323   0.333   1.466   1.242
  105SOL    HW2  324   0.451   1.536   1.332
  106SOL     OW  325   0.402   0.751   1.598
  106SOL    HW1  326   0.470   0.806   1.551
  106SOL    HW2  327   0.442   0.663   1.625
  107SOL     OW  328   1.587   0.779   1.670
  107SOL    HW1  329   1.495   0.817   1.665
  107SOL    HW2  330   1.647   0.826   1.605
  108SOL     OW  331   1.013   0.105   1.770
  108SOL    HW1  332   1.019   0.190   1.718
  108SOL    HW2  333   1.045   0.029   1.713
  109SOL     OW  334   0.504   0.050   1.740
  109SOL    HW1  335   0.462  -0.007   1.670
  109SOL    HW2  336   0.438   0.119   1.772
  110SOL     OW  337   0.573   0.870   1.029
  110SOL    HW1  338   0.617   0.959   1.020
  110SOL    HW2  339   0.510   0.870   1.106
  111SOL     OW  340   1.360   0.862   1.045
  111SOL    HW1  341   1.285   0.862   0.979
  111SOL    HW2  342   1.397   0.770   1.054
  112SOL     OW  343   1.209   0.525   0.275
  112SOL    HW1  344   1.222   0.441   0.329
  112SOL    HW2  345   1.180   0.599   0.335
  113SOL     OW  346   0.307   0.213   1.231
  113SOL    HW1  347   0.284   0.250   1.321
  113SOL    HW2  348   0.277   0.118   1.225
  114SOL     OW  349   0.037   1.310   1.282
  114SOL    HW1  350   0.090   1.261   1.350
  114SOL    HW2  351   0.059   1.408   1.287
  115SOL     OW  352   0.732   0.634   1.064
  115SOL    HW1  353   0.791   0.608   0.988
  115SOL    HW2  354   0.704   0.730   1.053
  116SOL     OW  355   1.728   0.935   1.854
  116SOL    HW1  356   1.682   0.928   1.765
  116SOL    HW2  357   1.666   0.979   1.920
  117SOL     OW  358   0.307   0.063   0.618
  117SOL    HW1  359   0.296   0.157   0.651
  117SOL    HW2  360   0.302   0.000   0.695
  118SOL     OW  361   1.622   0.367   0.374
  118SOL    HW1  362   1.624   0.291   0.438
  118SOL    HW2  363   1.574   0.444   0.414
  119SOL     OW  364   1.023   0.766   0.966
  119SOL    HW1  365   1.038   0.787   1.062
  119SOL    HW2  366   0.993   0.671   0.957
  120SOL     OW  367   0.980   1.573   1.700
  120SOL    HW1  368   0.960   1.617   1.612
  120SOL    HW2  369   1.019   1.482   1.684
  121SOL     OW  370   1.859   1.518   1.605
  121SOL    HW1  371   1.873   1.545   1.510
  121SOL    HW2  372   1.942   1.540   1.658
  122SOL     OW  373   0.350   0.898   1.804
  122SOL    HW1  374   0.426   0.942   1.852
  122SOL    HW2  375   0.385   0.851   1.722
  123SOL     OW  376   1.540   0.274   0.125
  123SOL    HW1  377   1.479   0.199   0.148
  123SOL    HW2  378   1.562   0.326   0.208
  124SOL     OW  379   1.303   0.838   0.042
  124SOL    HW1  380   1.337   0.745   0.057
  124SOL    HW2  381   1.321   0.865  -0.053
  125SOL     OW  382   1.068   1.333   0.849
  125SOL    HW1  383   1.075   1.249   0.794
  125SOL    HW2  384   1.130   1.402   0.813
  126SOL     OW  385   0.319   0.810   0.949
  126SOL    HW1  386   0.412   0.846   0.954
  126SOL    HW2  387   0.313   0.725   1.001
  127SOL     OW  388   0.339   0.509   1.006
  127SOL    HW1  389   0.287   0.426   0.989
  127SOL    HW2  390   0.416   0.514   0.942
  128SOL     OW  391   1.138   0.380   1.678
  128SOL    HW1  392   1.093   0.443   1.742
  128SOL    HW2  393   1.231   0.411   1.661
  129SOL     OW  394   1.160   0.207   1.477
  129SOL    HW1  395   1.160   0.271   1.554
  129SOL    HW2  396   1.188   0.255   1.394
  130SOL     OW  397   0.008   1.326   0.200
  130SOL    HW1  398  -0.085   1.347   0.169
  130SOL    HW2  399   0.018   1.227   0.213
  131SOL     OW  400   0.088   1.801   0.927
  131SOL    HW1  401   0.046   1.715   0.900
  131SOL    HW2  402   0.182   1.804   0.893
  132SOL     OW  403   0.504   1.568   0.910
  132SOL    HW1  404   0.570   1.642   0.919
  132SOL    HW2  405   0.548   1.489   0.868
  133SOL     OW  406   1.002   0.796   1.238
  133SOL    HW1  407   1.043   0.764   1.324
  133SOL    HW2  408   0.906   0.769   1.235
  134SOL     OW  409   0.040   0.544   1.114
  134SOL    HW1  410   0.125   0.511   1.073
  134SOL    HW2  411   0.053   0.559   1.212
  135SOL     OW  412   0.189   0.520   1.722
  135SOL    HW1  413   0.248   0.480   1.652
  135SOL    HW2  414   0.131   0.591   1.681
  136SOL     OW  415   1.369   0.950   1.660
  136SOL    HW1  416   1.408   1.039   1.680
  136SOL    HW2  417   1.379   0.930   1.563
  137SOL     OW  418   0.815   0.572   0.325
  137SOL    HW1  419   0.822   0.483   0.279
  137SOL    HW2  420   0.721   0.606   0.317
  138SOL     OW  421   1.657   0.604   1.206
  138SOL    HW1  422   1.619   0.535   1.268
  138SOL    HW2  423   1.739   0.568   1.162
  139SOL     OW  424   0.252   1.564   1.744
  139SOL    HW1  425   0.222   1.621   1.820
  139SOL    HW2  426   0.245   1.467   1.770
  140SOL     OW  427   0.671   0.464   1.269
  140SOL    HW1  428   0.637   0.375   1.239
  140SOL    HW2  429   0.697   0.518   1.189
  141SOL     OW  430   0.930   1.678   1.465
  141SOL    HW1  431   0.906   1.660   1.370
  141SOL    HW2  432   0.960   1.772   1.475
  142SOL     OW  433   0.473   0.500   0.191
  142SOL    HW1  434   0.534   0.580   0.195
  142SOL    HW2  435   0.378   0.531   0.198
  143SOL     OW  436   0.159   1.137   1.466
  143SOL    HW1  437   0.181   1.076   1.542
  143SOL    HW2  438   0.169   1.088   1.380
  144SOL     OW  439   1.302   0.855   0.309
  144SOL    HW1  440   1.216   0.824   0.351
  144SOL    HW2  441   1.298   0.841   0.210
  145SOL     OW  442   1.759   1.747   1.154
  145SOL    HW1  443   1.820   1.777   1.081
  145SOL    HW2  444   1.721   1.658   1.132
  146SOL     OW  445   1.252   1.731   1.128
  146SOL    HW1  446   1.336   1.736   1.074
  146SOL    HW2  447   1.229   1.635   1.146
  147SOL     OW  448   0.083   1.258   1.022
  147SOL    HW1  449   0.078   1.257   1.122
  147SOL    HW2  450   0.000   1.217   0.984
  148SOL     OW  451   0.688   1.662   1.716
  148SOL    HW1  452   0.632   1.743   1.725
  148SOL    HW2  453   0.740   1.666   1.630
  149SOL     OW  454   0.903   0.086   0.133
  149SOL    HW1  455   0.954   0.087   0.047
  149SOL    HW2  456   0.959   0.044   0.204
  150SOL     OW  457   1.726   0.135   0.523
  150SOL    HW1  458   1.799   0.118   0.456
  150SOL    HW2  459   1.695   0.048   0.561
  151SOL     OW  460   1.388   1.573   0.477
  151SOL    HW1  461   1.455   1.585   0.403
  151SOL    HW2  462   1.348   1.662   0.500
  152SOL     OW  463   0.130   1.794   1.851
  152SOL    HW1  464   0.089   1.720   1.904
  152SOL    HW2  465   0.194   1.845   1.909
  153SOL     OW  466   1.280   0.927   0.672
  153SOL    HW1  467   1.340   0.846   0.674
  153SOL    HW2  468   1.320   0.996   0.612
  154SOL     OW  469   0.830   1.273   1.422
  154SOL    HW1  470   0.825   1.306   1.517
  154SOL    HW2  471   0.744   1.292   1.376
  155SOL     OW  472   0.672   1.616   0.154
  155SOL    HW1  473   0.681   1.626   0.055
  155SOL    HW2  474   0.632   1.527   0.175
  156SOL     OW  475   1.650   1.720   1.394
  156SOL    HW1  476   1.703   1.730   1.310
  156SOL    HW2  477   1.623   1.810   1.428
  157SOL     OW  478   1.841   0.175   0.963
  157SOL    HW1  479   1.880   0.090   0.927
  157SOL    HW2  480   1.743   0.177   0.944
  158SOL     OW  481   0.263   0.326   0.720
  158SOL    HW1  482   0.184   0.377   0.686
  158SOL    HW2  483   0.254   0.311   0.818
  159SOL     OW  484   1.194   1.612   0.031
  159SOL    HW1  485   1.200   1.519   0.068
  159SOL    HW2  486   1.135   1.612  -0.049
  160SOL     OW  487   0.822   1.002   1.372
  160SOL    HW1  488   0.862   1.001   1.280
  160SOL    HW2  489   0.832   1.094   1.412
  161SOL     OW  490   0.916   0.910   0.291
  161SOL    HW1  491   0.979   0.948   0.223
  161SOL    HW2  492   0.956   0.827   0.330
  162SOL     OW  493   1.504   1.607   0.044
  162SOL    HW1  494   1.412   1.644   0.051
  162SOL    HW2  495   1.542   1.627  -0.046
  163SOL     OW  496   0.372   1.288   1.490
  163SOL    HW1  497   0.359   1.381   1.456
  163SOL    HW2  498   0.288   1.236   1.477
  164SOL     OW  499   1.614   1.292   1.289
  164SOL    HW1  500   1.674   1.295   1.369
  164SOL    HW2  501   1.539   1.356   1.302
  165SOL     OW  502   1.039   1.098   0.696
  165SOL    HW1  503   0.969   1.051   0.750
  165SOL    HW2  504   1.098   1.030   0.653
  166SOL     OW  505   1.014   0.236   0.971
  166SOL    HW1  506   1.006   0.200   0.878
  166SOL    HW2  507   1.012   0.160   1.036
  167SOL     OW  508   0.590   1.487   0.491
  167SOL    HW1  509   0.632   1.429   0.421
  167SOL    HW2  510   0.546   1.566   0.447
  168SOL     OW  511   1.709   0.385   1.381
  168SOL    HW1  512   1.782   0.454   1.385
  168SOL    HW2  513   1.737   0.310   1.322
  169SOL     OW  514   0.255   1.348   0.290
  169SOL    HW1  515   0.159   1.349   0.263
  169SOL    HW2  516   0.267   1.401   0.374
  170SOL     OW  517   0.105   1.013   1.726
  170SOL    HW1  518   0.028   0.980   1.780
  170SOL    HW2  519   0.190   0.983   1.768
  171SOL     OW  520   0.672   0.203   1.489
  171SOL    HW1  521   0.762   0.187   1.449
  171SOL    HW2  522   0.680   0.208   1.588
  172SOL     OW  523   0.075   0.345   0.033
  172SOL    HW1  524  -0.017   0.317   0.004
  172SOL    HW2  525   0.106   0.422  -0.023
  173SOL     OW  526   1.440   0.856   1.398
  173SOL    HW1  527   1.383   0.908   1.335
  173SOL    HW2  528   1.536   0.868   1.374
  174SOL     OW  529   0.072   0.166   0.318
  174SOL    HW1  530   0.055   0.249   0.264
  174SOL    HW2  531   0.162   0.129   0.296
  175SOL     OW  532   1.183   1.335   0.119
  175SOL    HW1  533   1.084   1.324   0.121
  175SOL    HW2  534   1.217   1.350   0.212
  176SOL     OW  535   0.613   0.842   1.431
  176SOL    HW1  536   0.669   0.923   1.414
  176SOL    HW2  537   0.672   0.762   1.434
  177SOL     OW  538   1.493   1.767   0.959
  177SOL    HW1  539   1.526   1.831   0.890
  177SOL    HW2  540   1.559   1.761   1.034
  178SOL     OW  541   0.716   0.565   1.708
  178SOL    HW1  542   0.735   0.630   1.782
  178SOL    HW2  543   0.776   0.485   1.717
  179SOL     OW  544   1.450   1.220   1.633
  179SOL    HW1  545   1.441   1.210   1.732
  179SOL    HW2  546   1.546   1.213   1.607
  180SOL     OW  547   0.390   1.741   1.560
  180SOL    HW1  548   0.299   1.782   1.558
  180SOL    HW2  549   0.383   1.647   1.592
  181SOL     OW  550   1.674   0.883   1.254
  181SOL    HW1  551   1.647   0.794   1.217
  181SOL    HW2  552   1.675   0.951   1.181
  182SOL     OW  553   1.225   0.325   0.449
  182SOL    HW1  554   1.290   0.251   0.438
  182SOL    HW2  555   1.245   0.375   0.533
  183SOL     OW  556   0.594   0.745   0.652
  183SOL    HW1  557   0.644   0.830   0.633
  183SOL    HW2  558   0.506   0.747   0.604
  184SOL     OW  559   1.777   0.342   1.642
  184SOL    HW1  560   1.760   0.373   1.548
  184SOL    HW2  561   1.693   0.305   1.680
  185SOL     OW  562   1.730   0.934   1.517
  185SOL    HW1  563   1.768   1.025   1.532
  185SOL    HW2  564   1.722   0.917   1.418
  186SOL     OW  565   0.859   1.374   0.016
  186SOL    HW1  566   0.813   1.389   0.104
  186SOL    HW2  567   0.903   1.459  -0.014
  187SOL     OW  568   0.661   1.790   0.953
  187SOL    HW1  569   0.615   1.878   0.940
  187SOL    HW2  570   0.760   1.802   0.946
  188SOL     OW  571   0.859   0.956   0.861
  188SOL    HW1  572   0.913   0.887   0.909
  188SOL    HW2  573   0.827   1.025   0.927
  189SOL     OW  574   1.083   0.984   0.087
  189SOL    HW1  575   1.060   1.037   0.005
  189SOL    HW2  576   1.164   0.928   0.068
  190SOL     OW  577   1.861   1.569   0.851
  190SOL    HW1  578   1.790   1.557   0.781
  190SOL    HW2  579   1.862   1.490   0.911
  191SOL     OW  580   0.221   1.314   1.844
  191SOL    HW1  581   0.156   1.241   1.823
  191SOL    HW2  582   0.225   1.328   1.942
  192SOL     OW  583   0.079   1.240   0.653
  192SOL    HW1  584   0.078   1.193   0.741
  192SOL    HW2  585   0.161   1.212   0.602
  193SOL     OW  586   0.672   1.391   1.624
  193SOL    HW1  587   0.594   1.341   1.662
  193SOL    HW2  588   0.669   1.486   1.655
  194SOL     OW  589   1.824   0.192   1.227
  194SOL    HW1  590   1.820   0.102   1.271
  194SOL    HW2  591   1.827   0.181   1.128
  195SOL     OW  592   0.428   0.424   0.520
  195SOL    HW1  593   0.458   0.352   0.458
  195SOL    HW2  594   0.389   0.384   0.603
  196SOL     OW  595   1.705   1.487   1.104
  196SOL    HW1  596   1.612   1.462   1.077
  196SOL    HW2  597   1.731   1.437   1.186
  197SOL     OW  598   0.317   0.547   1.280
  197SOL    HW1  599   0.355   0.488   1.352
  197SOL    HW2  600   0.357   0.521   1.192
  198SOL     OW  601   0.812   1.586   0.687
  198SOL    HW1  602   0.844   1.596   0.593
  198SOL    HW2  603   0.733   1.524   0.689
  199SOL     OW  604   1.424   0.214   1.112
  199SOL    HW1  605   1.476   0.149   1.167
  199SOL    HW2  606   1.375   0.277   1.173
  200SOL     OW  607   1.001   0.034   1.154
  200SOL    HW1  608   0.938  -0.038   1.123
  200SOL    HW2  609   1.094  -0.002   1.154
  201SOL     OW  610   0.770   1.330   0.301
  201SOL    HW1  611   0.724   1.243   0.318
  201SOL    HW2  612   0.861   1.327   0.342
  202SOL     OW  613   0.618   1.567   1.284
  202SOL    HW1  614   0.613   1.649   1.341
  202SOL    HW2  615   0.707   1.564   1.239
  203SOL     OW  616   1.352   0.052   0.168
  203SOL    HW1  617   1.387   0.011   0.084
  203SOL    HW2  618   1.262   0.014   0.188
  204SOL     OW  619   1.300   0.453   0.691
  204SOL    HW1  620   1.241   0.533   0.695
  204SOL    HW2  621   1.315   0.418   0.784
  205SOL     OW  622   1.593   0.221   0.882
  205SOL    HW1  623   1.509   0.220   0.936
  205SOL    HW2  624   1.595   0.304   0.826
  206SOL     OW  625   0.039   1.077   0.300
  206SOL    HW1  626   0.138   1.066   0.291
  206SOL    HW2  627  -0.001   0.991   0.332
  207SOL     OW  628   0.875   1.646   0.337
  207SOL    HW1  629   0.798   1.611   0.283
  207SOL    HW2  630   0.843   1.717   0.399
  208SOL     OW  631   0.230   0.628   1.975
  208SOL    HW1  632   0.137   0.626   2.012
  208SOL    HW2  633   0.231   0.589   1.883
  209SOL     OW  634   1.755   0.607   2.093
  209SOL    HW1  635   1.743   0.594   1.994
  209SOL    HW2  636   1.725   0.526   2.142
  210SOL     OW  637   0.231   1.713   2.345
  210SOL    HW1  638   0.265   1.790   2.399
  210SOL    HW2  639   0.275   1.713   2.255
  211SOL     OW  640   0.230   1.434   2.400
  211SOL    HW1  641   0.204   1.530   2.400
  211SOL    HW2  642   0.159   1.380   2.445
  212SOL     OW  643   0.606   0.964   1.985
  212SOL    HW1  644   0.613   1.048   1.931
  212SOL    HW2  645   0.652   0.977   2.073
  213SOL     OW  646   1.842   1.767   2.221
  213SOL    HW1  647   1.896   1.738   2.301
  213SOL    HW2  648   1.872   1.857   2.192
  214SOL     OW  649   0.027   1.596   1.979
  214SOL    HW1  650   0.008   1.500   2.000
  214SOL    HW2  651  -0.006   1.654   2.054
  215SOL     OW  652   1.689   0.922   2.474
  215SOL    HW1  653   1.784   0.893   2.482
  215SOL    HW2  654   1.681   0.987   2.399
  216SOL     OW  655   1.641   1.108   2.294
  216SOL    HW1  656   1.727   1.110   2.242
  216SOL    HW2  657   1.655   1.155   2.382
  217SOL     OW  658   0.809   0.004   2.364
  217SOL    HW1  659   0.849   0.095   2.355
  217SOL    HW2  660   0.709   0.012   2.370
  218SOL     OW  661   1.525   0.999   2.052
  218SOL    HW1  662   1.462   0.923   2.065
  218SOL    HW2  663   1.573   1.017   2.138
  219SOL     OW  664   0.598   0.729   2.132
  219SOL    HW1  665   0.622   0.798   2.064
  219SOL    HW2  666   0.520   0.762   2.186
  220SOL     OW  667   1.576   1.662   2.169
  220SOL    HW1  668   1.665   1.708   2.172
  220SOL    HW2  669   1.555   1.638   2.074
  221SOL     OW  670   0.865   0.348   2.057
  221SOL    HW1  671   0.924   0.411   2.008
  221SOL    HW2  672   0.884   0.254   2.028
  222SOL     OW  673   0.321   0.943   2.104
  222SOL    HW1  674   0.403   0.982   2.062
  222SOL    HW2  675   0.294   0.861   2.055
  223SOL     OW  676   1.111   1.776   2.099
  223SOL    HW1  677   1.051   1.714   2.149
  223SOL    HW2  678   1.142   1.732   2.014
  224SOL     OW  679   1.632   1.377   1.943
  224SOL    HW1  680   1.600   1.471   1.933
  224SOL    HW2  681   1.556   1.314   1.931
  225SOL     OW  682   0.464   1.743   2.185
  225SOL    HW1  683   0.497   1.782   2.271
  225SOL    HW2  684   0.540   1.736   2.120
  226SOL     OW  685   1.400   0.107   2.288
  226SOL    HW1  686   1.376   0.070   2.198
  226SOL    HW2  687   1.499   0.123   2.292
  227SOL     OW  688   0.382   0.700   2.342
  227SOL    HW1  689   0.427   0.610   2.339
  227SOL    HW2  690   0.288   0.689   2.375
  228SOL     OW  691   0.614   0.122   1.979
  228SOL    HW1  692   0.712   0.100   1.986
  228SOL    HW2  693   0.583   0.105   1.886
  229SOL     OW  694   1.434   1.188   1.903
  229SOL    HW1  695   1.466   1.112   1.960
  229SOL    HW2  696   1.342   1.215   1.933
  230SOL     OW  697   0.297   0.035   2.033
  230SOL    HW1  698   0.346   0.119   2.012
  230SOL    HW2  699   0.359  -0.030   2.078
  231SOL     OW  700   0.935   0.236   2.342
  231SOL    HW1  701   0.887   0.277   2.264
  231SOL    HW2  702   1.034   0.234   2.323
  232SOL     OW  703   0.459   1.152   2.603
  232SOL    HW1  704   0.388   1.125   2.668
  232SOL    HW2  705   0.433   1.124   2.510
  233SOL     OW  706   1.271   1.797   2.453
  233SOL    HW1  707   1.315   1.861   2.389
  233SOL    HW2  708   1.221   1.849   2.523
  234SOL     OW  709   1.032   0.549   1.878
  234SOL    HW1  710   0.991   0.631   1.839
  234SOL    HW2  711   1.096   0.575   1.951
  235SOL     OW  712   1.857   0.833   2.239
  235SOL    HW1  713   1.899   0.769   2.303
  235SOL    HW2  714   1.819   0.782   2.161
  236SOL     OW  715   0.488   1.385   2.036
  236SOL    HW1  716   0.401   1.370   2.083
  236SOL    HW2  717   0.471   1.411   1.941
  237SOL     OW  718   1.390   0.575   1.940
  237SOL    HW1  719   1.336   0.554   2.021
  237SOL    HW2  720   1.481   0.534   1.949
  238SOL     OW  721   0.527   0.256   2.190
  238SOL    HW1  722   0.554   0.197   2.115
  238SOL    HW2  723   0.527   0.351   2.159
  239SOL     OW  724   0.705   1.050   2.230
  239SOL    HW1  725   0.691   1.057   2.329
  239SOL    HW2  726   0.789   0.999   2.212
  240SOL     OW  727   0.367   1.100   2.363
  240SOL    HW1  728   0.360   1.183   2.307
  240SOL    HW2  729   0.371   1.020   2.303
  241SOL     OW  730   1.252   1.348   2.250
  241SOL    HW1  731   1.302   1.425   2.290
  241SOL    HW2  732   1.157   1.350   2.282
  242SOL     OW  733   1.582   0.639   2.334
  242SOL    HW1  734   1.551   0.700   2.407
  242SOL    HW2  735   1.632   0.691   2.265
  243SOL     OW  736   1.209   0.525   2.137
  243SOL    HW1  737   1.222   0.441   2.191
  243SOL    HW2  738   1.180   0.599   2.197
  244SOL     OW  739   1.622   0.367   2.236
  244SOL    HW1  740   1.624   0.291   2.300
  244SOL    HW2  741   1.574   0.444   2.276
  245SOL     OW  742   1.540   0.274   1.987
  245SOL    HW1  743   1.479   0.199   2.010
  245SOL    HW2  744   1.562   0.326   2.070
  246SOL     OW  745   1.303   0.838   1.904
  246SOL    HW1  746   1.337   0.745   1.919
  246SOL    HW2  747   1.321   0.865   1.809
  247SOL     OW  748   0.008   1.326   2.062
  247SOL    HW1  749  -0.085   1.347   2.031
  247SOL    HW2  750   0.018   1.227   2.075
  248SOL     OW  751   0.815   0.572   2.187
  248SOL    HW1  752   0.822   0.483   2.141
  248SOL    HW2  753   0.721   0.606   2.179
  249SOL     OW  754   0.473   0.500   2.053
  249SOL    HW1  755   0.534   0.580   2.057
  249SOL    HW2  756   0.378   0.531   2.060
  250SOL     OW  757   1.302   0.855   2.171
  250SOL    HW1  758   1.216   0.824   2.213
  250SOL    HW2  759   1.298   0.841   2.072
  251SOL     OW  760   1.726   0.135   2.385
  251SOL    HW1  761   1.799   0.118   2.318
  251SOL    HW2  762   1.695   0.048   2.423
  252SOL     OW  763   1.388   1.573   2.339
  252SOL    HW1  764   1.455   1.585   2.265
  252SOL    HW2  765   1.348   1.662   2.362
  253SOL     OW  766   0.672   1.616   2.016
  253SOL    HW1  767   0.681   1.626   1.917
  253SOL    HW2  768   0.632   1.527   2.037
  254SOL     OW  769   1.194   1.612   1.893
  254SOL    HW1  770   1.200   1.519   1.930
  254SOL    HW2  771   1.135   1.612   1.813
  255SOL     OW  772   0.916   0.910   2.153
  255SOL    HW1  773   0.979   0.948   2.085
  255SOL    HW2  774   0.956   0.827   2.192
  256SOL     OW  775   1.504   1.607   1.906
  256SOL    HW1  776   1.412   1.644   1.913
  256SOL    HW2  777   1.542   1.627   1.816
  257SOL     OW  778   0.590   1.487   2.353
  257SOL    HW1  779   0.632   1.429   2.283
  257SOL    HW2  780   0.546   1.566   2.309
  258SOL     OW  781   0.255   1.348   2.152
  258SOL    HW1  782   0.159   1.349   2.125
  258SOL    HW2  783   0.267   1.401   2.236
  259SOL     OW  784   0.075   0.345   1.895
  259SOL    HW1  785  -0.017   0.317   1.866
  259SOL    HW2  786   0.106   0.422   1.839
  260SOL     OW  787   0.072   0.166   2.180
  260SOL    HW1  788   0.055   0.249   2.126
  260SOL    HW2  789   0.162   0.129   2.158
  261SOL     OW  790   1.183   1.335   1.981
  261SOL    HW1  791   1.084   1.324   1.983
  261SOL    HW2  792   1.217   1.350   2.074
  262SOL     OW  793   1.225   0.325   2.311
  262SOL    HW1  794   1.290   0.251   2.300
  262SOL    HW2  795   1.245   0.375   2.395
  263SOL     OW  796   0.594   0.745   2.514
  263SOL    HW1  797   0.644   0.830   2.495
  263SOL    HW2  798   0.506   0.747   2.466
  264SOL     OW  799   0.859   1.374   1.878
  264SOL    HW1  800   0.813   1.389   1.966
  264SOL    HW2  801   0.903   1.459   1.848
  265SOL     OW  802   1.083   0.984   1.949
  265SOL    HW1  803   1.060   1.037   1.867
  265SOL    HW2  804   1.164   0.928   1.930
  266SOL     OW  805   0.428   0.424   2.382
  266SOL    HW1  806   0.458   0.352   2.320
  266SOL    HW2  807   0.389   0.384   2.465
  267SOL     OW  808   0.770   1.330   2.163
  267SOL    HW1  809   0.724   1.243   2.180
  267SOL    HW2  810   0.861   1.327   2.204
  268SOL     OW  811   1.352   0.052   2.030
  268SOL    HW1  812   1.387   0.011   1.946
  268SOL    HW2  813   1.262   0.014   2.050
  269SOL     OW  814   0.039   1.077   2.162
  269SOL    HW1  815   0.138   1.066   2.153
  269SOL    HW2  816  -0.001   0.991   2.194
  270SOL     OW  817   0.875   1.646   2.199
  270SOL    HW1  818   0.798   1.611   2.145
  270SOL    HW2  819   0.843   1.717   2.261
  271SOL     OW  820   0.225   2.137   0.996
  271SOL    HW1  821   0.260   2.120   1.088
  271SOL    HW2  822   0.137   2.092   0.984
  272SOL     OW  823   0.019   2.230   0.647
  272SOL    HW1  824  -0.063   2.273   0.686
  272SOL    HW2  825  -0.009   2.157   0.584
  273SOL     OW  826   1.755   2.469   0.231
  273SOL    HW1  827   1.743   2.456   0.132
  273SOL    HW2  828   1.725   2.388   0.280
  274SOL     OW  829   0.438   2.254   1.499
  274SOL    HW1  830   0.520   2.198   1.508
  274SOL    HW2  831   0.357   2.196   1.503
  275SOL     OW  832   1.603   2.309   0.737
  275SOL    HW1  833   1.529   2.355   0.687
  275SOL    HW2  834   1.654   2.377   0.790
  276SOL     OW  835   1.594   1.976   1.480
  276SOL    HW1  836   1.576   2.043   1.408
  276SOL    HW2  837   1.591   2.022   1.569
  277SOL     OW  838   0.122   2.505   0.563
  277SOL    HW1  839   0.077   2.417   0.580
  277SOL    HW2  840   0.121   2.559   0.647
  278SOL     OW  841   0.809   1.866   0.502
  278SOL    HW1  842   0.849   1.957   0.493
  278SOL    HW2  843   0.709   1.874   0.508
  279SOL     OW  844   0.317   2.113   1.801
  279SOL    HW1  845   0.388   2.184   1.807
  279SOL    HW2  846   0.229   2.152   1.829
  280SOL     OW  847   1.281   2.207   0.944
  280SOL    HW1  848   1.195   2.157   0.931
  280SOL    HW2  849   1.343   2.153   1.000
  281SOL     OW  850   1.394   2.331   1.674
  281SOL    HW1  851   1.374   2.374   1.762
  281SOL    HW2  852   1.472   2.269   1.683
  282SOL     OW  853   0.991   2.272   1.242
  282SOL    HW1  854   0.914   2.306   1.296
  282SOL    HW2  855   0.957   2.221   1.163
  283SOL     OW  856   1.041   2.563   0.429
  283SOL    HW1  857   1.067   2.559   0.525
  283SOL    HW2  858   0.956   2.512   0.415
  284SOL     OW  859   0.076   2.673   0.789
  284SOL    HW1  860   0.175   2.661   0.798
  284SOL    HW2  861   0.052   2.768   0.810
  285SOL     OW  862   0.865   2.210   0.195
  285SOL    HW1  863   0.924   2.273   0.146
  285SOL    HW2  864   0.884   2.116   0.166
  286SOL     OW  865   1.719   2.447   1.831
  286SOL    HW1  866   1.693   2.536   1.795
  286SOL    HW2  867   1.717   2.379   1.758
  287SOL     OW  868   0.550   2.058   0.885
  287SOL    HW1  869   0.545   2.053   0.985
  287SOL    HW2  870   0.552   2.154   0.856
  288SOL     OW  871   1.458   2.597   0.728
  288SOL    HW1  872   1.453   2.532   0.803
  288SOL    HW2  873   1.538   2.656   0.741
  289SOL     OW  874   0.202   2.147   1.498
  289SOL    HW1  875   0.122   2.207   1.485
  289SOL    HW2  876   0.192   2.098   1.584
  290SOL     OW  877   1.400   1.969   0.426
  290SOL    HW1  878   1.376   1.932   0.336
  290SOL    HW2  879   1.499   1.985   0.430
  291SOL     OW  880   1.547   2.084   1.729
  291SOL    HW1  881   1.542   2.121   1.821
  291SOL    HW2  882   1.475   2.015   1.717
  292SOL     OW  883   0.614   1.984   0.117
  292SOL    HW1  884   0.712   1.962   0.124
  292SOL    HW2  885   0.583   1.967   0.024
  293SOL     OW  886   0.781   2.126   1.749
  293SOL    HW1  887   0.848   2.065   1.792
  293SOL    HW2  888   0.708   2.145   1.814
  294SOL     OW  889   1.351   2.452   1.433
  294SOL    HW1  890   1.379   2.409   1.518
  294SOL    HW2  891   1.376   2.548   1.434
  295SOL     OW  892   0.539   1.926   0.512
  295SOL    HW1  893   0.458   1.927   0.570
  295SOL    HW2  894   0.542   2.009   0.457
  296SOL     OW  895   0.297   1.897   0.171
  296SOL    HW1  896   0.346   1.981   0.150
  296SOL    HW2  897   0.359   1.832   0.216
  297SOL     OW  898   0.935   2.098   0.480
  297SOL    HW1  899   0.887   2.139   0.402
  297SOL    HW2  900   1.034   2.096   0.461
  298SOL     OW  901   0.078   2.418   1.386
  298SOL    HW1  902   0.170   2.417   1.345
  298SOL    HW2  903   0.072   2.492   1.453
  299SOL     OW  904   0.561   2.084   1.147
  299SOL    HW1  905   0.599   2.000   1.184
  299SOL    HW2  906   0.473   2.103   1.191
  300SOL     OW  907   1.017   1.901   0.753
  300SOL    HW1  908   0.945   1.906   0.684
  300SOL    HW2  909   0.993   1.832   0.822
  301SOL     OW  910   1.466   2.452   0.992
  301SOL    HW1  911   1.436   2.357   0.999
  301SOL    HW2  912   1.539   2.468   1.058
  302SOL     OW  913   0.527   2.118   0.328
  302SOL    HW1  914   0.554   2.059   0.253
  302SOL    HW2  915   0.527   2.213   0.297
  303SOL     OW  916   0.915   1.951   1.402
  303SOL    HW1  917   0.940   1.931   1.307
  303SOL    HW2  918   0.987   2.007   1.444
  304SOL     OW  919   1.274   2.248   1.262
  304SOL    HW1  920   1.295   2.322   1.326
  304SOL    HW2  921   1.185   2.265   1.219
  305SOL     OW  922   0.566   2.399   0.865
  305SOL    HW1  923   0.578   2.465   0.791
  305SOL    HW2  924   0.612   2.433   0.948
  306SOL     OW  925   1.013   1.967   1.770
  306SOL    HW1  926   1.019   2.052   1.718
  306SOL    HW2  927   1.045   1.891   1.713
  307SOL     OW  928   0.504   1.912   1.740
  307SOL    HW1  929   0.462   1.855   1.670
  307SOL    HW2  930   0.438   1.981   1.772
  308SOL     OW  931   1.209   2.387   0.275
  308SOL    HW1  932   1.222   2.303   0.329
  308SOL    HW2  933   1.180   2.461   0.335
  309SOL     OW  934   0.307   2.075   1.231
  309SOL    HW1  935   0.284   2.112   1.321
  309SOL    HW2  936   0.277   1.980   1.225
  310SOL     OW  937   0.732   2.496   1.064
  310SOL    HW1  938   0.791   2.470   0.988
  310SOL    HW2  939   0.704   2.592   1.053
  311SOL     OW  940   0.307   1.925   0.618
  311SOL    HW1  941   0.296   2.019   0.651
  311SOL    HW2  942   0.302   1.862   0.695
  312SOL     OW  943   1.622   2.229   0.374
  312SOL    HW1  944   1.624   2.153   0.438
  312SOL    HW2  945   1.574   2.306   0.414
  313SOL     OW  946   1.540   2.136   0.125
  313SOL    HW1  947   1.479   2.061   0.148
  313SOL    HW2  948   1.562   2.188   0.208
  314SOL     OW  949   0.339   2.371   1.006
  314SOL    HW1  950   0.287   2.288   0.989
  314SOL    HW2  951   0.416   2.376   0.942
  315SOL     OW  952   1.138   2.242   1.678
  315SOL    HW1  953   1.093   2.305   1.742
  315SOL    HW2  954   1.231   2.273   1.661
  316SOL     OW  955   1.160   2.069   1.477
  316SOL    HW1  956   1.160   2.133   1.554
  316SOL    HW2  957   1.188   2.117   1.394
  317SOL     OW  958   0.040   2.406   1.114
  317SOL    HW1  959   0.125   2.373   1.073
  317SOL    HW2  960   0.053   2.421   1.212
  318SOL     OW  961   0.189   2.382   1.722
  318SOL    HW1  962   0.248   2.342   1.652
  318SOL    HW2  963   0.131   2.453   1.681
  319SOL     OW  964   0.815   2.434   0.325
  319SOL    HW1  965   0.822   2.345   0.279
  319SOL    HW2  966   0.721   2.468   0.317
  320SOL     OW  967   1.657   2.466   1.206
  320SOL    HW1  968   1.619   2.397   1.268
  320SOL    HW2  969   1.739   2.430   1.162
  321SOL     OW  970   0.671   2.326   1.269
  321SOL    HW1  971   0.637   2.237   1.239
  321SOL    HW2  972   0.697   2.380   1.189
  322SOL     OW  973   0.903   1.948   0.133
  322SOL    HW1  974   0.954   1.949   0.047
  322SOL    HW2  975   0.959   1.906   0.204
  323SOL     OW  976   1.726   1.997   0.523
  323SOL    HW1  977   1.799   1.980   0.456
  323SOL    HW2  978   1.695   1.910   0.561
  324SOL     OW  979   1.841   2.037   0.963
  324SOL    HW1  980   1.880   1.952   0.927
  324SOL    HW2  981   1.743   2.039   0.944
  325SOL     OW  982   0.263   2.188   0.720
  325SOL    HW1  983   0.184   2.239   0.686
  325SOL    HW2  984   0.254   2.173   0.818
  326SOL     OW  985   1.014   2.098   0.971
  326SOL    HW1  986   1.006   2.062   0.878
  326SOL    HW2  987   1.012   2.022   1.036
  327SOL     OW  988   1.709   2.247   1.381
  327SOL    HW1  989   1.782   2.316   1.385
  327SOL    HW2  990   1.737   2.172   1.322
  328SOL     OW  991   0.672   2.065   1.489
  328SOL    HW1  992   0.762   2.049   1.449
  328SOL    HW2  993   0.680   2.070   1.588
  329SOL     OW  994   0.075   2.207   0.033
  329SOL    HW1  995  -0.017   2.179   0.004
  329SOL    HW2  996   0.106   2.284  -0.023
  330SOL     OW  997   0.072   2.028   0.318
  330SOL    HW1  998   0.055   2.111   0.264
  330SOL    HW2  999   0.162   1.991   0.296
  331SOL     OW 1000   0.716   2.427   1.708
  331SOL    HW1 1001   0.735   2.492   1.782
  331SOL    HW2 1002   0.776   2.347   1.717
  332SOL     OW 1003   1.225   2.187   0.449
  332SOL    HW1 1004   1.290   2.113   0.438
  332SOL    HW2 1005   1.245   2.237   0.533
  333SOL     OW 1006   1.777   2.204   1.642
  333SOL    HW1 1007   1.760   2.235   1.548
  333SOL    HW2 1008   1.693   2.167   1.680
  334SOL     OW 1009   1.824   2.054   1.227
  334SOL    HW1 1010   1.820   1.964   1.271
  334SOL    HW2 1011   1.827   2.043   1.128
  335SOL     OW 1012   0.428   2.286   0.520
  335SOL    HW1 1013   0.458   2.214   0.458
  335SOL    HW2 1014   0.389   2.246   0.603
  336SOL     OW 1015   0.317   2.409   1.280
  336SOL    HW1 1016   0.355   2.350   1.352
  336SOL    HW2 1017   0.357   2.383   1.192
  337SOL     OW 1018   1.424   2.076   1.112
  337SOL    HW1 1019   1.476   2.011   1.167
  337SOL    HW2 1020   1.375   2.139   1.173
  338SOL     OW 1021   1.001   1.896   1.154
  338SOL    HW1 1022   0.938   1.824   1.123
  338SOL    HW2 1023   1.094   1.860   1.154
  339SOL     OW 1024   1.352   1.914   0.168
  339SOL    HW1 1025   1.387   1.873   0.084
  339SOL    HW2 1026   1.262   1.876   0.188
  340SOL     OW 1027   1.300   2.315   0.691
  340SOL    HW1 1028   1.241   2.395   0.695
  340SOL    HW2 1029   1.315   2.280   0.784
  341SOL     OW 1030   1.593   2.083   0.882
  341SOL    HW1 1031   1.509   2.082   0.936
  341SOL    HW2 1032   1.595   2.166   0.826
  342SOL     OW 1033   1.755   2.469   2.093
  342SOL    HW1 1034   1.743   2.456   1.994
  342SOL    HW2 1035   1.725   2.388   2.142
  343SOL     OW 1036   0.122   2.505   2.425
  343SOL    HW1 1037   0.077   2.417   2.442
  343SOL    HW2 1038   0.121   2.559   2.509
  344SOL     OW 1039   0.809   1.866   2.364
  344SOL    HW1 1040   0.849   1.957   2.355
  344SOL    HW2 1041   0.709   1.874   2.370
  345SOL     OW 1042   1.041   2.563   2.291
  345SOL    HW1 1043   1.067   2.559   2.387
  345SOL    HW2 1044   0.956   2.512   2.277
  346SOL     OW 1045   0.865   2.210   2.057
  346SOL    HW1 1046   0.924   2.273   2.008
  346SOL    HW2 1047   0.884   2.116   2.028
  347SOL     OW 1048   1.400   1.969   2.288
  347SOL    HW1 1049   1.376   1.932   2.198
  347SOL    HW2 1050   1.499   1.985   2.292
  348SOL     OW 1051   0.382   2.562   2.342
  348SOL    HW1 1052   0.427   2.472   2.339
  348SOL    HW2 1053   0.288   2.551   2.375
  349SOL     OW 1054   0.614   1.984   1.979
  349SOL    HW1 1055   0.712   1.962   1.986
  349SOL    HW2 1056   0.583   1.967   1.886
  350SOL     OW 1057   0.297   1.897   2.033
  350SOL    HW1 1058   0.346   1.981   2.012
  350SOL    HW2 1059   0.359   1.832   2.078
  351SOL     OW 1060   0.935   2.098   2.342
  351SOL    HW1 1061   0.887   2.139   2.264
  351SOL    HW2 1062   1.034   2.096   2.323
  352SOL     OW 1063   0.527   2.118   2.190
  352SOL    HW1 1064   0.554   2.059   2.115
  352SOL    HW2 1065   0.527   2.213   2.159
  353SOL     OW 1066   1.209   2.387   2.137
  353SOL    HW1 1067   1.222   2.303   2.191
  353SOL    HW2 1068   1.180   2.461   2.197
  354SOL     OW 1069   1.622   2.229   2.236
  354SOL    HW1 1070   1.624   2.153   2.300
  354SOL    HW2 1071   1.574   2.306   2.276
  355SOL     OW 1072   1.540   2.136   1.987
  355SOL    HW1 1073   1.479   2.061   2.010
  355SOL    HW2 1074   1.562   2.188   2.070
  356SOL     OW 1075   0.815   2.434   2.187
  356SOL    HW1 1076   0.822   2.345   2.141
  356SOL    HW2 1077   0.721   2.468   2.179
  357SOL     OW 1078   1.726   1.997   2.385
  357SOL    HW1 1079   1.799   1.980   2.318
  357SOL    HW2 1080   1.695   1.910   2.423
  358SOL     OW 1081   0.075   2.207   1.895
  358SOL    HW1 1082  -0.017   2.179   1.866
  358SOL    HW2 1083   0.106   2.284   1.839
  359SOL     OW 1084   0.072   2.028   2.180
  359SOL    HW1 1085   0.055   2.111   2.126
  359SOL    HW2 1086   0.162   1.991   2.158
  360SOL     OW 1087   1.225   2.187   2.311
  360SOL    HW1 1088   1.290   2.113   2.300
  360SOL    HW2 1089   1.245   2.237   2.395
  361SOL     OW 1090   0.428   2.286   2.382
  361SOL    HW1 1091   0.458   2.214   2.320
  361SOL    HW2 1092   0.389   2.246   2.465
  362SOL     OW 1093   1.352   1.914   2.030
  362SOL    HW1 1094   1.387   1.873   1.946
  362SOL    HW2 1095   1.262   1.876   2.050
  363SOL     OW 1096   1.300   2.315   2.553
  363SOL    HW1 1097   1.241   2.395   2.557
  363SOL    HW2 1098   1.315   2.280   2.646
  364SOL     OW 1099   2.092   0.628   0.113
  364SOL    HW1 1100   1.999   0.626   0.150
  364SOL    HW2 1101   2.093   0.589   0.021
  365SOL     OW 1102   2.087   0.275   0.996
  365SOL    HW1 1103   2.122   0.258   1.088
  365SOL    HW2 1104   1.999   0.230   0.984
  366SOL     OW 1105   1.881   0.368   0.647
  366SOL    HW1 1106   1.799   0.411   0.686
  366SOL    HW2 1107   1.853   0.295   0.584
  367SOL     OW 1108   2.547   1.012   0.665
  367SOL    HW1 1109   2.616   0.996   0.735
  367SOL    HW2 1110   2.474   1.069   0.703
  368SOL     OW 1111   2.197   1.435   1.061
  368SOL    HW1 1112   2.119   1.404   1.008
  368SOL    HW2 1113   2.255   1.493   1.004
  369SOL     OW 1114   2.300   0.392   1.499
  369SOL    HW1 1115   2.382   0.336   1.508
  369SOL    HW2 1116   2.219   0.334   1.503
  370SOL     OW 1117   2.093   1.713   0.483
  370SOL    HW1 1118   2.127   1.790   0.537
  370SOL    HW2 1119   2.137   1.713   0.393
  371SOL     OW 1120   2.092   1.434   0.538
  371SOL    HW1 1121   2.066   1.530   0.538
  371SOL    HW2 1122   2.021   1.380   0.583
  372SOL     OW 1123   2.102   1.091   0.886
  372SOL    HW1 1124   2.116   1.007   0.938
  372SOL    HW2 1125   2.047   1.155   0.941
  373SOL     OW 1126   1.984   0.643   0.563
  373SOL    HW1 1127   1.939   0.555   0.580
  373SOL    HW2 1128   1.983   0.697   0.647
  374SOL     OW 1129   1.889   1.596   0.117
  374SOL    HW1 1130   1.870   1.500   0.138
  374SOL    HW2 1131   1.856   1.654   0.192
  375SOL     OW 1132   1.975   0.737   1.597
  375SOL    HW1 1133   2.063   0.724   1.642
  375SOL    HW2 1134   1.962   0.834   1.575
  376SOL     OW 1135   2.475   1.365   0.726
  376SOL    HW1 1136   2.426   1.278   0.735
  376SOL    HW2 1137   2.452   1.408   0.639
  377SOL     OW 1138   2.059   0.976   1.264
  377SOL    HW1 1139   2.148   0.931   1.250
  377SOL    HW2 1140   1.986   0.911   1.245
  378SOL     OW 1141   2.179   0.251   1.801
  378SOL    HW1 1142   2.250   0.322   1.807
  378SOL    HW2 1143   2.091   0.290   1.829
  379SOL     OW 1144   2.460   0.729   0.270
  379SOL    HW1 1145   2.484   0.798   0.202
  379SOL    HW2 1146   2.382   0.762   0.324
  380SOL     OW 1147   1.938   0.811   0.789
  380SOL    HW1 1148   2.037   0.799   0.798
  380SOL    HW2 1149   1.914   0.906   0.810
  381SOL     OW 1150   1.992   1.821   1.571
  381SOL    HW1 1151   1.982   1.806   1.670
  381SOL    HW2 1152   1.906   1.857   1.535
  382SOL     OW 1153   2.727   0.348   0.195
  382SOL    HW1 1154   2.786   0.411   0.146
  382SOL    HW2 1155   2.746   0.254   0.166
  383SOL     OW 1156   2.412   0.196   0.885
  383SOL    HW1 1157   2.407   0.191   0.985
  383SOL    HW2 1158   2.414   0.292   0.856
  384SOL     OW 1159   2.213   1.801   0.853
  384SOL    HW1 1160   2.263   1.715   0.859
  384SOL    HW2 1161   2.278   1.878   0.850
  385SOL     OW 1162   2.183   0.943   0.242
  385SOL    HW1 1163   2.265   0.982   0.200
  385SOL    HW2 1164   2.156   0.861   0.193
  386SOL     OW 1165   2.323   1.266   1.727
  386SOL    HW1 1166   2.273   1.267   1.641
  386SOL    HW2 1167   2.260   1.248   1.803
  387SOL     OW 1168   2.064   0.285   1.498
  387SOL    HW1 1169   1.984   0.345   1.485
  387SOL    HW2 1170   2.054   0.236   1.584
  388SOL     OW 1171   2.111   1.785   1.241
  388SOL    HW1 1172   2.168   1.720   1.291
  388SOL    HW2 1173   2.095   1.752   1.148
  389SOL     OW 1174   2.244   0.700   0.480
  389SOL    HW1 1175   2.289   0.610   0.477
  389SOL    HW2 1176   2.150   0.689   0.513
  390SOL     OW 1177   2.401   0.064   0.512
  390SOL    HW1 1178   2.320   0.065   0.570
  390SOL    HW2 1179   2.404   0.147   0.457
  391SOL     OW 1180   2.159   0.035   0.171
  391SOL    HW1 1181   2.208   0.119   0.150
  391SOL    HW2 1182   2.221  -0.030   0.216
  392SOL     OW 1183   2.321   1.152   0.741
  392SOL    HW1 1184   2.250   1.125   0.806
  392SOL    HW2 1185   2.295   1.124   0.648
  393SOL     OW 1186   1.940   0.556   1.386
  393SOL    HW1 1187   2.032   0.555   1.345
  393SOL    HW2 1188   1.934   0.630   1.453
  394SOL     OW 1189   2.423   0.222   1.147
  394SOL    HW1 1190   2.461   0.138   1.184
  394SOL    HW2 1191   2.335   0.241   1.191
  395SOL     OW 1192   2.389   0.256   0.328
  395SOL    HW1 1193   2.416   0.197   0.253
  395SOL    HW2 1194   2.389   0.351   0.297
  396SOL     OW 1195   2.842   1.116   1.719
  396SOL    HW1 1196   2.743   1.122   1.729
  396SOL    HW2 1197   2.865   1.036   1.663
  397SOL     OW 1198   2.272   0.813   1.251
  397SOL    HW1 1199   2.358   0.825   1.301
  397SOL    HW2 1200   2.230   0.726   1.278
  398SOL     OW 1201   1.926   1.564   1.331
  398SOL    HW1 1202   1.880   1.646   1.297
  398SOL    HW2 1203   2.024   1.583   1.340
  399SOL     OW 1204   2.229   1.100   0.501
  399SOL    HW1 1205   2.222   1.183   0.445
  399SOL    HW2 1206   2.233   1.020   0.441
  400SOL     OW 1207   2.428   0.537   0.865
  400SOL    HW1 1208   2.440   0.603   0.791
  400SOL    HW2 1209   2.474   0.571   0.948
  401SOL     OW 1210   2.216   1.510   1.329
  401SOL    HW1 1211   2.195   1.466   1.242
  401SOL    HW2 1212   2.313   1.536   1.332
  402SOL     OW 1213   2.264   0.751   1.598
  402SOL    HW1 1214   2.332   0.806   1.551
  402SOL    HW2 1215   2.304   0.663   1.625
  403SOL     OW 1216   2.366   0.050   1.740
  403SOL    HW1 1217   2.324  -0.007   1.670
  403SOL    HW2 1218   2.300   0.119   1.772
  404SOL     OW 1219   2.435   0.870   1.029
  404SOL    HW1 1220   2.479   0.959   1.020
  404SOL    HW2 1221   2.372   0.870   1.106
  405SOL     OW 1222   2.169   0.213   1.231
  405SOL    HW1 1223   2.146   0.250   1.321
  405SOL    HW2 1224   2.139   0.118   1.225
  406SOL     OW 1225   1.899   1.310   1.282
  406SOL    HW1 1226   1.952   1.261   1.350
  406SOL    HW2 1227   1.921   1.408   1.287
  407SOL     OW 1228   2.169   0.063   0.618
  407SOL    HW1 1229   2.158   0.157   0.651
  407SOL    HW2 1230   2.164   0.000   0.695
  408SOL     OW 1231   2.212   0.898   1.804
  408SOL    HW1 1232   2.288   0.942   1.852
  408SOL    HW2 1233   2.247   0.851   1.722
  409SOL     OW 1234   2.181   0.810   0.949
  409SOL    HW1 1235   2.274   0.846   0.954
  409SOL    HW2 1236   2.175   0.725   1.001
  410SOL     OW 1237   2.201   0.509   1.006
  410SOL    HW1 1238   2.149   0.426   0.989
  410SOL    HW2 1239   2.278   0.514   0.942
  411SOL     OW 1240   1.870   1.326   0.200
  411SOL    HW1 1241   1.777   1.347   0.169
  411SOL    HW2 1242   1.880   1.227   0.213
  412SOL     OW 1243   1.950   1.801   0.927
  412SOL    HW1 1244   1.908   1.715   0.900
  412SOL    HW2 1245   2.044   1.804   0.893
  413SOL     OW 1246   1.902   0.544   1.114
  413SOL    HW1 1247   1.987   0.511   1.073
  413SOL    HW2 1248   1.915   0.559   1.212
  414SOL     OW 1249   2.051   0.520   1.722
  414SOL    HW1 1250   2.110   0.480   1.652
  414SOL    HW2 1251   1.993   0.591   1.681
  415SOL     OW 1252   2.677   0.572   0.325
  415SOL    HW1 1253   2.684   0.483   0.279
  415SOL    HW2 1254   2.583   0.606   0.317
  416SOL     OW 1255   2.114   1.564   1.744
  416SOL    HW1 1256   2.084   1.621   1.820
  416SOL    HW2 1257   2.107   1.467   1.770
  417SOL     OW 1258   2.335   0.500   0.191
  417SOL    HW1 1259   2.396   0.580   0.195
  417SOL    HW2 1260   2.240   0.531   0.198
  418SOL     OW 1261   2.021   1.137   1.466
  418SOL    HW1 1262   2.043   1.076   1.542
  418SOL    HW2 1263   2.031   1.088   1.380
  419SOL     OW 1264   1.945   1.258   1.022
  419SOL    HW1 1265   1.940   1.257   1.122
  419SOL    HW2 1266   1.862   1.217   0.984
  420SOL     OW 1267   2.550   1.662   1.716
  420SOL    HW1 1268   2.494   1.743   1.725
  420SOL    HW2 1269   2.602   1.666   1.630
  421SOL     OW 1270   1.992   1.794   1.851
  421SOL    HW1 1271   1.951   1.720   1.904
  421SOL    HW2 1272   2.056   1.845   1.909
  422SOL     OW 1273   2.125   0.326   0.720
  422SOL    HW1 1274   2.046   0.377   0.686
  422SOL    HW2 1275   2.116   0.311   0.818
  423SOL     OW 1276   2.234   1.288   1.490
  423SOL    HW1 1277   2.221   1.381   1.456
  423SOL    HW2 1278   2.150   1.236   1.477
  424SOL     OW 1279   2.452   1.487   0.491
  424SOL    HW1 1280   2.494   1.429   0.421
  424SOL    HW2 1281   2.408   1.566   0.447
  425SOL     OW 1282   2.117   1.348   0.290
  425SOL    HW1 1283   2.021   1.349   0.263
  425SOL    HW2 1284   2.129   1.401   0.374
  426SOL     OW 1285   1.967   1.013   1.726
  426SOL    HW1 1286   1.890   0.980   1.780
  426SOL    HW2 1287   2.052   0.983   1.768
  427SOL     OW 1288   1.937   0.345   0.033
  427SOL    HW1 1289   1.845   0.317   0.004
  427SOL    HW2 1290   1.968   0.422  -0.023
  428SOL     OW 1291   1.934   0.166   0.318
  428SOL    HW1 1292   1.917   0.249   0.264
  428SOL    HW2 1293   2.024   0.129   0.296
  429SOL     OW 1294   2.252   1.741   1.560
  429SOL    HW1 1295   2.161   1.782   1.558
  429SOL    HW2 1296   2.245   1.647   1.592
  430SOL     OW 1297   2.456   0.745   0.652
  430SOL    HW1 1298   2.506   0.830   0.633
  430SOL    HW2 1299   2.368   0.747   0.604
  431SOL     OW 1300   2.083   1.314   1.844
  431SOL    HW1 1301   2.018   1.241   1.823
  431SOL    HW2 1302   2.087   1.328   1.942
  432SOL     OW 1303   1.941   1.240   0.653
  432SOL    HW1 1304   1.940   1.193   0.741
  432SOL    HW2 1305   2.023   1.212   0.602
  433SOL     OW 1306   2.534   1.391   1.624
  433SOL    HW1 1307   2.456   1.341   1.662
  433SOL    HW2 1308   2.531   1.486   1.655
  434SOL     OW 1309   2.290   0.424   0.520
  434SOL    HW1 1310   2.320   0.352   0.458
  434SOL    HW2 1311   2.251   0.384   0.603
  435SOL     OW 1312   2.179   0.547   1.280
  435SOL    HW1 1313   2.217   0.488   1.352
  435SOL    HW2 1314   2.219   0.521   1.192
  436SOL     OW 1315   1.901   1.077   0.300
  436SOL    HW1 1316   2.000   1.066   0.291
  436SOL    HW2 1317   1.861   0.991   0.332
  437SOL     OW 1318   2.092   0.628   1.975
  437SOL    HW1 1319   1.999   0.626   2.012
  437SOL    HW2 1320   2.093   0.589   1.883
  438SOL     OW 1321   2.547   1.012   2.527
  438SOL    HW1 1322   2.616   0.996   2.597
  438SOL    HW2 1323   2.474   1.069   2.565
  439SOL     OW 1324   2.093   1.713   2.345
  439SOL    HW1 1325   2.127   1.790   2.399
  439SOL    HW2 1326   2.137   1.713   2.255
  440SOL     OW 1327   2.092   1.434   2.400
  440SOL    HW1 1328   2.066   1.530   2.400
  440SOL    HW2 1329   2.021   1.380   2.445
  441SOL     OW 1330   1.889   1.596   1.979
  441SOL    HW1 1331   1.870   1.500   2.000
  441SOL    HW2 1332   1.856   1.654   2.054
  442SOL     OW 1333   2.460   0.729   2.132
  442SOL    HW1 1334   2.484   0.798   2.064
  442SOL    HW2 1335   2.382   0.762   2.186
  443SOL     OW 1336   2.727   0.348   2.057
  443SOL    HW1 1337   2.786   0.411   2.008
  443SOL    HW2 1338   2.746   0.254   2.028
  444SOL     OW 1339   2.213   1.801   2.715
  444SOL    HW1 1340   2.263   1.715   2.721
  444SOL    HW2 1341   2.278   1.878   2.712
  445SOL     OW 1342   2.183   0.943   2.104
  445SOL    HW1 1343   2.265   0.982   2.062
  445SOL    HW2 1344   2.156   0.861   2.055
  446SOL     OW 1345   2.244   0.700   2.342
  446SOL    HW1 1346   2.289   0.610   2.339
  446SOL    HW2 1347   2.150   0.689   2.375
  447SOL     OW 1348   2.476   0.122   1.979
  447SOL    HW1 1349   2.574   0.100   1.986
  447SOL    HW2 1350   2.445   0.105   1.886
  448SOL     OW 1351   2.401   0.064   2.374
  448SOL    HW1 1352   2.320   0.065   2.432
  448SOL    HW2 1353   2.404   0.147   2.319
  449SOL     OW 1354   2.159   0.035   2.033
  449SOL    HW1 1355   2.208   0.119   2.012
  449SOL    HW2 1356   2.221  -0.030   2.078
  450SOL     OW 1357   2.321   1.152   2.603
  450SOL    HW1 1358   2.250   1.125   2.668
  450SOL    HW2 1359   2.295   1.124   2.510
  451SOL     OW 1360   2.389   0.256   2.190
  451SOL    HW1 1361   2.416   0.197   2.115
  451SOL    HW2 1362   2.389   0.351   2.159
  452SOL     OW 1363   2.229   1.100   2.363
  452SOL    HW1 1364   2.222   1.183   2.307
  452SOL    HW2 1365   2.233   1.020   2.303
  453SOL     OW 1366   1.870   1.326   2.062
  453SOL    HW1 1367   1.777   1.347   2.031
  453SOL    HW2 1368   1.880   1.227   2.075
  454SOL     OW 1369   2.677   0.572   2.187
  454SOL    HW1 1370   2.684   0.483   2.141
  454SOL    HW2 1371   2.583   0.606   2.179
  455SOL     OW 1372   2.335   0.500   2.053
  455SOL    HW1 1373   2.396   0.580   2.057
  455SOL    HW2 1374   2.240   0.531   2.060
  456SOL     OW 1375   2.452   1.487   2.353
  456SOL    HW1 1376   2.494   1.429   2.283
  456SOL    HW2 1377   2.408   1.566   2.309
  457SOL     OW 1378   2.117   1.348   2.152
  457SOL    HW1 1379   2.021   1.349   2.125
  457SOL    HW2 1380   2.129   1.401   2.236
  458SOL     OW 1381   1.937   0.345   1.895
  458SOL    HW1 1382   1.845   0.317   1.866
  458SOL    HW2 1383   1.968   0.422   1.839
  459SOL     OW 1384   1.934   0.166   2.180
  459SOL    HW1 1385   1.917   0.249   2.126
  459SOL    HW2 1386   2.024   0.129   2.158
  460SOL     OW 1387   2.456   0.745   2.514
  460SOL    HW1 1388   2.506   0.830   2.495
  460SOL    HW2 1389   2.368   0.747   2.466
  461SOL     OW 1390   2.290   0.424   2.382
  461SOL    HW1 1391   2.320   0.352   2.320
  461SOL    HW2 1392   2.251   0.384   2.465
  462SOL     OW 1393   1.901   1.077   2.162
  462SOL    HW1 1394   2.000   1.066   2.153
  462SOL    HW2 1395   1.861   0.991   2.194
  463SOL     OW 1396   2.087   2.137   0.996
  463SOL    HW1 1397   2.122   2.120   1.088
  463SOL    HW2 1398   1.999   2.092   0.984
  464SOL     OW 1399   1.881   2.230   0.647
  464SOL    HW1 1400   1.799   2.273   0.686
  464SOL    HW2 1401   1.853   2.157   0.584
  465SOL     OW 1402   2.300   2.254   1.499
  465SOL    HW1 1403   2.382   2.198   1.508
  465SOL    HW2 1404   2.219   2.196   1.503
  466SOL     OW 1405   1.984   2.505   0.563
  466SOL    HW1 1406   1.939   2.417   0.580
  466SOL    HW2 1407   1.983   2.559   0.647
  467SOL     OW 1408   2.179   2.113   1.801
  467SOL    HW1 1409   2.250   2.184   1.807
  467SOL    HW2 1410   2.091   2.152   1.829
  468SOL     OW 1411   1.938   2.673   0.789
  468SOL    HW1 1412   2.037   2.661   0.798
  468SOL    HW2 1413   1.914   2.768   0.810
  469SOL     OW 1414   2.727   2.210   0.195
  469SOL    HW1 1415   2.786   2.273   0.146
  469SOL    HW2 1416   2.746   2.116   0.166
  470SOL     OW 1417   2.412   2.058   0.885
  470SOL    HW1 1418   2.407   2.053   0.985
  470SOL    HW2 1419   2.414   2.154   0.856
  471SOL     OW 1420   2.064   2.147   1.498
  471SOL    HW1 1421   1.984   2.207   1.485
  471SOL    HW2 1422   2.054   2.098   1.584
  472SOL     OW 1423   2.476   1.984   0.117
  472SOL    HW1 1424   2.574   1.962   0.124
  472SOL    HW2 1425   2.445   1.967   0.024
  473SOL     OW 1426   2.401   1.926   0.512
  473SOL    HW1 1427   2.320   1.927   0.570
  473SOL    HW2 1428   2.404   2.009   0.457
  474SOL     OW 1429   1.940   2.418   1.386
  474SOL    HW1 1430   2.032   2.417   1.345
  474SOL    HW2 1431   1.934   2.492   1.453
  475SOL     OW 1432   2.423   2.084   1.147
  475SOL    HW1 1433   2.461   2.000   1.184
  475SOL    HW2 1434   2.335   2.103   1.191
  476SOL     OW 1435   2.389   2.118   0.328
  476SOL    HW1 1436   2.416   2.059   0.253
  476SOL    HW2 1437   2.389   2.213   0.297
  477SOL     OW 1438   2.428   2.399   0.865
  477SOL    HW1 1439   2.440   2.465   0.791
  477SOL    HW2 1440   2.474   2.433   0.948
  478SOL     OW 1441   2.366   1.912   1.740
  478SOL    HW1 1442   2.324   1.855   1.670
  478SOL    HW2 1443   2.300   1.981   1.772
  479SOL     OW 1444   2.169   2.075   1.231
  479SOL    HW1 1445   2.146   2.112   1.321
  479SOL    HW2 1446   2.139   1.980   1.225
  480SOL     OW 1447   2.169   1.925   0.618
  480SOL    HW1 1448   2.158   2.019   0.651
  480SOL    HW2 1449   2.164   1.862   0.695
  481SOL     OW 1450   2.201   2.371   1.006
  481SOL    HW1 1451   2.149   2.288   0.989
  481SOL    HW2 1452   2.278   2.376   0.942
  482SOL     OW 1453   1.902   2.406   1.114
  482SOL    HW1 1454   1.987   2.373   1.073
  482SOL    HW2 1455   1.915   2.421   1.212
  483SOL     OW 1456   2.051   2.382   1.722
  483SOL    HW1 1457   2.110   2.342   1.652
  483SOL    HW2 1458   1.993   2.453   1.681
  484SOL     OW 1459   2.677   2.434   0.325
  484SOL    HW1 1460   2.684   2.345   0.279
  484SOL    HW2 1461   2.583   2.468   0.317
  485SOL     OW 1462   2.125   2.188   0.720
  485SOL    HW1 1463   2.046   2.239   0.686
  485SOL    HW2 1464   2.116   2.173   0.818
  486SOL     OW 1465   1.937   2.207   0.033
  486SOL    HW1 1466   1.845   2.179   0.004
  486SOL    HW2 1467   1.968   2.284  -0.023
  487SOL     OW 1468   1.934   2.028   0.318
  487SOL    HW1 1469   1.917   2.111   0.264
  487SOL    HW2 1470   2.024   1.991   0.296
  488SOL     OW 1471   2.290   2.286   0.520
  488SOL    HW1 1472   2.320   2.214   0.458
  488SOL    HW2 1473   2.251   2.246   0.603
  489SOL     OW 1474   2.179   2.409   1.280
  489SOL    HW1 1475   2.217   2.350   1.352
  489SOL    HW2 1476   2.219   2.383   1.192
  490SOL     OW 1477   1.984   2.505   2.425
  490SOL    HW1 1478   1.939   2.417   2.442
  490SOL    HW2 1479   1.983   2.559   2.509
  491SOL     OW 1480   2.727   2.210   2.057
  491SOL    HW1 1481   2.786   2.273   2.008
  491SOL    HW2 1482   2.746   2.116   2.028
  492SOL     OW 1483   2.476   1.984   1.979
  492SOL    HW1 1484   2.574   1.962   1.986
  492SOL    HW2 1485   2.445   1.967   1.886
  493SOL     OW 1486   2.159   1.897   2.033
  493SOL    HW1 1487   2.208   1.981   2.012
  493SOL    HW2 1488   2.221   1.832   2.078
  494SOL     OW 1489   2.389   2.118   2.190
  494SOL    HW1 1490   2.416   2.059   2.115
  494SOL    HW2 1491   2.389   2.213   2.159
  495SOL     OW 1492   2.169   1.925   2.480
  495SOL    HW1 1493   2.158   2.019   2.513
  495SOL    HW2 1494   2.164   1.862   2.557
  496SOL     OW 1495   2.677   2.434   2.187
  496SOL    HW1 1496   2.684   2.345   2.141
  496SOL    HW2 1497   2.583   2.468   2.179
  497SOL     OW 1498   1.937   2.207   1.895
  497SOL    HW1 1499   1.845   2.179   1.866
  497SOL    HW2 1500   1.968   2.284   1.839
  498SOL     OW 1501   1.934   2.028   2.180
  498SOL    HW1 1502   1.917   2.111   2.126
  498SOL    HW2 1503   2.024   1.991   2.158
  499SOL     OW 1504   2.290   2.286   2.382
  499SOL    HW1 1505   2.320   2.214   2.320
  499SOL    HW2 1506   2.251   2.246   2.465
   2.49248   2.49248   2.49248
