mobley_8124669_GMX.gro created by acpype (v: 2023.10.27) on Thu May 14 13:47:39 2026
 2285
    1MOL     C1    1   1.422   1.189   1.205
    1MOL     C2    2   1.320   1.283   1.217
    1MOL     C3    3   1.534   1.197   1.287
    1MOL     C4    4   1.329   1.387   1.311
    1MOL     C5    5   1.547   1.300   1.382
    1MOL     C6    6   1.443   1.396   1.393
    1MOL     C7    7   1.536   1.613   1.466
    1MOL     C8    8   1.236   1.606   1.226
    1MOL     C9    9   1.656   1.201   1.586
    1MOL    C10   10   1.233   1.559   1.765
    1MOL    C11   11   1.214   1.486   1.318
    1MOL    C12   12   1.670   1.299   1.470
    1MOL    C13   13   1.584   1.634   1.322
    1MOL    C14   14   1.399   1.480   1.619
    1MOL     N1   15   1.455   1.502   1.487
    1MOL     O1   16   1.568   1.689   1.558
    1MOL     O2   17   1.282   1.559   1.632
    1MOL    CL1   18   1.654   1.796   1.299
    1MOL     H1   19   1.413   1.109   1.132
    1MOL     H2   20   1.233   1.275   1.153
    1MOL     H3   21   1.612   1.122   1.277
    1MOL     H4   22   1.324   1.663   1.255
    1MOL     H5   23   1.149   1.672   1.230
    1MOL     H6   24   1.250   1.574   1.122
    1MOL     H7   25   1.571   1.227   1.651
    1MOL     H8   26   1.747   1.203   1.648
    1MOL     H9   27   1.641   1.099   1.551
    1MOL    H10   28   1.142   1.619   1.769
    1MOL    H11   29   1.307   1.603   1.833
    1MOL    H12   30   1.209   1.457   1.797
    1MOL    H13   31   1.119   1.438   1.295
    1MOL    H14   32   1.204   1.521   1.421
    1MOL    H15   33   1.757   1.272   1.410
    1MOL    H16   34   1.692   1.399   1.509
    1MOL    H17   35   1.501   1.625   1.252
    1MOL    H18   36   1.662   1.561   1.298
    1MOL    H19   37   1.473   1.508   1.695
    1MOL    H20   38   1.373   1.374   1.633
    2SOL     OW   39   0.230   0.628   0.113
    2SOL    HW1   40   0.137   0.626   0.150
    2SOL    HW2   41   0.231   0.589   0.021
    3SOL     OW   42   0.225   0.275   0.996
    3SOL    HW1   43   0.260   0.258   1.088
    3SOL    HW2   44   0.137   0.230   0.984
    4SOL     OW   45   0.019   0.368   0.647
    4SOL    HW1   46  -0.063   0.411   0.686
    4SOL    HW2   47  -0.009   0.295   0.584
    5SOL     OW   48   0.569   1.275   1.165
    5SOL    HW1   49   0.476   1.268   1.128
    5SOL    HW2   50   0.580   1.364   1.209
    6SOL     OW   51   1.555   1.511   0.703
    6SOL    HW1   52   1.498   1.495   0.784
    6SOL    HW2   53   1.496   1.521   0.623
    7SOL     OW   54   1.135   0.703   0.717
    7SOL    HW1   55   1.192   0.781   0.692
    7SOL    HW2   56   1.075   0.729   0.793
    8SOL     OW   57   1.755   0.607   0.231
    8SOL    HW1   58   1.743   0.594   0.132
    8SOL    HW2   59   1.725   0.526   0.280
    9SOL     OW   60   0.768   1.144   1.023
    9SOL    HW1   61   0.690   1.161   1.083
    9SOL    HW2   62   0.802   1.231   0.987
   10SOL     OW   63   0.850   0.798   1.823
   10SOL    HW1   64   0.846   0.874   1.888
   10SOL    HW2   65   0.872   0.834   1.732
   11SOL     OW   66   0.685   1.012   0.665
   11SOL    HW1   67   0.754   0.996   0.735
   11SOL    HW2   68   0.612   1.069   0.703
   12SOL     OW   69   0.686   1.161   1.803
   12SOL    HW1   70   0.746   1.240   1.817
   12SOL    HW2   71   0.600   1.192   1.762
   13SOL     OW   72   0.335   1.435   1.061
   13SOL    HW1   73   0.257   1.404   1.008
   13SOL    HW2   74   0.393   1.493   1.004
   14SOL     OW   75   0.438   0.392   1.499
   14SOL    HW1   76   0.520   0.336   1.508
   14SOL    HW2   77   0.357   0.334   1.503
   15SOL     OW   78   1.603   0.447   0.737
   15SOL    HW1   79   1.529   0.493   0.687
   15SOL    HW2   80   1.654   0.515   0.790
   16SOL     OW   81   0.231   1.713   0.483
   16SOL    HW1   82   0.265   1.790   0.537
   16SOL    HW2   83   0.275   1.713   0.393
   17SOL     OW   84   0.230   1.434   0.538
   17SOL    HW1   85   0.204   1.530   0.538
   17SOL    HW2   86   0.159   1.380   0.583
   18SOL     OW   87   0.240   1.091   0.886
   18SOL    HW1   88   0.254   1.007   0.938
   18SOL    HW2   89   0.185   1.155   0.941
   19SOL     OW   90   0.620   1.786   1.439
   19SOL    HW1   91   0.528   1.769   1.474
   19SOL    HW2   92   0.648   1.878   1.465
   20SOL     OW   93   0.606   0.964   0.123
   20SOL    HW1   94   0.613   1.048   0.069
   20SOL    HW2   95   0.652   0.977   0.211
   21SOL     OW   96   1.594   0.114   1.480
   21SOL    HW1   97   1.576   0.181   1.408
   21SOL    HW2   98   1.591   0.160   1.569
   22SOL     OW   99   0.122   0.643   0.563
   22SOL    HW1  100   0.077   0.555   0.580
   22SOL    HW2  101   0.121   0.697   0.647
   23SOL     OW  102   1.842   1.767   0.359
   23SOL    HW1  103   1.896   1.738   0.439
   23SOL    HW2  104   1.872   1.857   0.330
   24SOL     OW  105   0.027   1.596   0.117
   24SOL    HW1  106   0.008   1.500   0.138
   24SOL    HW2  107  -0.006   1.654   0.192
   25SOL     OW  108   1.689   0.922   0.612
   25SOL    HW1  109   1.784   0.893   0.620
   25SOL    HW2  110   1.681   0.987   0.537
   26SOL     OW  111   1.641   1.108   0.432
   26SOL    HW1  112   1.727   1.110   0.380
   26SOL    HW2  113   1.655   1.155   0.520
   27SOL     OW  114   0.113   0.737   1.597
   27SOL    HW1  115   0.201   0.724   1.642
   27SOL    HW2  116   0.100   0.834   1.575
   28SOL     OW  117   0.613   1.365   0.726
   28SOL    HW1  118   0.564   1.278   0.735
   28SOL    HW2  119   0.590   1.408   0.639
   29SOL     OW  120   1.293   1.228   1.423
   29SOL    HW1  121   1.330   1.155   1.365
   29SOL    HW2  122   1.345   1.233   1.508
   30SOL     OW  123   0.809   0.004   0.502
   30SOL    HW1  124   0.849   0.095   0.493
   30SOL    HW2  125   0.709   0.012   0.508
   31SOL     OW  126   0.197   0.976   1.264
   31SOL    HW1  127   0.286   0.931   1.250
   31SOL    HW2  128   0.124   0.911   1.245
   32SOL     OW  129   1.525   0.999   0.190
   32SOL    HW1  130   1.462   0.923   0.203
   32SOL    HW2  131   1.573   1.017   0.276
   33SOL     OW  132   1.187   1.792   1.616
   33SOL    HW1  133   1.211   1.852   1.540
   33SOL    HW2  134   1.194   1.697   1.586
   34SOL     OW  135   0.317   0.251   1.801
   34SOL    HW1  136   0.388   0.322   1.807
   34SOL    HW2  137   0.229   0.290   1.829
   35SOL     OW  138   1.466   1.417   0.953
   35SOL    HW1  139   1.407   1.423   1.033
   35SOL    HW2  140   1.451   1.329   0.907
   36SOL     OW  141   1.667   1.714   0.572
   36SOL    HW1  142   1.626   1.691   0.484
   36SOL    HW2  143   1.649   1.640   0.637
   37SOL     OW  144   0.598   0.729   0.270
   37SOL    HW1  145   0.622   0.798   0.202
   37SOL    HW2  146   0.520   0.762   0.324
   38SOL     OW  147   1.281   0.345   0.944
   38SOL    HW1  148   1.195   0.295   0.931
   38SOL    HW2  149   1.343   0.291   1.000
   39SOL     OW  150   1.576   1.662   0.307
   39SOL    HW1  151   1.665   1.708   0.310
   39SOL    HW2  152   1.555   1.638   0.212
   40SOL     OW  153   0.807   0.605   1.465
   40SOL    HW1  154   0.760   0.602   1.554
   40SOL    HW2  155   0.756   0.550   1.399
   41SOL     OW  156   1.394   0.469   1.674
   41SOL    HW1  157   1.374   0.512   1.762
   41SOL    HW2  158   1.472   0.407   1.683
   42SOL     OW  159   0.973   0.890   1.572
   42SOL    HW1  160   1.019   0.806   1.543
   42SOL    HW2  161   0.917   0.924   1.497
   43SOL     OW  162   0.991   0.410   1.242
   43SOL    HW1  163   0.914   0.444   1.296
   43SOL    HW2  164   0.957   0.359   1.163
   44SOL     OW  165   1.041   0.701   0.429
   44SOL    HW1  166   1.067   0.697   0.525
   44SOL    HW2  167   0.956   0.650   0.415
   45SOL     OW  168   0.076   0.811   0.789
   45SOL    HW1  169   0.175   0.799   0.798
   45SOL    HW2  170   0.052   0.906   0.810
   46SOL     OW  171   0.130   1.821   1.571
   46SOL    HW1  172   0.120   1.806   1.670
   46SOL    HW2  173   0.044   1.857   1.535
   47SOL     OW  174   0.865   0.348   0.195
   47SOL    HW1  175   0.924   0.411   0.146
   47SOL    HW2  176   0.884   0.254   0.166
   48SOL     OW  177   1.719   0.585   1.831
   48SOL    HW1  178   1.693   0.674   1.795
   48SOL    HW2  179   1.717   0.517   1.758
   49SOL     OW  180   1.362   1.144   0.545
   49SOL    HW1  181   1.445   1.115   0.497
   49SOL    HW2  182   1.313   1.211   0.489
   50SOL     OW  183   0.550   0.196   0.885
   50SOL    HW1  184   0.545   0.191   0.985
   50SOL    HW2  185   0.552   0.292   0.856
   51SOL     OW  186   1.008   1.456   0.477
   51SOL    HW1  187   0.962   1.528   0.425
   51SOL    HW2  188   1.004   1.476   0.575
   52SOL     OW  189   0.351   1.801   0.853
   52SOL    HW1  190   0.401   1.715   0.859
   52SOL    HW2  191   0.416   1.878   0.850
   53SOL     OW  192   1.795   1.066   0.873
   53SOL    HW1  193   1.733   1.051   0.797
   53SOL    HW2  194   1.743   1.077   0.958
   54SOL     OW  195   0.321   0.943   0.242
   54SOL    HW1  196   0.403   0.982   0.200
   54SOL    HW2  197   0.294   0.861   0.193
   55SOL     OW  198   1.458   0.735   0.728
   55SOL    HW1  199   1.453   0.670   0.803
   55SOL    HW2  200   1.538   0.794   0.741
   56SOL     OW  201   0.461   1.266   1.727
   56SOL    HW1  202   0.411   1.267   1.641
   56SOL    HW2  203   0.398   1.248   1.803
   57SOL     OW  204   1.111   1.776   0.237
   57SOL    HW1  205   1.051   1.714   0.287
   57SOL    HW2  206   1.142   1.732   0.152
   58SOL     OW  207   0.202   0.285   1.498
   58SOL    HW1  208   0.122   0.345   1.485
   58SOL    HW2  209   0.192   0.236   1.584
   59SOL     OW  210   1.632   1.377   0.081
   59SOL    HW1  211   1.600   1.471   0.071
   59SOL    HW2  212   1.556   1.314   0.069
   60SOL     OW  213   0.464   1.743   0.323
   60SOL    HW1  214   0.497   1.782   0.409
   60SOL    HW2  215   0.540   1.736   0.258
   61SOL     OW  216   1.400   0.107   0.426
   61SOL    HW1  217   1.376   0.070   0.336
   61SOL    HW2  218   1.499   0.123   0.430
   62SOL     OW  219   0.249   1.785   1.241
   62SOL    HW1  220   0.306   1.720   1.291
   62SOL    HW2  221   0.233   1.752   1.148
   63SOL     OW  222   0.940   1.698   0.904
   63SOL    HW1  223   1.020   1.641   0.925
   63SOL    HW2  224   0.891   1.658   0.827
   64SOL     OW  225   0.382   0.700   0.480
   64SOL    HW1  226   0.427   0.610   0.477
   64SOL    HW2  227   0.288   0.689   0.513
   65SOL     OW  228   1.547   0.222   1.729
   65SOL    HW1  229   1.542   0.259   1.821
   65SOL    HW2  230   1.475   0.153   1.717
   66SOL     OW  231   0.614   0.122   0.117
   66SOL    HW1  232   0.712   0.100   0.124
   66SOL    HW2  233   0.583   0.105   0.024
   67SOL     OW  234   0.781   0.264   1.749
   67SOL    HW1  235   0.848   0.203   1.792
   67SOL    HW2  236   0.708   0.283   1.814
   68SOL     OW  237   0.888   1.514   1.195
   68SOL    HW1  238   0.865   1.489   1.101
   68SOL    HW2  239   0.949   1.445   1.234
   69SOL     OW  240   1.351   0.590   1.433
   69SOL    HW1  241   1.379   0.547   1.518
   69SOL    HW2  242   1.376   0.686   1.434
   70SOL     OW  243   0.803   1.402   0.924
   70SOL    HW1  244   0.893   1.416   0.882
   70SOL    HW2  245   0.732   1.404   0.853
   71SOL     OW  246   0.922   0.503   0.899
   71SOL    HW1  247   0.897   0.494   0.803
   71SOL    HW2  248   0.970   0.421   0.930
   72SOL     OW  249   0.539   0.064   0.512
   72SOL    HW1  250   0.458   0.065   0.570
   72SOL    HW2  251   0.542   0.147   0.457
   73SOL     OW  252   1.434   1.188   0.041
   73SOL    HW1  253   1.466   1.112   0.098
   73SOL    HW2  254   1.342   1.215   0.071
   74SOL     OW  255   0.297   0.035   0.171
   74SOL    HW1  256   0.346   0.119   0.150
   74SOL    HW2  257   0.359  -0.030   0.216
   75SOL     OW  258   0.935   0.236   0.480
   75SOL    HW1  259   0.887   0.277   0.402
   75SOL    HW2  260   1.034   0.234   0.461
   76SOL     OW  261   1.076   0.683   1.464
   76SOL    HW1  262   0.996   0.622   1.467
   76SOL    HW2  263   1.157   0.630   1.440
   77SOL     OW  264   1.227   1.570   0.793
   77SOL    HW1  265   1.248   1.644   0.728
   77SOL    HW2  266   1.295   1.570   0.866
   78SOL     OW  267   0.459   1.152   0.741
   78SOL    HW1  268   0.388   1.125   0.806
   78SOL    HW2  269   0.433   1.124   0.648
   79SOL     OW  270   1.271   1.797   0.591
   79SOL    HW1  271   1.315   1.861   0.527
   79SOL    HW2  272   1.221   1.849   0.661
   80SOL     OW  273   1.032   0.549   0.016
   80SOL    HW1  274   0.991   0.631  -0.023
   80SOL    HW2  275   1.096   0.575   0.089
   81SOL     OW  276   0.078   0.556   1.386
   81SOL    HW1  277   0.170   0.555   1.345
   81SOL    HW2  278   0.072   0.630   1.453
   82SOL     OW  279   0.561   0.222   1.147
   82SOL    HW1  280   0.599   0.138   1.184
   82SOL    HW2  281   0.473   0.241   1.191
   83SOL     OW  282   0.866   0.454   0.642
   83SOL    HW1  283   0.834   0.526   0.580
   83SOL    HW2  284   0.890   0.373   0.589
   84SOL     OW  285   1.017   0.039   0.753
   84SOL    HW1  286   0.945   0.044   0.684
   84SOL    HW2  287   0.993  -0.030   0.822
   85SOL     OW  288   1.429   1.173   0.867
   85SOL    HW1  289   1.374   1.089   0.860
   85SOL    HW2  290   1.455   1.202   0.775
   86SOL     OW  291   1.466   0.590   0.992
   86SOL    HW1  292   1.436   0.495   0.999
   86SOL    HW2  293   1.539   0.606   1.058
   87SOL     OW  294   1.857   0.833   0.377
   87SOL    HW1  295   1.899   0.769   0.441
   87SOL    HW2  296   1.819   0.782   0.299
   88SOL     OW  297   0.488   1.385   0.174
   88SOL    HW1  298   0.401   1.370   0.221
   88SOL    HW2  299   0.471   1.411   0.079
   89SOL     OW  300   1.664   1.280   0.657
   89SOL    HW1  301   1.763   1.288   0.671
   89SOL    HW2  302   1.619   1.364   0.688
   90SOL     OW  303   1.390   0.575   0.078
   90SOL    HW1  304   1.336   0.554   0.159
   90SOL    HW2  305   1.481   0.534   0.087
   91SOL     OW  306   0.527   0.256   0.328
   91SOL    HW1  307   0.554   0.197   0.253
   91SOL    HW2  308   0.527   0.351   0.297
   92SOL     OW  309   1.111   1.195   1.100
   92SOL    HW1  310   1.071   1.239   1.181
   92SOL    HW2  311   1.070   1.232   1.017
   93SOL     OW  312   1.638   1.099   1.079
   93SOL    HW1  313   1.643   1.180   1.138
   93SOL    HW2  314   1.552   1.101   1.028
   94SOL     OW  315   0.915   0.089   1.402
   94SOL    HW1  316   0.940   0.069   1.307
   94SOL    HW2  317   0.987   0.145   1.444
   95SOL     OW  318   0.980   1.116   1.719
   95SOL    HW1  319   0.881   1.122   1.729
   95SOL    HW2  320   1.003   1.036   1.663
   96SOL     OW  321   0.705   1.050   0.368
   96SOL    HW1  322   0.691   1.057   0.467
   96SOL    HW2  323   0.789   0.999   0.350
   97SOL     OW  324   0.410   0.813   1.251
   97SOL    HW1  325   0.496   0.825   1.301
   97SOL    HW2  326   0.368   0.726   1.278
   98SOL     OW  327   1.274   0.386   1.262
   98SOL    HW1  328   1.295   0.460   1.326
   98SOL    HW2  329   1.185   0.403   1.219
   99SOL     OW  330   0.064   1.564   1.331
   99SOL    HW1  331   0.018   1.646   1.297
   99SOL    HW2  332   0.162   1.583   1.340
  100SOL     OW  333   0.367   1.100   0.501
  100SOL    HW1  334   0.360   1.183   0.445
  100SOL    HW2  335   0.371   1.020   0.441
  101SOL     OW  336   0.566   0.537   0.865
  101SOL    HW1  337   0.578   0.603   0.791
  101SOL    HW2  338   0.612   0.571   0.948
  102SOL     OW  339   1.252   1.348   0.388
  102SOL    HW1  340   1.302   1.425   0.428
  102SOL    HW2  341   1.157   1.350   0.420
  103SOL     OW  342   1.582   0.639   0.472
  103SOL    HW1  343   1.551   0.700   0.545
  103SOL    HW2  344   1.632   0.691   0.403
  104SOL     OW  345   0.354   1.510   1.329
  104SOL    HW1  346   0.333   1.466   1.242
  104SOL    HW2  347   0.451   1.536   1.332
  105SOL     OW  348   0.402   0.751   1.598
  105SOL    HW1  349   0.470   0.806   1.551
  105SOL    HW2  350   0.442   0.663   1.625
  106SOL     OW  351   1.587   0.779   1.670
  106SOL    HW1  352   1.495   0.817   1.665
  106SOL    HW2  353   1.647   0.826   1.605
  107SOL     OW  354   1.013   0.105   1.770
  107SOL    HW1  355   1.019   0.190   1.718
  107SOL    HW2  356   1.045   0.029   1.713
  108SOL     OW  357   0.504   0.050   1.740
  108SOL    HW1  358   0.462  -0.007   1.670
  108SOL    HW2  359   0.438   0.119   1.772
  109SOL     OW  360   0.573   0.870   1.029
  109SOL    HW1  361   0.617   0.959   1.020
  109SOL    HW2  362   0.510   0.870   1.106
  110SOL     OW  363   1.360   0.862   1.045
  110SOL    HW1  364   1.285   0.862   0.979
  110SOL    HW2  365   1.397   0.770   1.054
  111SOL     OW  366   1.209   0.525   0.275
  111SOL    HW1  367   1.222   0.441   0.329
  111SOL    HW2  368   1.180   0.599   0.335
  112SOL     OW  369   0.307   0.213   1.231
  112SOL    HW1  370   0.284   0.250   1.321
  112SOL    HW2  371   0.277   0.118   1.225
  113SOL     OW  372   0.037   1.310   1.282
  113SOL    HW1  373   0.090   1.261   1.350
  113SOL    HW2  374   0.059   1.408   1.287
  114SOL     OW  375   0.732   0.634   1.064
  114SOL    HW1  376   0.791   0.608   0.988
  114SOL    HW2  377   0.704   0.730   1.053
  115SOL     OW  378   1.728   0.935   1.854
  115SOL    HW1  379   1.682   0.928   1.765
  115SOL    HW2  380   1.666   0.979   1.920
  116SOL     OW  381   0.307   0.063   0.618
  116SOL    HW1  382   0.296   0.157   0.651
  116SOL    HW2  383   0.302   0.000   0.695
  117SOL     OW  384   1.622   0.367   0.374
  117SOL    HW1  385   1.624   0.291   0.438
  117SOL    HW2  386   1.574   0.444   0.414
  118SOL     OW  387   1.023   0.766   0.966
  118SOL    HW1  388   1.038   0.787   1.062
  118SOL    HW2  389   0.993   0.671   0.957
  119SOL     OW  390   0.980   1.573   1.700
  119SOL    HW1  391   0.960   1.617   1.612
  119SOL    HW2  392   1.019   1.482   1.684
  120SOL     OW  393   1.859   1.518   1.605
  120SOL    HW1  394   1.873   1.545   1.510
  120SOL    HW2  395   1.942   1.540   1.658
  121SOL     OW  396   0.350   0.898   1.804
  121SOL    HW1  397   0.426   0.942   1.852
  121SOL    HW2  398   0.385   0.851   1.722
  122SOL     OW  399   1.540   0.274   0.125
  122SOL    HW1  400   1.479   0.199   0.148
  122SOL    HW2  401   1.562   0.326   0.208
  123SOL     OW  402   1.303   0.838   0.042
  123SOL    HW1  403   1.337   0.745   0.057
  123SOL    HW2  404   1.321   0.865  -0.053
  124SOL     OW  405   1.068   1.333   0.849
  124SOL    HW1  406   1.075   1.249   0.794
  124SOL    HW2  407   1.130   1.402   0.813
  125SOL     OW  408   0.319   0.810   0.949
  125SOL    HW1  409   0.412   0.846   0.954
  125SOL    HW2  410   0.313   0.725   1.001
  126SOL     OW  411   0.339   0.509   1.006
  126SOL    HW1  412   0.287   0.426   0.989
  126SOL    HW2  413   0.416   0.514   0.942
  127SOL     OW  414   1.138   0.380   1.678
  127SOL    HW1  415   1.093   0.443   1.742
  127SOL    HW2  416   1.231   0.411   1.661
  128SOL     OW  417   1.160   0.207   1.477
  128SOL    HW1  418   1.160   0.271   1.554
  128SOL    HW2  419   1.188   0.255   1.394
  129SOL     OW  420   0.008   1.326   0.200
  129SOL    HW1  421  -0.085   1.347   0.169
  129SOL    HW2  422   0.018   1.227   0.213
  130SOL     OW  423   0.088   1.801   0.927
  130SOL    HW1  424   0.046   1.715   0.900
  130SOL    HW2  425   0.182   1.804   0.893
  131SOL     OW  426   0.504   1.568   0.910
  131SOL    HW1  427   0.570   1.642   0.919
  131SOL    HW2  428   0.548   1.489   0.868
  132SOL     OW  429   1.002   0.796   1.238
  132SOL    HW1  430   1.043   0.764   1.324
  132SOL    HW2  431   0.906   0.769   1.235
  133SOL     OW  432   0.040   0.544   1.114
  133SOL    HW1  433   0.125   0.511   1.073
  133SOL    HW2  434   0.053   0.559   1.212
  134SOL     OW  435   0.189   0.520   1.722
  134SOL    HW1  436   0.248   0.480   1.652
  134SOL    HW2  437   0.131   0.591   1.681
  135SOL     OW  438   1.369   0.950   1.660
  135SOL    HW1  439   1.408   1.039   1.680
  135SOL    HW2  440   1.379   0.930   1.563
  136SOL     OW  441   0.815   0.572   0.325
  136SOL    HW1  442   0.822   0.483   0.279
  136SOL    HW2  443   0.721   0.606   0.317
  137SOL     OW  444   1.657   0.604   1.206
  137SOL    HW1  445   1.619   0.535   1.268
  137SOL    HW2  446   1.739   0.568   1.162
  138SOL     OW  447   0.252   1.564   1.744
  138SOL    HW1  448   0.222   1.621   1.820
  138SOL    HW2  449   0.245   1.467   1.770
  139SOL     OW  450   0.671   0.464   1.269
  139SOL    HW1  451   0.637   0.375   1.239
  139SOL    HW2  452   0.697   0.518   1.189
  140SOL     OW  453   0.930   1.678   1.465
  140SOL    HW1  454   0.906   1.660   1.370
  140SOL    HW2  455   0.960   1.772   1.475
  141SOL     OW  456   0.473   0.500   0.191
  141SOL    HW1  457   0.534   0.580   0.195
  141SOL    HW2  458   0.378   0.531   0.198
  142SOL     OW  459   0.159   1.137   1.466
  142SOL    HW1  460   0.181   1.076   1.542
  142SOL    HW2  461   0.169   1.088   1.380
  143SOL     OW  462   1.302   0.855   0.309
  143SOL    HW1  463   1.216   0.824   0.351
  143SOL    HW2  464   1.298   0.841   0.210
  144SOL     OW  465   1.759   1.747   1.154
  144SOL    HW1  466   1.820   1.777   1.081
  144SOL    HW2  467   1.721   1.658   1.132
  145SOL     OW  468   0.083   1.258   1.022
  145SOL    HW1  469   0.078   1.257   1.122
  145SOL    HW2  470   0.000   1.217   0.984
  146SOL     OW  471   0.688   1.662   1.716
  146SOL    HW1  472   0.632   1.743   1.725
  146SOL    HW2  473   0.740   1.666   1.630
  147SOL     OW  474   0.903   0.086   0.133
  147SOL    HW1  475   0.954   0.087   0.047
  147SOL    HW2  476   0.959   0.044   0.204
  148SOL     OW  477   1.726   0.135   0.523
  148SOL    HW1  478   1.799   0.118   0.456
  148SOL    HW2  479   1.695   0.048   0.561
  149SOL     OW  480   1.388   1.573   0.477
  149SOL    HW1  481   1.455   1.585   0.403
  149SOL    HW2  482   1.348   1.662   0.500
  150SOL     OW  483   0.130   1.794   1.851
  150SOL    HW1  484   0.089   1.720   1.904
  150SOL    HW2  485   0.194   1.845   1.909
  151SOL     OW  486   1.280   0.927   0.672
  151SOL    HW1  487   1.340   0.846   0.674
  151SOL    HW2  488   1.320   0.996   0.612
  152SOL     OW  489   0.830   1.273   1.422
  152SOL    HW1  490   0.825   1.306   1.517
  152SOL    HW2  491   0.744   1.292   1.376
  153SOL     OW  492   0.672   1.616   0.154
  153SOL    HW1  493   0.681   1.626   0.055
  153SOL    HW2  494   0.632   1.527   0.175
  154SOL     OW  495   1.841   0.175   0.963
  154SOL    HW1  496   1.880   0.090   0.927
  154SOL    HW2  497   1.743   0.177   0.944
  155SOL     OW  498   0.263   0.326   0.720
  155SOL    HW1  499   0.184   0.377   0.686
  155SOL    HW2  500   0.254   0.311   0.818
  156SOL     OW  501   1.194   1.612   0.031
  156SOL    HW1  502   1.200   1.519   0.068
  156SOL    HW2  503   1.135   1.612  -0.049
  157SOL     OW  504   0.822   1.002   1.372
  157SOL    HW1  505   0.862   1.001   1.280
  157SOL    HW2  506   0.832   1.094   1.412
  158SOL     OW  507   0.916   0.910   0.291
  158SOL    HW1  508   0.979   0.948   0.223
  158SOL    HW2  509   0.956   0.827   0.330
  159SOL     OW  510   1.504   1.607   0.044
  159SOL    HW1  511   1.412   1.644   0.051
  159SOL    HW2  512   1.542   1.627  -0.046
  160SOL     OW  513   0.372   1.288   1.490
  160SOL    HW1  514   0.359   1.381   1.456
  160SOL    HW2  515   0.288   1.236   1.477
  161SOL     OW  516   1.039   1.098   0.696
  161SOL    HW1  517   0.969   1.051   0.750
  161SOL    HW2  518   1.098   1.030   0.653
  162SOL     OW  519   1.014   0.236   0.971
  162SOL    HW1  520   1.006   0.200   0.878
  162SOL    HW2  521   1.012   0.160   1.036
  163SOL     OW  522   0.590   1.487   0.491
  163SOL    HW1  523   0.632   1.429   0.421
  163SOL    HW2  524   0.546   1.566   0.447
  164SOL     OW  525   1.709   0.385   1.381
  164SOL    HW1  526   1.782   0.454   1.385
  164SOL    HW2  527   1.737   0.310   1.322
  165SOL     OW  528   0.255   1.348   0.290
  165SOL    HW1  529   0.159   1.349   0.263
  165SOL    HW2  530   0.267   1.401   0.374
  166SOL     OW  531   0.105   1.013   1.726
  166SOL    HW1  532   0.028   0.980   1.780
  166SOL    HW2  533   0.190   0.983   1.768
  167SOL     OW  534   0.672   0.203   1.489
  167SOL    HW1  535   0.762   0.187   1.449
  167SOL    HW2  536   0.680   0.208   1.588
  168SOL     OW  537   0.075   0.345   0.033
  168SOL    HW1  538  -0.017   0.317   0.004
  168SOL    HW2  539   0.106   0.422  -0.023
  169SOL     OW  540   1.440   0.856   1.398
  169SOL    HW1  541   1.383   0.908   1.335
  169SOL    HW2  542   1.536   0.868   1.374
  170SOL     OW  543   0.072   0.166   0.318
  170SOL    HW1  544   0.055   0.249   0.264
  170SOL    HW2  545   0.162   0.129   0.296
  171SOL     OW  546   1.183   1.335   0.119
  171SOL    HW1  547   1.084   1.324   0.121
  171SOL    HW2  548   1.217   1.350   0.212
  172SOL     OW  549   0.613   0.842   1.431
  172SOL    HW1  550   0.669   0.923   1.414
  172SOL    HW2  551   0.672   0.762   1.434
  173SOL     OW  552   1.493   1.767   0.959
  173SOL    HW1  553   1.526   1.831   0.890
  173SOL    HW2  554   1.559   1.761   1.034
  174SOL     OW  555   0.716   0.565   1.708
  174SOL    HW1  556   0.735   0.630   1.782
  174SOL    HW2  557   0.776   0.485   1.717
  175SOL     OW  558   0.390   1.741   1.560
  175SOL    HW1  559   0.299   1.782   1.558
  175SOL    HW2  560   0.383   1.647   1.592
  176SOL     OW  561   1.674   0.883   1.254
  176SOL    HW1  562   1.647   0.794   1.217
  176SOL    HW2  563   1.675   0.951   1.181
  177SOL     OW  564   1.225   0.325   0.449
  177SOL    HW1  565   1.290   0.251   0.438
  177SOL    HW2  566   1.245   0.375   0.533
  178SOL     OW  567   0.594   0.745   0.652
  178SOL    HW1  568   0.644   0.830   0.633
  178SOL    HW2  569   0.506   0.747   0.604
  179SOL     OW  570   1.777   0.342   1.642
  179SOL    HW1  571   1.760   0.373   1.548
  179SOL    HW2  572   1.693   0.305   1.680
  180SOL     OW  573   1.730   0.934   1.517
  180SOL    HW1  574   1.768   1.025   1.532
  180SOL    HW2  575   1.722   0.917   1.418
  181SOL     OW  576   0.859   1.374   0.016
  181SOL    HW1  577   0.813   1.389   0.104
  181SOL    HW2  578   0.903   1.459  -0.014
  182SOL     OW  579   0.661   1.790   0.953
  182SOL    HW1  580   0.615   1.878   0.940
  182SOL    HW2  581   0.760   1.802   0.946
  183SOL     OW  582   0.859   0.956   0.861
  183SOL    HW1  583   0.913   0.887   0.909
  183SOL    HW2  584   0.827   1.025   0.927
  184SOL     OW  585   1.083   0.984   0.087
  184SOL    HW1  586   1.060   1.037   0.005
  184SOL    HW2  587   1.164   0.928   0.068
  185SOL     OW  588   1.861   1.569   0.851
  185SOL    HW1  589   1.790   1.557   0.781
  185SOL    HW2  590   1.862   1.490   0.911
  186SOL     OW  591   0.221   1.314   1.844
  186SOL    HW1  592   0.156   1.241   1.823
  186SOL    HW2  593   0.225   1.328   1.942
  187SOL     OW  594   0.079   1.240   0.653
  187SOL    HW1  595   0.078   1.193   0.741
  187SOL    HW2  596   0.161   1.212   0.602
  188SOL     OW  597   0.672   1.391   1.624
  188SOL    HW1  598   0.594   1.341   1.662
  188SOL    HW2  599   0.669   1.486   1.655
  189SOL     OW  600   1.824   0.192   1.227
  189SOL    HW1  601   1.820   0.102   1.271
  189SOL    HW2  602   1.827   0.181   1.128
  190SOL     OW  603   0.428   0.424   0.520
  190SOL    HW1  604   0.458   0.352   0.458
  190SOL    HW2  605   0.389   0.384   0.603
  191SOL     OW  606   1.705   1.487   1.104
  191SOL    HW1  607   1.612   1.462   1.077
  191SOL    HW2  608   1.731   1.437   1.186
  192SOL     OW  609   0.317   0.547   1.280
  192SOL    HW1  610   0.355   0.488   1.352
  192SOL    HW2  611   0.357   0.521   1.192
  193SOL     OW  612   0.812   1.586   0.687
  193SOL    HW1  613   0.844   1.596   0.593
  193SOL    HW2  614   0.733   1.524   0.689
  194SOL     OW  615   1.424   0.214   1.112
  194SOL    HW1  616   1.476   0.149   1.167
  194SOL    HW2  617   1.375   0.277   1.173
  195SOL     OW  618   1.001   0.034   1.154
  195SOL    HW1  619   0.938  -0.038   1.123
  195SOL    HW2  620   1.094  -0.002   1.154
  196SOL     OW  621   0.770   1.330   0.301
  196SOL    HW1  622   0.724   1.243   0.318
  196SOL    HW2  623   0.861   1.327   0.342
  197SOL     OW  624   0.618   1.567   1.284
  197SOL    HW1  625   0.613   1.649   1.341
  197SOL    HW2  626   0.707   1.564   1.239
  198SOL     OW  627   1.352   0.052   0.168
  198SOL    HW1  628   1.387   0.011   0.084
  198SOL    HW2  629   1.262   0.014   0.188
  199SOL     OW  630   1.300   0.453   0.691
  199SOL    HW1  631   1.241   0.533   0.695
  199SOL    HW2  632   1.315   0.418   0.784
  200SOL     OW  633   1.593   0.221   0.882
  200SOL    HW1  634   1.509   0.220   0.936
  200SOL    HW2  635   1.595   0.304   0.826
  201SOL     OW  636   0.039   1.077   0.300
  201SOL    HW1  637   0.138   1.066   0.291
  201SOL    HW2  638  -0.001   0.991   0.332
  202SOL     OW  639   0.875   1.646   0.337
  202SOL    HW1  640   0.798   1.611   0.283
  202SOL    HW2  641   0.843   1.717   0.399
  203SOL     OW  642   0.230   0.628   1.975
  203SOL    HW1  643   0.137   0.626   2.012
  203SOL    HW2  644   0.231   0.589   1.883
  204SOL     OW  645   0.019   0.368   2.509
  204SOL    HW1  646  -0.063   0.411   2.548
  204SOL    HW2  647  -0.009   0.295   2.446
  205SOL     OW  648   1.555   1.511   2.565
  205SOL    HW1  649   1.498   1.495   2.646
  205SOL    HW2  650   1.496   1.521   2.485
  206SOL     OW  651   1.135   0.703   2.579
  206SOL    HW1  652   1.192   0.781   2.554
  206SOL    HW2  653   1.075   0.729   2.655
  207SOL     OW  654   1.755   0.607   2.093
  207SOL    HW1  655   1.743   0.594   1.994
  207SOL    HW2  656   1.725   0.526   2.142
  208SOL     OW  657   0.768   1.144   2.885
  208SOL    HW1  658   0.690   1.161   2.945
  208SOL    HW2  659   0.802   1.231   2.849
  209SOL     OW  660   0.685   1.012   2.527
  209SOL    HW1  661   0.754   0.996   2.597
  209SOL    HW2  662   0.612   1.069   2.565
  210SOL     OW  663   1.603   0.447   2.599
  210SOL    HW1  664   1.529   0.493   2.549
  210SOL    HW2  665   1.654   0.515   2.652
  211SOL     OW  666   0.231   1.713   2.345
  211SOL    HW1  667   0.265   1.790   2.399
  211SOL    HW2  668   0.275   1.713   2.255
  212SOL     OW  669   0.230   1.434   2.400
  212SOL    HW1  670   0.204   1.530   2.400
  212SOL    HW2  671   0.159   1.380   2.445
  213SOL     OW  672   0.240   1.091   2.748
  213SOL    HW1  673   0.254   1.007   2.800
  213SOL    HW2  674   0.185   1.155   2.803
  214SOL     OW  675   0.606   0.964   1.985
  214SOL    HW1  676   0.613   1.048   1.931
  214SOL    HW2  677   0.652   0.977   2.073
  215SOL     OW  678   0.122   0.643   2.425
  215SOL    HW1  679   0.077   0.555   2.442
  215SOL    HW2  680   0.121   0.697   2.509
  216SOL     OW  681   1.842   1.767   2.221
  216SOL    HW1  682   1.896   1.738   2.301
  216SOL    HW2  683   1.872   1.857   2.192
  217SOL     OW  684   0.027   1.596   1.979
  217SOL    HW1  685   0.008   1.500   2.000
  217SOL    HW2  686  -0.006   1.654   2.054
  218SOL     OW  687   1.689   0.922   2.474
  218SOL    HW1  688   1.784   0.893   2.482
  218SOL    HW2  689   1.681   0.987   2.399
  219SOL     OW  690   1.641   1.108   2.294
  219SOL    HW1  691   1.727   1.110   2.242
  219SOL    HW2  692   1.655   1.155   2.382
  220SOL     OW  693   0.613   1.365   2.588
  220SOL    HW1  694   0.564   1.278   2.597
  220SOL    HW2  695   0.590   1.408   2.501
  221SOL     OW  696   0.809   0.004   2.364
  221SOL    HW1  697   0.849   0.095   2.355
  221SOL    HW2  698   0.709   0.012   2.370
  222SOL     OW  699   1.525   0.999   2.052
  222SOL    HW1  700   1.462   0.923   2.065
  222SOL    HW2  701   1.573   1.017   2.138
  223SOL     OW  702   1.466   1.417   2.815
  223SOL    HW1  703   1.407   1.423   2.895
  223SOL    HW2  704   1.451   1.329   2.769
  224SOL     OW  705   1.667   1.714   2.434
  224SOL    HW1  706   1.626   1.691   2.346
  224SOL    HW2  707   1.649   1.640   2.499
  225SOL     OW  708   0.598   0.729   2.132
  225SOL    HW1  709   0.622   0.798   2.064
  225SOL    HW2  710   0.520   0.762   2.186
  226SOL     OW  711   1.281   0.345   2.806
  226SOL    HW1  712   1.195   0.295   2.793
  226SOL    HW2  713   1.343   0.291   2.862
  227SOL     OW  714   1.576   1.662   2.169
  227SOL    HW1  715   1.665   1.708   2.172
  227SOL    HW2  716   1.555   1.638   2.074
  228SOL     OW  717   1.041   0.701   2.291
  228SOL    HW1  718   1.067   0.697   2.387
  228SOL    HW2  719   0.956   0.650   2.277
  229SOL     OW  720   0.076   0.811   2.651
  229SOL    HW1  721   0.175   0.799   2.660
  229SOL    HW2  722   0.052   0.906   2.672
  230SOL     OW  723   0.865   0.348   2.057
  230SOL    HW1  724   0.924   0.411   2.008
  230SOL    HW2  725   0.884   0.254   2.028
  231SOL     OW  726   1.362   1.144   2.407
  231SOL    HW1  727   1.445   1.115   2.359
  231SOL    HW2  728   1.313   1.211   2.351
  232SOL     OW  729   1.008   1.456   2.339
  232SOL    HW1  730   0.962   1.528   2.287
  232SOL    HW2  731   1.004   1.476   2.437
  233SOL     OW  732   0.351   1.801   2.715
  233SOL    HW1  733   0.401   1.715   2.721
  233SOL    HW2  734   0.416   1.878   2.712
  234SOL     OW  735   1.795   1.066   2.735
  234SOL    HW1  736   1.733   1.051   2.659
  234SOL    HW2  737   1.743   1.077   2.820
  235SOL     OW  738   0.321   0.943   2.104
  235SOL    HW1  739   0.403   0.982   2.062
  235SOL    HW2  740   0.294   0.861   2.055
  236SOL     OW  741   1.458   0.735   2.590
  236SOL    HW1  742   1.453   0.670   2.665
  236SOL    HW2  743   1.538   0.794   2.603
  237SOL     OW  744   1.111   1.776   2.099
  237SOL    HW1  745   1.051   1.714   2.149
  237SOL    HW2  746   1.142   1.732   2.014
  238SOL     OW  747   1.632   1.377   1.943
  238SOL    HW1  748   1.600   1.471   1.933
  238SOL    HW2  749   1.556   1.314   1.931
  239SOL     OW  750   0.464   1.743   2.185
  239SOL    HW1  751   0.497   1.782   2.271
  239SOL    HW2  752   0.540   1.736   2.120
  240SOL     OW  753   1.400   0.107   2.288
  240SOL    HW1  754   1.376   0.070   2.198
  240SOL    HW2  755   1.499   0.123   2.292
  241SOL     OW  756   0.382   0.700   2.342
  241SOL    HW1  757   0.427   0.610   2.339
  241SOL    HW2  758   0.288   0.689   2.375
  242SOL     OW  759   0.614   0.122   1.979
  242SOL    HW1  760   0.712   0.100   1.986
  242SOL    HW2  761   0.583   0.105   1.886
  243SOL     OW  762   0.539   0.064   2.374
  243SOL    HW1  763   0.458   0.065   2.432
  243SOL    HW2  764   0.542   0.147   2.319
  244SOL     OW  765   1.434   1.188   1.903
  244SOL    HW1  766   1.466   1.112   1.960
  244SOL    HW2  767   1.342   1.215   1.933
  245SOL     OW  768   0.297   0.035   2.033
  245SOL    HW1  769   0.346   0.119   2.012
  245SOL    HW2  770   0.359  -0.030   2.078
  246SOL     OW  771   0.935   0.236   2.342
  246SOL    HW1  772   0.887   0.277   2.264
  246SOL    HW2  773   1.034   0.234   2.323
  247SOL     OW  774   1.227   1.570   2.655
  247SOL    HW1  775   1.248   1.644   2.590
  247SOL    HW2  776   1.295   1.570   2.728
  248SOL     OW  777   0.459   1.152   2.603
  248SOL    HW1  778   0.388   1.125   2.668
  248SOL    HW2  779   0.433   1.124   2.510
  249SOL     OW  780   1.271   1.797   2.453
  249SOL    HW1  781   1.315   1.861   2.389
  249SOL    HW2  782   1.221   1.849   2.523
  250SOL     OW  783   1.032   0.549   1.878
  250SOL    HW1  784   0.991   0.631   1.839
  250SOL    HW2  785   1.096   0.575   1.951
  251SOL     OW  786   0.866   0.454   2.504
  251SOL    HW1  787   0.834   0.526   2.442
  251SOL    HW2  788   0.890   0.373   2.451
  252SOL     OW  789   1.017   0.039   2.615
  252SOL    HW1  790   0.945   0.044   2.546
  252SOL    HW2  791   0.993  -0.030   2.684
  253SOL     OW  792   1.429   1.173   2.729
  253SOL    HW1  793   1.374   1.089   2.722
  253SOL    HW2  794   1.455   1.202   2.637
  254SOL     OW  795   1.857   0.833   2.239
  254SOL    HW1  796   1.899   0.769   2.303
  254SOL    HW2  797   1.819   0.782   2.161
  255SOL     OW  798   0.488   1.385   2.036
  255SOL    HW1  799   0.401   1.370   2.083
  255SOL    HW2  800   0.471   1.411   1.941
  256SOL     OW  801   1.664   1.280   2.519
  256SOL    HW1  802   1.763   1.288   2.533
  256SOL    HW2  803   1.619   1.364   2.550
  257SOL     OW  804   1.390   0.575   1.940
  257SOL    HW1  805   1.336   0.554   2.021
  257SOL    HW2  806   1.481   0.534   1.949
  258SOL     OW  807   0.527   0.256   2.190
  258SOL    HW1  808   0.554   0.197   2.115
  258SOL    HW2  809   0.527   0.351   2.159
  259SOL     OW  810   0.705   1.050   2.230
  259SOL    HW1  811   0.691   1.057   2.329
  259SOL    HW2  812   0.789   0.999   2.212
  260SOL     OW  813   0.367   1.100   2.363
  260SOL    HW1  814   0.360   1.183   2.307
  260SOL    HW2  815   0.371   1.020   2.303
  261SOL     OW  816   0.566   0.537   2.727
  261SOL    HW1  817   0.578   0.603   2.653
  261SOL    HW2  818   0.612   0.571   2.810
  262SOL     OW  819   1.252   1.348   2.250
  262SOL    HW1  820   1.302   1.425   2.290
  262SOL    HW2  821   1.157   1.350   2.282
  263SOL     OW  822   1.582   0.639   2.334
  263SOL    HW1  823   1.551   0.700   2.407
  263SOL    HW2  824   1.632   0.691   2.265
  264SOL     OW  825   1.209   0.525   2.137
  264SOL    HW1  826   1.222   0.441   2.191
  264SOL    HW2  827   1.180   0.599   2.197
  265SOL     OW  828   0.732   0.634   2.926
  265SOL    HW1  829   0.791   0.608   2.850
  265SOL    HW2  830   0.704   0.730   2.915
  266SOL     OW  831   0.307   0.063   2.480
  266SOL    HW1  832   0.296   0.157   2.513
  266SOL    HW2  833   0.302   0.000   2.557
  267SOL     OW  834   1.622   0.367   2.236
  267SOL    HW1  835   1.624   0.291   2.300
  267SOL    HW2  836   1.574   0.444   2.276
  268SOL     OW  837   1.540   0.274   1.987
  268SOL    HW1  838   1.479   0.199   2.010
  268SOL    HW2  839   1.562   0.326   2.070
  269SOL     OW  840   1.303   0.838   1.904
  269SOL    HW1  841   1.337   0.745   1.919
  269SOL    HW2  842   1.321   0.865   1.809
  270SOL     OW  843   1.068   1.333   2.711
  270SOL    HW1  844   1.075   1.249   2.656
  270SOL    HW2  845   1.130   1.402   2.675
  271SOL     OW  846   0.319   0.810   2.811
  271SOL    HW1  847   0.412   0.846   2.816
  271SOL    HW2  848   0.313   0.725   2.863
  272SOL     OW  849   0.008   1.326   2.062
  272SOL    HW1  850  -0.085   1.347   2.031
  272SOL    HW2  851   0.018   1.227   2.075
  273SOL     OW  852   0.088   1.801   2.789
  273SOL    HW1  853   0.046   1.715   2.762
  273SOL    HW2  854   0.182   1.804   2.755
  274SOL     OW  855   0.504   1.568   2.772
  274SOL    HW1  856   0.570   1.642   2.781
  274SOL    HW2  857   0.548   1.489   2.730
  275SOL     OW  858   0.815   0.572   2.187
  275SOL    HW1  859   0.822   0.483   2.141
  275SOL    HW2  860   0.721   0.606   2.179
  276SOL     OW  861   0.473   0.500   2.053
  276SOL    HW1  862   0.534   0.580   2.057
  276SOL    HW2  863   0.378   0.531   2.060
  277SOL     OW  864   1.302   0.855   2.171
  277SOL    HW1  865   1.216   0.824   2.213
  277SOL    HW2  866   1.298   0.841   2.072
  278SOL     OW  867   1.759   1.747   3.016
  278SOL    HW1  868   1.820   1.777   2.943
  278SOL    HW2  869   1.721   1.658   2.994
  279SOL     OW  870   1.726   0.135   2.385
  279SOL    HW1  871   1.799   0.118   2.318
  279SOL    HW2  872   1.695   0.048   2.423
  280SOL     OW  873   1.388   1.573   2.339
  280SOL    HW1  874   1.455   1.585   2.265
  280SOL    HW2  875   1.348   1.662   2.362
  281SOL     OW  876   1.280   0.927   2.534
  281SOL    HW1  877   1.340   0.846   2.536
  281SOL    HW2  878   1.320   0.996   2.474
  282SOL     OW  879   0.672   1.616   2.016
  282SOL    HW1  880   0.681   1.626   1.917
  282SOL    HW2  881   0.632   1.527   2.037
  283SOL     OW  882   1.841   0.175   2.825
  283SOL    HW1  883   1.880   0.090   2.789
  283SOL    HW2  884   1.743   0.177   2.806
  284SOL     OW  885   0.263   0.326   2.582
  284SOL    HW1  886   0.184   0.377   2.548
  284SOL    HW2  887   0.254   0.311   2.680
  285SOL     OW  888   0.916   0.910   2.153
  285SOL    HW1  889   0.979   0.948   2.085
  285SOL    HW2  890   0.956   0.827   2.192
  286SOL     OW  891   1.504   1.607   1.906
  286SOL    HW1  892   1.412   1.644   1.913
  286SOL    HW2  893   1.542   1.627   1.816
  287SOL     OW  894   1.039   1.098   2.558
  287SOL    HW1  895   0.969   1.051   2.612
  287SOL    HW2  896   1.098   1.030   2.515
  288SOL     OW  897   0.590   1.487   2.353
  288SOL    HW1  898   0.632   1.429   2.283
  288SOL    HW2  899   0.546   1.566   2.309
  289SOL     OW  900   0.255   1.348   2.152
  289SOL    HW1  901   0.159   1.349   2.125
  289SOL    HW2  902   0.267   1.401   2.236
  290SOL     OW  903   0.075   0.345   1.895
  290SOL    HW1  904  -0.017   0.317   1.866
  290SOL    HW2  905   0.106   0.422   1.839
  291SOL     OW  906   0.072   0.166   2.180
  291SOL    HW1  907   0.055   0.249   2.126
  291SOL    HW2  908   0.162   0.129   2.158
  292SOL     OW  909   1.183   1.335   1.981
  292SOL    HW1  910   1.084   1.324   1.983
  292SOL    HW2  911   1.217   1.350   2.074
  293SOL     OW  912   1.674   0.883   3.116
  293SOL    HW1  913   1.647   0.794   3.079
  293SOL    HW2  914   1.675   0.951   3.043
  294SOL     OW  915   1.225   0.325   2.311
  294SOL    HW1  916   1.290   0.251   2.300
  294SOL    HW2  917   1.245   0.375   2.395
  295SOL     OW  918   0.594   0.745   2.514
  295SOL    HW1  919   0.644   0.830   2.495
  295SOL    HW2  920   0.506   0.747   2.466
  296SOL     OW  921   0.859   1.374   1.878
  296SOL    HW1  922   0.813   1.389   1.966
  296SOL    HW2  923   0.903   1.459   1.848
  297SOL     OW  924   0.661   1.790   2.815
  297SOL    HW1  925   0.615   1.878   2.802
  297SOL    HW2  926   0.760   1.802   2.808
  298SOL     OW  927   0.859   0.956   2.723
  298SOL    HW1  928   0.913   0.887   2.771
  298SOL    HW2  929   0.827   1.025   2.789
  299SOL     OW  930   1.083   0.984   1.949
  299SOL    HW1  931   1.060   1.037   1.867
  299SOL    HW2  932   1.164   0.928   1.930
  300SOL     OW  933   1.861   1.569   2.713
  300SOL    HW1  934   1.790   1.557   2.643
  300SOL    HW2  935   1.862   1.490   2.773
  301SOL     OW  936   0.079   1.240   2.515
  301SOL    HW1  937   0.078   1.193   2.603
  301SOL    HW2  938   0.161   1.212   2.464
  302SOL     OW  939   1.824   0.192   3.089
  302SOL    HW1  940   1.820   0.102   3.133
  302SOL    HW2  941   1.827   0.181   2.990
  303SOL     OW  942   0.428   0.424   2.382
  303SOL    HW1  943   0.458   0.352   2.320
  303SOL    HW2  944   0.389   0.384   2.465
  304SOL     OW  945   0.812   1.586   2.549
  304SOL    HW1  946   0.844   1.596   2.455
  304SOL    HW2  947   0.733   1.524   2.551
  305SOL     OW  948   0.770   1.330   2.163
  305SOL    HW1  949   0.724   1.243   2.180
  305SOL    HW2  950   0.861   1.327   2.204
  306SOL     OW  951   1.352   0.052   2.030
  306SOL    HW1  952   1.387   0.011   1.946
  306SOL    HW2  953   1.262   0.014   2.050
  307SOL     OW  954   1.300   0.453   2.553
  307SOL    HW1  955   1.241   0.533   2.557
  307SOL    HW2  956   1.315   0.418   2.646
  308SOL     OW  957   1.593   0.221   2.744
  308SOL    HW1  958   1.509   0.220   2.798
  308SOL    HW2  959   1.595   0.304   2.688
  309SOL     OW  960   0.039   1.077   2.162
  309SOL    HW1  961   0.138   1.066   2.153
  309SOL    HW2  962  -0.001   0.991   2.194
  310SOL     OW  963   0.875   1.646   2.199
  310SOL    HW1  964   0.798   1.611   2.145
  310SOL    HW2  965   0.843   1.717   2.261
  311SOL     OW  966   0.230   2.490   0.113
  311SOL    HW1  967   0.137   2.488   0.150
  311SOL    HW2  968   0.231   2.451   0.021
  312SOL     OW  969   0.225   2.137   0.996
  312SOL    HW1  970   0.260   2.120   1.088
  312SOL    HW2  971   0.137   2.092   0.984
  313SOL     OW  972   0.019   2.230   0.647
  313SOL    HW1  973  -0.063   2.273   0.686
  313SOL    HW2  974  -0.009   2.157   0.584
  314SOL     OW  975   1.135   2.565   0.717
  314SOL    HW1  976   1.192   2.643   0.692
  314SOL    HW2  977   1.075   2.591   0.793
  315SOL     OW  978   1.755   2.469   0.231
  315SOL    HW1  979   1.743   2.456   0.132
  315SOL    HW2  980   1.725   2.388   0.280
  316SOL     OW  981   0.768   3.006   1.023
  316SOL    HW1  982   0.690   3.023   1.083
  316SOL    HW2  983   0.802   3.093   0.987
  317SOL     OW  984   0.850   2.660   1.823
  317SOL    HW1  985   0.846   2.736   1.888
  317SOL    HW2  986   0.872   2.696   1.732
  318SOL     OW  987   0.685   2.874   0.665
  318SOL    HW1  988   0.754   2.858   0.735
  318SOL    HW2  989   0.612   2.931   0.703
  319SOL     OW  990   0.438   2.254   1.499
  319SOL    HW1  991   0.520   2.198   1.508
  319SOL    HW2  992   0.357   2.196   1.503
  320SOL     OW  993   1.603   2.309   0.737
  320SOL    HW1  994   1.529   2.355   0.687
  320SOL    HW2  995   1.654   2.377   0.790
  321SOL     OW  996   1.594   1.976   1.480
  321SOL    HW1  997   1.576   2.043   1.408
  321SOL    HW2  998   1.591   2.022   1.569
  322SOL     OW  999   0.122   2.505   0.563
  322SOL    HW1 1000   0.077   2.417   0.580
  322SOL    HW2 1001   0.121   2.559   0.647
  323SOL     OW 1002   0.113   2.599   1.597
  323SOL    HW1 1003   0.201   2.586   1.642
  323SOL    HW2 1004   0.100   2.696   1.575
  324SOL     OW 1005   0.809   1.866   0.502
  324SOL    HW1 1006   0.849   1.957   0.493
  324SOL    HW2 1007   0.709   1.874   0.508
  325SOL     OW 1008   0.197   2.838   1.264
  325SOL    HW1 1009   0.286   2.793   1.250
  325SOL    HW2 1010   0.124   2.773   1.245
  326SOL     OW 1011   1.525   2.861   0.190
  326SOL    HW1 1012   1.462   2.785   0.203
  326SOL    HW2 1013   1.573   2.879   0.276
  327SOL     OW 1014   0.317   2.113   1.801
  327SOL    HW1 1015   0.388   2.184   1.807
  327SOL    HW2 1016   0.229   2.152   1.829
  328SOL     OW 1017   0.598   2.591   0.270
  328SOL    HW1 1018   0.622   2.660   0.202
  328SOL    HW2 1019   0.520   2.624   0.324
  329SOL     OW 1020   1.281   2.207   0.944
  329SOL    HW1 1021   1.195   2.157   0.931
  329SOL    HW2 1022   1.343   2.153   1.000
  330SOL     OW 1023   0.807   2.467   1.465
  330SOL    HW1 1024   0.760   2.464   1.554
  330SOL    HW2 1025   0.756   2.412   1.399
  331SOL     OW 1026   1.394   2.331   1.674
  331SOL    HW1 1027   1.374   2.374   1.762
  331SOL    HW2 1028   1.472   2.269   1.683
  332SOL     OW 1029   0.973   2.752   1.572
  332SOL    HW1 1030   1.019   2.668   1.543
  332SOL    HW2 1031   0.917   2.786   1.497
  333SOL     OW 1032   0.991   2.272   1.242
  333SOL    HW1 1033   0.914   2.306   1.296
  333SOL    HW2 1034   0.957   2.221   1.163
  334SOL     OW 1035   1.041   2.563   0.429
  334SOL    HW1 1036   1.067   2.559   0.525
  334SOL    HW2 1037   0.956   2.512   0.415
  335SOL     OW 1038   0.076   2.673   0.789
  335SOL    HW1 1039   0.175   2.661   0.798
  335SOL    HW2 1040   0.052   2.768   0.810
  336SOL     OW 1041   0.865   2.210   0.195
  336SOL    HW1 1042   0.924   2.273   0.146
  336SOL    HW2 1043   0.884   2.116   0.166
  337SOL     OW 1044   1.719   2.447   1.831
  337SOL    HW1 1045   1.693   2.536   1.795
  337SOL    HW2 1046   1.717   2.379   1.758
  338SOL     OW 1047   0.550   2.058   0.885
  338SOL    HW1 1048   0.545   2.053   0.985
  338SOL    HW2 1049   0.552   2.154   0.856
  339SOL     OW 1050   1.458   2.597   0.728
  339SOL    HW1 1051   1.453   2.532   0.803
  339SOL    HW2 1052   1.538   2.656   0.741
  340SOL     OW 1053   0.202   2.147   1.498
  340SOL    HW1 1054   0.122   2.207   1.485
  340SOL    HW2 1055   0.192   2.098   1.584
  341SOL     OW 1056   1.400   1.969   0.426
  341SOL    HW1 1057   1.376   1.932   0.336
  341SOL    HW2 1058   1.499   1.985   0.430
  342SOL     OW 1059   0.382   2.562   0.480
  342SOL    HW1 1060   0.427   2.472   0.477
  342SOL    HW2 1061   0.288   2.551   0.513
  343SOL     OW 1062   1.547   2.084   1.729
  343SOL    HW1 1063   1.542   2.121   1.821
  343SOL    HW2 1064   1.475   2.015   1.717
  344SOL     OW 1065   0.781   2.126   1.749
  344SOL    HW1 1066   0.848   2.065   1.792
  344SOL    HW2 1067   0.708   2.145   1.814
  345SOL     OW 1068   1.351   2.452   1.433
  345SOL    HW1 1069   1.379   2.409   1.518
  345SOL    HW2 1070   1.376   2.548   1.434
  346SOL     OW 1071   0.922   2.365   0.899
  346SOL    HW1 1072   0.897   2.356   0.803
  346SOL    HW2 1073   0.970   2.283   0.930
  347SOL     OW 1074   0.539   1.926   0.512
  347SOL    HW1 1075   0.458   1.927   0.570
  347SOL    HW2 1076   0.542   2.009   0.457
  348SOL     OW 1077   0.297   1.897   0.171
  348SOL    HW1 1078   0.346   1.981   0.150
  348SOL    HW2 1079   0.359   1.832   0.216
  349SOL     OW 1080   0.935   2.098   0.480
  349SOL    HW1 1081   0.887   2.139   0.402
  349SOL    HW2 1082   1.034   2.096   0.461
  350SOL     OW 1083   1.076   2.545   1.464
  350SOL    HW1 1084   0.996   2.484   1.467
  350SOL    HW2 1085   1.157   2.492   1.440
  351SOL     OW 1086   1.032   2.411   0.016
  351SOL    HW1 1087   0.991   2.493  -0.023
  351SOL    HW2 1088   1.096   2.437   0.089
  352SOL     OW 1089   0.078   2.418   1.386
  352SOL    HW1 1090   0.170   2.417   1.345
  352SOL    HW2 1091   0.072   2.492   1.453
  353SOL     OW 1092   0.561   2.084   1.147
  353SOL    HW1 1093   0.599   2.000   1.184
  353SOL    HW2 1094   0.473   2.103   1.191
  354SOL     OW 1095   0.866   2.316   0.642
  354SOL    HW1 1096   0.834   2.388   0.580
  354SOL    HW2 1097   0.890   2.235   0.589
  355SOL     OW 1098   1.017   1.901   0.753
  355SOL    HW1 1099   0.945   1.906   0.684
  355SOL    HW2 1100   0.993   1.832   0.822
  356SOL     OW 1101   1.466   2.452   0.992
  356SOL    HW1 1102   1.436   2.357   0.999
  356SOL    HW2 1103   1.539   2.468   1.058
  357SOL     OW 1104   1.857   2.695   0.377
  357SOL    HW1 1105   1.899   2.631   0.441
  357SOL    HW2 1106   1.819   2.644   0.299
  358SOL     OW 1107   1.390   2.437   0.078
  358SOL    HW1 1108   1.336   2.416   0.159
  358SOL    HW2 1109   1.481   2.396   0.087
  359SOL     OW 1110   0.527   2.118   0.328
  359SOL    HW1 1111   0.554   2.059   0.253
  359SOL    HW2 1112   0.527   2.213   0.297
  360SOL     OW 1113   1.638   2.961   1.079
  360SOL    HW1 1114   1.643   3.042   1.138
  360SOL    HW2 1115   1.552   2.963   1.028
  361SOL     OW 1116   0.915   1.951   1.402
  361SOL    HW1 1117   0.940   1.931   1.307
  361SOL    HW2 1118   0.987   2.007   1.444
  362SOL     OW 1119   0.410   2.675   1.251
  362SOL    HW1 1120   0.496   2.687   1.301
  362SOL    HW2 1121   0.368   2.588   1.278
  363SOL     OW 1122   1.274   2.248   1.262
  363SOL    HW1 1123   1.295   2.322   1.326
  363SOL    HW2 1124   1.185   2.265   1.219
  364SOL     OW 1125   0.566   2.399   0.865
  364SOL    HW1 1126   0.578   2.465   0.791
  364SOL    HW2 1127   0.612   2.433   0.948
  365SOL     OW 1128   1.582   2.501   0.472
  365SOL    HW1 1129   1.551   2.562   0.545
  365SOL    HW2 1130   1.632   2.553   0.403
  366SOL     OW 1131   0.402   2.613   1.598
  366SOL    HW1 1132   0.470   2.668   1.551
  366SOL    HW2 1133   0.442   2.525   1.625
  367SOL     OW 1134   1.587   2.641   1.670
  367SOL    HW1 1135   1.495   2.679   1.665
  367SOL    HW2 1136   1.647   2.688   1.605
  368SOL     OW 1137   1.013   1.967   1.770
  368SOL    HW1 1138   1.019   2.052   1.718
  368SOL    HW2 1139   1.045   1.891   1.713
  369SOL     OW 1140   0.504   1.912   1.740
  369SOL    HW1 1141   0.462   1.855   1.670
  369SOL    HW2 1142   0.438   1.981   1.772
  370SOL     OW 1143   0.573   2.732   1.029
  370SOL    HW1 1144   0.617   2.821   1.020
  370SOL    HW2 1145   0.510   2.732   1.106
  371SOL     OW 1146   1.360   2.724   1.045
  371SOL    HW1 1147   1.285   2.724   0.979
  371SOL    HW2 1148   1.397   2.632   1.054
  372SOL     OW 1149   1.209   2.387   0.275
  372SOL    HW1 1150   1.222   2.303   0.329
  372SOL    HW2 1151   1.180   2.461   0.335
  373SOL     OW 1152   0.307   2.075   1.231
  373SOL    HW1 1153   0.284   2.112   1.321
  373SOL    HW2 1154   0.277   1.980   1.225
  374SOL     OW 1155   0.037   3.172   1.282
  374SOL    HW1 1156   0.090   3.123   1.350
  374SOL    HW2 1157   0.059   3.270   1.287
  375SOL     OW 1158   0.732   2.496   1.064
  375SOL    HW1 1159   0.791   2.470   0.988
  375SOL    HW2 1160   0.704   2.592   1.053
  376SOL     OW 1161   1.728   2.797   1.854
  376SOL    HW1 1162   1.682   2.790   1.765
  376SOL    HW2 1163   1.666   2.841   1.920
  377SOL     OW 1164   0.307   1.925   0.618
  377SOL    HW1 1165   0.296   2.019   0.651
  377SOL    HW2 1166   0.302   1.862   0.695
  378SOL     OW 1167   1.622   2.229   0.374
  378SOL    HW1 1168   1.624   2.153   0.438
  378SOL    HW2 1169   1.574   2.306   0.414
  379SOL     OW 1170   1.023   2.628   0.966
  379SOL    HW1 1171   1.038   2.649   1.062
  379SOL    HW2 1172   0.993   2.533   0.957
  380SOL     OW 1173   0.350   2.760   1.804
  380SOL    HW1 1174   0.426   2.804   1.852
  380SOL    HW2 1175   0.385   2.713   1.722
  381SOL     OW 1176   1.540   2.136   0.125
  381SOL    HW1 1177   1.479   2.061   0.148
  381SOL    HW2 1178   1.562   2.188   0.208
  382SOL     OW 1179   1.303   2.700   0.042
  382SOL    HW1 1180   1.337   2.607   0.057
  382SOL    HW2 1181   1.321   2.727  -0.053
  383SOL     OW 1182   0.319   2.672   0.949
  383SOL    HW1 1183   0.412   2.708   0.954
  383SOL    HW2 1184   0.313   2.587   1.001
  384SOL     OW 1185   0.339   2.371   1.006
  384SOL    HW1 1186   0.287   2.288   0.989
  384SOL    HW2 1187   0.416   2.376   0.942
  385SOL     OW 1188   1.138   2.242   1.678
  385SOL    HW1 1189   1.093   2.305   1.742
  385SOL    HW2 1190   1.231   2.273   1.661
  386SOL     OW 1191   1.160   2.069   1.477
  386SOL    HW1 1192   1.160   2.133   1.554
  386SOL    HW2 1193   1.188   2.117   1.394
  387SOL     OW 1194   1.002   2.658   1.238
  387SOL    HW1 1195   1.043   2.626   1.324
  387SOL    HW2 1196   0.906   2.631   1.235
  388SOL     OW 1197   0.040   2.406   1.114
  388SOL    HW1 1198   0.125   2.373   1.073
  388SOL    HW2 1199   0.053   2.421   1.212
  389SOL     OW 1200   0.189   2.382   1.722
  389SOL    HW1 1201   0.248   2.342   1.652
  389SOL    HW2 1202   0.131   2.453   1.681
  390SOL     OW 1203   1.369   2.812   1.660
  390SOL    HW1 1204   1.408   2.901   1.680
  390SOL    HW2 1205   1.379   2.792   1.563
  391SOL     OW 1206   0.815   2.434   0.325
  391SOL    HW1 1207   0.822   2.345   0.279
  391SOL    HW2 1208   0.721   2.468   0.317
  392SOL     OW 1209   1.657   2.466   1.206
  392SOL    HW1 1210   1.619   2.397   1.268
  392SOL    HW2 1211   1.739   2.430   1.162
  393SOL     OW 1212   0.671   2.326   1.269
  393SOL    HW1 1213   0.637   2.237   1.239
  393SOL    HW2 1214   0.697   2.380   1.189
  394SOL     OW 1215   0.473   2.362   0.191
  394SOL    HW1 1216   0.534   2.442   0.195
  394SOL    HW2 1217   0.378   2.393   0.198
  395SOL     OW 1218   1.347   2.921   1.234
  395SOL    HW1 1219   1.371   2.858   1.160
  395SOL    HW2 1220   1.257   2.961   1.216
  396SOL     OW 1221   1.302   2.717   0.309
  396SOL    HW1 1222   1.216   2.686   0.351
  396SOL    HW2 1223   1.298   2.703   0.210
  397SOL     OW 1224   0.903   1.948   0.133
  397SOL    HW1 1225   0.954   1.949   0.047
  397SOL    HW2 1226   0.959   1.906   0.204
  398SOL     OW 1227   1.726   1.997   0.523
  398SOL    HW1 1228   1.799   1.980   0.456
  398SOL    HW2 1229   1.695   1.910   0.561
  399SOL     OW 1230   1.280   2.789   0.672
  399SOL    HW1 1231   1.340   2.708   0.674
  399SOL    HW2 1232   1.320   2.858   0.612
  400SOL     OW 1233   1.841   2.037   0.963
  400SOL    HW1 1234   1.880   1.952   0.927
  400SOL    HW2 1235   1.743   2.039   0.944
  401SOL     OW 1236   0.263   2.188   0.720
  401SOL    HW1 1237   0.184   2.239   0.686
  401SOL    HW2 1238   0.254   2.173   0.818
  402SOL     OW 1239   1.014   2.098   0.971
  402SOL    HW1 1240   1.006   2.062   0.878
  402SOL    HW2 1241   1.012   2.022   1.036
  403SOL     OW 1242   1.709   2.247   1.381
  403SOL    HW1 1243   1.782   2.316   1.385
  403SOL    HW2 1244   1.737   2.172   1.322
  404SOL     OW 1245   0.105   2.875   1.726
  404SOL    HW1 1246   0.028   2.842   1.780
  404SOL    HW2 1247   0.190   2.845   1.768
  405SOL     OW 1248   0.672   2.065   1.489
  405SOL    HW1 1249   0.762   2.049   1.449
  405SOL    HW2 1250   0.680   2.070   1.588
  406SOL     OW 1251   0.075   2.207   0.033
  406SOL    HW1 1252  -0.017   2.179   0.004
  406SOL    HW2 1253   0.106   2.284  -0.023
  407SOL     OW 1254   1.440   2.718   1.398
  407SOL    HW1 1255   1.383   2.770   1.335
  407SOL    HW2 1256   1.536   2.730   1.374
  408SOL     OW 1257   0.072   2.028   0.318
  408SOL    HW1 1258   0.055   2.111   0.264
  408SOL    HW2 1259   0.162   1.991   0.296
  409SOL     OW 1260   0.613   2.704   1.431
  409SOL    HW1 1261   0.669   2.785   1.414
  409SOL    HW2 1262   0.672   2.624   1.434
  410SOL     OW 1263   0.716   2.427   1.708
  410SOL    HW1 1264   0.735   2.492   1.782
  410SOL    HW2 1265   0.776   2.347   1.717
  411SOL     OW 1266   1.674   2.745   1.254
  411SOL    HW1 1267   1.647   2.656   1.217
  411SOL    HW2 1268   1.675   2.813   1.181
  412SOL     OW 1269   1.225   2.187   0.449
  412SOL    HW1 1270   1.290   2.113   0.438
  412SOL    HW2 1271   1.245   2.237   0.533
  413SOL     OW 1272   0.594   2.607   0.652
  413SOL    HW1 1273   0.644   2.692   0.633
  413SOL    HW2 1274   0.506   2.609   0.604
  414SOL     OW 1275   1.777   2.204   1.642
  414SOL    HW1 1276   1.760   2.235   1.548
  414SOL    HW2 1277   1.693   2.167   1.680
  415SOL     OW 1278   1.730   2.796   1.517
  415SOL    HW1 1279   1.768   2.887   1.532
  415SOL    HW2 1280   1.722   2.779   1.418
  416SOL     OW 1281   1.824   2.054   1.227
  416SOL    HW1 1282   1.820   1.964   1.271
  416SOL    HW2 1283   1.827   2.043   1.128
  417SOL     OW 1284   0.428   2.286   0.520
  417SOL    HW1 1285   0.458   2.214   0.458
  417SOL    HW2 1286   0.389   2.246   0.603
  418SOL     OW 1287   0.317   2.409   1.280
  418SOL    HW1 1288   0.355   2.350   1.352
  418SOL    HW2 1289   0.357   2.383   1.192
  419SOL     OW 1290   1.424   2.076   1.112
  419SOL    HW1 1291   1.476   2.011   1.167
  419SOL    HW2 1292   1.375   2.139   1.173
  420SOL     OW 1293   1.001   1.896   1.154
  420SOL    HW1 1294   0.938   1.824   1.123
  420SOL    HW2 1295   1.094   1.860   1.154
  421SOL     OW 1296   1.352   1.914   0.168
  421SOL    HW1 1297   1.387   1.873   0.084
  421SOL    HW2 1298   1.262   1.876   0.188
  422SOL     OW 1299   1.300   2.315   0.691
  422SOL    HW1 1300   1.241   2.395   0.695
  422SOL    HW2 1301   1.315   2.280   0.784
  423SOL     OW 1302   1.593   2.083   0.882
  423SOL    HW1 1303   1.509   2.082   0.936
  423SOL    HW2 1304   1.595   2.166   0.826
  424SOL     OW 1305   0.230   2.490   1.975
  424SOL    HW1 1306   0.137   2.488   2.012
  424SOL    HW2 1307   0.231   2.451   1.883
  425SOL     OW 1308   0.019   2.230   2.509
  425SOL    HW1 1309  -0.063   2.273   2.548
  425SOL    HW2 1310  -0.009   2.157   2.446
  426SOL     OW 1311   1.135   2.565   2.579
  426SOL    HW1 1312   1.192   2.643   2.554
  426SOL    HW2 1313   1.075   2.591   2.655
  427SOL     OW 1314   1.755   2.469   2.093
  427SOL    HW1 1315   1.743   2.456   1.994
  427SOL    HW2 1316   1.725   2.388   2.142
  428SOL     OW 1317   0.685   2.874   2.527
  428SOL    HW1 1318   0.754   2.858   2.597
  428SOL    HW2 1319   0.612   2.931   2.565
  429SOL     OW 1320   1.603   2.309   2.599
  429SOL    HW1 1321   1.529   2.355   2.549
  429SOL    HW2 1322   1.654   2.377   2.652
  430SOL     OW 1323   0.240   2.953   2.748
  430SOL    HW1 1324   0.254   2.869   2.800
  430SOL    HW2 1325   0.185   3.017   2.803
  431SOL     OW 1326   0.122   2.505   2.425
  431SOL    HW1 1327   0.077   2.417   2.442
  431SOL    HW2 1328   0.121   2.559   2.509
  432SOL     OW 1329   0.809   1.866   2.364
  432SOL    HW1 1330   0.849   1.957   2.355
  432SOL    HW2 1331   0.709   1.874   2.370
  433SOL     OW 1332   1.525   2.861   2.052
  433SOL    HW1 1333   1.462   2.785   2.065
  433SOL    HW2 1334   1.573   2.879   2.138
  434SOL     OW 1335   0.598   2.591   2.132
  434SOL    HW1 1336   0.622   2.660   2.064
  434SOL    HW2 1337   0.520   2.624   2.186
  435SOL     OW 1338   1.281   2.207   2.806
  435SOL    HW1 1339   1.195   2.157   2.793
  435SOL    HW2 1340   1.343   2.153   2.862
  436SOL     OW 1341   1.041   2.563   2.291
  436SOL    HW1 1342   1.067   2.559   2.387
  436SOL    HW2 1343   0.956   2.512   2.277
  437SOL     OW 1344   0.076   2.673   2.651
  437SOL    HW1 1345   0.175   2.661   2.660
  437SOL    HW2 1346   0.052   2.768   2.672
  438SOL     OW 1347   0.865   2.210   2.057
  438SOL    HW1 1348   0.924   2.273   2.008
  438SOL    HW2 1349   0.884   2.116   2.028
  439SOL     OW 1350   0.550   2.058   2.747
  439SOL    HW1 1351   0.545   2.053   2.847
  439SOL    HW2 1352   0.552   2.154   2.718
  440SOL     OW 1353   1.458   2.597   2.590
  440SOL    HW1 1354   1.453   2.532   2.665
  440SOL    HW2 1355   1.538   2.656   2.603
  441SOL     OW 1356   1.400   1.969   2.288
  441SOL    HW1 1357   1.376   1.932   2.198
  441SOL    HW2 1358   1.499   1.985   2.292
  442SOL     OW 1359   0.382   2.562   2.342
  442SOL    HW1 1360   0.427   2.472   2.339
  442SOL    HW2 1361   0.288   2.551   2.375
  443SOL     OW 1362   0.614   1.984   1.979
  443SOL    HW1 1363   0.712   1.962   1.986
  443SOL    HW2 1364   0.583   1.967   1.886
  444SOL     OW 1365   0.539   1.926   2.374
  444SOL    HW1 1366   0.458   1.927   2.432
  444SOL    HW2 1367   0.542   2.009   2.319
  445SOL     OW 1368   0.297   1.897   2.033
  445SOL    HW1 1369   0.346   1.981   2.012
  445SOL    HW2 1370   0.359   1.832   2.078
  446SOL     OW 1371   0.935   2.098   2.342
  446SOL    HW1 1372   0.887   2.139   2.264
  446SOL    HW2 1373   1.034   2.096   2.323
  447SOL     OW 1374   1.032   2.411   1.878
  447SOL    HW1 1375   0.991   2.493   1.839
  447SOL    HW2 1376   1.096   2.437   1.951
  448SOL     OW 1377   0.866   2.316   2.504
  448SOL    HW1 1378   0.834   2.388   2.442
  448SOL    HW2 1379   0.890   2.235   2.451
  449SOL     OW 1380   1.017   1.901   2.615
  449SOL    HW1 1381   0.945   1.906   2.546
  449SOL    HW2 1382   0.993   1.832   2.684
  450SOL     OW 1383   1.857   2.695   2.239
  450SOL    HW1 1384   1.899   2.631   2.303
  450SOL    HW2 1385   1.819   2.644   2.161
  451SOL     OW 1386   1.390   2.437   1.940
  451SOL    HW1 1387   1.336   2.416   2.021
  451SOL    HW2 1388   1.481   2.396   1.949
  452SOL     OW 1389   0.527   2.118   2.190
  452SOL    HW1 1390   0.554   2.059   2.115
  452SOL    HW2 1391   0.527   2.213   2.159
  453SOL     OW 1392   1.111   3.057   2.962
  453SOL    HW1 1393   1.071   3.101   3.043
  453SOL    HW2 1394   1.070   3.094   2.879
  454SOL     OW 1395   0.566   2.399   2.727
  454SOL    HW1 1396   0.578   2.465   2.653
  454SOL    HW2 1397   0.612   2.433   2.810
  455SOL     OW 1398   1.582   2.501   2.334
  455SOL    HW1 1399   1.551   2.562   2.407
  455SOL    HW2 1400   1.632   2.553   2.265
  456SOL     OW 1401   0.573   2.732   2.891
  456SOL    HW1 1402   0.617   2.821   2.882
  456SOL    HW2 1403   0.510   2.732   2.968
  457SOL     OW 1404   1.209   2.387   2.137
  457SOL    HW1 1405   1.222   2.303   2.191
  457SOL    HW2 1406   1.180   2.461   2.197
  458SOL     OW 1407   0.732   2.496   2.926
  458SOL    HW1 1408   0.791   2.470   2.850
  458SOL    HW2 1409   0.704   2.592   2.915
  459SOL     OW 1410   0.307   1.925   2.480
  459SOL    HW1 1411   0.296   2.019   2.513
  459SOL    HW2 1412   0.302   1.862   2.557
  460SOL     OW 1413   1.622   2.229   2.236
  460SOL    HW1 1414   1.624   2.153   2.300
  460SOL    HW2 1415   1.574   2.306   2.276
  461SOL     OW 1416   1.540   2.136   1.987
  461SOL    HW1 1417   1.479   2.061   2.010
  461SOL    HW2 1418   1.562   2.188   2.070
  462SOL     OW 1419   1.303   2.700   1.904
  462SOL    HW1 1420   1.337   2.607   1.919
  462SOL    HW2 1421   1.321   2.727   1.809
  463SOL     OW 1422   0.319   2.672   2.811
  463SOL    HW1 1423   0.412   2.708   2.816
  463SOL    HW2 1424   0.313   2.587   2.863
  464SOL     OW 1425   0.815   2.434   2.187
  464SOL    HW1 1426   0.822   2.345   2.141
  464SOL    HW2 1427   0.721   2.468   2.179
  465SOL     OW 1428   0.473   2.362   2.053
  465SOL    HW1 1429   0.534   2.442   2.057
  465SOL    HW2 1430   0.378   2.393   2.060
  466SOL     OW 1431   1.302   2.717   2.171
  466SOL    HW1 1432   1.216   2.686   2.213
  466SOL    HW2 1433   1.298   2.703   2.072
  467SOL     OW 1434   1.726   1.997   2.385
  467SOL    HW1 1435   1.799   1.980   2.318
  467SOL    HW2 1436   1.695   1.910   2.423
  468SOL     OW 1437   1.280   2.789   2.534
  468SOL    HW1 1438   1.340   2.708   2.536
  468SOL    HW2 1439   1.320   2.858   2.474
  469SOL     OW 1440   1.841   2.037   2.825
  469SOL    HW1 1441   1.880   1.952   2.789
  469SOL    HW2 1442   1.743   2.039   2.806
  470SOL     OW 1443   0.263   2.188   2.582
  470SOL    HW1 1444   0.184   2.239   2.548
  470SOL    HW2 1445   0.254   2.173   2.680
  471SOL     OW 1446   0.916   2.772   2.153
  471SOL    HW1 1447   0.979   2.810   2.085
  471SOL    HW2 1448   0.956   2.689   2.192
  472SOL     OW 1449   0.075   2.207   1.895
  472SOL    HW1 1450  -0.017   2.179   1.866
  472SOL    HW2 1451   0.106   2.284   1.839
  473SOL     OW 1452   0.072   2.028   2.180
  473SOL    HW1 1453   0.055   2.111   2.126
  473SOL    HW2 1454   0.162   1.991   2.158
  474SOL     OW 1455   1.674   2.745   3.116
  474SOL    HW1 1456   1.647   2.656   3.079
  474SOL    HW2 1457   1.675   2.813   3.043
  475SOL     OW 1458   1.225   2.187   2.311
  475SOL    HW1 1459   1.290   2.113   2.300
  475SOL    HW2 1460   1.245   2.237   2.395
  476SOL     OW 1461   0.594   2.607   2.514
  476SOL    HW1 1462   0.644   2.692   2.495
  476SOL    HW2 1463   0.506   2.609   2.466
  477SOL     OW 1464   0.428   2.286   2.382
  477SOL    HW1 1465   0.458   2.214   2.320
  477SOL    HW2 1466   0.389   2.246   2.465
  478SOL     OW 1467   1.352   1.914   2.030
  478SOL    HW1 1468   1.387   1.873   1.946
  478SOL    HW2 1469   1.262   1.876   2.050
  479SOL     OW 1470   1.300   2.315   2.553
  479SOL    HW1 1471   1.241   2.395   2.557
  479SOL    HW2 1472   1.315   2.280   2.646
  480SOL     OW 1473   1.593   2.083   2.744
  480SOL    HW1 1474   1.509   2.082   2.798
  480SOL    HW2 1475   1.595   2.166   2.688
  481SOL     OW 1476   2.092   0.628   0.113
  481SOL    HW1 1477   1.999   0.626   0.150
  481SOL    HW2 1478   2.093   0.589   0.021
  482SOL     OW 1479   2.087   0.275   0.996
  482SOL    HW1 1480   2.122   0.258   1.088
  482SOL    HW2 1481   1.999   0.230   0.984
  483SOL     OW 1482   1.881   0.368   0.647
  483SOL    HW1 1483   1.799   0.411   0.686
  483SOL    HW2 1484   1.853   0.295   0.584
  484SOL     OW 1485   2.431   1.275   1.165
  484SOL    HW1 1486   2.338   1.268   1.128
  484SOL    HW2 1487   2.442   1.364   1.209
  485SOL     OW 1488   2.630   1.144   1.023
  485SOL    HW1 1489   2.552   1.161   1.083
  485SOL    HW2 1490   2.664   1.231   0.987
  486SOL     OW 1491   2.712   0.798   1.823
  486SOL    HW1 1492   2.708   0.874   1.888
  486SOL    HW2 1493   2.734   0.834   1.732
  487SOL     OW 1494   2.547   1.012   0.665
  487SOL    HW1 1495   2.616   0.996   0.735
  487SOL    HW2 1496   2.474   1.069   0.703
  488SOL     OW 1497   2.548   1.161   1.803
  488SOL    HW1 1498   2.608   1.240   1.817
  488SOL    HW2 1499   2.462   1.192   1.762
  489SOL     OW 1500   2.197   1.435   1.061
  489SOL    HW1 1501   2.119   1.404   1.008
  489SOL    HW2 1502   2.255   1.493   1.004
  490SOL     OW 1503   2.300   0.392   1.499
  490SOL    HW1 1504   2.382   0.336   1.508
  490SOL    HW2 1505   2.219   0.334   1.503
  491SOL     OW 1506   2.093   1.713   0.483
  491SOL    HW1 1507   2.127   1.790   0.537
  491SOL    HW2 1508   2.137   1.713   0.393
  492SOL     OW 1509   2.092   1.434   0.538
  492SOL    HW1 1510   2.066   1.530   0.538
  492SOL    HW2 1511   2.021   1.380   0.583
  493SOL     OW 1512   2.102   1.091   0.886
  493SOL    HW1 1513   2.116   1.007   0.938
  493SOL    HW2 1514   2.047   1.155   0.941
  494SOL     OW 1515   2.482   1.786   1.439
  494SOL    HW1 1516   2.390   1.769   1.474
  494SOL    HW2 1517   2.510   1.878   1.465
  495SOL     OW 1518   2.468   0.964   0.123
  495SOL    HW1 1519   2.475   1.048   0.069
  495SOL    HW2 1520   2.514   0.977   0.211
  496SOL     OW 1521   1.984   0.643   0.563
  496SOL    HW1 1522   1.939   0.555   0.580
  496SOL    HW2 1523   1.983   0.697   0.647
  497SOL     OW 1524   1.975   0.737   1.597
  497SOL    HW1 1525   2.063   0.724   1.642
  497SOL    HW2 1526   1.962   0.834   1.575
  498SOL     OW 1527   2.475   1.365   0.726
  498SOL    HW1 1528   2.426   1.278   0.735
  498SOL    HW2 1529   2.452   1.408   0.639
  499SOL     OW 1530   2.671   0.004   0.502
  499SOL    HW1 1531   2.711   0.095   0.493
  499SOL    HW2 1532   2.571   0.012   0.508
  500SOL     OW 1533   2.059   0.976   1.264
  500SOL    HW1 1534   2.148   0.931   1.250
  500SOL    HW2 1535   1.986   0.911   1.245
  501SOL     OW 1536   2.179   0.251   1.801
  501SOL    HW1 1537   2.250   0.322   1.807
  501SOL    HW2 1538   2.091   0.290   1.829
  502SOL     OW 1539   2.460   0.729   0.270
  502SOL    HW1 1540   2.484   0.798   0.202
  502SOL    HW2 1541   2.382   0.762   0.324
  503SOL     OW 1542   2.669   0.605   1.465
  503SOL    HW1 1543   2.622   0.602   1.554
  503SOL    HW2 1544   2.618   0.550   1.399
  504SOL     OW 1545   1.938   0.811   0.789
  504SOL    HW1 1546   2.037   0.799   0.798
  504SOL    HW2 1547   1.914   0.906   0.810
  505SOL     OW 1548   1.992   1.821   1.571
  505SOL    HW1 1549   1.982   1.806   1.670
  505SOL    HW2 1550   1.906   1.857   1.535
  506SOL     OW 1551   2.727   0.348   0.195
  506SOL    HW1 1552   2.786   0.411   0.146
  506SOL    HW2 1553   2.746   0.254   0.166
  507SOL     OW 1554   2.412   0.196   0.885
  507SOL    HW1 1555   2.407   0.191   0.985
  507SOL    HW2 1556   2.414   0.292   0.856
  508SOL     OW 1557   2.870   1.456   0.477
  508SOL    HW1 1558   2.824   1.528   0.425
  508SOL    HW2 1559   2.866   1.476   0.575
  509SOL     OW 1560   2.213   1.801   0.853
  509SOL    HW1 1561   2.263   1.715   0.859
  509SOL    HW2 1562   2.278   1.878   0.850
  510SOL     OW 1563   2.183   0.943   0.242
  510SOL    HW1 1564   2.265   0.982   0.200
  510SOL    HW2 1565   2.156   0.861   0.193
  511SOL     OW 1566   2.323   1.266   1.727
  511SOL    HW1 1567   2.273   1.267   1.641
  511SOL    HW2 1568   2.260   1.248   1.803
  512SOL     OW 1569   2.064   0.285   1.498
  512SOL    HW1 1570   1.984   0.345   1.485
  512SOL    HW2 1571   2.054   0.236   1.584
  513SOL     OW 1572   2.326   1.743   0.323
  513SOL    HW1 1573   2.359   1.782   0.409
  513SOL    HW2 1574   2.402   1.736   0.258
  514SOL     OW 1575   2.111   1.785   1.241
  514SOL    HW1 1576   2.168   1.720   1.291
  514SOL    HW2 1577   2.095   1.752   1.148
  515SOL     OW 1578   2.244   0.700   0.480
  515SOL    HW1 1579   2.289   0.610   0.477
  515SOL    HW2 1580   2.150   0.689   0.513
  516SOL     OW 1581   2.476   0.122   0.117
  516SOL    HW1 1582   2.574   0.100   0.124
  516SOL    HW2 1583   2.445   0.105   0.024
  517SOL     OW 1584   2.643   0.264   1.749
  517SOL    HW1 1585   2.710   0.203   1.792
  517SOL    HW2 1586   2.570   0.283   1.814
  518SOL     OW 1587   2.665   1.402   0.924
  518SOL    HW1 1588   2.755   1.416   0.882
  518SOL    HW2 1589   2.594   1.404   0.853
  519SOL     OW 1590   2.784   0.503   0.899
  519SOL    HW1 1591   2.759   0.494   0.803
  519SOL    HW2 1592   2.832   0.421   0.930
  520SOL     OW 1593   2.401   0.064   0.512
  520SOL    HW1 1594   2.320   0.065   0.570
  520SOL    HW2 1595   2.404   0.147   0.457
  521SOL     OW 1596   2.159   0.035   0.171
  521SOL    HW1 1597   2.208   0.119   0.150
  521SOL    HW2 1598   2.221  -0.030   0.216
  522SOL     OW 1599   3.089   1.570   0.793
  522SOL    HW1 1600   3.110   1.644   0.728
  522SOL    HW2 1601   3.157   1.570   0.866
  523SOL     OW 1602   2.321   1.152   0.741
  523SOL    HW1 1603   2.250   1.125   0.806
  523SOL    HW2 1604   2.295   1.124   0.648
  524SOL     OW 1605   1.940   0.556   1.386
  524SOL    HW1 1606   2.032   0.555   1.345
  524SOL    HW2 1607   1.934   0.630   1.453
  525SOL     OW 1608   2.423   0.222   1.147
  525SOL    HW1 1609   2.461   0.138   1.184
  525SOL    HW2 1610   2.335   0.241   1.191
  526SOL     OW 1611   2.350   1.385   0.174
  526SOL    HW1 1612   2.263   1.370   0.221
  526SOL    HW2 1613   2.333   1.411   0.079
  527SOL     OW 1614   2.389   0.256   0.328
  527SOL    HW1 1615   2.416   0.197   0.253
  527SOL    HW2 1616   2.389   0.351   0.297
  528SOL     OW 1617   2.777   0.089   1.402
  528SOL    HW1 1618   2.802   0.069   1.307
  528SOL    HW2 1619   2.849   0.145   1.444
  529SOL     OW 1620   2.567   1.050   0.368
  529SOL    HW1 1621   2.553   1.057   0.467
  529SOL    HW2 1622   2.651   0.999   0.350
  530SOL     OW 1623   2.272   0.813   1.251
  530SOL    HW1 1624   2.358   0.825   1.301
  530SOL    HW2 1625   2.230   0.726   1.278
  531SOL     OW 1626   1.926   1.564   1.331
  531SOL    HW1 1627   1.880   1.646   1.297
  531SOL    HW2 1628   2.024   1.583   1.340
  532SOL     OW 1629   2.229   1.100   0.501
  532SOL    HW1 1630   2.222   1.183   0.445
  532SOL    HW2 1631   2.233   1.020   0.441
  533SOL     OW 1632   2.428   0.537   0.865
  533SOL    HW1 1633   2.440   0.603   0.791
  533SOL    HW2 1634   2.474   0.571   0.948
  534SOL     OW 1635   2.216   1.510   1.329
  534SOL    HW1 1636   2.195   1.466   1.242
  534SOL    HW2 1637   2.313   1.536   1.332
  535SOL     OW 1638   2.264   0.751   1.598
  535SOL    HW1 1639   2.332   0.806   1.551
  535SOL    HW2 1640   2.304   0.663   1.625
  536SOL     OW 1641   2.366   0.050   1.740
  536SOL    HW1 1642   2.324  -0.007   1.670
  536SOL    HW2 1643   2.300   0.119   1.772
  537SOL     OW 1644   2.435   0.870   1.029
  537SOL    HW1 1645   2.479   0.959   1.020
  537SOL    HW2 1646   2.372   0.870   1.106
  538SOL     OW 1647   3.071   0.525   0.275
  538SOL    HW1 1648   3.084   0.441   0.329
  538SOL    HW2 1649   3.042   0.599   0.335
  539SOL     OW 1650   2.169   0.213   1.231
  539SOL    HW1 1651   2.146   0.250   1.321
  539SOL    HW2 1652   2.139   0.118   1.225
  540SOL     OW 1653   1.899   1.310   1.282
  540SOL    HW1 1654   1.952   1.261   1.350
  540SOL    HW2 1655   1.921   1.408   1.287
  541SOL     OW 1656   2.594   0.634   1.064
  541SOL    HW1 1657   2.653   0.608   0.988
  541SOL    HW2 1658   2.566   0.730   1.053
  542SOL     OW 1659   2.169   0.063   0.618
  542SOL    HW1 1660   2.158   0.157   0.651
  542SOL    HW2 1661   2.164   0.000   0.695
  543SOL     OW 1662   2.885   0.766   0.966
  543SOL    HW1 1663   2.900   0.787   1.062
  543SOL    HW2 1664   2.855   0.671   0.957
  544SOL     OW 1665   2.842   1.573   1.700
  544SOL    HW1 1666   2.822   1.617   1.612
  544SOL    HW2 1667   2.881   1.482   1.684
  545SOL     OW 1668   2.212   0.898   1.804
  545SOL    HW1 1669   2.288   0.942   1.852
  545SOL    HW2 1670   2.247   0.851   1.722
  546SOL     OW 1671   2.181   0.810   0.949
  546SOL    HW1 1672   2.274   0.846   0.954
  546SOL    HW2 1673   2.175   0.725   1.001
  547SOL     OW 1674   2.201   0.509   1.006
  547SOL    HW1 1675   2.149   0.426   0.989
  547SOL    HW2 1676   2.278   0.514   0.942
  548SOL     OW 1677   1.870   1.326   0.200
  548SOL    HW1 1678   1.777   1.347   0.169
  548SOL    HW2 1679   1.880   1.227   0.213
  549SOL     OW 1680   1.950   1.801   0.927
  549SOL    HW1 1681   1.908   1.715   0.900
  549SOL    HW2 1682   2.044   1.804   0.893
  550SOL     OW 1683   2.366   1.568   0.910
  550SOL    HW1 1684   2.432   1.642   0.919
  550SOL    HW2 1685   2.410   1.489   0.868
  551SOL     OW 1686   2.864   0.796   1.238
  551SOL    HW1 1687   2.905   0.764   1.324
  551SOL    HW2 1688   2.768   0.769   1.235
  552SOL     OW 1689   1.902   0.544   1.114
  552SOL    HW1 1690   1.987   0.511   1.073
  552SOL    HW2 1691   1.915   0.559   1.212
  553SOL     OW 1692   2.051   0.520   1.722
  553SOL    HW1 1693   2.110   0.480   1.652
  553SOL    HW2 1694   1.993   0.591   1.681
  554SOL     OW 1695   2.677   0.572   0.325
  554SOL    HW1 1696   2.684   0.483   0.279
  554SOL    HW2 1697   2.583   0.606   0.317
  555SOL     OW 1698   2.114   1.564   1.744
  555SOL    HW1 1699   2.084   1.621   1.820
  555SOL    HW2 1700   2.107   1.467   1.770
  556SOL     OW 1701   2.533   0.464   1.269
  556SOL    HW1 1702   2.499   0.375   1.239
  556SOL    HW2 1703   2.559   0.518   1.189
  557SOL     OW 1704   2.792   1.678   1.465
  557SOL    HW1 1705   2.768   1.660   1.370
  557SOL    HW2 1706   2.822   1.772   1.475
  558SOL     OW 1707   2.335   0.500   0.191
  558SOL    HW1 1708   2.396   0.580   0.195
  558SOL    HW2 1709   2.240   0.531   0.198
  559SOL     OW 1710   2.021   1.137   1.466
  559SOL    HW1 1711   2.043   1.076   1.542
  559SOL    HW2 1712   2.031   1.088   1.380
  560SOL     OW 1713   1.945   1.258   1.022
  560SOL    HW1 1714   1.940   1.257   1.122
  560SOL    HW2 1715   1.862   1.217   0.984
  561SOL     OW 1716   2.550   1.662   1.716
  561SOL    HW1 1717   2.494   1.743   1.725
  561SOL    HW2 1718   2.602   1.666   1.630
  562SOL     OW 1719   2.765   0.086   0.133
  562SOL    HW1 1720   2.816   0.087   0.047
  562SOL    HW2 1721   2.821   0.044   0.204
  563SOL     OW 1722   1.992   1.794   1.851
  563SOL    HW1 1723   1.951   1.720   1.904
  563SOL    HW2 1724   2.056   1.845   1.909
  564SOL     OW 1725   2.692   1.273   1.422
  564SOL    HW1 1726   2.687   1.306   1.517
  564SOL    HW2 1727   2.606   1.292   1.376
  565SOL     OW 1728   2.534   1.616   0.154
  565SOL    HW1 1729   2.543   1.626   0.055
  565SOL    HW2 1730   2.494   1.527   0.175
  566SOL     OW 1731   2.125   0.326   0.720
  566SOL    HW1 1732   2.046   0.377   0.686
  566SOL    HW2 1733   2.116   0.311   0.818
  567SOL     OW 1734   3.056   1.612   0.031
  567SOL    HW1 1735   3.062   1.519   0.068
  567SOL    HW2 1736   2.997   1.612  -0.049
  568SOL     OW 1737   2.684   1.002   1.372
  568SOL    HW1 1738   2.724   1.001   1.280
  568SOL    HW2 1739   2.694   1.094   1.412
  569SOL     OW 1740   2.234   1.288   1.490
  569SOL    HW1 1741   2.221   1.381   1.456
  569SOL    HW2 1742   2.150   1.236   1.477
  570SOL     OW 1743   2.452   1.487   0.491
  570SOL    HW1 1744   2.494   1.429   0.421
  570SOL    HW2 1745   2.408   1.566   0.447
  571SOL     OW 1746   2.117   1.348   0.290
  571SOL    HW1 1747   2.021   1.349   0.263
  571SOL    HW2 1748   2.129   1.401   0.374
  572SOL     OW 1749   1.967   1.013   1.726
  572SOL    HW1 1750   1.890   0.980   1.780
  572SOL    HW2 1751   2.052   0.983   1.768
  573SOL     OW 1752   2.534   0.203   1.489
  573SOL    HW1 1753   2.624   0.187   1.449
  573SOL    HW2 1754   2.542   0.208   1.588
  574SOL     OW 1755   2.475   0.842   1.431
  574SOL    HW1 1756   2.531   0.923   1.414
  574SOL    HW2 1757   2.534   0.762   1.434
  575SOL     OW 1758   2.578   0.565   1.708
  575SOL    HW1 1759   2.597   0.630   1.782
  575SOL    HW2 1760   2.638   0.485   1.717
  576SOL     OW 1761   2.252   1.741   1.560
  576SOL    HW1 1762   2.161   1.782   1.558
  576SOL    HW2 1763   2.245   1.647   1.592
  577SOL     OW 1764   3.087   0.325   0.449
  577SOL    HW1 1765   3.152   0.251   0.438
  577SOL    HW2 1766   3.107   0.375   0.533
  578SOL     OW 1767   2.456   0.745   0.652
  578SOL    HW1 1768   2.506   0.830   0.633
  578SOL    HW2 1769   2.368   0.747   0.604
  579SOL     OW 1770   2.523   1.790   0.953
  579SOL    HW1 1771   2.477   1.878   0.940
  579SOL    HW2 1772   2.622   1.802   0.946
  580SOL     OW 1773   2.721   0.956   0.861
  580SOL    HW1 1774   2.775   0.887   0.909
  580SOL    HW2 1775   2.689   1.025   0.927
  581SOL     OW 1776   2.945   0.984   0.087
  581SOL    HW1 1777   2.922   1.037   0.005
  581SOL    HW2 1778   3.026   0.928   0.068
  582SOL     OW 1779   2.083   1.314   1.844
  582SOL    HW1 1780   2.018   1.241   1.823
  582SOL    HW2 1781   2.087   1.328   1.942
  583SOL     OW 1782   1.941   1.240   0.653
  583SOL    HW1 1783   1.940   1.193   0.741
  583SOL    HW2 1784   2.023   1.212   0.602
  584SOL     OW 1785   2.534   1.391   1.624
  584SOL    HW1 1786   2.456   1.341   1.662
  584SOL    HW2 1787   2.531   1.486   1.655
  585SOL     OW 1788   2.290   0.424   0.520
  585SOL    HW1 1789   2.320   0.352   0.458
  585SOL    HW2 1790   2.251   0.384   0.603
  586SOL     OW 1791   2.179   0.547   1.280
  586SOL    HW1 1792   2.217   0.488   1.352
  586SOL    HW2 1793   2.219   0.521   1.192
  587SOL     OW 1794   2.674   1.586   0.687
  587SOL    HW1 1795   2.706   1.596   0.593
  587SOL    HW2 1796   2.595   1.524   0.689
  588SOL     OW 1797   2.632   1.330   0.301
  588SOL    HW1 1798   2.586   1.243   0.318
  588SOL    HW2 1799   2.723   1.327   0.342
  589SOL     OW 1800   2.480   1.567   1.284
  589SOL    HW1 1801   2.475   1.649   1.341
  589SOL    HW2 1802   2.569   1.564   1.239
  590SOL     OW 1803   1.901   1.077   0.300
  590SOL    HW1 1804   2.000   1.066   0.291
  590SOL    HW2 1805   1.861   0.991   0.332
  591SOL     OW 1806   2.737   1.646   0.337
  591SOL    HW1 1807   2.660   1.611   0.283
  591SOL    HW2 1808   2.705   1.717   0.399
  592SOL     OW 1809   2.092   0.628   1.975
  592SOL    HW1 1810   1.999   0.626   2.012
  592SOL    HW2 1811   2.093   0.589   1.883
  593SOL     OW 1812   2.087   0.275   2.858
  593SOL    HW1 1813   2.122   0.258   2.950
  593SOL    HW2 1814   1.999   0.230   2.846
  594SOL     OW 1815   1.881   0.368   2.509
  594SOL    HW1 1816   1.799   0.411   2.548
  594SOL    HW2 1817   1.853   0.295   2.446
  595SOL     OW 1818   2.630   1.144   2.885
  595SOL    HW1 1819   2.552   1.161   2.945
  595SOL    HW2 1820   2.664   1.231   2.849
  596SOL     OW 1821   2.547   1.012   2.527
  596SOL    HW1 1822   2.616   0.996   2.597
  596SOL    HW2 1823   2.474   1.069   2.565
  597SOL     OW 1824   2.093   1.713   2.345
  597SOL    HW1 1825   2.127   1.790   2.399
  597SOL    HW2 1826   2.137   1.713   2.255
  598SOL     OW 1827   2.092   1.434   2.400
  598SOL    HW1 1828   2.066   1.530   2.400
  598SOL    HW2 1829   2.021   1.380   2.445
  599SOL     OW 1830   2.102   1.091   2.748
  599SOL    HW1 1831   2.116   1.007   2.800
  599SOL    HW2 1832   2.047   1.155   2.803
  600SOL     OW 1833   2.468   0.964   1.985
  600SOL    HW1 1834   2.475   1.048   1.931
  600SOL    HW2 1835   2.514   0.977   2.073
  601SOL     OW 1836   1.984   0.643   2.425
  601SOL    HW1 1837   1.939   0.555   2.442
  601SOL    HW2 1838   1.983   0.697   2.509
  602SOL     OW 1839   1.889   1.596   1.979
  602SOL    HW1 1840   1.870   1.500   2.000
  602SOL    HW2 1841   1.856   1.654   2.054
  603SOL     OW 1842   2.475   1.365   2.588
  603SOL    HW1 1843   2.426   1.278   2.597
  603SOL    HW2 1844   2.452   1.408   2.501
  604SOL     OW 1845   2.671   0.004   2.364
  604SOL    HW1 1846   2.711   0.095   2.355
  604SOL    HW2 1847   2.571   0.012   2.370
  605SOL     OW 1848   2.460   0.729   2.132
  605SOL    HW1 1849   2.484   0.798   2.064
  605SOL    HW2 1850   2.382   0.762   2.186
  606SOL     OW 1851   1.938   0.811   2.651
  606SOL    HW1 1852   2.037   0.799   2.660
  606SOL    HW2 1853   1.914   0.906   2.672
  607SOL     OW 1854   2.727   0.348   2.057
  607SOL    HW1 1855   2.786   0.411   2.008
  607SOL    HW2 1856   2.746   0.254   2.028
  608SOL     OW 1857   2.870   1.456   2.339
  608SOL    HW1 1858   2.824   1.528   2.287
  608SOL    HW2 1859   2.866   1.476   2.437
  609SOL     OW 1860   2.213   1.801   2.715
  609SOL    HW1 1861   2.263   1.715   2.721
  609SOL    HW2 1862   2.278   1.878   2.712
  610SOL     OW 1863   2.183   0.943   2.104
  610SOL    HW1 1864   2.265   0.982   2.062
  610SOL    HW2 1865   2.156   0.861   2.055
  611SOL     OW 1866   2.326   1.743   2.185
  611SOL    HW1 1867   2.359   1.782   2.271
  611SOL    HW2 1868   2.402   1.736   2.120
  612SOL     OW 1869   2.244   0.700   2.342
  612SOL    HW1 1870   2.289   0.610   2.339
  612SOL    HW2 1871   2.150   0.689   2.375
  613SOL     OW 1872   2.476   0.122   1.979
  613SOL    HW1 1873   2.574   0.100   1.986
  613SOL    HW2 1874   2.445   0.105   1.886
  614SOL     OW 1875   2.665   1.402   2.786
  614SOL    HW1 1876   2.755   1.416   2.744
  614SOL    HW2 1877   2.594   1.404   2.715
  615SOL     OW 1878   2.401   0.064   2.374
  615SOL    HW1 1879   2.320   0.065   2.432
  615SOL    HW2 1880   2.404   0.147   2.319
  616SOL     OW 1881   2.159   0.035   2.033
  616SOL    HW1 1882   2.208   0.119   2.012
  616SOL    HW2 1883   2.221  -0.030   2.078
  617SOL     OW 1884   3.089   1.570   2.655
  617SOL    HW1 1885   3.110   1.644   2.590
  617SOL    HW2 1886   3.157   1.570   2.728
  618SOL     OW 1887   2.321   1.152   2.603
  618SOL    HW1 1888   2.250   1.125   2.668
  618SOL    HW2 1889   2.295   1.124   2.510
  619SOL     OW 1890   2.350   1.385   2.036
  619SOL    HW1 1891   2.263   1.370   2.083
  619SOL    HW2 1892   2.333   1.411   1.941
  620SOL     OW 1893   2.389   0.256   2.190
  620SOL    HW1 1894   2.416   0.197   2.115
  620SOL    HW2 1895   2.389   0.351   2.159
  621SOL     OW 1896   2.567   1.050   2.230
  621SOL    HW1 1897   2.553   1.057   2.329
  621SOL    HW2 1898   2.651   0.999   2.212
  622SOL     OW 1899   2.229   1.100   2.363
  622SOL    HW1 1900   2.222   1.183   2.307
  622SOL    HW2 1901   2.233   1.020   2.303
  623SOL     OW 1902   2.428   0.537   2.727
  623SOL    HW1 1903   2.440   0.603   2.653
  623SOL    HW2 1904   2.474   0.571   2.810
  624SOL     OW 1905   3.071   0.525   2.137
  624SOL    HW1 1906   3.084   0.441   2.191
  624SOL    HW2 1907   3.042   0.599   2.197
  625SOL     OW 1908   2.594   0.634   2.926
  625SOL    HW1 1909   2.653   0.608   2.850
  625SOL    HW2 1910   2.566   0.730   2.915
  626SOL     OW 1911   2.169   0.063   2.480
  626SOL    HW1 1912   2.158   0.157   2.513
  626SOL    HW2 1913   2.164   0.000   2.557
  627SOL     OW 1914   2.885   0.766   2.828
  627SOL    HW1 1915   2.900   0.787   2.924
  627SOL    HW2 1916   2.855   0.671   2.819
  628SOL     OW 1917   2.181   0.810   2.811
  628SOL    HW1 1918   2.274   0.846   2.816
  628SOL    HW2 1919   2.175   0.725   2.863
  629SOL     OW 1920   1.870   1.326   2.062
  629SOL    HW1 1921   1.777   1.347   2.031
  629SOL    HW2 1922   1.880   1.227   2.075
  630SOL     OW 1923   1.950   1.801   2.789
  630SOL    HW1 1924   1.908   1.715   2.762
  630SOL    HW2 1925   2.044   1.804   2.755
  631SOL     OW 1926   2.366   1.568   2.772
  631SOL    HW1 1927   2.432   1.642   2.781
  631SOL    HW2 1928   2.410   1.489   2.730
  632SOL     OW 1929   2.864   0.796   3.100
  632SOL    HW1 1930   2.905   0.764   3.186
  632SOL    HW2 1931   2.768   0.769   3.097
  633SOL     OW 1932   2.677   0.572   2.187
  633SOL    HW1 1933   2.684   0.483   2.141
  633SOL    HW2 1934   2.583   0.606   2.179
  634SOL     OW 1935   2.335   0.500   2.053
  634SOL    HW1 1936   2.396   0.580   2.057
  634SOL    HW2 1937   2.240   0.531   2.060
  635SOL     OW 1938   2.765   0.086   1.995
  635SOL    HW1 1939   2.816   0.087   1.909
  635SOL    HW2 1940   2.821   0.044   2.066
  636SOL     OW 1941   2.534   1.616   2.016
  636SOL    HW1 1942   2.543   1.626   1.917
  636SOL    HW2 1943   2.494   1.527   2.037
  637SOL     OW 1944   2.125   0.326   2.582
  637SOL    HW1 1945   2.046   0.377   2.548
  637SOL    HW2 1946   2.116   0.311   2.680
  638SOL     OW 1947   2.452   1.487   2.353
  638SOL    HW1 1948   2.494   1.429   2.283
  638SOL    HW2 1949   2.408   1.566   2.309
  639SOL     OW 1950   2.117   1.348   2.152
  639SOL    HW1 1951   2.021   1.349   2.125
  639SOL    HW2 1952   2.129   1.401   2.236
  640SOL     OW 1953   1.937   0.345   1.895
  640SOL    HW1 1954   1.845   0.317   1.866
  640SOL    HW2 1955   1.968   0.422   1.839
  641SOL     OW 1956   1.934   0.166   2.180
  641SOL    HW1 1957   1.917   0.249   2.126
  641SOL    HW2 1958   2.024   0.129   2.158
  642SOL     OW 1959   3.087   0.325   2.311
  642SOL    HW1 1960   3.152   0.251   2.300
  642SOL    HW2 1961   3.107   0.375   2.395
  643SOL     OW 1962   2.456   0.745   2.514
  643SOL    HW1 1963   2.506   0.830   2.495
  643SOL    HW2 1964   2.368   0.747   2.466
  644SOL     OW 1965   2.523   1.790   2.815
  644SOL    HW1 1966   2.477   1.878   2.802
  644SOL    HW2 1967   2.622   1.802   2.808
  645SOL     OW 1968   2.721   0.956   2.723
  645SOL    HW1 1969   2.775   0.887   2.771
  645SOL    HW2 1970   2.689   1.025   2.789
  646SOL     OW 1971   1.941   1.240   2.515
  646SOL    HW1 1972   1.940   1.193   2.603
  646SOL    HW2 1973   2.023   1.212   2.464
  647SOL     OW 1974   2.290   0.424   2.382
  647SOL    HW1 1975   2.320   0.352   2.320
  647SOL    HW2 1976   2.251   0.384   2.465
  648SOL     OW 1977   2.674   1.586   2.549
  648SOL    HW1 1978   2.706   1.596   2.455
  648SOL    HW2 1979   2.595   1.524   2.551
  649SOL     OW 1980   2.632   1.330   2.163
  649SOL    HW1 1981   2.586   1.243   2.180
  649SOL    HW2 1982   2.723   1.327   2.204
  650SOL     OW 1983   1.901   1.077   2.162
  650SOL    HW1 1984   2.000   1.066   2.153
  650SOL    HW2 1985   1.861   0.991   2.194
  651SOL     OW 1986   2.737   1.646   2.199
  651SOL    HW1 1987   2.660   1.611   2.145
  651SOL    HW2 1988   2.705   1.717   2.261
  652SOL     OW 1989   2.092   2.490   0.113
  652SOL    HW1 1990   1.999   2.488   0.150
  652SOL    HW2 1991   2.093   2.451   0.021
  653SOL     OW 1992   2.087   2.137   0.996
  653SOL    HW1 1993   2.122   2.120   1.088
  653SOL    HW2 1994   1.999   2.092   0.984
  654SOL     OW 1995   1.881   2.230   0.647
  654SOL    HW1 1996   1.799   2.273   0.686
  654SOL    HW2 1997   1.853   2.157   0.584
  655SOL     OW 1998   2.630   3.006   1.023
  655SOL    HW1 1999   2.552   3.023   1.083
  655SOL    HW2 2000   2.664   3.093   0.987
  656SOL     OW 2001   2.712   2.660   1.823
  656SOL    HW1 2002   2.708   2.736   1.888
  656SOL    HW2 2003   2.734   2.696   1.732
  657SOL     OW 2004   2.547   2.874   0.665
  657SOL    HW1 2005   2.616   2.858   0.735
  657SOL    HW2 2006   2.474   2.931   0.703
  658SOL     OW 2007   2.300   2.254   1.499
  658SOL    HW1 2008   2.382   2.198   1.508
  658SOL    HW2 2009   2.219   2.196   1.503
  659SOL     OW 2010   1.984   2.505   0.563
  659SOL    HW1 2011   1.939   2.417   0.580
  659SOL    HW2 2012   1.983   2.559   0.647
  660SOL     OW 2013   1.975   2.599   1.597
  660SOL    HW1 2014   2.063   2.586   1.642
  660SOL    HW2 2015   1.962   2.696   1.575
  661SOL     OW 2016   2.671   1.866   0.502
  661SOL    HW1 2017   2.711   1.957   0.493
  661SOL    HW2 2018   2.571   1.874   0.508
  662SOL     OW 2019   2.059   2.838   1.264
  662SOL    HW1 2020   2.148   2.793   1.250
  662SOL    HW2 2021   1.986   2.773   1.245
  663SOL     OW 2022   2.179   2.113   1.801
  663SOL    HW1 2023   2.250   2.184   1.807
  663SOL    HW2 2024   2.091   2.152   1.829
  664SOL     OW 2025   2.460   2.591   0.270
  664SOL    HW1 2026   2.484   2.660   0.202
  664SOL    HW2 2027   2.382   2.624   0.324
  665SOL     OW 2028   2.669   2.467   1.465
  665SOL    HW1 2029   2.622   2.464   1.554
  665SOL    HW2 2030   2.618   2.412   1.399
  666SOL     OW 2031   2.853   2.272   1.242
  666SOL    HW1 2032   2.776   2.306   1.296
  666SOL    HW2 2033   2.819   2.221   1.163
  667SOL     OW 2034   1.938   2.673   0.789
  667SOL    HW1 2035   2.037   2.661   0.798
  667SOL    HW2 2036   1.914   2.768   0.810
  668SOL     OW 2037   2.727   2.210   0.195
  668SOL    HW1 2038   2.786   2.273   0.146
  668SOL    HW2 2039   2.746   2.116   0.166
  669SOL     OW 2040   2.412   2.058   0.885
  669SOL    HW1 2041   2.407   2.053   0.985
  669SOL    HW2 2042   2.414   2.154   0.856
  670SOL     OW 2043   2.064   2.147   1.498
  670SOL    HW1 2044   1.984   2.207   1.485
  670SOL    HW2 2045   2.054   2.098   1.584
  671SOL     OW 2046   2.244   2.562   0.480
  671SOL    HW1 2047   2.289   2.472   0.477
  671SOL    HW2 2048   2.150   2.551   0.513
  672SOL     OW 2049   2.643   2.126   1.749
  672SOL    HW1 2050   2.710   2.065   1.792
  672SOL    HW2 2051   2.570   2.145   1.814
  673SOL     OW 2052   2.784   2.365   0.899
  673SOL    HW1 2053   2.759   2.356   0.803
  673SOL    HW2 2054   2.832   2.283   0.930
  674SOL     OW 2055   2.401   1.926   0.512
  674SOL    HW1 2056   2.320   1.927   0.570
  674SOL    HW2 2057   2.404   2.009   0.457
  675SOL     OW 2058   2.159   1.897   0.171
  675SOL    HW1 2059   2.208   1.981   0.150
  675SOL    HW2 2060   2.221   1.832   0.216
  676SOL     OW 2061   1.940   2.418   1.386
  676SOL    HW1 2062   2.032   2.417   1.345
  676SOL    HW2 2063   1.934   2.492   1.453
  677SOL     OW 2064   2.423   2.084   1.147
  677SOL    HW1 2065   2.461   2.000   1.184
  677SOL    HW2 2066   2.335   2.103   1.191
  678SOL     OW 2067   2.389   2.118   0.328
  678SOL    HW1 2068   2.416   2.059   0.253
  678SOL    HW2 2069   2.389   2.213   0.297
  679SOL     OW 2070   2.777   1.951   1.402
  679SOL    HW1 2071   2.802   1.931   1.307
  679SOL    HW2 2072   2.849   2.007   1.444
  680SOL     OW 2073   2.272   2.675   1.251
  680SOL    HW1 2074   2.358   2.687   1.301
  680SOL    HW2 2075   2.230   2.588   1.278
  681SOL     OW 2076   2.428   2.399   0.865
  681SOL    HW1 2077   2.440   2.465   0.791
  681SOL    HW2 2078   2.474   2.433   0.948
  682SOL     OW 2079   2.264   2.613   1.598
  682SOL    HW1 2080   2.332   2.668   1.551
  682SOL    HW2 2081   2.304   2.525   1.625
  683SOL     OW 2082   2.366   1.912   1.740
  683SOL    HW1 2083   2.324   1.855   1.670
  683SOL    HW2 2084   2.300   1.981   1.772
  684SOL     OW 2085   2.435   2.732   1.029
  684SOL    HW1 2086   2.479   2.821   1.020
  684SOL    HW2 2087   2.372   2.732   1.106
  685SOL     OW 2088   3.071   2.387   0.275
  685SOL    HW1 2089   3.084   2.303   0.329
  685SOL    HW2 2090   3.042   2.461   0.335
  686SOL     OW 2091   2.169   2.075   1.231
  686SOL    HW1 2092   2.146   2.112   1.321
  686SOL    HW2 2093   2.139   1.980   1.225
  687SOL     OW 2094   2.594   2.496   1.064
  687SOL    HW1 2095   2.653   2.470   0.988
  687SOL    HW2 2096   2.566   2.592   1.053
  688SOL     OW 2097   2.169   1.925   0.618
  688SOL    HW1 2098   2.158   2.019   0.651
  688SOL    HW2 2099   2.164   1.862   0.695
  689SOL     OW 2100   2.885   2.628   0.966
  689SOL    HW1 2101   2.900   2.649   1.062
  689SOL    HW2 2102   2.855   2.533   0.957
  690SOL     OW 2103   2.212   2.760   1.804
  690SOL    HW1 2104   2.288   2.804   1.852
  690SOL    HW2 2105   2.247   2.713   1.722
  691SOL     OW 2106   2.930   3.195   0.849
  691SOL    HW1 2107   2.937   3.111   0.794
  691SOL    HW2 2108   2.992   3.264   0.813
  692SOL     OW 2109   2.181   2.672   0.949
  692SOL    HW1 2110   2.274   2.708   0.954
  692SOL    HW2 2111   2.175   2.587   1.001
  693SOL     OW 2112   2.201   2.371   1.006
  693SOL    HW1 2113   2.149   2.288   0.989
  693SOL    HW2 2114   2.278   2.376   0.942
  694SOL     OW 2115   2.864   2.658   1.238
  694SOL    HW1 2116   2.905   2.626   1.324
  694SOL    HW2 2117   2.768   2.631   1.235
  695SOL     OW 2118   1.902   2.406   1.114
  695SOL    HW1 2119   1.987   2.373   1.073
  695SOL    HW2 2120   1.915   2.421   1.212
  696SOL     OW 2121   2.051   2.382   1.722
  696SOL    HW1 2122   2.110   2.342   1.652
  696SOL    HW2 2123   1.993   2.453   1.681
  697SOL     OW 2124   2.677   2.434   0.325
  697SOL    HW1 2125   2.684   2.345   0.279
  697SOL    HW2 2126   2.583   2.468   0.317
  698SOL     OW 2127   2.533   2.326   1.269
  698SOL    HW1 2128   2.499   2.237   1.239
  698SOL    HW2 2129   2.559   2.380   1.189
  699SOL     OW 2130   2.335   2.362   0.191
  699SOL    HW1 2131   2.396   2.442   0.195
  699SOL    HW2 2132   2.240   2.393   0.198
  700SOL     OW 2133   3.164   2.717   0.309
  700SOL    HW1 2134   3.078   2.686   0.351
  700SOL    HW2 2135   3.160   2.703   0.210
  701SOL     OW 2136   2.765   1.948   0.133
  701SOL    HW1 2137   2.816   1.949   0.047
  701SOL    HW2 2138   2.821   1.906   0.204
  702SOL     OW 2139   2.125   2.188   0.720
  702SOL    HW1 2140   2.046   2.239   0.686
  702SOL    HW2 2141   2.116   2.173   0.818
  703SOL     OW 2142   2.901   2.960   0.696
  703SOL    HW1 2143   2.831   2.913   0.750
  703SOL    HW2 2144   2.960   2.892   0.653
  704SOL     OW 2145   1.967   2.875   1.726
  704SOL    HW1 2146   1.890   2.842   1.780
  704SOL    HW2 2147   2.052   2.845   1.768
  705SOL     OW 2148   2.534   2.065   1.489
  705SOL    HW1 2149   2.624   2.049   1.449
  705SOL    HW2 2150   2.542   2.070   1.588
  706SOL     OW 2151   1.934   2.028   0.318
  706SOL    HW1 2152   1.917   2.111   0.264
  706SOL    HW2 2153   2.024   1.991   0.296
  707SOL     OW 2154   2.475   2.704   1.431
  707SOL    HW1 2155   2.531   2.785   1.414
  707SOL    HW2 2156   2.534   2.624   1.434
  708SOL     OW 2157   2.578   2.427   1.708
  708SOL    HW1 2158   2.597   2.492   1.782
  708SOL    HW2 2159   2.638   2.347   1.717
  709SOL     OW 2160   3.087   2.187   0.449
  709SOL    HW1 2161   3.152   2.113   0.438
  709SOL    HW2 2162   3.107   2.237   0.533
  710SOL     OW 2163   2.456   2.607   0.652
  710SOL    HW1 2164   2.506   2.692   0.633
  710SOL    HW2 2165   2.368   2.609   0.604
  711SOL     OW 2166   2.721   2.818   0.861
  711SOL    HW1 2167   2.775   2.749   0.909
  711SOL    HW2 2168   2.689   2.887   0.927
  712SOL     OW 2169   2.290   2.286   0.520
  712SOL    HW1 2170   2.320   2.214   0.458
  712SOL    HW2 2171   2.251   2.246   0.603
  713SOL     OW 2172   2.179   2.409   1.280
  713SOL    HW1 2173   2.217   2.350   1.352
  713SOL    HW2 2174   2.219   2.383   1.192
  714SOL     OW 2175   2.863   1.896   1.154
  714SOL    HW1 2176   2.800   1.824   1.123
  714SOL    HW2 2177   2.956   1.860   1.154
  715SOL     OW 2178   2.092   2.490   1.975
  715SOL    HW1 2179   1.999   2.488   2.012
  715SOL    HW2 2180   2.093   2.451   1.883
  716SOL     OW 2181   2.087   2.137   2.858
  716SOL    HW1 2182   2.122   2.120   2.950
  716SOL    HW2 2183   1.999   2.092   2.846
  717SOL     OW 2184   1.881   2.230   2.509
  717SOL    HW1 2185   1.799   2.273   2.548
  717SOL    HW2 2186   1.853   2.157   2.446
  718SOL     OW 2187   2.547   2.874   2.527
  718SOL    HW1 2188   2.616   2.858   2.597
  718SOL    HW2 2189   2.474   2.931   2.565
  719SOL     OW 2190   1.984   2.505   2.425
  719SOL    HW1 2191   1.939   2.417   2.442
  719SOL    HW2 2192   1.983   2.559   2.509
  720SOL     OW 2193   2.671   1.866   2.364
  720SOL    HW1 2194   2.711   1.957   2.355
  720SOL    HW2 2195   2.571   1.874   2.370
  721SOL     OW 2196   2.460   2.591   2.132
  721SOL    HW1 2197   2.484   2.660   2.064
  721SOL    HW2 2198   2.382   2.624   2.186
  722SOL     OW 2199   1.938   2.673   2.651
  722SOL    HW1 2200   2.037   2.661   2.660
  722SOL    HW2 2201   1.914   2.768   2.672
  723SOL     OW 2202   2.727   2.210   2.057
  723SOL    HW1 2203   2.786   2.273   2.008
  723SOL    HW2 2204   2.746   2.116   2.028
  724SOL     OW 2205   2.412   2.058   2.747
  724SOL    HW1 2206   2.407   2.053   2.847
  724SOL    HW2 2207   2.414   2.154   2.718
  725SOL     OW 2208   2.244   2.562   2.342
  725SOL    HW1 2209   2.289   2.472   2.339
  725SOL    HW2 2210   2.150   2.551   2.375
  726SOL     OW 2211   2.476   1.984   1.979
  726SOL    HW1 2212   2.574   1.962   1.986
  726SOL    HW2 2213   2.445   1.967   1.886
  727SOL     OW 2214   2.401   1.926   2.374
  727SOL    HW1 2215   2.320   1.927   2.432
  727SOL    HW2 2216   2.404   2.009   2.319
  728SOL     OW 2217   2.159   1.897   2.033
  728SOL    HW1 2218   2.208   1.981   2.012
  728SOL    HW2 2219   2.221   1.832   2.078
  729SOL     OW 2220   2.389   2.118   2.190
  729SOL    HW1 2221   2.416   2.059   2.115
  729SOL    HW2 2222   2.389   2.213   2.159
  730SOL     OW 2223   2.428   2.399   2.727
  730SOL    HW1 2224   2.440   2.465   2.653
  730SOL    HW2 2225   2.474   2.433   2.810
  731SOL     OW 2226   2.435   2.732   2.891
  731SOL    HW1 2227   2.479   2.821   2.882
  731SOL    HW2 2228   2.372   2.732   2.968
  732SOL     OW 2229   3.071   2.387   2.137
  732SOL    HW1 2230   3.084   2.303   2.191
  732SOL    HW2 2231   3.042   2.461   2.197
  733SOL     OW 2232   2.594   2.496   2.926
  733SOL    HW1 2233   2.653   2.470   2.850
  733SOL    HW2 2234   2.566   2.592   2.915
  734SOL     OW 2235   2.169   1.925   2.480
  734SOL    HW1 2236   2.158   2.019   2.513
  734SOL    HW2 2237   2.164   1.862   2.557
  735SOL     OW 2238   2.885   2.628   2.828
  735SOL    HW1 2239   2.900   2.649   2.924
  735SOL    HW2 2240   2.855   2.533   2.819
  736SOL     OW 2241   2.930   3.195   2.711
  736SOL    HW1 2242   2.937   3.111   2.656
  736SOL    HW2 2243   2.992   3.264   2.675
  737SOL     OW 2244   2.181   2.672   2.811
  737SOL    HW1 2245   2.274   2.708   2.816
  737SOL    HW2 2246   2.175   2.587   2.863
  738SOL     OW 2247   2.864   2.658   3.100
  738SOL    HW1 2248   2.905   2.626   3.186
  738SOL    HW2 2249   2.768   2.631   3.097
  739SOL     OW 2250   2.677   2.434   2.187
  739SOL    HW1 2251   2.684   2.345   2.141
  739SOL    HW2 2252   2.583   2.468   2.179
  740SOL     OW 2253   2.335   2.362   2.053
  740SOL    HW1 2254   2.396   2.442   2.057
  740SOL    HW2 2255   2.240   2.393   2.060
  741SOL     OW 2256   3.164   2.717   2.171
  741SOL    HW1 2257   3.078   2.686   2.213
  741SOL    HW2 2258   3.160   2.703   2.072
  742SOL     OW 2259   2.765   1.948   1.995
  742SOL    HW1 2260   2.816   1.949   1.909
  742SOL    HW2 2261   2.821   1.906   2.066
  743SOL     OW 2262   2.125   2.188   2.582
  743SOL    HW1 2263   2.046   2.239   2.548
  743SOL    HW2 2264   2.116   2.173   2.680
  744SOL     OW 2265   2.901   2.960   2.558
  744SOL    HW1 2266   2.831   2.913   2.612
  744SOL    HW2 2267   2.960   2.892   2.515
  745SOL     OW 2268   1.937   2.207   1.895
  745SOL    HW1 2269   1.845   2.179   1.866
  745SOL    HW2 2270   1.968   2.284   1.839
  746SOL     OW 2271   1.934   2.028   2.180
  746SOL    HW1 2272   1.917   2.111   2.126
  746SOL    HW2 2273   2.024   1.991   2.158
  747SOL     OW 2274   3.087   2.187   2.311
  747SOL    HW1 2275   3.152   2.113   2.300
  747SOL    HW2 2276   3.107   2.237   2.395
  748SOL     OW 2277   2.456   2.607   2.514
  748SOL    HW1 2278   2.506   2.692   2.495
  748SOL    HW2 2279   2.368   2.609   2.466
  749SOL     OW 2280   2.721   2.818   2.723
  749SOL    HW1 2281   2.775   2.749   2.771
  749SOL    HW2 2282   2.689   2.887   2.789
  750SOL     OW 2283   2.290   2.286   2.382
  750SOL    HW1 2284   2.320   2.214   2.320
  750SOL    HW2 2285   2.251   2.246   2.465
   2.86735   2.86735   2.86735
