; mobley_1728386_GMX.itp created by acpype (v: 2023.10.27) on Thu May 14 13:27:00 2026

[ atomtypes ]
;name   bond_type     mass     charge   ptype   sigma         epsilon       Amb
 hn       hn          0.00000  0.00000   A     1.10650e-01   4.18400e-02 ; 0.62  0.0100
 nt       nt          0.00000  0.00000   A     3.35904e-01   3.56058e-01 ; 1.89  0.0851
 c        c           0.00000  0.00000   A     3.31521e-01   4.13379e-01 ; 1.86  0.0988
 o        o           0.00000  0.00000   A     3.04812e-01   6.12119e-01 ; 1.71  0.1463
 ca       ca          0.00000  0.00000   A     3.31521e-01   4.13379e-01 ; 1.86  0.0988
 ha       ha          0.00000  0.00000   A     2.62548e-01   6.73624e-02 ; 1.47  0.0161

[ moleculetype ]
;name            nrexcl
 mobley_1728386   3

[ atoms ]
;   nr  type  resi  res  atom  cgnr     charge      mass       ; qtot   bond_type
     1   hn     1   MOL   H11    1     0.312500      1.00800 ; qtot 0.312
     2   nt     1   MOL    N1    2    -0.674000     14.01000 ; qtot -0.362
     3   hn     1   MOL   H12    3     0.312500      1.00800 ; qtot -0.049
     4    c     1   MOL    C1    4     0.670700     12.01000 ; qtot 0.622
     5    o     1   MOL    O1    5    -0.610100     16.00000 ; qtot 0.012
     6   ca     1   MOL    C2    6    -0.141600     12.01000 ; qtot -0.130
     7   ca     1   MOL    C3    7    -0.091000     12.01000 ; qtot -0.221
     8   ha     1   MOL   H31    8     0.144500      1.00800 ; qtot -0.077
     9   ca     1   MOL    C5    9    -0.138500     12.01000 ; qtot -0.215
    10   ha     1   MOL   H51   10     0.137000      1.00800 ; qtot -0.078
    11   ca     1   MOL    C7   11    -0.109000     12.01000 ; qtot -0.187
    12   ca     1   MOL    C6   12    -0.138500     12.01000 ; qtot -0.326
    13   ha     1   MOL   H61   13     0.137000      1.00800 ; qtot -0.189
    14   ca     1   MOL    C4   14    -0.091000     12.01000 ; qtot -0.280
    15   ha     1   MOL   H41   15     0.144500      1.00800 ; qtot -0.135
    16   ha     1   MOL   H71   16     0.135000      1.00800 ; qtot -0.000

[ bonds ]
;   ai     aj funct   r             k
     1      2   1    1.0105e-01    4.0128e+05 ;    H11 - N1    
     2      3   1    1.0105e-01    4.0128e+05 ;     N1 - H12   
     2      4   1    1.3675e-01    2.9326e+05 ;     N1 - C1    
     4      5   1    1.2190e-01    4.9421e+05 ;     C1 - O1    
     4      6   1    1.4907e-01    2.1994e+05 ;     C1 - C2    
     6      7   1    1.3986e-01    2.9644e+05 ;     C2 - C3    
     6     14   1    1.3986e-01    2.9644e+05 ;     C2 - C4    
     7      8   1    1.0860e-01    3.0183e+05 ;     C3 - H31   
     7      9   1    1.3986e-01    2.9644e+05 ;     C3 - C5    
     9     10   1    1.0860e-01    3.0183e+05 ;     C5 - H51   
     9     11   1    1.3986e-01    2.9644e+05 ;     C5 - C7    
    11     12   1    1.3986e-01    2.9644e+05 ;     C7 - C6    
    11     16   1    1.0860e-01    3.0183e+05 ;     C7 - H71   
    12     13   1    1.0860e-01    3.0183e+05 ;     C6 - H61   
    12     14   1    1.3986e-01    2.9644e+05 ;     C6 - C4    
    14     15   1    1.0860e-01    3.0183e+05 ;     C4 - H41   

[ pairs ]
;   ai     aj    funct
     1      5      1 ;    H11 - O1    
     1      6      1 ;    H11 - C2    
     2      7      1 ;     N1 - C3    
     2     14      1 ;     N1 - C4    
     3      5      1 ;    H12 - O1    
     3      6      1 ;    H12 - C2    
     4      8      1 ;     C1 - H31   
     4      9      1 ;     C1 - C5    
     4     12      1 ;     C1 - C6    
     4     15      1 ;     C1 - H41   
     5      7      1 ;     O1 - C3    
     5     14      1 ;     O1 - C4    
     6     10      1 ;     C2 - H51   
     6     11      1 ;     C2 - C7    
     6     13      1 ;     C2 - H61   
     7     12      1 ;     C3 - C6    
     7     15      1 ;     C3 - H41   
     7     16      1 ;     C3 - H71   
     8     10      1 ;    H31 - H51   
     8     11      1 ;    H31 - C7    
     8     14      1 ;    H31 - C4    
     9     13      1 ;     C5 - H61   
     9     14      1 ;     C5 - C4    
    10     12      1 ;    H51 - C6    
    10     16      1 ;    H51 - H71   
    11     15      1 ;     C7 - H41   
    13     15      1 ;    H61 - H41   
    13     16      1 ;    H61 - H71   
    14     16      1 ;     C4 - H71   

[ angles ]
;   ai     aj     ak    funct   theta         cth
     1      2      3      1    1.1795e+02    3.8384e+02 ;    H11 - N1     - H12   
     1      2      4      1    1.1844e+02    4.8158e+02 ;    H11 - N1     - C1    
     2      4      5      1    1.2298e+02    7.3421e+02 ;     N1 - C1     - O1    
     2      4      6      1    1.1654e+02    5.5965e+02 ;     N1 - C1     - C2    
     3      2      4      1    1.1844e+02    4.8158e+02 ;    H12 - N1     - C1    
     4      6      7      1    1.2033e+02    5.1413e+02 ;     C1 - C2     - C3    
     4      6     14      1    1.2033e+02    5.1413e+02 ;     C1 - C2     - C4    
     5      4      6      1    1.2260e+02    6.5237e+02 ;     O1 - C1     - C2    
     6      7      8      1    1.1988e+02    3.7572e+02 ;     C2 - C3     - H31   
     6      7      9      1    1.2002e+02    5.3279e+02 ;     C2 - C3     - C5    
     6     14     12      1    1.2002e+02    5.3279e+02 ;     C2 - C4     - C6    
     6     14     15      1    1.1988e+02    3.7572e+02 ;     C2 - C4     - H41   
     7      6     14      1    1.2002e+02    5.3279e+02 ;     C3 - C2     - C4    
     7      9     10      1    1.1988e+02    3.7572e+02 ;     C3 - C5     - H51   
     7      9     11      1    1.2002e+02    5.3279e+02 ;     C3 - C5     - C7    
     8      7      9      1    1.1988e+02    3.7572e+02 ;    H31 - C3     - C5    
     9     11     12      1    1.2002e+02    5.3279e+02 ;     C5 - C7     - C6    
     9     11     16      1    1.1988e+02    3.7572e+02 ;     C5 - C7     - H71   
    10      9     11      1    1.1988e+02    3.7572e+02 ;    H51 - C5     - C7    
    11     12     13      1    1.1988e+02    3.7572e+02 ;     C7 - C6     - H61   
    11     12     14      1    1.2002e+02    5.3279e+02 ;     C7 - C6     - C4    
    12     11     16      1    1.1988e+02    3.7572e+02 ;     C6 - C7     - H71   
    12     14     15      1    1.1988e+02    3.7572e+02 ;     C6 - C4     - H41   
    13     12     14      1    1.1988e+02    3.7572e+02 ;    H61 - C6     - C4    

[ dihedrals ] ; propers
; for gromacs 4.5 or higher, using funct 9
;    i      j      k      l   func   phase     kd      pn
     1      2      4      5      9     0.00   8.36800   1 ;    H11-    N1-    C1-    O1
     1      2      4      5      9   180.00  10.46000   2 ;    H11-    N1-    C1-    O1
     1      2      4      6      9   180.00  10.46000   2 ;    H11-    N1-    C1-    C2
     2      4      6      7      9   180.00   8.88054   2 ;     N1-    C1-    C2-    C3
     2      4      6     14      9   180.00   8.88054   2 ;     N1-    C1-    C2-    C4
     3      2      4      5      9     0.00   8.36800   1 ;    H12-    N1-    C1-    O1
     3      2      4      5      9   180.00  10.46000   2 ;    H12-    N1-    C1-    O1
     3      2      4      6      9   180.00  10.46000   2 ;    H12-    N1-    C1-    C2
     4      6      7      8      9   180.00  15.16700   2 ;     C1-    C2-    C3-   H31
     4      6      7      9      9   180.00  15.16700   2 ;     C1-    C2-    C3-    C5
     4      6     14     12      9   180.00  15.16700   2 ;     C1-    C2-    C4-    C6
     4      6     14     15      9   180.00  15.16700   2 ;     C1-    C2-    C4-   H41
     5      4      6      7      9   180.00   2.42672   2 ;     O1-    C1-    C2-    C3
     5      4      6     14      9   180.00   2.42672   2 ;     O1-    C1-    C2-    C4
     6      7      9     10      9   180.00  15.16700   2 ;     C2-    C3-    C5-   H51
     6      7      9     11      9   180.00  15.16700   2 ;     C2-    C3-    C5-    C7
     6     14     12     11      9   180.00  15.16700   2 ;     C2-    C4-    C6-    C7
     6     14     12     13      9   180.00  15.16700   2 ;     C2-    C4-    C6-   H61
     7      6     14     12      9   180.00  15.16700   2 ;     C3-    C2-    C4-    C6
     7      6     14     15      9   180.00  15.16700   2 ;     C3-    C2-    C4-   H41
     7      9     11     12      9   180.00  15.16700   2 ;     C3-    C5-    C7-    C6
     7      9     11     16      9   180.00  15.16700   2 ;     C3-    C5-    C7-   H71
     8      7      6     14      9   180.00  15.16700   2 ;    H31-    C3-    C2-    C4
     8      7      9     10      9   180.00  15.16700   2 ;    H31-    C3-    C5-   H51
     8      7      9     11      9   180.00  15.16700   2 ;    H31-    C3-    C5-    C7
     9      7      6     14      9   180.00  15.16700   2 ;     C5-    C3-    C2-    C4
     9     11     12     13      9   180.00  15.16700   2 ;     C5-    C7-    C6-   H61
     9     11     12     14      9   180.00  15.16700   2 ;     C5-    C7-    C6-    C4
    10      9     11     12      9   180.00  15.16700   2 ;    H51-    C5-    C7-    C6
    10      9     11     16      9   180.00  15.16700   2 ;    H51-    C5-    C7-   H71
    11     12     14     15      9   180.00  15.16700   2 ;     C7-    C6-    C4-   H41
    13     12     11     16      9   180.00  15.16700   2 ;    H61-    C6-    C7-   H71
    13     12     14     15      9   180.00  15.16700   2 ;    H61-    C6-    C4-   H41
    14     12     11     16      9   180.00  15.16700   2 ;     C4-    C6-    C7-   H71

[ dihedrals ] ; impropers
; treated as propers in GROMACS to use correct AMBER analytical function
;    i      j      k      l   func   phase     kd      pn
     4      1      2      3      4   180.00   4.60240   2 ;     C1-   H11-    N1-   H12
     4      7      6     14      4   180.00   4.60240   2 ;     C1-    C3-    C2-    C4
     6      2      4      5      4   180.00  43.93200   2 ;     C2-    N1-    C1-    O1
     6      9      7      8      4   180.00   4.60240   2 ;     C2-    C5-    C3-   H31
     6     12     14     15      4   180.00   4.60240   2 ;     C2-    C6-    C4-   H41
     7     11      9     10      4   180.00   4.60240   2 ;     C3-    C7-    C5-   H51
     9     12     11     16      4   180.00   4.60240   2 ;     C5-    C6-    C7-   H71
    11     14     12     13      4   180.00   4.60240   2 ;     C7-    C4-    C6-   H61
