; mobley_7375018_GMX.itp created by acpype (v: 2023.10.27) on Thu May 14 13:58:09 2026

[ atomtypes ]
;name   bond_type     mass     charge   ptype   sigma         epsilon       Amb
 c        c           0.00000  0.00000   A     3.31521e-01   4.13379e-01 ; 1.86  0.0988
 c3       c3          0.00000  0.00000   A     3.39771e-01   4.51035e-01 ; 1.91  0.1078
 o        o           0.00000  0.00000   A     3.04812e-01   6.12119e-01 ; 1.71  0.1463
 hc       hc          0.00000  0.00000   A     2.60018e-01   8.70272e-02 ; 1.46  0.0208

[ moleculetype ]
;name            nrexcl
 mobley_7375018   3

[ atoms ]
;   nr  type  resi  res  atom  cgnr     charge      mass       ; qtot   bond_type
     1    c     1   MOL    C1    1     0.563101     12.01000 ; qtot 0.563
     2   c3     1   MOL    C2    2    -0.205100     12.01000 ; qtot 0.358
     3   c3     1   MOL    C3    3    -0.092100     12.01000 ; qtot 0.266
     4   c3     1   MOL    C4    4    -0.182400     12.01000 ; qtot 0.084
     5   c3     1   MOL    C5    5    -0.080400     12.01000 ; qtot 0.003
     6   c3     1   MOL    C6    6    -0.075400     12.01000 ; qtot -0.072
     7   c3     1   MOL    C7    7    -0.079400     12.01000 ; qtot -0.152
     8   c3     1   MOL    C8    8    -0.078400     12.01000 ; qtot -0.230
     9   c3     1   MOL    C9    9    -0.079400     12.01000 ; qtot -0.309
    10   c3     1   MOL   C10   10    -0.078400     12.01000 ; qtot -0.388
    11   c3     1   MOL   C11   11    -0.078400     12.01000 ; qtot -0.466
    12    o     1   MOL    O1   12    -0.530100     16.00000 ; qtot -0.996
    13   hc     1   MOL    H1   13     0.063033      1.00800 ; qtot -0.933
    14   hc     1   MOL    H2   14     0.063033      1.00800 ; qtot -0.870
    15   hc     1   MOL    H3   15     0.063033      1.00800 ; qtot -0.807
    16   hc     1   MOL    H4   16     0.032700      1.00800 ; qtot -0.775
    17   hc     1   MOL    H5   17     0.032700      1.00800 ; qtot -0.742
    18   hc     1   MOL    H6   18     0.032700      1.00800 ; qtot -0.709
    19   hc     1   MOL    H7   19     0.063700      1.00800 ; qtot -0.645
    20   hc     1   MOL    H8   20     0.063700      1.00800 ; qtot -0.582
    21   hc     1   MOL    H9   21     0.038700      1.00800 ; qtot -0.543
    22   hc     1   MOL   H10   22     0.038700      1.00800 ; qtot -0.504
    23   hc     1   MOL   H11   23     0.055200      1.00800 ; qtot -0.449
    24   hc     1   MOL   H12   24     0.055200      1.00800 ; qtot -0.394
    25   hc     1   MOL   H13   25     0.038700      1.00800 ; qtot -0.355
    26   hc     1   MOL   H14   26     0.038700      1.00800 ; qtot -0.317
    27   hc     1   MOL   H15   27     0.037200      1.00800 ; qtot -0.279
    28   hc     1   MOL   H16   28     0.037200      1.00800 ; qtot -0.242
    29   hc     1   MOL   H17   29     0.040200      1.00800 ; qtot -0.202
    30   hc     1   MOL   H18   30     0.040200      1.00800 ; qtot -0.162
    31   hc     1   MOL   H19   31     0.042200      1.00800 ; qtot -0.120
    32   hc     1   MOL   H20   32     0.042200      1.00800 ; qtot -0.077
    33   hc     1   MOL   H21   33     0.038700      1.00800 ; qtot -0.039
    34   hc     1   MOL   H22   34     0.038700      1.00800 ; qtot 0.000

[ bonds ]
;   ai     aj funct   r             k
     1      2   1    1.5270e-01    1.9652e+05 ;     C1 - C2    
     1      4   1    1.5270e-01    1.9652e+05 ;     C1 - C4    
     1     12   1    1.2190e-01    4.9421e+05 ;     C1 - O1    
     2     13   1    1.0962e-01    2.8891e+05 ;     C2 - H1    
     2     14   1    1.0962e-01    2.8891e+05 ;     C2 - H2    
     2     15   1    1.0962e-01    2.8891e+05 ;     C2 - H3    
     3      5   1    1.5354e-01    1.9154e+05 ;     C3 - C5    
     3     16   1    1.0962e-01    2.8891e+05 ;     C3 - H4    
     3     17   1    1.0962e-01    2.8891e+05 ;     C3 - H5    
     3     18   1    1.0962e-01    2.8891e+05 ;     C3 - H6    
     4      6   1    1.5354e-01    1.9154e+05 ;     C4 - C6    
     4     19   1    1.0962e-01    2.8891e+05 ;     C4 - H7    
     4     20   1    1.0962e-01    2.8891e+05 ;     C4 - H8    
     5      7   1    1.5354e-01    1.9154e+05 ;     C5 - C7    
     5     21   1    1.0962e-01    2.8891e+05 ;     C5 - H9    
     5     22   1    1.0962e-01    2.8891e+05 ;     C5 - H10   
     6      8   1    1.5354e-01    1.9154e+05 ;     C6 - C8    
     6     23   1    1.0962e-01    2.8891e+05 ;     C6 - H11   
     6     24   1    1.0962e-01    2.8891e+05 ;     C6 - H12   
     7      9   1    1.5354e-01    1.9154e+05 ;     C7 - C9    
     7     25   1    1.0962e-01    2.8891e+05 ;     C7 - H13   
     7     26   1    1.0962e-01    2.8891e+05 ;     C7 - H14   
     8     10   1    1.5354e-01    1.9154e+05 ;     C8 - C10   
     8     27   1    1.0962e-01    2.8891e+05 ;     C8 - H15   
     8     28   1    1.0962e-01    2.8891e+05 ;     C8 - H16   
     9     11   1    1.5354e-01    1.9154e+05 ;     C9 - C11   
     9     29   1    1.0962e-01    2.8891e+05 ;     C9 - H17   
     9     30   1    1.0962e-01    2.8891e+05 ;     C9 - H18   
    10     11   1    1.5354e-01    1.9154e+05 ;    C10 - C11   
    10     31   1    1.0962e-01    2.8891e+05 ;    C10 - H19   
    10     32   1    1.0962e-01    2.8891e+05 ;    C10 - H20   
    11     33   1    1.0962e-01    2.8891e+05 ;    C11 - H21   
    11     34   1    1.0962e-01    2.8891e+05 ;    C11 - H22   

[ pairs ]
;   ai     aj    funct
     1      8      1 ;     C1 - C8    
     1     23      1 ;     C1 - H11   
     1     24      1 ;     C1 - H12   
     2      6      1 ;     C2 - C6    
     2     19      1 ;     C2 - H7    
     2     20      1 ;     C2 - H8    
     3      9      1 ;     C3 - C9    
     3     25      1 ;     C3 - H13   
     3     26      1 ;     C3 - H14   
     4     10      1 ;     C4 - C10   
     4     13      1 ;     C4 - H1    
     4     14      1 ;     C4 - H2    
     4     15      1 ;     C4 - H3    
     4     27      1 ;     C4 - H15   
     4     28      1 ;     C4 - H16   
     5     11      1 ;     C5 - C11   
     5     29      1 ;     C5 - H17   
     5     30      1 ;     C5 - H18   
     6     11      1 ;     C6 - C11   
     6     31      1 ;     C6 - H19   
     6     32      1 ;     C6 - H20   
     7     10      1 ;     C7 - C10   
     7     16      1 ;     C7 - H4    
     7     17      1 ;     C7 - H5    
     7     18      1 ;     C7 - H6    
     7     33      1 ;     C7 - H21   
     7     34      1 ;     C7 - H22   
     8      9      1 ;     C8 - C9    
     8     19      1 ;     C8 - H7    
     8     20      1 ;     C8 - H8    
     8     33      1 ;     C8 - H21   
     8     34      1 ;     C8 - H22   
     9     21      1 ;     C9 - H9    
     9     22      1 ;     C9 - H10   
     9     31      1 ;     C9 - H19   
     9     32      1 ;     C9 - H20   
    10     23      1 ;    C10 - H11   
    10     24      1 ;    C10 - H12   
    10     29      1 ;    C10 - H17   
    10     30      1 ;    C10 - H18   
    11     25      1 ;    C11 - H13   
    11     26      1 ;    C11 - H14   
    11     27      1 ;    C11 - H15   
    11     28      1 ;    C11 - H16   
    12      6      1 ;     O1 - C6    
    12     13      1 ;     O1 - H1    
    12     14      1 ;     O1 - H2    
    12     15      1 ;     O1 - H3    
    12     19      1 ;     O1 - H7    
    12     20      1 ;     O1 - H8    
    16     21      1 ;     H4 - H9    
    16     22      1 ;     H4 - H10   
    17     21      1 ;     H5 - H9    
    17     22      1 ;     H5 - H10   
    18     21      1 ;     H6 - H9    
    18     22      1 ;     H6 - H10   
    19     23      1 ;     H7 - H11   
    19     24      1 ;     H7 - H12   
    20     23      1 ;     H8 - H11   
    20     24      1 ;     H8 - H12   
    21     25      1 ;     H9 - H13   
    21     26      1 ;     H9 - H14   
    22     25      1 ;    H10 - H13   
    22     26      1 ;    H10 - H14   
    23     27      1 ;    H11 - H15   
    23     28      1 ;    H11 - H16   
    24     27      1 ;    H12 - H15   
    24     28      1 ;    H12 - H16   
    25     29      1 ;    H13 - H17   
    25     30      1 ;    H13 - H18   
    26     29      1 ;    H14 - H17   
    26     30      1 ;    H14 - H18   
    27     31      1 ;    H15 - H19   
    27     32      1 ;    H15 - H20   
    28     31      1 ;    H16 - H19   
    28     32      1 ;    H16 - H20   
    29     33      1 ;    H17 - H21   
    29     34      1 ;    H17 - H22   
    30     33      1 ;    H18 - H21   
    30     34      1 ;    H18 - H22   
    31     33      1 ;    H19 - H21   
    31     34      1 ;    H19 - H22   
    32     33      1 ;    H20 - H21   
    32     34      1 ;    H20 - H22   

[ angles ]
;   ai     aj     ak    funct   theta         cth
     1      2     13      1    1.0895e+02    3.6510e+02 ;     C1 - C2     - H1    
     1      2     14      1    1.0895e+02    3.6510e+02 ;     C1 - C2     - H2    
     1      2     15      1    1.0895e+02    3.6510e+02 ;     C1 - C2     - H3    
     1      4      6      1    1.1143e+02    5.0509e+02 ;     C1 - C4     - C6    
     1      4     19      1    1.0895e+02    3.6510e+02 ;     C1 - C4     - H7    
     1      4     20      1    1.0895e+02    3.6510e+02 ;     C1 - C4     - H8    
     2      1      4      1    1.1668e+02    4.9497e+02 ;     C2 - C1     - C4    
     2      1     12      1    1.2290e+02    6.3973e+02 ;     C2 - C1     - O1    
     3      5      7      1    1.1263e+02    5.0099e+02 ;     C3 - C5     - C7    
     3      5     21      1    1.0968e+02    3.6208e+02 ;     C3 - C5     - H9    
     3      5     22      1    1.0968e+02    3.6208e+02 ;     C3 - C5     - H10   
     4      1     12      1    1.2290e+02    6.3973e+02 ;     C4 - C1     - O1    
     4      6      8      1    1.1263e+02    5.0099e+02 ;     C4 - C6     - C8    
     4      6     23      1    1.0968e+02    3.6208e+02 ;     C4 - C6     - H11   
     4      6     24      1    1.0968e+02    3.6208e+02 ;     C4 - C6     - H12   
     5      3     16      1    1.0968e+02    3.6208e+02 ;     C5 - C3     - H4    
     5      3     17      1    1.0968e+02    3.6208e+02 ;     C5 - C3     - H5    
     5      3     18      1    1.0968e+02    3.6208e+02 ;     C5 - C3     - H6    
     5      7      9      1    1.1263e+02    5.0099e+02 ;     C5 - C7     - C9    
     5      7     25      1    1.0968e+02    3.6208e+02 ;     C5 - C7     - H13   
     5      7     26      1    1.0968e+02    3.6208e+02 ;     C5 - C7     - H14   
     6      4     19      1    1.0968e+02    3.6208e+02 ;     C6 - C4     - H7    
     6      4     20      1    1.0968e+02    3.6208e+02 ;     C6 - C4     - H8    
     6      8     10      1    1.1263e+02    5.0099e+02 ;     C6 - C8     - C10   
     6      8     27      1    1.0968e+02    3.6208e+02 ;     C6 - C8     - H15   
     6      8     28      1    1.0968e+02    3.6208e+02 ;     C6 - C8     - H16   
     7      5     21      1    1.0968e+02    3.6208e+02 ;     C7 - C5     - H9    
     7      5     22      1    1.0968e+02    3.6208e+02 ;     C7 - C5     - H10   
     7      9     11      1    1.1263e+02    5.0099e+02 ;     C7 - C9     - C11   
     7      9     29      1    1.0968e+02    3.6208e+02 ;     C7 - C9     - H17   
     7      9     30      1    1.0968e+02    3.6208e+02 ;     C7 - C9     - H18   
     8      6     23      1    1.0968e+02    3.6208e+02 ;     C8 - C6     - H11   
     8      6     24      1    1.0968e+02    3.6208e+02 ;     C8 - C6     - H12   
     8     10     11      1    1.1263e+02    5.0099e+02 ;     C8 - C10    - C11   
     8     10     31      1    1.0968e+02    3.6208e+02 ;     C8 - C10    - H19   
     8     10     32      1    1.0968e+02    3.6208e+02 ;     C8 - C10    - H20   
     9      7     25      1    1.0968e+02    3.6208e+02 ;     C9 - C7     - H13   
     9      7     26      1    1.0968e+02    3.6208e+02 ;     C9 - C7     - H14   
     9     11     10      1    1.1263e+02    5.0099e+02 ;     C9 - C11    - C10   
     9     11     33      1    1.0968e+02    3.6208e+02 ;     C9 - C11    - H21   
     9     11     34      1    1.0968e+02    3.6208e+02 ;     C9 - C11    - H22   
    10      8     27      1    1.0968e+02    3.6208e+02 ;    C10 - C8     - H15   
    10      8     28      1    1.0968e+02    3.6208e+02 ;    C10 - C8     - H16   
    10     11     33      1    1.0968e+02    3.6208e+02 ;    C10 - C11    - H21   
    10     11     34      1    1.0968e+02    3.6208e+02 ;    C10 - C11    - H22   
    11      9     29      1    1.0968e+02    3.6208e+02 ;    C11 - C9     - H17   
    11      9     30      1    1.0968e+02    3.6208e+02 ;    C11 - C9     - H18   
    11     10     31      1    1.0968e+02    3.6208e+02 ;    C11 - C10    - H19   
    11     10     32      1    1.0968e+02    3.6208e+02 ;    C11 - C10    - H20   
    13      2     14      1    1.0773e+02    2.9957e+02 ;     H1 - C2     - H2    
    13      2     15      1    1.0773e+02    2.9957e+02 ;     H1 - C2     - H3    
    14      2     15      1    1.0773e+02    2.9957e+02 ;     H2 - C2     - H3    
    16      3     17      1    1.0773e+02    2.9957e+02 ;     H4 - C3     - H5    
    16      3     18      1    1.0773e+02    2.9957e+02 ;     H4 - C3     - H6    
    17      3     18      1    1.0773e+02    2.9957e+02 ;     H5 - C3     - H6    
    19      4     20      1    1.0773e+02    2.9957e+02 ;     H7 - C4     - H8    
    21      5     22      1    1.0773e+02    2.9957e+02 ;     H9 - C5     - H10   
    23      6     24      1    1.0773e+02    2.9957e+02 ;    H11 - C6     - H12   
    25      7     26      1    1.0773e+02    2.9957e+02 ;    H13 - C7     - H14   
    27      8     28      1    1.0773e+02    2.9957e+02 ;    H15 - C8     - H16   
    29      9     30      1    1.0773e+02    2.9957e+02 ;    H17 - C9     - H18   
    31     10     32      1    1.0773e+02    2.9957e+02 ;    H19 - C10    - H20   
    33     11     34      1    1.0773e+02    2.9957e+02 ;    H21 - C11    - H22   

[ dihedrals ] ; propers
; for gromacs 4.5 or higher, using funct 9
;    i      j      k      l   func   phase     kd      pn
     1      4      6      8      9     0.00   0.00000   0 ;     C1-    C4-    C6-    C8
     1      4      6      8      9     0.00   0.16736   2 ;     C1-    C4-    C6-    C8
     1      4      6      8      9   180.00   1.92464   1 ;     C1-    C4-    C6-    C8
     1      4      6     23      9     0.00   0.65084   3 ;     C1-    C4-    C6-   H11
     1      4      6     24      9     0.00   0.65084   3 ;     C1-    C4-    C6-   H12
     2      1      4      6      9   180.00   1.09621   2 ;     C2-    C1-    C4-    C6
     2      1      4     19      9   180.00   0.00000   3 ;     C2-    C1-    C4-    H7
     2      1      4     20      9   180.00   0.00000   3 ;     C2-    C1-    C4-    H8
     3      5      7      9      9     0.00   2.17568   3 ;     C3-    C5-    C7-    C9
     3      5      7     25      9     0.00   0.54392   3 ;     C3-    C5-    C7-   H13
     3      5      7     26      9     0.00   0.54392   3 ;     C3-    C5-    C7-   H14
     4      1      2     13      9   180.00   0.00000   3 ;     C4-    C1-    C2-    H1
     4      1      2     14      9   180.00   0.00000   3 ;     C4-    C1-    C2-    H2
     4      1      2     15      9   180.00   0.00000   3 ;     C4-    C1-    C2-    H3
     4      6      8     10      9     0.00   2.17568   3 ;     C4-    C6-    C8-   C10
     4      6      8     27      9     0.00   0.54392   3 ;     C4-    C6-    C8-   H15
     4      6      8     28      9     0.00   0.54392   3 ;     C4-    C6-    C8-   H16
     5      7      9     11      9     0.00   2.17568   3 ;     C5-    C7-    C9-   C11
     5      7      9     29      9     0.00   0.54392   3 ;     C5-    C7-    C9-   H17
     5      7      9     30      9     0.00   0.54392   3 ;     C5-    C7-    C9-   H18
     6      8     10     11      9     0.00   2.17568   3 ;     C6-    C8-   C10-   C11
     6      8     10     31      9     0.00   0.54392   3 ;     C6-    C8-   C10-   H19
     6      8     10     32      9     0.00   0.54392   3 ;     C6-    C8-   C10-   H20
     7      5      3     16      9     0.00   0.54392   3 ;     C7-    C5-    C3-    H4
     7      5      3     17      9     0.00   0.54392   3 ;     C7-    C5-    C3-    H5
     7      5      3     18      9     0.00   0.54392   3 ;     C7-    C5-    C3-    H6
     7      9     11     10      9     0.00   2.17568   3 ;     C7-    C9-   C11-   C10
     7      9     11     33      9     0.00   0.54392   3 ;     C7-    C9-   C11-   H21
     7      9     11     34      9     0.00   0.54392   3 ;     C7-    C9-   C11-   H22
     8      6      4     19      9     0.00   0.54392   3 ;     C8-    C6-    C4-    H7
     8      6      4     20      9     0.00   0.54392   3 ;     C8-    C6-    C4-    H8
     8     10     11      9      9     0.00   2.17568   3 ;     C8-   C10-   C11-    C9
     8     10     11     33      9     0.00   0.54392   3 ;     C8-   C10-   C11-   H21
     8     10     11     34      9     0.00   0.54392   3 ;     C8-   C10-   C11-   H22
     9      7      5     21      9     0.00   0.54392   3 ;     C9-    C7-    C5-    H9
     9      7      5     22      9     0.00   0.54392   3 ;     C9-    C7-    C5-   H10
     9     11     10     31      9     0.00   0.54392   3 ;     C9-   C11-   C10-   H19
     9     11     10     32      9     0.00   0.54392   3 ;     C9-   C11-   C10-   H20
    10      8      6     23      9     0.00   0.54392   3 ;    C10-    C8-    C6-   H11
    10      8      6     24      9     0.00   0.54392   3 ;    C10-    C8-    C6-   H12
    10     11      9     29      9     0.00   0.54392   3 ;    C10-   C11-    C9-   H17
    10     11      9     30      9     0.00   0.54392   3 ;    C10-   C11-    C9-   H18
    11      9      7     25      9     0.00   0.54392   3 ;    C11-    C9-    C7-   H13
    11      9      7     26      9     0.00   0.54392   3 ;    C11-    C9-    C7-   H14
    11     10      8     27      9     0.00   0.54392   3 ;    C11-   C10-    C8-   H15
    11     10      8     28      9     0.00   0.54392   3 ;    C11-   C10-    C8-   H16
    12      1      2     13      9     0.00  16.86152   1 ;     O1-    C1-    C2-    H1
    12      1      2     13      9   180.00  15.31344   2 ;     O1-    C1-    C2-    H1
    12      1      2     14      9     0.00  16.86152   1 ;     O1-    C1-    C2-    H2
    12      1      2     14      9   180.00  15.31344   2 ;     O1-    C1-    C2-    H2
    12      1      2     15      9     0.00  16.86152   1 ;     O1-    C1-    C2-    H3
    12      1      2     15      9   180.00  15.31344   2 ;     O1-    C1-    C2-    H3
    12      1      4      6      9     0.00   2.84512   1 ;     O1-    C1-    C4-    C6
    12      1      4      6      9   180.00   0.83680   2 ;     O1-    C1-    C4-    C6
    12      1      4      6      9   180.00   1.84096   3 ;     O1-    C1-    C4-    C6
    12      1      4     19      9     0.00  16.86152   1 ;     O1-    C1-    C4-    H7
    12      1      4     19      9   180.00  15.31344   2 ;     O1-    C1-    C4-    H7
    12      1      4     20      9     0.00  16.86152   1 ;     O1-    C1-    C4-    H8
    12      1      4     20      9   180.00  15.31344   2 ;     O1-    C1-    C4-    H8
    16      3      5     21      9     0.00   0.50208   3 ;     H4-    C3-    C5-    H9
    16      3      5     22      9     0.00   0.50208   3 ;     H4-    C3-    C5-   H10
    17      3      5     21      9     0.00   0.50208   3 ;     H5-    C3-    C5-    H9
    17      3      5     22      9     0.00   0.50208   3 ;     H5-    C3-    C5-   H10
    18      3      5     21      9     0.00   0.50208   3 ;     H6-    C3-    C5-    H9
    18      3      5     22      9     0.00   0.50208   3 ;     H6-    C3-    C5-   H10
    19      4      6     23      9     0.00   0.50208   3 ;     H7-    C4-    C6-   H11
    19      4      6     24      9     0.00   0.50208   3 ;     H7-    C4-    C6-   H12
    20      4      6     23      9     0.00   0.50208   3 ;     H8-    C4-    C6-   H11
    20      4      6     24      9     0.00   0.50208   3 ;     H8-    C4-    C6-   H12
    21      5      7     25      9     0.00   0.50208   3 ;     H9-    C5-    C7-   H13
    21      5      7     26      9     0.00   0.50208   3 ;     H9-    C5-    C7-   H14
    22      5      7     25      9     0.00   0.50208   3 ;    H10-    C5-    C7-   H13
    22      5      7     26      9     0.00   0.50208   3 ;    H10-    C5-    C7-   H14
    23      6      8     27      9     0.00   0.50208   3 ;    H11-    C6-    C8-   H15
    23      6      8     28      9     0.00   0.50208   3 ;    H11-    C6-    C8-   H16
    24      6      8     27      9     0.00   0.50208   3 ;    H12-    C6-    C8-   H15
    24      6      8     28      9     0.00   0.50208   3 ;    H12-    C6-    C8-   H16
    25      7      9     29      9     0.00   0.50208   3 ;    H13-    C7-    C9-   H17
    25      7      9     30      9     0.00   0.50208   3 ;    H13-    C7-    C9-   H18
    26      7      9     29      9     0.00   0.50208   3 ;    H14-    C7-    C9-   H17
    26      7      9     30      9     0.00   0.50208   3 ;    H14-    C7-    C9-   H18
    27      8     10     31      9     0.00   0.50208   3 ;    H15-    C8-   C10-   H19
    27      8     10     32      9     0.00   0.50208   3 ;    H15-    C8-   C10-   H20
    28      8     10     31      9     0.00   0.50208   3 ;    H16-    C8-   C10-   H19
    28      8     10     32      9     0.00   0.50208   3 ;    H16-    C8-   C10-   H20
    29      9     11     33      9     0.00   0.50208   3 ;    H17-    C9-   C11-   H21
    29      9     11     34      9     0.00   0.50208   3 ;    H17-    C9-   C11-   H22
    30      9     11     33      9     0.00   0.50208   3 ;    H18-    C9-   C11-   H21
    30      9     11     34      9     0.00   0.50208   3 ;    H18-    C9-   C11-   H22
    31     10     11     33      9     0.00   0.50208   3 ;    H19-   C10-   C11-   H21
    31     10     11     34      9     0.00   0.50208   3 ;    H19-   C10-   C11-   H22
    32     10     11     33      9     0.00   0.50208   3 ;    H20-   C10-   C11-   H21
    32     10     11     34      9     0.00   0.50208   3 ;    H20-   C10-   C11-   H22

[ dihedrals ] ; impropers
; treated as propers in GROMACS to use correct AMBER analytical function
;    i      j      k      l   func   phase     kd      pn
    12      1      4      2      4   180.00   4.60240   2 ;     O1-    C1-    C4-    C2
