; mobley_5600967_GMX.itp created by acpype (v: 2023.10.27) on Thu May 14 13:49:52 2026

[ atomtypes ]
;name   bond_type     mass     charge   ptype   sigma         epsilon       Amb
 ca       ca          0.00000  0.00000   A     3.31521e-01   4.13379e-01 ; 1.86  0.0988
 c        c           0.00000  0.00000   A     3.31521e-01   4.13379e-01 ; 1.86  0.0988
 c3       c3          0.00000  0.00000   A     3.39771e-01   4.51035e-01 ; 1.91  0.1078
 n        n           0.00000  0.00000   A     3.18086e-01   6.84502e-01 ; 1.79  0.1636
 o        o           0.00000  0.00000   A     3.04812e-01   6.12119e-01 ; 1.71  0.1463
 os       os          0.00000  0.00000   A     3.15610e-01   3.03758e-01 ; 1.77  0.0726
 ha       ha          0.00000  0.00000   A     2.62548e-01   6.73624e-02 ; 1.47  0.0161
 h1       h1          0.00000  0.00000   A     2.42200e-01   8.70272e-02 ; 1.36  0.0208

[ moleculetype ]
;name            nrexcl
 mobley_5600967   3

[ atoms ]
;   nr  type  resi  res  atom  cgnr     charge      mass       ; qtot   bond_type
     1   ca     1   MOL    C1    1    -0.059500     12.01000 ; qtot -0.060
     2   ca     1   MOL    C2    2    -0.059500     12.01000 ; qtot -0.119
     3   ca     1   MOL    C3    3    -0.189500     12.01000 ; qtot -0.308
     4   ca     1   MOL    C4    4    -0.189500     12.01000 ; qtot -0.498
     5   ca     1   MOL    C5    5    -0.171600     12.01000 ; qtot -0.670
     6   ca     1   MOL    C6    6     0.143100     12.01000 ; qtot -0.526
     7    c     1   MOL    C7    7     0.677703     12.01000 ; qtot 0.151
     8   c3     1   MOL    C8    8     0.080800     12.01000 ; qtot 0.232
     9   c3     1   MOL    C9    9     0.080800     12.01000 ; qtot 0.313
    10   c3     1   MOL   C10   10     0.111700     12.01000 ; qtot 0.425
    11    n     1   MOL    N1   11    -0.480800     14.01000 ; qtot -0.056
    12    o     1   MOL    O1   12    -0.605100     16.00000 ; qtot -0.661
    13   os     1   MOL    O2   13    -0.324900     16.00000 ; qtot -0.986
    14   ha     1   MOL    H1   14     0.147000      1.00800 ; qtot -0.839
    15   ha     1   MOL    H2   15     0.147000      1.00800 ; qtot -0.692
    16   ha     1   MOL    H3   16     0.148000      1.00800 ; qtot -0.544
    17   ha     1   MOL    H4   17     0.148000      1.00800 ; qtot -0.396
    18   h1     1   MOL    H5   18     0.042533      1.00800 ; qtot -0.354
    19   h1     1   MOL    H6   19     0.042533      1.00800 ; qtot -0.311
    20   h1     1   MOL    H7   20     0.042533      1.00800 ; qtot -0.269
    21   h1     1   MOL    H8   21     0.042533      1.00800 ; qtot -0.226
    22   h1     1   MOL    H9   22     0.042533      1.00800 ; qtot -0.184
    23   h1     1   MOL   H10   23     0.042533      1.00800 ; qtot -0.141
    24   h1     1   MOL   H11   24     0.047033      1.00800 ; qtot -0.094
    25   h1     1   MOL   H12   25     0.047033      1.00800 ; qtot -0.047
    26   h1     1   MOL   H13   26     0.047033      1.00800 ; qtot -0.000

[ bonds ]
;   ai     aj funct   r             k
     1      3   1    1.3986e-01    2.9644e+05 ;     C1 - C3    
     1      5   1    1.3986e-01    2.9644e+05 ;     C1 - C5    
     1     14   1    1.0860e-01    3.0183e+05 ;     C1 - H1    
     2      4   1    1.3986e-01    2.9644e+05 ;     C2 - C4    
     2      5   1    1.3986e-01    2.9644e+05 ;     C2 - C5    
     2     15   1    1.0860e-01    3.0183e+05 ;     C2 - H2    
     3      6   1    1.3986e-01    2.9644e+05 ;     C3 - C6    
     3     16   1    1.0860e-01    3.0183e+05 ;     C3 - H3    
     4      6   1    1.3986e-01    2.9644e+05 ;     C4 - C6    
     4     17   1    1.0860e-01    3.0183e+05 ;     C4 - H4    
     5      7   1    1.4907e-01    2.1994e+05 ;     C5 - C7    
     6     13   1    1.3688e-01    2.8731e+05 ;     C6 - O2    
     7     11   1    1.3967e-01    2.6565e+05 ;     C7 - N1    
     7     12   1    1.2190e-01    4.9421e+05 ;     C7 - O1    
     8     11   1    1.4643e-01    2.1293e+05 ;     C8 - N1    
     8     18   1    1.0969e-01    2.8804e+05 ;     C8 - H5    
     8     19   1    1.0969e-01    2.8804e+05 ;     C8 - H6    
     8     20   1    1.0969e-01    2.8804e+05 ;     C8 - H7    
     9     11   1    1.4643e-01    2.1293e+05 ;     C9 - N1    
     9     21   1    1.0969e-01    2.8804e+05 ;     C9 - H8    
     9     22   1    1.0969e-01    2.8804e+05 ;     C9 - H9    
     9     23   1    1.0969e-01    2.8804e+05 ;     C9 - H10   
    10     13   1    1.4273e-01    2.3620e+05 ;    C10 - O2    
    10     24   1    1.0969e-01    2.8804e+05 ;    C10 - H11   
    10     25   1    1.0969e-01    2.8804e+05 ;    C10 - H12   
    10     26   1    1.0969e-01    2.8804e+05 ;    C10 - H13   

[ pairs ]
;   ai     aj    funct
     1      4      1 ;     C1 - C4    
     1     11      1 ;     C1 - N1    
     1     12      1 ;     C1 - O1    
     1     13      1 ;     C1 - O2    
     1     15      1 ;     C1 - H2    
     2      3      1 ;     C2 - C3    
     2     11      1 ;     C2 - N1    
     2     12      1 ;     C2 - O1    
     2     13      1 ;     C2 - O2    
     3      7      1 ;     C3 - C7    
     3     10      1 ;     C3 - C10   
     3     17      1 ;     C3 - H4    
     4      7      1 ;     C4 - C7    
     4     10      1 ;     C4 - C10   
     4     16      1 ;     C4 - H3    
     5      6      1 ;     C5 - C6    
     5      8      1 ;     C5 - C8    
     5      9      1 ;     C5 - C9    
     5     16      1 ;     C5 - H3    
     5     17      1 ;     C5 - H4    
     6     15      1 ;     C6 - H2    
     6     24      1 ;     C6 - H11   
     6     25      1 ;     C6 - H12   
     6     26      1 ;     C6 - H13   
     7     15      1 ;     C7 - H2    
     7     18      1 ;     C7 - H5    
     7     19      1 ;     C7 - H6    
     7     20      1 ;     C7 - H7    
     7     21      1 ;     C7 - H8    
     7     22      1 ;     C7 - H9    
     7     23      1 ;     C7 - H10   
     8     12      1 ;     C8 - O1    
     8     21      1 ;     C8 - H8    
     8     22      1 ;     C8 - H9    
     8     23      1 ;     C8 - H10   
     9     12      1 ;     C9 - O1    
     9     18      1 ;     C9 - H5    
     9     19      1 ;     C9 - H6    
     9     20      1 ;     C9 - H7    
    13     16      1 ;     O2 - H3    
    13     17      1 ;     O2 - H4    
    14      2      1 ;     H1 - C2    
    14      6      1 ;     H1 - C6    
    14      7      1 ;     H1 - C7    
    14     16      1 ;     H1 - H3    
    15     17      1 ;     H2 - H4    

[ angles ]
;   ai     aj     ak    funct   theta         cth
     1      3      6      1    1.2002e+02    5.3279e+02 ;     C1 - C3     - C6    
     1      3     16      1    1.1988e+02    3.7572e+02 ;     C1 - C3     - H3    
     1      5      2      1    1.2002e+02    5.3279e+02 ;     C1 - C5     - C2    
     1      5      7      1    1.2033e+02    5.1413e+02 ;     C1 - C5     - C7    
     2      4      6      1    1.2002e+02    5.3279e+02 ;     C2 - C4     - C6    
     2      4     17      1    1.1988e+02    3.7572e+02 ;     C2 - C4     - H4    
     2      5      7      1    1.2033e+02    5.1413e+02 ;     C2 - C5     - C7    
     3      1      5      1    1.2002e+02    5.3279e+02 ;     C3 - C1     - C5    
     3      1     14      1    1.1988e+02    3.7572e+02 ;     C3 - C1     - H1    
     3      6      4      1    1.2002e+02    5.3279e+02 ;     C3 - C6     - C4    
     3      6     13      1    1.1911e+02    6.6107e+02 ;     C3 - C6     - O2    
     4      2      5      1    1.2002e+02    5.3279e+02 ;     C4 - C2     - C5    
     4      2     15      1    1.1988e+02    3.7572e+02 ;     C4 - C2     - H2    
     4      6     13      1    1.1911e+02    6.6107e+02 ;     C4 - C6     - O2    
     5      1     14      1    1.1988e+02    3.7572e+02 ;     C5 - C1     - H1    
     5      2     15      1    1.1988e+02    3.7572e+02 ;     C5 - C2     - H2    
     5      7     11      1    1.1588e+02    5.5647e+02 ;     C5 - C7     - N1    
     5      7     12      1    1.2260e+02    6.5237e+02 ;     C5 - C7     - O1    
     6      3     16      1    1.1988e+02    3.7572e+02 ;     C6 - C3     - H3    
     6      4     17      1    1.1988e+02    3.7572e+02 ;     C6 - C4     - H4    
     6     13     10      1    1.1839e+02    7.3856e+02 ;     C6 - O2     - C10   
     7     11      8      1    1.1883e+02    6.4634e+02 ;     C7 - N1     - C8    
     7     11      9      1    1.1883e+02    6.4634e+02 ;     C7 - N1     - C9    
     8     11      9      1    1.1675e+02    6.3773e+02 ;     C8 - N1     - C9    
    11      7     12      1    1.2257e+02    7.2534e+02 ;     N1 - C7     - O1    
    11      8     18      1    1.0876e+02    4.0242e+02 ;     N1 - C8     - H5    
    11      8     19      1    1.0876e+02    4.0242e+02 ;     N1 - C8     - H6    
    11      8     20      1    1.0876e+02    4.0242e+02 ;     N1 - C8     - H7    
    11      9     21      1    1.0876e+02    4.0242e+02 ;     N1 - C9     - H8    
    11      9     22      1    1.0876e+02    4.0242e+02 ;     N1 - C9     - H9    
    11      9     23      1    1.0876e+02    4.0242e+02 ;     N1 - C9     - H10   
    13     10     24      1    1.1034e+02    4.7028e+02 ;     O2 - C10    - H11   
    13     10     25      1    1.1034e+02    4.7028e+02 ;     O2 - C10    - H12   
    13     10     26      1    1.1034e+02    4.7028e+02 ;     O2 - C10    - H13   
    18      8     19      1    1.0855e+02    2.9824e+02 ;     H5 - C8     - H6    
    18      8     20      1    1.0855e+02    2.9824e+02 ;     H5 - C8     - H7    
    19      8     20      1    1.0855e+02    2.9824e+02 ;     H6 - C8     - H7    
    21      9     22      1    1.0855e+02    2.9824e+02 ;     H8 - C9     - H9    
    21      9     23      1    1.0855e+02    2.9824e+02 ;     H8 - C9     - H10   
    22      9     23      1    1.0855e+02    2.9824e+02 ;     H9 - C9     - H10   
    24     10     25      1    1.0855e+02    2.9824e+02 ;    H11 - C10    - H12   
    24     10     26      1    1.0855e+02    2.9824e+02 ;    H11 - C10    - H13   
    25     10     26      1    1.0855e+02    2.9824e+02 ;    H12 - C10    - H13   

[ dihedrals ] ; propers
; for gromacs 4.5 or higher, using funct 9
;    i      j      k      l   func   phase     kd      pn
     1      3      6      4      9   180.00  15.16700   2 ;     C1-    C3-    C6-    C4
     1      3      6     13      9   180.00  15.16700   2 ;     C1-    C3-    C6-    O2
     1      5      2      4      9   180.00  15.16700   2 ;     C1-    C5-    C2-    C4
     1      5      2     15      9   180.00  15.16700   2 ;     C1-    C5-    C2-    H2
     1      5      7     11      9   180.00   8.88054   2 ;     C1-    C5-    C7-    N1
     1      5      7     12      9   180.00   2.42672   2 ;     C1-    C5-    C7-    O1
     2      4      6      3      9   180.00  15.16700   2 ;     C2-    C4-    C6-    C3
     2      4      6     13      9   180.00  15.16700   2 ;     C2-    C4-    C6-    O2
     2      5      7     11      9   180.00   8.88054   2 ;     C2-    C5-    C7-    N1
     2      5      7     12      9   180.00   2.42672   2 ;     C2-    C5-    C7-    O1
     3      1      5      2      9   180.00  15.16700   2 ;     C3-    C1-    C5-    C2
     3      1      5      7      9   180.00  15.16700   2 ;     C3-    C1-    C5-    C7
     3      6      4     17      9   180.00  15.16700   2 ;     C3-    C6-    C4-    H4
     3      6     13     10      9   180.00   6.94544   2 ;     C3-    C6-    O2-   C10
     4      2      5      7      9   180.00  15.16700   2 ;     C4-    C2-    C5-    C7
     4      6      3     16      9   180.00  15.16700   2 ;     C4-    C6-    C3-    H3
     4      6     13     10      9   180.00   6.94544   2 ;     C4-    C6-    O2-   C10
     5      1      3      6      9   180.00  15.16700   2 ;     C5-    C1-    C3-    C6
     5      1      3     16      9   180.00  15.16700   2 ;     C5-    C1-    C3-    H3
     5      2      4      6      9   180.00  15.16700   2 ;     C5-    C2-    C4-    C6
     5      2      4     17      9   180.00  15.16700   2 ;     C5-    C2-    C4-    H4
     5      7     11      8      9     0.00   1.71544   3 ;     C5-    C7-    N1-    C8
     5      7     11      8      9     0.00  20.16688   1 ;     C5-    C7-    N1-    C8
     5      7     11      8      9   180.00   9.12112   2 ;     C5-    C7-    N1-    C8
     5      7     11      9      9     0.00   1.71544   3 ;     C5-    C7-    N1-    C9
     5      7     11      9      9     0.00  20.16688   1 ;     C5-    C7-    N1-    C9
     5      7     11      9      9   180.00   9.12112   2 ;     C5-    C7-    N1-    C9
     6      4      2     15      9   180.00  15.16700   2 ;     C6-    C4-    C2-    H2
     6     13     10     24      9     0.00   1.60387   3 ;     C6-    O2-   C10-   H11
     6     13     10     25      9     0.00   1.60387   3 ;     C6-    O2-   C10-   H12
     6     13     10     26      9     0.00   1.60387   3 ;     C6-    O2-   C10-   H13
     7      5      2     15      9   180.00  15.16700   2 ;     C7-    C5-    C2-    H2
     7     11      8     18      9   180.00   0.00000   2 ;     C7-    N1-    C8-    H5
     7     11      8     19      9   180.00   0.00000   2 ;     C7-    N1-    C8-    H6
     7     11      8     20      9   180.00   0.00000   2 ;     C7-    N1-    C8-    H7
     7     11      9     21      9   180.00   0.00000   2 ;     C7-    N1-    C9-    H8
     7     11      9     22      9   180.00   0.00000   2 ;     C7-    N1-    C9-    H9
     7     11      9     23      9   180.00   0.00000   2 ;     C7-    N1-    C9-   H10
     8     11      7     12      9   180.00  10.46000   2 ;     C8-    N1-    C7-    O1
     8     11      9     21      9     0.00   0.00000   0 ;     C8-    N1-    C9-    H8
     8     11      9     22      9     0.00   0.00000   0 ;     C8-    N1-    C9-    H9
     8     11      9     23      9     0.00   0.00000   0 ;     C8-    N1-    C9-   H10
     9     11      7     12      9   180.00  10.46000   2 ;     C9-    N1-    C7-    O1
     9     11      8     18      9     0.00   0.00000   0 ;     C9-    N1-    C8-    H5
     9     11      8     19      9     0.00   0.00000   0 ;     C9-    N1-    C8-    H6
     9     11      8     20      9     0.00   0.00000   0 ;     C9-    N1-    C8-    H7
    13      6      3     16      9   180.00  15.16700   2 ;     O2-    C6-    C3-    H3
    13      6      4     17      9   180.00  15.16700   2 ;     O2-    C6-    C4-    H4
    14      1      3      6      9   180.00  15.16700   2 ;     H1-    C1-    C3-    C6
    14      1      3     16      9   180.00  15.16700   2 ;     H1-    C1-    C3-    H3
    14      1      5      2      9   180.00  15.16700   2 ;     H1-    C1-    C5-    C2
    14      1      5      7      9   180.00  15.16700   2 ;     H1-    C1-    C5-    C7
    15      2      4     17      9   180.00  15.16700   2 ;     H2-    C2-    C4-    H4

[ dihedrals ] ; impropers
; treated as propers in GROMACS to use correct AMBER analytical function
;    i      j      k      l   func   phase     kd      pn
     1      6      3     16      4   180.00   4.60240   2 ;     C1-    C6-    C3-    H3
     2      6      4     17      4   180.00   4.60240   2 ;     C2-    C6-    C4-    H4
     3      4      6     13      4   180.00   4.60240   2 ;     C3-    C4-    C6-    O2
     4      5      2     15      4   180.00   4.60240   2 ;     C4-    C5-    C2-    H2
     5     11      7     12      4   180.00  43.93200   2 ;     C5-    N1-    C7-    O1
     7      1      5      2      4   180.00   4.60240   2 ;     C7-    C1-    C5-    C2
     7      8     11      9      4   180.00   4.60240   2 ;     C7-    C8-    N1-    C9
    14      1      5      3      4   180.00   4.60240   2 ;     H1-    C1-    C5-    C3
