mobley_1755375_GMX.gro created by acpype (v: 2023.10.27) on Thu May 14 13:47:25 2026
 1813
    1MOL     C1    1   1.336   1.321   1.120
    1MOL     C2    2   1.229   1.381   1.187
    1MOL     C3    3   1.441   1.265   1.192
    1MOL     C4    4   1.227   1.384   1.327
    1MOL     C5    5   1.439   1.268   1.332
    1MOL     C6    6   1.332   1.327   1.399
    1MOL     C7    7   1.112   1.448   1.397
    1MOL     C8    8   1.552   1.206   1.407
    1MOL     O1    9   1.330   1.330   1.535
    1MOL     H1   10   1.337   1.319   1.012
    1MOL     H2   11   1.147   1.425   1.130
    1MOL     H3   12   1.523   1.218   1.139
    1MOL     H4   13   1.118   1.429   1.505
    1MOL     H5   14   1.111   1.557   1.381
    1MOL     H6   15   1.016   1.410   1.359
    1MOL     H7   16   1.603   1.282   1.468
    1MOL     H8   17   1.517   1.126   1.474
    1MOL     H9   18   1.626   1.162   1.339
    1MOL    H10   19   1.265   1.396   1.564
    2SOL     OW   20   0.230   0.628   0.113
    2SOL    HW1   21   0.137   0.626   0.150
    2SOL    HW2   22   0.231   0.589   0.021
    3SOL     OW   23   0.225   0.275   0.996
    3SOL    HW1   24   0.260   0.258   1.088
    3SOL    HW2   25   0.137   0.230   0.984
    4SOL     OW   26   0.019   0.368   0.647
    4SOL    HW1   27  -0.063   0.411   0.686
    4SOL    HW2   28  -0.009   0.295   0.584
    5SOL     OW   29   0.569   1.275   1.165
    5SOL    HW1   30   0.476   1.268   1.128
    5SOL    HW2   31   0.580   1.364   1.209
    6SOL     OW   32   1.555   1.511   0.703
    6SOL    HW1   33   1.498   1.495   0.784
    6SOL    HW2   34   1.496   1.521   0.623
    7SOL     OW   35   1.135   0.703   0.717
    7SOL    HW1   36   1.192   0.781   0.692
    7SOL    HW2   37   1.075   0.729   0.793
    8SOL     OW   38   1.755   0.607   0.231
    8SOL    HW1   39   1.743   0.594   0.132
    8SOL    HW2   40   1.725   0.526   0.280
    9SOL     OW   41   0.768   1.144   1.023
    9SOL    HW1   42   0.690   1.161   1.083
    9SOL    HW2   43   0.802   1.231   0.987
   10SOL     OW   44   0.850   0.798   1.823
   10SOL    HW1   45   0.846   0.874   1.888
   10SOL    HW2   46   0.872   0.834   1.732
   11SOL     OW   47   0.685   1.012   0.665
   11SOL    HW1   48   0.754   0.996   0.735
   11SOL    HW2   49   0.612   1.069   0.703
   12SOL     OW   50   0.686   1.161   1.803
   12SOL    HW1   51   0.746   1.240   1.817
   12SOL    HW2   52   0.600   1.192   1.762
   13SOL     OW   53   0.335   1.435   1.061
   13SOL    HW1   54   0.257   1.404   1.008
   13SOL    HW2   55   0.393   1.493   1.004
   14SOL     OW   56   1.460   1.505   1.339
   14SOL    HW1   57   1.484   1.599   1.365
   14SOL    HW2   58   1.444   1.451   1.421
   15SOL     OW   59   0.438   0.392   1.499
   15SOL    HW1   60   0.520   0.336   1.508
   15SOL    HW2   61   0.357   0.334   1.503
   16SOL     OW   62   1.603   0.447   0.737
   16SOL    HW1   63   1.529   0.493   0.687
   16SOL    HW2   64   1.654   0.515   0.790
   17SOL     OW   65   0.231   1.713   0.483
   17SOL    HW1   66   0.265   1.790   0.537
   17SOL    HW2   67   0.275   1.713   0.393
   18SOL     OW   68   1.127   1.341   1.690
   18SOL    HW1   69   1.174   1.341   1.778
   18SOL    HW2   70   1.079   1.254   1.679
   19SOL     OW   71   0.230   1.434   0.538
   19SOL    HW1   72   0.204   1.530   0.538
   19SOL    HW2   73   0.159   1.380   0.583
   20SOL     OW   74   0.240   1.091   0.886
   20SOL    HW1   75   0.254   1.007   0.938
   20SOL    HW2   76   0.185   1.155   0.941
   21SOL     OW   77   0.620   1.786   1.439
   21SOL    HW1   78   0.528   1.769   1.474
   21SOL    HW2   79   0.648   1.878   1.465
   22SOL     OW   80   0.606   0.964   0.123
   22SOL    HW1   81   0.613   1.048   0.069
   22SOL    HW2   82   0.652   0.977   0.211
   23SOL     OW   83   1.594   0.114   1.480
   23SOL    HW1   84   1.576   0.181   1.408
   23SOL    HW2   85   1.591   0.160   1.569
   24SOL     OW   86   0.122   0.643   0.563
   24SOL    HW1   87   0.077   0.555   0.580
   24SOL    HW2   88   0.121   0.697   0.647
   25SOL     OW   89   1.842   1.767   0.359
   25SOL    HW1   90   1.896   1.738   0.439
   25SOL    HW2   91   1.872   1.857   0.330
   26SOL     OW   92   0.027   1.596   0.117
   26SOL    HW1   93   0.008   1.500   0.138
   26SOL    HW2   94  -0.006   1.654   0.192
   27SOL     OW   95   1.689   0.922   0.612
   27SOL    HW1   96   1.784   0.893   0.620
   27SOL    HW2   97   1.681   0.987   0.537
   28SOL     OW   98   1.641   1.108   0.432
   28SOL    HW1   99   1.727   1.110   0.380
   28SOL    HW2  100   1.655   1.155   0.520
   29SOL     OW  101   0.113   0.737   1.597
   29SOL    HW1  102   0.201   0.724   1.642
   29SOL    HW2  103   0.100   0.834   1.575
   30SOL     OW  104   0.613   1.365   0.726
   30SOL    HW1  105   0.564   1.278   0.735
   30SOL    HW2  106   0.590   1.408   0.639
   31SOL     OW  107   0.809   0.004   0.502
   31SOL    HW1  108   0.849   0.095   0.493
   31SOL    HW2  109   0.709   0.012   0.508
   32SOL     OW  110   0.197   0.976   1.264
   32SOL    HW1  111   0.286   0.931   1.250
   32SOL    HW2  112   0.124   0.911   1.245
   33SOL     OW  113   1.525   0.999   0.190
   33SOL    HW1  114   1.462   0.923   0.203
   33SOL    HW2  115   1.573   1.017   0.276
   34SOL     OW  116   1.187   1.792   1.616
   34SOL    HW1  117   1.211   1.852   1.540
   34SOL    HW2  118   1.194   1.697   1.586
   35SOL     OW  119   0.317   0.251   1.801
   35SOL    HW1  120   0.388   0.322   1.807
   35SOL    HW2  121   0.229   0.290   1.829
   36SOL     OW  122   1.667   1.714   0.572
   36SOL    HW1  123   1.626   1.691   0.484
   36SOL    HW2  124   1.649   1.640   0.637
   37SOL     OW  125   0.598   0.729   0.270
   37SOL    HW1  126   0.622   0.798   0.202
   37SOL    HW2  127   0.520   0.762   0.324
   38SOL     OW  128   1.281   0.345   0.944
   38SOL    HW1  129   1.195   0.295   0.931
   38SOL    HW2  130   1.343   0.291   1.000
   39SOL     OW  131   1.576   1.662   0.307
   39SOL    HW1  132   1.665   1.708   0.310
   39SOL    HW2  133   1.555   1.638   0.212
   40SOL     OW  134   0.807   0.605   1.465
   40SOL    HW1  135   0.760   0.602   1.554
   40SOL    HW2  136   0.756   0.550   1.399
   41SOL     OW  137   1.394   0.469   1.674
   41SOL    HW1  138   1.374   0.512   1.762
   41SOL    HW2  139   1.472   0.407   1.683
   42SOL     OW  140   0.973   0.890   1.572
   42SOL    HW1  141   1.019   0.806   1.543
   42SOL    HW2  142   0.917   0.924   1.497
   43SOL     OW  143   0.991   0.410   1.242
   43SOL    HW1  144   0.914   0.444   1.296
   43SOL    HW2  145   0.957   0.359   1.163
   44SOL     OW  146   1.041   0.701   0.429
   44SOL    HW1  147   1.067   0.697   0.525
   44SOL    HW2  148   0.956   0.650   0.415
   45SOL     OW  149   0.076   0.811   0.789
   45SOL    HW1  150   0.175   0.799   0.798
   45SOL    HW2  151   0.052   0.906   0.810
   46SOL     OW  152   0.130   1.821   1.571
   46SOL    HW1  153   0.120   1.806   1.670
   46SOL    HW2  154   0.044   1.857   1.535
   47SOL     OW  155   0.865   0.348   0.195
   47SOL    HW1  156   0.924   0.411   0.146
   47SOL    HW2  157   0.884   0.254   0.166
   48SOL     OW  158   1.719   0.585   1.831
   48SOL    HW1  159   1.693   0.674   1.795
   48SOL    HW2  160   1.717   0.517   1.758
   49SOL     OW  161   1.362   1.144   0.545
   49SOL    HW1  162   1.445   1.115   0.497
   49SOL    HW2  163   1.313   1.211   0.489
   50SOL     OW  164   0.550   0.196   0.885
   50SOL    HW1  165   0.545   0.191   0.985
   50SOL    HW2  166   0.552   0.292   0.856
   51SOL     OW  167   1.008   1.456   0.477
   51SOL    HW1  168   0.962   1.528   0.425
   51SOL    HW2  169   1.004   1.476   0.575
   52SOL     OW  170   0.351   1.801   0.853
   52SOL    HW1  171   0.401   1.715   0.859
   52SOL    HW2  172   0.416   1.878   0.850
   53SOL     OW  173   1.795   1.066   0.873
   53SOL    HW1  174   1.733   1.051   0.797
   53SOL    HW2  175   1.743   1.077   0.958
   54SOL     OW  176   0.321   0.943   0.242
   54SOL    HW1  177   0.403   0.982   0.200
   54SOL    HW2  178   0.294   0.861   0.193
   55SOL     OW  179   1.458   0.735   0.728
   55SOL    HW1  180   1.453   0.670   0.803
   55SOL    HW2  181   1.538   0.794   0.741
   56SOL     OW  182   0.461   1.266   1.727
   56SOL    HW1  183   0.411   1.267   1.641
   56SOL    HW2  184   0.398   1.248   1.803
   57SOL     OW  185   1.111   1.776   0.237
   57SOL    HW1  186   1.051   1.714   0.287
   57SOL    HW2  187   1.142   1.732   0.152
   58SOL     OW  188   0.202   0.285   1.498
   58SOL    HW1  189   0.122   0.345   1.485
   58SOL    HW2  190   0.192   0.236   1.584
   59SOL     OW  191   1.632   1.377   0.081
   59SOL    HW1  192   1.600   1.471   0.071
   59SOL    HW2  193   1.556   1.314   0.069
   60SOL     OW  194   0.464   1.743   0.323
   60SOL    HW1  195   0.497   1.782   0.409
   60SOL    HW2  196   0.540   1.736   0.258
   61SOL     OW  197   1.400   0.107   0.426
   61SOL    HW1  198   1.376   0.070   0.336
   61SOL    HW2  199   1.499   0.123   0.430
   62SOL     OW  200   0.249   1.785   1.241
   62SOL    HW1  201   0.306   1.720   1.291
   62SOL    HW2  202   0.233   1.752   1.148
   63SOL     OW  203   0.940   1.698   0.904
   63SOL    HW1  204   1.020   1.641   0.925
   63SOL    HW2  205   0.891   1.658   0.827
   64SOL     OW  206   0.382   0.700   0.480
   64SOL    HW1  207   0.427   0.610   0.477
   64SOL    HW2  208   0.288   0.689   0.513
   65SOL     OW  209   1.547   0.222   1.729
   65SOL    HW1  210   1.542   0.259   1.821
   65SOL    HW2  211   1.475   0.153   1.717
   66SOL     OW  212   0.614   0.122   0.117
   66SOL    HW1  213   0.712   0.100   0.124
   66SOL    HW2  214   0.583   0.105   0.024
   67SOL     OW  215   0.781   0.264   1.749
   67SOL    HW1  216   0.848   0.203   1.792
   67SOL    HW2  217   0.708   0.283   1.814
   68SOL     OW  218   0.888   1.514   1.195
   68SOL    HW1  219   0.865   1.489   1.101
   68SOL    HW2  220   0.949   1.445   1.234
   69SOL     OW  221   1.351   0.590   1.433
   69SOL    HW1  222   1.379   0.547   1.518
   69SOL    HW2  223   1.376   0.686   1.434
   70SOL     OW  224   0.803   1.402   0.924
   70SOL    HW1  225   0.893   1.416   0.882
   70SOL    HW2  226   0.732   1.404   0.853
   71SOL     OW  227   0.922   0.503   0.899
   71SOL    HW1  228   0.897   0.494   0.803
   71SOL    HW2  229   0.970   0.421   0.930
   72SOL     OW  230   0.539   0.064   0.512
   72SOL    HW1  231   0.458   0.065   0.570
   72SOL    HW2  232   0.542   0.147   0.457
   73SOL     OW  233   1.434   1.188   0.041
   73SOL    HW1  234   1.466   1.112   0.098
   73SOL    HW2  235   1.342   1.215   0.071
   74SOL     OW  236   0.297   0.035   0.171
   74SOL    HW1  237   0.346   0.119   0.150
   74SOL    HW2  238   0.359  -0.030   0.216
   75SOL     OW  239   0.935   0.236   0.480
   75SOL    HW1  240   0.887   0.277   0.402
   75SOL    HW2  241   1.034   0.234   0.461
   76SOL     OW  242   1.076   0.683   1.464
   76SOL    HW1  243   0.996   0.622   1.467
   76SOL    HW2  244   1.157   0.630   1.440
   77SOL     OW  245   1.227   1.570   0.793
   77SOL    HW1  246   1.248   1.644   0.728
   77SOL    HW2  247   1.295   1.570   0.866
   78SOL     OW  248   0.459   1.152   0.741
   78SOL    HW1  249   0.388   1.125   0.806
   78SOL    HW2  250   0.433   1.124   0.648
   79SOL     OW  251   1.271   1.797   0.591
   79SOL    HW1  252   1.315   1.861   0.527
   79SOL    HW2  253   1.221   1.849   0.661
   80SOL     OW  254   1.032   0.549   0.016
   80SOL    HW1  255   0.991   0.631  -0.023
   80SOL    HW2  256   1.096   0.575   0.089
   81SOL     OW  257   0.078   0.556   1.386
   81SOL    HW1  258   0.170   0.555   1.345
   81SOL    HW2  259   0.072   0.630   1.453
   82SOL     OW  260   0.561   0.222   1.147
   82SOL    HW1  261   0.599   0.138   1.184
   82SOL    HW2  262   0.473   0.241   1.191
   83SOL     OW  263   0.866   0.454   0.642
   83SOL    HW1  264   0.834   0.526   0.580
   83SOL    HW2  265   0.890   0.373   0.589
   84SOL     OW  266   1.017   0.039   0.753
   84SOL    HW1  267   0.945   0.044   0.684
   84SOL    HW2  268   0.993  -0.030   0.822
   85SOL     OW  269   1.429   1.173   0.867
   85SOL    HW1  270   1.374   1.089   0.860
   85SOL    HW2  271   1.455   1.202   0.775
   86SOL     OW  272   1.466   0.590   0.992
   86SOL    HW1  273   1.436   0.495   0.999
   86SOL    HW2  274   1.539   0.606   1.058
   87SOL     OW  275   1.857   0.833   0.377
   87SOL    HW1  276   1.899   0.769   0.441
   87SOL    HW2  277   1.819   0.782   0.299
   88SOL     OW  278   0.488   1.385   0.174
   88SOL    HW1  279   0.401   1.370   0.221
   88SOL    HW2  280   0.471   1.411   0.079
   89SOL     OW  281   1.664   1.280   0.657
   89SOL    HW1  282   1.763   1.288   0.671
   89SOL    HW2  283   1.619   1.364   0.688
   90SOL     OW  284   1.390   0.575   0.078
   90SOL    HW1  285   1.336   0.554   0.159
   90SOL    HW2  286   1.481   0.534   0.087
   91SOL     OW  287   0.527   0.256   0.328
   91SOL    HW1  288   0.554   0.197   0.253
   91SOL    HW2  289   0.527   0.351   0.297
   92SOL     OW  290   1.754   1.223   1.588
   92SOL    HW1  291   1.845   1.184   1.575
   92SOL    HW2  292   1.762   1.319   1.612
   93SOL     OW  293   1.592   1.629   1.625
   93SOL    HW1  294   1.619   1.663   1.535
   93SOL    HW2  295   1.671   1.591   1.671
   94SOL     OW  296   1.111   1.195   1.100
   94SOL    HW1  297   1.071   1.239   1.181
   94SOL    HW2  298   1.070   1.232   1.017
   95SOL     OW  299   0.915   0.089   1.402
   95SOL    HW1  300   0.940   0.069   1.307
   95SOL    HW2  301   0.987   0.145   1.444
   96SOL     OW  302   0.980   1.116   1.719
   96SOL    HW1  303   0.881   1.122   1.729
   96SOL    HW2  304   1.003   1.036   1.663
   97SOL     OW  305   0.705   1.050   0.368
   97SOL    HW1  306   0.691   1.057   0.467
   97SOL    HW2  307   0.789   0.999   0.350
   98SOL     OW  308   0.410   0.813   1.251
   98SOL    HW1  309   0.496   0.825   1.301
   98SOL    HW2  310   0.368   0.726   1.278
   99SOL     OW  311   1.274   0.386   1.262
   99SOL    HW1  312   1.295   0.460   1.326
   99SOL    HW2  313   1.185   0.403   1.219
  100SOL     OW  314   0.064   1.564   1.331
  100SOL    HW1  315   0.018   1.646   1.297
  100SOL    HW2  316   0.162   1.583   1.340
  101SOL     OW  317   0.367   1.100   0.501
  101SOL    HW1  318   0.360   1.183   0.445
  101SOL    HW2  319   0.371   1.020   0.441
  102SOL     OW  320   0.566   0.537   0.865
  102SOL    HW1  321   0.578   0.603   0.791
  102SOL    HW2  322   0.612   0.571   0.948
  103SOL     OW  323   1.252   1.348   0.388
  103SOL    HW1  324   1.302   1.425   0.428
  103SOL    HW2  325   1.157   1.350   0.420
  104SOL     OW  326   1.582   0.639   0.472
  104SOL    HW1  327   1.551   0.700   0.545
  104SOL    HW2  328   1.632   0.691   0.403
  105SOL     OW  329   0.354   1.510   1.329
  105SOL    HW1  330   0.333   1.466   1.242
  105SOL    HW2  331   0.451   1.536   1.332
  106SOL     OW  332   0.402   0.751   1.598
  106SOL    HW1  333   0.470   0.806   1.551
  106SOL    HW2  334   0.442   0.663   1.625
  107SOL     OW  335   1.587   0.779   1.670
  107SOL    HW1  336   1.495   0.817   1.665
  107SOL    HW2  337   1.647   0.826   1.605
  108SOL     OW  338   1.013   0.105   1.770
  108SOL    HW1  339   1.019   0.190   1.718
  108SOL    HW2  340   1.045   0.029   1.713
  109SOL     OW  341   0.504   0.050   1.740
  109SOL    HW1  342   0.462  -0.007   1.670
  109SOL    HW2  343   0.438   0.119   1.772
  110SOL     OW  344   0.573   0.870   1.029
  110SOL    HW1  345   0.617   0.959   1.020
  110SOL    HW2  346   0.510   0.870   1.106
  111SOL     OW  347   1.360   0.862   1.045
  111SOL    HW1  348   1.285   0.862   0.979
  111SOL    HW2  349   1.397   0.770   1.054
  112SOL     OW  350   1.209   0.525   0.275
  112SOL    HW1  351   1.222   0.441   0.329
  112SOL    HW2  352   1.180   0.599   0.335
  113SOL     OW  353   0.307   0.213   1.231
  113SOL    HW1  354   0.284   0.250   1.321
  113SOL    HW2  355   0.277   0.118   1.225
  114SOL     OW  356   0.037   1.310   1.282
  114SOL    HW1  357   0.090   1.261   1.350
  114SOL    HW2  358   0.059   1.408   1.287
  115SOL     OW  359   0.732   0.634   1.064
  115SOL    HW1  360   0.791   0.608   0.988
  115SOL    HW2  361   0.704   0.730   1.053
  116SOL     OW  362   1.728   0.935   1.854
  116SOL    HW1  363   1.682   0.928   1.765
  116SOL    HW2  364   1.666   0.979   1.920
  117SOL     OW  365   0.307   0.063   0.618
  117SOL    HW1  366   0.296   0.157   0.651
  117SOL    HW2  367   0.302   0.000   0.695
  118SOL     OW  368   1.622   0.367   0.374
  118SOL    HW1  369   1.624   0.291   0.438
  118SOL    HW2  370   1.574   0.444   0.414
  119SOL     OW  371   1.023   0.766   0.966
  119SOL    HW1  372   1.038   0.787   1.062
  119SOL    HW2  373   0.993   0.671   0.957
  120SOL     OW  374   0.980   1.573   1.700
  120SOL    HW1  375   0.960   1.617   1.612
  120SOL    HW2  376   1.019   1.482   1.684
  121SOL     OW  377   1.859   1.518   1.605
  121SOL    HW1  378   1.873   1.545   1.510
  121SOL    HW2  379   1.942   1.540   1.658
  122SOL     OW  380   0.350   0.898   1.804
  122SOL    HW1  381   0.426   0.942   1.852
  122SOL    HW2  382   0.385   0.851   1.722
  123SOL     OW  383   1.540   0.274   0.125
  123SOL    HW1  384   1.479   0.199   0.148
  123SOL    HW2  385   1.562   0.326   0.208
  124SOL     OW  386   1.303   0.838   0.042
  124SOL    HW1  387   1.337   0.745   0.057
  124SOL    HW2  388   1.321   0.865  -0.053
  125SOL     OW  389   1.068   1.333   0.849
  125SOL    HW1  390   1.075   1.249   0.794
  125SOL    HW2  391   1.130   1.402   0.813
  126SOL     OW  392   0.319   0.810   0.949
  126SOL    HW1  393   0.412   0.846   0.954
  126SOL    HW2  394   0.313   0.725   1.001
  127SOL     OW  395   0.339   0.509   1.006
  127SOL    HW1  396   0.287   0.426   0.989
  127SOL    HW2  397   0.416   0.514   0.942
  128SOL     OW  398   1.138   0.380   1.678
  128SOL    HW1  399   1.093   0.443   1.742
  128SOL    HW2  400   1.231   0.411   1.661
  129SOL     OW  401   1.160   0.207   1.477
  129SOL    HW1  402   1.160   0.271   1.554
  129SOL    HW2  403   1.188   0.255   1.394
  130SOL     OW  404   0.008   1.326   0.200
  130SOL    HW1  405  -0.085   1.347   0.169
  130SOL    HW2  406   0.018   1.227   0.213
  131SOL     OW  407   0.088   1.801   0.927
  131SOL    HW1  408   0.046   1.715   0.900
  131SOL    HW2  409   0.182   1.804   0.893
  132SOL     OW  410   0.504   1.568   0.910
  132SOL    HW1  411   0.570   1.642   0.919
  132SOL    HW2  412   0.548   1.489   0.868
  133SOL     OW  413   1.002   0.796   1.238
  133SOL    HW1  414   1.043   0.764   1.324
  133SOL    HW2  415   0.906   0.769   1.235
  134SOL     OW  416   0.040   0.544   1.114
  134SOL    HW1  417   0.125   0.511   1.073
  134SOL    HW2  418   0.053   0.559   1.212
  135SOL     OW  419   0.189   0.520   1.722
  135SOL    HW1  420   0.248   0.480   1.652
  135SOL    HW2  421   0.131   0.591   1.681
  136SOL     OW  422   1.369   0.950   1.660
  136SOL    HW1  423   1.408   1.039   1.680
  136SOL    HW2  424   1.379   0.930   1.563
  137SOL     OW  425   0.815   0.572   0.325
  137SOL    HW1  426   0.822   0.483   0.279
  137SOL    HW2  427   0.721   0.606   0.317
  138SOL     OW  428   1.657   0.604   1.206
  138SOL    HW1  429   1.619   0.535   1.268
  138SOL    HW2  430   1.739   0.568   1.162
  139SOL     OW  431   0.252   1.564   1.744
  139SOL    HW1  432   0.222   1.621   1.820
  139SOL    HW2  433   0.245   1.467   1.770
  140SOL     OW  434   0.671   0.464   1.269
  140SOL    HW1  435   0.637   0.375   1.239
  140SOL    HW2  436   0.697   0.518   1.189
  141SOL     OW  437   0.930   1.678   1.465
  141SOL    HW1  438   0.906   1.660   1.370
  141SOL    HW2  439   0.960   1.772   1.475
  142SOL     OW  440   0.473   0.500   0.191
  142SOL    HW1  441   0.534   0.580   0.195
  142SOL    HW2  442   0.378   0.531   0.198
  143SOL     OW  443   0.159   1.137   1.466
  143SOL    HW1  444   0.181   1.076   1.542
  143SOL    HW2  445   0.169   1.088   1.380
  144SOL     OW  446   1.347   1.059   1.234
  144SOL    HW1  447   1.371   0.996   1.160
  144SOL    HW2  448   1.257   1.099   1.216
  145SOL     OW  449   1.302   0.855   0.309
  145SOL    HW1  450   1.216   0.824   0.351
  145SOL    HW2  451   1.298   0.841   0.210
  146SOL     OW  452   1.759   1.747   1.154
  146SOL    HW1  453   1.820   1.777   1.081
  146SOL    HW2  454   1.721   1.658   1.132
  147SOL     OW  455   1.252   1.731   1.128
  147SOL    HW1  456   1.336   1.736   1.074
  147SOL    HW2  457   1.229   1.635   1.146
  148SOL     OW  458   0.083   1.258   1.022
  148SOL    HW1  459   0.078   1.257   1.122
  148SOL    HW2  460   0.000   1.217   0.984
  149SOL     OW  461   0.688   1.662   1.716
  149SOL    HW1  462   0.632   1.743   1.725
  149SOL    HW2  463   0.740   1.666   1.630
  150SOL     OW  464   0.903   0.086   0.133
  150SOL    HW1  465   0.954   0.087   0.047
  150SOL    HW2  466   0.959   0.044   0.204
  151SOL     OW  467   1.726   0.135   0.523
  151SOL    HW1  468   1.799   0.118   0.456
  151SOL    HW2  469   1.695   0.048   0.561
  152SOL     OW  470   1.388   1.573   0.477
  152SOL    HW1  471   1.455   1.585   0.403
  152SOL    HW2  472   1.348   1.662   0.500
  153SOL     OW  473   0.130   1.794   1.851
  153SOL    HW1  474   0.089   1.720   1.904
  153SOL    HW2  475   0.194   1.845   1.909
  154SOL     OW  476   1.280   0.927   0.672
  154SOL    HW1  477   1.340   0.846   0.674
  154SOL    HW2  478   1.320   0.996   0.612
  155SOL     OW  479   0.830   1.273   1.422
  155SOL    HW1  480   0.825   1.306   1.517
  155SOL    HW2  481   0.744   1.292   1.376
  156SOL     OW  482   0.672   1.616   0.154
  156SOL    HW1  483   0.681   1.626   0.055
  156SOL    HW2  484   0.632   1.527   0.175
  157SOL     OW  485   1.650   1.720   1.394
  157SOL    HW1  486   1.703   1.730   1.310
  157SOL    HW2  487   1.623   1.810   1.428
  158SOL     OW  488   1.841   0.175   0.963
  158SOL    HW1  489   1.880   0.090   0.927
  158SOL    HW2  490   1.743   0.177   0.944
  159SOL     OW  491   0.263   0.326   0.720
  159SOL    HW1  492   0.184   0.377   0.686
  159SOL    HW2  493   0.254   0.311   0.818
  160SOL     OW  494   1.194   1.612   0.031
  160SOL    HW1  495   1.200   1.519   0.068
  160SOL    HW2  496   1.135   1.612  -0.049
  161SOL     OW  497   0.822   1.002   1.372
  161SOL    HW1  498   0.862   1.001   1.280
  161SOL    HW2  499   0.832   1.094   1.412
  162SOL     OW  500   0.916   0.910   0.291
  162SOL    HW1  501   0.979   0.948   0.223
  162SOL    HW2  502   0.956   0.827   0.330
  163SOL     OW  503   1.504   1.607   0.044
  163SOL    HW1  504   1.412   1.644   0.051
  163SOL    HW2  505   1.542   1.627  -0.046
  164SOL     OW  506   0.372   1.288   1.490
  164SOL    HW1  507   0.359   1.381   1.456
  164SOL    HW2  508   0.288   1.236   1.477
  165SOL     OW  509   1.039   1.098   0.696
  165SOL    HW1  510   0.969   1.051   0.750
  165SOL    HW2  511   1.098   1.030   0.653
  166SOL     OW  512   1.014   0.236   0.971
  166SOL    HW1  513   1.006   0.200   0.878
  166SOL    HW2  514   1.012   0.160   1.036
  167SOL     OW  515   0.590   1.487   0.491
  167SOL    HW1  516   0.632   1.429   0.421
  167SOL    HW2  517   0.546   1.566   0.447
  168SOL     OW  518   1.709   0.385   1.381
  168SOL    HW1  519   1.782   0.454   1.385
  168SOL    HW2  520   1.737   0.310   1.322
  169SOL     OW  521   0.255   1.348   0.290
  169SOL    HW1  522   0.159   1.349   0.263
  169SOL    HW2  523   0.267   1.401   0.374
  170SOL     OW  524   0.105   1.013   1.726
  170SOL    HW1  525   0.028   0.980   1.780
  170SOL    HW2  526   0.190   0.983   1.768
  171SOL     OW  527   0.672   0.203   1.489
  171SOL    HW1  528   0.762   0.187   1.449
  171SOL    HW2  529   0.680   0.208   1.588
  172SOL     OW  530   0.075   0.345   0.033
  172SOL    HW1  531  -0.017   0.317   0.004
  172SOL    HW2  532   0.106   0.422  -0.023
  173SOL     OW  533   1.440   0.856   1.398
  173SOL    HW1  534   1.383   0.908   1.335
  173SOL    HW2  535   1.536   0.868   1.374
  174SOL     OW  536   0.072   0.166   0.318
  174SOL    HW1  537   0.055   0.249   0.264
  174SOL    HW2  538   0.162   0.129   0.296
  175SOL     OW  539   1.183   1.335   0.119
  175SOL    HW1  540   1.084   1.324   0.121
  175SOL    HW2  541   1.217   1.350   0.212
  176SOL     OW  542   0.613   0.842   1.431
  176SOL    HW1  543   0.669   0.923   1.414
  176SOL    HW2  544   0.672   0.762   1.434
  177SOL     OW  545   1.493   1.767   0.959
  177SOL    HW1  546   1.526   1.831   0.890
  177SOL    HW2  547   1.559   1.761   1.034
  178SOL     OW  548   0.716   0.565   1.708
  178SOL    HW1  549   0.735   0.630   1.782
  178SOL    HW2  550   0.776   0.485   1.717
  179SOL     OW  551   1.450   1.220   1.633
  179SOL    HW1  552   1.441   1.210   1.732
  179SOL    HW2  553   1.546   1.213   1.607
  180SOL     OW  554   0.390   1.741   1.560
  180SOL    HW1  555   0.299   1.782   1.558
  180SOL    HW2  556   0.383   1.647   1.592
  181SOL     OW  557   1.674   0.883   1.254
  181SOL    HW1  558   1.647   0.794   1.217
  181SOL    HW2  559   1.675   0.951   1.181
  182SOL     OW  560   1.225   0.325   0.449
  182SOL    HW1  561   1.290   0.251   0.438
  182SOL    HW2  562   1.245   0.375   0.533
  183SOL     OW  563   0.594   0.745   0.652
  183SOL    HW1  564   0.644   0.830   0.633
  183SOL    HW2  565   0.506   0.747   0.604
  184SOL     OW  566   1.777   0.342   1.642
  184SOL    HW1  567   1.760   0.373   1.548
  184SOL    HW2  568   1.693   0.305   1.680
  185SOL     OW  569   1.730   0.934   1.517
  185SOL    HW1  570   1.768   1.025   1.532
  185SOL    HW2  571   1.722   0.917   1.418
  186SOL     OW  572   0.859   1.374   0.016
  186SOL    HW1  573   0.813   1.389   0.104
  186SOL    HW2  574   0.903   1.459  -0.014
  187SOL     OW  575   0.661   1.790   0.953
  187SOL    HW1  576   0.615   1.878   0.940
  187SOL    HW2  577   0.760   1.802   0.946
  188SOL     OW  578   0.859   0.956   0.861
  188SOL    HW1  579   0.913   0.887   0.909
  188SOL    HW2  580   0.827   1.025   0.927
  189SOL     OW  581   1.083   0.984   0.087
  189SOL    HW1  582   1.060   1.037   0.005
  189SOL    HW2  583   1.164   0.928   0.068
  190SOL     OW  584   1.861   1.569   0.851
  190SOL    HW1  585   1.790   1.557   0.781
  190SOL    HW2  586   1.862   1.490   0.911
  191SOL     OW  587   0.221   1.314   1.844
  191SOL    HW1  588   0.156   1.241   1.823
  191SOL    HW2  589   0.225   1.328   1.942
  192SOL     OW  590   0.079   1.240   0.653
  192SOL    HW1  591   0.078   1.193   0.741
  192SOL    HW2  592   0.161   1.212   0.602
  193SOL     OW  593   0.672   1.391   1.624
  193SOL    HW1  594   0.594   1.341   1.662
  193SOL    HW2  595   0.669   1.486   1.655
  194SOL     OW  596   1.824   0.192   1.227
  194SOL    HW1  597   1.820   0.102   1.271
  194SOL    HW2  598   1.827   0.181   1.128
  195SOL     OW  599   0.428   0.424   0.520
  195SOL    HW1  600   0.458   0.352   0.458
  195SOL    HW2  601   0.389   0.384   0.603
  196SOL     OW  602   1.705   1.487   1.104
  196SOL    HW1  603   1.612   1.462   1.077
  196SOL    HW2  604   1.731   1.437   1.186
  197SOL     OW  605   0.317   0.547   1.280
  197SOL    HW1  606   0.355   0.488   1.352
  197SOL    HW2  607   0.357   0.521   1.192
  198SOL     OW  608   0.812   1.586   0.687
  198SOL    HW1  609   0.844   1.596   0.593
  198SOL    HW2  610   0.733   1.524   0.689
  199SOL     OW  611   1.424   0.214   1.112
  199SOL    HW1  612   1.476   0.149   1.167
  199SOL    HW2  613   1.375   0.277   1.173
  200SOL     OW  614   1.001   0.034   1.154
  200SOL    HW1  615   0.938  -0.038   1.123
  200SOL    HW2  616   1.094  -0.002   1.154
  201SOL     OW  617   0.770   1.330   0.301
  201SOL    HW1  618   0.724   1.243   0.318
  201SOL    HW2  619   0.861   1.327   0.342
  202SOL     OW  620   0.618   1.567   1.284
  202SOL    HW1  621   0.613   1.649   1.341
  202SOL    HW2  622   0.707   1.564   1.239
  203SOL     OW  623   1.352   0.052   0.168
  203SOL    HW1  624   1.387   0.011   0.084
  203SOL    HW2  625   1.262   0.014   0.188
  204SOL     OW  626   1.300   0.453   0.691
  204SOL    HW1  627   1.241   0.533   0.695
  204SOL    HW2  628   1.315   0.418   0.784
  205SOL     OW  629   1.593   0.221   0.882
  205SOL    HW1  630   1.509   0.220   0.936
  205SOL    HW2  631   1.595   0.304   0.826
  206SOL     OW  632   0.039   1.077   0.300
  206SOL    HW1  633   0.138   1.066   0.291
  206SOL    HW2  634  -0.001   0.991   0.332
  207SOL     OW  635   0.875   1.646   0.337
  207SOL    HW1  636   0.798   1.611   0.283
  207SOL    HW2  637   0.843   1.717   0.399
  208SOL     OW  638   0.230   0.628   1.975
  208SOL    HW1  639   0.137   0.626   2.012
  208SOL    HW2  640   0.231   0.589   1.883
  209SOL     OW  641   0.019   0.368   2.509
  209SOL    HW1  642  -0.063   0.411   2.548
  209SOL    HW2  643  -0.009   0.295   2.446
  210SOL     OW  644   1.755   0.607   2.093
  210SOL    HW1  645   1.743   0.594   1.994
  210SOL    HW2  646   1.725   0.526   2.142
  211SOL     OW  647   0.685   1.012   2.527
  211SOL    HW1  648   0.754   0.996   2.597
  211SOL    HW2  649   0.612   1.069   2.565
  212SOL     OW  650   1.603   0.447   2.599
  212SOL    HW1  651   1.529   0.493   2.549
  212SOL    HW2  652   1.654   0.515   2.652
  213SOL     OW  653   0.231   1.713   2.345
  213SOL    HW1  654   0.265   1.790   2.399
  213SOL    HW2  655   0.275   1.713   2.255
  214SOL     OW  656   0.230   1.434   2.400
  214SOL    HW1  657   0.204   1.530   2.400
  214SOL    HW2  658   0.159   1.380   2.445
  215SOL     OW  659   0.606   0.964   1.985
  215SOL    HW1  660   0.613   1.048   1.931
  215SOL    HW2  661   0.652   0.977   2.073
  216SOL     OW  662   0.122   0.643   2.425
  216SOL    HW1  663   0.077   0.555   2.442
  216SOL    HW2  664   0.121   0.697   2.509
  217SOL     OW  665   1.842   1.767   2.221
  217SOL    HW1  666   1.896   1.738   2.301
  217SOL    HW2  667   1.872   1.857   2.192
  218SOL     OW  668   0.027   1.596   1.979
  218SOL    HW1  669   0.008   1.500   2.000
  218SOL    HW2  670  -0.006   1.654   2.054
  219SOL     OW  671   1.689   0.922   2.474
  219SOL    HW1  672   1.784   0.893   2.482
  219SOL    HW2  673   1.681   0.987   2.399
  220SOL     OW  674   1.641   1.108   2.294
  220SOL    HW1  675   1.727   1.110   2.242
  220SOL    HW2  676   1.655   1.155   2.382
  221SOL     OW  677   0.613   1.365   2.588
  221SOL    HW1  678   0.564   1.278   2.597
  221SOL    HW2  679   0.590   1.408   2.501
  222SOL     OW  680   0.809   0.004   2.364
  222SOL    HW1  681   0.849   0.095   2.355
  222SOL    HW2  682   0.709   0.012   2.370
  223SOL     OW  683   1.525   0.999   2.052
  223SOL    HW1  684   1.462   0.923   2.065
  223SOL    HW2  685   1.573   1.017   2.138
  224SOL     OW  686   1.667   1.714   2.434
  224SOL    HW1  687   1.626   1.691   2.346
  224SOL    HW2  688   1.649   1.640   2.499
  225SOL     OW  689   0.598   0.729   2.132
  225SOL    HW1  690   0.622   0.798   2.064
  225SOL    HW2  691   0.520   0.762   2.186
  226SOL     OW  692   1.281   0.345   2.806
  226SOL    HW1  693   1.195   0.295   2.793
  226SOL    HW2  694   1.343   0.291   2.862
  227SOL     OW  695   1.576   1.662   2.169
  227SOL    HW1  696   1.665   1.708   2.172
  227SOL    HW2  697   1.555   1.638   2.074
  228SOL     OW  698   1.041   0.701   2.291
  228SOL    HW1  699   1.067   0.697   2.387
  228SOL    HW2  700   0.956   0.650   2.277
  229SOL     OW  701   0.076   0.811   2.651
  229SOL    HW1  702   0.175   0.799   2.660
  229SOL    HW2  703   0.052   0.906   2.672
  230SOL     OW  704   0.865   0.348   2.057
  230SOL    HW1  705   0.924   0.411   2.008
  230SOL    HW2  706   0.884   0.254   2.028
  231SOL     OW  707   1.362   1.144   2.407
  231SOL    HW1  708   1.445   1.115   2.359
  231SOL    HW2  709   1.313   1.211   2.351
  232SOL     OW  710   1.008   1.456   2.339
  232SOL    HW1  711   0.962   1.528   2.287
  232SOL    HW2  712   1.004   1.476   2.437
  233SOL     OW  713   0.351   1.801   2.715
  233SOL    HW1  714   0.401   1.715   2.721
  233SOL    HW2  715   0.416   1.878   2.712
  234SOL     OW  716   1.795   1.066   2.735
  234SOL    HW1  717   1.733   1.051   2.659
  234SOL    HW2  718   1.743   1.077   2.820
  235SOL     OW  719   0.321   0.943   2.104
  235SOL    HW1  720   0.403   0.982   2.062
  235SOL    HW2  721   0.294   0.861   2.055
  236SOL     OW  722   1.111   1.776   2.099
  236SOL    HW1  723   1.051   1.714   2.149
  236SOL    HW2  724   1.142   1.732   2.014
  237SOL     OW  725   1.632   1.377   1.943
  237SOL    HW1  726   1.600   1.471   1.933
  237SOL    HW2  727   1.556   1.314   1.931
  238SOL     OW  728   0.464   1.743   2.185
  238SOL    HW1  729   0.497   1.782   2.271
  238SOL    HW2  730   0.540   1.736   2.120
  239SOL     OW  731   1.400   0.107   2.288
  239SOL    HW1  732   1.376   0.070   2.198
  239SOL    HW2  733   1.499   0.123   2.292
  240SOL     OW  734   0.940   1.698   2.766
  240SOL    HW1  735   1.020   1.641   2.787
  240SOL    HW2  736   0.891   1.658   2.689
  241SOL     OW  737   0.382   0.700   2.342
  241SOL    HW1  738   0.427   0.610   2.339
  241SOL    HW2  739   0.288   0.689   2.375
  242SOL     OW  740   0.614   0.122   1.979
  242SOL    HW1  741   0.712   0.100   1.986
  242SOL    HW2  742   0.583   0.105   1.886
  243SOL     OW  743   0.539   0.064   2.374
  243SOL    HW1  744   0.458   0.065   2.432
  243SOL    HW2  745   0.542   0.147   2.319
  244SOL     OW  746   1.434   1.188   1.903
  244SOL    HW1  747   1.466   1.112   1.960
  244SOL    HW2  748   1.342   1.215   1.933
  245SOL     OW  749   0.297   0.035   2.033
  245SOL    HW1  750   0.346   0.119   2.012
  245SOL    HW2  751   0.359  -0.030   2.078
  246SOL     OW  752   0.935   0.236   2.342
  246SOL    HW1  753   0.887   0.277   2.264
  246SOL    HW2  754   1.034   0.234   2.323
  247SOL     OW  755   0.459   1.152   2.603
  247SOL    HW1  756   0.388   1.125   2.668
  247SOL    HW2  757   0.433   1.124   2.510
  248SOL     OW  758   1.271   1.797   2.453
  248SOL    HW1  759   1.315   1.861   2.389
  248SOL    HW2  760   1.221   1.849   2.523
  249SOL     OW  761   1.032   0.549   1.878
  249SOL    HW1  762   0.991   0.631   1.839
  249SOL    HW2  763   1.096   0.575   1.951
  250SOL     OW  764   0.866   0.454   2.504
  250SOL    HW1  765   0.834   0.526   2.442
  250SOL    HW2  766   0.890   0.373   2.451
  251SOL     OW  767   1.857   0.833   2.239
  251SOL    HW1  768   1.899   0.769   2.303
  251SOL    HW2  769   1.819   0.782   2.161
  252SOL     OW  770   0.488   1.385   2.036
  252SOL    HW1  771   0.401   1.370   2.083
  252SOL    HW2  772   0.471   1.411   1.941
  253SOL     OW  773   1.664   1.280   2.519
  253SOL    HW1  774   1.763   1.288   2.533
  253SOL    HW2  775   1.619   1.364   2.550
  254SOL     OW  776   1.390   0.575   1.940
  254SOL    HW1  777   1.336   0.554   2.021
  254SOL    HW2  778   1.481   0.534   1.949
  255SOL     OW  779   0.527   0.256   2.190
  255SOL    HW1  780   0.554   0.197   2.115
  255SOL    HW2  781   0.527   0.351   2.159
  256SOL     OW  782   0.705   1.050   2.230
  256SOL    HW1  783   0.691   1.057   2.329
  256SOL    HW2  784   0.789   0.999   2.212
  257SOL     OW  785   0.367   1.100   2.363
  257SOL    HW1  786   0.360   1.183   2.307
  257SOL    HW2  787   0.371   1.020   2.303
  258SOL     OW  788   1.252   1.348   2.250
  258SOL    HW1  789   1.302   1.425   2.290
  258SOL    HW2  790   1.157   1.350   2.282
  259SOL     OW  791   1.582   0.639   2.334
  259SOL    HW1  792   1.551   0.700   2.407
  259SOL    HW2  793   1.632   0.691   2.265
  260SOL     OW  794   1.209   0.525   2.137
  260SOL    HW1  795   1.222   0.441   2.191
  260SOL    HW2  796   1.180   0.599   2.197
  261SOL     OW  797   0.307   0.063   2.480
  261SOL    HW1  798   0.296   0.157   2.513
  261SOL    HW2  799   0.302   0.000   2.557
  262SOL     OW  800   1.622   0.367   2.236
  262SOL    HW1  801   1.624   0.291   2.300
  262SOL    HW2  802   1.574   0.444   2.276
  263SOL     OW  803   1.540   0.274   1.987
  263SOL    HW1  804   1.479   0.199   2.010
  263SOL    HW2  805   1.562   0.326   2.070
  264SOL     OW  806   1.303   0.838   1.904
  264SOL    HW1  807   1.337   0.745   1.919
  264SOL    HW2  808   1.321   0.865   1.809
  265SOL     OW  809   0.008   1.326   2.062
  265SOL    HW1  810  -0.085   1.347   2.031
  265SOL    HW2  811   0.018   1.227   2.075
  266SOL     OW  812   0.815   0.572   2.187
  266SOL    HW1  813   0.822   0.483   2.141
  266SOL    HW2  814   0.721   0.606   2.179
  267SOL     OW  815   0.473   0.500   2.053
  267SOL    HW1  816   0.534   0.580   2.057
  267SOL    HW2  817   0.378   0.531   2.060
  268SOL     OW  818   1.302   0.855   2.171
  268SOL    HW1  819   1.216   0.824   2.213
  268SOL    HW2  820   1.298   0.841   2.072
  269SOL     OW  821   1.726   0.135   2.385
  269SOL    HW1  822   1.799   0.118   2.318
  269SOL    HW2  823   1.695   0.048   2.423
  270SOL     OW  824   1.388   1.573   2.339
  270SOL    HW1  825   1.455   1.585   2.265
  270SOL    HW2  826   1.348   1.662   2.362
  271SOL     OW  827   0.672   1.616   2.016
  271SOL    HW1  828   0.681   1.626   1.917
  271SOL    HW2  829   0.632   1.527   2.037
  272SOL     OW  830   1.194   1.612   1.893
  272SOL    HW1  831   1.200   1.519   1.930
  272SOL    HW2  832   1.135   1.612   1.813
  273SOL     OW  833   0.916   0.910   2.153
  273SOL    HW1  834   0.979   0.948   2.085
  273SOL    HW2  835   0.956   0.827   2.192
  274SOL     OW  836   1.504   1.607   1.906
  274SOL    HW1  837   1.412   1.644   1.913
  274SOL    HW2  838   1.542   1.627   1.816
  275SOL     OW  839   0.590   1.487   2.353
  275SOL    HW1  840   0.632   1.429   2.283
  275SOL    HW2  841   0.546   1.566   2.309
  276SOL     OW  842   0.255   1.348   2.152
  276SOL    HW1  843   0.159   1.349   2.125
  276SOL    HW2  844   0.267   1.401   2.236
  277SOL     OW  845   0.075   0.345   1.895
  277SOL    HW1  846  -0.017   0.317   1.866
  277SOL    HW2  847   0.106   0.422   1.839
  278SOL     OW  848   0.072   0.166   2.180
  278SOL    HW1  849   0.055   0.249   2.126
  278SOL    HW2  850   0.162   0.129   2.158
  279SOL     OW  851   1.183   1.335   1.981
  279SOL    HW1  852   1.084   1.324   1.983
  279SOL    HW2  853   1.217   1.350   2.074
  280SOL     OW  854   1.225   0.325   2.311
  280SOL    HW1  855   1.290   0.251   2.300
  280SOL    HW2  856   1.245   0.375   2.395
  281SOL     OW  857   0.594   0.745   2.514
  281SOL    HW1  858   0.644   0.830   2.495
  281SOL    HW2  859   0.506   0.747   2.466
  282SOL     OW  860   0.859   1.374   1.878
  282SOL    HW1  861   0.813   1.389   1.966
  282SOL    HW2  862   0.903   1.459   1.848
  283SOL     OW  863   0.661   1.790   2.815
  283SOL    HW1  864   0.615   1.878   2.802
  283SOL    HW2  865   0.760   1.802   2.808
  284SOL     OW  866   0.859   0.956   2.723
  284SOL    HW1  867   0.913   0.887   2.771
  284SOL    HW2  868   0.827   1.025   2.789
  285SOL     OW  869   1.083   0.984   1.949
  285SOL    HW1  870   1.060   1.037   1.867
  285SOL    HW2  871   1.164   0.928   1.930
  286SOL     OW  872   0.079   1.240   2.515
  286SOL    HW1  873   0.078   1.193   2.603
  286SOL    HW2  874   0.161   1.212   2.464
  287SOL     OW  875   0.428   0.424   2.382
  287SOL    HW1  876   0.458   0.352   2.320
  287SOL    HW2  877   0.389   0.384   2.465
  288SOL     OW  878   0.812   1.586   2.549
  288SOL    HW1  879   0.844   1.596   2.455
  288SOL    HW2  880   0.733   1.524   2.551
  289SOL     OW  881   0.770   1.330   2.163
  289SOL    HW1  882   0.724   1.243   2.180
  289SOL    HW2  883   0.861   1.327   2.204
  290SOL     OW  884   1.352   0.052   2.030
  290SOL    HW1  885   1.387   0.011   1.946
  290SOL    HW2  886   1.262   0.014   2.050
  291SOL     OW  887   1.300   0.453   2.553
  291SOL    HW1  888   1.241   0.533   2.557
  291SOL    HW2  889   1.315   0.418   2.646
  292SOL     OW  890   0.039   1.077   2.162
  292SOL    HW1  891   0.138   1.066   2.153
  292SOL    HW2  892  -0.001   0.991   2.194
  293SOL     OW  893   0.875   1.646   2.199
  293SOL    HW1  894   0.798   1.611   2.145
  293SOL    HW2  895   0.843   1.717   2.261
  294SOL     OW  896   0.230   2.490   0.113
  294SOL    HW1  897   0.137   2.488   0.150
  294SOL    HW2  898   0.231   2.451   0.021
  295SOL     OW  899   0.225   2.137   0.996
  295SOL    HW1  900   0.260   2.120   1.088
  295SOL    HW2  901   0.137   2.092   0.984
  296SOL     OW  902   0.019   2.230   0.647
  296SOL    HW1  903  -0.063   2.273   0.686
  296SOL    HW2  904  -0.009   2.157   0.584
  297SOL     OW  905   1.755   2.469   0.231
  297SOL    HW1  906   1.743   2.456   0.132
  297SOL    HW2  907   1.725   2.388   0.280
  298SOL     OW  908   0.850   2.660   1.823
  298SOL    HW1  909   0.846   2.736   1.888
  298SOL    HW2  910   0.872   2.696   1.732
  299SOL     OW  911   0.685   2.874   0.665
  299SOL    HW1  912   0.754   2.858   0.735
  299SOL    HW2  913   0.612   2.931   0.703
  300SOL     OW  914   0.438   2.254   1.499
  300SOL    HW1  915   0.520   2.198   1.508
  300SOL    HW2  916   0.357   2.196   1.503
  301SOL     OW  917   1.603   2.309   0.737
  301SOL    HW1  918   1.529   2.355   0.687
  301SOL    HW2  919   1.654   2.377   0.790
  302SOL     OW  920   1.594   1.976   1.480
  302SOL    HW1  921   1.576   2.043   1.408
  302SOL    HW2  922   1.591   2.022   1.569
  303SOL     OW  923   0.122   2.505   0.563
  303SOL    HW1  924   0.077   2.417   0.580
  303SOL    HW2  925   0.121   2.559   0.647
  304SOL     OW  926   0.113   2.599   1.597
  304SOL    HW1  927   0.201   2.586   1.642
  304SOL    HW2  928   0.100   2.696   1.575
  305SOL     OW  929   0.809   1.866   0.502
  305SOL    HW1  930   0.849   1.957   0.493
  305SOL    HW2  931   0.709   1.874   0.508
  306SOL     OW  932   0.317   2.113   1.801
  306SOL    HW1  933   0.388   2.184   1.807
  306SOL    HW2  934   0.229   2.152   1.829
  307SOL     OW  935   1.281   2.207   0.944
  307SOL    HW1  936   1.195   2.157   0.931
  307SOL    HW2  937   1.343   2.153   1.000
  308SOL     OW  938   0.807   2.467   1.465
  308SOL    HW1  939   0.760   2.464   1.554
  308SOL    HW2  940   0.756   2.412   1.399
  309SOL     OW  941   1.394   2.331   1.674
  309SOL    HW1  942   1.374   2.374   1.762
  309SOL    HW2  943   1.472   2.269   1.683
  310SOL     OW  944   0.991   2.272   1.242
  310SOL    HW1  945   0.914   2.306   1.296
  310SOL    HW2  946   0.957   2.221   1.163
  311SOL     OW  947   1.041   2.563   0.429
  311SOL    HW1  948   1.067   2.559   0.525
  311SOL    HW2  949   0.956   2.512   0.415
  312SOL     OW  950   0.076   2.673   0.789
  312SOL    HW1  951   0.175   2.661   0.798
  312SOL    HW2  952   0.052   2.768   0.810
  313SOL     OW  953   0.865   2.210   0.195
  313SOL    HW1  954   0.924   2.273   0.146
  313SOL    HW2  955   0.884   2.116   0.166
  314SOL     OW  956   1.719   2.447   1.831
  314SOL    HW1  957   1.693   2.536   1.795
  314SOL    HW2  958   1.717   2.379   1.758
  315SOL     OW  959   0.550   2.058   0.885
  315SOL    HW1  960   0.545   2.053   0.985
  315SOL    HW2  961   0.552   2.154   0.856
  316SOL     OW  962   1.458   2.597   0.728
  316SOL    HW1  963   1.453   2.532   0.803
  316SOL    HW2  964   1.538   2.656   0.741
  317SOL     OW  965   0.202   2.147   1.498
  317SOL    HW1  966   0.122   2.207   1.485
  317SOL    HW2  967   0.192   2.098   1.584
  318SOL     OW  968   1.400   1.969   0.426
  318SOL    HW1  969   1.376   1.932   0.336
  318SOL    HW2  970   1.499   1.985   0.430
  319SOL     OW  971   0.382   2.562   0.480
  319SOL    HW1  972   0.427   2.472   0.477
  319SOL    HW2  973   0.288   2.551   0.513
  320SOL     OW  974   1.547   2.084   1.729
  320SOL    HW1  975   1.542   2.121   1.821
  320SOL    HW2  976   1.475   2.015   1.717
  321SOL     OW  977   0.781   2.126   1.749
  321SOL    HW1  978   0.848   2.065   1.792
  321SOL    HW2  979   0.708   2.145   1.814
  322SOL     OW  980   1.351   2.452   1.433
  322SOL    HW1  981   1.379   2.409   1.518
  322SOL    HW2  982   1.376   2.548   1.434
  323SOL     OW  983   0.922   2.365   0.899
  323SOL    HW1  984   0.897   2.356   0.803
  323SOL    HW2  985   0.970   2.283   0.930
  324SOL     OW  986   0.539   1.926   0.512
  324SOL    HW1  987   0.458   1.927   0.570
  324SOL    HW2  988   0.542   2.009   0.457
  325SOL     OW  989   0.935   2.098   0.480
  325SOL    HW1  990   0.887   2.139   0.402
  325SOL    HW2  991   1.034   2.096   0.461
  326SOL     OW  992   1.076   2.545   1.464
  326SOL    HW1  993   0.996   2.484   1.467
  326SOL    HW2  994   1.157   2.492   1.440
  327SOL     OW  995   1.032   2.411   0.016
  327SOL    HW1  996   0.991   2.493  -0.023
  327SOL    HW2  997   1.096   2.437   0.089
  328SOL     OW  998   0.078   2.418   1.386
  328SOL    HW1  999   0.170   2.417   1.345
  328SOL    HW2 1000   0.072   2.492   1.453
  329SOL     OW 1001   0.561   2.084   1.147
  329SOL    HW1 1002   0.599   2.000   1.184
  329SOL    HW2 1003   0.473   2.103   1.191
  330SOL     OW 1004   0.866   2.316   0.642
  330SOL    HW1 1005   0.834   2.388   0.580
  330SOL    HW2 1006   0.890   2.235   0.589
  331SOL     OW 1007   1.017   1.901   0.753
  331SOL    HW1 1008   0.945   1.906   0.684
  331SOL    HW2 1009   0.993   1.832   0.822
  332SOL     OW 1010   1.466   2.452   0.992
  332SOL    HW1 1011   1.436   2.357   0.999
  332SOL    HW2 1012   1.539   2.468   1.058
  333SOL     OW 1013   1.390   2.437   0.078
  333SOL    HW1 1014   1.336   2.416   0.159
  333SOL    HW2 1015   1.481   2.396   0.087
  334SOL     OW 1016   0.527   2.118   0.328
  334SOL    HW1 1017   0.554   2.059   0.253
  334SOL    HW2 1018   0.527   2.213   0.297
  335SOL     OW 1019   0.915   1.951   1.402
  335SOL    HW1 1020   0.940   1.931   1.307
  335SOL    HW2 1021   0.987   2.007   1.444
  336SOL     OW 1022   0.410   2.675   1.251
  336SOL    HW1 1023   0.496   2.687   1.301
  336SOL    HW2 1024   0.368   2.588   1.278
  337SOL     OW 1025   1.274   2.248   1.262
  337SOL    HW1 1026   1.295   2.322   1.326
  337SOL    HW2 1027   1.185   2.265   1.219
  338SOL     OW 1028   0.566   2.399   0.865
  338SOL    HW1 1029   0.578   2.465   0.791
  338SOL    HW2 1030   0.612   2.433   0.948
  339SOL     OW 1031   1.582   2.501   0.472
  339SOL    HW1 1032   1.551   2.562   0.545
  339SOL    HW2 1033   1.632   2.553   0.403
  340SOL     OW 1034   1.587   2.641   1.670
  340SOL    HW1 1035   1.495   2.679   1.665
  340SOL    HW2 1036   1.647   2.688   1.605
  341SOL     OW 1037   1.013   1.967   1.770
  341SOL    HW1 1038   1.019   2.052   1.718
  341SOL    HW2 1039   1.045   1.891   1.713
  342SOL     OW 1040   0.504   1.912   1.740
  342SOL    HW1 1041   0.462   1.855   1.670
  342SOL    HW2 1042   0.438   1.981   1.772
  343SOL     OW 1043   1.360   2.724   1.045
  343SOL    HW1 1044   1.285   2.724   0.979
  343SOL    HW2 1045   1.397   2.632   1.054
  344SOL     OW 1046   1.209   2.387   0.275
  344SOL    HW1 1047   1.222   2.303   0.329
  344SOL    HW2 1048   1.180   2.461   0.335
  345SOL     OW 1049   0.307   2.075   1.231
  345SOL    HW1 1050   0.284   2.112   1.321
  345SOL    HW2 1051   0.277   1.980   1.225
  346SOL     OW 1052   0.732   2.496   1.064
  346SOL    HW1 1053   0.791   2.470   0.988
  346SOL    HW2 1054   0.704   2.592   1.053
  347SOL     OW 1055   1.728   2.797   1.854
  347SOL    HW1 1056   1.682   2.790   1.765
  347SOL    HW2 1057   1.666   2.841   1.920
  348SOL     OW 1058   0.307   1.925   0.618
  348SOL    HW1 1059   0.296   2.019   0.651
  348SOL    HW2 1060   0.302   1.862   0.695
  349SOL     OW 1061   1.622   2.229   0.374
  349SOL    HW1 1062   1.624   2.153   0.438
  349SOL    HW2 1063   1.574   2.306   0.414
  350SOL     OW 1064   1.540   2.136   0.125
  350SOL    HW1 1065   1.479   2.061   0.148
  350SOL    HW2 1066   1.562   2.188   0.208
  351SOL     OW 1067   0.319   2.672   0.949
  351SOL    HW1 1068   0.412   2.708   0.954
  351SOL    HW2 1069   0.313   2.587   1.001
  352SOL     OW 1070   0.339   2.371   1.006
  352SOL    HW1 1071   0.287   2.288   0.989
  352SOL    HW2 1072   0.416   2.376   0.942
  353SOL     OW 1073   1.138   2.242   1.678
  353SOL    HW1 1074   1.093   2.305   1.742
  353SOL    HW2 1075   1.231   2.273   1.661
  354SOL     OW 1076   1.160   2.069   1.477
  354SOL    HW1 1077   1.160   2.133   1.554
  354SOL    HW2 1078   1.188   2.117   1.394
  355SOL     OW 1079   0.040   2.406   1.114
  355SOL    HW1 1080   0.125   2.373   1.073
  355SOL    HW2 1081   0.053   2.421   1.212
  356SOL     OW 1082   0.189   2.382   1.722
  356SOL    HW1 1083   0.248   2.342   1.652
  356SOL    HW2 1084   0.131   2.453   1.681
  357SOL     OW 1085   0.815   2.434   0.325
  357SOL    HW1 1086   0.822   2.345   0.279
  357SOL    HW2 1087   0.721   2.468   0.317
  358SOL     OW 1088   1.657   2.466   1.206
  358SOL    HW1 1089   1.619   2.397   1.268
  358SOL    HW2 1090   1.739   2.430   1.162
  359SOL     OW 1091   0.671   2.326   1.269
  359SOL    HW1 1092   0.637   2.237   1.239
  359SOL    HW2 1093   0.697   2.380   1.189
  360SOL     OW 1094   0.473   2.362   0.191
  360SOL    HW1 1095   0.534   2.442   0.195
  360SOL    HW2 1096   0.378   2.393   0.198
  361SOL     OW 1097   0.903   1.948   0.133
  361SOL    HW1 1098   0.954   1.949   0.047
  361SOL    HW2 1099   0.959   1.906   0.204
  362SOL     OW 1100   1.726   1.997   0.523
  362SOL    HW1 1101   1.799   1.980   0.456
  362SOL    HW2 1102   1.695   1.910   0.561
  363SOL     OW 1103   1.280   2.789   0.672
  363SOL    HW1 1104   1.340   2.708   0.674
  363SOL    HW2 1105   1.320   2.858   0.612
  364SOL     OW 1106   1.841   2.037   0.963
  364SOL    HW1 1107   1.880   1.952   0.927
  364SOL    HW2 1108   1.743   2.039   0.944
  365SOL     OW 1109   0.263   2.188   0.720
  365SOL    HW1 1110   0.184   2.239   0.686
  365SOL    HW2 1111   0.254   2.173   0.818
  366SOL     OW 1112   1.039   2.960   0.696
  366SOL    HW1 1113   0.969   2.913   0.750
  366SOL    HW2 1114   1.098   2.892   0.653
  367SOL     OW 1115   1.014   2.098   0.971
  367SOL    HW1 1116   1.006   2.062   0.878
  367SOL    HW2 1117   1.012   2.022   1.036
  368SOL     OW 1118   1.709   2.247   1.381
  368SOL    HW1 1119   1.782   2.316   1.385
  368SOL    HW2 1120   1.737   2.172   1.322
  369SOL     OW 1121   0.672   2.065   1.489
  369SOL    HW1 1122   0.762   2.049   1.449
  369SOL    HW2 1123   0.680   2.070   1.588
  370SOL     OW 1124   0.075   2.207   0.033
  370SOL    HW1 1125  -0.017   2.179   0.004
  370SOL    HW2 1126   0.106   2.284  -0.023
  371SOL     OW 1127   0.072   2.028   0.318
  371SOL    HW1 1128   0.055   2.111   0.264
  371SOL    HW2 1129   0.162   1.991   0.296
  372SOL     OW 1130   0.716   2.427   1.708
  372SOL    HW1 1131   0.735   2.492   1.782
  372SOL    HW2 1132   0.776   2.347   1.717
  373SOL     OW 1133   1.225   2.187   0.449
  373SOL    HW1 1134   1.290   2.113   0.438
  373SOL    HW2 1135   1.245   2.237   0.533
  374SOL     OW 1136   1.777   2.204   1.642
  374SOL    HW1 1137   1.760   2.235   1.548
  374SOL    HW2 1138   1.693   2.167   1.680
  375SOL     OW 1139   1.083   2.846   0.087
  375SOL    HW1 1140   1.060   2.899   0.005
  375SOL    HW2 1141   1.164   2.790   0.068
  376SOL     OW 1142   1.824   2.054   1.227
  376SOL    HW1 1143   1.820   1.964   1.271
  376SOL    HW2 1144   1.827   2.043   1.128
  377SOL     OW 1145   0.428   2.286   0.520
  377SOL    HW1 1146   0.458   2.214   0.458
  377SOL    HW2 1147   0.389   2.246   0.603
  378SOL     OW 1148   0.317   2.409   1.280
  378SOL    HW1 1149   0.355   2.350   1.352
  378SOL    HW2 1150   0.357   2.383   1.192
  379SOL     OW 1151   1.424   2.076   1.112
  379SOL    HW1 1152   1.476   2.011   1.167
  379SOL    HW2 1153   1.375   2.139   1.173
  380SOL     OW 1154   1.001   1.896   1.154
  380SOL    HW1 1155   0.938   1.824   1.123
  380SOL    HW2 1156   1.094   1.860   1.154
  381SOL     OW 1157   1.352   1.914   0.168
  381SOL    HW1 1158   1.387   1.873   0.084
  381SOL    HW2 1159   1.262   1.876   0.188
  382SOL     OW 1160   1.300   2.315   0.691
  382SOL    HW1 1161   1.241   2.395   0.695
  382SOL    HW2 1162   1.315   2.280   0.784
  383SOL     OW 1163   1.593   2.083   0.882
  383SOL    HW1 1164   1.509   2.082   0.936
  383SOL    HW2 1165   1.595   2.166   0.826
  384SOL     OW 1166   0.230   2.490   1.975
  384SOL    HW1 1167   0.137   2.488   2.012
  384SOL    HW2 1168   0.231   2.451   1.883
  385SOL     OW 1169   0.019   2.230   2.509
  385SOL    HW1 1170  -0.063   2.273   2.548
  385SOL    HW2 1171  -0.009   2.157   2.446
  386SOL     OW 1172   1.755   2.469   2.093
  386SOL    HW1 1173   1.743   2.456   1.994
  386SOL    HW2 1174   1.725   2.388   2.142
  387SOL     OW 1175   0.685   2.874   2.527
  387SOL    HW1 1176   0.754   2.858   2.597
  387SOL    HW2 1177   0.612   2.931   2.565
  388SOL     OW 1178   1.603   2.309   2.599
  388SOL    HW1 1179   1.529   2.355   2.549
  388SOL    HW2 1180   1.654   2.377   2.652
  389SOL     OW 1181   0.122   2.505   2.425
  389SOL    HW1 1182   0.077   2.417   2.442
  389SOL    HW2 1183   0.121   2.559   2.509
  390SOL     OW 1184   0.809   1.866   2.364
  390SOL    HW1 1185   0.849   1.957   2.355
  390SOL    HW2 1186   0.709   1.874   2.370
  391SOL     OW 1187   1.281   2.207   2.806
  391SOL    HW1 1188   1.195   2.157   2.793
  391SOL    HW2 1189   1.343   2.153   2.862
  392SOL     OW 1190   1.041   2.563   2.291
  392SOL    HW1 1191   1.067   2.559   2.387
  392SOL    HW2 1192   0.956   2.512   2.277
  393SOL     OW 1193   0.076   2.673   2.651
  393SOL    HW1 1194   0.175   2.661   2.660
  393SOL    HW2 1195   0.052   2.768   2.672
  394SOL     OW 1196   0.865   2.210   2.057
  394SOL    HW1 1197   0.924   2.273   2.008
  394SOL    HW2 1198   0.884   2.116   2.028
  395SOL     OW 1199   1.400   1.969   2.288
  395SOL    HW1 1200   1.376   1.932   2.198
  395SOL    HW2 1201   1.499   1.985   2.292
  396SOL     OW 1202   0.382   2.562   2.342
  396SOL    HW1 1203   0.427   2.472   2.339
  396SOL    HW2 1204   0.288   2.551   2.375
  397SOL     OW 1205   0.614   1.984   1.979
  397SOL    HW1 1206   0.712   1.962   1.986
  397SOL    HW2 1207   0.583   1.967   1.886
  398SOL     OW 1208   0.539   1.926   2.374
  398SOL    HW1 1209   0.458   1.927   2.432
  398SOL    HW2 1210   0.542   2.009   2.319
  399SOL     OW 1211   0.297   1.897   2.033
  399SOL    HW1 1212   0.346   1.981   2.012
  399SOL    HW2 1213   0.359   1.832   2.078
  400SOL     OW 1214   0.935   2.098   2.342
  400SOL    HW1 1215   0.887   2.139   2.264
  400SOL    HW2 1216   1.034   2.096   2.323
  401SOL     OW 1217   1.032   2.411   1.878
  401SOL    HW1 1218   0.991   2.493   1.839
  401SOL    HW2 1219   1.096   2.437   1.951
  402SOL     OW 1220   0.866   2.316   2.504
  402SOL    HW1 1221   0.834   2.388   2.442
  402SOL    HW2 1222   0.890   2.235   2.451
  403SOL     OW 1223   1.390   2.437   1.940
  403SOL    HW1 1224   1.336   2.416   2.021
  403SOL    HW2 1225   1.481   2.396   1.949
  404SOL     OW 1226   0.527   2.118   2.190
  404SOL    HW1 1227   0.554   2.059   2.115
  404SOL    HW2 1228   0.527   2.213   2.159
  405SOL     OW 1229   1.582   2.501   2.334
  405SOL    HW1 1230   1.551   2.562   2.407
  405SOL    HW2 1231   1.632   2.553   2.265
  406SOL     OW 1232   1.209   2.387   2.137
  406SOL    HW1 1233   1.222   2.303   2.191
  406SOL    HW2 1234   1.180   2.461   2.197
  407SOL     OW 1235   0.307   1.925   2.480
  407SOL    HW1 1236   0.296   2.019   2.513
  407SOL    HW2 1237   0.302   1.862   2.557
  408SOL     OW 1238   1.622   2.229   2.236
  408SOL    HW1 1239   1.624   2.153   2.300
  408SOL    HW2 1240   1.574   2.306   2.276
  409SOL     OW 1241   1.540   2.136   1.987
  409SOL    HW1 1242   1.479   2.061   2.010
  409SOL    HW2 1243   1.562   2.188   2.070
  410SOL     OW 1244   0.815   2.434   2.187
  410SOL    HW1 1245   0.822   2.345   2.141
  410SOL    HW2 1246   0.721   2.468   2.179
  411SOL     OW 1247   0.473   2.362   2.053
  411SOL    HW1 1248   0.534   2.442   2.057
  411SOL    HW2 1249   0.378   2.393   2.060
  412SOL     OW 1250   1.726   1.997   2.385
  412SOL    HW1 1251   1.799   1.980   2.318
  412SOL    HW2 1252   1.695   1.910   2.423
  413SOL     OW 1253   1.280   2.789   2.534
  413SOL    HW1 1254   1.340   2.708   2.536
  413SOL    HW2 1255   1.320   2.858   2.474
  414SOL     OW 1256   0.916   2.772   2.153
  414SOL    HW1 1257   0.979   2.810   2.085
  414SOL    HW2 1258   0.956   2.689   2.192
  415SOL     OW 1259   0.075   2.207   1.895
  415SOL    HW1 1260  -0.017   2.179   1.866
  415SOL    HW2 1261   0.106   2.284   1.839
  416SOL     OW 1262   0.072   2.028   2.180
  416SOL    HW1 1263   0.055   2.111   2.126
  416SOL    HW2 1264   0.162   1.991   2.158
  417SOL     OW 1265   1.225   2.187   2.311
  417SOL    HW1 1266   1.290   2.113   2.300
  417SOL    HW2 1267   1.245   2.237   2.395
  418SOL     OW 1268   1.083   2.846   1.949
  418SOL    HW1 1269   1.060   2.899   1.867
  418SOL    HW2 1270   1.164   2.790   1.930
  419SOL     OW 1271   0.428   2.286   2.382
  419SOL    HW1 1272   0.458   2.214   2.320
  419SOL    HW2 1273   0.389   2.246   2.465
  420SOL     OW 1274   1.352   1.914   2.030
  420SOL    HW1 1275   1.387   1.873   1.946
  420SOL    HW2 1276   1.262   1.876   2.050
  421SOL     OW 1277   1.300   2.315   2.553
  421SOL    HW1 1278   1.241   2.395   2.557
  421SOL    HW2 1279   1.315   2.280   2.646
  422SOL     OW 1280   2.092   0.628   0.113
  422SOL    HW1 1281   1.999   0.626   0.150
  422SOL    HW2 1282   2.093   0.589   0.021
  423SOL     OW 1283   2.087   0.275   0.996
  423SOL    HW1 1284   2.122   0.258   1.088
  423SOL    HW2 1285   1.999   0.230   0.984
  424SOL     OW 1286   1.881   0.368   0.647
  424SOL    HW1 1287   1.799   0.411   0.686
  424SOL    HW2 1288   1.853   0.295   0.584
  425SOL     OW 1289   2.431   1.275   1.165
  425SOL    HW1 1290   2.338   1.268   1.128
  425SOL    HW2 1291   2.442   1.364   1.209
  426SOL     OW 1292   2.712   0.798   1.823
  426SOL    HW1 1293   2.708   0.874   1.888
  426SOL    HW2 1294   2.734   0.834   1.732
  427SOL     OW 1295   2.547   1.012   0.665
  427SOL    HW1 1296   2.616   0.996   0.735
  427SOL    HW2 1297   2.474   1.069   0.703
  428SOL     OW 1298   2.548   1.161   1.803
  428SOL    HW1 1299   2.608   1.240   1.817
  428SOL    HW2 1300   2.462   1.192   1.762
  429SOL     OW 1301   2.197   1.435   1.061
  429SOL    HW1 1302   2.119   1.404   1.008
  429SOL    HW2 1303   2.255   1.493   1.004
  430SOL     OW 1304   2.300   0.392   1.499
  430SOL    HW1 1305   2.382   0.336   1.508
  430SOL    HW2 1306   2.219   0.334   1.503
  431SOL     OW 1307   2.093   1.713   0.483
  431SOL    HW1 1308   2.127   1.790   0.537
  431SOL    HW2 1309   2.137   1.713   0.393
  432SOL     OW 1310   2.092   1.434   0.538
  432SOL    HW1 1311   2.066   1.530   0.538
  432SOL    HW2 1312   2.021   1.380   0.583
  433SOL     OW 1313   2.102   1.091   0.886
  433SOL    HW1 1314   2.116   1.007   0.938
  433SOL    HW2 1315   2.047   1.155   0.941
  434SOL     OW 1316   2.482   1.786   1.439
  434SOL    HW1 1317   2.390   1.769   1.474
  434SOL    HW2 1318   2.510   1.878   1.465
  435SOL     OW 1319   2.468   0.964   0.123
  435SOL    HW1 1320   2.475   1.048   0.069
  435SOL    HW2 1321   2.514   0.977   0.211
  436SOL     OW 1322   1.984   0.643   0.563
  436SOL    HW1 1323   1.939   0.555   0.580
  436SOL    HW2 1324   1.983   0.697   0.647
  437SOL     OW 1325   1.889   1.596   0.117
  437SOL    HW1 1326   1.870   1.500   0.138
  437SOL    HW2 1327   1.856   1.654   0.192
  438SOL     OW 1328   1.975   0.737   1.597
  438SOL    HW1 1329   2.063   0.724   1.642
  438SOL    HW2 1330   1.962   0.834   1.575
  439SOL     OW 1331   2.475   1.365   0.726
  439SOL    HW1 1332   2.426   1.278   0.735
  439SOL    HW2 1333   2.452   1.408   0.639
  440SOL     OW 1334   2.671   0.004   0.502
  440SOL    HW1 1335   2.711   0.095   0.493
  440SOL    HW2 1336   2.571   0.012   0.508
  441SOL     OW 1337   2.059   0.976   1.264
  441SOL    HW1 1338   2.148   0.931   1.250
  441SOL    HW2 1339   1.986   0.911   1.245
  442SOL     OW 1340   2.179   0.251   1.801
  442SOL    HW1 1341   2.250   0.322   1.807
  442SOL    HW2 1342   2.091   0.290   1.829
  443SOL     OW 1343   2.460   0.729   0.270
  443SOL    HW1 1344   2.484   0.798   0.202
  443SOL    HW2 1345   2.382   0.762   0.324
  444SOL     OW 1346   1.938   0.811   0.789
  444SOL    HW1 1347   2.037   0.799   0.798
  444SOL    HW2 1348   1.914   0.906   0.810
  445SOL     OW 1349   1.992   1.821   1.571
  445SOL    HW1 1350   1.982   1.806   1.670
  445SOL    HW2 1351   1.906   1.857   1.535
  446SOL     OW 1352   2.412   0.196   0.885
  446SOL    HW1 1353   2.407   0.191   0.985
  446SOL    HW2 1354   2.414   0.292   0.856
  447SOL     OW 1355   2.213   1.801   0.853
  447SOL    HW1 1356   2.263   1.715   0.859
  447SOL    HW2 1357   2.278   1.878   0.850
  448SOL     OW 1358   2.183   0.943   0.242
  448SOL    HW1 1359   2.265   0.982   0.200
  448SOL    HW2 1360   2.156   0.861   0.193
  449SOL     OW 1361   2.323   1.266   1.727
  449SOL    HW1 1362   2.273   1.267   1.641
  449SOL    HW2 1363   2.260   1.248   1.803
  450SOL     OW 1364   2.064   0.285   1.498
  450SOL    HW1 1365   1.984   0.345   1.485
  450SOL    HW2 1366   2.054   0.236   1.584
  451SOL     OW 1367   2.326   1.743   0.323
  451SOL    HW1 1368   2.359   1.782   0.409
  451SOL    HW2 1369   2.402   1.736   0.258
  452SOL     OW 1370   2.111   1.785   1.241
  452SOL    HW1 1371   2.168   1.720   1.291
  452SOL    HW2 1372   2.095   1.752   1.148
  453SOL     OW 1373   2.244   0.700   0.480
  453SOL    HW1 1374   2.289   0.610   0.477
  453SOL    HW2 1375   2.150   0.689   0.513
  454SOL     OW 1376   2.476   0.122   0.117
  454SOL    HW1 1377   2.574   0.100   0.124
  454SOL    HW2 1378   2.445   0.105   0.024
  455SOL     OW 1379   2.665   1.402   0.924
  455SOL    HW1 1380   2.755   1.416   0.882
  455SOL    HW2 1381   2.594   1.404   0.853
  456SOL     OW 1382   2.401   0.064   0.512
  456SOL    HW1 1383   2.320   0.065   0.570
  456SOL    HW2 1384   2.404   0.147   0.457
  457SOL     OW 1385   2.159   0.035   0.171
  457SOL    HW1 1386   2.208   0.119   0.150
  457SOL    HW2 1387   2.221  -0.030   0.216
  458SOL     OW 1388   2.321   1.152   0.741
  458SOL    HW1 1389   2.250   1.125   0.806
  458SOL    HW2 1390   2.295   1.124   0.648
  459SOL     OW 1391   1.940   0.556   1.386
  459SOL    HW1 1392   2.032   0.555   1.345
  459SOL    HW2 1393   1.934   0.630   1.453
  460SOL     OW 1394   2.423   0.222   1.147
  460SOL    HW1 1395   2.461   0.138   1.184
  460SOL    HW2 1396   2.335   0.241   1.191
  461SOL     OW 1397   2.350   1.385   0.174
  461SOL    HW1 1398   2.263   1.370   0.221
  461SOL    HW2 1399   2.333   1.411   0.079
  462SOL     OW 1400   2.389   0.256   0.328
  462SOL    HW1 1401   2.416   0.197   0.253
  462SOL    HW2 1402   2.389   0.351   0.297
  463SOL     OW 1403   2.272   0.813   1.251
  463SOL    HW1 1404   2.358   0.825   1.301
  463SOL    HW2 1405   2.230   0.726   1.278
  464SOL     OW 1406   1.926   1.564   1.331
  464SOL    HW1 1407   1.880   1.646   1.297
  464SOL    HW2 1408   2.024   1.583   1.340
  465SOL     OW 1409   2.229   1.100   0.501
  465SOL    HW1 1410   2.222   1.183   0.445
  465SOL    HW2 1411   2.233   1.020   0.441
  466SOL     OW 1412   2.428   0.537   0.865
  466SOL    HW1 1413   2.440   0.603   0.791
  466SOL    HW2 1414   2.474   0.571   0.948
  467SOL     OW 1415   2.216   1.510   1.329
  467SOL    HW1 1416   2.195   1.466   1.242
  467SOL    HW2 1417   2.313   1.536   1.332
  468SOL     OW 1418   2.264   0.751   1.598
  468SOL    HW1 1419   2.332   0.806   1.551
  468SOL    HW2 1420   2.304   0.663   1.625
  469SOL     OW 1421   2.366   0.050   1.740
  469SOL    HW1 1422   2.324  -0.007   1.670
  469SOL    HW2 1423   2.300   0.119   1.772
  470SOL     OW 1424   2.435   0.870   1.029
  470SOL    HW1 1425   2.479   0.959   1.020
  470SOL    HW2 1426   2.372   0.870   1.106
  471SOL     OW 1427   2.169   0.213   1.231
  471SOL    HW1 1428   2.146   0.250   1.321
  471SOL    HW2 1429   2.139   0.118   1.225
  472SOL     OW 1430   1.899   1.310   1.282
  472SOL    HW1 1431   1.952   1.261   1.350
  472SOL    HW2 1432   1.921   1.408   1.287
  473SOL     OW 1433   2.169   0.063   0.618
  473SOL    HW1 1434   2.158   0.157   0.651
  473SOL    HW2 1435   2.164   0.000   0.695
  474SOL     OW 1436   2.212   0.898   1.804
  474SOL    HW1 1437   2.288   0.942   1.852
  474SOL    HW2 1438   2.247   0.851   1.722
  475SOL     OW 1439   2.181   0.810   0.949
  475SOL    HW1 1440   2.274   0.846   0.954
  475SOL    HW2 1441   2.175   0.725   1.001
  476SOL     OW 1442   2.201   0.509   1.006
  476SOL    HW1 1443   2.149   0.426   0.989
  476SOL    HW2 1444   2.278   0.514   0.942
  477SOL     OW 1445   1.870   1.326   0.200
  477SOL    HW1 1446   1.777   1.347   0.169
  477SOL    HW2 1447   1.880   1.227   0.213
  478SOL     OW 1448   1.950   1.801   0.927
  478SOL    HW1 1449   1.908   1.715   0.900
  478SOL    HW2 1450   2.044   1.804   0.893
  479SOL     OW 1451   2.366   1.568   0.910
  479SOL    HW1 1452   2.432   1.642   0.919
  479SOL    HW2 1453   2.410   1.489   0.868
  480SOL     OW 1454   1.902   0.544   1.114
  480SOL    HW1 1455   1.987   0.511   1.073
  480SOL    HW2 1456   1.915   0.559   1.212
  481SOL     OW 1457   2.051   0.520   1.722
  481SOL    HW1 1458   2.110   0.480   1.652
  481SOL    HW2 1459   1.993   0.591   1.681
  482SOL     OW 1460   2.677   0.572   0.325
  482SOL    HW1 1461   2.684   0.483   0.279
  482SOL    HW2 1462   2.583   0.606   0.317
  483SOL     OW 1463   2.114   1.564   1.744
  483SOL    HW1 1464   2.084   1.621   1.820
  483SOL    HW2 1465   2.107   1.467   1.770
  484SOL     OW 1466   2.533   0.464   1.269
  484SOL    HW1 1467   2.499   0.375   1.239
  484SOL    HW2 1468   2.559   0.518   1.189
  485SOL     OW 1469   2.335   0.500   0.191
  485SOL    HW1 1470   2.396   0.580   0.195
  485SOL    HW2 1471   2.240   0.531   0.198
  486SOL     OW 1472   2.021   1.137   1.466
  486SOL    HW1 1473   2.043   1.076   1.542
  486SOL    HW2 1474   2.031   1.088   1.380
  487SOL     OW 1475   1.945   1.258   1.022
  487SOL    HW1 1476   1.940   1.257   1.122
  487SOL    HW2 1477   1.862   1.217   0.984
  488SOL     OW 1478   2.550   1.662   1.716
  488SOL    HW1 1479   2.494   1.743   1.725
  488SOL    HW2 1480   2.602   1.666   1.630
  489SOL     OW 1481   1.992   1.794   1.851
  489SOL    HW1 1482   1.951   1.720   1.904
  489SOL    HW2 1483   2.056   1.845   1.909
  490SOL     OW 1484   2.125   0.326   0.720
  490SOL    HW1 1485   2.046   0.377   0.686
  490SOL    HW2 1486   2.116   0.311   0.818
  491SOL     OW 1487   2.234   1.288   1.490
  491SOL    HW1 1488   2.221   1.381   1.456
  491SOL    HW2 1489   2.150   1.236   1.477
  492SOL     OW 1490   2.901   1.098   0.696
  492SOL    HW1 1491   2.831   1.051   0.750
  492SOL    HW2 1492   2.960   1.030   0.653
  493SOL     OW 1493   2.452   1.487   0.491
  493SOL    HW1 1494   2.494   1.429   0.421
  493SOL    HW2 1495   2.408   1.566   0.447
  494SOL     OW 1496   2.117   1.348   0.290
  494SOL    HW1 1497   2.021   1.349   0.263
  494SOL    HW2 1498   2.129   1.401   0.374
  495SOL     OW 1499   1.967   1.013   1.726
  495SOL    HW1 1500   1.890   0.980   1.780
  495SOL    HW2 1501   2.052   0.983   1.768
  496SOL     OW 1502   2.534   0.203   1.489
  496SOL    HW1 1503   2.624   0.187   1.449
  496SOL    HW2 1504   2.542   0.208   1.588
  497SOL     OW 1505   1.937   0.345   0.033
  497SOL    HW1 1506   1.845   0.317   0.004
  497SOL    HW2 1507   1.968   0.422  -0.023
  498SOL     OW 1508   1.934   0.166   0.318
  498SOL    HW1 1509   1.917   0.249   0.264
  498SOL    HW2 1510   2.024   0.129   0.296
  499SOL     OW 1511   2.475   0.842   1.431
  499SOL    HW1 1512   2.531   0.923   1.414
  499SOL    HW2 1513   2.534   0.762   1.434
  500SOL     OW 1514   2.578   0.565   1.708
  500SOL    HW1 1515   2.597   0.630   1.782
  500SOL    HW2 1516   2.638   0.485   1.717
  501SOL     OW 1517   2.252   1.741   1.560
  501SOL    HW1 1518   2.161   1.782   1.558
  501SOL    HW2 1519   2.245   1.647   1.592
  502SOL     OW 1520   2.456   0.745   0.652
  502SOL    HW1 1521   2.506   0.830   0.633
  502SOL    HW2 1522   2.368   0.747   0.604
  503SOL     OW 1523   2.083   1.314   1.844
  503SOL    HW1 1524   2.018   1.241   1.823
  503SOL    HW2 1525   2.087   1.328   1.942
  504SOL     OW 1526   1.941   1.240   0.653
  504SOL    HW1 1527   1.940   1.193   0.741
  504SOL    HW2 1528   2.023   1.212   0.602
  505SOL     OW 1529   2.534   1.391   1.624
  505SOL    HW1 1530   2.456   1.341   1.662
  505SOL    HW2 1531   2.531   1.486   1.655
  506SOL     OW 1532   2.290   0.424   0.520
  506SOL    HW1 1533   2.320   0.352   0.458
  506SOL    HW2 1534   2.251   0.384   0.603
  507SOL     OW 1535   2.179   0.547   1.280
  507SOL    HW1 1536   2.217   0.488   1.352
  507SOL    HW2 1537   2.219   0.521   1.192
  508SOL     OW 1538   2.674   1.586   0.687
  508SOL    HW1 1539   2.706   1.596   0.593
  508SOL    HW2 1540   2.595   1.524   0.689
  509SOL     OW 1541   2.480   1.567   1.284
  509SOL    HW1 1542   2.475   1.649   1.341
  509SOL    HW2 1543   2.569   1.564   1.239
  510SOL     OW 1544   1.901   1.077   0.300
  510SOL    HW1 1545   2.000   1.066   0.291
  510SOL    HW2 1546   1.861   0.991   0.332
  511SOL     OW 1547   2.092   0.628   1.975
  511SOL    HW1 1548   1.999   0.626   2.012
  511SOL    HW2 1549   2.093   0.589   1.883
  512SOL     OW 1550   1.881   0.368   2.509
  512SOL    HW1 1551   1.799   0.411   2.548
  512SOL    HW2 1552   1.853   0.295   2.446
  513SOL     OW 1553   2.547   1.012   2.527
  513SOL    HW1 1554   2.616   0.996   2.597
  513SOL    HW2 1555   2.474   1.069   2.565
  514SOL     OW 1556   2.093   1.713   2.345
  514SOL    HW1 1557   2.127   1.790   2.399
  514SOL    HW2 1558   2.137   1.713   2.255
  515SOL     OW 1559   2.092   1.434   2.400
  515SOL    HW1 1560   2.066   1.530   2.400
  515SOL    HW2 1561   2.021   1.380   2.445
  516SOL     OW 1562   2.468   0.964   1.985
  516SOL    HW1 1563   2.475   1.048   1.931
  516SOL    HW2 1564   2.514   0.977   2.073
  517SOL     OW 1565   1.984   0.643   2.425
  517SOL    HW1 1566   1.939   0.555   2.442
  517SOL    HW2 1567   1.983   0.697   2.509
  518SOL     OW 1568   1.889   1.596   1.979
  518SOL    HW1 1569   1.870   1.500   2.000
  518SOL    HW2 1570   1.856   1.654   2.054
  519SOL     OW 1571   2.475   1.365   2.588
  519SOL    HW1 1572   2.426   1.278   2.597
  519SOL    HW2 1573   2.452   1.408   2.501
  520SOL     OW 1574   2.671   0.004   2.364
  520SOL    HW1 1575   2.711   0.095   2.355
  520SOL    HW2 1576   2.571   0.012   2.370
  521SOL     OW 1577   2.460   0.729   2.132
  521SOL    HW1 1578   2.484   0.798   2.064
  521SOL    HW2 1579   2.382   0.762   2.186
  522SOL     OW 1580   1.938   0.811   2.651
  522SOL    HW1 1581   2.037   0.799   2.660
  522SOL    HW2 1582   1.914   0.906   2.672
  523SOL     OW 1583   2.213   1.801   2.715
  523SOL    HW1 1584   2.263   1.715   2.721
  523SOL    HW2 1585   2.278   1.878   2.712
  524SOL     OW 1586   2.183   0.943   2.104
  524SOL    HW1 1587   2.265   0.982   2.062
  524SOL    HW2 1588   2.156   0.861   2.055
  525SOL     OW 1589   2.326   1.743   2.185
  525SOL    HW1 1590   2.359   1.782   2.271
  525SOL    HW2 1591   2.402   1.736   2.120
  526SOL     OW 1592   2.244   0.700   2.342
  526SOL    HW1 1593   2.289   0.610   2.339
  526SOL    HW2 1594   2.150   0.689   2.375
  527SOL     OW 1595   2.476   0.122   1.979
  527SOL    HW1 1596   2.574   0.100   1.986
  527SOL    HW2 1597   2.445   0.105   1.886
  528SOL     OW 1598   2.401   0.064   2.374
  528SOL    HW1 1599   2.320   0.065   2.432
  528SOL    HW2 1600   2.404   0.147   2.319
  529SOL     OW 1601   2.159   0.035   2.033
  529SOL    HW1 1602   2.208   0.119   2.012
  529SOL    HW2 1603   2.221  -0.030   2.078
  530SOL     OW 1604   2.321   1.152   2.603
  530SOL    HW1 1605   2.250   1.125   2.668
  530SOL    HW2 1606   2.295   1.124   2.510
  531SOL     OW 1607   2.350   1.385   2.036
  531SOL    HW1 1608   2.263   1.370   2.083
  531SOL    HW2 1609   2.333   1.411   1.941
  532SOL     OW 1610   2.389   0.256   2.190
  532SOL    HW1 1611   2.416   0.197   2.115
  532SOL    HW2 1612   2.389   0.351   2.159
  533SOL     OW 1613   2.229   1.100   2.363
  533SOL    HW1 1614   2.222   1.183   2.307
  533SOL    HW2 1615   2.233   1.020   2.303
  534SOL     OW 1616   2.169   0.063   2.480
  534SOL    HW1 1617   2.158   0.157   2.513
  534SOL    HW2 1618   2.164   0.000   2.557
  535SOL     OW 1619   1.870   1.326   2.062
  535SOL    HW1 1620   1.777   1.347   2.031
  535SOL    HW2 1621   1.880   1.227   2.075
  536SOL     OW 1622   2.677   0.572   2.187
  536SOL    HW1 1623   2.684   0.483   2.141
  536SOL    HW2 1624   2.583   0.606   2.179
  537SOL     OW 1625   2.335   0.500   2.053
  537SOL    HW1 1626   2.396   0.580   2.057
  537SOL    HW2 1627   2.240   0.531   2.060
  538SOL     OW 1628   2.901   1.098   2.558
  538SOL    HW1 1629   2.831   1.051   2.612
  538SOL    HW2 1630   2.960   1.030   2.515
  539SOL     OW 1631   2.452   1.487   2.353
  539SOL    HW1 1632   2.494   1.429   2.283
  539SOL    HW2 1633   2.408   1.566   2.309
  540SOL     OW 1634   2.117   1.348   2.152
  540SOL    HW1 1635   2.021   1.349   2.125
  540SOL    HW2 1636   2.129   1.401   2.236
  541SOL     OW 1637   1.937   0.345   1.895
  541SOL    HW1 1638   1.845   0.317   1.866
  541SOL    HW2 1639   1.968   0.422   1.839
  542SOL     OW 1640   1.934   0.166   2.180
  542SOL    HW1 1641   1.917   0.249   2.126
  542SOL    HW2 1642   2.024   0.129   2.158
  543SOL     OW 1643   2.456   0.745   2.514
  543SOL    HW1 1644   2.506   0.830   2.495
  543SOL    HW2 1645   2.368   0.747   2.466
  544SOL     OW 1646   2.523   1.790   2.815
  544SOL    HW1 1647   2.477   1.878   2.802
  544SOL    HW2 1648   2.622   1.802   2.808
  545SOL     OW 1649   1.941   1.240   2.515
  545SOL    HW1 1650   1.940   1.193   2.603
  545SOL    HW2 1651   2.023   1.212   2.464
  546SOL     OW 1652   2.290   0.424   2.382
  546SOL    HW1 1653   2.320   0.352   2.320
  546SOL    HW2 1654   2.251   0.384   2.465
  547SOL     OW 1655   2.674   1.586   2.549
  547SOL    HW1 1656   2.706   1.596   2.455
  547SOL    HW2 1657   2.595   1.524   2.551
  548SOL     OW 1658   1.901   1.077   2.162
  548SOL    HW1 1659   2.000   1.066   2.153
  548SOL    HW2 1660   1.861   0.991   2.194
  549SOL     OW 1661   2.092   2.490   0.113
  549SOL    HW1 1662   1.999   2.488   0.150
  549SOL    HW2 1663   2.093   2.451   0.021
  550SOL     OW 1664   2.087   2.137   0.996
  550SOL    HW1 1665   2.122   2.120   1.088
  550SOL    HW2 1666   1.999   2.092   0.984
  551SOL     OW 1667   1.881   2.230   0.647
  551SOL    HW1 1668   1.799   2.273   0.686
  551SOL    HW2 1669   1.853   2.157   0.584
  552SOL     OW 1670   2.712   2.660   1.823
  552SOL    HW1 1671   2.708   2.736   1.888
  552SOL    HW2 1672   2.734   2.696   1.732
  553SOL     OW 1673   2.300   2.254   1.499
  553SOL    HW1 1674   2.382   2.198   1.508
  553SOL    HW2 1675   2.219   2.196   1.503
  554SOL     OW 1676   1.984   2.505   0.563
  554SOL    HW1 1677   1.939   2.417   0.580
  554SOL    HW2 1678   1.983   2.559   0.647
  555SOL     OW 1679   1.975   2.599   1.597
  555SOL    HW1 1680   2.063   2.586   1.642
  555SOL    HW2 1681   1.962   2.696   1.575
  556SOL     OW 1682   2.671   1.866   0.502
  556SOL    HW1 1683   2.711   1.957   0.493
  556SOL    HW2 1684   2.571   1.874   0.508
  557SOL     OW 1685   2.179   2.113   1.801
  557SOL    HW1 1686   2.250   2.184   1.807
  557SOL    HW2 1687   2.091   2.152   1.829
  558SOL     OW 1688   2.412   2.058   0.885
  558SOL    HW1 1689   2.407   2.053   0.985
  558SOL    HW2 1690   2.414   2.154   0.856
  559SOL     OW 1691   2.064   2.147   1.498
  559SOL    HW1 1692   1.984   2.207   1.485
  559SOL    HW2 1693   2.054   2.098   1.584
  560SOL     OW 1694   2.244   2.562   0.480
  560SOL    HW1 1695   2.289   2.472   0.477
  560SOL    HW2 1696   2.150   2.551   0.513
  561SOL     OW 1697   2.401   1.926   0.512
  561SOL    HW1 1698   2.320   1.927   0.570
  561SOL    HW2 1699   2.404   2.009   0.457
  562SOL     OW 1700   1.940   2.418   1.386
  562SOL    HW1 1701   2.032   2.417   1.345
  562SOL    HW2 1702   1.934   2.492   1.453
  563SOL     OW 1703   2.423   2.084   1.147
  563SOL    HW1 1704   2.461   2.000   1.184
  563SOL    HW2 1705   2.335   2.103   1.191
  564SOL     OW 1706   2.389   2.118   0.328
  564SOL    HW1 1707   2.416   2.059   0.253
  564SOL    HW2 1708   2.389   2.213   0.297
  565SOL     OW 1709   2.272   2.675   1.251
  565SOL    HW1 1710   2.358   2.687   1.301
  565SOL    HW2 1711   2.230   2.588   1.278
  566SOL     OW 1712   2.428   2.399   0.865
  566SOL    HW1 1713   2.440   2.465   0.791
  566SOL    HW2 1714   2.474   2.433   0.948
  567SOL     OW 1715   2.366   1.912   1.740
  567SOL    HW1 1716   2.324   1.855   1.670
  567SOL    HW2 1717   2.300   1.981   1.772
  568SOL     OW 1718   2.169   2.075   1.231
  568SOL    HW1 1719   2.146   2.112   1.321
  568SOL    HW2 1720   2.139   1.980   1.225
  569SOL     OW 1721   2.169   1.925   0.618
  569SOL    HW1 1722   2.158   2.019   0.651
  569SOL    HW2 1723   2.164   1.862   0.695
  570SOL     OW 1724   2.181   2.672   0.949
  570SOL    HW1 1725   2.274   2.708   0.954
  570SOL    HW2 1726   2.175   2.587   1.001
  571SOL     OW 1727   2.201   2.371   1.006
  571SOL    HW1 1728   2.149   2.288   0.989
  571SOL    HW2 1729   2.278   2.376   0.942
  572SOL     OW 1730   1.902   2.406   1.114
  572SOL    HW1 1731   1.987   2.373   1.073
  572SOL    HW2 1732   1.915   2.421   1.212
  573SOL     OW 1733   2.051   2.382   1.722
  573SOL    HW1 1734   2.110   2.342   1.652
  573SOL    HW2 1735   1.993   2.453   1.681
  574SOL     OW 1736   2.677   2.434   0.325
  574SOL    HW1 1737   2.684   2.345   0.279
  574SOL    HW2 1738   2.583   2.468   0.317
  575SOL     OW 1739   2.533   2.326   1.269
  575SOL    HW1 1740   2.499   2.237   1.239
  575SOL    HW2 1741   2.559   2.380   1.189
  576SOL     OW 1742   2.335   2.362   0.191
  576SOL    HW1 1743   2.396   2.442   0.195
  576SOL    HW2 1744   2.240   2.393   0.198
  577SOL     OW 1745   2.125   2.188   0.720
  577SOL    HW1 1746   2.046   2.239   0.686
  577SOL    HW2 1747   2.116   2.173   0.818
  578SOL     OW 1748   2.534   2.065   1.489
  578SOL    HW1 1749   2.624   2.049   1.449
  578SOL    HW2 1750   2.542   2.070   1.588
  579SOL     OW 1751   1.937   2.207   0.033
  579SOL    HW1 1752   1.845   2.179   0.004
  579SOL    HW2 1753   1.968   2.284  -0.023
  580SOL     OW 1754   1.934   2.028   0.318
  580SOL    HW1 1755   1.917   2.111   0.264
  580SOL    HW2 1756   2.024   1.991   0.296
  581SOL     OW 1757   2.578   2.427   1.708
  581SOL    HW1 1758   2.597   2.492   1.782
  581SOL    HW2 1759   2.638   2.347   1.717
  582SOL     OW 1760   2.290   2.286   0.520
  582SOL    HW1 1761   2.320   2.214   0.458
  582SOL    HW2 1762   2.251   2.246   0.603
  583SOL     OW 1763   2.179   2.409   1.280
  583SOL    HW1 1764   2.217   2.350   1.352
  583SOL    HW2 1765   2.219   2.383   1.192
  584SOL     OW 1766   2.092   2.490   1.975
  584SOL    HW1 1767   1.999   2.488   2.012
  584SOL    HW2 1768   2.093   2.451   1.883
  585SOL     OW 1769   1.881   2.230   2.509
  585SOL    HW1 1770   1.799   2.273   2.548
  585SOL    HW2 1771   1.853   2.157   2.446
  586SOL     OW 1772   1.984   2.505   2.425
  586SOL    HW1 1773   1.939   2.417   2.442
  586SOL    HW2 1774   1.983   2.559   2.509
  587SOL     OW 1775   2.671   1.866   2.364
  587SOL    HW1 1776   2.711   1.957   2.355
  587SOL    HW2 1777   2.571   1.874   2.370
  588SOL     OW 1778   1.938   2.673   2.651
  588SOL    HW1 1779   2.037   2.661   2.660
  588SOL    HW2 1780   1.914   2.768   2.672
  589SOL     OW 1781   2.244   2.562   2.342
  589SOL    HW1 1782   2.289   2.472   2.339
  589SOL    HW2 1783   2.150   2.551   2.375
  590SOL     OW 1784   2.476   1.984   1.979
  590SOL    HW1 1785   2.574   1.962   1.986
  590SOL    HW2 1786   2.445   1.967   1.886
  591SOL     OW 1787   2.401   1.926   2.374
  591SOL    HW1 1788   2.320   1.927   2.432
  591SOL    HW2 1789   2.404   2.009   2.319
  592SOL     OW 1790   2.159   1.897   2.033
  592SOL    HW1 1791   2.208   1.981   2.012
  592SOL    HW2 1792   2.221   1.832   2.078
  593SOL     OW 1793   2.389   2.118   2.190
  593SOL    HW1 1794   2.416   2.059   2.115
  593SOL    HW2 1795   2.389   2.213   2.159
  594SOL     OW 1796   2.169   1.925   2.480
  594SOL    HW1 1797   2.158   2.019   2.513
  594SOL    HW2 1798   2.164   1.862   2.557
  595SOL     OW 1799   2.677   2.434   2.187
  595SOL    HW1 1800   2.684   2.345   2.141
  595SOL    HW2 1801   2.583   2.468   2.179
  596SOL     OW 1802   2.335   2.362   2.053
  596SOL    HW1 1803   2.396   2.442   2.057
  596SOL    HW2 1804   2.240   2.393   2.060
  597SOL     OW 1805   1.937   2.207   1.895
  597SOL    HW1 1806   1.845   2.179   1.866
  597SOL    HW2 1807   1.968   2.284   1.839
  598SOL     OW 1808   1.934   2.028   2.180
  598SOL    HW1 1809   1.917   2.111   2.126
  598SOL    HW2 1810   2.024   1.991   2.158
  599SOL     OW 1811   2.290   2.286   2.382
  599SOL    HW1 1812   2.320   2.214   2.320
  599SOL    HW2 1813   2.251   2.246   2.465
   2.65879   2.65879   2.65879
