mobley_7326706_GMX.gro created by acpype (v: 2023.10.27) on Thu May 14 13:55:43 2026
 2846
    1MOL     C1    1   1.256   1.857   1.497
    1MOL     C2    2   1.332   1.756   1.437
    1MOL     C3    3   1.244   1.859   1.635
    1MOL     C4    4   1.392   1.661   1.519
    1MOL     C5    5   1.308   1.760   1.709
    1MOL     C6    6   1.830   1.512   1.777
    1MOL     C7    7   1.682   1.294   1.217
    1MOL     C8    8   1.717   1.427   1.723
    1MOL     C9    9   1.571   1.315   1.318
    1MOL     N1   10   1.382   1.661   1.653
    1MOL     O1   11   1.467   1.562   1.461
    1MOL     O2   12   1.635   1.509   1.642
    1MOL     O3   13   1.627   1.373   1.435
    1MOL     P1   14   1.527   1.438   1.545
    1MOL     S1   15   1.401   1.312   1.624
    1MOL    CL1   16   1.347   1.752   1.266
    1MOL    CL2   17   1.150   1.985   1.707
    1MOL    CL3   18   1.302   1.751   1.880
    1MOL     H1   19   1.208   1.932   1.435
    1MOL     H2   20   1.889   1.555   1.696
    1MOL     H3   21   1.791   1.596   1.836
    1MOL     H4   22   1.897   1.453   1.841
    1MOL     H5   23   1.730   1.389   1.192
    1MOL     H6   24   1.760   1.229   1.258
    1MOL     H7   25   1.643   1.249   1.125
    1MOL     H8   26   1.659   1.387   1.805
    1MOL     H9   27   1.758   1.345   1.663
    1MOL    H10   28   1.525   1.219   1.344
    1MOL    H11   29   1.494   1.381   1.276
    2SOL     OW   30   0.230   0.628   0.113
    2SOL    HW1   31   0.137   0.626   0.150
    2SOL    HW2   32   0.231   0.589   0.021
    3SOL     OW   33   0.225   0.275   0.996
    3SOL    HW1   34   0.260   0.258   1.088
    3SOL    HW2   35   0.137   0.230   0.984
    4SOL     OW   36   0.019   0.368   0.647
    4SOL    HW1   37  -0.063   0.411   0.686
    4SOL    HW2   38  -0.009   0.295   0.584
    5SOL     OW   39   0.569   1.275   1.165
    5SOL    HW1   40   0.476   1.268   1.128
    5SOL    HW2   41   0.580   1.364   1.209
    6SOL     OW   42   1.555   1.511   0.703
    6SOL    HW1   43   1.498   1.495   0.784
    6SOL    HW2   44   1.496   1.521   0.623
    7SOL     OW   45   1.135   0.703   0.717
    7SOL    HW1   46   1.192   0.781   0.692
    7SOL    HW2   47   1.075   0.729   0.793
    8SOL     OW   48   1.755   0.607   0.231
    8SOL    HW1   49   1.743   0.594   0.132
    8SOL    HW2   50   1.725   0.526   0.280
    9SOL     OW   51   0.768   1.144   1.023
    9SOL    HW1   52   0.690   1.161   1.083
    9SOL    HW2   53   0.802   1.231   0.987
   10SOL     OW   54   0.850   0.798   1.823
   10SOL    HW1   55   0.846   0.874   1.888
   10SOL    HW2   56   0.872   0.834   1.732
   11SOL     OW   57   0.685   1.012   0.665
   11SOL    HW1   58   0.754   0.996   0.735
   11SOL    HW2   59   0.612   1.069   0.703
   12SOL     OW   60   0.686   1.161   1.803
   12SOL    HW1   61   0.746   1.240   1.817
   12SOL    HW2   62   0.600   1.192   1.762
   13SOL     OW   63   0.335   1.435   1.061
   13SOL    HW1   64   0.257   1.404   1.008
   13SOL    HW2   65   0.393   1.493   1.004
   14SOL     OW   66   0.438   0.392   1.499
   14SOL    HW1   67   0.520   0.336   1.508
   14SOL    HW2   68   0.357   0.334   1.503
   15SOL     OW   69   1.603   0.447   0.737
   15SOL    HW1   70   1.529   0.493   0.687
   15SOL    HW2   71   1.654   0.515   0.790
   16SOL     OW   72   0.231   1.713   0.483
   16SOL    HW1   73   0.265   1.790   0.537
   16SOL    HW2   74   0.275   1.713   0.393
   17SOL     OW   75   1.127   1.341   1.690
   17SOL    HW1   76   1.174   1.341   1.778
   17SOL    HW2   77   1.079   1.254   1.679
   18SOL     OW   78   0.230   1.434   0.538
   18SOL    HW1   79   0.204   1.530   0.538
   18SOL    HW2   80   0.159   1.380   0.583
   19SOL     OW   81   0.240   1.091   0.886
   19SOL    HW1   82   0.254   1.007   0.938
   19SOL    HW2   83   0.185   1.155   0.941
   20SOL     OW   84   0.620   1.786   1.439
   20SOL    HW1   85   0.528   1.769   1.474
   20SOL    HW2   86   0.648   1.878   1.465
   21SOL     OW   87   0.606   0.964   0.123
   21SOL    HW1   88   0.613   1.048   0.069
   21SOL    HW2   89   0.652   0.977   0.211
   22SOL     OW   90   1.594   0.114   1.480
   22SOL    HW1   91   1.576   0.181   1.408
   22SOL    HW2   92   1.591   0.160   1.569
   23SOL     OW   93   0.122   0.643   0.563
   23SOL    HW1   94   0.077   0.555   0.580
   23SOL    HW2   95   0.121   0.697   0.647
   24SOL     OW   96   1.842   1.767   0.359
   24SOL    HW1   97   1.896   1.738   0.439
   24SOL    HW2   98   1.872   1.857   0.330
   25SOL     OW   99   0.027   1.596   0.117
   25SOL    HW1  100   0.008   1.500   0.138
   25SOL    HW2  101  -0.006   1.654   0.192
   26SOL     OW  102   1.689   0.922   0.612
   26SOL    HW1  103   1.784   0.893   0.620
   26SOL    HW2  104   1.681   0.987   0.537
   27SOL     OW  105   1.641   1.108   0.432
   27SOL    HW1  106   1.727   1.110   0.380
   27SOL    HW2  107   1.655   1.155   0.520
   28SOL     OW  108   0.113   0.737   1.597
   28SOL    HW1  109   0.201   0.724   1.642
   28SOL    HW2  110   0.100   0.834   1.575
   29SOL     OW  111   0.613   1.365   0.726
   29SOL    HW1  112   0.564   1.278   0.735
   29SOL    HW2  113   0.590   1.408   0.639
   30SOL     OW  114   0.809   0.004   0.502
   30SOL    HW1  115   0.849   0.095   0.493
   30SOL    HW2  116   0.709   0.012   0.508
   31SOL     OW  117   0.197   0.976   1.264
   31SOL    HW1  118   0.286   0.931   1.250
   31SOL    HW2  119   0.124   0.911   1.245
   32SOL     OW  120   1.525   0.999   0.190
   32SOL    HW1  121   1.462   0.923   0.203
   32SOL    HW2  122   1.573   1.017   0.276
   33SOL     OW  123   0.317   0.251   1.801
   33SOL    HW1  124   0.388   0.322   1.807
   33SOL    HW2  125   0.229   0.290   1.829
   34SOL     OW  126   1.466   1.417   0.953
   34SOL    HW1  127   1.407   1.423   1.033
   34SOL    HW2  128   1.451   1.329   0.907
   35SOL     OW  129   1.667   1.714   0.572
   35SOL    HW1  130   1.626   1.691   0.484
   35SOL    HW2  131   1.649   1.640   0.637
   36SOL     OW  132   0.598   0.729   0.270
   36SOL    HW1  133   0.622   0.798   0.202
   36SOL    HW2  134   0.520   0.762   0.324
   37SOL     OW  135   1.281   0.345   0.944
   37SOL    HW1  136   1.195   0.295   0.931
   37SOL    HW2  137   1.343   0.291   1.000
   38SOL     OW  138   1.576   1.662   0.307
   38SOL    HW1  139   1.665   1.708   0.310
   38SOL    HW2  140   1.555   1.638   0.212
   39SOL     OW  141   0.807   0.605   1.465
   39SOL    HW1  142   0.760   0.602   1.554
   39SOL    HW2  143   0.756   0.550   1.399
   40SOL     OW  144   1.394   0.469   1.674
   40SOL    HW1  145   1.374   0.512   1.762
   40SOL    HW2  146   1.472   0.407   1.683
   41SOL     OW  147   0.973   0.890   1.572
   41SOL    HW1  148   1.019   0.806   1.543
   41SOL    HW2  149   0.917   0.924   1.497
   42SOL     OW  150   0.991   0.410   1.242
   42SOL    HW1  151   0.914   0.444   1.296
   42SOL    HW2  152   0.957   0.359   1.163
   43SOL     OW  153   1.041   0.701   0.429
   43SOL    HW1  154   1.067   0.697   0.525
   43SOL    HW2  155   0.956   0.650   0.415
   44SOL     OW  156   0.076   0.811   0.789
   44SOL    HW1  157   0.175   0.799   0.798
   44SOL    HW2  158   0.052   0.906   0.810
   45SOL     OW  159   0.130   1.821   1.571
   45SOL    HW1  160   0.120   1.806   1.670
   45SOL    HW2  161   0.044   1.857   1.535
   46SOL     OW  162   0.865   0.348   0.195
   46SOL    HW1  163   0.924   0.411   0.146
   46SOL    HW2  164   0.884   0.254   0.166
   47SOL     OW  165   1.719   0.585   1.831
   47SOL    HW1  166   1.693   0.674   1.795
   47SOL    HW2  167   1.717   0.517   1.758
   48SOL     OW  168   1.362   1.144   0.545
   48SOL    HW1  169   1.445   1.115   0.497
   48SOL    HW2  170   1.313   1.211   0.489
   49SOL     OW  171   0.550   0.196   0.885
   49SOL    HW1  172   0.545   0.191   0.985
   49SOL    HW2  173   0.552   0.292   0.856
   50SOL     OW  174   1.008   1.456   0.477
   50SOL    HW1  175   0.962   1.528   0.425
   50SOL    HW2  176   1.004   1.476   0.575
   51SOL     OW  177   0.351   1.801   0.853
   51SOL    HW1  178   0.401   1.715   0.859
   51SOL    HW2  179   0.416   1.878   0.850
   52SOL     OW  180   1.795   1.066   0.873
   52SOL    HW1  181   1.733   1.051   0.797
   52SOL    HW2  182   1.743   1.077   0.958
   53SOL     OW  183   1.227   1.550   1.506
   53SOL    HW1  184   1.233   1.473   1.570
   53SOL    HW2  185   1.175   1.524   1.426
   54SOL     OW  186   0.321   0.943   0.242
   54SOL    HW1  187   0.403   0.982   0.200
   54SOL    HW2  188   0.294   0.861   0.193
   55SOL     OW  189   1.458   0.735   0.728
   55SOL    HW1  190   1.453   0.670   0.803
   55SOL    HW2  191   1.538   0.794   0.741
   56SOL     OW  192   0.461   1.266   1.727
   56SOL    HW1  193   0.411   1.267   1.641
   56SOL    HW2  194   0.398   1.248   1.803
   57SOL     OW  195   1.111   1.776   0.237
   57SOL    HW1  196   1.051   1.714   0.287
   57SOL    HW2  197   1.142   1.732   0.152
   58SOL     OW  198   0.202   0.285   1.498
   58SOL    HW1  199   0.122   0.345   1.485
   58SOL    HW2  200   0.192   0.236   1.584
   59SOL     OW  201   1.632   1.377   0.081
   59SOL    HW1  202   1.600   1.471   0.071
   59SOL    HW2  203   1.556   1.314   0.069
   60SOL     OW  204   0.464   1.743   0.323
   60SOL    HW1  205   0.497   1.782   0.409
   60SOL    HW2  206   0.540   1.736   0.258
   61SOL     OW  207   1.400   0.107   0.426
   61SOL    HW1  208   1.376   0.070   0.336
   61SOL    HW2  209   1.499   0.123   0.430
   62SOL     OW  210   0.249   1.785   1.241
   62SOL    HW1  211   0.306   1.720   1.291
   62SOL    HW2  212   0.233   1.752   1.148
   63SOL     OW  213   0.940   1.698   0.904
   63SOL    HW1  214   1.020   1.641   0.925
   63SOL    HW2  215   0.891   1.658   0.827
   64SOL     OW  216   0.382   0.700   0.480
   64SOL    HW1  217   0.427   0.610   0.477
   64SOL    HW2  218   0.288   0.689   0.513
   65SOL     OW  219   1.547   0.222   1.729
   65SOL    HW1  220   1.542   0.259   1.821
   65SOL    HW2  221   1.475   0.153   1.717
   66SOL     OW  222   0.614   0.122   0.117
   66SOL    HW1  223   0.712   0.100   0.124
   66SOL    HW2  224   0.583   0.105   0.024
   67SOL     OW  225   0.781   0.264   1.749
   67SOL    HW1  226   0.848   0.203   1.792
   67SOL    HW2  227   0.708   0.283   1.814
   68SOL     OW  228   0.888   1.514   1.195
   68SOL    HW1  229   0.865   1.489   1.101
   68SOL    HW2  230   0.949   1.445   1.234
   69SOL     OW  231   1.351   0.590   1.433
   69SOL    HW1  232   1.379   0.547   1.518
   69SOL    HW2  233   1.376   0.686   1.434
   70SOL     OW  234   0.803   1.402   0.924
   70SOL    HW1  235   0.893   1.416   0.882
   70SOL    HW2  236   0.732   1.404   0.853
   71SOL     OW  237   0.922   0.503   0.899
   71SOL    HW1  238   0.897   0.494   0.803
   71SOL    HW2  239   0.970   0.421   0.930
   72SOL     OW  240   0.539   0.064   0.512
   72SOL    HW1  241   0.458   0.065   0.570
   72SOL    HW2  242   0.542   0.147   0.457
   73SOL     OW  243   1.434   1.188   0.041
   73SOL    HW1  244   1.466   1.112   0.098
   73SOL    HW2  245   1.342   1.215   0.071
   74SOL     OW  246   0.297   0.035   0.171
   74SOL    HW1  247   0.346   0.119   0.150
   74SOL    HW2  248   0.359  -0.030   0.216
   75SOL     OW  249   0.935   0.236   0.480
   75SOL    HW1  250   0.887   0.277   0.402
   75SOL    HW2  251   1.034   0.234   0.461
   76SOL     OW  252   1.076   0.683   1.464
   76SOL    HW1  253   0.996   0.622   1.467
   76SOL    HW2  254   1.157   0.630   1.440
   77SOL     OW  255   1.227   1.570   0.793
   77SOL    HW1  256   1.248   1.644   0.728
   77SOL    HW2  257   1.295   1.570   0.866
   78SOL     OW  258   0.459   1.152   0.741
   78SOL    HW1  259   0.388   1.125   0.806
   78SOL    HW2  260   0.433   1.124   0.648
   79SOL     OW  261   1.271   1.797   0.591
   79SOL    HW1  262   1.315   1.861   0.527
   79SOL    HW2  263   1.221   1.849   0.661
   80SOL     OW  264   1.032   0.549   0.016
   80SOL    HW1  265   0.991   0.631  -0.023
   80SOL    HW2  266   1.096   0.575   0.089
   81SOL     OW  267   0.078   0.556   1.386
   81SOL    HW1  268   0.170   0.555   1.345
   81SOL    HW2  269   0.072   0.630   1.453
   82SOL     OW  270   0.561   0.222   1.147
   82SOL    HW1  271   0.599   0.138   1.184
   82SOL    HW2  272   0.473   0.241   1.191
   83SOL     OW  273   0.866   0.454   0.642
   83SOL    HW1  274   0.834   0.526   0.580
   83SOL    HW2  275   0.890   0.373   0.589
   84SOL     OW  276   1.017   0.039   0.753
   84SOL    HW1  277   0.945   0.044   0.684
   84SOL    HW2  278   0.993  -0.030   0.822
   85SOL     OW  279   1.429   1.173   0.867
   85SOL    HW1  280   1.374   1.089   0.860
   85SOL    HW2  281   1.455   1.202   0.775
   86SOL     OW  282   1.466   0.590   0.992
   86SOL    HW1  283   1.436   0.495   0.999
   86SOL    HW2  284   1.539   0.606   1.058
   87SOL     OW  285   1.857   0.833   0.377
   87SOL    HW1  286   1.899   0.769   0.441
   87SOL    HW2  287   1.819   0.782   0.299
   88SOL     OW  288   0.488   1.385   0.174
   88SOL    HW1  289   0.401   1.370   0.221
   88SOL    HW2  290   0.471   1.411   0.079
   89SOL     OW  291   1.664   1.280   0.657
   89SOL    HW1  292   1.763   1.288   0.671
   89SOL    HW2  293   1.619   1.364   0.688
   90SOL     OW  294   1.390   0.575   0.078
   90SOL    HW1  295   1.336   0.554   0.159
   90SOL    HW2  296   1.481   0.534   0.087
   91SOL     OW  297   0.527   0.256   0.328
   91SOL    HW1  298   0.554   0.197   0.253
   91SOL    HW2  299   0.527   0.351   0.297
   92SOL     OW  300   1.064   1.347   1.340
   92SOL    HW1  301   0.984   1.324   1.395
   92SOL    HW2  302   1.147   1.321   1.389
   93SOL     OW  303   1.111   1.195   1.100
   93SOL    HW1  304   1.071   1.239   1.181
   93SOL    HW2  305   1.070   1.232   1.017
   94SOL     OW  306   0.915   0.089   1.402
   94SOL    HW1  307   0.940   0.069   1.307
   94SOL    HW2  308   0.987   0.145   1.444
   95SOL     OW  309   0.980   1.116   1.719
   95SOL    HW1  310   0.881   1.122   1.729
   95SOL    HW2  311   1.003   1.036   1.663
   96SOL     OW  312   0.705   1.050   0.368
   96SOL    HW1  313   0.691   1.057   0.467
   96SOL    HW2  314   0.789   0.999   0.350
   97SOL     OW  315   0.410   0.813   1.251
   97SOL    HW1  316   0.496   0.825   1.301
   97SOL    HW2  317   0.368   0.726   1.278
   98SOL     OW  318   1.274   0.386   1.262
   98SOL    HW1  319   1.295   0.460   1.326
   98SOL    HW2  320   1.185   0.403   1.219
   99SOL     OW  321   0.064   1.564   1.331
   99SOL    HW1  322   0.018   1.646   1.297
   99SOL    HW2  323   0.162   1.583   1.340
  100SOL     OW  324   0.367   1.100   0.501
  100SOL    HW1  325   0.360   1.183   0.445
  100SOL    HW2  326   0.371   1.020   0.441
  101SOL     OW  327   0.566   0.537   0.865
  101SOL    HW1  328   0.578   0.603   0.791
  101SOL    HW2  329   0.612   0.571   0.948
  102SOL     OW  330   1.252   1.348   0.388
  102SOL    HW1  331   1.302   1.425   0.428
  102SOL    HW2  332   1.157   1.350   0.420
  103SOL     OW  333   1.272   1.445   1.142
  103SOL    HW1  334   1.319   1.458   1.229
  103SOL    HW2  335   1.206   1.371   1.151
  104SOL     OW  336   1.582   0.639   0.472
  104SOL    HW1  337   1.551   0.700   0.545
  104SOL    HW2  338   1.632   0.691   0.403
  105SOL     OW  339   0.354   1.510   1.329
  105SOL    HW1  340   0.333   1.466   1.242
  105SOL    HW2  341   0.451   1.536   1.332
  106SOL     OW  342   0.402   0.751   1.598
  106SOL    HW1  343   0.470   0.806   1.551
  106SOL    HW2  344   0.442   0.663   1.625
  107SOL     OW  345   1.587   0.779   1.670
  107SOL    HW1  346   1.495   0.817   1.665
  107SOL    HW2  347   1.647   0.826   1.605
  108SOL     OW  348   1.013   0.105   1.770
  108SOL    HW1  349   1.019   0.190   1.718
  108SOL    HW2  350   1.045   0.029   1.713
  109SOL     OW  351   0.504   0.050   1.740
  109SOL    HW1  352   0.462  -0.007   1.670
  109SOL    HW2  353   0.438   0.119   1.772
  110SOL     OW  354   0.573   0.870   1.029
  110SOL    HW1  355   0.617   0.959   1.020
  110SOL    HW2  356   0.510   0.870   1.106
  111SOL     OW  357   1.360   0.862   1.045
  111SOL    HW1  358   1.285   0.862   0.979
  111SOL    HW2  359   1.397   0.770   1.054
  112SOL     OW  360   1.209   0.525   0.275
  112SOL    HW1  361   1.222   0.441   0.329
  112SOL    HW2  362   1.180   0.599   0.335
  113SOL     OW  363   0.307   0.213   1.231
  113SOL    HW1  364   0.284   0.250   1.321
  113SOL    HW2  365   0.277   0.118   1.225
  114SOL     OW  366   0.037   1.310   1.282
  114SOL    HW1  367   0.090   1.261   1.350
  114SOL    HW2  368   0.059   1.408   1.287
  115SOL     OW  369   0.732   0.634   1.064
  115SOL    HW1  370   0.791   0.608   0.988
  115SOL    HW2  371   0.704   0.730   1.053
  116SOL     OW  372   1.728   0.935   1.854
  116SOL    HW1  373   1.682   0.928   1.765
  116SOL    HW2  374   1.666   0.979   1.920
  117SOL     OW  375   0.307   0.063   0.618
  117SOL    HW1  376   0.296   0.157   0.651
  117SOL    HW2  377   0.302   0.000   0.695
  118SOL     OW  378   1.622   0.367   0.374
  118SOL    HW1  379   1.624   0.291   0.438
  118SOL    HW2  380   1.574   0.444   0.414
  119SOL     OW  381   1.023   0.766   0.966
  119SOL    HW1  382   1.038   0.787   1.062
  119SOL    HW2  383   0.993   0.671   0.957
  120SOL     OW  384   0.980   1.573   1.700
  120SOL    HW1  385   0.960   1.617   1.612
  120SOL    HW2  386   1.019   1.482   1.684
  121SOL     OW  387   0.350   0.898   1.804
  121SOL    HW1  388   0.426   0.942   1.852
  121SOL    HW2  389   0.385   0.851   1.722
  122SOL     OW  390   1.540   0.274   0.125
  122SOL    HW1  391   1.479   0.199   0.148
  122SOL    HW2  392   1.562   0.326   0.208
  123SOL     OW  393   1.303   0.838   0.042
  123SOL    HW1  394   1.337   0.745   0.057
  123SOL    HW2  395   1.321   0.865  -0.053
  124SOL     OW  396   1.068   1.333   0.849
  124SOL    HW1  397   1.075   1.249   0.794
  124SOL    HW2  398   1.130   1.402   0.813
  125SOL     OW  399   0.319   0.810   0.949
  125SOL    HW1  400   0.412   0.846   0.954
  125SOL    HW2  401   0.313   0.725   1.001
  126SOL     OW  402   0.339   0.509   1.006
  126SOL    HW1  403   0.287   0.426   0.989
  126SOL    HW2  404   0.416   0.514   0.942
  127SOL     OW  405   1.138   0.380   1.678
  127SOL    HW1  406   1.093   0.443   1.742
  127SOL    HW2  407   1.231   0.411   1.661
  128SOL     OW  408   1.160   0.207   1.477
  128SOL    HW1  409   1.160   0.271   1.554
  128SOL    HW2  410   1.188   0.255   1.394
  129SOL     OW  411   0.008   1.326   0.200
  129SOL    HW1  412  -0.085   1.347   0.169
  129SOL    HW2  413   0.018   1.227   0.213
  130SOL     OW  414   0.088   1.801   0.927
  130SOL    HW1  415   0.046   1.715   0.900
  130SOL    HW2  416   0.182   1.804   0.893
  131SOL     OW  417   0.504   1.568   0.910
  131SOL    HW1  418   0.570   1.642   0.919
  131SOL    HW2  419   0.548   1.489   0.868
  132SOL     OW  420   1.002   0.796   1.238
  132SOL    HW1  421   1.043   0.764   1.324
  132SOL    HW2  422   0.906   0.769   1.235
  133SOL     OW  423   0.040   0.544   1.114
  133SOL    HW1  424   0.125   0.511   1.073
  133SOL    HW2  425   0.053   0.559   1.212
  134SOL     OW  426   0.189   0.520   1.722
  134SOL    HW1  427   0.248   0.480   1.652
  134SOL    HW2  428   0.131   0.591   1.681
  135SOL     OW  429   1.369   0.950   1.660
  135SOL    HW1  430   1.408   1.039   1.680
  135SOL    HW2  431   1.379   0.930   1.563
  136SOL     OW  432   0.815   0.572   0.325
  136SOL    HW1  433   0.822   0.483   0.279
  136SOL    HW2  434   0.721   0.606   0.317
  137SOL     OW  435   1.657   0.604   1.206
  137SOL    HW1  436   1.619   0.535   1.268
  137SOL    HW2  437   1.739   0.568   1.162
  138SOL     OW  438   0.252   1.564   1.744
  138SOL    HW1  439   0.222   1.621   1.820
  138SOL    HW2  440   0.245   1.467   1.770
  139SOL     OW  441   0.671   0.464   1.269
  139SOL    HW1  442   0.637   0.375   1.239
  139SOL    HW2  443   0.697   0.518   1.189
  140SOL     OW  444   0.930   1.678   1.465
  140SOL    HW1  445   0.906   1.660   1.370
  140SOL    HW2  446   0.960   1.772   1.475
  141SOL     OW  447   0.473   0.500   0.191
  141SOL    HW1  448   0.534   0.580   0.195
  141SOL    HW2  449   0.378   0.531   0.198
  142SOL     OW  450   0.159   1.137   1.466
  142SOL    HW1  451   0.181   1.076   1.542
  142SOL    HW2  452   0.169   1.088   1.380
  143SOL     OW  453   1.347   1.059   1.234
  143SOL    HW1  454   1.371   0.996   1.160
  143SOL    HW2  455   1.257   1.099   1.216
  144SOL     OW  456   1.302   0.855   0.309
  144SOL    HW1  457   1.216   0.824   0.351
  144SOL    HW2  458   1.298   0.841   0.210
  145SOL     OW  459   1.759   1.747   1.154
  145SOL    HW1  460   1.820   1.777   1.081
  145SOL    HW2  461   1.721   1.658   1.132
  146SOL     OW  462   0.083   1.258   1.022
  146SOL    HW1  463   0.078   1.257   1.122
  146SOL    HW2  464   0.000   1.217   0.984
  147SOL     OW  465   0.688   1.662   1.716
  147SOL    HW1  466   0.632   1.743   1.725
  147SOL    HW2  467   0.740   1.666   1.630
  148SOL     OW  468   0.903   0.086   0.133
  148SOL    HW1  469   0.954   0.087   0.047
  148SOL    HW2  470   0.959   0.044   0.204
  149SOL     OW  471   1.726   0.135   0.523
  149SOL    HW1  472   1.799   0.118   0.456
  149SOL    HW2  473   1.695   0.048   0.561
  150SOL     OW  474   1.388   1.573   0.477
  150SOL    HW1  475   1.455   1.585   0.403
  150SOL    HW2  476   1.348   1.662   0.500
  151SOL     OW  477   0.130   1.794   1.851
  151SOL    HW1  478   0.089   1.720   1.904
  151SOL    HW2  479   0.194   1.845   1.909
  152SOL     OW  480   1.280   0.927   0.672
  152SOL    HW1  481   1.340   0.846   0.674
  152SOL    HW2  482   1.320   0.996   0.612
  153SOL     OW  483   0.830   1.273   1.422
  153SOL    HW1  484   0.825   1.306   1.517
  153SOL    HW2  485   0.744   1.292   1.376
  154SOL     OW  486   0.672   1.616   0.154
  154SOL    HW1  487   0.681   1.626   0.055
  154SOL    HW2  488   0.632   1.527   0.175
  155SOL     OW  489   1.650   1.720   1.394
  155SOL    HW1  490   1.703   1.730   1.310
  155SOL    HW2  491   1.623   1.810   1.428
  156SOL     OW  492   1.841   0.175   0.963
  156SOL    HW1  493   1.880   0.090   0.927
  156SOL    HW2  494   1.743   0.177   0.944
  157SOL     OW  495   0.263   0.326   0.720
  157SOL    HW1  496   0.184   0.377   0.686
  157SOL    HW2  497   0.254   0.311   0.818
  158SOL     OW  498   1.194   1.612   0.031
  158SOL    HW1  499   1.200   1.519   0.068
  158SOL    HW2  500   1.135   1.612  -0.049
  159SOL     OW  501   0.822   1.002   1.372
  159SOL    HW1  502   0.862   1.001   1.280
  159SOL    HW2  503   0.832   1.094   1.412
  160SOL     OW  504   0.916   0.910   0.291
  160SOL    HW1  505   0.979   0.948   0.223
  160SOL    HW2  506   0.956   0.827   0.330
  161SOL     OW  507   1.504   1.607   0.044
  161SOL    HW1  508   1.412   1.644   0.051
  161SOL    HW2  509   1.542   1.627  -0.046
  162SOL     OW  510   0.372   1.288   1.490
  162SOL    HW1  511   0.359   1.381   1.456
  162SOL    HW2  512   0.288   1.236   1.477
  163SOL     OW  513   1.039   1.098   0.696
  163SOL    HW1  514   0.969   1.051   0.750
  163SOL    HW2  515   1.098   1.030   0.653
  164SOL     OW  516   1.014   0.236   0.971
  164SOL    HW1  517   1.006   0.200   0.878
  164SOL    HW2  518   1.012   0.160   1.036
  165SOL     OW  519   0.590   1.487   0.491
  165SOL    HW1  520   0.632   1.429   0.421
  165SOL    HW2  521   0.546   1.566   0.447
  166SOL     OW  522   1.709   0.385   1.381
  166SOL    HW1  523   1.782   0.454   1.385
  166SOL    HW2  524   1.737   0.310   1.322
  167SOL     OW  525   0.255   1.348   0.290
  167SOL    HW1  526   0.159   1.349   0.263
  167SOL    HW2  527   0.267   1.401   0.374
  168SOL     OW  528   0.105   1.013   1.726
  168SOL    HW1  529   0.028   0.980   1.780
  168SOL    HW2  530   0.190   0.983   1.768
  169SOL     OW  531   0.672   0.203   1.489
  169SOL    HW1  532   0.762   0.187   1.449
  169SOL    HW2  533   0.680   0.208   1.588
  170SOL     OW  534   0.075   0.345   0.033
  170SOL    HW1  535  -0.017   0.317   0.004
  170SOL    HW2  536   0.106   0.422  -0.023
  171SOL     OW  537   1.440   0.856   1.398
  171SOL    HW1  538   1.383   0.908   1.335
  171SOL    HW2  539   1.536   0.868   1.374
  172SOL     OW  540   0.072   0.166   0.318
  172SOL    HW1  541   0.055   0.249   0.264
  172SOL    HW2  542   0.162   0.129   0.296
  173SOL     OW  543   1.183   1.335   0.119
  173SOL    HW1  544   1.084   1.324   0.121
  173SOL    HW2  545   1.217   1.350   0.212
  174SOL     OW  546   0.613   0.842   1.431
  174SOL    HW1  547   0.669   0.923   1.414
  174SOL    HW2  548   0.672   0.762   1.434
  175SOL     OW  549   1.493   1.767   0.959
  175SOL    HW1  550   1.526   1.831   0.890
  175SOL    HW2  551   1.559   1.761   1.034
  176SOL     OW  552   0.716   0.565   1.708
  176SOL    HW1  553   0.735   0.630   1.782
  176SOL    HW2  554   0.776   0.485   1.717
  177SOL     OW  555   0.390   1.741   1.560
  177SOL    HW1  556   0.299   1.782   1.558
  177SOL    HW2  557   0.383   1.647   1.592
  178SOL     OW  558   1.674   0.883   1.254
  178SOL    HW1  559   1.647   0.794   1.217
  178SOL    HW2  560   1.675   0.951   1.181
  179SOL     OW  561   1.225   0.325   0.449
  179SOL    HW1  562   1.290   0.251   0.438
  179SOL    HW2  563   1.245   0.375   0.533
  180SOL     OW  564   0.594   0.745   0.652
  180SOL    HW1  565   0.644   0.830   0.633
  180SOL    HW2  566   0.506   0.747   0.604
  181SOL     OW  567   1.777   0.342   1.642
  181SOL    HW1  568   1.760   0.373   1.548
  181SOL    HW2  569   1.693   0.305   1.680
  182SOL     OW  570   1.730   0.934   1.517
  182SOL    HW1  571   1.768   1.025   1.532
  182SOL    HW2  572   1.722   0.917   1.418
  183SOL     OW  573   0.859   1.374   0.016
  183SOL    HW1  574   0.813   1.389   0.104
  183SOL    HW2  575   0.903   1.459  -0.014
  184SOL     OW  576   0.661   1.790   0.953
  184SOL    HW1  577   0.615   1.878   0.940
  184SOL    HW2  578   0.760   1.802   0.946
  185SOL     OW  579   0.859   0.956   0.861
  185SOL    HW1  580   0.913   0.887   0.909
  185SOL    HW2  581   0.827   1.025   0.927
  186SOL     OW  582   1.083   0.984   0.087
  186SOL    HW1  583   1.060   1.037   0.005
  186SOL    HW2  584   1.164   0.928   0.068
  187SOL     OW  585   1.861   1.569   0.851
  187SOL    HW1  586   1.790   1.557   0.781
  187SOL    HW2  587   1.862   1.490   0.911
  188SOL     OW  588   0.221   1.314   1.844
  188SOL    HW1  589   0.156   1.241   1.823
  188SOL    HW2  590   0.225   1.328   1.942
  189SOL     OW  591   0.079   1.240   0.653
  189SOL    HW1  592   0.078   1.193   0.741
  189SOL    HW2  593   0.161   1.212   0.602
  190SOL     OW  594   0.672   1.391   1.624
  190SOL    HW1  595   0.594   1.341   1.662
  190SOL    HW2  596   0.669   1.486   1.655
  191SOL     OW  597   1.824   0.192   1.227
  191SOL    HW1  598   1.820   0.102   1.271
  191SOL    HW2  599   1.827   0.181   1.128
  192SOL     OW  600   0.428   0.424   0.520
  192SOL    HW1  601   0.458   0.352   0.458
  192SOL    HW2  602   0.389   0.384   0.603
  193SOL     OW  603   0.317   0.547   1.280
  193SOL    HW1  604   0.355   0.488   1.352
  193SOL    HW2  605   0.357   0.521   1.192
  194SOL     OW  606   0.812   1.586   0.687
  194SOL    HW1  607   0.844   1.596   0.593
  194SOL    HW2  608   0.733   1.524   0.689
  195SOL     OW  609   1.424   0.214   1.112
  195SOL    HW1  610   1.476   0.149   1.167
  195SOL    HW2  611   1.375   0.277   1.173
  196SOL     OW  612   1.001   0.034   1.154
  196SOL    HW1  613   0.938  -0.038   1.123
  196SOL    HW2  614   1.094  -0.002   1.154
  197SOL     OW  615   0.770   1.330   0.301
  197SOL    HW1  616   0.724   1.243   0.318
  197SOL    HW2  617   0.861   1.327   0.342
  198SOL     OW  618   0.618   1.567   1.284
  198SOL    HW1  619   0.613   1.649   1.341
  198SOL    HW2  620   0.707   1.564   1.239
  199SOL     OW  621   1.352   0.052   0.168
  199SOL    HW1  622   1.387   0.011   0.084
  199SOL    HW2  623   1.262   0.014   0.188
  200SOL     OW  624   1.300   0.453   0.691
  200SOL    HW1  625   1.241   0.533   0.695
  200SOL    HW2  626   1.315   0.418   0.784
  201SOL     OW  627   1.593   0.221   0.882
  201SOL    HW1  628   1.509   0.220   0.936
  201SOL    HW2  629   1.595   0.304   0.826
  202SOL     OW  630   0.039   1.077   0.300
  202SOL    HW1  631   0.138   1.066   0.291
  202SOL    HW2  632  -0.001   0.991   0.332
  203SOL     OW  633   0.875   1.646   0.337
  203SOL    HW1  634   0.798   1.611   0.283
  203SOL    HW2  635   0.843   1.717   0.399
  204SOL     OW  636   0.230   0.628   1.975
  204SOL    HW1  637   0.137   0.626   2.012
  204SOL    HW2  638   0.231   0.589   1.883
  205SOL     OW  639   0.225   0.275   2.858
  205SOL    HW1  640   0.260   0.258   2.950
  205SOL    HW2  641   0.137   0.230   2.846
  206SOL     OW  642   0.019   0.368   2.509
  206SOL    HW1  643  -0.063   0.411   2.548
  206SOL    HW2  644  -0.009   0.295   2.446
  207SOL     OW  645   0.569   1.275   3.027
  207SOL    HW1  646   0.476   1.268   2.990
  207SOL    HW2  647   0.580   1.364   3.071
  208SOL     OW  648   1.555   1.511   2.565
  208SOL    HW1  649   1.498   1.495   2.646
  208SOL    HW2  650   1.496   1.521   2.485
  209SOL     OW  651   1.135   0.703   2.579
  209SOL    HW1  652   1.192   0.781   2.554
  209SOL    HW2  653   1.075   0.729   2.655
  210SOL     OW  654   1.755   0.607   2.093
  210SOL    HW1  655   1.743   0.594   1.994
  210SOL    HW2  656   1.725   0.526   2.142
  211SOL     OW  657   0.768   1.144   2.885
  211SOL    HW1  658   0.690   1.161   2.945
  211SOL    HW2  659   0.802   1.231   2.849
  212SOL     OW  660   0.685   1.012   2.527
  212SOL    HW1  661   0.754   0.996   2.597
  212SOL    HW2  662   0.612   1.069   2.565
  213SOL     OW  663   0.335   1.435   2.923
  213SOL    HW1  664   0.257   1.404   2.870
  213SOL    HW2  665   0.393   1.493   2.866
  214SOL     OW  666   1.603   0.447   2.599
  214SOL    HW1  667   1.529   0.493   2.549
  214SOL    HW2  668   1.654   0.515   2.652
  215SOL     OW  669   0.231   1.713   2.345
  215SOL    HW1  670   0.265   1.790   2.399
  215SOL    HW2  671   0.275   1.713   2.255
  216SOL     OW  672   0.230   1.434   2.400
  216SOL    HW1  673   0.204   1.530   2.400
  216SOL    HW2  674   0.159   1.380   2.445
  217SOL     OW  675   0.240   1.091   2.748
  217SOL    HW1  676   0.254   1.007   2.800
  217SOL    HW2  677   0.185   1.155   2.803
  218SOL     OW  678   0.606   0.964   1.985
  218SOL    HW1  679   0.613   1.048   1.931
  218SOL    HW2  680   0.652   0.977   2.073
  219SOL     OW  681   0.122   0.643   2.425
  219SOL    HW1  682   0.077   0.555   2.442
  219SOL    HW2  683   0.121   0.697   2.509
  220SOL     OW  684   1.842   1.767   2.221
  220SOL    HW1  685   1.896   1.738   2.301
  220SOL    HW2  686   1.872   1.857   2.192
  221SOL     OW  687   0.027   1.596   1.979
  221SOL    HW1  688   0.008   1.500   2.000
  221SOL    HW2  689  -0.006   1.654   2.054
  222SOL     OW  690   1.689   0.922   2.474
  222SOL    HW1  691   1.784   0.893   2.482
  222SOL    HW2  692   1.681   0.987   2.399
  223SOL     OW  693   1.641   1.108   2.294
  223SOL    HW1  694   1.727   1.110   2.242
  223SOL    HW2  695   1.655   1.155   2.382
  224SOL     OW  696   0.613   1.365   2.588
  224SOL    HW1  697   0.564   1.278   2.597
  224SOL    HW2  698   0.590   1.408   2.501
  225SOL     OW  699   0.809   0.004   2.364
  225SOL    HW1  700   0.849   0.095   2.355
  225SOL    HW2  701   0.709   0.012   2.370
  226SOL     OW  702   0.197   0.976   3.126
  226SOL    HW1  703   0.286   0.931   3.112
  226SOL    HW2  704   0.124   0.911   3.107
  227SOL     OW  705   1.525   0.999   2.052
  227SOL    HW1  706   1.462   0.923   2.065
  227SOL    HW2  707   1.573   1.017   2.138
  228SOL     OW  708   1.466   1.417   2.815
  228SOL    HW1  709   1.407   1.423   2.895
  228SOL    HW2  710   1.451   1.329   2.769
  229SOL     OW  711   1.667   1.714   2.434
  229SOL    HW1  712   1.626   1.691   2.346
  229SOL    HW2  713   1.649   1.640   2.499
  230SOL     OW  714   0.598   0.729   2.132
  230SOL    HW1  715   0.622   0.798   2.064
  230SOL    HW2  716   0.520   0.762   2.186
  231SOL     OW  717   1.281   0.345   2.806
  231SOL    HW1  718   1.195   0.295   2.793
  231SOL    HW2  719   1.343   0.291   2.862
  232SOL     OW  720   1.576   1.662   2.169
  232SOL    HW1  721   1.665   1.708   2.172
  232SOL    HW2  722   1.555   1.638   2.074
  233SOL     OW  723   1.041   0.701   2.291
  233SOL    HW1  724   1.067   0.697   2.387
  233SOL    HW2  725   0.956   0.650   2.277
  234SOL     OW  726   0.076   0.811   2.651
  234SOL    HW1  727   0.175   0.799   2.660
  234SOL    HW2  728   0.052   0.906   2.672
  235SOL     OW  729   0.865   0.348   2.057
  235SOL    HW1  730   0.924   0.411   2.008
  235SOL    HW2  731   0.884   0.254   2.028
  236SOL     OW  732   1.362   1.144   2.407
  236SOL    HW1  733   1.445   1.115   2.359
  236SOL    HW2  734   1.313   1.211   2.351
  237SOL     OW  735   0.550   0.196   2.747
  237SOL    HW1  736   0.545   0.191   2.847
  237SOL    HW2  737   0.552   0.292   2.718
  238SOL     OW  738   1.008   1.456   2.339
  238SOL    HW1  739   0.962   1.528   2.287
  238SOL    HW2  740   1.004   1.476   2.437
  239SOL     OW  741   0.351   1.801   2.715
  239SOL    HW1  742   0.401   1.715   2.721
  239SOL    HW2  743   0.416   1.878   2.712
  240SOL     OW  744   1.795   1.066   2.735
  240SOL    HW1  745   1.733   1.051   2.659
  240SOL    HW2  746   1.743   1.077   2.820
  241SOL     OW  747   0.321   0.943   2.104
  241SOL    HW1  748   0.403   0.982   2.062
  241SOL    HW2  749   0.294   0.861   2.055
  242SOL     OW  750   1.458   0.735   2.590
  242SOL    HW1  751   1.453   0.670   2.665
  242SOL    HW2  752   1.538   0.794   2.603
  243SOL     OW  753   1.111   1.776   2.099
  243SOL    HW1  754   1.051   1.714   2.149
  243SOL    HW2  755   1.142   1.732   2.014
  244SOL     OW  756   0.464   1.743   2.185
  244SOL    HW1  757   0.497   1.782   2.271
  244SOL    HW2  758   0.540   1.736   2.120
  245SOL     OW  759   1.400   0.107   2.288
  245SOL    HW1  760   1.376   0.070   2.198
  245SOL    HW2  761   1.499   0.123   2.292
  246SOL     OW  762   0.249   1.785   3.103
  246SOL    HW1  763   0.306   1.720   3.153
  246SOL    HW2  764   0.233   1.752   3.010
  247SOL     OW  765   0.940   1.698   2.766
  247SOL    HW1  766   1.020   1.641   2.787
  247SOL    HW2  767   0.891   1.658   2.689
  248SOL     OW  768   0.382   0.700   2.342
  248SOL    HW1  769   0.427   0.610   2.339
  248SOL    HW2  770   0.288   0.689   2.375
  249SOL     OW  771   0.614   0.122   1.979
  249SOL    HW1  772   0.712   0.100   1.986
  249SOL    HW2  773   0.583   0.105   1.886
  250SOL     OW  774   0.803   1.402   2.786
  250SOL    HW1  775   0.893   1.416   2.744
  250SOL    HW2  776   0.732   1.404   2.715
  251SOL     OW  777   0.922   0.503   2.761
  251SOL    HW1  778   0.897   0.494   2.665
  251SOL    HW2  779   0.970   0.421   2.792
  252SOL     OW  780   0.539   0.064   2.374
  252SOL    HW1  781   0.458   0.065   2.432
  252SOL    HW2  782   0.542   0.147   2.319
  253SOL     OW  783   1.434   1.188   1.903
  253SOL    HW1  784   1.466   1.112   1.960
  253SOL    HW2  785   1.342   1.215   1.933
  254SOL     OW  786   0.297   0.035   2.033
  254SOL    HW1  787   0.346   0.119   2.012
  254SOL    HW2  788   0.359  -0.030   2.078
  255SOL     OW  789   0.935   0.236   2.342
  255SOL    HW1  790   0.887   0.277   2.264
  255SOL    HW2  791   1.034   0.234   2.323
  256SOL     OW  792   1.227   1.570   2.655
  256SOL    HW1  793   1.248   1.644   2.590
  256SOL    HW2  794   1.295   1.570   2.728
  257SOL     OW  795   0.459   1.152   2.603
  257SOL    HW1  796   0.388   1.125   2.668
  257SOL    HW2  797   0.433   1.124   2.510
  258SOL     OW  798   1.271   1.797   2.453
  258SOL    HW1  799   1.315   1.861   2.389
  258SOL    HW2  800   1.221   1.849   2.523
  259SOL     OW  801   1.032   0.549   1.878
  259SOL    HW1  802   0.991   0.631   1.839
  259SOL    HW2  803   1.096   0.575   1.951
  260SOL     OW  804   0.866   0.454   2.504
  260SOL    HW1  805   0.834   0.526   2.442
  260SOL    HW2  806   0.890   0.373   2.451
  261SOL     OW  807   1.017   0.039   2.615
  261SOL    HW1  808   0.945   0.044   2.546
  261SOL    HW2  809   0.993  -0.030   2.684
  262SOL     OW  810   1.429   1.173   2.729
  262SOL    HW1  811   1.374   1.089   2.722
  262SOL    HW2  812   1.455   1.202   2.637
  263SOL     OW  813   1.466   0.590   2.854
  263SOL    HW1  814   1.436   0.495   2.861
  263SOL    HW2  815   1.539   0.606   2.920
  264SOL     OW  816   1.857   0.833   2.239
  264SOL    HW1  817   1.899   0.769   2.303
  264SOL    HW2  818   1.819   0.782   2.161
  265SOL     OW  819   0.488   1.385   2.036
  265SOL    HW1  820   0.401   1.370   2.083
  265SOL    HW2  821   0.471   1.411   1.941
  266SOL     OW  822   1.664   1.280   2.519
  266SOL    HW1  823   1.763   1.288   2.533
  266SOL    HW2  824   1.619   1.364   2.550
  267SOL     OW  825   1.390   0.575   1.940
  267SOL    HW1  826   1.336   0.554   2.021
  267SOL    HW2  827   1.481   0.534   1.949
  268SOL     OW  828   0.527   0.256   2.190
  268SOL    HW1  829   0.554   0.197   2.115
  268SOL    HW2  830   0.527   0.351   2.159
  269SOL     OW  831   1.111   1.195   2.962
  269SOL    HW1  832   1.071   1.239   3.043
  269SOL    HW2  833   1.070   1.232   2.879
  270SOL     OW  834   1.638   1.099   2.941
  270SOL    HW1  835   1.643   1.180   3.000
  270SOL    HW2  836   1.552   1.101   2.890
  271SOL     OW  837   0.705   1.050   2.230
  271SOL    HW1  838   0.691   1.057   2.329
  271SOL    HW2  839   0.789   0.999   2.212
  272SOL     OW  840   0.410   0.813   3.113
  272SOL    HW1  841   0.496   0.825   3.163
  272SOL    HW2  842   0.368   0.726   3.140
  273SOL     OW  843   0.367   1.100   2.363
  273SOL    HW1  844   0.360   1.183   2.307
  273SOL    HW2  845   0.371   1.020   2.303
  274SOL     OW  846   0.566   0.537   2.727
  274SOL    HW1  847   0.578   0.603   2.653
  274SOL    HW2  848   0.612   0.571   2.810
  275SOL     OW  849   1.252   1.348   2.250
  275SOL    HW1  850   1.302   1.425   2.290
  275SOL    HW2  851   1.157   1.350   2.282
  276SOL     OW  852   1.272   1.445   3.004
  276SOL    HW1  853   1.319   1.458   3.091
  276SOL    HW2  854   1.206   1.371   3.013
  277SOL     OW  855   1.582   0.639   2.334
  277SOL    HW1  856   1.551   0.700   2.407
  277SOL    HW2  857   1.632   0.691   2.265
  278SOL     OW  858   0.573   0.870   2.891
  278SOL    HW1  859   0.617   0.959   2.882
  278SOL    HW2  860   0.510   0.870   2.968
  279SOL     OW  861   1.209   0.525   2.137
  279SOL    HW1  862   1.222   0.441   2.191
  279SOL    HW2  863   1.180   0.599   2.197
  280SOL     OW  864   0.307   0.213   3.093
  280SOL    HW1  865   0.284   0.250   3.183
  280SOL    HW2  866   0.277   0.118   3.087
  281SOL     OW  867   0.732   0.634   2.926
  281SOL    HW1  868   0.791   0.608   2.850
  281SOL    HW2  869   0.704   0.730   2.915
  282SOL     OW  870   0.307   0.063   2.480
  282SOL    HW1  871   0.296   0.157   2.513
  282SOL    HW2  872   0.302   0.000   2.557
  283SOL     OW  873   1.622   0.367   2.236
  283SOL    HW1  874   1.624   0.291   2.300
  283SOL    HW2  875   1.574   0.444   2.276
  284SOL     OW  876   1.023   0.766   2.828
  284SOL    HW1  877   1.038   0.787   2.924
  284SOL    HW2  878   0.993   0.671   2.819
  285SOL     OW  879   1.540   0.274   1.987
  285SOL    HW1  880   1.479   0.199   2.010
  285SOL    HW2  881   1.562   0.326   2.070
  286SOL     OW  882   1.303   0.838   1.904
  286SOL    HW1  883   1.337   0.745   1.919
  286SOL    HW2  884   1.321   0.865   1.809
  287SOL     OW  885   1.068   1.333   2.711
  287SOL    HW1  886   1.075   1.249   2.656
  287SOL    HW2  887   1.130   1.402   2.675
  288SOL     OW  888   0.319   0.810   2.811
  288SOL    HW1  889   0.412   0.846   2.816
  288SOL    HW2  890   0.313   0.725   2.863
  289SOL     OW  891   0.339   0.509   2.868
  289SOL    HW1  892   0.287   0.426   2.851
  289SOL    HW2  893   0.416   0.514   2.804
  290SOL     OW  894   0.008   1.326   2.062
  290SOL    HW1  895  -0.085   1.347   2.031
  290SOL    HW2  896   0.018   1.227   2.075
  291SOL     OW  897   0.088   1.801   2.789
  291SOL    HW1  898   0.046   1.715   2.762
  291SOL    HW2  899   0.182   1.804   2.755
  292SOL     OW  900   0.504   1.568   2.772
  292SOL    HW1  901   0.570   1.642   2.781
  292SOL    HW2  902   0.548   1.489   2.730
  293SOL     OW  903   1.002   0.796   3.100
  293SOL    HW1  904   1.043   0.764   3.186
  293SOL    HW2  905   0.906   0.769   3.097
  294SOL     OW  906   0.040   0.544   2.976
  294SOL    HW1  907   0.125   0.511   2.935
  294SOL    HW2  908   0.053   0.559   3.074
  295SOL     OW  909   0.815   0.572   2.187
  295SOL    HW1  910   0.822   0.483   2.141
  295SOL    HW2  911   0.721   0.606   2.179
  296SOL     OW  912   1.657   0.604   3.068
  296SOL    HW1  913   1.619   0.535   3.130
  296SOL    HW2  914   1.739   0.568   3.024
  297SOL     OW  915   0.671   0.464   3.131
  297SOL    HW1  916   0.637   0.375   3.101
  297SOL    HW2  917   0.697   0.518   3.051
  298SOL     OW  918   0.473   0.500   2.053
  298SOL    HW1  919   0.534   0.580   2.057
  298SOL    HW2  920   0.378   0.531   2.060
  299SOL     OW  921   1.302   0.855   2.171
  299SOL    HW1  922   1.216   0.824   2.213
  299SOL    HW2  923   1.298   0.841   2.072
  300SOL     OW  924   1.759   1.747   3.016
  300SOL    HW1  925   1.820   1.777   2.943
  300SOL    HW2  926   1.721   1.658   2.994
  301SOL     OW  927   0.083   1.258   2.884
  301SOL    HW1  928   0.078   1.257   2.984
  301SOL    HW2  929   0.000   1.217   2.846
  302SOL     OW  930   1.726   0.135   2.385
  302SOL    HW1  931   1.799   0.118   2.318
  302SOL    HW2  932   1.695   0.048   2.423
  303SOL     OW  933   1.388   1.573   2.339
  303SOL    HW1  934   1.455   1.585   2.265
  303SOL    HW2  935   1.348   1.662   2.362
  304SOL     OW  936   1.280   0.927   2.534
  304SOL    HW1  937   1.340   0.846   2.536
  304SOL    HW2  938   1.320   0.996   2.474
  305SOL     OW  939   0.672   1.616   2.016
  305SOL    HW1  940   0.681   1.626   1.917
  305SOL    HW2  941   0.632   1.527   2.037
  306SOL     OW  942   1.841   0.175   2.825
  306SOL    HW1  943   1.880   0.090   2.789
  306SOL    HW2  944   1.743   0.177   2.806
  307SOL     OW  945   0.263   0.326   2.582
  307SOL    HW1  946   0.184   0.377   2.548
  307SOL    HW2  947   0.254   0.311   2.680
  308SOL     OW  948   0.822   1.002   3.234
  308SOL    HW1  949   0.862   1.001   3.142
  308SOL    HW2  950   0.832   1.094   3.274
  309SOL     OW  951   0.916   0.910   2.153
  309SOL    HW1  952   0.979   0.948   2.085
  309SOL    HW2  953   0.956   0.827   2.192
  310SOL     OW  954   1.039   1.098   2.558
  310SOL    HW1  955   0.969   1.051   2.612
  310SOL    HW2  956   1.098   1.030   2.515
  311SOL     OW  957   1.014   0.236   2.833
  311SOL    HW1  958   1.006   0.200   2.740
  311SOL    HW2  959   1.012   0.160   2.898
  312SOL     OW  960   0.590   1.487   2.353
  312SOL    HW1  961   0.632   1.429   2.283
  312SOL    HW2  962   0.546   1.566   2.309
  313SOL     OW  963   1.709   0.385   3.243
  313SOL    HW1  964   1.782   0.454   3.247
  313SOL    HW2  965   1.737   0.310   3.184
  314SOL     OW  966   0.255   1.348   2.152
  314SOL    HW1  967   0.159   1.349   2.125
  314SOL    HW2  968   0.267   1.401   2.236
  315SOL     OW  969   0.075   0.345   1.895
  315SOL    HW1  970  -0.017   0.317   1.866
  315SOL    HW2  971   0.106   0.422   1.839
  316SOL     OW  972   0.072   0.166   2.180
  316SOL    HW1  973   0.055   0.249   2.126
  316SOL    HW2  974   0.162   0.129   2.158
  317SOL     OW  975   1.183   1.335   1.981
  317SOL    HW1  976   1.084   1.324   1.983
  317SOL    HW2  977   1.217   1.350   2.074
  318SOL     OW  978   1.493   1.767   2.821
  318SOL    HW1  979   1.526   1.831   2.752
  318SOL    HW2  980   1.559   1.761   2.896
  319SOL     OW  981   1.674   0.883   3.116
  319SOL    HW1  982   1.647   0.794   3.079
  319SOL    HW2  983   1.675   0.951   3.043
  320SOL     OW  984   1.225   0.325   2.311
  320SOL    HW1  985   1.290   0.251   2.300
  320SOL    HW2  986   1.245   0.375   2.395
  321SOL     OW  987   0.594   0.745   2.514
  321SOL    HW1  988   0.644   0.830   2.495
  321SOL    HW2  989   0.506   0.747   2.466
  322SOL     OW  990   0.859   1.374   1.878
  322SOL    HW1  991   0.813   1.389   1.966
  322SOL    HW2  992   0.903   1.459   1.848
  323SOL     OW  993   0.661   1.790   2.815
  323SOL    HW1  994   0.615   1.878   2.802
  323SOL    HW2  995   0.760   1.802   2.808
  324SOL     OW  996   0.859   0.956   2.723
  324SOL    HW1  997   0.913   0.887   2.771
  324SOL    HW2  998   0.827   1.025   2.789
  325SOL     OW  999   1.083   0.984   1.949
  325SOL    HW1 1000   1.060   1.037   1.867
  325SOL    HW2 1001   1.164   0.928   1.930
  326SOL     OW 1002   1.861   1.569   2.713
  326SOL    HW1 1003   1.790   1.557   2.643
  326SOL    HW2 1004   1.862   1.490   2.773
  327SOL     OW 1005   0.079   1.240   2.515
  327SOL    HW1 1006   0.078   1.193   2.603
  327SOL    HW2 1007   0.161   1.212   2.464
  328SOL     OW 1008   1.824   0.192   3.089
  328SOL    HW1 1009   1.820   0.102   3.133
  328SOL    HW2 1010   1.827   0.181   2.990
  329SOL     OW 1011   0.428   0.424   2.382
  329SOL    HW1 1012   0.458   0.352   2.320
  329SOL    HW2 1013   0.389   0.384   2.465
  330SOL     OW 1014   0.812   1.586   2.549
  330SOL    HW1 1015   0.844   1.596   2.455
  330SOL    HW2 1016   0.733   1.524   2.551
  331SOL     OW 1017   1.424   0.214   2.974
  331SOL    HW1 1018   1.476   0.149   3.029
  331SOL    HW2 1019   1.375   0.277   3.035
  332SOL     OW 1020   0.770   1.330   2.163
  332SOL    HW1 1021   0.724   1.243   2.180
  332SOL    HW2 1022   0.861   1.327   2.204
  333SOL     OW 1023   1.352   0.052   2.030
  333SOL    HW1 1024   1.387   0.011   1.946
  333SOL    HW2 1025   1.262   0.014   2.050
  334SOL     OW 1026   1.300   0.453   2.553
  334SOL    HW1 1027   1.241   0.533   2.557
  334SOL    HW2 1028   1.315   0.418   2.646
  335SOL     OW 1029   1.593   0.221   2.744
  335SOL    HW1 1030   1.509   0.220   2.798
  335SOL    HW2 1031   1.595   0.304   2.688
  336SOL     OW 1032   0.039   1.077   2.162
  336SOL    HW1 1033   0.138   1.066   2.153
  336SOL    HW2 1034  -0.001   0.991   2.194
  337SOL     OW 1035   0.875   1.646   2.199
  337SOL    HW1 1036   0.798   1.611   2.145
  337SOL    HW2 1037   0.843   1.717   2.261
  338SOL     OW 1038   0.230   2.490   0.113
  338SOL    HW1 1039   0.137   2.488   0.150
  338SOL    HW2 1040   0.231   2.451   0.021
  339SOL     OW 1041   0.225   2.137   0.996
  339SOL    HW1 1042   0.260   2.120   1.088
  339SOL    HW2 1043   0.137   2.092   0.984
  340SOL     OW 1044   0.019   2.230   0.647
  340SOL    HW1 1045  -0.063   2.273   0.686
  340SOL    HW2 1046  -0.009   2.157   0.584
  341SOL     OW 1047   1.135   2.565   0.717
  341SOL    HW1 1048   1.192   2.643   0.692
  341SOL    HW2 1049   1.075   2.591   0.793
  342SOL     OW 1050   1.755   2.469   0.231
  342SOL    HW1 1051   1.743   2.456   0.132
  342SOL    HW2 1052   1.725   2.388   0.280
  343SOL     OW 1053   0.768   3.006   1.023
  343SOL    HW1 1054   0.690   3.023   1.083
  343SOL    HW2 1055   0.802   3.093   0.987
  344SOL     OW 1056   0.850   2.660   1.823
  344SOL    HW1 1057   0.846   2.736   1.888
  344SOL    HW2 1058   0.872   2.696   1.732
  345SOL     OW 1059   0.685   2.874   0.665
  345SOL    HW1 1060   0.754   2.858   0.735
  345SOL    HW2 1061   0.612   2.931   0.703
  346SOL     OW 1062   1.460   3.367   1.339
  346SOL    HW1 1063   1.484   3.461   1.365
  346SOL    HW2 1064   1.444   3.313   1.421
  347SOL     OW 1065   0.438   2.254   1.499
  347SOL    HW1 1066   0.520   2.198   1.508
  347SOL    HW2 1067   0.357   2.196   1.503
  348SOL     OW 1068   1.603   2.309   0.737
  348SOL    HW1 1069   1.529   2.355   0.687
  348SOL    HW2 1070   1.654   2.377   0.790
  349SOL     OW 1071   0.240   2.953   0.886
  349SOL    HW1 1072   0.254   2.869   0.938
  349SOL    HW2 1073   0.185   3.017   0.941
  350SOL     OW 1074   0.606   2.826   0.123
  350SOL    HW1 1075   0.613   2.910   0.069
  350SOL    HW2 1076   0.652   2.839   0.211
  351SOL     OW 1077   1.594   1.976   1.480
  351SOL    HW1 1078   1.576   2.043   1.408
  351SOL    HW2 1079   1.591   2.022   1.569
  352SOL     OW 1080   0.122   2.505   0.563
  352SOL    HW1 1081   0.077   2.417   0.580
  352SOL    HW2 1082   0.121   2.559   0.647
  353SOL     OW 1083   1.689   2.784   0.612
  353SOL    HW1 1084   1.784   2.755   0.620
  353SOL    HW2 1085   1.681   2.849   0.537
  354SOL     OW 1086   0.113   2.599   1.597
  354SOL    HW1 1087   0.201   2.586   1.642
  354SOL    HW2 1088   0.100   2.696   1.575
  355SOL     OW 1089   0.613   3.227   0.726
  355SOL    HW1 1090   0.564   3.140   0.735
  355SOL    HW2 1091   0.590   3.270   0.639
  356SOL     OW 1092   1.293   3.090   1.423
  356SOL    HW1 1093   1.330   3.017   1.365
  356SOL    HW2 1094   1.345   3.095   1.508
  357SOL     OW 1095   0.809   1.866   0.502
  357SOL    HW1 1096   0.849   1.957   0.493
  357SOL    HW2 1097   0.709   1.874   0.508
  358SOL     OW 1098   0.197   2.838   1.264
  358SOL    HW1 1099   0.286   2.793   1.250
  358SOL    HW2 1100   0.124   2.773   1.245
  359SOL     OW 1101   1.525   2.861   0.190
  359SOL    HW1 1102   1.462   2.785   0.203
  359SOL    HW2 1103   1.573   2.879   0.276
  360SOL     OW 1104   0.317   2.113   1.801
  360SOL    HW1 1105   0.388   2.184   1.807
  360SOL    HW2 1106   0.229   2.152   1.829
  361SOL     OW 1107   0.598   2.591   0.270
  361SOL    HW1 1108   0.622   2.660   0.202
  361SOL    HW2 1109   0.520   2.624   0.324
  362SOL     OW 1110   1.281   2.207   0.944
  362SOL    HW1 1111   1.195   2.157   0.931
  362SOL    HW2 1112   1.343   2.153   1.000
  363SOL     OW 1113   0.807   2.467   1.465
  363SOL    HW1 1114   0.760   2.464   1.554
  363SOL    HW2 1115   0.756   2.412   1.399
  364SOL     OW 1116   1.394   2.331   1.674
  364SOL    HW1 1117   1.374   2.374   1.762
  364SOL    HW2 1118   1.472   2.269   1.683
  365SOL     OW 1119   0.973   2.752   1.572
  365SOL    HW1 1120   1.019   2.668   1.543
  365SOL    HW2 1121   0.917   2.786   1.497
  366SOL     OW 1122   0.991   2.272   1.242
  366SOL    HW1 1123   0.914   2.306   1.296
  366SOL    HW2 1124   0.957   2.221   1.163
  367SOL     OW 1125   1.041   2.563   0.429
  367SOL    HW1 1126   1.067   2.559   0.525
  367SOL    HW2 1127   0.956   2.512   0.415
  368SOL     OW 1128   0.076   2.673   0.789
  368SOL    HW1 1129   0.175   2.661   0.798
  368SOL    HW2 1130   0.052   2.768   0.810
  369SOL     OW 1131   0.865   2.210   0.195
  369SOL    HW1 1132   0.924   2.273   0.146
  369SOL    HW2 1133   0.884   2.116   0.166
  370SOL     OW 1134   1.719   2.447   1.831
  370SOL    HW1 1135   1.693   2.536   1.795
  370SOL    HW2 1136   1.717   2.379   1.758
  371SOL     OW 1137   0.550   2.058   0.885
  371SOL    HW1 1138   0.545   2.053   0.985
  371SOL    HW2 1139   0.552   2.154   0.856
  372SOL     OW 1140   1.795   2.928   0.873
  372SOL    HW1 1141   1.733   2.913   0.797
  372SOL    HW2 1142   1.743   2.939   0.958
  373SOL     OW 1143   0.321   2.805   0.242
  373SOL    HW1 1144   0.403   2.844   0.200
  373SOL    HW2 1145   0.294   2.723   0.193
  374SOL     OW 1146   1.458   2.597   0.728
  374SOL    HW1 1147   1.453   2.532   0.803
  374SOL    HW2 1148   1.538   2.656   0.741
  375SOL     OW 1149   0.202   2.147   1.498
  375SOL    HW1 1150   0.122   2.207   1.485
  375SOL    HW2 1151   0.192   2.098   1.584
  376SOL     OW 1152   1.400   1.969   0.426
  376SOL    HW1 1153   1.376   1.932   0.336
  376SOL    HW2 1154   1.499   1.985   0.430
  377SOL     OW 1155   0.382   2.562   0.480
  377SOL    HW1 1156   0.427   2.472   0.477
  377SOL    HW2 1157   0.288   2.551   0.513
  378SOL     OW 1158   1.547   2.084   1.729
  378SOL    HW1 1159   1.542   2.121   1.821
  378SOL    HW2 1160   1.475   2.015   1.717
  379SOL     OW 1161   0.614   1.984   0.117
  379SOL    HW1 1162   0.712   1.962   0.124
  379SOL    HW2 1163   0.583   1.967   0.024
  380SOL     OW 1164   0.781   2.126   1.749
  380SOL    HW1 1165   0.848   2.065   1.792
  380SOL    HW2 1166   0.708   2.145   1.814
  381SOL     OW 1167   1.351   2.452   1.433
  381SOL    HW1 1168   1.379   2.409   1.518
  381SOL    HW2 1169   1.376   2.548   1.434
  382SOL     OW 1170   0.922   2.365   0.899
  382SOL    HW1 1171   0.897   2.356   0.803
  382SOL    HW2 1172   0.970   2.283   0.930
  383SOL     OW 1173   0.539   1.926   0.512
  383SOL    HW1 1174   0.458   1.927   0.570
  383SOL    HW2 1175   0.542   2.009   0.457
  384SOL     OW 1176   0.297   1.897   0.171
  384SOL    HW1 1177   0.346   1.981   0.150
  384SOL    HW2 1178   0.359   1.832   0.216
  385SOL     OW 1179   0.935   2.098   0.480
  385SOL    HW1 1180   0.887   2.139   0.402
  385SOL    HW2 1181   1.034   2.096   0.461
  386SOL     OW 1182   1.076   2.545   1.464
  386SOL    HW1 1183   0.996   2.484   1.467
  386SOL    HW2 1184   1.157   2.492   1.440
  387SOL     OW 1185   0.459   3.014   0.741
  387SOL    HW1 1186   0.388   2.987   0.806
  387SOL    HW2 1187   0.433   2.986   0.648
  388SOL     OW 1188   1.032   2.411   0.016
  388SOL    HW1 1189   0.991   2.493  -0.023
  388SOL    HW2 1190   1.096   2.437   0.089
  389SOL     OW 1191   0.078   2.418   1.386
  389SOL    HW1 1192   0.170   2.417   1.345
  389SOL    HW2 1193   0.072   2.492   1.453
  390SOL     OW 1194   0.561   2.084   1.147
  390SOL    HW1 1195   0.599   2.000   1.184
  390SOL    HW2 1196   0.473   2.103   1.191
  391SOL     OW 1197   0.866   2.316   0.642
  391SOL    HW1 1198   0.834   2.388   0.580
  391SOL    HW2 1199   0.890   2.235   0.589
  392SOL     OW 1200   1.017   1.901   0.753
  392SOL    HW1 1201   0.945   1.906   0.684
  392SOL    HW2 1202   0.993   1.832   0.822
  393SOL     OW 1203   1.429   3.035   0.867
  393SOL    HW1 1204   1.374   2.951   0.860
  393SOL    HW2 1205   1.455   3.064   0.775
  394SOL     OW 1206   1.466   2.452   0.992
  394SOL    HW1 1207   1.436   2.357   0.999
  394SOL    HW2 1208   1.539   2.468   1.058
  395SOL     OW 1209   1.857   2.695   0.377
  395SOL    HW1 1210   1.899   2.631   0.441
  395SOL    HW2 1211   1.819   2.644   0.299
  396SOL     OW 1212   1.390   2.437   0.078
  396SOL    HW1 1213   1.336   2.416   0.159
  396SOL    HW2 1214   1.481   2.396   0.087
  397SOL     OW 1215   0.527   2.118   0.328
  397SOL    HW1 1216   0.554   2.059   0.253
  397SOL    HW2 1217   0.527   2.213   0.297
  398SOL     OW 1218   1.754   3.085   1.588
  398SOL    HW1 1219   1.845   3.046   1.575
  398SOL    HW2 1220   1.762   3.181   1.612
  399SOL     OW 1221   1.638   2.961   1.079
  399SOL    HW1 1222   1.643   3.042   1.138
  399SOL    HW2 1223   1.552   2.963   1.028
  400SOL     OW 1224   0.915   1.951   1.402
  400SOL    HW1 1225   0.940   1.931   1.307
  400SOL    HW2 1226   0.987   2.007   1.444
  401SOL     OW 1227   0.705   2.912   0.368
  401SOL    HW1 1228   0.691   2.919   0.467
  401SOL    HW2 1229   0.789   2.861   0.350
  402SOL     OW 1230   0.410   2.675   1.251
  402SOL    HW1 1231   0.496   2.687   1.301
  402SOL    HW2 1232   0.368   2.588   1.278
  403SOL     OW 1233   1.274   2.248   1.262
  403SOL    HW1 1234   1.295   2.322   1.326
  403SOL    HW2 1235   1.185   2.265   1.219
  404SOL     OW 1236   0.367   2.962   0.501
  404SOL    HW1 1237   0.360   3.045   0.445
  404SOL    HW2 1238   0.371   2.882   0.441
  405SOL     OW 1239   0.566   2.399   0.865
  405SOL    HW1 1240   0.578   2.465   0.791
  405SOL    HW2 1241   0.612   2.433   0.948
  406SOL     OW 1242   1.582   2.501   0.472
  406SOL    HW1 1243   1.551   2.562   0.545
  406SOL    HW2 1244   1.632   2.553   0.403
  407SOL     OW 1245   0.402   2.613   1.598
  407SOL    HW1 1246   0.470   2.668   1.551
  407SOL    HW2 1247   0.442   2.525   1.625
  408SOL     OW 1248   1.587   2.641   1.670
  408SOL    HW1 1249   1.495   2.679   1.665
  408SOL    HW2 1250   1.647   2.688   1.605
  409SOL     OW 1251   0.504   1.912   1.740
  409SOL    HW1 1252   0.462   1.855   1.670
  409SOL    HW2 1253   0.438   1.981   1.772
  410SOL     OW 1254   0.573   2.732   1.029
  410SOL    HW1 1255   0.617   2.821   1.020
  410SOL    HW2 1256   0.510   2.732   1.106
  411SOL     OW 1257   1.360   2.724   1.045
  411SOL    HW1 1258   1.285   2.724   0.979
  411SOL    HW2 1259   1.397   2.632   1.054
  412SOL     OW 1260   1.209   2.387   0.275
  412SOL    HW1 1261   1.222   2.303   0.329
  412SOL    HW2 1262   1.180   2.461   0.335
  413SOL     OW 1263   0.307   2.075   1.231
  413SOL    HW1 1264   0.284   2.112   1.321
  413SOL    HW2 1265   0.277   1.980   1.225
  414SOL     OW 1266   0.037   3.172   1.282
  414SOL    HW1 1267   0.090   3.123   1.350
  414SOL    HW2 1268   0.059   3.270   1.287
  415SOL     OW 1269   0.732   2.496   1.064
  415SOL    HW1 1270   0.791   2.470   0.988
  415SOL    HW2 1271   0.704   2.592   1.053
  416SOL     OW 1272   1.728   2.797   1.854
  416SOL    HW1 1273   1.682   2.790   1.765
  416SOL    HW2 1274   1.666   2.841   1.920
  417SOL     OW 1275   0.307   1.925   0.618
  417SOL    HW1 1276   0.296   2.019   0.651
  417SOL    HW2 1277   0.302   1.862   0.695
  418SOL     OW 1278   1.622   2.229   0.374
  418SOL    HW1 1279   1.624   2.153   0.438
  418SOL    HW2 1280   1.574   2.306   0.414
  419SOL     OW 1281   1.023   2.628   0.966
  419SOL    HW1 1282   1.038   2.649   1.062
  419SOL    HW2 1283   0.993   2.533   0.957
  420SOL     OW 1284   0.350   2.760   1.804
  420SOL    HW1 1285   0.426   2.804   1.852
  420SOL    HW2 1286   0.385   2.713   1.722
  421SOL     OW 1287   1.540   2.136   0.125
  421SOL    HW1 1288   1.479   2.061   0.148
  421SOL    HW2 1289   1.562   2.188   0.208
  422SOL     OW 1290   1.303   2.700   0.042
  422SOL    HW1 1291   1.337   2.607   0.057
  422SOL    HW2 1292   1.321   2.727  -0.053
  423SOL     OW 1293   0.319   2.672   0.949
  423SOL    HW1 1294   0.412   2.708   0.954
  423SOL    HW2 1295   0.313   2.587   1.001
  424SOL     OW 1296   0.339   2.371   1.006
  424SOL    HW1 1297   0.287   2.288   0.989
  424SOL    HW2 1298   0.416   2.376   0.942
  425SOL     OW 1299   1.138   2.242   1.678
  425SOL    HW1 1300   1.093   2.305   1.742
  425SOL    HW2 1301   1.231   2.273   1.661
  426SOL     OW 1302   1.002   2.658   1.238
  426SOL    HW1 1303   1.043   2.626   1.324
  426SOL    HW2 1304   0.906   2.631   1.235
  427SOL     OW 1305   0.040   2.406   1.114
  427SOL    HW1 1306   0.125   2.373   1.073
  427SOL    HW2 1307   0.053   2.421   1.212
  428SOL     OW 1308   0.189   2.382   1.722
  428SOL    HW1 1309   0.248   2.342   1.652
  428SOL    HW2 1310   0.131   2.453   1.681
  429SOL     OW 1311   1.369   2.812   1.660
  429SOL    HW1 1312   1.408   2.901   1.680
  429SOL    HW2 1313   1.379   2.792   1.563
  430SOL     OW 1314   0.815   2.434   0.325
  430SOL    HW1 1315   0.822   2.345   0.279
  430SOL    HW2 1316   0.721   2.468   0.317
  431SOL     OW 1317   1.657   2.466   1.206
  431SOL    HW1 1318   1.619   2.397   1.268
  431SOL    HW2 1319   1.739   2.430   1.162
  432SOL     OW 1320   0.671   2.326   1.269
  432SOL    HW1 1321   0.637   2.237   1.239
  432SOL    HW2 1322   0.697   2.380   1.189
  433SOL     OW 1323   0.473   2.362   0.191
  433SOL    HW1 1324   0.534   2.442   0.195
  433SOL    HW2 1325   0.378   2.393   0.198
  434SOL     OW 1326   0.159   2.999   1.466
  434SOL    HW1 1327   0.181   2.938   1.542
  434SOL    HW2 1328   0.169   2.950   1.380
  435SOL     OW 1329   1.347   2.921   1.234
  435SOL    HW1 1330   1.371   2.858   1.160
  435SOL    HW2 1331   1.257   2.961   1.216
  436SOL     OW 1332   1.302   2.717   0.309
  436SOL    HW1 1333   1.216   2.686   0.351
  436SOL    HW2 1334   1.298   2.703   0.210
  437SOL     OW 1335   0.083   3.120   1.022
  437SOL    HW1 1336   0.078   3.119   1.122
  437SOL    HW2 1337   0.000   3.079   0.984
  438SOL     OW 1338   0.903   1.948   0.133
  438SOL    HW1 1339   0.954   1.949   0.047
  438SOL    HW2 1340   0.959   1.906   0.204
  439SOL     OW 1341   1.726   1.997   0.523
  439SOL    HW1 1342   1.799   1.980   0.456
  439SOL    HW2 1343   1.695   1.910   0.561
  440SOL     OW 1344   1.280   2.789   0.672
  440SOL    HW1 1345   1.340   2.708   0.674
  440SOL    HW2 1346   1.320   2.858   0.612
  441SOL     OW 1347   1.841   2.037   0.963
  441SOL    HW1 1348   1.880   1.952   0.927
  441SOL    HW2 1349   1.743   2.039   0.944
  442SOL     OW 1350   0.263   2.188   0.720
  442SOL    HW1 1351   0.184   2.239   0.686
  442SOL    HW2 1352   0.254   2.173   0.818
  443SOL     OW 1353   0.822   2.864   1.372
  443SOL    HW1 1354   0.862   2.863   1.280
  443SOL    HW2 1355   0.832   2.956   1.412
  444SOL     OW 1356   0.916   2.772   0.291
  444SOL    HW1 1357   0.979   2.810   0.223
  444SOL    HW2 1358   0.956   2.689   0.330
  445SOL     OW 1359   0.372   3.150   1.490
  445SOL    HW1 1360   0.359   3.243   1.456
  445SOL    HW2 1361   0.288   3.098   1.477
  446SOL     OW 1362   1.014   2.098   0.971
  446SOL    HW1 1363   1.006   2.062   0.878
  446SOL    HW2 1364   1.012   2.022   1.036
  447SOL     OW 1365   1.709   2.247   1.381
  447SOL    HW1 1366   1.782   2.316   1.385
  447SOL    HW2 1367   1.737   2.172   1.322
  448SOL     OW 1368   0.105   2.875   1.726
  448SOL    HW1 1369   0.028   2.842   1.780
  448SOL    HW2 1370   0.190   2.845   1.768
  449SOL     OW 1371   0.672   2.065   1.489
  449SOL    HW1 1372   0.762   2.049   1.449
  449SOL    HW2 1373   0.680   2.070   1.588
  450SOL     OW 1374   0.075   2.207   0.033
  450SOL    HW1 1375  -0.017   2.179   0.004
  450SOL    HW2 1376   0.106   2.284  -0.023
  451SOL     OW 1377   1.440   2.718   1.398
  451SOL    HW1 1378   1.383   2.770   1.335
  451SOL    HW2 1379   1.536   2.730   1.374
  452SOL     OW 1380   0.072   2.028   0.318
  452SOL    HW1 1381   0.055   2.111   0.264
  452SOL    HW2 1382   0.162   1.991   0.296
  453SOL     OW 1383   0.613   2.704   1.431
  453SOL    HW1 1384   0.669   2.785   1.414
  453SOL    HW2 1385   0.672   2.624   1.434
  454SOL     OW 1386   0.716   2.427   1.708
  454SOL    HW1 1387   0.735   2.492   1.782
  454SOL    HW2 1388   0.776   2.347   1.717
  455SOL     OW 1389   1.450   3.082   1.633
  455SOL    HW1 1390   1.441   3.072   1.732
  455SOL    HW2 1391   1.546   3.075   1.607
  456SOL     OW 1392   1.674   2.745   1.254
  456SOL    HW1 1393   1.647   2.656   1.217
  456SOL    HW2 1394   1.675   2.813   1.181
  457SOL     OW 1395   1.225   2.187   0.449
  457SOL    HW1 1396   1.290   2.113   0.438
  457SOL    HW2 1397   1.245   2.237   0.533
  458SOL     OW 1398   0.594   2.607   0.652
  458SOL    HW1 1399   0.644   2.692   0.633
  458SOL    HW2 1400   0.506   2.609   0.604
  459SOL     OW 1401   1.777   2.204   1.642
  459SOL    HW1 1402   1.760   2.235   1.548
  459SOL    HW2 1403   1.693   2.167   1.680
  460SOL     OW 1404   1.730   2.796   1.517
  460SOL    HW1 1405   1.768   2.887   1.532
  460SOL    HW2 1406   1.722   2.779   1.418
  461SOL     OW 1407   0.859   2.818   0.861
  461SOL    HW1 1408   0.913   2.749   0.909
  461SOL    HW2 1409   0.827   2.887   0.927
  462SOL     OW 1410   1.083   2.846   0.087
  462SOL    HW1 1411   1.060   2.899   0.005
  462SOL    HW2 1412   1.164   2.790   0.068
  463SOL     OW 1413   0.079   3.102   0.653
  463SOL    HW1 1414   0.078   3.055   0.741
  463SOL    HW2 1415   0.161   3.074   0.602
  464SOL     OW 1416   1.824   2.054   1.227
  464SOL    HW1 1417   1.820   1.964   1.271
  464SOL    HW2 1418   1.827   2.043   1.128
  465SOL     OW 1419   0.428   2.286   0.520
  465SOL    HW1 1420   0.458   2.214   0.458
  465SOL    HW2 1421   0.389   2.246   0.603
  466SOL     OW 1422   0.317   2.409   1.280
  466SOL    HW1 1423   0.355   2.350   1.352
  466SOL    HW2 1424   0.357   2.383   1.192
  467SOL     OW 1425   1.424   2.076   1.112
  467SOL    HW1 1426   1.476   2.011   1.167
  467SOL    HW2 1427   1.375   2.139   1.173
  468SOL     OW 1428   1.001   1.896   1.154
  468SOL    HW1 1429   0.938   1.824   1.123
  468SOL    HW2 1430   1.094   1.860   1.154
  469SOL     OW 1431   0.770   3.192   0.301
  469SOL    HW1 1432   0.724   3.105   0.318
  469SOL    HW2 1433   0.861   3.189   0.342
  470SOL     OW 1434   1.352   1.914   0.168
  470SOL    HW1 1435   1.387   1.873   0.084
  470SOL    HW2 1436   1.262   1.876   0.188
  471SOL     OW 1437   1.300   2.315   0.691
  471SOL    HW1 1438   1.241   2.395   0.695
  471SOL    HW2 1439   1.315   2.280   0.784
  472SOL     OW 1440   1.593   2.083   0.882
  472SOL    HW1 1441   1.509   2.082   0.936
  472SOL    HW2 1442   1.595   2.166   0.826
  473SOL     OW 1443   0.039   2.939   0.300
  473SOL    HW1 1444   0.138   2.928   0.291
  473SOL    HW2 1445  -0.001   2.853   0.332
  474SOL     OW 1446   0.230   2.490   1.975
  474SOL    HW1 1447   0.137   2.488   2.012
  474SOL    HW2 1448   0.231   2.451   1.883
  475SOL     OW 1449   0.225   2.137   2.858
  475SOL    HW1 1450   0.260   2.120   2.950
  475SOL    HW2 1451   0.137   2.092   2.846
  476SOL     OW 1452   0.019   2.230   2.509
  476SOL    HW1 1453  -0.063   2.273   2.548
  476SOL    HW2 1454  -0.009   2.157   2.446
  477SOL     OW 1455   1.135   2.565   2.579
  477SOL    HW1 1456   1.192   2.643   2.554
  477SOL    HW2 1457   1.075   2.591   2.655
  478SOL     OW 1458   1.755   2.469   2.093
  478SOL    HW1 1459   1.743   2.456   1.994
  478SOL    HW2 1460   1.725   2.388   2.142
  479SOL     OW 1461   0.768   3.006   2.885
  479SOL    HW1 1462   0.690   3.023   2.945
  479SOL    HW2 1463   0.802   3.093   2.849
  480SOL     OW 1464   0.685   2.874   2.527
  480SOL    HW1 1465   0.754   2.858   2.597
  480SOL    HW2 1466   0.612   2.931   2.565
  481SOL     OW 1467   1.603   2.309   2.599
  481SOL    HW1 1468   1.529   2.355   2.549
  481SOL    HW2 1469   1.654   2.377   2.652
  482SOL     OW 1470   0.240   2.953   2.748
  482SOL    HW1 1471   0.254   2.869   2.800
  482SOL    HW2 1472   0.185   3.017   2.803
  483SOL     OW 1473   0.606   2.826   1.985
  483SOL    HW1 1474   0.613   2.910   1.931
  483SOL    HW2 1475   0.652   2.839   2.073
  484SOL     OW 1476   0.122   2.505   2.425
  484SOL    HW1 1477   0.077   2.417   2.442
  484SOL    HW2 1478   0.121   2.559   2.509
  485SOL     OW 1479   1.689   2.784   2.474
  485SOL    HW1 1480   1.784   2.755   2.482
  485SOL    HW2 1481   1.681   2.849   2.399
  486SOL     OW 1482   0.613   3.227   2.588
  486SOL    HW1 1483   0.564   3.140   2.597
  486SOL    HW2 1484   0.590   3.270   2.501
  487SOL     OW 1485   0.809   1.866   2.364
  487SOL    HW1 1486   0.849   1.957   2.355
  487SOL    HW2 1487   0.709   1.874   2.370
  488SOL     OW 1488   0.197   2.838   3.126
  488SOL    HW1 1489   0.286   2.793   3.112
  488SOL    HW2 1490   0.124   2.773   3.107
  489SOL     OW 1491   1.525   2.861   2.052
  489SOL    HW1 1492   1.462   2.785   2.065
  489SOL    HW2 1493   1.573   2.879   2.138
  490SOL     OW 1494   0.598   2.591   2.132
  490SOL    HW1 1495   0.622   2.660   2.064
  490SOL    HW2 1496   0.520   2.624   2.186
  491SOL     OW 1497   1.281   2.207   2.806
  491SOL    HW1 1498   1.195   2.157   2.793
  491SOL    HW2 1499   1.343   2.153   2.862
  492SOL     OW 1500   1.041   2.563   2.291
  492SOL    HW1 1501   1.067   2.559   2.387
  492SOL    HW2 1502   0.956   2.512   2.277
  493SOL     OW 1503   0.076   2.673   2.651
  493SOL    HW1 1504   0.175   2.661   2.660
  493SOL    HW2 1505   0.052   2.768   2.672
  494SOL     OW 1506   0.865   2.210   2.057
  494SOL    HW1 1507   0.924   2.273   2.008
  494SOL    HW2 1508   0.884   2.116   2.028
  495SOL     OW 1509   0.550   2.058   2.747
  495SOL    HW1 1510   0.545   2.053   2.847
  495SOL    HW2 1511   0.552   2.154   2.718
  496SOL     OW 1512   1.795   2.928   2.735
  496SOL    HW1 1513   1.733   2.913   2.659
  496SOL    HW2 1514   1.743   2.939   2.820
  497SOL     OW 1515   0.321   2.805   2.104
  497SOL    HW1 1516   0.403   2.844   2.062
  497SOL    HW2 1517   0.294   2.723   2.055
  498SOL     OW 1518   1.458   2.597   2.590
  498SOL    HW1 1519   1.453   2.532   2.665
  498SOL    HW2 1520   1.538   2.656   2.603
  499SOL     OW 1521   1.400   1.969   2.288
  499SOL    HW1 1522   1.376   1.932   2.198
  499SOL    HW2 1523   1.499   1.985   2.292
  500SOL     OW 1524   0.382   2.562   2.342
  500SOL    HW1 1525   0.427   2.472   2.339
  500SOL    HW2 1526   0.288   2.551   2.375
  501SOL     OW 1527   0.614   1.984   1.979
  501SOL    HW1 1528   0.712   1.962   1.986
  501SOL    HW2 1529   0.583   1.967   1.886
  502SOL     OW 1530   0.888   3.376   3.057
  502SOL    HW1 1531   0.865   3.351   2.963
  502SOL    HW2 1532   0.949   3.307   3.096
  503SOL     OW 1533   0.922   2.365   2.761
  503SOL    HW1 1534   0.897   2.356   2.665
  503SOL    HW2 1535   0.970   2.283   2.792
  504SOL     OW 1536   0.539   1.926   2.374
  504SOL    HW1 1537   0.458   1.927   2.432
  504SOL    HW2 1538   0.542   2.009   2.319
  505SOL     OW 1539   0.297   1.897   2.033
  505SOL    HW1 1540   0.346   1.981   2.012
  505SOL    HW2 1541   0.359   1.832   2.078
  506SOL     OW 1542   0.935   2.098   2.342
  506SOL    HW1 1543   0.887   2.139   2.264
  506SOL    HW2 1544   1.034   2.096   2.323
  507SOL     OW 1545   0.459   3.014   2.603
  507SOL    HW1 1546   0.388   2.987   2.668
  507SOL    HW2 1547   0.433   2.986   2.510
  508SOL     OW 1548   1.032   2.411   1.878
  508SOL    HW1 1549   0.991   2.493   1.839
  508SOL    HW2 1550   1.096   2.437   1.951
  509SOL     OW 1551   0.866   2.316   2.504
  509SOL    HW1 1552   0.834   2.388   2.442
  509SOL    HW2 1553   0.890   2.235   2.451
  510SOL     OW 1554   1.017   1.901   2.615
  510SOL    HW1 1555   0.945   1.906   2.546
  510SOL    HW2 1556   0.993   1.832   2.684
  511SOL     OW 1557   1.429   3.035   2.729
  511SOL    HW1 1558   1.374   2.951   2.722
  511SOL    HW2 1559   1.455   3.064   2.637
  512SOL     OW 1560   1.466   2.452   2.854
  512SOL    HW1 1561   1.436   2.357   2.861
  512SOL    HW2 1562   1.539   2.468   2.920
  513SOL     OW 1563   1.857   2.695   2.239
  513SOL    HW1 1564   1.899   2.631   2.303
  513SOL    HW2 1565   1.819   2.644   2.161
  514SOL     OW 1566   1.390   2.437   1.940
  514SOL    HW1 1567   1.336   2.416   2.021
  514SOL    HW2 1568   1.481   2.396   1.949
  515SOL     OW 1569   0.527   2.118   2.190
  515SOL    HW1 1570   0.554   2.059   2.115
  515SOL    HW2 1571   0.527   2.213   2.159
  516SOL     OW 1572   1.111   3.057   2.962
  516SOL    HW1 1573   1.071   3.101   3.043
  516SOL    HW2 1574   1.070   3.094   2.879
  517SOL     OW 1575   1.638   2.961   2.941
  517SOL    HW1 1576   1.643   3.042   3.000
  517SOL    HW2 1577   1.552   2.963   2.890
  518SOL     OW 1578   0.705   2.912   2.230
  518SOL    HW1 1579   0.691   2.919   2.329
  518SOL    HW2 1580   0.789   2.861   2.212
  519SOL     OW 1581   0.410   2.675   3.113
  519SOL    HW1 1582   0.496   2.687   3.163
  519SOL    HW2 1583   0.368   2.588   3.140
  520SOL     OW 1584   0.367   2.962   2.363
  520SOL    HW1 1585   0.360   3.045   2.307
  520SOL    HW2 1586   0.371   2.882   2.303
  521SOL     OW 1587   0.566   2.399   2.727
  521SOL    HW1 1588   0.578   2.465   2.653
  521SOL    HW2 1589   0.612   2.433   2.810
  522SOL     OW 1590   1.582   2.501   2.334
  522SOL    HW1 1591   1.551   2.562   2.407
  522SOL    HW2 1592   1.632   2.553   2.265
  523SOL     OW 1593   0.573   2.732   2.891
  523SOL    HW1 1594   0.617   2.821   2.882
  523SOL    HW2 1595   0.510   2.732   2.968
  524SOL     OW 1596   1.209   2.387   2.137
  524SOL    HW1 1597   1.222   2.303   2.191
  524SOL    HW2 1598   1.180   2.461   2.197
  525SOL     OW 1599   0.307   2.075   3.093
  525SOL    HW1 1600   0.284   2.112   3.183
  525SOL    HW2 1601   0.277   1.980   3.087
  526SOL     OW 1602   0.732   2.496   2.926
  526SOL    HW1 1603   0.791   2.470   2.850
  526SOL    HW2 1604   0.704   2.592   2.915
  527SOL     OW 1605   0.307   1.925   2.480
  527SOL    HW1 1606   0.296   2.019   2.513
  527SOL    HW2 1607   0.302   1.862   2.557
  528SOL     OW 1608   1.622   2.229   2.236
  528SOL    HW1 1609   1.624   2.153   2.300
  528SOL    HW2 1610   1.574   2.306   2.276
  529SOL     OW 1611   1.023   2.628   2.828
  529SOL    HW1 1612   1.038   2.649   2.924
  529SOL    HW2 1613   0.993   2.533   2.819
  530SOL     OW 1614   1.540   2.136   1.987
  530SOL    HW1 1615   1.479   2.061   2.010
  530SOL    HW2 1616   1.562   2.188   2.070
  531SOL     OW 1617   1.303   2.700   1.904
  531SOL    HW1 1618   1.337   2.607   1.919
  531SOL    HW2 1619   1.321   2.727   1.809
  532SOL     OW 1620   0.319   2.672   2.811
  532SOL    HW1 1621   0.412   2.708   2.816
  532SOL    HW2 1622   0.313   2.587   2.863
  533SOL     OW 1623   0.339   2.371   2.868
  533SOL    HW1 1624   0.287   2.288   2.851
  533SOL    HW2 1625   0.416   2.376   2.804
  534SOL     OW 1626   1.002   2.658   3.100
  534SOL    HW1 1627   1.043   2.626   3.186
  534SOL    HW2 1628   0.906   2.631   3.097
  535SOL     OW 1629   0.040   2.406   2.976
  535SOL    HW1 1630   0.125   2.373   2.935
  535SOL    HW2 1631   0.053   2.421   3.074
  536SOL     OW 1632   0.815   2.434   2.187
  536SOL    HW1 1633   0.822   2.345   2.141
  536SOL    HW2 1634   0.721   2.468   2.179
  537SOL     OW 1635   1.657   2.466   3.068
  537SOL    HW1 1636   1.619   2.397   3.130
  537SOL    HW2 1637   1.739   2.430   3.024
  538SOL     OW 1638   0.671   2.326   3.131
  538SOL    HW1 1639   0.637   2.237   3.101
  538SOL    HW2 1640   0.697   2.380   3.051
  539SOL     OW 1641   0.473   2.362   2.053
  539SOL    HW1 1642   0.534   2.442   2.057
  539SOL    HW2 1643   0.378   2.393   2.060
  540SOL     OW 1644   1.347   2.921   3.096
  540SOL    HW1 1645   1.371   2.858   3.022
  540SOL    HW2 1646   1.257   2.961   3.078
  541SOL     OW 1647   1.302   2.717   2.171
  541SOL    HW1 1648   1.216   2.686   2.213
  541SOL    HW2 1649   1.298   2.703   2.072
  542SOL     OW 1650   0.083   3.120   2.884
  542SOL    HW1 1651   0.078   3.119   2.984
  542SOL    HW2 1652   0.000   3.079   2.846
  543SOL     OW 1653   1.726   1.997   2.385
  543SOL    HW1 1654   1.799   1.980   2.318
  543SOL    HW2 1655   1.695   1.910   2.423
  544SOL     OW 1656   1.280   2.789   2.534
  544SOL    HW1 1657   1.340   2.708   2.536
  544SOL    HW2 1658   1.320   2.858   2.474
  545SOL     OW 1659   1.841   2.037   2.825
  545SOL    HW1 1660   1.880   1.952   2.789
  545SOL    HW2 1661   1.743   2.039   2.806
  546SOL     OW 1662   0.263   2.188   2.582
  546SOL    HW1 1663   0.184   2.239   2.548
  546SOL    HW2 1664   0.254   2.173   2.680
  547SOL     OW 1665   0.822   2.864   3.234
  547SOL    HW1 1666   0.862   2.863   3.142
  547SOL    HW2 1667   0.832   2.956   3.274
  548SOL     OW 1668   0.916   2.772   2.153
  548SOL    HW1 1669   0.979   2.810   2.085
  548SOL    HW2 1670   0.956   2.689   2.192
  549SOL     OW 1671   1.014   2.098   2.833
  549SOL    HW1 1672   1.006   2.062   2.740
  549SOL    HW2 1673   1.012   2.022   2.898
  550SOL     OW 1674   1.709   2.247   3.243
  550SOL    HW1 1675   1.782   2.316   3.247
  550SOL    HW2 1676   1.737   2.172   3.184
  551SOL     OW 1677   0.075   2.207   1.895
  551SOL    HW1 1678  -0.017   2.179   1.866
  551SOL    HW2 1679   0.106   2.284   1.839
  552SOL     OW 1680   0.072   2.028   2.180
  552SOL    HW1 1681   0.055   2.111   2.126
  552SOL    HW2 1682   0.162   1.991   2.158
  553SOL     OW 1683   1.674   2.745   3.116
  553SOL    HW1 1684   1.647   2.656   3.079
  553SOL    HW2 1685   1.675   2.813   3.043
  554SOL     OW 1686   1.225   2.187   2.311
  554SOL    HW1 1687   1.290   2.113   2.300
  554SOL    HW2 1688   1.245   2.237   2.395
  555SOL     OW 1689   0.594   2.607   2.514
  555SOL    HW1 1690   0.644   2.692   2.495
  555SOL    HW2 1691   0.506   2.609   2.466
  556SOL     OW 1692   1.730   2.796   3.379
  556SOL    HW1 1693   1.768   2.887   3.394
  556SOL    HW2 1694   1.722   2.779   3.280
  557SOL     OW 1695   0.859   2.818   2.723
  557SOL    HW1 1696   0.913   2.749   2.771
  557SOL    HW2 1697   0.827   2.887   2.789
  558SOL     OW 1698   1.083   2.846   1.949
  558SOL    HW1 1699   1.060   2.899   1.867
  558SOL    HW2 1700   1.164   2.790   1.930
  559SOL     OW 1701   0.079   3.102   2.515
  559SOL    HW1 1702   0.078   3.055   2.603
  559SOL    HW2 1703   0.161   3.074   2.464
  560SOL     OW 1704   1.824   2.054   3.089
  560SOL    HW1 1705   1.820   1.964   3.133
  560SOL    HW2 1706   1.827   2.043   2.990
  561SOL     OW 1707   0.428   2.286   2.382
  561SOL    HW1 1708   0.458   2.214   2.320
  561SOL    HW2 1709   0.389   2.246   2.465
  562SOL     OW 1710   1.424   2.076   2.974
  562SOL    HW1 1711   1.476   2.011   3.029
  562SOL    HW2 1712   1.375   2.139   3.035
  563SOL     OW 1713   0.770   3.192   2.163
  563SOL    HW1 1714   0.724   3.105   2.180
  563SOL    HW2 1715   0.861   3.189   2.204
  564SOL     OW 1716   1.300   2.315   2.553
  564SOL    HW1 1717   1.241   2.395   2.557
  564SOL    HW2 1718   1.315   2.280   2.646
  565SOL     OW 1719   1.593   2.083   2.744
  565SOL    HW1 1720   1.509   2.082   2.798
  565SOL    HW2 1721   1.595   2.166   2.688
  566SOL     OW 1722   0.039   2.939   2.162
  566SOL    HW1 1723   0.138   2.928   2.153
  566SOL    HW2 1724  -0.001   2.853   2.194
  567SOL     OW 1725   2.092   0.628   0.113
  567SOL    HW1 1726   1.999   0.626   0.150
  567SOL    HW2 1727   2.093   0.589   0.021
  568SOL     OW 1728   2.087   0.275   0.996
  568SOL    HW1 1729   2.122   0.258   1.088
  568SOL    HW2 1730   1.999   0.230   0.984
  569SOL     OW 1731   1.881   0.368   0.647
  569SOL    HW1 1732   1.799   0.411   0.686
  569SOL    HW2 1733   1.853   0.295   0.584
  570SOL     OW 1734   2.431   1.275   1.165
  570SOL    HW1 1735   2.338   1.268   1.128
  570SOL    HW2 1736   2.442   1.364   1.209
  571SOL     OW 1737   2.630   1.144   1.023
  571SOL    HW1 1738   2.552   1.161   1.083
  571SOL    HW2 1739   2.664   1.231   0.987
  572SOL     OW 1740   2.712   0.798   1.823
  572SOL    HW1 1741   2.708   0.874   1.888
  572SOL    HW2 1742   2.734   0.834   1.732
  573SOL     OW 1743   2.547   1.012   0.665
  573SOL    HW1 1744   2.616   0.996   0.735
  573SOL    HW2 1745   2.474   1.069   0.703
  574SOL     OW 1746   2.548   1.161   1.803
  574SOL    HW1 1747   2.608   1.240   1.817
  574SOL    HW2 1748   2.462   1.192   1.762
  575SOL     OW 1749   2.197   1.435   1.061
  575SOL    HW1 1750   2.119   1.404   1.008
  575SOL    HW2 1751   2.255   1.493   1.004
  576SOL     OW 1752   2.300   0.392   1.499
  576SOL    HW1 1753   2.382   0.336   1.508
  576SOL    HW2 1754   2.219   0.334   1.503
  577SOL     OW 1755   2.093   1.713   0.483
  577SOL    HW1 1756   2.127   1.790   0.537
  577SOL    HW2 1757   2.137   1.713   0.393
  578SOL     OW 1758   2.989   1.341   1.690
  578SOL    HW1 1759   3.036   1.341   1.778
  578SOL    HW2 1760   2.941   1.254   1.679
  579SOL     OW 1761   2.092   1.434   0.538
  579SOL    HW1 1762   2.066   1.530   0.538
  579SOL    HW2 1763   2.021   1.380   0.583
  580SOL     OW 1764   2.102   1.091   0.886
  580SOL    HW1 1765   2.116   1.007   0.938
  580SOL    HW2 1766   2.047   1.155   0.941
  581SOL     OW 1767   2.482   1.786   1.439
  581SOL    HW1 1768   2.390   1.769   1.474
  581SOL    HW2 1769   2.510   1.878   1.465
  582SOL     OW 1770   2.468   0.964   0.123
  582SOL    HW1 1771   2.475   1.048   0.069
  582SOL    HW2 1772   2.514   0.977   0.211
  583SOL     OW 1773   1.984   0.643   0.563
  583SOL    HW1 1774   1.939   0.555   0.580
  583SOL    HW2 1775   1.983   0.697   0.647
  584SOL     OW 1776   1.889   1.596   0.117
  584SOL    HW1 1777   1.870   1.500   0.138
  584SOL    HW2 1778   1.856   1.654   0.192
  585SOL     OW 1779   1.975   0.737   1.597
  585SOL    HW1 1780   2.063   0.724   1.642
  585SOL    HW2 1781   1.962   0.834   1.575
  586SOL     OW 1782   2.475   1.365   0.726
  586SOL    HW1 1783   2.426   1.278   0.735
  586SOL    HW2 1784   2.452   1.408   0.639
  587SOL     OW 1785   2.671   0.004   0.502
  587SOL    HW1 1786   2.711   0.095   0.493
  587SOL    HW2 1787   2.571   0.012   0.508
  588SOL     OW 1788   2.059   0.976   1.264
  588SOL    HW1 1789   2.148   0.931   1.250
  588SOL    HW2 1790   1.986   0.911   1.245
  589SOL     OW 1791   2.179   0.251   1.801
  589SOL    HW1 1792   2.250   0.322   1.807
  589SOL    HW2 1793   2.091   0.290   1.829
  590SOL     OW 1794   2.460   0.729   0.270
  590SOL    HW1 1795   2.484   0.798   0.202
  590SOL    HW2 1796   2.382   0.762   0.324
  591SOL     OW 1797   2.669   0.605   1.465
  591SOL    HW1 1798   2.622   0.602   1.554
  591SOL    HW2 1799   2.618   0.550   1.399
  592SOL     OW 1800   2.835   0.890   1.572
  592SOL    HW1 1801   2.881   0.806   1.543
  592SOL    HW2 1802   2.779   0.924   1.497
  593SOL     OW 1803   2.853   0.410   1.242
  593SOL    HW1 1804   2.776   0.444   1.296
  593SOL    HW2 1805   2.819   0.359   1.163
  594SOL     OW 1806   2.903   0.701   0.429
  594SOL    HW1 1807   2.929   0.697   0.525
  594SOL    HW2 1808   2.818   0.650   0.415
  595SOL     OW 1809   1.938   0.811   0.789
  595SOL    HW1 1810   2.037   0.799   0.798
  595SOL    HW2 1811   1.914   0.906   0.810
  596SOL     OW 1812   1.992   1.821   1.571
  596SOL    HW1 1813   1.982   1.806   1.670
  596SOL    HW2 1814   1.906   1.857   1.535
  597SOL     OW 1815   2.727   0.348   0.195
  597SOL    HW1 1816   2.786   0.411   0.146
  597SOL    HW2 1817   2.746   0.254   0.166
  598SOL     OW 1818   2.412   0.196   0.885
  598SOL    HW1 1819   2.407   0.191   0.985
  598SOL    HW2 1820   2.414   0.292   0.856
  599SOL     OW 1821   2.870   1.456   0.477
  599SOL    HW1 1822   2.824   1.528   0.425
  599SOL    HW2 1823   2.866   1.476   0.575
  600SOL     OW 1824   2.213   1.801   0.853
  600SOL    HW1 1825   2.263   1.715   0.859
  600SOL    HW2 1826   2.278   1.878   0.850
  601SOL     OW 1827   2.183   0.943   0.242
  601SOL    HW1 1828   2.265   0.982   0.200
  601SOL    HW2 1829   2.156   0.861   0.193
  602SOL     OW 1830   2.323   1.266   1.727
  602SOL    HW1 1831   2.273   1.267   1.641
  602SOL    HW2 1832   2.260   1.248   1.803
  603SOL     OW 1833   2.064   0.285   1.498
  603SOL    HW1 1834   1.984   0.345   1.485
  603SOL    HW2 1835   2.054   0.236   1.584
  604SOL     OW 1836   2.326   1.743   0.323
  604SOL    HW1 1837   2.359   1.782   0.409
  604SOL    HW2 1838   2.402   1.736   0.258
  605SOL     OW 1839   2.111   1.785   1.241
  605SOL    HW1 1840   2.168   1.720   1.291
  605SOL    HW2 1841   2.095   1.752   1.148
  606SOL     OW 1842   2.802   1.698   0.904
  606SOL    HW1 1843   2.882   1.641   0.925
  606SOL    HW2 1844   2.753   1.658   0.827
  607SOL     OW 1845   2.244   0.700   0.480
  607SOL    HW1 1846   2.289   0.610   0.477
  607SOL    HW2 1847   2.150   0.689   0.513
  608SOL     OW 1848   2.476   0.122   0.117
  608SOL    HW1 1849   2.574   0.100   0.124
  608SOL    HW2 1850   2.445   0.105   0.024
  609SOL     OW 1851   2.643   0.264   1.749
  609SOL    HW1 1852   2.710   0.203   1.792
  609SOL    HW2 1853   2.570   0.283   1.814
  610SOL     OW 1854   2.750   1.514   1.195
  610SOL    HW1 1855   2.727   1.489   1.101
  610SOL    HW2 1856   2.811   1.445   1.234
  611SOL     OW 1857   2.665   1.402   0.924
  611SOL    HW1 1858   2.755   1.416   0.882
  611SOL    HW2 1859   2.594   1.404   0.853
  612SOL     OW 1860   2.784   0.503   0.899
  612SOL    HW1 1861   2.759   0.494   0.803
  612SOL    HW2 1862   2.832   0.421   0.930
  613SOL     OW 1863   2.401   0.064   0.512
  613SOL    HW1 1864   2.320   0.065   0.570
  613SOL    HW2 1865   2.404   0.147   0.457
  614SOL     OW 1866   2.159   0.035   0.171
  614SOL    HW1 1867   2.208   0.119   0.150
  614SOL    HW2 1868   2.221  -0.030   0.216
  615SOL     OW 1869   2.797   0.236   0.480
  615SOL    HW1 1870   2.749   0.277   0.402
  615SOL    HW2 1871   2.896   0.234   0.461
  616SOL     OW 1872   3.089   1.570   0.793
  616SOL    HW1 1873   3.110   1.644   0.728
  616SOL    HW2 1874   3.157   1.570   0.866
  617SOL     OW 1875   2.321   1.152   0.741
  617SOL    HW1 1876   2.250   1.125   0.806
  617SOL    HW2 1877   2.295   1.124   0.648
  618SOL     OW 1878   3.133   1.797   0.591
  618SOL    HW1 1879   3.177   1.861   0.527
  618SOL    HW2 1880   3.083   1.849   0.661
  619SOL     OW 1881   2.894   0.549   0.016
  619SOL    HW1 1882   2.853   0.631  -0.023
  619SOL    HW2 1883   2.958   0.575   0.089
  620SOL     OW 1884   1.940   0.556   1.386
  620SOL    HW1 1885   2.032   0.555   1.345
  620SOL    HW2 1886   1.934   0.630   1.453
  621SOL     OW 1887   2.423   0.222   1.147
  621SOL    HW1 1888   2.461   0.138   1.184
  621SOL    HW2 1889   2.335   0.241   1.191
  622SOL     OW 1890   2.728   0.454   0.642
  622SOL    HW1 1891   2.696   0.526   0.580
  622SOL    HW2 1892   2.752   0.373   0.589
  623SOL     OW 1893   2.879   0.039   0.753
  623SOL    HW1 1894   2.807   0.044   0.684
  623SOL    HW2 1895   2.855  -0.030   0.822
  624SOL     OW 1896   2.350   1.385   0.174
  624SOL    HW1 1897   2.263   1.370   0.221
  624SOL    HW2 1898   2.333   1.411   0.079
  625SOL     OW 1899   2.389   0.256   0.328
  625SOL    HW1 1900   2.416   0.197   0.253
  625SOL    HW2 1901   2.389   0.351   0.297
  626SOL     OW 1902   2.777   0.089   1.402
  626SOL    HW1 1903   2.802   0.069   1.307
  626SOL    HW2 1904   2.849   0.145   1.444
  627SOL     OW 1905   2.842   1.116   1.719
  627SOL    HW1 1906   2.743   1.122   1.729
  627SOL    HW2 1907   2.865   1.036   1.663
  628SOL     OW 1908   2.567   1.050   0.368
  628SOL    HW1 1909   2.553   1.057   0.467
  628SOL    HW2 1910   2.651   0.999   0.350
  629SOL     OW 1911   2.272   0.813   1.251
  629SOL    HW1 1912   2.358   0.825   1.301
  629SOL    HW2 1913   2.230   0.726   1.278
  630SOL     OW 1914   1.926   1.564   1.331
  630SOL    HW1 1915   1.880   1.646   1.297
  630SOL    HW2 1916   2.024   1.583   1.340
  631SOL     OW 1917   2.229   1.100   0.501
  631SOL    HW1 1918   2.222   1.183   0.445
  631SOL    HW2 1919   2.233   1.020   0.441
  632SOL     OW 1920   2.428   0.537   0.865
  632SOL    HW1 1921   2.440   0.603   0.791
  632SOL    HW2 1922   2.474   0.571   0.948
  633SOL     OW 1923   3.114   1.348   0.388
  633SOL    HW1 1924   3.164   1.425   0.428
  633SOL    HW2 1925   3.019   1.350   0.420
  634SOL     OW 1926   2.216   1.510   1.329
  634SOL    HW1 1927   2.195   1.466   1.242
  634SOL    HW2 1928   2.313   1.536   1.332
  635SOL     OW 1929   2.264   0.751   1.598
  635SOL    HW1 1930   2.332   0.806   1.551
  635SOL    HW2 1931   2.304   0.663   1.625
  636SOL     OW 1932   2.875   0.105   1.770
  636SOL    HW1 1933   2.881   0.190   1.718
  636SOL    HW2 1934   2.907   0.029   1.713
  637SOL     OW 1935   2.366   0.050   1.740
  637SOL    HW1 1936   2.324  -0.007   1.670
  637SOL    HW2 1937   2.300   0.119   1.772
  638SOL     OW 1938   2.435   0.870   1.029
  638SOL    HW1 1939   2.479   0.959   1.020
  638SOL    HW2 1940   2.372   0.870   1.106
  639SOL     OW 1941   3.222   0.862   1.045
  639SOL    HW1 1942   3.147   0.862   0.979
  639SOL    HW2 1943   3.259   0.770   1.054
  640SOL     OW 1944   3.071   0.525   0.275
  640SOL    HW1 1945   3.084   0.441   0.329
  640SOL    HW2 1946   3.042   0.599   0.335
  641SOL     OW 1947   2.169   0.213   1.231
  641SOL    HW1 1948   2.146   0.250   1.321
  641SOL    HW2 1949   2.139   0.118   1.225
  642SOL     OW 1950   1.899   1.310   1.282
  642SOL    HW1 1951   1.952   1.261   1.350
  642SOL    HW2 1952   1.921   1.408   1.287
  643SOL     OW 1953   2.594   0.634   1.064
  643SOL    HW1 1954   2.653   0.608   0.988
  643SOL    HW2 1955   2.566   0.730   1.053
  644SOL     OW 1956   2.169   0.063   0.618
  644SOL    HW1 1957   2.158   0.157   0.651
  644SOL    HW2 1958   2.164   0.000   0.695
  645SOL     OW 1959   2.885   0.766   0.966
  645SOL    HW1 1960   2.900   0.787   1.062
  645SOL    HW2 1961   2.855   0.671   0.957
  646SOL     OW 1962   2.842   1.573   1.700
  646SOL    HW1 1963   2.822   1.617   1.612
  646SOL    HW2 1964   2.881   1.482   1.684
  647SOL     OW 1965   2.212   0.898   1.804
  647SOL    HW1 1966   2.288   0.942   1.852
  647SOL    HW2 1967   2.247   0.851   1.722
  648SOL     OW 1968   2.930   1.333   0.849
  648SOL    HW1 1969   2.937   1.249   0.794
  648SOL    HW2 1970   2.992   1.402   0.813
  649SOL     OW 1971   2.181   0.810   0.949
  649SOL    HW1 1972   2.274   0.846   0.954
  649SOL    HW2 1973   2.175   0.725   1.001
  650SOL     OW 1974   2.201   0.509   1.006
  650SOL    HW1 1975   2.149   0.426   0.989
  650SOL    HW2 1976   2.278   0.514   0.942
  651SOL     OW 1977   3.000   0.380   1.678
  651SOL    HW1 1978   2.955   0.443   1.742
  651SOL    HW2 1979   3.093   0.411   1.661
  652SOL     OW 1980   3.022   0.207   1.477
  652SOL    HW1 1981   3.022   0.271   1.554
  652SOL    HW2 1982   3.050   0.255   1.394
  653SOL     OW 1983   1.870   1.326   0.200
  653SOL    HW1 1984   1.777   1.347   0.169
  653SOL    HW2 1985   1.880   1.227   0.213
  654SOL     OW 1986   1.950   1.801   0.927
  654SOL    HW1 1987   1.908   1.715   0.900
  654SOL    HW2 1988   2.044   1.804   0.893
  655SOL     OW 1989   2.366   1.568   0.910
  655SOL    HW1 1990   2.432   1.642   0.919
  655SOL    HW2 1991   2.410   1.489   0.868
  656SOL     OW 1992   2.864   0.796   1.238
  656SOL    HW1 1993   2.905   0.764   1.324
  656SOL    HW2 1994   2.768   0.769   1.235
  657SOL     OW 1995   1.902   0.544   1.114
  657SOL    HW1 1996   1.987   0.511   1.073
  657SOL    HW2 1997   1.915   0.559   1.212
  658SOL     OW 1998   2.051   0.520   1.722
  658SOL    HW1 1999   2.110   0.480   1.652
  658SOL    HW2 2000   1.993   0.591   1.681
  659SOL     OW 2001   2.677   0.572   0.325
  659SOL    HW1 2002   2.684   0.483   0.279
  659SOL    HW2 2003   2.583   0.606   0.317
  660SOL     OW 2004   2.114   1.564   1.744
  660SOL    HW1 2005   2.084   1.621   1.820
  660SOL    HW2 2006   2.107   1.467   1.770
  661SOL     OW 2007   2.533   0.464   1.269
  661SOL    HW1 2008   2.499   0.375   1.239
  661SOL    HW2 2009   2.559   0.518   1.189
  662SOL     OW 2010   2.792   1.678   1.465
  662SOL    HW1 2011   2.768   1.660   1.370
  662SOL    HW2 2012   2.822   1.772   1.475
  663SOL     OW 2013   2.335   0.500   0.191
  663SOL    HW1 2014   2.396   0.580   0.195
  663SOL    HW2 2015   2.240   0.531   0.198
  664SOL     OW 2016   2.021   1.137   1.466
  664SOL    HW1 2017   2.043   1.076   1.542
  664SOL    HW2 2018   2.031   1.088   1.380
  665SOL     OW 2019   3.164   0.855   0.309
  665SOL    HW1 2020   3.078   0.824   0.351
  665SOL    HW2 2021   3.160   0.841   0.210
  666SOL     OW 2022   1.945   1.258   1.022
  666SOL    HW1 2023   1.940   1.257   1.122
  666SOL    HW2 2024   1.862   1.217   0.984
  667SOL     OW 2025   2.550   1.662   1.716
  667SOL    HW1 2026   2.494   1.743   1.725
  667SOL    HW2 2027   2.602   1.666   1.630
  668SOL     OW 2028   2.765   0.086   0.133
  668SOL    HW1 2029   2.816   0.087   0.047
  668SOL    HW2 2030   2.821   0.044   0.204
  669SOL     OW 2031   1.992   1.794   1.851
  669SOL    HW1 2032   1.951   1.720   1.904
  669SOL    HW2 2033   2.056   1.845   1.909
  670SOL     OW 2034   2.692   1.273   1.422
  670SOL    HW1 2035   2.687   1.306   1.517
  670SOL    HW2 2036   2.606   1.292   1.376
  671SOL     OW 2037   2.534   1.616   0.154
  671SOL    HW1 2038   2.543   1.626   0.055
  671SOL    HW2 2039   2.494   1.527   0.175
  672SOL     OW 2040   2.125   0.326   0.720
  672SOL    HW1 2041   2.046   0.377   0.686
  672SOL    HW2 2042   2.116   0.311   0.818
  673SOL     OW 2043   2.684   1.002   1.372
  673SOL    HW1 2044   2.724   1.001   1.280
  673SOL    HW2 2045   2.694   1.094   1.412
  674SOL     OW 2046   2.778   0.910   0.291
  674SOL    HW1 2047   2.841   0.948   0.223
  674SOL    HW2 2048   2.818   0.827   0.330
  675SOL     OW 2049   2.234   1.288   1.490
  675SOL    HW1 2050   2.221   1.381   1.456
  675SOL    HW2 2051   2.150   1.236   1.477
  676SOL     OW 2052   2.901   1.098   0.696
  676SOL    HW1 2053   2.831   1.051   0.750
  676SOL    HW2 2054   2.960   1.030   0.653
  677SOL     OW 2055   2.876   0.236   0.971
  677SOL    HW1 2056   2.868   0.200   0.878
  677SOL    HW2 2057   2.874   0.160   1.036
  678SOL     OW 2058   2.452   1.487   0.491
  678SOL    HW1 2059   2.494   1.429   0.421
  678SOL    HW2 2060   2.408   1.566   0.447
  679SOL     OW 2061   2.117   1.348   0.290
  679SOL    HW1 2062   2.021   1.349   0.263
  679SOL    HW2 2063   2.129   1.401   0.374
  680SOL     OW 2064   1.967   1.013   1.726
  680SOL    HW1 2065   1.890   0.980   1.780
  680SOL    HW2 2066   2.052   0.983   1.768
  681SOL     OW 2067   2.534   0.203   1.489
  681SOL    HW1 2068   2.624   0.187   1.449
  681SOL    HW2 2069   2.542   0.208   1.588
  682SOL     OW 2070   1.934   0.166   0.318
  682SOL    HW1 2071   1.917   0.249   0.264
  682SOL    HW2 2072   2.024   0.129   0.296
  683SOL     OW 2073   2.475   0.842   1.431
  683SOL    HW1 2074   2.531   0.923   1.414
  683SOL    HW2 2075   2.534   0.762   1.434
  684SOL     OW 2076   2.578   0.565   1.708
  684SOL    HW1 2077   2.597   0.630   1.782
  684SOL    HW2 2078   2.638   0.485   1.717
  685SOL     OW 2079   2.252   1.741   1.560
  685SOL    HW1 2080   2.161   1.782   1.558
  685SOL    HW2 2081   2.245   1.647   1.592
  686SOL     OW 2082   2.456   0.745   0.652
  686SOL    HW1 2083   2.506   0.830   0.633
  686SOL    HW2 2084   2.368   0.747   0.604
  687SOL     OW 2085   2.721   1.374   0.016
  687SOL    HW1 2086   2.675   1.389   0.104
  687SOL    HW2 2087   2.765   1.459  -0.014
  688SOL     OW 2088   2.523   1.790   0.953
  688SOL    HW1 2089   2.477   1.878   0.940
  688SOL    HW2 2090   2.622   1.802   0.946
  689SOL     OW 2091   2.721   0.956   0.861
  689SOL    HW1 2092   2.775   0.887   0.909
  689SOL    HW2 2093   2.689   1.025   0.927
  690SOL     OW 2094   2.945   0.984   0.087
  690SOL    HW1 2095   2.922   1.037   0.005
  690SOL    HW2 2096   3.026   0.928   0.068
  691SOL     OW 2097   2.083   1.314   1.844
  691SOL    HW1 2098   2.018   1.241   1.823
  691SOL    HW2 2099   2.087   1.328   1.942
  692SOL     OW 2100   1.941   1.240   0.653
  692SOL    HW1 2101   1.940   1.193   0.741
  692SOL    HW2 2102   2.023   1.212   0.602
  693SOL     OW 2103   2.534   1.391   1.624
  693SOL    HW1 2104   2.456   1.341   1.662
  693SOL    HW2 2105   2.531   1.486   1.655
  694SOL     OW 2106   2.290   0.424   0.520
  694SOL    HW1 2107   2.320   0.352   0.458
  694SOL    HW2 2108   2.251   0.384   0.603
  695SOL     OW 2109   2.179   0.547   1.280
  695SOL    HW1 2110   2.217   0.488   1.352
  695SOL    HW2 2111   2.219   0.521   1.192
  696SOL     OW 2112   2.674   1.586   0.687
  696SOL    HW1 2113   2.706   1.596   0.593
  696SOL    HW2 2114   2.595   1.524   0.689
  697SOL     OW 2115   2.863   0.034   1.154
  697SOL    HW1 2116   2.800  -0.038   1.123
  697SOL    HW2 2117   2.956  -0.002   1.154
  698SOL     OW 2118   2.632   1.330   0.301
  698SOL    HW1 2119   2.586   1.243   0.318
  698SOL    HW2 2120   2.723   1.327   0.342
  699SOL     OW 2121   2.480   1.567   1.284
  699SOL    HW1 2122   2.475   1.649   1.341
  699SOL    HW2 2123   2.569   1.564   1.239
  700SOL     OW 2124   1.901   1.077   0.300
  700SOL    HW1 2125   2.000   1.066   0.291
  700SOL    HW2 2126   1.861   0.991   0.332
  701SOL     OW 2127   2.737   1.646   0.337
  701SOL    HW1 2128   2.660   1.611   0.283
  701SOL    HW2 2129   2.705   1.717   0.399
  702SOL     OW 2130   2.092   0.628   1.975
  702SOL    HW1 2131   1.999   0.626   2.012
  702SOL    HW2 2132   2.093   0.589   1.883
  703SOL     OW 2133   2.087   0.275   2.858
  703SOL    HW1 2134   2.122   0.258   2.950
  703SOL    HW2 2135   1.999   0.230   2.846
  704SOL     OW 2136   1.881   0.368   2.509
  704SOL    HW1 2137   1.799   0.411   2.548
  704SOL    HW2 2138   1.853   0.295   2.446
  705SOL     OW 2139   2.431   1.275   3.027
  705SOL    HW1 2140   2.338   1.268   2.990
  705SOL    HW2 2141   2.442   1.364   3.071
  706SOL     OW 2142   2.630   1.144   2.885
  706SOL    HW1 2143   2.552   1.161   2.945
  706SOL    HW2 2144   2.664   1.231   2.849
  707SOL     OW 2145   2.547   1.012   2.527
  707SOL    HW1 2146   2.616   0.996   2.597
  707SOL    HW2 2147   2.474   1.069   2.565
  708SOL     OW 2148   2.197   1.435   2.923
  708SOL    HW1 2149   2.119   1.404   2.870
  708SOL    HW2 2150   2.255   1.493   2.866
  709SOL     OW 2151   2.093   1.713   2.345
  709SOL    HW1 2152   2.127   1.790   2.399
  709SOL    HW2 2153   2.137   1.713   2.255
  710SOL     OW 2154   2.092   1.434   2.400
  710SOL    HW1 2155   2.066   1.530   2.400
  710SOL    HW2 2156   2.021   1.380   2.445
  711SOL     OW 2157   2.102   1.091   2.748
  711SOL    HW1 2158   2.116   1.007   2.800
  711SOL    HW2 2159   2.047   1.155   2.803
  712SOL     OW 2160   2.468   0.964   1.985
  712SOL    HW1 2161   2.475   1.048   1.931
  712SOL    HW2 2162   2.514   0.977   2.073
  713SOL     OW 2163   1.984   0.643   2.425
  713SOL    HW1 2164   1.939   0.555   2.442
  713SOL    HW2 2165   1.983   0.697   2.509
  714SOL     OW 2166   1.889   1.596   1.979
  714SOL    HW1 2167   1.870   1.500   2.000
  714SOL    HW2 2168   1.856   1.654   2.054
  715SOL     OW 2169   2.475   1.365   2.588
  715SOL    HW1 2170   2.426   1.278   2.597
  715SOL    HW2 2171   2.452   1.408   2.501
  716SOL     OW 2172   2.671   0.004   2.364
  716SOL    HW1 2173   2.711   0.095   2.355
  716SOL    HW2 2174   2.571   0.012   2.370
  717SOL     OW 2175   2.059   0.976   3.126
  717SOL    HW1 2176   2.148   0.931   3.112
  717SOL    HW2 2177   1.986   0.911   3.107
  718SOL     OW 2178   2.460   0.729   2.132
  718SOL    HW1 2179   2.484   0.798   2.064
  718SOL    HW2 2180   2.382   0.762   2.186
  719SOL     OW 2181   2.903   0.701   2.291
  719SOL    HW1 2182   2.929   0.697   2.387
  719SOL    HW2 2183   2.818   0.650   2.277
  720SOL     OW 2184   1.938   0.811   2.651
  720SOL    HW1 2185   2.037   0.799   2.660
  720SOL    HW2 2186   1.914   0.906   2.672
  721SOL     OW 2187   2.727   0.348   2.057
  721SOL    HW1 2188   2.786   0.411   2.008
  721SOL    HW2 2189   2.746   0.254   2.028
  722SOL     OW 2190   2.412   0.196   2.747
  722SOL    HW1 2191   2.407   0.191   2.847
  722SOL    HW2 2192   2.414   0.292   2.718
  723SOL     OW 2193   2.870   1.456   2.339
  723SOL    HW1 2194   2.824   1.528   2.287
  723SOL    HW2 2195   2.866   1.476   2.437
  724SOL     OW 2196   2.213   1.801   2.715
  724SOL    HW1 2197   2.263   1.715   2.721
  724SOL    HW2 2198   2.278   1.878   2.712
  725SOL     OW 2199   2.183   0.943   2.104
  725SOL    HW1 2200   2.265   0.982   2.062
  725SOL    HW2 2201   2.156   0.861   2.055
  726SOL     OW 2202   2.326   1.743   2.185
  726SOL    HW1 2203   2.359   1.782   2.271
  726SOL    HW2 2204   2.402   1.736   2.120
  727SOL     OW 2205   2.111   1.785   3.103
  727SOL    HW1 2206   2.168   1.720   3.153
  727SOL    HW2 2207   2.095   1.752   3.010
  728SOL     OW 2208   2.802   1.698   2.766
  728SOL    HW1 2209   2.882   1.641   2.787
  728SOL    HW2 2210   2.753   1.658   2.689
  729SOL     OW 2211   2.244   0.700   2.342
  729SOL    HW1 2212   2.289   0.610   2.339
  729SOL    HW2 2213   2.150   0.689   2.375
  730SOL     OW 2214   2.476   0.122   1.979
  730SOL    HW1 2215   2.574   0.100   1.986
  730SOL    HW2 2216   2.445   0.105   1.886
  731SOL     OW 2217   2.665   1.402   2.786
  731SOL    HW1 2218   2.755   1.416   2.744
  731SOL    HW2 2219   2.594   1.404   2.715
  732SOL     OW 2220   2.784   0.503   2.761
  732SOL    HW1 2221   2.759   0.494   2.665
  732SOL    HW2 2222   2.832   0.421   2.792
  733SOL     OW 2223   2.401   0.064   2.374
  733SOL    HW1 2224   2.320   0.065   2.432
  733SOL    HW2 2225   2.404   0.147   2.319
  734SOL     OW 2226   2.159   0.035   2.033
  734SOL    HW1 2227   2.208   0.119   2.012
  734SOL    HW2 2228   2.221  -0.030   2.078
  735SOL     OW 2229   2.797   0.236   2.342
  735SOL    HW1 2230   2.749   0.277   2.264
  735SOL    HW2 2231   2.896   0.234   2.323
  736SOL     OW 2232   3.089   1.570   2.655
  736SOL    HW1 2233   3.110   1.644   2.590
  736SOL    HW2 2234   3.157   1.570   2.728
  737SOL     OW 2235   2.321   1.152   2.603
  737SOL    HW1 2236   2.250   1.125   2.668
  737SOL    HW2 2237   2.295   1.124   2.510
  738SOL     OW 2238   3.133   1.797   2.453
  738SOL    HW1 2239   3.177   1.861   2.389
  738SOL    HW2 2240   3.083   1.849   2.523
  739SOL     OW 2241   2.894   0.549   1.878
  739SOL    HW1 2242   2.853   0.631   1.839
  739SOL    HW2 2243   2.958   0.575   1.951
  740SOL     OW 2244   2.728   0.454   2.504
  740SOL    HW1 2245   2.696   0.526   2.442
  740SOL    HW2 2246   2.752   0.373   2.451
  741SOL     OW 2247   2.879   0.039   2.615
  741SOL    HW1 2248   2.807   0.044   2.546
  741SOL    HW2 2249   2.855  -0.030   2.684
  742SOL     OW 2250   2.350   1.385   2.036
  742SOL    HW1 2251   2.263   1.370   2.083
  742SOL    HW2 2252   2.333   1.411   1.941
  743SOL     OW 2253   2.389   0.256   2.190
  743SOL    HW1 2254   2.416   0.197   2.115
  743SOL    HW2 2255   2.389   0.351   2.159
  744SOL     OW 2256   2.567   1.050   2.230
  744SOL    HW1 2257   2.553   1.057   2.329
  744SOL    HW2 2258   2.651   0.999   2.212
  745SOL     OW 2259   2.272   0.813   3.113
  745SOL    HW1 2260   2.358   0.825   3.163
  745SOL    HW2 2261   2.230   0.726   3.140
  746SOL     OW 2262   2.229   1.100   2.363
  746SOL    HW1 2263   2.222   1.183   2.307
  746SOL    HW2 2264   2.233   1.020   2.303
  747SOL     OW 2265   2.428   0.537   2.727
  747SOL    HW1 2266   2.440   0.603   2.653
  747SOL    HW2 2267   2.474   0.571   2.810
  748SOL     OW 2268   3.114   1.348   2.250
  748SOL    HW1 2269   3.164   1.425   2.290
  748SOL    HW2 2270   3.019   1.350   2.282
  749SOL     OW 2271   3.134   1.445   3.004
  749SOL    HW1 2272   3.181   1.458   3.091
  749SOL    HW2 2273   3.068   1.371   3.013
  750SOL     OW 2274   2.435   0.870   2.891
  750SOL    HW1 2275   2.479   0.959   2.882
  750SOL    HW2 2276   2.372   0.870   2.968
  751SOL     OW 2277   3.222   0.862   2.907
  751SOL    HW1 2278   3.147   0.862   2.841
  751SOL    HW2 2279   3.259   0.770   2.916
  752SOL     OW 2280   3.071   0.525   2.137
  752SOL    HW1 2281   3.084   0.441   2.191
  752SOL    HW2 2282   3.042   0.599   2.197
  753SOL     OW 2283   2.169   0.213   3.093
  753SOL    HW1 2284   2.146   0.250   3.183
  753SOL    HW2 2285   2.139   0.118   3.087
  754SOL     OW 2286   2.594   0.634   2.926
  754SOL    HW1 2287   2.653   0.608   2.850
  754SOL    HW2 2288   2.566   0.730   2.915
  755SOL     OW 2289   2.169   0.063   2.480
  755SOL    HW1 2290   2.158   0.157   2.513
  755SOL    HW2 2291   2.164   0.000   2.557
  756SOL     OW 2292   2.885   0.766   2.828
  756SOL    HW1 2293   2.900   0.787   2.924
  756SOL    HW2 2294   2.855   0.671   2.819
  757SOL     OW 2295   3.165   0.838   1.904
  757SOL    HW1 2296   3.199   0.745   1.919
  757SOL    HW2 2297   3.183   0.865   1.809
  758SOL     OW 2298   2.930   1.333   2.711
  758SOL    HW1 2299   2.937   1.249   2.656
  758SOL    HW2 2300   2.992   1.402   2.675
  759SOL     OW 2301   2.181   0.810   2.811
  759SOL    HW1 2302   2.274   0.846   2.816
  759SOL    HW2 2303   2.175   0.725   2.863
  760SOL     OW 2304   2.201   0.509   2.868
  760SOL    HW1 2305   2.149   0.426   2.851
  760SOL    HW2 2306   2.278   0.514   2.804
  761SOL     OW 2307   1.870   1.326   2.062
  761SOL    HW1 2308   1.777   1.347   2.031
  761SOL    HW2 2309   1.880   1.227   2.075
  762SOL     OW 2310   1.950   1.801   2.789
  762SOL    HW1 2311   1.908   1.715   2.762
  762SOL    HW2 2312   2.044   1.804   2.755
  763SOL     OW 2313   2.366   1.568   2.772
  763SOL    HW1 2314   2.432   1.642   2.781
  763SOL    HW2 2315   2.410   1.489   2.730
  764SOL     OW 2316   2.864   0.796   3.100
  764SOL    HW1 2317   2.905   0.764   3.186
  764SOL    HW2 2318   2.768   0.769   3.097
  765SOL     OW 2319   1.902   0.544   2.976
  765SOL    HW1 2320   1.987   0.511   2.935
  765SOL    HW2 2321   1.915   0.559   3.074
  766SOL     OW 2322   2.677   0.572   2.187
  766SOL    HW1 2323   2.684   0.483   2.141
  766SOL    HW2 2324   2.583   0.606   2.179
  767SOL     OW 2325   2.533   0.464   3.131
  767SOL    HW1 2326   2.499   0.375   3.101
  767SOL    HW2 2327   2.559   0.518   3.051
  768SOL     OW 2328   2.335   0.500   2.053
  768SOL    HW1 2329   2.396   0.580   2.057
  768SOL    HW2 2330   2.240   0.531   2.060
  769SOL     OW 2331   3.164   0.855   2.171
  769SOL    HW1 2332   3.078   0.824   2.213
  769SOL    HW2 2333   3.160   0.841   2.072
  770SOL     OW 2334   1.945   1.258   2.884
  770SOL    HW1 2335   1.940   1.257   2.984
  770SOL    HW2 2336   1.862   1.217   2.846
  771SOL     OW 2337   2.534   1.616   2.016
  771SOL    HW1 2338   2.543   1.626   1.917
  771SOL    HW2 2339   2.494   1.527   2.037
  772SOL     OW 2340   2.125   0.326   2.582
  772SOL    HW1 2341   2.046   0.377   2.548
  772SOL    HW2 2342   2.116   0.311   2.680
  773SOL     OW 2343   2.684   1.002   3.234
  773SOL    HW1 2344   2.724   1.001   3.142
  773SOL    HW2 2345   2.694   1.094   3.274
  774SOL     OW 2346   2.778   0.910   2.153
  774SOL    HW1 2347   2.841   0.948   2.085
  774SOL    HW2 2348   2.818   0.827   2.192
  775SOL     OW 2349   2.901   1.098   2.558
  775SOL    HW1 2350   2.831   1.051   2.612
  775SOL    HW2 2351   2.960   1.030   2.515
  776SOL     OW 2352   2.876   0.236   2.833
  776SOL    HW1 2353   2.868   0.200   2.740
  776SOL    HW2 2354   2.874   0.160   2.898
  777SOL     OW 2355   2.452   1.487   2.353
  777SOL    HW1 2356   2.494   1.429   2.283
  777SOL    HW2 2357   2.408   1.566   2.309
  778SOL     OW 2358   2.117   1.348   2.152
  778SOL    HW1 2359   2.021   1.349   2.125
  778SOL    HW2 2360   2.129   1.401   2.236
  779SOL     OW 2361   1.937   0.345   1.895
  779SOL    HW1 2362   1.845   0.317   1.866
  779SOL    HW2 2363   1.968   0.422   1.839
  780SOL     OW 2364   1.934   0.166   2.180
  780SOL    HW1 2365   1.917   0.249   2.126
  780SOL    HW2 2366   2.024   0.129   2.158
  781SOL     OW 2367   2.456   0.745   2.514
  781SOL    HW1 2368   2.506   0.830   2.495
  781SOL    HW2 2369   2.368   0.747   2.466
  782SOL     OW 2370   2.721   1.374   1.878
  782SOL    HW1 2371   2.675   1.389   1.966
  782SOL    HW2 2372   2.765   1.459   1.848
  783SOL     OW 2373   2.523   1.790   2.815
  783SOL    HW1 2374   2.477   1.878   2.802
  783SOL    HW2 2375   2.622   1.802   2.808
  784SOL     OW 2376   2.721   0.956   2.723
  784SOL    HW1 2377   2.775   0.887   2.771
  784SOL    HW2 2378   2.689   1.025   2.789
  785SOL     OW 2379   2.945   0.984   1.949
  785SOL    HW1 2380   2.922   1.037   1.867
  785SOL    HW2 2381   3.026   0.928   1.930
  786SOL     OW 2382   1.941   1.240   2.515
  786SOL    HW1 2383   1.940   1.193   2.603
  786SOL    HW2 2384   2.023   1.212   2.464
  787SOL     OW 2385   2.290   0.424   2.382
  787SOL    HW1 2386   2.320   0.352   2.320
  787SOL    HW2 2387   2.251   0.384   2.465
  788SOL     OW 2388   2.674   1.586   2.549
  788SOL    HW1 2389   2.706   1.596   2.455
  788SOL    HW2 2390   2.595   1.524   2.551
  789SOL     OW 2391   2.632   1.330   2.163
  789SOL    HW1 2392   2.586   1.243   2.180
  789SOL    HW2 2393   2.723   1.327   2.204
  790SOL     OW 2394   1.901   1.077   2.162
  790SOL    HW1 2395   2.000   1.066   2.153
  790SOL    HW2 2396   1.861   0.991   2.194
  791SOL     OW 2397   2.737   1.646   2.199
  791SOL    HW1 2398   2.660   1.611   2.145
  791SOL    HW2 2399   2.705   1.717   2.261
  792SOL     OW 2400   2.092   2.490   0.113
  792SOL    HW1 2401   1.999   2.488   0.150
  792SOL    HW2 2402   2.093   2.451   0.021
  793SOL     OW 2403   2.087   2.137   0.996
  793SOL    HW1 2404   2.122   2.120   1.088
  793SOL    HW2 2405   1.999   2.092   0.984
  794SOL     OW 2406   1.881   2.230   0.647
  794SOL    HW1 2407   1.799   2.273   0.686
  794SOL    HW2 2408   1.853   2.157   0.584
  795SOL     OW 2409   2.630   3.006   1.023
  795SOL    HW1 2410   2.552   3.023   1.083
  795SOL    HW2 2411   2.664   3.093   0.987
  796SOL     OW 2412   2.712   2.660   1.823
  796SOL    HW1 2413   2.708   2.736   1.888
  796SOL    HW2 2414   2.734   2.696   1.732
  797SOL     OW 2415   2.547   2.874   0.665
  797SOL    HW1 2416   2.616   2.858   0.735
  797SOL    HW2 2417   2.474   2.931   0.703
  798SOL     OW 2418   2.300   2.254   1.499
  798SOL    HW1 2419   2.382   2.198   1.508
  798SOL    HW2 2420   2.219   2.196   1.503
  799SOL     OW 2421   2.102   2.953   0.886
  799SOL    HW1 2422   2.116   2.869   0.938
  799SOL    HW2 2423   2.047   3.017   0.941
  800SOL     OW 2424   2.468   2.826   0.123
  800SOL    HW1 2425   2.475   2.910   0.069
  800SOL    HW2 2426   2.514   2.839   0.211
  801SOL     OW 2427   1.984   2.505   0.563
  801SOL    HW1 2428   1.939   2.417   0.580
  801SOL    HW2 2429   1.983   2.559   0.647
  802SOL     OW 2430   1.975   2.599   1.597
  802SOL    HW1 2431   2.063   2.586   1.642
  802SOL    HW2 2432   1.962   2.696   1.575
  803SOL     OW 2433   2.475   3.227   0.726
  803SOL    HW1 2434   2.426   3.140   0.735
  803SOL    HW2 2435   2.452   3.270   0.639
  804SOL     OW 2436   2.671   1.866   0.502
  804SOL    HW1 2437   2.711   1.957   0.493
  804SOL    HW2 2438   2.571   1.874   0.508
  805SOL     OW 2439   2.059   2.838   1.264
  805SOL    HW1 2440   2.148   2.793   1.250
  805SOL    HW2 2441   1.986   2.773   1.245
  806SOL     OW 2442   2.179   2.113   1.801
  806SOL    HW1 2443   2.250   2.184   1.807
  806SOL    HW2 2444   2.091   2.152   1.829
  807SOL     OW 2445   2.460   2.591   0.270
  807SOL    HW1 2446   2.484   2.660   0.202
  807SOL    HW2 2447   2.382   2.624   0.324
  808SOL     OW 2448   2.669   2.467   1.465
  808SOL    HW1 2449   2.622   2.464   1.554
  808SOL    HW2 2450   2.618   2.412   1.399
  809SOL     OW 2451   2.835   2.752   1.572
  809SOL    HW1 2452   2.881   2.668   1.543
  809SOL    HW2 2453   2.779   2.786   1.497
  810SOL     OW 2454   2.853   2.272   1.242
  810SOL    HW1 2455   2.776   2.306   1.296
  810SOL    HW2 2456   2.819   2.221   1.163
  811SOL     OW 2457   2.903   2.563   0.429
  811SOL    HW1 2458   2.929   2.559   0.525
  811SOL    HW2 2459   2.818   2.512   0.415
  812SOL     OW 2460   1.938   2.673   0.789
  812SOL    HW1 2461   2.037   2.661   0.798
  812SOL    HW2 2462   1.914   2.768   0.810
  813SOL     OW 2463   2.727   2.210   0.195
  813SOL    HW1 2464   2.786   2.273   0.146
  813SOL    HW2 2465   2.746   2.116   0.166
  814SOL     OW 2466   2.412   2.058   0.885
  814SOL    HW1 2467   2.407   2.053   0.985
  814SOL    HW2 2468   2.414   2.154   0.856
  815SOL     OW 2469   2.183   2.805   0.242
  815SOL    HW1 2470   2.265   2.844   0.200
  815SOL    HW2 2471   2.156   2.723   0.193
  816SOL     OW 2472   2.064   2.147   1.498
  816SOL    HW1 2473   1.984   2.207   1.485
  816SOL    HW2 2474   2.054   2.098   1.584
  817SOL     OW 2475   2.244   2.562   0.480
  817SOL    HW1 2476   2.289   2.472   0.477
  817SOL    HW2 2477   2.150   2.551   0.513
  818SOL     OW 2478   2.476   1.984   0.117
  818SOL    HW1 2479   2.574   1.962   0.124
  818SOL    HW2 2480   2.445   1.967   0.024
  819SOL     OW 2481   2.643   2.126   1.749
  819SOL    HW1 2482   2.710   2.065   1.792
  819SOL    HW2 2483   2.570   2.145   1.814
  820SOL     OW 2484   2.784   2.365   0.899
  820SOL    HW1 2485   2.759   2.356   0.803
  820SOL    HW2 2486   2.832   2.283   0.930
  821SOL     OW 2487   2.401   1.926   0.512
  821SOL    HW1 2488   2.320   1.927   0.570
  821SOL    HW2 2489   2.404   2.009   0.457
  822SOL     OW 2490   2.159   1.897   0.171
  822SOL    HW1 2491   2.208   1.981   0.150
  822SOL    HW2 2492   2.221   1.832   0.216
  823SOL     OW 2493   2.797   2.098   0.480
  823SOL    HW1 2494   2.749   2.139   0.402
  823SOL    HW2 2495   2.896   2.096   0.461
  824SOL     OW 2496   2.321   3.014   0.741
  824SOL    HW1 2497   2.250   2.987   0.806
  824SOL    HW2 2498   2.295   2.986   0.648
  825SOL     OW 2499   2.894   2.411   0.016
  825SOL    HW1 2500   2.853   2.493  -0.023
  825SOL    HW2 2501   2.958   2.437   0.089
  826SOL     OW 2502   1.940   2.418   1.386
  826SOL    HW1 2503   2.032   2.417   1.345
  826SOL    HW2 2504   1.934   2.492   1.453
  827SOL     OW 2505   2.423   2.084   1.147
  827SOL    HW1 2506   2.461   2.000   1.184
  827SOL    HW2 2507   2.335   2.103   1.191
  828SOL     OW 2508   2.728   2.316   0.642
  828SOL    HW1 2509   2.696   2.388   0.580
  828SOL    HW2 2510   2.752   2.235   0.589
  829SOL     OW 2511   2.879   1.901   0.753
  829SOL    HW1 2512   2.807   1.906   0.684
  829SOL    HW2 2513   2.855   1.832   0.822
  830SOL     OW 2514   2.389   2.118   0.328
  830SOL    HW1 2515   2.416   2.059   0.253
  830SOL    HW2 2516   2.389   2.213   0.297
  831SOL     OW 2517   2.777   1.951   1.402
  831SOL    HW1 2518   2.802   1.931   1.307
  831SOL    HW2 2519   2.849   2.007   1.444
  832SOL     OW 2520   2.567   2.912   0.368
  832SOL    HW1 2521   2.553   2.919   0.467
  832SOL    HW2 2522   2.651   2.861   0.350
  833SOL     OW 2523   2.272   2.675   1.251
  833SOL    HW1 2524   2.358   2.687   1.301
  833SOL    HW2 2525   2.230   2.588   1.278
  834SOL     OW 2526   2.229   2.962   0.501
  834SOL    HW1 2527   2.222   3.045   0.445
  834SOL    HW2 2528   2.233   2.882   0.441
  835SOL     OW 2529   2.428   2.399   0.865
  835SOL    HW1 2530   2.440   2.465   0.791
  835SOL    HW2 2531   2.474   2.433   0.948
  836SOL     OW 2532   2.264   2.613   1.598
  836SOL    HW1 2533   2.332   2.668   1.551
  836SOL    HW2 2534   2.304   2.525   1.625
  837SOL     OW 2535   2.875   1.967   1.770
  837SOL    HW1 2536   2.881   2.052   1.718
  837SOL    HW2 2537   2.907   1.891   1.713
  838SOL     OW 2538   2.366   1.912   1.740
  838SOL    HW1 2539   2.324   1.855   1.670
  838SOL    HW2 2540   2.300   1.981   1.772
  839SOL     OW 2541   2.435   2.732   1.029
  839SOL    HW1 2542   2.479   2.821   1.020
  839SOL    HW2 2543   2.372   2.732   1.106
  840SOL     OW 2544   3.222   2.724   1.045
  840SOL    HW1 2545   3.147   2.724   0.979
  840SOL    HW2 2546   3.259   2.632   1.054
  841SOL     OW 2547   3.071   2.387   0.275
  841SOL    HW1 2548   3.084   2.303   0.329
  841SOL    HW2 2549   3.042   2.461   0.335
  842SOL     OW 2550   2.169   2.075   1.231
  842SOL    HW1 2551   2.146   2.112   1.321
  842SOL    HW2 2552   2.139   1.980   1.225
  843SOL     OW 2553   2.594   2.496   1.064
  843SOL    HW1 2554   2.653   2.470   0.988
  843SOL    HW2 2555   2.566   2.592   1.053
  844SOL     OW 2556   2.169   1.925   0.618
  844SOL    HW1 2557   2.158   2.019   0.651
  844SOL    HW2 2558   2.164   1.862   0.695
  845SOL     OW 2559   2.885   2.628   0.966
  845SOL    HW1 2560   2.900   2.649   1.062
  845SOL    HW2 2561   2.855   2.533   0.957
  846SOL     OW 2562   2.212   2.760   1.804
  846SOL    HW1 2563   2.288   2.804   1.852
  846SOL    HW2 2564   2.247   2.713   1.722
  847SOL     OW 2565   2.181   2.672   0.949
  847SOL    HW1 2566   2.274   2.708   0.954
  847SOL    HW2 2567   2.175   2.587   1.001
  848SOL     OW 2568   2.201   2.371   1.006
  848SOL    HW1 2569   2.149   2.288   0.989
  848SOL    HW2 2570   2.278   2.376   0.942
  849SOL     OW 2571   3.000   2.242   1.678
  849SOL    HW1 2572   2.955   2.305   1.742
  849SOL    HW2 2573   3.093   2.273   1.661
  850SOL     OW 2574   3.022   2.069   1.477
  850SOL    HW1 2575   3.022   2.133   1.554
  850SOL    HW2 2576   3.050   2.117   1.394
  851SOL     OW 2577   2.864   2.658   1.238
  851SOL    HW1 2578   2.905   2.626   1.324
  851SOL    HW2 2579   2.768   2.631   1.235
  852SOL     OW 2580   1.902   2.406   1.114
  852SOL    HW1 2581   1.987   2.373   1.073
  852SOL    HW2 2582   1.915   2.421   1.212
  853SOL     OW 2583   2.051   2.382   1.722
  853SOL    HW1 2584   2.110   2.342   1.652
  853SOL    HW2 2585   1.993   2.453   1.681
  854SOL     OW 2586   2.677   2.434   0.325
  854SOL    HW1 2587   2.684   2.345   0.279
  854SOL    HW2 2588   2.583   2.468   0.317
  855SOL     OW 2589   2.533   2.326   1.269
  855SOL    HW1 2590   2.499   2.237   1.239
  855SOL    HW2 2591   2.559   2.380   1.189
  856SOL     OW 2592   2.335   2.362   0.191
  856SOL    HW1 2593   2.396   2.442   0.195
  856SOL    HW2 2594   2.240   2.393   0.198
  857SOL     OW 2595   2.021   2.999   1.466
  857SOL    HW1 2596   2.043   2.938   1.542
  857SOL    HW2 2597   2.031   2.950   1.380
  858SOL     OW 2598   3.164   2.717   0.309
  858SOL    HW1 2599   3.078   2.686   0.351
  858SOL    HW2 2600   3.160   2.703   0.210
  859SOL     OW 2601   2.765   1.948   0.133
  859SOL    HW1 2602   2.816   1.949   0.047
  859SOL    HW2 2603   2.821   1.906   0.204
  860SOL     OW 2604   2.125   2.188   0.720
  860SOL    HW1 2605   2.046   2.239   0.686
  860SOL    HW2 2606   2.116   2.173   0.818
  861SOL     OW 2607   2.684   2.864   1.372
  861SOL    HW1 2608   2.724   2.863   1.280
  861SOL    HW2 2609   2.694   2.956   1.412
  862SOL     OW 2610   2.778   2.772   0.291
  862SOL    HW1 2611   2.841   2.810   0.223
  862SOL    HW2 2612   2.818   2.689   0.330
  863SOL     OW 2613   2.234   3.150   1.490
  863SOL    HW1 2614   2.221   3.243   1.456
  863SOL    HW2 2615   2.150   3.098   1.477
  864SOL     OW 2616   2.876   2.098   0.971
  864SOL    HW1 2617   2.868   2.062   0.878
  864SOL    HW2 2618   2.874   2.022   1.036
  865SOL     OW 2619   1.967   2.875   1.726
  865SOL    HW1 2620   1.890   2.842   1.780
  865SOL    HW2 2621   2.052   2.845   1.768
  866SOL     OW 2622   2.534   2.065   1.489
  866SOL    HW1 2623   2.624   2.049   1.449
  866SOL    HW2 2624   2.542   2.070   1.588
  867SOL     OW 2625   1.934   2.028   0.318
  867SOL    HW1 2626   1.917   2.111   0.264
  867SOL    HW2 2627   2.024   1.991   0.296
  868SOL     OW 2628   2.475   2.704   1.431
  868SOL    HW1 2629   2.531   2.785   1.414
  868SOL    HW2 2630   2.534   2.624   1.434
  869SOL     OW 2631   2.578   2.427   1.708
  869SOL    HW1 2632   2.597   2.492   1.782
  869SOL    HW2 2633   2.638   2.347   1.717
  870SOL     OW 2634   2.456   2.607   0.652
  870SOL    HW1 2635   2.506   2.692   0.633
  870SOL    HW2 2636   2.368   2.609   0.604
  871SOL     OW 2637   2.721   2.818   0.861
  871SOL    HW1 2638   2.775   2.749   0.909
  871SOL    HW2 2639   2.689   2.887   0.927
  872SOL     OW 2640   2.945   2.846   0.087
  872SOL    HW1 2641   2.922   2.899   0.005
  872SOL    HW2 2642   3.026   2.790   0.068
  873SOL     OW 2643   1.941   3.102   0.653
  873SOL    HW1 2644   1.940   3.055   0.741
  873SOL    HW2 2645   2.023   3.074   0.602
  874SOL     OW 2646   2.290   2.286   0.520
  874SOL    HW1 2647   2.320   2.214   0.458
  874SOL    HW2 2648   2.251   2.246   0.603
  875SOL     OW 2649   2.179   2.409   1.280
  875SOL    HW1 2650   2.217   2.350   1.352
  875SOL    HW2 2651   2.219   2.383   1.192
  876SOL     OW 2652   2.863   1.896   1.154
  876SOL    HW1 2653   2.800   1.824   1.123
  876SOL    HW2 2654   2.956   1.860   1.154
  877SOL     OW 2655   2.632   3.192   0.301
  877SOL    HW1 2656   2.586   3.105   0.318
  877SOL    HW2 2657   2.723   3.189   0.342
  878SOL     OW 2658   2.092   2.490   1.975
  878SOL    HW1 2659   1.999   2.488   2.012
  878SOL    HW2 2660   2.093   2.451   1.883
  879SOL     OW 2661   2.087   2.137   2.858
  879SOL    HW1 2662   2.122   2.120   2.950
  879SOL    HW2 2663   1.999   2.092   2.846
  880SOL     OW 2664   1.881   2.230   2.509
  880SOL    HW1 2665   1.799   2.273   2.548
  880SOL    HW2 2666   1.853   2.157   2.446
  881SOL     OW 2667   2.630   3.006   2.885
  881SOL    HW1 2668   2.552   3.023   2.945
  881SOL    HW2 2669   2.664   3.093   2.849
  882SOL     OW 2670   2.547   2.874   2.527
  882SOL    HW1 2671   2.616   2.858   2.597
  882SOL    HW2 2672   2.474   2.931   2.565
  883SOL     OW 2673   2.102   2.953   2.748
  883SOL    HW1 2674   2.116   2.869   2.800
  883SOL    HW2 2675   2.047   3.017   2.803
  884SOL     OW 2676   2.468   2.826   1.985
  884SOL    HW1 2677   2.475   2.910   1.931
  884SOL    HW2 2678   2.514   2.839   2.073
  885SOL     OW 2679   1.984   2.505   2.425
  885SOL    HW1 2680   1.939   2.417   2.442
  885SOL    HW2 2681   1.983   2.559   2.509
  886SOL     OW 2682   2.475   3.227   2.588
  886SOL    HW1 2683   2.426   3.140   2.597
  886SOL    HW2 2684   2.452   3.270   2.501
  887SOL     OW 2685   2.671   1.866   2.364
  887SOL    HW1 2686   2.711   1.957   2.355
  887SOL    HW2 2687   2.571   1.874   2.370
  888SOL     OW 2688   2.059   2.838   3.126
  888SOL    HW1 2689   2.148   2.793   3.112
  888SOL    HW2 2690   1.986   2.773   3.107
  889SOL     OW 2691   2.460   2.591   2.132
  889SOL    HW1 2692   2.484   2.660   2.064
  889SOL    HW2 2693   2.382   2.624   2.186
  890SOL     OW 2694   2.903   2.563   2.291
  890SOL    HW1 2695   2.929   2.559   2.387
  890SOL    HW2 2696   2.818   2.512   2.277
  891SOL     OW 2697   1.938   2.673   2.651
  891SOL    HW1 2698   2.037   2.661   2.660
  891SOL    HW2 2699   1.914   2.768   2.672
  892SOL     OW 2700   2.727   2.210   2.057
  892SOL    HW1 2701   2.786   2.273   2.008
  892SOL    HW2 2702   2.746   2.116   2.028
  893SOL     OW 2703   2.412   2.058   2.747
  893SOL    HW1 2704   2.407   2.053   2.847
  893SOL    HW2 2705   2.414   2.154   2.718
  894SOL     OW 2706   2.183   2.805   2.104
  894SOL    HW1 2707   2.265   2.844   2.062
  894SOL    HW2 2708   2.156   2.723   2.055
  895SOL     OW 2709   2.244   2.562   2.342
  895SOL    HW1 2710   2.289   2.472   2.339
  895SOL    HW2 2711   2.150   2.551   2.375
  896SOL     OW 2712   2.476   1.984   1.979
  896SOL    HW1 2713   2.574   1.962   1.986
  896SOL    HW2 2714   2.445   1.967   1.886
  897SOL     OW 2715   2.750   3.376   3.057
  897SOL    HW1 2716   2.727   3.351   2.963
  897SOL    HW2 2717   2.811   3.307   3.096
  898SOL     OW 2718   2.784   2.365   2.761
  898SOL    HW1 2719   2.759   2.356   2.665
  898SOL    HW2 2720   2.832   2.283   2.792
  899SOL     OW 2721   2.401   1.926   2.374
  899SOL    HW1 2722   2.320   1.927   2.432
  899SOL    HW2 2723   2.404   2.009   2.319
  900SOL     OW 2724   2.159   1.897   2.033
  900SOL    HW1 2725   2.208   1.981   2.012
  900SOL    HW2 2726   2.221   1.832   2.078
  901SOL     OW 2727   2.797   2.098   2.342
  901SOL    HW1 2728   2.749   2.139   2.264
  901SOL    HW2 2729   2.896   2.096   2.323
  902SOL     OW 2730   2.321   3.014   2.603
  902SOL    HW1 2731   2.250   2.987   2.668
  902SOL    HW2 2732   2.295   2.986   2.510
  903SOL     OW 2733   2.894   2.411   1.878
  903SOL    HW1 2734   2.853   2.493   1.839
  903SOL    HW2 2735   2.958   2.437   1.951
  904SOL     OW 2736   2.728   2.316   2.504
  904SOL    HW1 2737   2.696   2.388   2.442
  904SOL    HW2 2738   2.752   2.235   2.451
  905SOL     OW 2739   2.879   1.901   2.615
  905SOL    HW1 2740   2.807   1.906   2.546
  905SOL    HW2 2741   2.855   1.832   2.684
  906SOL     OW 2742   2.389   2.118   2.190
  906SOL    HW1 2743   2.416   2.059   2.115
  906SOL    HW2 2744   2.389   2.213   2.159
  907SOL     OW 2745   2.567   2.912   2.230
  907SOL    HW1 2746   2.553   2.919   2.329
  907SOL    HW2 2747   2.651   2.861   2.212
  908SOL     OW 2748   2.272   2.675   3.113
  908SOL    HW1 2749   2.358   2.687   3.163
  908SOL    HW2 2750   2.230   2.588   3.140
  909SOL     OW 2751   2.229   2.962   2.363
  909SOL    HW1 2752   2.222   3.045   2.307
  909SOL    HW2 2753   2.233   2.882   2.303
  910SOL     OW 2754   2.428   2.399   2.727
  910SOL    HW1 2755   2.440   2.465   2.653
  910SOL    HW2 2756   2.474   2.433   2.810
  911SOL     OW 2757   2.435   2.732   2.891
  911SOL    HW1 2758   2.479   2.821   2.882
  911SOL    HW2 2759   2.372   2.732   2.968
  912SOL     OW 2760   3.222   2.724   2.907
  912SOL    HW1 2761   3.147   2.724   2.841
  912SOL    HW2 2762   3.259   2.632   2.916
  913SOL     OW 2763   3.071   2.387   2.137
  913SOL    HW1 2764   3.084   2.303   2.191
  913SOL    HW2 2765   3.042   2.461   2.197
  914SOL     OW 2766   2.169   2.075   3.093
  914SOL    HW1 2767   2.146   2.112   3.183
  914SOL    HW2 2768   2.139   1.980   3.087
  915SOL     OW 2769   2.594   2.496   2.926
  915SOL    HW1 2770   2.653   2.470   2.850
  915SOL    HW2 2771   2.566   2.592   2.915
  916SOL     OW 2772   2.169   1.925   2.480
  916SOL    HW1 2773   2.158   2.019   2.513
  916SOL    HW2 2774   2.164   1.862   2.557
  917SOL     OW 2775   2.885   2.628   2.828
  917SOL    HW1 2776   2.900   2.649   2.924
  917SOL    HW2 2777   2.855   2.533   2.819
  918SOL     OW 2778   3.165   2.700   1.904
  918SOL    HW1 2779   3.199   2.607   1.919
  918SOL    HW2 2780   3.183   2.727   1.809
  919SOL     OW 2781   2.181   2.672   2.811
  919SOL    HW1 2782   2.274   2.708   2.816
  919SOL    HW2 2783   2.175   2.587   2.863
  920SOL     OW 2784   2.201   2.371   2.868
  920SOL    HW1 2785   2.149   2.288   2.851
  920SOL    HW2 2786   2.278   2.376   2.804
  921SOL     OW 2787   2.864   2.658   3.100
  921SOL    HW1 2788   2.905   2.626   3.186
  921SOL    HW2 2789   2.768   2.631   3.097
  922SOL     OW 2790   1.902   2.406   2.976
  922SOL    HW1 2791   1.987   2.373   2.935
  922SOL    HW2 2792   1.915   2.421   3.074
  923SOL     OW 2793   2.677   2.434   2.187
  923SOL    HW1 2794   2.684   2.345   2.141
  923SOL    HW2 2795   2.583   2.468   2.179
  924SOL     OW 2796   2.533   2.326   3.131
  924SOL    HW1 2797   2.499   2.237   3.101
  924SOL    HW2 2798   2.559   2.380   3.051
  925SOL     OW 2799   2.335   2.362   2.053
  925SOL    HW1 2800   2.396   2.442   2.057
  925SOL    HW2 2801   2.240   2.393   2.060
  926SOL     OW 2802   2.021   2.999   3.328
  926SOL    HW1 2803   2.043   2.938   3.404
  926SOL    HW2 2804   2.031   2.950   3.242
  927SOL     OW 2805   3.164   2.717   2.171
  927SOL    HW1 2806   3.078   2.686   2.213
  927SOL    HW2 2807   3.160   2.703   2.072
  928SOL     OW 2808   2.125   2.188   2.582
  928SOL    HW1 2809   2.046   2.239   2.548
  928SOL    HW2 2810   2.116   2.173   2.680
  929SOL     OW 2811   2.684   2.864   3.234
  929SOL    HW1 2812   2.724   2.863   3.142
  929SOL    HW2 2813   2.694   2.956   3.274
  930SOL     OW 2814   2.778   2.772   2.153
  930SOL    HW1 2815   2.841   2.810   2.085
  930SOL    HW2 2816   2.818   2.689   2.192
  931SOL     OW 2817   2.876   2.098   2.833
  931SOL    HW1 2818   2.868   2.062   2.740
  931SOL    HW2 2819   2.874   2.022   2.898
  932SOL     OW 2820   1.937   2.207   1.895
  932SOL    HW1 2821   1.845   2.179   1.866
  932SOL    HW2 2822   1.968   2.284   1.839
  933SOL     OW 2823   1.934   2.028   2.180
  933SOL    HW1 2824   1.917   2.111   2.126
  933SOL    HW2 2825   2.024   1.991   2.158
  934SOL     OW 2826   2.456   2.607   2.514
  934SOL    HW1 2827   2.506   2.692   2.495
  934SOL    HW2 2828   2.368   2.609   2.466
  935SOL     OW 2829   2.721   2.818   2.723
  935SOL    HW1 2830   2.775   2.749   2.771
  935SOL    HW2 2831   2.689   2.887   2.789
  936SOL     OW 2832   2.945   2.846   1.949
  936SOL    HW1 2833   2.922   2.899   1.867
  936SOL    HW2 2834   3.026   2.790   1.930
  937SOL     OW 2835   1.941   3.102   2.515
  937SOL    HW1 2836   1.940   3.055   2.603
  937SOL    HW2 2837   2.023   3.074   2.464
  938SOL     OW 2838   2.290   2.286   2.382
  938SOL    HW1 2839   2.320   2.214   2.320
  938SOL    HW2 2840   2.251   2.246   2.465
  939SOL     OW 2841   2.632   3.192   2.163
  939SOL    HW1 2842   2.586   3.105   2.180
  939SOL    HW2 2843   2.723   3.189   2.204
  940SOL     OW 2844   1.901   2.939   2.162
  940SOL    HW1 2845   2.000   2.928   2.153
  940SOL    HW2 2846   1.861   2.853   2.194
   3.07016   3.07016   3.07016
