; mobley_9434451_GMX.top created by acpype (v: 2023.10.27) on Thu May 14 13:46:19 2026

[ defaults ]
; nbfunc        comb-rule       gen-pairs       fudgeLJ fudgeQQ
1               2               yes             0.5     0.8333333333

; Include mobley_9434451_GMX.itp topology
#include "mobley_9434451_GMX.itp"

; Ligand position restraints
#ifdef POSRES_LIG
#include "posre_mobley_9434451.itp"
#endif

#include "../common/SOL.TIP3P.itp"

[ system ]
mobley_9434451 in water

[ molecules ]
; Compound        nmols
 mobley_9434451   1     
SOL               478
