mobley_7099614_GMX.gro created by acpype (v: 2023.10.27) on Thu May 14 13:50:22 2026
 1434
    1MOL     C1    1   1.195   1.362   1.270
    1MOL     C2    2   1.195   1.228   1.272
    1MOL     C3    3   1.263   1.143   1.170
    1MOL    CL1    4   1.382   1.038   1.249
    1MOL     H1    5   1.143   1.418   1.347
    1MOL     H2    6   1.248   1.417   1.193
    1MOL     H3    7   1.140   1.177   1.351
    1MOL     H4    8   1.190   1.079   1.119
    1MOL     H5    9   1.315   1.202   1.094
    2SOL     OW   10   0.230   0.628   0.113
    2SOL    HW1   11   0.137   0.626   0.150
    2SOL    HW2   12   0.231   0.589   0.021
    3SOL     OW   13   0.225   0.275   0.996
    3SOL    HW1   14   0.260   0.258   1.088
    3SOL    HW2   15   0.137   0.230   0.984
    4SOL     OW   16   0.019   0.368   0.647
    4SOL    HW1   17  -0.063   0.411   0.686
    4SOL    HW2   18  -0.009   0.295   0.584
    5SOL     OW   19   0.569   1.275   1.165
    5SOL    HW1   20   0.476   1.268   1.128
    5SOL    HW2   21   0.580   1.364   1.209
    6SOL     OW   22   1.555   1.511   0.703
    6SOL    HW1   23   1.498   1.495   0.784
    6SOL    HW2   24   1.496   1.521   0.623
    7SOL     OW   25   1.135   0.703   0.717
    7SOL    HW1   26   1.192   0.781   0.692
    7SOL    HW2   27   1.075   0.729   0.793
    8SOL     OW   28   1.755   0.607   0.231
    8SOL    HW1   29   1.743   0.594   0.132
    8SOL    HW2   30   1.725   0.526   0.280
    9SOL     OW   31   0.768   1.144   1.023
    9SOL    HW1   32   0.690   1.161   1.083
    9SOL    HW2   33   0.802   1.231   0.987
   10SOL     OW   34   0.850   0.798   1.823
   10SOL    HW1   35   0.846   0.874   1.888
   10SOL    HW2   36   0.872   0.834   1.732
   11SOL     OW   37   0.685   1.012   0.665
   11SOL    HW1   38   0.754   0.996   0.735
   11SOL    HW2   39   0.612   1.069   0.703
   12SOL     OW   40   0.686   1.161   1.803
   12SOL    HW1   41   0.746   1.240   1.817
   12SOL    HW2   42   0.600   1.192   1.762
   13SOL     OW   43   0.335   1.435   1.061
   13SOL    HW1   44   0.257   1.404   1.008
   13SOL    HW2   45   0.393   1.493   1.004
   14SOL     OW   46   1.460   1.505   1.339
   14SOL    HW1   47   1.484   1.599   1.365
   14SOL    HW2   48   1.444   1.451   1.421
   15SOL     OW   49   0.438   0.392   1.499
   15SOL    HW1   50   0.520   0.336   1.508
   15SOL    HW2   51   0.357   0.334   1.503
   16SOL     OW   52   1.603   0.447   0.737
   16SOL    HW1   53   1.529   0.493   0.687
   16SOL    HW2   54   1.654   0.515   0.790
   17SOL     OW   55   0.231   1.713   0.483
   17SOL    HW1   56   0.265   1.790   0.537
   17SOL    HW2   57   0.275   1.713   0.393
   18SOL     OW   58   1.127   1.341   1.690
   18SOL    HW1   59   1.174   1.341   1.778
   18SOL    HW2   60   1.079   1.254   1.679
   19SOL     OW   61   0.230   1.434   0.538
   19SOL    HW1   62   0.204   1.530   0.538
   19SOL    HW2   63   0.159   1.380   0.583
   20SOL     OW   64   0.240   1.091   0.886
   20SOL    HW1   65   0.254   1.007   0.938
   20SOL    HW2   66   0.185   1.155   0.941
   21SOL     OW   67   0.620   1.786   1.439
   21SOL    HW1   68   0.528   1.769   1.474
   21SOL    HW2   69   0.648   1.878   1.465
   22SOL     OW   70   0.606   0.964   0.123
   22SOL    HW1   71   0.613   1.048   0.069
   22SOL    HW2   72   0.652   0.977   0.211
   23SOL     OW   73   1.594   0.114   1.480
   23SOL    HW1   74   1.576   0.181   1.408
   23SOL    HW2   75   1.591   0.160   1.569
   24SOL     OW   76   0.122   0.643   0.563
   24SOL    HW1   77   0.077   0.555   0.580
   24SOL    HW2   78   0.121   0.697   0.647
   25SOL     OW   79   1.842   1.767   0.359
   25SOL    HW1   80   1.896   1.738   0.439
   25SOL    HW2   81   1.872   1.857   0.330
   26SOL     OW   82   0.027   1.596   0.117
   26SOL    HW1   83   0.008   1.500   0.138
   26SOL    HW2   84  -0.006   1.654   0.192
   27SOL     OW   85   1.689   0.922   0.612
   27SOL    HW1   86   1.784   0.893   0.620
   27SOL    HW2   87   1.681   0.987   0.537
   28SOL     OW   88   1.641   1.108   0.432
   28SOL    HW1   89   1.727   1.110   0.380
   28SOL    HW2   90   1.655   1.155   0.520
   29SOL     OW   91   0.113   0.737   1.597
   29SOL    HW1   92   0.201   0.724   1.642
   29SOL    HW2   93   0.100   0.834   1.575
   30SOL     OW   94   0.613   1.365   0.726
   30SOL    HW1   95   0.564   1.278   0.735
   30SOL    HW2   96   0.590   1.408   0.639
   31SOL     OW   97   0.809   0.004   0.502
   31SOL    HW1   98   0.849   0.095   0.493
   31SOL    HW2   99   0.709   0.012   0.508
   32SOL     OW  100   0.197   0.976   1.264
   32SOL    HW1  101   0.286   0.931   1.250
   32SOL    HW2  102   0.124   0.911   1.245
   33SOL     OW  103   1.525   0.999   0.190
   33SOL    HW1  104   1.462   0.923   0.203
   33SOL    HW2  105   1.573   1.017   0.276
   34SOL     OW  106   1.187   1.792   1.616
   34SOL    HW1  107   1.211   1.852   1.540
   34SOL    HW2  108   1.194   1.697   1.586
   35SOL     OW  109   0.317   0.251   1.801
   35SOL    HW1  110   0.388   0.322   1.807
   35SOL    HW2  111   0.229   0.290   1.829
   36SOL     OW  112   1.466   1.417   0.953
   36SOL    HW1  113   1.407   1.423   1.033
   36SOL    HW2  114   1.451   1.329   0.907
   37SOL     OW  115   1.667   1.714   0.572
   37SOL    HW1  116   1.626   1.691   0.484
   37SOL    HW2  117   1.649   1.640   0.637
   38SOL     OW  118   0.598   0.729   0.270
   38SOL    HW1  119   0.622   0.798   0.202
   38SOL    HW2  120   0.520   0.762   0.324
   39SOL     OW  121   1.281   0.345   0.944
   39SOL    HW1  122   1.195   0.295   0.931
   39SOL    HW2  123   1.343   0.291   1.000
   40SOL     OW  124   1.576   1.662   0.307
   40SOL    HW1  125   1.665   1.708   0.310
   40SOL    HW2  126   1.555   1.638   0.212
   41SOL     OW  127   0.807   0.605   1.465
   41SOL    HW1  128   0.760   0.602   1.554
   41SOL    HW2  129   0.756   0.550   1.399
   42SOL     OW  130   1.394   0.469   1.674
   42SOL    HW1  131   1.374   0.512   1.762
   42SOL    HW2  132   1.472   0.407   1.683
   43SOL     OW  133   0.973   0.890   1.572
   43SOL    HW1  134   1.019   0.806   1.543
   43SOL    HW2  135   0.917   0.924   1.497
   44SOL     OW  136   0.991   0.410   1.242
   44SOL    HW1  137   0.914   0.444   1.296
   44SOL    HW2  138   0.957   0.359   1.163
   45SOL     OW  139   1.041   0.701   0.429
   45SOL    HW1  140   1.067   0.697   0.525
   45SOL    HW2  141   0.956   0.650   0.415
   46SOL     OW  142   0.076   0.811   0.789
   46SOL    HW1  143   0.175   0.799   0.798
   46SOL    HW2  144   0.052   0.906   0.810
   47SOL     OW  145   0.130   1.821   1.571
   47SOL    HW1  146   0.120   1.806   1.670
   47SOL    HW2  147   0.044   1.857   1.535
   48SOL     OW  148   0.865   0.348   0.195
   48SOL    HW1  149   0.924   0.411   0.146
   48SOL    HW2  150   0.884   0.254   0.166
   49SOL     OW  151   1.719   0.585   1.831
   49SOL    HW1  152   1.693   0.674   1.795
   49SOL    HW2  153   1.717   0.517   1.758
   50SOL     OW  154   1.362   1.144   0.545
   50SOL    HW1  155   1.445   1.115   0.497
   50SOL    HW2  156   1.313   1.211   0.489
   51SOL     OW  157   0.550   0.196   0.885
   51SOL    HW1  158   0.545   0.191   0.985
   51SOL    HW2  159   0.552   0.292   0.856
   52SOL     OW  160   1.008   1.456   0.477
   52SOL    HW1  161   0.962   1.528   0.425
   52SOL    HW2  162   1.004   1.476   0.575
   53SOL     OW  163   0.351   1.801   0.853
   53SOL    HW1  164   0.401   1.715   0.859
   53SOL    HW2  165   0.416   1.878   0.850
   54SOL     OW  166   1.795   1.066   0.873
   54SOL    HW1  167   1.733   1.051   0.797
   54SOL    HW2  168   1.743   1.077   0.958
   55SOL     OW  169   0.321   0.943   0.242
   55SOL    HW1  170   0.403   0.982   0.200
   55SOL    HW2  171   0.294   0.861   0.193
   56SOL     OW  172   1.458   0.735   0.728
   56SOL    HW1  173   1.453   0.670   0.803
   56SOL    HW2  174   1.538   0.794   0.741
   57SOL     OW  175   0.461   1.266   1.727
   57SOL    HW1  176   0.411   1.267   1.641
   57SOL    HW2  177   0.398   1.248   1.803
   58SOL     OW  178   1.111   1.776   0.237
   58SOL    HW1  179   1.051   1.714   0.287
   58SOL    HW2  180   1.142   1.732   0.152
   59SOL     OW  181   0.202   0.285   1.498
   59SOL    HW1  182   0.122   0.345   1.485
   59SOL    HW2  183   0.192   0.236   1.584
   60SOL     OW  184   1.632   1.377   0.081
   60SOL    HW1  185   1.600   1.471   0.071
   60SOL    HW2  186   1.556   1.314   0.069
   61SOL     OW  187   0.464   1.743   0.323
   61SOL    HW1  188   0.497   1.782   0.409
   61SOL    HW2  189   0.540   1.736   0.258
   62SOL     OW  190   1.400   0.107   0.426
   62SOL    HW1  191   1.376   0.070   0.336
   62SOL    HW2  192   1.499   0.123   0.430
   63SOL     OW  193   0.249   1.785   1.241
   63SOL    HW1  194   0.306   1.720   1.291
   63SOL    HW2  195   0.233   1.752   1.148
   64SOL     OW  196   0.940   1.698   0.904
   64SOL    HW1  197   1.020   1.641   0.925
   64SOL    HW2  198   0.891   1.658   0.827
   65SOL     OW  199   0.382   0.700   0.480
   65SOL    HW1  200   0.427   0.610   0.477
   65SOL    HW2  201   0.288   0.689   0.513
   66SOL     OW  202   1.547   0.222   1.729
   66SOL    HW1  203   1.542   0.259   1.821
   66SOL    HW2  204   1.475   0.153   1.717
   67SOL     OW  205   0.614   0.122   0.117
   67SOL    HW1  206   0.712   0.100   0.124
   67SOL    HW2  207   0.583   0.105   0.024
   68SOL     OW  208   0.781   0.264   1.749
   68SOL    HW1  209   0.848   0.203   1.792
   68SOL    HW2  210   0.708   0.283   1.814
   69SOL     OW  211   0.888   1.514   1.195
   69SOL    HW1  212   0.865   1.489   1.101
   69SOL    HW2  213   0.949   1.445   1.234
   70SOL     OW  214   1.351   0.590   1.433
   70SOL    HW1  215   1.379   0.547   1.518
   70SOL    HW2  216   1.376   0.686   1.434
   71SOL     OW  217   0.803   1.402   0.924
   71SOL    HW1  218   0.893   1.416   0.882
   71SOL    HW2  219   0.732   1.404   0.853
   72SOL     OW  220   0.922   0.503   0.899
   72SOL    HW1  221   0.897   0.494   0.803
   72SOL    HW2  222   0.970   0.421   0.930
   73SOL     OW  223   0.539   0.064   0.512
   73SOL    HW1  224   0.458   0.065   0.570
   73SOL    HW2  225   0.542   0.147   0.457
   74SOL     OW  226   1.434   1.188   0.041
   74SOL    HW1  227   1.466   1.112   0.098
   74SOL    HW2  228   1.342   1.215   0.071
   75SOL     OW  229   0.297   0.035   0.171
   75SOL    HW1  230   0.346   0.119   0.150
   75SOL    HW2  231   0.359  -0.030   0.216
   76SOL     OW  232   0.935   0.236   0.480
   76SOL    HW1  233   0.887   0.277   0.402
   76SOL    HW2  234   1.034   0.234   0.461
   77SOL     OW  235   1.076   0.683   1.464
   77SOL    HW1  236   0.996   0.622   1.467
   77SOL    HW2  237   1.157   0.630   1.440
   78SOL     OW  238   1.227   1.570   0.793
   78SOL    HW1  239   1.248   1.644   0.728
   78SOL    HW2  240   1.295   1.570   0.866
   79SOL     OW  241   0.459   1.152   0.741
   79SOL    HW1  242   0.388   1.125   0.806
   79SOL    HW2  243   0.433   1.124   0.648
   80SOL     OW  244   1.271   1.797   0.591
   80SOL    HW1  245   1.315   1.861   0.527
   80SOL    HW2  246   1.221   1.849   0.661
   81SOL     OW  247   1.032   0.549   0.016
   81SOL    HW1  248   0.991   0.631  -0.023
   81SOL    HW2  249   1.096   0.575   0.089
   82SOL     OW  250   0.078   0.556   1.386
   82SOL    HW1  251   0.170   0.555   1.345
   82SOL    HW2  252   0.072   0.630   1.453
   83SOL     OW  253   0.561   0.222   1.147
   83SOL    HW1  254   0.599   0.138   1.184
   83SOL    HW2  255   0.473   0.241   1.191
   84SOL     OW  256   0.866   0.454   0.642
   84SOL    HW1  257   0.834   0.526   0.580
   84SOL    HW2  258   0.890   0.373   0.589
   85SOL     OW  259   1.017   0.039   0.753
   85SOL    HW1  260   0.945   0.044   0.684
   85SOL    HW2  261   0.993  -0.030   0.822
   86SOL     OW  262   1.429   1.173   0.867
   86SOL    HW1  263   1.374   1.089   0.860
   86SOL    HW2  264   1.455   1.202   0.775
   87SOL     OW  265   1.466   0.590   0.992
   87SOL    HW1  266   1.436   0.495   0.999
   87SOL    HW2  267   1.539   0.606   1.058
   88SOL     OW  268   1.857   0.833   0.377
   88SOL    HW1  269   1.899   0.769   0.441
   88SOL    HW2  270   1.819   0.782   0.299
   89SOL     OW  271   0.488   1.385   0.174
   89SOL    HW1  272   0.401   1.370   0.221
   89SOL    HW2  273   0.471   1.411   0.079
   90SOL     OW  274   1.664   1.280   0.657
   90SOL    HW1  275   1.763   1.288   0.671
   90SOL    HW2  276   1.619   1.364   0.688
   91SOL     OW  277   1.390   0.575   0.078
   91SOL    HW1  278   1.336   0.554   0.159
   91SOL    HW2  279   1.481   0.534   0.087
   92SOL     OW  280   0.527   0.256   0.328
   92SOL    HW1  281   0.554   0.197   0.253
   92SOL    HW2  282   0.527   0.351   0.297
   93SOL     OW  283   1.754   1.223   1.588
   93SOL    HW1  284   1.845   1.184   1.575
   93SOL    HW2  285   1.762   1.319   1.612
   94SOL     OW  286   1.592   1.629   1.625
   94SOL    HW1  287   1.619   1.663   1.535
   94SOL    HW2  288   1.671   1.591   1.671
   95SOL     OW  289   1.638   1.099   1.079
   95SOL    HW1  290   1.643   1.180   1.138
   95SOL    HW2  291   1.552   1.101   1.028
   96SOL     OW  292   0.915   0.089   1.402
   96SOL    HW1  293   0.940   0.069   1.307
   96SOL    HW2  294   0.987   0.145   1.444
   97SOL     OW  295   0.980   1.116   1.719
   97SOL    HW1  296   0.881   1.122   1.729
   97SOL    HW2  297   1.003   1.036   1.663
   98SOL     OW  298   0.705   1.050   0.368
   98SOL    HW1  299   0.691   1.057   0.467
   98SOL    HW2  300   0.789   0.999   0.350
   99SOL     OW  301   0.410   0.813   1.251
   99SOL    HW1  302   0.496   0.825   1.301
   99SOL    HW2  303   0.368   0.726   1.278
  100SOL     OW  304   1.274   0.386   1.262
  100SOL    HW1  305   1.295   0.460   1.326
  100SOL    HW2  306   1.185   0.403   1.219
  101SOL     OW  307   0.064   1.564   1.331
  101SOL    HW1  308   0.018   1.646   1.297
  101SOL    HW2  309   0.162   1.583   1.340
  102SOL     OW  310   0.367   1.100   0.501
  102SOL    HW1  311   0.360   1.183   0.445
  102SOL    HW2  312   0.371   1.020   0.441
  103SOL     OW  313   0.566   0.537   0.865
  103SOL    HW1  314   0.578   0.603   0.791
  103SOL    HW2  315   0.612   0.571   0.948
  104SOL     OW  316   1.252   1.348   0.388
  104SOL    HW1  317   1.302   1.425   0.428
  104SOL    HW2  318   1.157   1.350   0.420
  105SOL     OW  319   1.582   0.639   0.472
  105SOL    HW1  320   1.551   0.700   0.545
  105SOL    HW2  321   1.632   0.691   0.403
  106SOL     OW  322   0.354   1.510   1.329
  106SOL    HW1  323   0.333   1.466   1.242
  106SOL    HW2  324   0.451   1.536   1.332
  107SOL     OW  325   0.402   0.751   1.598
  107SOL    HW1  326   0.470   0.806   1.551
  107SOL    HW2  327   0.442   0.663   1.625
  108SOL     OW  328   1.587   0.779   1.670
  108SOL    HW1  329   1.495   0.817   1.665
  108SOL    HW2  330   1.647   0.826   1.605
  109SOL     OW  331   1.013   0.105   1.770
  109SOL    HW1  332   1.019   0.190   1.718
  109SOL    HW2  333   1.045   0.029   1.713
  110SOL     OW  334   0.504   0.050   1.740
  110SOL    HW1  335   0.462  -0.007   1.670
  110SOL    HW2  336   0.438   0.119   1.772
  111SOL     OW  337   0.573   0.870   1.029
  111SOL    HW1  338   0.617   0.959   1.020
  111SOL    HW2  339   0.510   0.870   1.106
  112SOL     OW  340   1.360   0.862   1.045
  112SOL    HW1  341   1.285   0.862   0.979
  112SOL    HW2  342   1.397   0.770   1.054
  113SOL     OW  343   1.209   0.525   0.275
  113SOL    HW1  344   1.222   0.441   0.329
  113SOL    HW2  345   1.180   0.599   0.335
  114SOL     OW  346   0.307   0.213   1.231
  114SOL    HW1  347   0.284   0.250   1.321
  114SOL    HW2  348   0.277   0.118   1.225
  115SOL     OW  349   0.037   1.310   1.282
  115SOL    HW1  350   0.090   1.261   1.350
  115SOL    HW2  351   0.059   1.408   1.287
  116SOL     OW  352   0.732   0.634   1.064
  116SOL    HW1  353   0.791   0.608   0.988
  116SOL    HW2  354   0.704   0.730   1.053
  117SOL     OW  355   1.728   0.935   1.854
  117SOL    HW1  356   1.682   0.928   1.765
  117SOL    HW2  357   1.666   0.979   1.920
  118SOL     OW  358   0.307   0.063   0.618
  118SOL    HW1  359   0.296   0.157   0.651
  118SOL    HW2  360   0.302   0.000   0.695
  119SOL     OW  361   1.622   0.367   0.374
  119SOL    HW1  362   1.624   0.291   0.438
  119SOL    HW2  363   1.574   0.444   0.414
  120SOL     OW  364   1.023   0.766   0.966
  120SOL    HW1  365   1.038   0.787   1.062
  120SOL    HW2  366   0.993   0.671   0.957
  121SOL     OW  367   0.980   1.573   1.700
  121SOL    HW1  368   0.960   1.617   1.612
  121SOL    HW2  369   1.019   1.482   1.684
  122SOL     OW  370   1.859   1.518   1.605
  122SOL    HW1  371   1.873   1.545   1.510
  122SOL    HW2  372   1.942   1.540   1.658
  123SOL     OW  373   0.350   0.898   1.804
  123SOL    HW1  374   0.426   0.942   1.852
  123SOL    HW2  375   0.385   0.851   1.722
  124SOL     OW  376   1.540   0.274   0.125
  124SOL    HW1  377   1.479   0.199   0.148
  124SOL    HW2  378   1.562   0.326   0.208
  125SOL     OW  379   1.303   0.838   0.042
  125SOL    HW1  380   1.337   0.745   0.057
  125SOL    HW2  381   1.321   0.865  -0.053
  126SOL     OW  382   1.068   1.333   0.849
  126SOL    HW1  383   1.075   1.249   0.794
  126SOL    HW2  384   1.130   1.402   0.813
  127SOL     OW  385   0.319   0.810   0.949
  127SOL    HW1  386   0.412   0.846   0.954
  127SOL    HW2  387   0.313   0.725   1.001
  128SOL     OW  388   0.339   0.509   1.006
  128SOL    HW1  389   0.287   0.426   0.989
  128SOL    HW2  390   0.416   0.514   0.942
  129SOL     OW  391   1.138   0.380   1.678
  129SOL    HW1  392   1.093   0.443   1.742
  129SOL    HW2  393   1.231   0.411   1.661
  130SOL     OW  394   1.160   0.207   1.477
  130SOL    HW1  395   1.160   0.271   1.554
  130SOL    HW2  396   1.188   0.255   1.394
  131SOL     OW  397   0.008   1.326   0.200
  131SOL    HW1  398  -0.085   1.347   0.169
  131SOL    HW2  399   0.018   1.227   0.213
  132SOL     OW  400   0.088   1.801   0.927
  132SOL    HW1  401   0.046   1.715   0.900
  132SOL    HW2  402   0.182   1.804   0.893
  133SOL     OW  403   0.504   1.568   0.910
  133SOL    HW1  404   0.570   1.642   0.919
  133SOL    HW2  405   0.548   1.489   0.868
  134SOL     OW  406   1.002   0.796   1.238
  134SOL    HW1  407   1.043   0.764   1.324
  134SOL    HW2  408   0.906   0.769   1.235
  135SOL     OW  409   0.040   0.544   1.114
  135SOL    HW1  410   0.125   0.511   1.073
  135SOL    HW2  411   0.053   0.559   1.212
  136SOL     OW  412   0.189   0.520   1.722
  136SOL    HW1  413   0.248   0.480   1.652
  136SOL    HW2  414   0.131   0.591   1.681
  137SOL     OW  415   1.369   0.950   1.660
  137SOL    HW1  416   1.408   1.039   1.680
  137SOL    HW2  417   1.379   0.930   1.563
  138SOL     OW  418   0.815   0.572   0.325
  138SOL    HW1  419   0.822   0.483   0.279
  138SOL    HW2  420   0.721   0.606   0.317
  139SOL     OW  421   1.657   0.604   1.206
  139SOL    HW1  422   1.619   0.535   1.268
  139SOL    HW2  423   1.739   0.568   1.162
  140SOL     OW  424   0.252   1.564   1.744
  140SOL    HW1  425   0.222   1.621   1.820
  140SOL    HW2  426   0.245   1.467   1.770
  141SOL     OW  427   0.671   0.464   1.269
  141SOL    HW1  428   0.637   0.375   1.239
  141SOL    HW2  429   0.697   0.518   1.189
  142SOL     OW  430   0.930   1.678   1.465
  142SOL    HW1  431   0.906   1.660   1.370
  142SOL    HW2  432   0.960   1.772   1.475
  143SOL     OW  433   0.473   0.500   0.191
  143SOL    HW1  434   0.534   0.580   0.195
  143SOL    HW2  435   0.378   0.531   0.198
  144SOL     OW  436   0.159   1.137   1.466
  144SOL    HW1  437   0.181   1.076   1.542
  144SOL    HW2  438   0.169   1.088   1.380
  145SOL     OW  439   1.302   0.855   0.309
  145SOL    HW1  440   1.216   0.824   0.351
  145SOL    HW2  441   1.298   0.841   0.210
  146SOL     OW  442   1.759   1.747   1.154
  146SOL    HW1  443   1.820   1.777   1.081
  146SOL    HW2  444   1.721   1.658   1.132
  147SOL     OW  445   1.252   1.731   1.128
  147SOL    HW1  446   1.336   1.736   1.074
  147SOL    HW2  447   1.229   1.635   1.146
  148SOL     OW  448   0.083   1.258   1.022
  148SOL    HW1  449   0.078   1.257   1.122
  148SOL    HW2  450   0.000   1.217   0.984
  149SOL     OW  451   0.688   1.662   1.716
  149SOL    HW1  452   0.632   1.743   1.725
  149SOL    HW2  453   0.740   1.666   1.630
  150SOL     OW  454   0.903   0.086   0.133
  150SOL    HW1  455   0.954   0.087   0.047
  150SOL    HW2  456   0.959   0.044   0.204
  151SOL     OW  457   1.726   0.135   0.523
  151SOL    HW1  458   1.799   0.118   0.456
  151SOL    HW2  459   1.695   0.048   0.561
  152SOL     OW  460   1.388   1.573   0.477
  152SOL    HW1  461   1.455   1.585   0.403
  152SOL    HW2  462   1.348   1.662   0.500
  153SOL     OW  463   0.130   1.794   1.851
  153SOL    HW1  464   0.089   1.720   1.904
  153SOL    HW2  465   0.194   1.845   1.909
  154SOL     OW  466   1.280   0.927   0.672
  154SOL    HW1  467   1.340   0.846   0.674
  154SOL    HW2  468   1.320   0.996   0.612
  155SOL     OW  469   0.830   1.273   1.422
  155SOL    HW1  470   0.825   1.306   1.517
  155SOL    HW2  471   0.744   1.292   1.376
  156SOL     OW  472   0.672   1.616   0.154
  156SOL    HW1  473   0.681   1.626   0.055
  156SOL    HW2  474   0.632   1.527   0.175
  157SOL     OW  475   1.650   1.720   1.394
  157SOL    HW1  476   1.703   1.730   1.310
  157SOL    HW2  477   1.623   1.810   1.428
  158SOL     OW  478   1.841   0.175   0.963
  158SOL    HW1  479   1.880   0.090   0.927
  158SOL    HW2  480   1.743   0.177   0.944
  159SOL     OW  481   0.263   0.326   0.720
  159SOL    HW1  482   0.184   0.377   0.686
  159SOL    HW2  483   0.254   0.311   0.818
  160SOL     OW  484   1.194   1.612   0.031
  160SOL    HW1  485   1.200   1.519   0.068
  160SOL    HW2  486   1.135   1.612  -0.049
  161SOL     OW  487   0.822   1.002   1.372
  161SOL    HW1  488   0.862   1.001   1.280
  161SOL    HW2  489   0.832   1.094   1.412
  162SOL     OW  490   0.916   0.910   0.291
  162SOL    HW1  491   0.979   0.948   0.223
  162SOL    HW2  492   0.956   0.827   0.330
  163SOL     OW  493   1.504   1.607   0.044
  163SOL    HW1  494   1.412   1.644   0.051
  163SOL    HW2  495   1.542   1.627  -0.046
  164SOL     OW  496   0.372   1.288   1.490
  164SOL    HW1  497   0.359   1.381   1.456
  164SOL    HW2  498   0.288   1.236   1.477
  165SOL     OW  499   1.614   1.292   1.289
  165SOL    HW1  500   1.674   1.295   1.369
  165SOL    HW2  501   1.539   1.356   1.302
  166SOL     OW  502   1.039   1.098   0.696
  166SOL    HW1  503   0.969   1.051   0.750
  166SOL    HW2  504   1.098   1.030   0.653
  167SOL     OW  505   1.014   0.236   0.971
  167SOL    HW1  506   1.006   0.200   0.878
  167SOL    HW2  507   1.012   0.160   1.036
  168SOL     OW  508   0.590   1.487   0.491
  168SOL    HW1  509   0.632   1.429   0.421
  168SOL    HW2  510   0.546   1.566   0.447
  169SOL     OW  511   1.709   0.385   1.381
  169SOL    HW1  512   1.782   0.454   1.385
  169SOL    HW2  513   1.737   0.310   1.322
  170SOL     OW  514   0.255   1.348   0.290
  170SOL    HW1  515   0.159   1.349   0.263
  170SOL    HW2  516   0.267   1.401   0.374
  171SOL     OW  517   0.105   1.013   1.726
  171SOL    HW1  518   0.028   0.980   1.780
  171SOL    HW2  519   0.190   0.983   1.768
  172SOL     OW  520   0.672   0.203   1.489
  172SOL    HW1  521   0.762   0.187   1.449
  172SOL    HW2  522   0.680   0.208   1.588
  173SOL     OW  523   0.075   0.345   0.033
  173SOL    HW1  524  -0.017   0.317   0.004
  173SOL    HW2  525   0.106   0.422  -0.023
  174SOL     OW  526   0.072   0.166   0.318
  174SOL    HW1  527   0.055   0.249   0.264
  174SOL    HW2  528   0.162   0.129   0.296
  175SOL     OW  529   1.183   1.335   0.119
  175SOL    HW1  530   1.084   1.324   0.121
  175SOL    HW2  531   1.217   1.350   0.212
  176SOL     OW  532   0.613   0.842   1.431
  176SOL    HW1  533   0.669   0.923   1.414
  176SOL    HW2  534   0.672   0.762   1.434
  177SOL     OW  535   1.493   1.767   0.959
  177SOL    HW1  536   1.526   1.831   0.890
  177SOL    HW2  537   1.559   1.761   1.034
  178SOL     OW  538   0.716   0.565   1.708
  178SOL    HW1  539   0.735   0.630   1.782
  178SOL    HW2  540   0.776   0.485   1.717
  179SOL     OW  541   1.450   1.220   1.633
  179SOL    HW1  542   1.441   1.210   1.732
  179SOL    HW2  543   1.546   1.213   1.607
  180SOL     OW  544   0.390   1.741   1.560
  180SOL    HW1  545   0.299   1.782   1.558
  180SOL    HW2  546   0.383   1.647   1.592
  181SOL     OW  547   1.674   0.883   1.254
  181SOL    HW1  548   1.647   0.794   1.217
  181SOL    HW2  549   1.675   0.951   1.181
  182SOL     OW  550   1.225   0.325   0.449
  182SOL    HW1  551   1.290   0.251   0.438
  182SOL    HW2  552   1.245   0.375   0.533
  183SOL     OW  553   0.594   0.745   0.652
  183SOL    HW1  554   0.644   0.830   0.633
  183SOL    HW2  555   0.506   0.747   0.604
  184SOL     OW  556   1.777   0.342   1.642
  184SOL    HW1  557   1.760   0.373   1.548
  184SOL    HW2  558   1.693   0.305   1.680
  185SOL     OW  559   1.730   0.934   1.517
  185SOL    HW1  560   1.768   1.025   1.532
  185SOL    HW2  561   1.722   0.917   1.418
  186SOL     OW  562   0.859   1.374   0.016
  186SOL    HW1  563   0.813   1.389   0.104
  186SOL    HW2  564   0.903   1.459  -0.014
  187SOL     OW  565   0.661   1.790   0.953
  187SOL    HW1  566   0.615   1.878   0.940
  187SOL    HW2  567   0.760   1.802   0.946
  188SOL     OW  568   0.859   0.956   0.861
  188SOL    HW1  569   0.913   0.887   0.909
  188SOL    HW2  570   0.827   1.025   0.927
  189SOL     OW  571   1.083   0.984   0.087
  189SOL    HW1  572   1.060   1.037   0.005
  189SOL    HW2  573   1.164   0.928   0.068
  190SOL     OW  574   1.861   1.569   0.851
  190SOL    HW1  575   1.790   1.557   0.781
  190SOL    HW2  576   1.862   1.490   0.911
  191SOL     OW  577   0.221   1.314   1.844
  191SOL    HW1  578   0.156   1.241   1.823
  191SOL    HW2  579   0.225   1.328   1.942
  192SOL     OW  580   0.079   1.240   0.653
  192SOL    HW1  581   0.078   1.193   0.741
  192SOL    HW2  582   0.161   1.212   0.602
  193SOL     OW  583   0.672   1.391   1.624
  193SOL    HW1  584   0.594   1.341   1.662
  193SOL    HW2  585   0.669   1.486   1.655
  194SOL     OW  586   1.824   0.192   1.227
  194SOL    HW1  587   1.820   0.102   1.271
  194SOL    HW2  588   1.827   0.181   1.128
  195SOL     OW  589   0.428   0.424   0.520
  195SOL    HW1  590   0.458   0.352   0.458
  195SOL    HW2  591   0.389   0.384   0.603
  196SOL     OW  592   1.705   1.487   1.104
  196SOL    HW1  593   1.612   1.462   1.077
  196SOL    HW2  594   1.731   1.437   1.186
  197SOL     OW  595   0.317   0.547   1.280
  197SOL    HW1  596   0.355   0.488   1.352
  197SOL    HW2  597   0.357   0.521   1.192
  198SOL     OW  598   0.812   1.586   0.687
  198SOL    HW1  599   0.844   1.596   0.593
  198SOL    HW2  600   0.733   1.524   0.689
  199SOL     OW  601   1.424   0.214   1.112
  199SOL    HW1  602   1.476   0.149   1.167
  199SOL    HW2  603   1.375   0.277   1.173
  200SOL     OW  604   1.001   0.034   1.154
  200SOL    HW1  605   0.938  -0.038   1.123
  200SOL    HW2  606   1.094  -0.002   1.154
  201SOL     OW  607   0.770   1.330   0.301
  201SOL    HW1  608   0.724   1.243   0.318
  201SOL    HW2  609   0.861   1.327   0.342
  202SOL     OW  610   0.618   1.567   1.284
  202SOL    HW1  611   0.613   1.649   1.341
  202SOL    HW2  612   0.707   1.564   1.239
  203SOL     OW  613   1.352   0.052   0.168
  203SOL    HW1  614   1.387   0.011   0.084
  203SOL    HW2  615   1.262   0.014   0.188
  204SOL     OW  616   1.300   0.453   0.691
  204SOL    HW1  617   1.241   0.533   0.695
  204SOL    HW2  618   1.315   0.418   0.784
  205SOL     OW  619   1.593   0.221   0.882
  205SOL    HW1  620   1.509   0.220   0.936
  205SOL    HW2  621   1.595   0.304   0.826
  206SOL     OW  622   0.039   1.077   0.300
  206SOL    HW1  623   0.138   1.066   0.291
  206SOL    HW2  624  -0.001   0.991   0.332
  207SOL     OW  625   0.875   1.646   0.337
  207SOL    HW1  626   0.798   1.611   0.283
  207SOL    HW2  627   0.843   1.717   0.399
  208SOL     OW  628   0.230   0.628   1.975
  208SOL    HW1  629   0.137   0.626   2.012
  208SOL    HW2  630   0.231   0.589   1.883
  209SOL     OW  631   1.755   0.607   2.093
  209SOL    HW1  632   1.743   0.594   1.994
  209SOL    HW2  633   1.725   0.526   2.142
  210SOL     OW  634   0.231   1.713   2.345
  210SOL    HW1  635   0.265   1.790   2.399
  210SOL    HW2  636   0.275   1.713   2.255
  211SOL     OW  637   0.230   1.434   2.400
  211SOL    HW1  638   0.204   1.530   2.400
  211SOL    HW2  639   0.159   1.380   2.445
  212SOL     OW  640   0.606   0.964   1.985
  212SOL    HW1  641   0.613   1.048   1.931
  212SOL    HW2  642   0.652   0.977   2.073
  213SOL     OW  643   1.842   1.767   2.221
  213SOL    HW1  644   1.896   1.738   2.301
  213SOL    HW2  645   1.872   1.857   2.192
  214SOL     OW  646   0.027   1.596   1.979
  214SOL    HW1  647   0.008   1.500   2.000
  214SOL    HW2  648  -0.006   1.654   2.054
  215SOL     OW  649   1.689   0.922   2.474
  215SOL    HW1  650   1.784   0.893   2.482
  215SOL    HW2  651   1.681   0.987   2.399
  216SOL     OW  652   1.641   1.108   2.294
  216SOL    HW1  653   1.727   1.110   2.242
  216SOL    HW2  654   1.655   1.155   2.382
  217SOL     OW  655   0.809   0.004   2.364
  217SOL    HW1  656   0.849   0.095   2.355
  217SOL    HW2  657   0.709   0.012   2.370
  218SOL     OW  658   1.525   0.999   2.052
  218SOL    HW1  659   1.462   0.923   2.065
  218SOL    HW2  660   1.573   1.017   2.138
  219SOL     OW  661   0.598   0.729   2.132
  219SOL    HW1  662   0.622   0.798   2.064
  219SOL    HW2  663   0.520   0.762   2.186
  220SOL     OW  664   1.576   1.662   2.169
  220SOL    HW1  665   1.665   1.708   2.172
  220SOL    HW2  666   1.555   1.638   2.074
  221SOL     OW  667   0.865   0.348   2.057
  221SOL    HW1  668   0.924   0.411   2.008
  221SOL    HW2  669   0.884   0.254   2.028
  222SOL     OW  670   0.321   0.943   2.104
  222SOL    HW1  671   0.403   0.982   2.062
  222SOL    HW2  672   0.294   0.861   2.055
  223SOL     OW  673   1.111   1.776   2.099
  223SOL    HW1  674   1.051   1.714   2.149
  223SOL    HW2  675   1.142   1.732   2.014
  224SOL     OW  676   1.632   1.377   1.943
  224SOL    HW1  677   1.600   1.471   1.933
  224SOL    HW2  678   1.556   1.314   1.931
  225SOL     OW  679   0.464   1.743   2.185
  225SOL    HW1  680   0.497   1.782   2.271
  225SOL    HW2  681   0.540   1.736   2.120
  226SOL     OW  682   1.400   0.107   2.288
  226SOL    HW1  683   1.376   0.070   2.198
  226SOL    HW2  684   1.499   0.123   2.292
  227SOL     OW  685   0.382   0.700   2.342
  227SOL    HW1  686   0.427   0.610   2.339
  227SOL    HW2  687   0.288   0.689   2.375
  228SOL     OW  688   0.614   0.122   1.979
  228SOL    HW1  689   0.712   0.100   1.986
  228SOL    HW2  690   0.583   0.105   1.886
  229SOL     OW  691   1.434   1.188   1.903
  229SOL    HW1  692   1.466   1.112   1.960
  229SOL    HW2  693   1.342   1.215   1.933
  230SOL     OW  694   0.297   0.035   2.033
  230SOL    HW1  695   0.346   0.119   2.012
  230SOL    HW2  696   0.359  -0.030   2.078
  231SOL     OW  697   0.935   0.236   2.342
  231SOL    HW1  698   0.887   0.277   2.264
  231SOL    HW2  699   1.034   0.234   2.323
  232SOL     OW  700   0.459   1.152   2.603
  232SOL    HW1  701   0.388   1.125   2.668
  232SOL    HW2  702   0.433   1.124   2.510
  233SOL     OW  703   1.032   0.549   1.878
  233SOL    HW1  704   0.991   0.631   1.839
  233SOL    HW2  705   1.096   0.575   1.951
  234SOL     OW  706   1.857   0.833   2.239
  234SOL    HW1  707   1.899   0.769   2.303
  234SOL    HW2  708   1.819   0.782   2.161
  235SOL     OW  709   0.488   1.385   2.036
  235SOL    HW1  710   0.401   1.370   2.083
  235SOL    HW2  711   0.471   1.411   1.941
  236SOL     OW  712   1.390   0.575   1.940
  236SOL    HW1  713   1.336   0.554   2.021
  236SOL    HW2  714   1.481   0.534   1.949
  237SOL     OW  715   0.527   0.256   2.190
  237SOL    HW1  716   0.554   0.197   2.115
  237SOL    HW2  717   0.527   0.351   2.159
  238SOL     OW  718   0.705   1.050   2.230
  238SOL    HW1  719   0.691   1.057   2.329
  238SOL    HW2  720   0.789   0.999   2.212
  239SOL     OW  721   0.367   1.100   2.363
  239SOL    HW1  722   0.360   1.183   2.307
  239SOL    HW2  723   0.371   1.020   2.303
  240SOL     OW  724   1.252   1.348   2.250
  240SOL    HW1  725   1.302   1.425   2.290
  240SOL    HW2  726   1.157   1.350   2.282
  241SOL     OW  727   1.582   0.639   2.334
  241SOL    HW1  728   1.551   0.700   2.407
  241SOL    HW2  729   1.632   0.691   2.265
  242SOL     OW  730   1.209   0.525   2.137
  242SOL    HW1  731   1.222   0.441   2.191
  242SOL    HW2  732   1.180   0.599   2.197
  243SOL     OW  733   1.622   0.367   2.236
  243SOL    HW1  734   1.624   0.291   2.300
  243SOL    HW2  735   1.574   0.444   2.276
  244SOL     OW  736   1.540   0.274   1.987
  244SOL    HW1  737   1.479   0.199   2.010
  244SOL    HW2  738   1.562   0.326   2.070
  245SOL     OW  739   1.303   0.838   1.904
  245SOL    HW1  740   1.337   0.745   1.919
  245SOL    HW2  741   1.321   0.865   1.809
  246SOL     OW  742   0.008   1.326   2.062
  246SOL    HW1  743  -0.085   1.347   2.031
  246SOL    HW2  744   0.018   1.227   2.075
  247SOL     OW  745   0.815   0.572   2.187
  247SOL    HW1  746   0.822   0.483   2.141
  247SOL    HW2  747   0.721   0.606   2.179
  248SOL     OW  748   0.473   0.500   2.053
  248SOL    HW1  749   0.534   0.580   2.057
  248SOL    HW2  750   0.378   0.531   2.060
  249SOL     OW  751   1.302   0.855   2.171
  249SOL    HW1  752   1.216   0.824   2.213
  249SOL    HW2  753   1.298   0.841   2.072
  250SOL     OW  754   1.726   0.135   2.385
  250SOL    HW1  755   1.799   0.118   2.318
  250SOL    HW2  756   1.695   0.048   2.423
  251SOL     OW  757   1.388   1.573   2.339
  251SOL    HW1  758   1.455   1.585   2.265
  251SOL    HW2  759   1.348   1.662   2.362
  252SOL     OW  760   0.672   1.616   2.016
  252SOL    HW1  761   0.681   1.626   1.917
  252SOL    HW2  762   0.632   1.527   2.037
  253SOL     OW  763   1.194   1.612   1.893
  253SOL    HW1  764   1.200   1.519   1.930
  253SOL    HW2  765   1.135   1.612   1.813
  254SOL     OW  766   0.916   0.910   2.153
  254SOL    HW1  767   0.979   0.948   2.085
  254SOL    HW2  768   0.956   0.827   2.192
  255SOL     OW  769   1.504   1.607   1.906
  255SOL    HW1  770   1.412   1.644   1.913
  255SOL    HW2  771   1.542   1.627   1.816
  256SOL     OW  772   0.590   1.487   2.353
  256SOL    HW1  773   0.632   1.429   2.283
  256SOL    HW2  774   0.546   1.566   2.309
  257SOL     OW  775   0.255   1.348   2.152
  257SOL    HW1  776   0.159   1.349   2.125
  257SOL    HW2  777   0.267   1.401   2.236
  258SOL     OW  778   0.075   0.345   1.895
  258SOL    HW1  779  -0.017   0.317   1.866
  258SOL    HW2  780   0.106   0.422   1.839
  259SOL     OW  781   0.072   0.166   2.180
  259SOL    HW1  782   0.055   0.249   2.126
  259SOL    HW2  783   0.162   0.129   2.158
  260SOL     OW  784   1.183   1.335   1.981
  260SOL    HW1  785   1.084   1.324   1.983
  260SOL    HW2  786   1.217   1.350   2.074
  261SOL     OW  787   1.225   0.325   2.311
  261SOL    HW1  788   1.290   0.251   2.300
  261SOL    HW2  789   1.245   0.375   2.395
  262SOL     OW  790   0.594   0.745   2.514
  262SOL    HW1  791   0.644   0.830   2.495
  262SOL    HW2  792   0.506   0.747   2.466
  263SOL     OW  793   0.859   1.374   1.878
  263SOL    HW1  794   0.813   1.389   1.966
  263SOL    HW2  795   0.903   1.459   1.848
  264SOL     OW  796   1.083   0.984   1.949
  264SOL    HW1  797   1.060   1.037   1.867
  264SOL    HW2  798   1.164   0.928   1.930
  265SOL     OW  799   0.428   0.424   2.382
  265SOL    HW1  800   0.458   0.352   2.320
  265SOL    HW2  801   0.389   0.384   2.465
  266SOL     OW  802   0.770   1.330   2.163
  266SOL    HW1  803   0.724   1.243   2.180
  266SOL    HW2  804   0.861   1.327   2.204
  267SOL     OW  805   1.352   0.052   2.030
  267SOL    HW1  806   1.387   0.011   1.946
  267SOL    HW2  807   1.262   0.014   2.050
  268SOL     OW  808   0.039   1.077   2.162
  268SOL    HW1  809   0.138   1.066   2.153
  268SOL    HW2  810  -0.001   0.991   2.194
  269SOL     OW  811   0.875   1.646   2.199
  269SOL    HW1  812   0.798   1.611   2.145
  269SOL    HW2  813   0.843   1.717   2.261
  270SOL     OW  814   0.225   2.137   0.996
  270SOL    HW1  815   0.260   2.120   1.088
  270SOL    HW2  816   0.137   2.092   0.984
  271SOL     OW  817   0.019   2.230   0.647
  271SOL    HW1  818  -0.063   2.273   0.686
  271SOL    HW2  819  -0.009   2.157   0.584
  272SOL     OW  820   1.755   2.469   0.231
  272SOL    HW1  821   1.743   2.456   0.132
  272SOL    HW2  822   1.725   2.388   0.280
  273SOL     OW  823   0.438   2.254   1.499
  273SOL    HW1  824   0.520   2.198   1.508
  273SOL    HW2  825   0.357   2.196   1.503
  274SOL     OW  826   1.603   2.309   0.737
  274SOL    HW1  827   1.529   2.355   0.687
  274SOL    HW2  828   1.654   2.377   0.790
  275SOL     OW  829   1.594   1.976   1.480
  275SOL    HW1  830   1.576   2.043   1.408
  275SOL    HW2  831   1.591   2.022   1.569
  276SOL     OW  832   0.122   2.505   0.563
  276SOL    HW1  833   0.077   2.417   0.580
  276SOL    HW2  834   0.121   2.559   0.647
  277SOL     OW  835   0.809   1.866   0.502
  277SOL    HW1  836   0.849   1.957   0.493
  277SOL    HW2  837   0.709   1.874   0.508
  278SOL     OW  838   0.317   2.113   1.801
  278SOL    HW1  839   0.388   2.184   1.807
  278SOL    HW2  840   0.229   2.152   1.829
  279SOL     OW  841   1.281   2.207   0.944
  279SOL    HW1  842   1.195   2.157   0.931
  279SOL    HW2  843   1.343   2.153   1.000
  280SOL     OW  844   1.394   2.331   1.674
  280SOL    HW1  845   1.374   2.374   1.762
  280SOL    HW2  846   1.472   2.269   1.683
  281SOL     OW  847   0.991   2.272   1.242
  281SOL    HW1  848   0.914   2.306   1.296
  281SOL    HW2  849   0.957   2.221   1.163
  282SOL     OW  850   0.865   2.210   0.195
  282SOL    HW1  851   0.924   2.273   0.146
  282SOL    HW2  852   0.884   2.116   0.166
  283SOL     OW  853   1.719   2.447   1.831
  283SOL    HW1  854   1.693   2.536   1.795
  283SOL    HW2  855   1.717   2.379   1.758
  284SOL     OW  856   0.550   2.058   0.885
  284SOL    HW1  857   0.545   2.053   0.985
  284SOL    HW2  858   0.552   2.154   0.856
  285SOL     OW  859   0.202   2.147   1.498
  285SOL    HW1  860   0.122   2.207   1.485
  285SOL    HW2  861   0.192   2.098   1.584
  286SOL     OW  862   1.400   1.969   0.426
  286SOL    HW1  863   1.376   1.932   0.336
  286SOL    HW2  864   1.499   1.985   0.430
  287SOL     OW  865   1.547   2.084   1.729
  287SOL    HW1  866   1.542   2.121   1.821
  287SOL    HW2  867   1.475   2.015   1.717
  288SOL     OW  868   0.614   1.984   0.117
  288SOL    HW1  869   0.712   1.962   0.124
  288SOL    HW2  870   0.583   1.967   0.024
  289SOL     OW  871   0.781   2.126   1.749
  289SOL    HW1  872   0.848   2.065   1.792
  289SOL    HW2  873   0.708   2.145   1.814
  290SOL     OW  874   1.351   2.452   1.433
  290SOL    HW1  875   1.379   2.409   1.518
  290SOL    HW2  876   1.376   2.548   1.434
  291SOL     OW  877   0.539   1.926   0.512
  291SOL    HW1  878   0.458   1.927   0.570
  291SOL    HW2  879   0.542   2.009   0.457
  292SOL     OW  880   0.297   1.897   0.171
  292SOL    HW1  881   0.346   1.981   0.150
  292SOL    HW2  882   0.359   1.832   0.216
  293SOL     OW  883   0.935   2.098   0.480
  293SOL    HW1  884   0.887   2.139   0.402
  293SOL    HW2  885   1.034   2.096   0.461
  294SOL     OW  886   0.078   2.418   1.386
  294SOL    HW1  887   0.170   2.417   1.345
  294SOL    HW2  888   0.072   2.492   1.453
  295SOL     OW  889   0.561   2.084   1.147
  295SOL    HW1  890   0.599   2.000   1.184
  295SOL    HW2  891   0.473   2.103   1.191
  296SOL     OW  892   1.017   1.901   0.753
  296SOL    HW1  893   0.945   1.906   0.684
  296SOL    HW2  894   0.993   1.832   0.822
  297SOL     OW  895   1.466   2.452   0.992
  297SOL    HW1  896   1.436   2.357   0.999
  297SOL    HW2  897   1.539   2.468   1.058
  298SOL     OW  898   0.527   2.118   0.328
  298SOL    HW1  899   0.554   2.059   0.253
  298SOL    HW2  900   0.527   2.213   0.297
  299SOL     OW  901   0.915   1.951   1.402
  299SOL    HW1  902   0.940   1.931   1.307
  299SOL    HW2  903   0.987   2.007   1.444
  300SOL     OW  904   1.274   2.248   1.262
  300SOL    HW1  905   1.295   2.322   1.326
  300SOL    HW2  906   1.185   2.265   1.219
  301SOL     OW  907   0.566   2.399   0.865
  301SOL    HW1  908   0.578   2.465   0.791
  301SOL    HW2  909   0.612   2.433   0.948
  302SOL     OW  910   1.013   1.967   1.770
  302SOL    HW1  911   1.019   2.052   1.718
  302SOL    HW2  912   1.045   1.891   1.713
  303SOL     OW  913   0.504   1.912   1.740
  303SOL    HW1  914   0.462   1.855   1.670
  303SOL    HW2  915   0.438   1.981   1.772
  304SOL     OW  916   0.307   2.075   1.231
  304SOL    HW1  917   0.284   2.112   1.321
  304SOL    HW2  918   0.277   1.980   1.225
  305SOL     OW  919   0.732   2.496   1.064
  305SOL    HW1  920   0.791   2.470   0.988
  305SOL    HW2  921   0.704   2.592   1.053
  306SOL     OW  922   0.307   1.925   0.618
  306SOL    HW1  923   0.296   2.019   0.651
  306SOL    HW2  924   0.302   1.862   0.695
  307SOL     OW  925   1.622   2.229   0.374
  307SOL    HW1  926   1.624   2.153   0.438
  307SOL    HW2  927   1.574   2.306   0.414
  308SOL     OW  928   1.540   2.136   0.125
  308SOL    HW1  929   1.479   2.061   0.148
  308SOL    HW2  930   1.562   2.188   0.208
  309SOL     OW  931   0.339   2.371   1.006
  309SOL    HW1  932   0.287   2.288   0.989
  309SOL    HW2  933   0.416   2.376   0.942
  310SOL     OW  934   1.138   2.242   1.678
  310SOL    HW1  935   1.093   2.305   1.742
  310SOL    HW2  936   1.231   2.273   1.661
  311SOL     OW  937   1.160   2.069   1.477
  311SOL    HW1  938   1.160   2.133   1.554
  311SOL    HW2  939   1.188   2.117   1.394
  312SOL     OW  940   0.040   2.406   1.114
  312SOL    HW1  941   0.125   2.373   1.073
  312SOL    HW2  942   0.053   2.421   1.212
  313SOL     OW  943   0.189   2.382   1.722
  313SOL    HW1  944   0.248   2.342   1.652
  313SOL    HW2  945   0.131   2.453   1.681
  314SOL     OW  946   0.815   2.434   0.325
  314SOL    HW1  947   0.822   2.345   0.279
  314SOL    HW2  948   0.721   2.468   0.317
  315SOL     OW  949   1.657   2.466   1.206
  315SOL    HW1  950   1.619   2.397   1.268
  315SOL    HW2  951   1.739   2.430   1.162
  316SOL     OW  952   0.671   2.326   1.269
  316SOL    HW1  953   0.637   2.237   1.239
  316SOL    HW2  954   0.697   2.380   1.189
  317SOL     OW  955   0.903   1.948   0.133
  317SOL    HW1  956   0.954   1.949   0.047
  317SOL    HW2  957   0.959   1.906   0.204
  318SOL     OW  958   1.726   1.997   0.523
  318SOL    HW1  959   1.799   1.980   0.456
  318SOL    HW2  960   1.695   1.910   0.561
  319SOL     OW  961   1.841   2.037   0.963
  319SOL    HW1  962   1.880   1.952   0.927
  319SOL    HW2  963   1.743   2.039   0.944
  320SOL     OW  964   0.263   2.188   0.720
  320SOL    HW1  965   0.184   2.239   0.686
  320SOL    HW2  966   0.254   2.173   0.818
  321SOL     OW  967   1.014   2.098   0.971
  321SOL    HW1  968   1.006   2.062   0.878
  321SOL    HW2  969   1.012   2.022   1.036
  322SOL     OW  970   1.709   2.247   1.381
  322SOL    HW1  971   1.782   2.316   1.385
  322SOL    HW2  972   1.737   2.172   1.322
  323SOL     OW  973   0.672   2.065   1.489
  323SOL    HW1  974   0.762   2.049   1.449
  323SOL    HW2  975   0.680   2.070   1.588
  324SOL     OW  976   0.075   2.207   0.033
  324SOL    HW1  977  -0.017   2.179   0.004
  324SOL    HW2  978   0.106   2.284  -0.023
  325SOL     OW  979   0.072   2.028   0.318
  325SOL    HW1  980   0.055   2.111   0.264
  325SOL    HW2  981   0.162   1.991   0.296
  326SOL     OW  982   0.716   2.427   1.708
  326SOL    HW1  983   0.735   2.492   1.782
  326SOL    HW2  984   0.776   2.347   1.717
  327SOL     OW  985   1.225   2.187   0.449
  327SOL    HW1  986   1.290   2.113   0.438
  327SOL    HW2  987   1.245   2.237   0.533
  328SOL     OW  988   1.777   2.204   1.642
  328SOL    HW1  989   1.760   2.235   1.548
  328SOL    HW2  990   1.693   2.167   1.680
  329SOL     OW  991   1.824   2.054   1.227
  329SOL    HW1  992   1.820   1.964   1.271
  329SOL    HW2  993   1.827   2.043   1.128
  330SOL     OW  994   0.428   2.286   0.520
  330SOL    HW1  995   0.458   2.214   0.458
  330SOL    HW2  996   0.389   2.246   0.603
  331SOL     OW  997   0.317   2.409   1.280
  331SOL    HW1  998   0.355   2.350   1.352
  331SOL    HW2  999   0.357   2.383   1.192
  332SOL     OW 1000   1.424   2.076   1.112
  332SOL    HW1 1001   1.476   2.011   1.167
  332SOL    HW2 1002   1.375   2.139   1.173
  333SOL     OW 1003   1.001   1.896   1.154
  333SOL    HW1 1004   0.938   1.824   1.123
  333SOL    HW2 1005   1.094   1.860   1.154
  334SOL     OW 1006   1.352   1.914   0.168
  334SOL    HW1 1007   1.387   1.873   0.084
  334SOL    HW2 1008   1.262   1.876   0.188
  335SOL     OW 1009   1.300   2.315   0.691
  335SOL    HW1 1010   1.241   2.395   0.695
  335SOL    HW2 1011   1.315   2.280   0.784
  336SOL     OW 1012   1.593   2.083   0.882
  336SOL    HW1 1013   1.509   2.082   0.936
  336SOL    HW2 1014   1.595   2.166   0.826
  337SOL     OW 1015   1.135   2.565   2.579
  337SOL    HW1 1016   1.192   2.643   2.554
  337SOL    HW2 1017   1.075   2.591   2.655
  338SOL     OW 1018   1.755   2.469   2.093
  338SOL    HW1 1019   1.743   2.456   1.994
  338SOL    HW2 1020   1.725   2.388   2.142
  339SOL     OW 1021   0.809   1.866   2.364
  339SOL    HW1 1022   0.849   1.957   2.355
  339SOL    HW2 1023   0.709   1.874   2.370
  340SOL     OW 1024   0.865   2.210   2.057
  340SOL    HW1 1025   0.924   2.273   2.008
  340SOL    HW2 1026   0.884   2.116   2.028
  341SOL     OW 1027   1.400   1.969   2.288
  341SOL    HW1 1028   1.376   1.932   2.198
  341SOL    HW2 1029   1.499   1.985   2.292
  342SOL     OW 1030   0.382   2.562   2.342
  342SOL    HW1 1031   0.427   2.472   2.339
  342SOL    HW2 1032   0.288   2.551   2.375
  343SOL     OW 1033   0.614   1.984   1.979
  343SOL    HW1 1034   0.712   1.962   1.986
  343SOL    HW2 1035   0.583   1.967   1.886
  344SOL     OW 1036   0.297   1.897   2.033
  344SOL    HW1 1037   0.346   1.981   2.012
  344SOL    HW2 1038   0.359   1.832   2.078
  345SOL     OW 1039   0.935   2.098   2.342
  345SOL    HW1 1040   0.887   2.139   2.264
  345SOL    HW2 1041   1.034   2.096   2.323
  346SOL     OW 1042   0.527   2.118   2.190
  346SOL    HW1 1043   0.554   2.059   2.115
  346SOL    HW2 1044   0.527   2.213   2.159
  347SOL     OW 1045   1.622   2.229   2.236
  347SOL    HW1 1046   1.624   2.153   2.300
  347SOL    HW2 1047   1.574   2.306   2.276
  348SOL     OW 1048   1.540   2.136   1.987
  348SOL    HW1 1049   1.479   2.061   2.010
  348SOL    HW2 1050   1.562   2.188   2.070
  349SOL     OW 1051   0.815   2.434   2.187
  349SOL    HW1 1052   0.822   2.345   2.141
  349SOL    HW2 1053   0.721   2.468   2.179
  350SOL     OW 1054   1.726   1.997   2.385
  350SOL    HW1 1055   1.799   1.980   2.318
  350SOL    HW2 1056   1.695   1.910   2.423
  351SOL     OW 1057   0.075   2.207   1.895
  351SOL    HW1 1058  -0.017   2.179   1.866
  351SOL    HW2 1059   0.106   2.284   1.839
  352SOL     OW 1060   0.072   2.028   2.180
  352SOL    HW1 1061   0.055   2.111   2.126
  352SOL    HW2 1062   0.162   1.991   2.158
  353SOL     OW 1063   1.225   2.187   2.311
  353SOL    HW1 1064   1.290   2.113   2.300
  353SOL    HW2 1065   1.245   2.237   2.395
  354SOL     OW 1066   0.428   2.286   2.382
  354SOL    HW1 1067   0.458   2.214   2.320
  354SOL    HW2 1068   0.389   2.246   2.465
  355SOL     OW 1069   1.352   1.914   2.030
  355SOL    HW1 1070   1.387   1.873   1.946
  355SOL    HW2 1071   1.262   1.876   2.050
  356SOL     OW 1072   2.092   0.628   0.113
  356SOL    HW1 1073   1.999   0.626   0.150
  356SOL    HW2 1074   2.093   0.589   0.021
  357SOL     OW 1075   2.087   0.275   0.996
  357SOL    HW1 1076   2.122   0.258   1.088
  357SOL    HW2 1077   1.999   0.230   0.984
  358SOL     OW 1078   1.881   0.368   0.647
  358SOL    HW1 1079   1.799   0.411   0.686
  358SOL    HW2 1080   1.853   0.295   0.584
  359SOL     OW 1081   2.547   1.012   0.665
  359SOL    HW1 1082   2.616   0.996   0.735
  359SOL    HW2 1083   2.474   1.069   0.703
  360SOL     OW 1084   2.197   1.435   1.061
  360SOL    HW1 1085   2.119   1.404   1.008
  360SOL    HW2 1086   2.255   1.493   1.004
  361SOL     OW 1087   2.300   0.392   1.499
  361SOL    HW1 1088   2.382   0.336   1.508
  361SOL    HW2 1089   2.219   0.334   1.503
  362SOL     OW 1090   2.093   1.713   0.483
  362SOL    HW1 1091   2.127   1.790   0.537
  362SOL    HW2 1092   2.137   1.713   0.393
  363SOL     OW 1093   2.092   1.434   0.538
  363SOL    HW1 1094   2.066   1.530   0.538
  363SOL    HW2 1095   2.021   1.380   0.583
  364SOL     OW 1096   2.102   1.091   0.886
  364SOL    HW1 1097   2.116   1.007   0.938
  364SOL    HW2 1098   2.047   1.155   0.941
  365SOL     OW 1099   1.984   0.643   0.563
  365SOL    HW1 1100   1.939   0.555   0.580
  365SOL    HW2 1101   1.983   0.697   0.647
  366SOL     OW 1102   1.889   1.596   0.117
  366SOL    HW1 1103   1.870   1.500   0.138
  366SOL    HW2 1104   1.856   1.654   0.192
  367SOL     OW 1105   1.975   0.737   1.597
  367SOL    HW1 1106   2.063   0.724   1.642
  367SOL    HW2 1107   1.962   0.834   1.575
  368SOL     OW 1108   2.059   0.976   1.264
  368SOL    HW1 1109   2.148   0.931   1.250
  368SOL    HW2 1110   1.986   0.911   1.245
  369SOL     OW 1111   2.179   0.251   1.801
  369SOL    HW1 1112   2.250   0.322   1.807
  369SOL    HW2 1113   2.091   0.290   1.829
  370SOL     OW 1114   2.460   0.729   0.270
  370SOL    HW1 1115   2.484   0.798   0.202
  370SOL    HW2 1116   2.382   0.762   0.324
  371SOL     OW 1117   1.938   0.811   0.789
  371SOL    HW1 1118   2.037   0.799   0.798
  371SOL    HW2 1119   1.914   0.906   0.810
  372SOL     OW 1120   1.992   1.821   1.571
  372SOL    HW1 1121   1.982   1.806   1.670
  372SOL    HW2 1122   1.906   1.857   1.535
  373SOL     OW 1123   2.412   0.196   0.885
  373SOL    HW1 1124   2.407   0.191   0.985
  373SOL    HW2 1125   2.414   0.292   0.856
  374SOL     OW 1126   2.213   1.801   0.853
  374SOL    HW1 1127   2.263   1.715   0.859
  374SOL    HW2 1128   2.278   1.878   0.850
  375SOL     OW 1129   2.183   0.943   0.242
  375SOL    HW1 1130   2.265   0.982   0.200
  375SOL    HW2 1131   2.156   0.861   0.193
  376SOL     OW 1132   2.323   1.266   1.727
  376SOL    HW1 1133   2.273   1.267   1.641
  376SOL    HW2 1134   2.260   1.248   1.803
  377SOL     OW 1135   2.064   0.285   1.498
  377SOL    HW1 1136   1.984   0.345   1.485
  377SOL    HW2 1137   2.054   0.236   1.584
  378SOL     OW 1138   2.111   1.785   1.241
  378SOL    HW1 1139   2.168   1.720   1.291
  378SOL    HW2 1140   2.095   1.752   1.148
  379SOL     OW 1141   2.244   0.700   0.480
  379SOL    HW1 1142   2.289   0.610   0.477
  379SOL    HW2 1143   2.150   0.689   0.513
  380SOL     OW 1144   2.476   0.122   0.117
  380SOL    HW1 1145   2.574   0.100   0.124
  380SOL    HW2 1146   2.445   0.105   0.024
  381SOL     OW 1147   2.401   0.064   0.512
  381SOL    HW1 1148   2.320   0.065   0.570
  381SOL    HW2 1149   2.404   0.147   0.457
  382SOL     OW 1150   2.159   0.035   0.171
  382SOL    HW1 1151   2.208   0.119   0.150
  382SOL    HW2 1152   2.221  -0.030   0.216
  383SOL     OW 1153   2.321   1.152   0.741
  383SOL    HW1 1154   2.250   1.125   0.806
  383SOL    HW2 1155   2.295   1.124   0.648
  384SOL     OW 1156   1.940   0.556   1.386
  384SOL    HW1 1157   2.032   0.555   1.345
  384SOL    HW2 1158   1.934   0.630   1.453
  385SOL     OW 1159   2.423   0.222   1.147
  385SOL    HW1 1160   2.461   0.138   1.184
  385SOL    HW2 1161   2.335   0.241   1.191
  386SOL     OW 1162   2.272   0.813   1.251
  386SOL    HW1 1163   2.358   0.825   1.301
  386SOL    HW2 1164   2.230   0.726   1.278
  387SOL     OW 1165   1.926   1.564   1.331
  387SOL    HW1 1166   1.880   1.646   1.297
  387SOL    HW2 1167   2.024   1.583   1.340
  388SOL     OW 1168   2.229   1.100   0.501
  388SOL    HW1 1169   2.222   1.183   0.445
  388SOL    HW2 1170   2.233   1.020   0.441
  389SOL     OW 1171   2.428   0.537   0.865
  389SOL    HW1 1172   2.440   0.603   0.791
  389SOL    HW2 1173   2.474   0.571   0.948
  390SOL     OW 1174   2.216   1.510   1.329
  390SOL    HW1 1175   2.195   1.466   1.242
  390SOL    HW2 1176   2.313   1.536   1.332
  391SOL     OW 1177   2.264   0.751   1.598
  391SOL    HW1 1178   2.332   0.806   1.551
  391SOL    HW2 1179   2.304   0.663   1.625
  392SOL     OW 1180   2.366   0.050   1.740
  392SOL    HW1 1181   2.324  -0.007   1.670
  392SOL    HW2 1182   2.300   0.119   1.772
  393SOL     OW 1183   2.435   0.870   1.029
  393SOL    HW1 1184   2.479   0.959   1.020
  393SOL    HW2 1185   2.372   0.870   1.106
  394SOL     OW 1186   2.169   0.213   1.231
  394SOL    HW1 1187   2.146   0.250   1.321
  394SOL    HW2 1188   2.139   0.118   1.225
  395SOL     OW 1189   1.899   1.310   1.282
  395SOL    HW1 1190   1.952   1.261   1.350
  395SOL    HW2 1191   1.921   1.408   1.287
  396SOL     OW 1192   2.169   0.063   0.618
  396SOL    HW1 1193   2.158   0.157   0.651
  396SOL    HW2 1194   2.164   0.000   0.695
  397SOL     OW 1195   2.212   0.898   1.804
  397SOL    HW1 1196   2.288   0.942   1.852
  397SOL    HW2 1197   2.247   0.851   1.722
  398SOL     OW 1198   2.181   0.810   0.949
  398SOL    HW1 1199   2.274   0.846   0.954
  398SOL    HW2 1200   2.175   0.725   1.001
  399SOL     OW 1201   2.201   0.509   1.006
  399SOL    HW1 1202   2.149   0.426   0.989
  399SOL    HW2 1203   2.278   0.514   0.942
  400SOL     OW 1204   1.870   1.326   0.200
  400SOL    HW1 1205   1.777   1.347   0.169
  400SOL    HW2 1206   1.880   1.227   0.213
  401SOL     OW 1207   1.950   1.801   0.927
  401SOL    HW1 1208   1.908   1.715   0.900
  401SOL    HW2 1209   2.044   1.804   0.893
  402SOL     OW 1210   1.902   0.544   1.114
  402SOL    HW1 1211   1.987   0.511   1.073
  402SOL    HW2 1212   1.915   0.559   1.212
  403SOL     OW 1213   2.051   0.520   1.722
  403SOL    HW1 1214   2.110   0.480   1.652
  403SOL    HW2 1215   1.993   0.591   1.681
  404SOL     OW 1216   2.677   0.572   0.325
  404SOL    HW1 1217   2.684   0.483   0.279
  404SOL    HW2 1218   2.583   0.606   0.317
  405SOL     OW 1219   2.114   1.564   1.744
  405SOL    HW1 1220   2.084   1.621   1.820
  405SOL    HW2 1221   2.107   1.467   1.770
  406SOL     OW 1222   2.335   0.500   0.191
  406SOL    HW1 1223   2.396   0.580   0.195
  406SOL    HW2 1224   2.240   0.531   0.198
  407SOL     OW 1225   2.021   1.137   1.466
  407SOL    HW1 1226   2.043   1.076   1.542
  407SOL    HW2 1227   2.031   1.088   1.380
  408SOL     OW 1228   1.945   1.258   1.022
  408SOL    HW1 1229   1.940   1.257   1.122
  408SOL    HW2 1230   1.862   1.217   0.984
  409SOL     OW 1231   1.992   1.794   1.851
  409SOL    HW1 1232   1.951   1.720   1.904
  409SOL    HW2 1233   2.056   1.845   1.909
  410SOL     OW 1234   2.125   0.326   0.720
  410SOL    HW1 1235   2.046   0.377   0.686
  410SOL    HW2 1236   2.116   0.311   0.818
  411SOL     OW 1237   2.234   1.288   1.490
  411SOL    HW1 1238   2.221   1.381   1.456
  411SOL    HW2 1239   2.150   1.236   1.477
  412SOL     OW 1240   2.452   1.487   0.491
  412SOL    HW1 1241   2.494   1.429   0.421
  412SOL    HW2 1242   2.408   1.566   0.447
  413SOL     OW 1243   2.117   1.348   0.290
  413SOL    HW1 1244   2.021   1.349   0.263
  413SOL    HW2 1245   2.129   1.401   0.374
  414SOL     OW 1246   1.967   1.013   1.726
  414SOL    HW1 1247   1.890   0.980   1.780
  414SOL    HW2 1248   2.052   0.983   1.768
  415SOL     OW 1249   1.937   0.345   0.033
  415SOL    HW1 1250   1.845   0.317   0.004
  415SOL    HW2 1251   1.968   0.422  -0.023
  416SOL     OW 1252   1.934   0.166   0.318
  416SOL    HW1 1253   1.917   0.249   0.264
  416SOL    HW2 1254   2.024   0.129   0.296
  417SOL     OW 1255   2.252   1.741   1.560
  417SOL    HW1 1256   2.161   1.782   1.558
  417SOL    HW2 1257   2.245   1.647   1.592
  418SOL     OW 1258   2.083   1.314   1.844
  418SOL    HW1 1259   2.018   1.241   1.823
  418SOL    HW2 1260   2.087   1.328   1.942
  419SOL     OW 1261   1.941   1.240   0.653
  419SOL    HW1 1262   1.940   1.193   0.741
  419SOL    HW2 1263   2.023   1.212   0.602
  420SOL     OW 1264   2.534   1.391   1.624
  420SOL    HW1 1265   2.456   1.341   1.662
  420SOL    HW2 1266   2.531   1.486   1.655
  421SOL     OW 1267   2.290   0.424   0.520
  421SOL    HW1 1268   2.320   0.352   0.458
  421SOL    HW2 1269   2.251   0.384   0.603
  422SOL     OW 1270   2.179   0.547   1.280
  422SOL    HW1 1271   2.217   0.488   1.352
  422SOL    HW2 1272   2.219   0.521   1.192
  423SOL     OW 1273   1.901   1.077   0.300
  423SOL    HW1 1274   2.000   1.066   0.291
  423SOL    HW2 1275   1.861   0.991   0.332
  424SOL     OW 1276   2.092   0.628   1.975
  424SOL    HW1 1277   1.999   0.626   2.012
  424SOL    HW2 1278   2.093   0.589   1.883
  425SOL     OW 1279   2.547   1.012   2.527
  425SOL    HW1 1280   2.616   0.996   2.597
  425SOL    HW2 1281   2.474   1.069   2.565
  426SOL     OW 1282   2.093   1.713   2.345
  426SOL    HW1 1283   2.127   1.790   2.399
  426SOL    HW2 1284   2.137   1.713   2.255
  427SOL     OW 1285   2.092   1.434   2.400
  427SOL    HW1 1286   2.066   1.530   2.400
  427SOL    HW2 1287   2.021   1.380   2.445
  428SOL     OW 1288   1.889   1.596   1.979
  428SOL    HW1 1289   1.870   1.500   2.000
  428SOL    HW2 1290   1.856   1.654   2.054
  429SOL     OW 1291   2.460   0.729   2.132
  429SOL    HW1 1292   2.484   0.798   2.064
  429SOL    HW2 1293   2.382   0.762   2.186
  430SOL     OW 1294   2.213   1.801   2.715
  430SOL    HW1 1295   2.263   1.715   2.721
  430SOL    HW2 1296   2.278   1.878   2.712
  431SOL     OW 1297   2.183   0.943   2.104
  431SOL    HW1 1298   2.265   0.982   2.062
  431SOL    HW2 1299   2.156   0.861   2.055
  432SOL     OW 1300   2.244   0.700   2.342
  432SOL    HW1 1301   2.289   0.610   2.339
  432SOL    HW2 1302   2.150   0.689   2.375
  433SOL     OW 1303   2.476   0.122   1.979
  433SOL    HW1 1304   2.574   0.100   1.986
  433SOL    HW2 1305   2.445   0.105   1.886
  434SOL     OW 1306   2.159   0.035   2.033
  434SOL    HW1 1307   2.208   0.119   2.012
  434SOL    HW2 1308   2.221  -0.030   2.078
  435SOL     OW 1309   2.321   1.152   2.603
  435SOL    HW1 1310   2.250   1.125   2.668
  435SOL    HW2 1311   2.295   1.124   2.510
  436SOL     OW 1312   2.229   1.100   2.363
  436SOL    HW1 1313   2.222   1.183   2.307
  436SOL    HW2 1314   2.233   1.020   2.303
  437SOL     OW 1315   1.870   1.326   2.062
  437SOL    HW1 1316   1.777   1.347   2.031
  437SOL    HW2 1317   1.880   1.227   2.075
  438SOL     OW 1318   2.677   0.572   2.187
  438SOL    HW1 1319   2.684   0.483   2.141
  438SOL    HW2 1320   2.583   0.606   2.179
  439SOL     OW 1321   2.335   0.500   2.053
  439SOL    HW1 1322   2.396   0.580   2.057
  439SOL    HW2 1323   2.240   0.531   2.060
  440SOL     OW 1324   2.452   1.487   2.353
  440SOL    HW1 1325   2.494   1.429   2.283
  440SOL    HW2 1326   2.408   1.566   2.309
  441SOL     OW 1327   2.117   1.348   2.152
  441SOL    HW1 1328   2.021   1.349   2.125
  441SOL    HW2 1329   2.129   1.401   2.236
  442SOL     OW 1330   1.937   0.345   1.895
  442SOL    HW1 1331   1.845   0.317   1.866
  442SOL    HW2 1332   1.968   0.422   1.839
  443SOL     OW 1333   1.934   0.166   2.180
  443SOL    HW1 1334   1.917   0.249   2.126
  443SOL    HW2 1335   2.024   0.129   2.158
  444SOL     OW 1336   2.456   0.745   2.514
  444SOL    HW1 1337   2.506   0.830   2.495
  444SOL    HW2 1338   2.368   0.747   2.466
  445SOL     OW 1339   2.290   0.424   2.382
  445SOL    HW1 1340   2.320   0.352   2.320
  445SOL    HW2 1341   2.251   0.384   2.465
  446SOL     OW 1342   1.901   1.077   2.162
  446SOL    HW1 1343   2.000   1.066   2.153
  446SOL    HW2 1344   1.861   0.991   2.194
  447SOL     OW 1345   2.087   2.137   0.996
  447SOL    HW1 1346   2.122   2.120   1.088
  447SOL    HW2 1347   1.999   2.092   0.984
  448SOL     OW 1348   1.881   2.230   0.647
  448SOL    HW1 1349   1.799   2.273   0.686
  448SOL    HW2 1350   1.853   2.157   0.584
  449SOL     OW 1351   2.300   2.254   1.499
  449SOL    HW1 1352   2.382   2.198   1.508
  449SOL    HW2 1353   2.219   2.196   1.503
  450SOL     OW 1354   1.984   2.505   0.563
  450SOL    HW1 1355   1.939   2.417   0.580
  450SOL    HW2 1356   1.983   2.559   0.647
  451SOL     OW 1357   2.179   2.113   1.801
  451SOL    HW1 1358   2.250   2.184   1.807
  451SOL    HW2 1359   2.091   2.152   1.829
  452SOL     OW 1360   2.412   2.058   0.885
  452SOL    HW1 1361   2.407   2.053   0.985
  452SOL    HW2 1362   2.414   2.154   0.856
  453SOL     OW 1363   2.064   2.147   1.498
  453SOL    HW1 1364   1.984   2.207   1.485
  453SOL    HW2 1365   2.054   2.098   1.584
  454SOL     OW 1366   2.476   1.984   0.117
  454SOL    HW1 1367   2.574   1.962   0.124
  454SOL    HW2 1368   2.445   1.967   0.024
  455SOL     OW 1369   2.401   1.926   0.512
  455SOL    HW1 1370   2.320   1.927   0.570
  455SOL    HW2 1371   2.404   2.009   0.457
  456SOL     OW 1372   1.940   2.418   1.386
  456SOL    HW1 1373   2.032   2.417   1.345
  456SOL    HW2 1374   1.934   2.492   1.453
  457SOL     OW 1375   2.423   2.084   1.147
  457SOL    HW1 1376   2.461   2.000   1.184
  457SOL    HW2 1377   2.335   2.103   1.191
  458SOL     OW 1378   2.428   2.399   0.865
  458SOL    HW1 1379   2.440   2.465   0.791
  458SOL    HW2 1380   2.474   2.433   0.948
  459SOL     OW 1381   2.366   1.912   1.740
  459SOL    HW1 1382   2.324   1.855   1.670
  459SOL    HW2 1383   2.300   1.981   1.772
  460SOL     OW 1384   2.169   2.075   1.231
  460SOL    HW1 1385   2.146   2.112   1.321
  460SOL    HW2 1386   2.139   1.980   1.225
  461SOL     OW 1387   2.169   1.925   0.618
  461SOL    HW1 1388   2.158   2.019   0.651
  461SOL    HW2 1389   2.164   1.862   0.695
  462SOL     OW 1390   2.201   2.371   1.006
  462SOL    HW1 1391   2.149   2.288   0.989
  462SOL    HW2 1392   2.278   2.376   0.942
  463SOL     OW 1393   1.902   2.406   1.114
  463SOL    HW1 1394   1.987   2.373   1.073
  463SOL    HW2 1395   1.915   2.421   1.212
  464SOL     OW 1396   2.051   2.382   1.722
  464SOL    HW1 1397   2.110   2.342   1.652
  464SOL    HW2 1398   1.993   2.453   1.681
  465SOL     OW 1399   2.125   2.188   0.720
  465SOL    HW1 1400   2.046   2.239   0.686
  465SOL    HW2 1401   2.116   2.173   0.818
  466SOL     OW 1402   1.937   2.207   0.033
  466SOL    HW1 1403   1.845   2.179   0.004
  466SOL    HW2 1404   1.968   2.284  -0.023
  467SOL     OW 1405   1.934   2.028   0.318
  467SOL    HW1 1406   1.917   2.111   0.264
  467SOL    HW2 1407   2.024   1.991   0.296
  468SOL     OW 1408   2.290   2.286   0.520
  468SOL    HW1 1409   2.320   2.214   0.458
  468SOL    HW2 1410   2.251   2.246   0.603
  469SOL     OW 1411   2.179   2.409   1.280
  469SOL    HW1 1412   2.217   2.350   1.352
  469SOL    HW2 1413   2.219   2.383   1.192
  470SOL     OW 1414   2.244   2.562   2.342
  470SOL    HW1 1415   2.289   2.472   2.339
  470SOL    HW2 1416   2.150   2.551   2.375
  471SOL     OW 1417   2.476   1.984   1.979
  471SOL    HW1 1418   2.574   1.962   1.986
  471SOL    HW2 1419   2.445   1.967   1.886
  472SOL     OW 1420   2.159   1.897   2.033
  472SOL    HW1 1421   2.208   1.981   2.012
  472SOL    HW2 1422   2.221   1.832   2.078
  473SOL     OW 1423   2.169   1.925   2.480
  473SOL    HW1 1424   2.158   2.019   2.513
  473SOL    HW2 1425   2.164   1.862   2.557
  474SOL     OW 1426   1.937   2.207   1.895
  474SOL    HW1 1427   1.845   2.179   1.866
  474SOL    HW2 1428   1.968   2.284   1.839
  475SOL     OW 1429   1.934   2.028   2.180
  475SOL    HW1 1430   1.917   2.111   2.126
  475SOL    HW2 1431   2.024   1.991   2.158
  476SOL     OW 1432   2.290   2.286   2.382
  476SOL    HW1 1433   2.320   2.214   2.320
  476SOL    HW2 1434   2.251   2.246   2.465
   2.45948   2.45948   2.45948
