; mobley_8525830_GMX.itp created by acpype (v: 2023.10.27) on Thu May 14 13:45:51 2026

[ atomtypes ]
;name   bond_type     mass     charge   ptype   sigma         epsilon       Amb
 c3       c3          0.00000  0.00000   A     3.39771e-01   4.51035e-01 ; 1.91  0.1078
 i        i           0.00000  0.00000   A     3.84120e-01   2.07317e+00 ; 2.16  0.4955
 hc       hc          0.00000  0.00000   A     2.60018e-01   8.70272e-02 ; 1.46  0.0208
 h1       h1          0.00000  0.00000   A     2.42200e-01   8.70272e-02 ; 1.36  0.0208

[ moleculetype ]
;name            nrexcl
 mobley_8525830   3

[ atoms ]
;   nr  type  resi  res  atom  cgnr     charge      mass       ; qtot   bond_type
     1   c3     1   MOL    C1    1    -0.093100     12.01000 ; qtot -0.093
     2   c3     1   MOL    C2    2    -0.079400     12.01000 ; qtot -0.172
     3   c3     1   MOL    C3    3    -0.080400     12.01000 ; qtot -0.253
     4   c3     1   MOL    C4    4    -0.076400     12.01000 ; qtot -0.329
     5   c3     1   MOL    C5    5     0.068500     12.01000 ; qtot -0.261
     6    i     1   MOL    I1    6    -0.256899    126.90000 ; qtot -0.518
     7   hc     1   MOL    H1    7     0.034033      1.00800 ; qtot -0.484
     8   hc     1   MOL    H2    8     0.034033      1.00800 ; qtot -0.450
     9   hc     1   MOL    H3    9     0.034033      1.00800 ; qtot -0.416
    10   hc     1   MOL    H4   10     0.040700      1.00800 ; qtot -0.375
    11   hc     1   MOL    H5   11     0.040700      1.00800 ; qtot -0.334
    12   hc     1   MOL    H6   12     0.041700      1.00800 ; qtot -0.292
    13   hc     1   MOL    H7   13     0.041700      1.00800 ; qtot -0.251
    14   hc     1   MOL    H8   14     0.053700      1.00800 ; qtot -0.197
    15   hc     1   MOL    H9   15     0.053700      1.00800 ; qtot -0.143
    16   h1     1   MOL   H10   16     0.071700      1.00800 ; qtot -0.072
    17   h1     1   MOL   H11   17     0.071700      1.00800 ; qtot 0.000

[ bonds ]
;   ai     aj funct   r             k
     1      2   1    1.5354e-01    1.9154e+05 ;     C1 - C2    
     1      7   1    1.0962e-01    2.8891e+05 ;     C1 - H1    
     1      8   1    1.0962e-01    2.8891e+05 ;     C1 - H2    
     1      9   1    1.0962e-01    2.8891e+05 ;     C1 - H3    
     2      3   1    1.5354e-01    1.9154e+05 ;     C2 - C3    
     2     10   1    1.0962e-01    2.8891e+05 ;     C2 - H4    
     2     11   1    1.0962e-01    2.8891e+05 ;     C2 - H5    
     3      4   1    1.5354e-01    1.9154e+05 ;     C3 - C4    
     3     12   1    1.0962e-01    2.8891e+05 ;     C3 - H6    
     3     13   1    1.0962e-01    2.8891e+05 ;     C3 - H7    
     4      5   1    1.5354e-01    1.9154e+05 ;     C4 - C5    
     4     14   1    1.0962e-01    2.8891e+05 ;     C4 - H8    
     4     15   1    1.0962e-01    2.8891e+05 ;     C4 - H9    
     5      6   1    2.2260e-01    7.7295e+04 ;     C5 - I1    
     5     16   1    1.0969e-01    2.8804e+05 ;     C5 - H10   
     5     17   1    1.0969e-01    2.8804e+05 ;     C5 - H11   

[ pairs ]
;   ai     aj    funct
     1      4      1 ;     C1 - C4    
     1     12      1 ;     C1 - H6    
     1     13      1 ;     C1 - H7    
     2      5      1 ;     C2 - C5    
     2     14      1 ;     C2 - H8    
     2     15      1 ;     C2 - H9    
     3      6      1 ;     C3 - I1    
     3     16      1 ;     C3 - H10   
     3     17      1 ;     C3 - H11   
     4     10      1 ;     C4 - H4    
     4     11      1 ;     C4 - H5    
     5     12      1 ;     C5 - H6    
     5     13      1 ;     C5 - H7    
     6     14      1 ;     I1 - H8    
     6     15      1 ;     I1 - H9    
     7      3      1 ;     H1 - C3    
     7     10      1 ;     H1 - H4    
     7     11      1 ;     H1 - H5    
     8      3      1 ;     H2 - C3    
     8     10      1 ;     H2 - H4    
     8     11      1 ;     H2 - H5    
     9      3      1 ;     H3 - C3    
     9     10      1 ;     H3 - H4    
     9     11      1 ;     H3 - H5    
    10     12      1 ;     H4 - H6    
    10     13      1 ;     H4 - H7    
    11     12      1 ;     H5 - H6    
    11     13      1 ;     H5 - H7    
    12     14      1 ;     H6 - H8    
    12     15      1 ;     H6 - H9    
    13     14      1 ;     H7 - H8    
    13     15      1 ;     H7 - H9    
    14     16      1 ;     H8 - H10   
    14     17      1 ;     H8 - H11   
    15     16      1 ;     H9 - H10   
    15     17      1 ;     H9 - H11   

[ angles ]
;   ai     aj     ak    funct   theta         cth
     1      2      3      1    1.1263e+02    5.0099e+02 ;     C1 - C2     - C3    
     1      2     10      1    1.0968e+02    3.6208e+02 ;     C1 - C2     - H4    
     1      2     11      1    1.0968e+02    3.6208e+02 ;     C1 - C2     - H5    
     2      1      7      1    1.0968e+02    3.6208e+02 ;     C2 - C1     - H1    
     2      1      8      1    1.0968e+02    3.6208e+02 ;     C2 - C1     - H2    
     2      1      9      1    1.0968e+02    3.6208e+02 ;     C2 - C1     - H3    
     2      3      4      1    1.1263e+02    5.0099e+02 ;     C2 - C3     - C4    
     2      3     12      1    1.0968e+02    3.6208e+02 ;     C2 - C3     - H6    
     2      3     13      1    1.0968e+02    3.6208e+02 ;     C2 - C3     - H7    
     3      2     10      1    1.0968e+02    3.6208e+02 ;     C3 - C2     - H4    
     3      2     11      1    1.0968e+02    3.6208e+02 ;     C3 - C2     - H5    
     3      4      5      1    1.1263e+02    5.0099e+02 ;     C3 - C4     - C5    
     3      4     14      1    1.0968e+02    3.6208e+02 ;     C3 - C4     - H8    
     3      4     15      1    1.0968e+02    3.6208e+02 ;     C3 - C4     - H9    
     4      3     12      1    1.0968e+02    3.6208e+02 ;     C4 - C3     - H6    
     4      3     13      1    1.0968e+02    3.6208e+02 ;     C4 - C3     - H7    
     4      5      6      1    1.1144e+02    4.8785e+02 ;     C4 - C5     - I1    
     4      5     16      1    1.0959e+02    3.6217e+02 ;     C4 - C5     - H10   
     4      5     17      1    1.0959e+02    3.6217e+02 ;     C4 - C5     - H11   
     5      4     14      1    1.0968e+02    3.6208e+02 ;     C5 - C4     - H8    
     5      4     15      1    1.0968e+02    3.6208e+02 ;     C5 - C4     - H9    
     6      5     16      1    1.0437e+02    3.1313e+02 ;     I1 - C5     - H10   
     6      5     17      1    1.0437e+02    3.1313e+02 ;     I1 - C5     - H11   
     7      1      8      1    1.0773e+02    2.9957e+02 ;     H1 - C1     - H2    
     7      1      9      1    1.0773e+02    2.9957e+02 ;     H1 - C1     - H3    
     8      1      9      1    1.0773e+02    2.9957e+02 ;     H2 - C1     - H3    
    10      2     11      1    1.0773e+02    2.9957e+02 ;     H4 - C2     - H5    
    12      3     13      1    1.0773e+02    2.9957e+02 ;     H6 - C3     - H7    
    14      4     15      1    1.0773e+02    2.9957e+02 ;     H8 - C4     - H9    
    16      5     17      1    1.0855e+02    2.9824e+02 ;    H10 - C5     - H11   

[ dihedrals ] ; propers
; for gromacs 4.5 or higher, using funct 9
;    i      j      k      l   func   phase     kd      pn
     1      2      3      4      9     0.00   2.17568   3 ;     C1-    C2-    C3-    C4
     1      2      3     12      9     0.00   0.54392   3 ;     C1-    C2-    C3-    H6
     1      2      3     13      9     0.00   0.54392   3 ;     C1-    C2-    C3-    H7
     2      3      4      5      9     0.00   2.17568   3 ;     C2-    C3-    C4-    C5
     2      3      4     14      9     0.00   0.54392   3 ;     C2-    C3-    C4-    H8
     2      3      4     15      9     0.00   0.54392   3 ;     C2-    C3-    C4-    H9
     3      4      5      6      9     0.00   0.65084   3 ;     C3-    C4-    C5-    I1
     3      4      5     16      9     0.00   0.65084   3 ;     C3-    C4-    C5-   H10
     3      4      5     17      9     0.00   0.65084   3 ;     C3-    C4-    C5-   H11
     4      3      2     10      9     0.00   0.54392   3 ;     C4-    C3-    C2-    H4
     4      3      2     11      9     0.00   0.54392   3 ;     C4-    C3-    C2-    H5
     5      4      3     12      9     0.00   0.54392   3 ;     C5-    C4-    C3-    H6
     5      4      3     13      9     0.00   0.54392   3 ;     C5-    C4-    C3-    H7
     6      5      4     14      9     0.00   0.96232   3 ;     I1-    C5-    C4-    H8
     6      5      4     15      9     0.00   0.96232   3 ;     I1-    C5-    C4-    H9
     7      1      2      3      9     0.00   0.54392   3 ;     H1-    C1-    C2-    C3
     7      1      2     10      9     0.00   0.50208   3 ;     H1-    C1-    C2-    H4
     7      1      2     11      9     0.00   0.50208   3 ;     H1-    C1-    C2-    H5
     8      1      2      3      9     0.00   0.54392   3 ;     H2-    C1-    C2-    C3
     8      1      2     10      9     0.00   0.50208   3 ;     H2-    C1-    C2-    H4
     8      1      2     11      9     0.00   0.50208   3 ;     H2-    C1-    C2-    H5
     9      1      2      3      9     0.00   0.54392   3 ;     H3-    C1-    C2-    C3
     9      1      2     10      9     0.00   0.50208   3 ;     H3-    C1-    C2-    H4
     9      1      2     11      9     0.00   0.50208   3 ;     H3-    C1-    C2-    H5
    10      2      3     12      9     0.00   0.50208   3 ;     H4-    C2-    C3-    H6
    10      2      3     13      9     0.00   0.50208   3 ;     H4-    C2-    C3-    H7
    11      2      3     12      9     0.00   0.50208   3 ;     H5-    C2-    C3-    H6
    11      2      3     13      9     0.00   0.50208   3 ;     H5-    C2-    C3-    H7
    12      3      4     14      9     0.00   0.50208   3 ;     H6-    C3-    C4-    H8
    12      3      4     15      9     0.00   0.50208   3 ;     H6-    C3-    C4-    H9
    13      3      4     14      9     0.00   0.50208   3 ;     H7-    C3-    C4-    H8
    13      3      4     15      9     0.00   0.50208   3 ;     H7-    C3-    C4-    H9
    14      4      5     16      9     0.00   0.65084   3 ;     H8-    C4-    C5-   H10
    14      4      5     17      9     0.00   0.65084   3 ;     H8-    C4-    C5-   H11
    15      4      5     16      9     0.00   0.65084   3 ;     H9-    C4-    C5-   H10
    15      4      5     17      9     0.00   0.65084   3 ;     H9-    C4-    C5-   H11
