mobley_6102880_GMX.gro created by acpype (v: 2023.10.27) on Thu May 14 13:30:24 2026
 2405
    1MOL     C1    1   1.369   1.544   1.113
    1MOL     C2    2   1.624   1.287   1.726
    1MOL     C3    3   1.373   1.422   1.181
    1MOL     C4    4   1.361   1.664   1.184
    1MOL     C5    5   1.669   1.366   1.621
    1MOL     C6    6   1.491   1.291   1.766
    1MOL     C7    7   1.369   1.420   1.320
    1MOL     C8    8   1.357   1.662   1.324
    1MOL     C9    9   1.579   1.450   1.554
    1MOL    C10   10   1.401   1.375   1.699
    1MOL    C11   11   1.361   1.540   1.392
    1MOL    C12   12   1.446   1.455   1.593
    1MOL     O1   13   1.357   1.538   1.528
    1MOL     H1   14   1.372   1.546   1.004
    1MOL     H2   15   1.694   1.221   1.778
    1MOL     H3   16   1.379   1.329   1.125
    1MOL     H4   17   1.358   1.759   1.131
    1MOL     H5   18   1.773   1.362   1.590
    1MOL     H6   19   1.456   1.229   1.848
    1MOL     H7   20   1.371   1.325   1.373
    1MOL     H8   21   1.351   1.755   1.379
    1MOL     H9   22   1.615   1.512   1.472
    1MOL    H10   23   1.297   1.379   1.730
    2SOL     OW   24   0.230   0.628   0.113
    2SOL    HW1   25   0.137   0.626   0.150
    2SOL    HW2   26   0.231   0.589   0.021
    3SOL     OW   27   0.225   0.275   0.996
    3SOL    HW1   28   0.260   0.258   1.088
    3SOL    HW2   29   0.137   0.230   0.984
    4SOL     OW   30   0.019   0.368   0.647
    4SOL    HW1   31  -0.063   0.411   0.686
    4SOL    HW2   32  -0.009   0.295   0.584
    5SOL     OW   33   0.569   1.275   1.165
    5SOL    HW1   34   0.476   1.268   1.128
    5SOL    HW2   35   0.580   1.364   1.209
    6SOL     OW   36   1.555   1.511   0.703
    6SOL    HW1   37   1.498   1.495   0.784
    6SOL    HW2   38   1.496   1.521   0.623
    7SOL     OW   39   1.135   0.703   0.717
    7SOL    HW1   40   1.192   0.781   0.692
    7SOL    HW2   41   1.075   0.729   0.793
    8SOL     OW   42   1.755   0.607   0.231
    8SOL    HW1   43   1.743   0.594   0.132
    8SOL    HW2   44   1.725   0.526   0.280
    9SOL     OW   45   0.768   1.144   1.023
    9SOL    HW1   46   0.690   1.161   1.083
    9SOL    HW2   47   0.802   1.231   0.987
   10SOL     OW   48   0.850   0.798   1.823
   10SOL    HW1   49   0.846   0.874   1.888
   10SOL    HW2   50   0.872   0.834   1.732
   11SOL     OW   51   0.685   1.012   0.665
   11SOL    HW1   52   0.754   0.996   0.735
   11SOL    HW2   53   0.612   1.069   0.703
   12SOL     OW   54   0.686   1.161   1.803
   12SOL    HW1   55   0.746   1.240   1.817
   12SOL    HW2   56   0.600   1.192   1.762
   13SOL     OW   57   0.335   1.435   1.061
   13SOL    HW1   58   0.257   1.404   1.008
   13SOL    HW2   59   0.393   1.493   1.004
   14SOL     OW   60   0.438   0.392   1.499
   14SOL    HW1   61   0.520   0.336   1.508
   14SOL    HW2   62   0.357   0.334   1.503
   15SOL     OW   63   1.603   0.447   0.737
   15SOL    HW1   64   1.529   0.493   0.687
   15SOL    HW2   65   1.654   0.515   0.790
   16SOL     OW   66   0.231   1.713   0.483
   16SOL    HW1   67   0.265   1.790   0.537
   16SOL    HW2   68   0.275   1.713   0.393
   17SOL     OW   69   1.127   1.341   1.690
   17SOL    HW1   70   1.174   1.341   1.778
   17SOL    HW2   71   1.079   1.254   1.679
   18SOL     OW   72   0.230   1.434   0.538
   18SOL    HW1   73   0.204   1.530   0.538
   18SOL    HW2   74   0.159   1.380   0.583
   19SOL     OW   75   0.240   1.091   0.886
   19SOL    HW1   76   0.254   1.007   0.938
   19SOL    HW2   77   0.185   1.155   0.941
   20SOL     OW   78   0.620   1.786   1.439
   20SOL    HW1   79   0.528   1.769   1.474
   20SOL    HW2   80   0.648   1.878   1.465
   21SOL     OW   81   0.606   0.964   0.123
   21SOL    HW1   82   0.613   1.048   0.069
   21SOL    HW2   83   0.652   0.977   0.211
   22SOL     OW   84   1.594   0.114   1.480
   22SOL    HW1   85   1.576   0.181   1.408
   22SOL    HW2   86   1.591   0.160   1.569
   23SOL     OW   87   0.122   0.643   0.563
   23SOL    HW1   88   0.077   0.555   0.580
   23SOL    HW2   89   0.121   0.697   0.647
   24SOL     OW   90   1.842   1.767   0.359
   24SOL    HW1   91   1.896   1.738   0.439
   24SOL    HW2   92   1.872   1.857   0.330
   25SOL     OW   93   0.027   1.596   0.117
   25SOL    HW1   94   0.008   1.500   0.138
   25SOL    HW2   95  -0.006   1.654   0.192
   26SOL     OW   96   1.689   0.922   0.612
   26SOL    HW1   97   1.784   0.893   0.620
   26SOL    HW2   98   1.681   0.987   0.537
   27SOL     OW   99   1.641   1.108   0.432
   27SOL    HW1  100   1.727   1.110   0.380
   27SOL    HW2  101   1.655   1.155   0.520
   28SOL     OW  102   0.113   0.737   1.597
   28SOL    HW1  103   0.201   0.724   1.642
   28SOL    HW2  104   0.100   0.834   1.575
   29SOL     OW  105   0.613   1.365   0.726
   29SOL    HW1  106   0.564   1.278   0.735
   29SOL    HW2  107   0.590   1.408   0.639
   30SOL     OW  108   0.809   0.004   0.502
   30SOL    HW1  109   0.849   0.095   0.493
   30SOL    HW2  110   0.709   0.012   0.508
   31SOL     OW  111   0.197   0.976   1.264
   31SOL    HW1  112   0.286   0.931   1.250
   31SOL    HW2  113   0.124   0.911   1.245
   32SOL     OW  114   1.525   0.999   0.190
   32SOL    HW1  115   1.462   0.923   0.203
   32SOL    HW2  116   1.573   1.017   0.276
   33SOL     OW  117   1.187   1.792   1.616
   33SOL    HW1  118   1.211   1.852   1.540
   33SOL    HW2  119   1.194   1.697   1.586
   34SOL     OW  120   0.317   0.251   1.801
   34SOL    HW1  121   0.388   0.322   1.807
   34SOL    HW2  122   0.229   0.290   1.829
   35SOL     OW  123   1.667   1.714   0.572
   35SOL    HW1  124   1.626   1.691   0.484
   35SOL    HW2  125   1.649   1.640   0.637
   36SOL     OW  126   0.598   0.729   0.270
   36SOL    HW1  127   0.622   0.798   0.202
   36SOL    HW2  128   0.520   0.762   0.324
   37SOL     OW  129   1.281   0.345   0.944
   37SOL    HW1  130   1.195   0.295   0.931
   37SOL    HW2  131   1.343   0.291   1.000
   38SOL     OW  132   1.576   1.662   0.307
   38SOL    HW1  133   1.665   1.708   0.310
   38SOL    HW2  134   1.555   1.638   0.212
   39SOL     OW  135   0.807   0.605   1.465
   39SOL    HW1  136   0.760   0.602   1.554
   39SOL    HW2  137   0.756   0.550   1.399
   40SOL     OW  138   1.394   0.469   1.674
   40SOL    HW1  139   1.374   0.512   1.762
   40SOL    HW2  140   1.472   0.407   1.683
   41SOL     OW  141   0.973   0.890   1.572
   41SOL    HW1  142   1.019   0.806   1.543
   41SOL    HW2  143   0.917   0.924   1.497
   42SOL     OW  144   0.991   0.410   1.242
   42SOL    HW1  145   0.914   0.444   1.296
   42SOL    HW2  146   0.957   0.359   1.163
   43SOL     OW  147   1.041   0.701   0.429
   43SOL    HW1  148   1.067   0.697   0.525
   43SOL    HW2  149   0.956   0.650   0.415
   44SOL     OW  150   0.076   0.811   0.789
   44SOL    HW1  151   0.175   0.799   0.798
   44SOL    HW2  152   0.052   0.906   0.810
   45SOL     OW  153   0.130   1.821   1.571
   45SOL    HW1  154   0.120   1.806   1.670
   45SOL    HW2  155   0.044   1.857   1.535
   46SOL     OW  156   0.865   0.348   0.195
   46SOL    HW1  157   0.924   0.411   0.146
   46SOL    HW2  158   0.884   0.254   0.166
   47SOL     OW  159   1.719   0.585   1.831
   47SOL    HW1  160   1.693   0.674   1.795
   47SOL    HW2  161   1.717   0.517   1.758
   48SOL     OW  162   1.362   1.144   0.545
   48SOL    HW1  163   1.445   1.115   0.497
   48SOL    HW2  164   1.313   1.211   0.489
   49SOL     OW  165   0.550   0.196   0.885
   49SOL    HW1  166   0.545   0.191   0.985
   49SOL    HW2  167   0.552   0.292   0.856
   50SOL     OW  168   1.008   1.456   0.477
   50SOL    HW1  169   0.962   1.528   0.425
   50SOL    HW2  170   1.004   1.476   0.575
   51SOL     OW  171   0.351   1.801   0.853
   51SOL    HW1  172   0.401   1.715   0.859
   51SOL    HW2  173   0.416   1.878   0.850
   52SOL     OW  174   1.795   1.066   0.873
   52SOL    HW1  175   1.733   1.051   0.797
   52SOL    HW2  176   1.743   1.077   0.958
   53SOL     OW  177   0.321   0.943   0.242
   53SOL    HW1  178   0.403   0.982   0.200
   53SOL    HW2  179   0.294   0.861   0.193
   54SOL     OW  180   1.458   0.735   0.728
   54SOL    HW1  181   1.453   0.670   0.803
   54SOL    HW2  182   1.538   0.794   0.741
   55SOL     OW  183   0.461   1.266   1.727
   55SOL    HW1  184   0.411   1.267   1.641
   55SOL    HW2  185   0.398   1.248   1.803
   56SOL     OW  186   1.111   1.776   0.237
   56SOL    HW1  187   1.051   1.714   0.287
   56SOL    HW2  188   1.142   1.732   0.152
   57SOL     OW  189   0.202   0.285   1.498
   57SOL    HW1  190   0.122   0.345   1.485
   57SOL    HW2  191   0.192   0.236   1.584
   58SOL     OW  192   1.632   1.377   0.081
   58SOL    HW1  193   1.600   1.471   0.071
   58SOL    HW2  194   1.556   1.314   0.069
   59SOL     OW  195   0.464   1.743   0.323
   59SOL    HW1  196   0.497   1.782   0.409
   59SOL    HW2  197   0.540   1.736   0.258
   60SOL     OW  198   1.400   0.107   0.426
   60SOL    HW1  199   1.376   0.070   0.336
   60SOL    HW2  200   1.499   0.123   0.430
   61SOL     OW  201   0.249   1.785   1.241
   61SOL    HW1  202   0.306   1.720   1.291
   61SOL    HW2  203   0.233   1.752   1.148
   62SOL     OW  204   0.940   1.698   0.904
   62SOL    HW1  205   1.020   1.641   0.925
   62SOL    HW2  206   0.891   1.658   0.827
   63SOL     OW  207   0.382   0.700   0.480
   63SOL    HW1  208   0.427   0.610   0.477
   63SOL    HW2  209   0.288   0.689   0.513
   64SOL     OW  210   1.547   0.222   1.729
   64SOL    HW1  211   1.542   0.259   1.821
   64SOL    HW2  212   1.475   0.153   1.717
   65SOL     OW  213   0.614   0.122   0.117
   65SOL    HW1  214   0.712   0.100   0.124
   65SOL    HW2  215   0.583   0.105   0.024
   66SOL     OW  216   0.781   0.264   1.749
   66SOL    HW1  217   0.848   0.203   1.792
   66SOL    HW2  218   0.708   0.283   1.814
   67SOL     OW  219   0.888   1.514   1.195
   67SOL    HW1  220   0.865   1.489   1.101
   67SOL    HW2  221   0.949   1.445   1.234
   68SOL     OW  222   1.351   0.590   1.433
   68SOL    HW1  223   1.379   0.547   1.518
   68SOL    HW2  224   1.376   0.686   1.434
   69SOL     OW  225   0.803   1.402   0.924
   69SOL    HW1  226   0.893   1.416   0.882
   69SOL    HW2  227   0.732   1.404   0.853
   70SOL     OW  228   0.922   0.503   0.899
   70SOL    HW1  229   0.897   0.494   0.803
   70SOL    HW2  230   0.970   0.421   0.930
   71SOL     OW  231   0.539   0.064   0.512
   71SOL    HW1  232   0.458   0.065   0.570
   71SOL    HW2  233   0.542   0.147   0.457
   72SOL     OW  234   1.434   1.188   0.041
   72SOL    HW1  235   1.466   1.112   0.098
   72SOL    HW2  236   1.342   1.215   0.071
   73SOL     OW  237   0.297   0.035   0.171
   73SOL    HW1  238   0.346   0.119   0.150
   73SOL    HW2  239   0.359  -0.030   0.216
   74SOL     OW  240   0.935   0.236   0.480
   74SOL    HW1  241   0.887   0.277   0.402
   74SOL    HW2  242   1.034   0.234   0.461
   75SOL     OW  243   1.076   0.683   1.464
   75SOL    HW1  244   0.996   0.622   1.467
   75SOL    HW2  245   1.157   0.630   1.440
   76SOL     OW  246   1.227   1.570   0.793
   76SOL    HW1  247   1.248   1.644   0.728
   76SOL    HW2  248   1.295   1.570   0.866
   77SOL     OW  249   0.459   1.152   0.741
   77SOL    HW1  250   0.388   1.125   0.806
   77SOL    HW2  251   0.433   1.124   0.648
   78SOL     OW  252   1.271   1.797   0.591
   78SOL    HW1  253   1.315   1.861   0.527
   78SOL    HW2  254   1.221   1.849   0.661
   79SOL     OW  255   1.032   0.549   0.016
   79SOL    HW1  256   0.991   0.631  -0.023
   79SOL    HW2  257   1.096   0.575   0.089
   80SOL     OW  258   0.078   0.556   1.386
   80SOL    HW1  259   0.170   0.555   1.345
   80SOL    HW2  260   0.072   0.630   1.453
   81SOL     OW  261   0.561   0.222   1.147
   81SOL    HW1  262   0.599   0.138   1.184
   81SOL    HW2  263   0.473   0.241   1.191
   82SOL     OW  264   0.866   0.454   0.642
   82SOL    HW1  265   0.834   0.526   0.580
   82SOL    HW2  266   0.890   0.373   0.589
   83SOL     OW  267   1.017   0.039   0.753
   83SOL    HW1  268   0.945   0.044   0.684
   83SOL    HW2  269   0.993  -0.030   0.822
   84SOL     OW  270   1.429   1.173   0.867
   84SOL    HW1  271   1.374   1.089   0.860
   84SOL    HW2  272   1.455   1.202   0.775
   85SOL     OW  273   1.466   0.590   0.992
   85SOL    HW1  274   1.436   0.495   0.999
   85SOL    HW2  275   1.539   0.606   1.058
   86SOL     OW  276   1.857   0.833   0.377
   86SOL    HW1  277   1.899   0.769   0.441
   86SOL    HW2  278   1.819   0.782   0.299
   87SOL     OW  279   0.488   1.385   0.174
   87SOL    HW1  280   0.401   1.370   0.221
   87SOL    HW2  281   0.471   1.411   0.079
   88SOL     OW  282   1.664   1.280   0.657
   88SOL    HW1  283   1.763   1.288   0.671
   88SOL    HW2  284   1.619   1.364   0.688
   89SOL     OW  285   1.390   0.575   0.078
   89SOL    HW1  286   1.336   0.554   0.159
   89SOL    HW2  287   1.481   0.534   0.087
   90SOL     OW  288   0.527   0.256   0.328
   90SOL    HW1  289   0.554   0.197   0.253
   90SOL    HW2  290   0.527   0.351   0.297
   91SOL     OW  291   1.064   1.347   1.340
   91SOL    HW1  292   0.984   1.324   1.395
   91SOL    HW2  293   1.147   1.321   1.389
   92SOL     OW  294   1.592   1.629   1.625
   92SOL    HW1  295   1.619   1.663   1.535
   92SOL    HW2  296   1.671   1.591   1.671
   93SOL     OW  297   1.111   1.195   1.100
   93SOL    HW1  298   1.071   1.239   1.181
   93SOL    HW2  299   1.070   1.232   1.017
   94SOL     OW  300   1.638   1.099   1.079
   94SOL    HW1  301   1.643   1.180   1.138
   94SOL    HW2  302   1.552   1.101   1.028
   95SOL     OW  303   0.915   0.089   1.402
   95SOL    HW1  304   0.940   0.069   1.307
   95SOL    HW2  305   0.987   0.145   1.444
   96SOL     OW  306   0.980   1.116   1.719
   96SOL    HW1  307   0.881   1.122   1.729
   96SOL    HW2  308   1.003   1.036   1.663
   97SOL     OW  309   0.705   1.050   0.368
   97SOL    HW1  310   0.691   1.057   0.467
   97SOL    HW2  311   0.789   0.999   0.350
   98SOL     OW  312   0.410   0.813   1.251
   98SOL    HW1  313   0.496   0.825   1.301
   98SOL    HW2  314   0.368   0.726   1.278
   99SOL     OW  315   1.274   0.386   1.262
   99SOL    HW1  316   1.295   0.460   1.326
   99SOL    HW2  317   1.185   0.403   1.219
  100SOL     OW  318   0.064   1.564   1.331
  100SOL    HW1  319   0.018   1.646   1.297
  100SOL    HW2  320   0.162   1.583   1.340
  101SOL     OW  321   0.367   1.100   0.501
  101SOL    HW1  322   0.360   1.183   0.445
  101SOL    HW2  323   0.371   1.020   0.441
  102SOL     OW  324   0.566   0.537   0.865
  102SOL    HW1  325   0.578   0.603   0.791
  102SOL    HW2  326   0.612   0.571   0.948
  103SOL     OW  327   1.252   1.348   0.388
  103SOL    HW1  328   1.302   1.425   0.428
  103SOL    HW2  329   1.157   1.350   0.420
  104SOL     OW  330   1.582   0.639   0.472
  104SOL    HW1  331   1.551   0.700   0.545
  104SOL    HW2  332   1.632   0.691   0.403
  105SOL     OW  333   0.354   1.510   1.329
  105SOL    HW1  334   0.333   1.466   1.242
  105SOL    HW2  335   0.451   1.536   1.332
  106SOL     OW  336   0.402   0.751   1.598
  106SOL    HW1  337   0.470   0.806   1.551
  106SOL    HW2  338   0.442   0.663   1.625
  107SOL     OW  339   1.587   0.779   1.670
  107SOL    HW1  340   1.495   0.817   1.665
  107SOL    HW2  341   1.647   0.826   1.605
  108SOL     OW  342   1.013   0.105   1.770
  108SOL    HW1  343   1.019   0.190   1.718
  108SOL    HW2  344   1.045   0.029   1.713
  109SOL     OW  345   0.504   0.050   1.740
  109SOL    HW1  346   0.462  -0.007   1.670
  109SOL    HW2  347   0.438   0.119   1.772
  110SOL     OW  348   0.573   0.870   1.029
  110SOL    HW1  349   0.617   0.959   1.020
  110SOL    HW2  350   0.510   0.870   1.106
  111SOL     OW  351   1.360   0.862   1.045
  111SOL    HW1  352   1.285   0.862   0.979
  111SOL    HW2  353   1.397   0.770   1.054
  112SOL     OW  354   1.209   0.525   0.275
  112SOL    HW1  355   1.222   0.441   0.329
  112SOL    HW2  356   1.180   0.599   0.335
  113SOL     OW  357   0.307   0.213   1.231
  113SOL    HW1  358   0.284   0.250   1.321
  113SOL    HW2  359   0.277   0.118   1.225
  114SOL     OW  360   0.037   1.310   1.282
  114SOL    HW1  361   0.090   1.261   1.350
  114SOL    HW2  362   0.059   1.408   1.287
  115SOL     OW  363   0.732   0.634   1.064
  115SOL    HW1  364   0.791   0.608   0.988
  115SOL    HW2  365   0.704   0.730   1.053
  116SOL     OW  366   1.728   0.935   1.854
  116SOL    HW1  367   1.682   0.928   1.765
  116SOL    HW2  368   1.666   0.979   1.920
  117SOL     OW  369   0.307   0.063   0.618
  117SOL    HW1  370   0.296   0.157   0.651
  117SOL    HW2  371   0.302   0.000   0.695
  118SOL     OW  372   1.622   0.367   0.374
  118SOL    HW1  373   1.624   0.291   0.438
  118SOL    HW2  374   1.574   0.444   0.414
  119SOL     OW  375   1.023   0.766   0.966
  119SOL    HW1  376   1.038   0.787   1.062
  119SOL    HW2  377   0.993   0.671   0.957
  120SOL     OW  378   0.980   1.573   1.700
  120SOL    HW1  379   0.960   1.617   1.612
  120SOL    HW2  380   1.019   1.482   1.684
  121SOL     OW  381   1.859   1.518   1.605
  121SOL    HW1  382   1.873   1.545   1.510
  121SOL    HW2  383   1.942   1.540   1.658
  122SOL     OW  384   0.350   0.898   1.804
  122SOL    HW1  385   0.426   0.942   1.852
  122SOL    HW2  386   0.385   0.851   1.722
  123SOL     OW  387   1.540   0.274   0.125
  123SOL    HW1  388   1.479   0.199   0.148
  123SOL    HW2  389   1.562   0.326   0.208
  124SOL     OW  390   1.303   0.838   0.042
  124SOL    HW1  391   1.337   0.745   0.057
  124SOL    HW2  392   1.321   0.865  -0.053
  125SOL     OW  393   1.068   1.333   0.849
  125SOL    HW1  394   1.075   1.249   0.794
  125SOL    HW2  395   1.130   1.402   0.813
  126SOL     OW  396   0.319   0.810   0.949
  126SOL    HW1  397   0.412   0.846   0.954
  126SOL    HW2  398   0.313   0.725   1.001
  127SOL     OW  399   0.339   0.509   1.006
  127SOL    HW1  400   0.287   0.426   0.989
  127SOL    HW2  401   0.416   0.514   0.942
  128SOL     OW  402   1.138   0.380   1.678
  128SOL    HW1  403   1.093   0.443   1.742
  128SOL    HW2  404   1.231   0.411   1.661
  129SOL     OW  405   1.160   0.207   1.477
  129SOL    HW1  406   1.160   0.271   1.554
  129SOL    HW2  407   1.188   0.255   1.394
  130SOL     OW  408   0.008   1.326   0.200
  130SOL    HW1  409  -0.085   1.347   0.169
  130SOL    HW2  410   0.018   1.227   0.213
  131SOL     OW  411   0.088   1.801   0.927
  131SOL    HW1  412   0.046   1.715   0.900
  131SOL    HW2  413   0.182   1.804   0.893
  132SOL     OW  414   0.504   1.568   0.910
  132SOL    HW1  415   0.570   1.642   0.919
  132SOL    HW2  416   0.548   1.489   0.868
  133SOL     OW  417   1.002   0.796   1.238
  133SOL    HW1  418   1.043   0.764   1.324
  133SOL    HW2  419   0.906   0.769   1.235
  134SOL     OW  420   0.040   0.544   1.114
  134SOL    HW1  421   0.125   0.511   1.073
  134SOL    HW2  422   0.053   0.559   1.212
  135SOL     OW  423   0.189   0.520   1.722
  135SOL    HW1  424   0.248   0.480   1.652
  135SOL    HW2  425   0.131   0.591   1.681
  136SOL     OW  426   1.369   0.950   1.660
  136SOL    HW1  427   1.408   1.039   1.680
  136SOL    HW2  428   1.379   0.930   1.563
  137SOL     OW  429   0.815   0.572   0.325
  137SOL    HW1  430   0.822   0.483   0.279
  137SOL    HW2  431   0.721   0.606   0.317
  138SOL     OW  432   1.657   0.604   1.206
  138SOL    HW1  433   1.619   0.535   1.268
  138SOL    HW2  434   1.739   0.568   1.162
  139SOL     OW  435   0.252   1.564   1.744
  139SOL    HW1  436   0.222   1.621   1.820
  139SOL    HW2  437   0.245   1.467   1.770
  140SOL     OW  438   0.671   0.464   1.269
  140SOL    HW1  439   0.637   0.375   1.239
  140SOL    HW2  440   0.697   0.518   1.189
  141SOL     OW  441   0.930   1.678   1.465
  141SOL    HW1  442   0.906   1.660   1.370
  141SOL    HW2  443   0.960   1.772   1.475
  142SOL     OW  444   0.473   0.500   0.191
  142SOL    HW1  445   0.534   0.580   0.195
  142SOL    HW2  446   0.378   0.531   0.198
  143SOL     OW  447   0.159   1.137   1.466
  143SOL    HW1  448   0.181   1.076   1.542
  143SOL    HW2  449   0.169   1.088   1.380
  144SOL     OW  450   1.347   1.059   1.234
  144SOL    HW1  451   1.371   0.996   1.160
  144SOL    HW2  452   1.257   1.099   1.216
  145SOL     OW  453   1.302   0.855   0.309
  145SOL    HW1  454   1.216   0.824   0.351
  145SOL    HW2  455   1.298   0.841   0.210
  146SOL     OW  456   1.759   1.747   1.154
  146SOL    HW1  457   1.820   1.777   1.081
  146SOL    HW2  458   1.721   1.658   1.132
  147SOL     OW  459   0.083   1.258   1.022
  147SOL    HW1  460   0.078   1.257   1.122
  147SOL    HW2  461   0.000   1.217   0.984
  148SOL     OW  462   0.688   1.662   1.716
  148SOL    HW1  463   0.632   1.743   1.725
  148SOL    HW2  464   0.740   1.666   1.630
  149SOL     OW  465   0.903   0.086   0.133
  149SOL    HW1  466   0.954   0.087   0.047
  149SOL    HW2  467   0.959   0.044   0.204
  150SOL     OW  468   1.726   0.135   0.523
  150SOL    HW1  469   1.799   0.118   0.456
  150SOL    HW2  470   1.695   0.048   0.561
  151SOL     OW  471   1.388   1.573   0.477
  151SOL    HW1  472   1.455   1.585   0.403
  151SOL    HW2  473   1.348   1.662   0.500
  152SOL     OW  474   0.130   1.794   1.851
  152SOL    HW1  475   0.089   1.720   1.904
  152SOL    HW2  476   0.194   1.845   1.909
  153SOL     OW  477   1.280   0.927   0.672
  153SOL    HW1  478   1.340   0.846   0.674
  153SOL    HW2  479   1.320   0.996   0.612
  154SOL     OW  480   0.830   1.273   1.422
  154SOL    HW1  481   0.825   1.306   1.517
  154SOL    HW2  482   0.744   1.292   1.376
  155SOL     OW  483   0.672   1.616   0.154
  155SOL    HW1  484   0.681   1.626   0.055
  155SOL    HW2  485   0.632   1.527   0.175
  156SOL     OW  486   1.650   1.720   1.394
  156SOL    HW1  487   1.703   1.730   1.310
  156SOL    HW2  488   1.623   1.810   1.428
  157SOL     OW  489   1.841   0.175   0.963
  157SOL    HW1  490   1.880   0.090   0.927
  157SOL    HW2  491   1.743   0.177   0.944
  158SOL     OW  492   0.263   0.326   0.720
  158SOL    HW1  493   0.184   0.377   0.686
  158SOL    HW2  494   0.254   0.311   0.818
  159SOL     OW  495   1.194   1.612   0.031
  159SOL    HW1  496   1.200   1.519   0.068
  159SOL    HW2  497   1.135   1.612  -0.049
  160SOL     OW  498   0.822   1.002   1.372
  160SOL    HW1  499   0.862   1.001   1.280
  160SOL    HW2  500   0.832   1.094   1.412
  161SOL     OW  501   0.916   0.910   0.291
  161SOL    HW1  502   0.979   0.948   0.223
  161SOL    HW2  503   0.956   0.827   0.330
  162SOL     OW  504   1.504   1.607   0.044
  162SOL    HW1  505   1.412   1.644   0.051
  162SOL    HW2  506   1.542   1.627  -0.046
  163SOL     OW  507   0.372   1.288   1.490
  163SOL    HW1  508   0.359   1.381   1.456
  163SOL    HW2  509   0.288   1.236   1.477
  164SOL     OW  510   1.614   1.292   1.289
  164SOL    HW1  511   1.674   1.295   1.369
  164SOL    HW2  512   1.539   1.356   1.302
  165SOL     OW  513   1.039   1.098   0.696
  165SOL    HW1  514   0.969   1.051   0.750
  165SOL    HW2  515   1.098   1.030   0.653
  166SOL     OW  516   1.014   0.236   0.971
  166SOL    HW1  517   1.006   0.200   0.878
  166SOL    HW2  518   1.012   0.160   1.036
  167SOL     OW  519   0.590   1.487   0.491
  167SOL    HW1  520   0.632   1.429   0.421
  167SOL    HW2  521   0.546   1.566   0.447
  168SOL     OW  522   1.709   0.385   1.381
  168SOL    HW1  523   1.782   0.454   1.385
  168SOL    HW2  524   1.737   0.310   1.322
  169SOL     OW  525   0.255   1.348   0.290
  169SOL    HW1  526   0.159   1.349   0.263
  169SOL    HW2  527   0.267   1.401   0.374
  170SOL     OW  528   0.105   1.013   1.726
  170SOL    HW1  529   0.028   0.980   1.780
  170SOL    HW2  530   0.190   0.983   1.768
  171SOL     OW  531   0.672   0.203   1.489
  171SOL    HW1  532   0.762   0.187   1.449
  171SOL    HW2  533   0.680   0.208   1.588
  172SOL     OW  534   0.075   0.345   0.033
  172SOL    HW1  535  -0.017   0.317   0.004
  172SOL    HW2  536   0.106   0.422  -0.023
  173SOL     OW  537   1.440   0.856   1.398
  173SOL    HW1  538   1.383   0.908   1.335
  173SOL    HW2  539   1.536   0.868   1.374
  174SOL     OW  540   0.072   0.166   0.318
  174SOL    HW1  541   0.055   0.249   0.264
  174SOL    HW2  542   0.162   0.129   0.296
  175SOL     OW  543   1.183   1.335   0.119
  175SOL    HW1  544   1.084   1.324   0.121
  175SOL    HW2  545   1.217   1.350   0.212
  176SOL     OW  546   0.613   0.842   1.431
  176SOL    HW1  547   0.669   0.923   1.414
  176SOL    HW2  548   0.672   0.762   1.434
  177SOL     OW  549   1.493   1.767   0.959
  177SOL    HW1  550   1.526   1.831   0.890
  177SOL    HW2  551   1.559   1.761   1.034
  178SOL     OW  552   0.716   0.565   1.708
  178SOL    HW1  553   0.735   0.630   1.782
  178SOL    HW2  554   0.776   0.485   1.717
  179SOL     OW  555   0.390   1.741   1.560
  179SOL    HW1  556   0.299   1.782   1.558
  179SOL    HW2  557   0.383   1.647   1.592
  180SOL     OW  558   1.674   0.883   1.254
  180SOL    HW1  559   1.647   0.794   1.217
  180SOL    HW2  560   1.675   0.951   1.181
  181SOL     OW  561   1.225   0.325   0.449
  181SOL    HW1  562   1.290   0.251   0.438
  181SOL    HW2  563   1.245   0.375   0.533
  182SOL     OW  564   0.594   0.745   0.652
  182SOL    HW1  565   0.644   0.830   0.633
  182SOL    HW2  566   0.506   0.747   0.604
  183SOL     OW  567   1.777   0.342   1.642
  183SOL    HW1  568   1.760   0.373   1.548
  183SOL    HW2  569   1.693   0.305   1.680
  184SOL     OW  570   1.730   0.934   1.517
  184SOL    HW1  571   1.768   1.025   1.532
  184SOL    HW2  572   1.722   0.917   1.418
  185SOL     OW  573   0.859   1.374   0.016
  185SOL    HW1  574   0.813   1.389   0.104
  185SOL    HW2  575   0.903   1.459  -0.014
  186SOL     OW  576   0.661   1.790   0.953
  186SOL    HW1  577   0.615   1.878   0.940
  186SOL    HW2  578   0.760   1.802   0.946
  187SOL     OW  579   0.859   0.956   0.861
  187SOL    HW1  580   0.913   0.887   0.909
  187SOL    HW2  581   0.827   1.025   0.927
  188SOL     OW  582   1.083   0.984   0.087
  188SOL    HW1  583   1.060   1.037   0.005
  188SOL    HW2  584   1.164   0.928   0.068
  189SOL     OW  585   1.861   1.569   0.851
  189SOL    HW1  586   1.790   1.557   0.781
  189SOL    HW2  587   1.862   1.490   0.911
  190SOL     OW  588   0.221   1.314   1.844
  190SOL    HW1  589   0.156   1.241   1.823
  190SOL    HW2  590   0.225   1.328   1.942
  191SOL     OW  591   0.079   1.240   0.653
  191SOL    HW1  592   0.078   1.193   0.741
  191SOL    HW2  593   0.161   1.212   0.602
  192SOL     OW  594   0.672   1.391   1.624
  192SOL    HW1  595   0.594   1.341   1.662
  192SOL    HW2  596   0.669   1.486   1.655
  193SOL     OW  597   1.824   0.192   1.227
  193SOL    HW1  598   1.820   0.102   1.271
  193SOL    HW2  599   1.827   0.181   1.128
  194SOL     OW  600   0.428   0.424   0.520
  194SOL    HW1  601   0.458   0.352   0.458
  194SOL    HW2  602   0.389   0.384   0.603
  195SOL     OW  603   1.705   1.487   1.104
  195SOL    HW1  604   1.612   1.462   1.077
  195SOL    HW2  605   1.731   1.437   1.186
  196SOL     OW  606   0.317   0.547   1.280
  196SOL    HW1  607   0.355   0.488   1.352
  196SOL    HW2  608   0.357   0.521   1.192
  197SOL     OW  609   0.812   1.586   0.687
  197SOL    HW1  610   0.844   1.596   0.593
  197SOL    HW2  611   0.733   1.524   0.689
  198SOL     OW  612   1.424   0.214   1.112
  198SOL    HW1  613   1.476   0.149   1.167
  198SOL    HW2  614   1.375   0.277   1.173
  199SOL     OW  615   1.001   0.034   1.154
  199SOL    HW1  616   0.938  -0.038   1.123
  199SOL    HW2  617   1.094  -0.002   1.154
  200SOL     OW  618   0.770   1.330   0.301
  200SOL    HW1  619   0.724   1.243   0.318
  200SOL    HW2  620   0.861   1.327   0.342
  201SOL     OW  621   0.618   1.567   1.284
  201SOL    HW1  622   0.613   1.649   1.341
  201SOL    HW2  623   0.707   1.564   1.239
  202SOL     OW  624   1.352   0.052   0.168
  202SOL    HW1  625   1.387   0.011   0.084
  202SOL    HW2  626   1.262   0.014   0.188
  203SOL     OW  627   1.300   0.453   0.691
  203SOL    HW1  628   1.241   0.533   0.695
  203SOL    HW2  629   1.315   0.418   0.784
  204SOL     OW  630   1.593   0.221   0.882
  204SOL    HW1  631   1.509   0.220   0.936
  204SOL    HW2  632   1.595   0.304   0.826
  205SOL     OW  633   0.039   1.077   0.300
  205SOL    HW1  634   0.138   1.066   0.291
  205SOL    HW2  635  -0.001   0.991   0.332
  206SOL     OW  636   0.875   1.646   0.337
  206SOL    HW1  637   0.798   1.611   0.283
  206SOL    HW2  638   0.843   1.717   0.399
  207SOL     OW  639   0.230   0.628   1.975
  207SOL    HW1  640   0.137   0.626   2.012
  207SOL    HW2  641   0.231   0.589   1.883
  208SOL     OW  642   0.225   0.275   2.858
  208SOL    HW1  643   0.260   0.258   2.950
  208SOL    HW2  644   0.137   0.230   2.846
  209SOL     OW  645   0.019   0.368   2.509
  209SOL    HW1  646  -0.063   0.411   2.548
  209SOL    HW2  647  -0.009   0.295   2.446
  210SOL     OW  648   1.555   1.511   2.565
  210SOL    HW1  649   1.498   1.495   2.646
  210SOL    HW2  650   1.496   1.521   2.485
  211SOL     OW  651   1.135   0.703   2.579
  211SOL    HW1  652   1.192   0.781   2.554
  211SOL    HW2  653   1.075   0.729   2.655
  212SOL     OW  654   1.755   0.607   2.093
  212SOL    HW1  655   1.743   0.594   1.994
  212SOL    HW2  656   1.725   0.526   2.142
  213SOL     OW  657   0.768   1.144   2.885
  213SOL    HW1  658   0.690   1.161   2.945
  213SOL    HW2  659   0.802   1.231   2.849
  214SOL     OW  660   0.685   1.012   2.527
  214SOL    HW1  661   0.754   0.996   2.597
  214SOL    HW2  662   0.612   1.069   2.565
  215SOL     OW  663   1.603   0.447   2.599
  215SOL    HW1  664   1.529   0.493   2.549
  215SOL    HW2  665   1.654   0.515   2.652
  216SOL     OW  666   0.231   1.713   2.345
  216SOL    HW1  667   0.265   1.790   2.399
  216SOL    HW2  668   0.275   1.713   2.255
  217SOL     OW  669   0.230   1.434   2.400
  217SOL    HW1  670   0.204   1.530   2.400
  217SOL    HW2  671   0.159   1.380   2.445
  218SOL     OW  672   0.240   1.091   2.748
  218SOL    HW1  673   0.254   1.007   2.800
  218SOL    HW2  674   0.185   1.155   2.803
  219SOL     OW  675   0.606   0.964   1.985
  219SOL    HW1  676   0.613   1.048   1.931
  219SOL    HW2  677   0.652   0.977   2.073
  220SOL     OW  678   0.122   0.643   2.425
  220SOL    HW1  679   0.077   0.555   2.442
  220SOL    HW2  680   0.121   0.697   2.509
  221SOL     OW  681   1.842   1.767   2.221
  221SOL    HW1  682   1.896   1.738   2.301
  221SOL    HW2  683   1.872   1.857   2.192
  222SOL     OW  684   0.027   1.596   1.979
  222SOL    HW1  685   0.008   1.500   2.000
  222SOL    HW2  686  -0.006   1.654   2.054
  223SOL     OW  687   1.689   0.922   2.474
  223SOL    HW1  688   1.784   0.893   2.482
  223SOL    HW2  689   1.681   0.987   2.399
  224SOL     OW  690   1.641   1.108   2.294
  224SOL    HW1  691   1.727   1.110   2.242
  224SOL    HW2  692   1.655   1.155   2.382
  225SOL     OW  693   0.613   1.365   2.588
  225SOL    HW1  694   0.564   1.278   2.597
  225SOL    HW2  695   0.590   1.408   2.501
  226SOL     OW  696   0.809   0.004   2.364
  226SOL    HW1  697   0.849   0.095   2.355
  226SOL    HW2  698   0.709   0.012   2.370
  227SOL     OW  699   1.525   0.999   2.052
  227SOL    HW1  700   1.462   0.923   2.065
  227SOL    HW2  701   1.573   1.017   2.138
  228SOL     OW  702   1.466   1.417   2.815
  228SOL    HW1  703   1.407   1.423   2.895
  228SOL    HW2  704   1.451   1.329   2.769
  229SOL     OW  705   1.667   1.714   2.434
  229SOL    HW1  706   1.626   1.691   2.346
  229SOL    HW2  707   1.649   1.640   2.499
  230SOL     OW  708   0.598   0.729   2.132
  230SOL    HW1  709   0.622   0.798   2.064
  230SOL    HW2  710   0.520   0.762   2.186
  231SOL     OW  711   1.281   0.345   2.806
  231SOL    HW1  712   1.195   0.295   2.793
  231SOL    HW2  713   1.343   0.291   2.862
  232SOL     OW  714   1.576   1.662   2.169
  232SOL    HW1  715   1.665   1.708   2.172
  232SOL    HW2  716   1.555   1.638   2.074
  233SOL     OW  717   1.041   0.701   2.291
  233SOL    HW1  718   1.067   0.697   2.387
  233SOL    HW2  719   0.956   0.650   2.277
  234SOL     OW  720   0.076   0.811   2.651
  234SOL    HW1  721   0.175   0.799   2.660
  234SOL    HW2  722   0.052   0.906   2.672
  235SOL     OW  723   0.865   0.348   2.057
  235SOL    HW1  724   0.924   0.411   2.008
  235SOL    HW2  725   0.884   0.254   2.028
  236SOL     OW  726   1.362   1.144   2.407
  236SOL    HW1  727   1.445   1.115   2.359
  236SOL    HW2  728   1.313   1.211   2.351
  237SOL     OW  729   1.008   1.456   2.339
  237SOL    HW1  730   0.962   1.528   2.287
  237SOL    HW2  731   1.004   1.476   2.437
  238SOL     OW  732   0.351   1.801   2.715
  238SOL    HW1  733   0.401   1.715   2.721
  238SOL    HW2  734   0.416   1.878   2.712
  239SOL     OW  735   1.795   1.066   2.735
  239SOL    HW1  736   1.733   1.051   2.659
  239SOL    HW2  737   1.743   1.077   2.820
  240SOL     OW  738   0.321   0.943   2.104
  240SOL    HW1  739   0.403   0.982   2.062
  240SOL    HW2  740   0.294   0.861   2.055
  241SOL     OW  741   1.458   0.735   2.590
  241SOL    HW1  742   1.453   0.670   2.665
  241SOL    HW2  743   1.538   0.794   2.603
  242SOL     OW  744   1.111   1.776   2.099
  242SOL    HW1  745   1.051   1.714   2.149
  242SOL    HW2  746   1.142   1.732   2.014
  243SOL     OW  747   1.632   1.377   1.943
  243SOL    HW1  748   1.600   1.471   1.933
  243SOL    HW2  749   1.556   1.314   1.931
  244SOL     OW  750   0.464   1.743   2.185
  244SOL    HW1  751   0.497   1.782   2.271
  244SOL    HW2  752   0.540   1.736   2.120
  245SOL     OW  753   1.400   0.107   2.288
  245SOL    HW1  754   1.376   0.070   2.198
  245SOL    HW2  755   1.499   0.123   2.292
  246SOL     OW  756   0.249   1.785   3.103
  246SOL    HW1  757   0.306   1.720   3.153
  246SOL    HW2  758   0.233   1.752   3.010
  247SOL     OW  759   0.940   1.698   2.766
  247SOL    HW1  760   1.020   1.641   2.787
  247SOL    HW2  761   0.891   1.658   2.689
  248SOL     OW  762   0.382   0.700   2.342
  248SOL    HW1  763   0.427   0.610   2.339
  248SOL    HW2  764   0.288   0.689   2.375
  249SOL     OW  765   0.614   0.122   1.979
  249SOL    HW1  766   0.712   0.100   1.986
  249SOL    HW2  767   0.583   0.105   1.886
  250SOL     OW  768   0.922   0.503   2.761
  250SOL    HW1  769   0.897   0.494   2.665
  250SOL    HW2  770   0.970   0.421   2.792
  251SOL     OW  771   0.539   0.064   2.374
  251SOL    HW1  772   0.458   0.065   2.432
  251SOL    HW2  773   0.542   0.147   2.319
  252SOL     OW  774   0.297   0.035   2.033
  252SOL    HW1  775   0.346   0.119   2.012
  252SOL    HW2  776   0.359  -0.030   2.078
  253SOL     OW  777   0.935   0.236   2.342
  253SOL    HW1  778   0.887   0.277   2.264
  253SOL    HW2  779   1.034   0.234   2.323
  254SOL     OW  780   1.227   1.570   2.655
  254SOL    HW1  781   1.248   1.644   2.590
  254SOL    HW2  782   1.295   1.570   2.728
  255SOL     OW  783   0.459   1.152   2.603
  255SOL    HW1  784   0.388   1.125   2.668
  255SOL    HW2  785   0.433   1.124   2.510
  256SOL     OW  786   1.271   1.797   2.453
  256SOL    HW1  787   1.315   1.861   2.389
  256SOL    HW2  788   1.221   1.849   2.523
  257SOL     OW  789   1.032   0.549   1.878
  257SOL    HW1  790   0.991   0.631   1.839
  257SOL    HW2  791   1.096   0.575   1.951
  258SOL     OW  792   0.866   0.454   2.504
  258SOL    HW1  793   0.834   0.526   2.442
  258SOL    HW2  794   0.890   0.373   2.451
  259SOL     OW  795   1.017   0.039   2.615
  259SOL    HW1  796   0.945   0.044   2.546
  259SOL    HW2  797   0.993  -0.030   2.684
  260SOL     OW  798   1.429   1.173   2.729
  260SOL    HW1  799   1.374   1.089   2.722
  260SOL    HW2  800   1.455   1.202   2.637
  261SOL     OW  801   1.857   0.833   2.239
  261SOL    HW1  802   1.899   0.769   2.303
  261SOL    HW2  803   1.819   0.782   2.161
  262SOL     OW  804   0.488   1.385   2.036
  262SOL    HW1  805   0.401   1.370   2.083
  262SOL    HW2  806   0.471   1.411   1.941
  263SOL     OW  807   1.664   1.280   2.519
  263SOL    HW1  808   1.763   1.288   2.533
  263SOL    HW2  809   1.619   1.364   2.550
  264SOL     OW  810   1.390   0.575   1.940
  264SOL    HW1  811   1.336   0.554   2.021
  264SOL    HW2  812   1.481   0.534   1.949
  265SOL     OW  813   0.527   0.256   2.190
  265SOL    HW1  814   0.554   0.197   2.115
  265SOL    HW2  815   0.527   0.351   2.159
  266SOL     OW  816   1.638   1.099   2.941
  266SOL    HW1  817   1.643   1.180   3.000
  266SOL    HW2  818   1.552   1.101   2.890
  267SOL     OW  819   0.705   1.050   2.230
  267SOL    HW1  820   0.691   1.057   2.329
  267SOL    HW2  821   0.789   0.999   2.212
  268SOL     OW  822   0.367   1.100   2.363
  268SOL    HW1  823   0.360   1.183   2.307
  268SOL    HW2  824   0.371   1.020   2.303
  269SOL     OW  825   0.566   0.537   2.727
  269SOL    HW1  826   0.578   0.603   2.653
  269SOL    HW2  827   0.612   0.571   2.810
  270SOL     OW  828   1.252   1.348   2.250
  270SOL    HW1  829   1.302   1.425   2.290
  270SOL    HW2  830   1.157   1.350   2.282
  271SOL     OW  831   1.582   0.639   2.334
  271SOL    HW1  832   1.551   0.700   2.407
  271SOL    HW2  833   1.632   0.691   2.265
  272SOL     OW  834   1.209   0.525   2.137
  272SOL    HW1  835   1.222   0.441   2.191
  272SOL    HW2  836   1.180   0.599   2.197
  273SOL     OW  837   0.732   0.634   2.926
  273SOL    HW1  838   0.791   0.608   2.850
  273SOL    HW2  839   0.704   0.730   2.915
  274SOL     OW  840   0.307   0.063   2.480
  274SOL    HW1  841   0.296   0.157   2.513
  274SOL    HW2  842   0.302   0.000   2.557
  275SOL     OW  843   1.622   0.367   2.236
  275SOL    HW1  844   1.624   0.291   2.300
  275SOL    HW2  845   1.574   0.444   2.276
  276SOL     OW  846   1.540   0.274   1.987
  276SOL    HW1  847   1.479   0.199   2.010
  276SOL    HW2  848   1.562   0.326   2.070
  277SOL     OW  849   1.303   0.838   1.904
  277SOL    HW1  850   1.337   0.745   1.919
  277SOL    HW2  851   1.321   0.865   1.809
  278SOL     OW  852   1.068   1.333   2.711
  278SOL    HW1  853   1.075   1.249   2.656
  278SOL    HW2  854   1.130   1.402   2.675
  279SOL     OW  855   0.319   0.810   2.811
  279SOL    HW1  856   0.412   0.846   2.816
  279SOL    HW2  857   0.313   0.725   2.863
  280SOL     OW  858   0.008   1.326   2.062
  280SOL    HW1  859  -0.085   1.347   2.031
  280SOL    HW2  860   0.018   1.227   2.075
  281SOL     OW  861   0.088   1.801   2.789
  281SOL    HW1  862   0.046   1.715   2.762
  281SOL    HW2  863   0.182   1.804   2.755
  282SOL     OW  864   0.504   1.568   2.772
  282SOL    HW1  865   0.570   1.642   2.781
  282SOL    HW2  866   0.548   1.489   2.730
  283SOL     OW  867   0.815   0.572   2.187
  283SOL    HW1  868   0.822   0.483   2.141
  283SOL    HW2  869   0.721   0.606   2.179
  284SOL     OW  870   0.671   0.464   3.131
  284SOL    HW1  871   0.637   0.375   3.101
  284SOL    HW2  872   0.697   0.518   3.051
  285SOL     OW  873   0.473   0.500   2.053
  285SOL    HW1  874   0.534   0.580   2.057
  285SOL    HW2  875   0.378   0.531   2.060
  286SOL     OW  876   1.347   1.059   3.096
  286SOL    HW1  877   1.371   0.996   3.022
  286SOL    HW2  878   1.257   1.099   3.078
  287SOL     OW  879   1.302   0.855   2.171
  287SOL    HW1  880   1.216   0.824   2.213
  287SOL    HW2  881   1.298   0.841   2.072
  288SOL     OW  882   1.759   1.747   3.016
  288SOL    HW1  883   1.820   1.777   2.943
  288SOL    HW2  884   1.721   1.658   2.994
  289SOL     OW  885   0.083   1.258   2.884
  289SOL    HW1  886   0.078   1.257   2.984
  289SOL    HW2  887   0.000   1.217   2.846
  290SOL     OW  888   1.726   0.135   2.385
  290SOL    HW1  889   1.799   0.118   2.318
  290SOL    HW2  890   1.695   0.048   2.423
  291SOL     OW  891   1.388   1.573   2.339
  291SOL    HW1  892   1.455   1.585   2.265
  291SOL    HW2  893   1.348   1.662   2.362
  292SOL     OW  894   1.280   0.927   2.534
  292SOL    HW1  895   1.340   0.846   2.536
  292SOL    HW2  896   1.320   0.996   2.474
  293SOL     OW  897   0.672   1.616   2.016
  293SOL    HW1  898   0.681   1.626   1.917
  293SOL    HW2  899   0.632   1.527   2.037
  294SOL     OW  900   1.841   0.175   2.825
  294SOL    HW1  901   1.880   0.090   2.789
  294SOL    HW2  902   1.743   0.177   2.806
  295SOL     OW  903   0.263   0.326   2.582
  295SOL    HW1  904   0.184   0.377   2.548
  295SOL    HW2  905   0.254   0.311   2.680
  296SOL     OW  906   1.194   1.612   1.893
  296SOL    HW1  907   1.200   1.519   1.930
  296SOL    HW2  908   1.135   1.612   1.813
  297SOL     OW  909   0.916   0.910   2.153
  297SOL    HW1  910   0.979   0.948   2.085
  297SOL    HW2  911   0.956   0.827   2.192
  298SOL     OW  912   1.504   1.607   1.906
  298SOL    HW1  913   1.412   1.644   1.913
  298SOL    HW2  914   1.542   1.627   1.816
  299SOL     OW  915   1.614   1.292   3.151
  299SOL    HW1  916   1.674   1.295   3.231
  299SOL    HW2  917   1.539   1.356   3.164
  300SOL     OW  918   1.039   1.098   2.558
  300SOL    HW1  919   0.969   1.051   2.612
  300SOL    HW2  920   1.098   1.030   2.515
  301SOL     OW  921   0.590   1.487   2.353
  301SOL    HW1  922   0.632   1.429   2.283
  301SOL    HW2  923   0.546   1.566   2.309
  302SOL     OW  924   0.255   1.348   2.152
  302SOL    HW1  925   0.159   1.349   2.125
  302SOL    HW2  926   0.267   1.401   2.236
  303SOL     OW  927   0.075   0.345   1.895
  303SOL    HW1  928  -0.017   0.317   1.866
  303SOL    HW2  929   0.106   0.422   1.839
  304SOL     OW  930   0.072   0.166   2.180
  304SOL    HW1  931   0.055   0.249   2.126
  304SOL    HW2  932   0.162   0.129   2.158
  305SOL     OW  933   1.183   1.335   1.981
  305SOL    HW1  934   1.084   1.324   1.983
  305SOL    HW2  935   1.217   1.350   2.074
  306SOL     OW  936   1.674   0.883   3.116
  306SOL    HW1  937   1.647   0.794   3.079
  306SOL    HW2  938   1.675   0.951   3.043
  307SOL     OW  939   1.225   0.325   2.311
  307SOL    HW1  940   1.290   0.251   2.300
  307SOL    HW2  941   1.245   0.375   2.395
  308SOL     OW  942   0.594   0.745   2.514
  308SOL    HW1  943   0.644   0.830   2.495
  308SOL    HW2  944   0.506   0.747   2.466
  309SOL     OW  945   0.859   1.374   1.878
  309SOL    HW1  946   0.813   1.389   1.966
  309SOL    HW2  947   0.903   1.459   1.848
  310SOL     OW  948   0.661   1.790   2.815
  310SOL    HW1  949   0.615   1.878   2.802
  310SOL    HW2  950   0.760   1.802   2.808
  311SOL     OW  951   0.859   0.956   2.723
  311SOL    HW1  952   0.913   0.887   2.771
  311SOL    HW2  953   0.827   1.025   2.789
  312SOL     OW  954   1.083   0.984   1.949
  312SOL    HW1  955   1.060   1.037   1.867
  312SOL    HW2  956   1.164   0.928   1.930
  313SOL     OW  957   1.861   1.569   2.713
  313SOL    HW1  958   1.790   1.557   2.643
  313SOL    HW2  959   1.862   1.490   2.773
  314SOL     OW  960   0.079   1.240   2.515
  314SOL    HW1  961   0.078   1.193   2.603
  314SOL    HW2  962   0.161   1.212   2.464
  315SOL     OW  963   1.824   0.192   3.089
  315SOL    HW1  964   1.820   0.102   3.133
  315SOL    HW2  965   1.827   0.181   2.990
  316SOL     OW  966   0.428   0.424   2.382
  316SOL    HW1  967   0.458   0.352   2.320
  316SOL    HW2  968   0.389   0.384   2.465
  317SOL     OW  969   0.812   1.586   2.549
  317SOL    HW1  970   0.844   1.596   2.455
  317SOL    HW2  971   0.733   1.524   2.551
  318SOL     OW  972   0.770   1.330   2.163
  318SOL    HW1  973   0.724   1.243   2.180
  318SOL    HW2  974   0.861   1.327   2.204
  319SOL     OW  975   1.352   0.052   2.030
  319SOL    HW1  976   1.387   0.011   1.946
  319SOL    HW2  977   1.262   0.014   2.050
  320SOL     OW  978   1.300   0.453   2.553
  320SOL    HW1  979   1.241   0.533   2.557
  320SOL    HW2  980   1.315   0.418   2.646
  321SOL     OW  981   1.593   0.221   2.744
  321SOL    HW1  982   1.509   0.220   2.798
  321SOL    HW2  983   1.595   0.304   2.688
  322SOL     OW  984   0.039   1.077   2.162
  322SOL    HW1  985   0.138   1.066   2.153
  322SOL    HW2  986  -0.001   0.991   2.194
  323SOL     OW  987   0.875   1.646   2.199
  323SOL    HW1  988   0.798   1.611   2.145
  323SOL    HW2  989   0.843   1.717   2.261
  324SOL     OW  990   0.230   2.490   0.113
  324SOL    HW1  991   0.137   2.488   0.150
  324SOL    HW2  992   0.231   2.451   0.021
  325SOL     OW  993   0.225   2.137   0.996
  325SOL    HW1  994   0.260   2.120   1.088
  325SOL    HW2  995   0.137   2.092   0.984
  326SOL     OW  996   0.019   2.230   0.647
  326SOL    HW1  997  -0.063   2.273   0.686
  326SOL    HW2  998  -0.009   2.157   0.584
  327SOL     OW  999   1.135   2.565   0.717
  327SOL    HW1 1000   1.192   2.643   0.692
  327SOL    HW2 1001   1.075   2.591   0.793
  328SOL     OW 1002   1.755   2.469   0.231
  328SOL    HW1 1003   1.743   2.456   0.132
  328SOL    HW2 1004   1.725   2.388   0.280
  329SOL     OW 1005   0.768   3.006   1.023
  329SOL    HW1 1006   0.690   3.023   1.083
  329SOL    HW2 1007   0.802   3.093   0.987
  330SOL     OW 1008   0.850   2.660   1.823
  330SOL    HW1 1009   0.846   2.736   1.888
  330SOL    HW2 1010   0.872   2.696   1.732
  331SOL     OW 1011   0.685   2.874   0.665
  331SOL    HW1 1012   0.754   2.858   0.735
  331SOL    HW2 1013   0.612   2.931   0.703
  332SOL     OW 1014   0.438   2.254   1.499
  332SOL    HW1 1015   0.520   2.198   1.508
  332SOL    HW2 1016   0.357   2.196   1.503
  333SOL     OW 1017   1.603   2.309   0.737
  333SOL    HW1 1018   1.529   2.355   0.687
  333SOL    HW2 1019   1.654   2.377   0.790
  334SOL     OW 1020   1.594   1.976   1.480
  334SOL    HW1 1021   1.576   2.043   1.408
  334SOL    HW2 1022   1.591   2.022   1.569
  335SOL     OW 1023   0.122   2.505   0.563
  335SOL    HW1 1024   0.077   2.417   0.580
  335SOL    HW2 1025   0.121   2.559   0.647
  336SOL     OW 1026   0.113   2.599   1.597
  336SOL    HW1 1027   0.201   2.586   1.642
  336SOL    HW2 1028   0.100   2.696   1.575
  337SOL     OW 1029   0.809   1.866   0.502
  337SOL    HW1 1030   0.849   1.957   0.493
  337SOL    HW2 1031   0.709   1.874   0.508
  338SOL     OW 1032   0.197   2.838   1.264
  338SOL    HW1 1033   0.286   2.793   1.250
  338SOL    HW2 1034   0.124   2.773   1.245
  339SOL     OW 1035   1.525   2.861   0.190
  339SOL    HW1 1036   1.462   2.785   0.203
  339SOL    HW2 1037   1.573   2.879   0.276
  340SOL     OW 1038   0.317   2.113   1.801
  340SOL    HW1 1039   0.388   2.184   1.807
  340SOL    HW2 1040   0.229   2.152   1.829
  341SOL     OW 1041   0.598   2.591   0.270
  341SOL    HW1 1042   0.622   2.660   0.202
  341SOL    HW2 1043   0.520   2.624   0.324
  342SOL     OW 1044   1.281   2.207   0.944
  342SOL    HW1 1045   1.195   2.157   0.931
  342SOL    HW2 1046   1.343   2.153   1.000
  343SOL     OW 1047   0.807   2.467   1.465
  343SOL    HW1 1048   0.760   2.464   1.554
  343SOL    HW2 1049   0.756   2.412   1.399
  344SOL     OW 1050   1.394   2.331   1.674
  344SOL    HW1 1051   1.374   2.374   1.762
  344SOL    HW2 1052   1.472   2.269   1.683
  345SOL     OW 1053   0.973   2.752   1.572
  345SOL    HW1 1054   1.019   2.668   1.543
  345SOL    HW2 1055   0.917   2.786   1.497
  346SOL     OW 1056   0.991   2.272   1.242
  346SOL    HW1 1057   0.914   2.306   1.296
  346SOL    HW2 1058   0.957   2.221   1.163
  347SOL     OW 1059   1.041   2.563   0.429
  347SOL    HW1 1060   1.067   2.559   0.525
  347SOL    HW2 1061   0.956   2.512   0.415
  348SOL     OW 1062   0.076   2.673   0.789
  348SOL    HW1 1063   0.175   2.661   0.798
  348SOL    HW2 1064   0.052   2.768   0.810
  349SOL     OW 1065   0.865   2.210   0.195
  349SOL    HW1 1066   0.924   2.273   0.146
  349SOL    HW2 1067   0.884   2.116   0.166
  350SOL     OW 1068   1.719   2.447   1.831
  350SOL    HW1 1069   1.693   2.536   1.795
  350SOL    HW2 1070   1.717   2.379   1.758
  351SOL     OW 1071   0.550   2.058   0.885
  351SOL    HW1 1072   0.545   2.053   0.985
  351SOL    HW2 1073   0.552   2.154   0.856
  352SOL     OW 1074   1.458   2.597   0.728
  352SOL    HW1 1075   1.453   2.532   0.803
  352SOL    HW2 1076   1.538   2.656   0.741
  353SOL     OW 1077   0.202   2.147   1.498
  353SOL    HW1 1078   0.122   2.207   1.485
  353SOL    HW2 1079   0.192   2.098   1.584
  354SOL     OW 1080   1.400   1.969   0.426
  354SOL    HW1 1081   1.376   1.932   0.336
  354SOL    HW2 1082   1.499   1.985   0.430
  355SOL     OW 1083   0.382   2.562   0.480
  355SOL    HW1 1084   0.427   2.472   0.477
  355SOL    HW2 1085   0.288   2.551   0.513
  356SOL     OW 1086   1.547   2.084   1.729
  356SOL    HW1 1087   1.542   2.121   1.821
  356SOL    HW2 1088   1.475   2.015   1.717
  357SOL     OW 1089   0.614   1.984   0.117
  357SOL    HW1 1090   0.712   1.962   0.124
  357SOL    HW2 1091   0.583   1.967   0.024
  358SOL     OW 1092   0.781   2.126   1.749
  358SOL    HW1 1093   0.848   2.065   1.792
  358SOL    HW2 1094   0.708   2.145   1.814
  359SOL     OW 1095   1.351   2.452   1.433
  359SOL    HW1 1096   1.379   2.409   1.518
  359SOL    HW2 1097   1.376   2.548   1.434
  360SOL     OW 1098   0.922   2.365   0.899
  360SOL    HW1 1099   0.897   2.356   0.803
  360SOL    HW2 1100   0.970   2.283   0.930
  361SOL     OW 1101   0.539   1.926   0.512
  361SOL    HW1 1102   0.458   1.927   0.570
  361SOL    HW2 1103   0.542   2.009   0.457
  362SOL     OW 1104   0.935   2.098   0.480
  362SOL    HW1 1105   0.887   2.139   0.402
  362SOL    HW2 1106   1.034   2.096   0.461
  363SOL     OW 1107   1.076   2.545   1.464
  363SOL    HW1 1108   0.996   2.484   1.467
  363SOL    HW2 1109   1.157   2.492   1.440
  364SOL     OW 1110   1.032   2.411   0.016
  364SOL    HW1 1111   0.991   2.493  -0.023
  364SOL    HW2 1112   1.096   2.437   0.089
  365SOL     OW 1113   0.078   2.418   1.386
  365SOL    HW1 1114   0.170   2.417   1.345
  365SOL    HW2 1115   0.072   2.492   1.453
  366SOL     OW 1116   0.561   2.084   1.147
  366SOL    HW1 1117   0.599   2.000   1.184
  366SOL    HW2 1118   0.473   2.103   1.191
  367SOL     OW 1119   0.866   2.316   0.642
  367SOL    HW1 1120   0.834   2.388   0.580
  367SOL    HW2 1121   0.890   2.235   0.589
  368SOL     OW 1122   1.017   1.901   0.753
  368SOL    HW1 1123   0.945   1.906   0.684
  368SOL    HW2 1124   0.993   1.832   0.822
  369SOL     OW 1125   1.466   2.452   0.992
  369SOL    HW1 1126   1.436   2.357   0.999
  369SOL    HW2 1127   1.539   2.468   1.058
  370SOL     OW 1128   1.857   2.695   0.377
  370SOL    HW1 1129   1.899   2.631   0.441
  370SOL    HW2 1130   1.819   2.644   0.299
  371SOL     OW 1131   1.390   2.437   0.078
  371SOL    HW1 1132   1.336   2.416   0.159
  371SOL    HW2 1133   1.481   2.396   0.087
  372SOL     OW 1134   0.527   2.118   0.328
  372SOL    HW1 1135   0.554   2.059   0.253
  372SOL    HW2 1136   0.527   2.213   0.297
  373SOL     OW 1137   1.638   2.961   1.079
  373SOL    HW1 1138   1.643   3.042   1.138
  373SOL    HW2 1139   1.552   2.963   1.028
  374SOL     OW 1140   0.915   1.951   1.402
  374SOL    HW1 1141   0.940   1.931   1.307
  374SOL    HW2 1142   0.987   2.007   1.444
  375SOL     OW 1143   0.410   2.675   1.251
  375SOL    HW1 1144   0.496   2.687   1.301
  375SOL    HW2 1145   0.368   2.588   1.278
  376SOL     OW 1146   1.274   2.248   1.262
  376SOL    HW1 1147   1.295   2.322   1.326
  376SOL    HW2 1148   1.185   2.265   1.219
  377SOL     OW 1149   0.566   2.399   0.865
  377SOL    HW1 1150   0.578   2.465   0.791
  377SOL    HW2 1151   0.612   2.433   0.948
  378SOL     OW 1152   1.582   2.501   0.472
  378SOL    HW1 1153   1.551   2.562   0.545
  378SOL    HW2 1154   1.632   2.553   0.403
  379SOL     OW 1155   0.402   2.613   1.598
  379SOL    HW1 1156   0.470   2.668   1.551
  379SOL    HW2 1157   0.442   2.525   1.625
  380SOL     OW 1158   1.587   2.641   1.670
  380SOL    HW1 1159   1.495   2.679   1.665
  380SOL    HW2 1160   1.647   2.688   1.605
  381SOL     OW 1161   1.013   1.967   1.770
  381SOL    HW1 1162   1.019   2.052   1.718
  381SOL    HW2 1163   1.045   1.891   1.713
  382SOL     OW 1164   0.504   1.912   1.740
  382SOL    HW1 1165   0.462   1.855   1.670
  382SOL    HW2 1166   0.438   1.981   1.772
  383SOL     OW 1167   0.573   2.732   1.029
  383SOL    HW1 1168   0.617   2.821   1.020
  383SOL    HW2 1169   0.510   2.732   1.106
  384SOL     OW 1170   1.360   2.724   1.045
  384SOL    HW1 1171   1.285   2.724   0.979
  384SOL    HW2 1172   1.397   2.632   1.054
  385SOL     OW 1173   1.209   2.387   0.275
  385SOL    HW1 1174   1.222   2.303   0.329
  385SOL    HW2 1175   1.180   2.461   0.335
  386SOL     OW 1176   0.307   2.075   1.231
  386SOL    HW1 1177   0.284   2.112   1.321
  386SOL    HW2 1178   0.277   1.980   1.225
  387SOL     OW 1179   0.037   3.172   1.282
  387SOL    HW1 1180   0.090   3.123   1.350
  387SOL    HW2 1181   0.059   3.270   1.287
  388SOL     OW 1182   0.732   2.496   1.064
  388SOL    HW1 1183   0.791   2.470   0.988
  388SOL    HW2 1184   0.704   2.592   1.053
  389SOL     OW 1185   1.728   2.797   1.854
  389SOL    HW1 1186   1.682   2.790   1.765
  389SOL    HW2 1187   1.666   2.841   1.920
  390SOL     OW 1188   0.307   1.925   0.618
  390SOL    HW1 1189   0.296   2.019   0.651
  390SOL    HW2 1190   0.302   1.862   0.695
  391SOL     OW 1191   1.622   2.229   0.374
  391SOL    HW1 1192   1.624   2.153   0.438
  391SOL    HW2 1193   1.574   2.306   0.414
  392SOL     OW 1194   1.023   2.628   0.966
  392SOL    HW1 1195   1.038   2.649   1.062
  392SOL    HW2 1196   0.993   2.533   0.957
  393SOL     OW 1197   0.350   2.760   1.804
  393SOL    HW1 1198   0.426   2.804   1.852
  393SOL    HW2 1199   0.385   2.713   1.722
  394SOL     OW 1200   1.540   2.136   0.125
  394SOL    HW1 1201   1.479   2.061   0.148
  394SOL    HW2 1202   1.562   2.188   0.208
  395SOL     OW 1203   1.303   2.700   0.042
  395SOL    HW1 1204   1.337   2.607   0.057
  395SOL    HW2 1205   1.321   2.727  -0.053
  396SOL     OW 1206   0.319   2.672   0.949
  396SOL    HW1 1207   0.412   2.708   0.954
  396SOL    HW2 1208   0.313   2.587   1.001
  397SOL     OW 1209   0.339   2.371   1.006
  397SOL    HW1 1210   0.287   2.288   0.989
  397SOL    HW2 1211   0.416   2.376   0.942
  398SOL     OW 1212   1.138   2.242   1.678
  398SOL    HW1 1213   1.093   2.305   1.742
  398SOL    HW2 1214   1.231   2.273   1.661
  399SOL     OW 1215   1.160   2.069   1.477
  399SOL    HW1 1216   1.160   2.133   1.554
  399SOL    HW2 1217   1.188   2.117   1.394
  400SOL     OW 1218   1.002   2.658   1.238
  400SOL    HW1 1219   1.043   2.626   1.324
  400SOL    HW2 1220   0.906   2.631   1.235
  401SOL     OW 1221   0.040   2.406   1.114
  401SOL    HW1 1222   0.125   2.373   1.073
  401SOL    HW2 1223   0.053   2.421   1.212
  402SOL     OW 1224   0.189   2.382   1.722
  402SOL    HW1 1225   0.248   2.342   1.652
  402SOL    HW2 1226   0.131   2.453   1.681
  403SOL     OW 1227   1.369   2.812   1.660
  403SOL    HW1 1228   1.408   2.901   1.680
  403SOL    HW2 1229   1.379   2.792   1.563
  404SOL     OW 1230   0.815   2.434   0.325
  404SOL    HW1 1231   0.822   2.345   0.279
  404SOL    HW2 1232   0.721   2.468   0.317
  405SOL     OW 1233   1.657   2.466   1.206
  405SOL    HW1 1234   1.619   2.397   1.268
  405SOL    HW2 1235   1.739   2.430   1.162
  406SOL     OW 1236   0.671   2.326   1.269
  406SOL    HW1 1237   0.637   2.237   1.239
  406SOL    HW2 1238   0.697   2.380   1.189
  407SOL     OW 1239   0.473   2.362   0.191
  407SOL    HW1 1240   0.534   2.442   0.195
  407SOL    HW2 1241   0.378   2.393   0.198
  408SOL     OW 1242   0.159   2.999   1.466
  408SOL    HW1 1243   0.181   2.938   1.542
  408SOL    HW2 1244   0.169   2.950   1.380
  409SOL     OW 1245   1.347   2.921   1.234
  409SOL    HW1 1246   1.371   2.858   1.160
  409SOL    HW2 1247   1.257   2.961   1.216
  410SOL     OW 1248   1.302   2.717   0.309
  410SOL    HW1 1249   1.216   2.686   0.351
  410SOL    HW2 1250   1.298   2.703   0.210
  411SOL     OW 1251   0.903   1.948   0.133
  411SOL    HW1 1252   0.954   1.949   0.047
  411SOL    HW2 1253   0.959   1.906   0.204
  412SOL     OW 1254   1.726   1.997   0.523
  412SOL    HW1 1255   1.799   1.980   0.456
  412SOL    HW2 1256   1.695   1.910   0.561
  413SOL     OW 1257   1.280   2.789   0.672
  413SOL    HW1 1258   1.340   2.708   0.674
  413SOL    HW2 1259   1.320   2.858   0.612
  414SOL     OW 1260   1.841   2.037   0.963
  414SOL    HW1 1261   1.880   1.952   0.927
  414SOL    HW2 1262   1.743   2.039   0.944
  415SOL     OW 1263   0.263   2.188   0.720
  415SOL    HW1 1264   0.184   2.239   0.686
  415SOL    HW2 1265   0.254   2.173   0.818
  416SOL     OW 1266   0.916   2.772   0.291
  416SOL    HW1 1267   0.979   2.810   0.223
  416SOL    HW2 1268   0.956   2.689   0.330
  417SOL     OW 1269   1.014   2.098   0.971
  417SOL    HW1 1270   1.006   2.062   0.878
  417SOL    HW2 1271   1.012   2.022   1.036
  418SOL     OW 1272   1.709   2.247   1.381
  418SOL    HW1 1273   1.782   2.316   1.385
  418SOL    HW2 1274   1.737   2.172   1.322
  419SOL     OW 1275   0.105   2.875   1.726
  419SOL    HW1 1276   0.028   2.842   1.780
  419SOL    HW2 1277   0.190   2.845   1.768
  420SOL     OW 1278   0.672   2.065   1.489
  420SOL    HW1 1279   0.762   2.049   1.449
  420SOL    HW2 1280   0.680   2.070   1.588
  421SOL     OW 1281   0.075   2.207   0.033
  421SOL    HW1 1282  -0.017   2.179   0.004
  421SOL    HW2 1283   0.106   2.284  -0.023
  422SOL     OW 1284   1.440   2.718   1.398
  422SOL    HW1 1285   1.383   2.770   1.335
  422SOL    HW2 1286   1.536   2.730   1.374
  423SOL     OW 1287   0.072   2.028   0.318
  423SOL    HW1 1288   0.055   2.111   0.264
  423SOL    HW2 1289   0.162   1.991   0.296
  424SOL     OW 1290   0.613   2.704   1.431
  424SOL    HW1 1291   0.669   2.785   1.414
  424SOL    HW2 1292   0.672   2.624   1.434
  425SOL     OW 1293   0.716   2.427   1.708
  425SOL    HW1 1294   0.735   2.492   1.782
  425SOL    HW2 1295   0.776   2.347   1.717
  426SOL     OW 1296   1.674   2.745   1.254
  426SOL    HW1 1297   1.647   2.656   1.217
  426SOL    HW2 1298   1.675   2.813   1.181
  427SOL     OW 1299   1.225   2.187   0.449
  427SOL    HW1 1300   1.290   2.113   0.438
  427SOL    HW2 1301   1.245   2.237   0.533
  428SOL     OW 1302   0.594   2.607   0.652
  428SOL    HW1 1303   0.644   2.692   0.633
  428SOL    HW2 1304   0.506   2.609   0.604
  429SOL     OW 1305   1.777   2.204   1.642
  429SOL    HW1 1306   1.760   2.235   1.548
  429SOL    HW2 1307   1.693   2.167   1.680
  430SOL     OW 1308   1.730   2.796   1.517
  430SOL    HW1 1309   1.768   2.887   1.532
  430SOL    HW2 1310   1.722   2.779   1.418
  431SOL     OW 1311   1.083   2.846   0.087
  431SOL    HW1 1312   1.060   2.899   0.005
  431SOL    HW2 1313   1.164   2.790   0.068
  432SOL     OW 1314   1.824   2.054   1.227
  432SOL    HW1 1315   1.820   1.964   1.271
  432SOL    HW2 1316   1.827   2.043   1.128
  433SOL     OW 1317   0.428   2.286   0.520
  433SOL    HW1 1318   0.458   2.214   0.458
  433SOL    HW2 1319   0.389   2.246   0.603
  434SOL     OW 1320   0.317   2.409   1.280
  434SOL    HW1 1321   0.355   2.350   1.352
  434SOL    HW2 1322   0.357   2.383   1.192
  435SOL     OW 1323   1.424   2.076   1.112
  435SOL    HW1 1324   1.476   2.011   1.167
  435SOL    HW2 1325   1.375   2.139   1.173
  436SOL     OW 1326   1.001   1.896   1.154
  436SOL    HW1 1327   0.938   1.824   1.123
  436SOL    HW2 1328   1.094   1.860   1.154
  437SOL     OW 1329   1.352   1.914   0.168
  437SOL    HW1 1330   1.387   1.873   0.084
  437SOL    HW2 1331   1.262   1.876   0.188
  438SOL     OW 1332   1.300   2.315   0.691
  438SOL    HW1 1333   1.241   2.395   0.695
  438SOL    HW2 1334   1.315   2.280   0.784
  439SOL     OW 1335   1.593   2.083   0.882
  439SOL    HW1 1336   1.509   2.082   0.936
  439SOL    HW2 1337   1.595   2.166   0.826
  440SOL     OW 1338   0.230   2.490   1.975
  440SOL    HW1 1339   0.137   2.488   2.012
  440SOL    HW2 1340   0.231   2.451   1.883
  441SOL     OW 1341   0.225   2.137   2.858
  441SOL    HW1 1342   0.260   2.120   2.950
  441SOL    HW2 1343   0.137   2.092   2.846
  442SOL     OW 1344   0.019   2.230   2.509
  442SOL    HW1 1345  -0.063   2.273   2.548
  442SOL    HW2 1346  -0.009   2.157   2.446
  443SOL     OW 1347   1.135   2.565   2.579
  443SOL    HW1 1348   1.192   2.643   2.554
  443SOL    HW2 1349   1.075   2.591   2.655
  444SOL     OW 1350   1.755   2.469   2.093
  444SOL    HW1 1351   1.743   2.456   1.994
  444SOL    HW2 1352   1.725   2.388   2.142
  445SOL     OW 1353   0.685   2.874   2.527
  445SOL    HW1 1354   0.754   2.858   2.597
  445SOL    HW2 1355   0.612   2.931   2.565
  446SOL     OW 1356   1.603   2.309   2.599
  446SOL    HW1 1357   1.529   2.355   2.549
  446SOL    HW2 1358   1.654   2.377   2.652
  447SOL     OW 1359   0.122   2.505   2.425
  447SOL    HW1 1360   0.077   2.417   2.442
  447SOL    HW2 1361   0.121   2.559   2.509
  448SOL     OW 1362   0.613   3.227   2.588
  448SOL    HW1 1363   0.564   3.140   2.597
  448SOL    HW2 1364   0.590   3.270   2.501
  449SOL     OW 1365   0.809   1.866   2.364
  449SOL    HW1 1366   0.849   1.957   2.355
  449SOL    HW2 1367   0.709   1.874   2.370
  450SOL     OW 1368   1.525   2.861   2.052
  450SOL    HW1 1369   1.462   2.785   2.065
  450SOL    HW2 1370   1.573   2.879   2.138
  451SOL     OW 1371   0.598   2.591   2.132
  451SOL    HW1 1372   0.622   2.660   2.064
  451SOL    HW2 1373   0.520   2.624   2.186
  452SOL     OW 1374   1.281   2.207   2.806
  452SOL    HW1 1375   1.195   2.157   2.793
  452SOL    HW2 1376   1.343   2.153   2.862
  453SOL     OW 1377   1.041   2.563   2.291
  453SOL    HW1 1378   1.067   2.559   2.387
  453SOL    HW2 1379   0.956   2.512   2.277
  454SOL     OW 1380   0.076   2.673   2.651
  454SOL    HW1 1381   0.175   2.661   2.660
  454SOL    HW2 1382   0.052   2.768   2.672
  455SOL     OW 1383   0.865   2.210   2.057
  455SOL    HW1 1384   0.924   2.273   2.008
  455SOL    HW2 1385   0.884   2.116   2.028
  456SOL     OW 1386   1.458   2.597   2.590
  456SOL    HW1 1387   1.453   2.532   2.665
  456SOL    HW2 1388   1.538   2.656   2.603
  457SOL     OW 1389   1.400   1.969   2.288
  457SOL    HW1 1390   1.376   1.932   2.198
  457SOL    HW2 1391   1.499   1.985   2.292
  458SOL     OW 1392   0.382   2.562   2.342
  458SOL    HW1 1393   0.427   2.472   2.339
  458SOL    HW2 1394   0.288   2.551   2.375
  459SOL     OW 1395   0.614   1.984   1.979
  459SOL    HW1 1396   0.712   1.962   1.986
  459SOL    HW2 1397   0.583   1.967   1.886
  460SOL     OW 1398   0.922   2.365   2.761
  460SOL    HW1 1399   0.897   2.356   2.665
  460SOL    HW2 1400   0.970   2.283   2.792
  461SOL     OW 1401   0.539   1.926   2.374
  461SOL    HW1 1402   0.458   1.927   2.432
  461SOL    HW2 1403   0.542   2.009   2.319
  462SOL     OW 1404   0.297   1.897   2.033
  462SOL    HW1 1405   0.346   1.981   2.012
  462SOL    HW2 1406   0.359   1.832   2.078
  463SOL     OW 1407   0.935   2.098   2.342
  463SOL    HW1 1408   0.887   2.139   2.264
  463SOL    HW2 1409   1.034   2.096   2.323
  464SOL     OW 1410   1.032   2.411   1.878
  464SOL    HW1 1411   0.991   2.493   1.839
  464SOL    HW2 1412   1.096   2.437   1.951
  465SOL     OW 1413   0.866   2.316   2.504
  465SOL    HW1 1414   0.834   2.388   2.442
  465SOL    HW2 1415   0.890   2.235   2.451
  466SOL     OW 1416   1.017   1.901   2.615
  466SOL    HW1 1417   0.945   1.906   2.546
  466SOL    HW2 1418   0.993   1.832   2.684
  467SOL     OW 1419   1.857   2.695   2.239
  467SOL    HW1 1420   1.899   2.631   2.303
  467SOL    HW2 1421   1.819   2.644   2.161
  468SOL     OW 1422   1.390   2.437   1.940
  468SOL    HW1 1423   1.336   2.416   2.021
  468SOL    HW2 1424   1.481   2.396   1.949
  469SOL     OW 1425   0.527   2.118   2.190
  469SOL    HW1 1426   0.554   2.059   2.115
  469SOL    HW2 1427   0.527   2.213   2.159
  470SOL     OW 1428   1.111   3.057   2.962
  470SOL    HW1 1429   1.071   3.101   3.043
  470SOL    HW2 1430   1.070   3.094   2.879
  471SOL     OW 1431   1.638   2.961   2.941
  471SOL    HW1 1432   1.643   3.042   3.000
  471SOL    HW2 1433   1.552   2.963   2.890
  472SOL     OW 1434   0.566   2.399   2.727
  472SOL    HW1 1435   0.578   2.465   2.653
  472SOL    HW2 1436   0.612   2.433   2.810
  473SOL     OW 1437   1.582   2.501   2.334
  473SOL    HW1 1438   1.551   2.562   2.407
  473SOL    HW2 1439   1.632   2.553   2.265
  474SOL     OW 1440   0.573   2.732   2.891
  474SOL    HW1 1441   0.617   2.821   2.882
  474SOL    HW2 1442   0.510   2.732   2.968
  475SOL     OW 1443   1.209   2.387   2.137
  475SOL    HW1 1444   1.222   2.303   2.191
  475SOL    HW2 1445   1.180   2.461   2.197
  476SOL     OW 1446   0.307   2.075   3.093
  476SOL    HW1 1447   0.284   2.112   3.183
  476SOL    HW2 1448   0.277   1.980   3.087
  477SOL     OW 1449   0.732   2.496   2.926
  477SOL    HW1 1450   0.791   2.470   2.850
  477SOL    HW2 1451   0.704   2.592   2.915
  478SOL     OW 1452   0.307   1.925   2.480
  478SOL    HW1 1453   0.296   2.019   2.513
  478SOL    HW2 1454   0.302   1.862   2.557
  479SOL     OW 1455   1.622   2.229   2.236
  479SOL    HW1 1456   1.624   2.153   2.300
  479SOL    HW2 1457   1.574   2.306   2.276
  480SOL     OW 1458   1.540   2.136   1.987
  480SOL    HW1 1459   1.479   2.061   2.010
  480SOL    HW2 1460   1.562   2.188   2.070
  481SOL     OW 1461   1.303   2.700   1.904
  481SOL    HW1 1462   1.337   2.607   1.919
  481SOL    HW2 1463   1.321   2.727   1.809
  482SOL     OW 1464   0.319   2.672   2.811
  482SOL    HW1 1465   0.412   2.708   2.816
  482SOL    HW2 1466   0.313   2.587   2.863
  483SOL     OW 1467   0.815   2.434   2.187
  483SOL    HW1 1468   0.822   2.345   2.141
  483SOL    HW2 1469   0.721   2.468   2.179
  484SOL     OW 1470   0.671   2.326   3.131
  484SOL    HW1 1471   0.637   2.237   3.101
  484SOL    HW2 1472   0.697   2.380   3.051
  485SOL     OW 1473   0.473   2.362   2.053
  485SOL    HW1 1474   0.534   2.442   2.057
  485SOL    HW2 1475   0.378   2.393   2.060
  486SOL     OW 1476   1.302   2.717   2.171
  486SOL    HW1 1477   1.216   2.686   2.213
  486SOL    HW2 1478   1.298   2.703   2.072
  487SOL     OW 1479   1.726   1.997   2.385
  487SOL    HW1 1480   1.799   1.980   2.318
  487SOL    HW2 1481   1.695   1.910   2.423
  488SOL     OW 1482   1.280   2.789   2.534
  488SOL    HW1 1483   1.340   2.708   2.536
  488SOL    HW2 1484   1.320   2.858   2.474
  489SOL     OW 1485   1.841   2.037   2.825
  489SOL    HW1 1486   1.880   1.952   2.789
  489SOL    HW2 1487   1.743   2.039   2.806
  490SOL     OW 1488   0.263   2.188   2.582
  490SOL    HW1 1489   0.184   2.239   2.548
  490SOL    HW2 1490   0.254   2.173   2.680
  491SOL     OW 1491   0.916   2.772   2.153
  491SOL    HW1 1492   0.979   2.810   2.085
  491SOL    HW2 1493   0.956   2.689   2.192
  492SOL     OW 1494   0.075   2.207   1.895
  492SOL    HW1 1495  -0.017   2.179   1.866
  492SOL    HW2 1496   0.106   2.284   1.839
  493SOL     OW 1497   0.072   2.028   2.180
  493SOL    HW1 1498   0.055   2.111   2.126
  493SOL    HW2 1499   0.162   1.991   2.158
  494SOL     OW 1500   1.674   2.745   3.116
  494SOL    HW1 1501   1.647   2.656   3.079
  494SOL    HW2 1502   1.675   2.813   3.043
  495SOL     OW 1503   1.225   2.187   2.311
  495SOL    HW1 1504   1.290   2.113   2.300
  495SOL    HW2 1505   1.245   2.237   2.395
  496SOL     OW 1506   0.594   2.607   2.514
  496SOL    HW1 1507   0.644   2.692   2.495
  496SOL    HW2 1508   0.506   2.609   2.466
  497SOL     OW 1509   1.083   2.846   1.949
  497SOL    HW1 1510   1.060   2.899   1.867
  497SOL    HW2 1511   1.164   2.790   1.930
  498SOL     OW 1512   1.824   2.054   3.089
  498SOL    HW1 1513   1.820   1.964   3.133
  498SOL    HW2 1514   1.827   2.043   2.990
  499SOL     OW 1515   0.428   2.286   2.382
  499SOL    HW1 1516   0.458   2.214   2.320
  499SOL    HW2 1517   0.389   2.246   2.465
  500SOL     OW 1518   1.352   1.914   2.030
  500SOL    HW1 1519   1.387   1.873   1.946
  500SOL    HW2 1520   1.262   1.876   2.050
  501SOL     OW 1521   1.300   2.315   2.553
  501SOL    HW1 1522   1.241   2.395   2.557
  501SOL    HW2 1523   1.315   2.280   2.646
  502SOL     OW 1524   1.593   2.083   2.744
  502SOL    HW1 1525   1.509   2.082   2.798
  502SOL    HW2 1526   1.595   2.166   2.688
  503SOL     OW 1527   2.092   0.628   0.113
  503SOL    HW1 1528   1.999   0.626   0.150
  503SOL    HW2 1529   2.093   0.589   0.021
  504SOL     OW 1530   2.087   0.275   0.996
  504SOL    HW1 1531   2.122   0.258   1.088
  504SOL    HW2 1532   1.999   0.230   0.984
  505SOL     OW 1533   1.881   0.368   0.647
  505SOL    HW1 1534   1.799   0.411   0.686
  505SOL    HW2 1535   1.853   0.295   0.584
  506SOL     OW 1536   2.431   1.275   1.165
  506SOL    HW1 1537   2.338   1.268   1.128
  506SOL    HW2 1538   2.442   1.364   1.209
  507SOL     OW 1539   2.630   1.144   1.023
  507SOL    HW1 1540   2.552   1.161   1.083
  507SOL    HW2 1541   2.664   1.231   0.987
  508SOL     OW 1542   2.712   0.798   1.823
  508SOL    HW1 1543   2.708   0.874   1.888
  508SOL    HW2 1544   2.734   0.834   1.732
  509SOL     OW 1545   2.547   1.012   0.665
  509SOL    HW1 1546   2.616   0.996   0.735
  509SOL    HW2 1547   2.474   1.069   0.703
  510SOL     OW 1548   2.548   1.161   1.803
  510SOL    HW1 1549   2.608   1.240   1.817
  510SOL    HW2 1550   2.462   1.192   1.762
  511SOL     OW 1551   2.197   1.435   1.061
  511SOL    HW1 1552   2.119   1.404   1.008
  511SOL    HW2 1553   2.255   1.493   1.004
  512SOL     OW 1554   2.300   0.392   1.499
  512SOL    HW1 1555   2.382   0.336   1.508
  512SOL    HW2 1556   2.219   0.334   1.503
  513SOL     OW 1557   2.093   1.713   0.483
  513SOL    HW1 1558   2.127   1.790   0.537
  513SOL    HW2 1559   2.137   1.713   0.393
  514SOL     OW 1560   2.092   1.434   0.538
  514SOL    HW1 1561   2.066   1.530   0.538
  514SOL    HW2 1562   2.021   1.380   0.583
  515SOL     OW 1563   2.102   1.091   0.886
  515SOL    HW1 1564   2.116   1.007   0.938
  515SOL    HW2 1565   2.047   1.155   0.941
  516SOL     OW 1566   2.482   1.786   1.439
  516SOL    HW1 1567   2.390   1.769   1.474
  516SOL    HW2 1568   2.510   1.878   1.465
  517SOL     OW 1569   2.468   0.964   0.123
  517SOL    HW1 1570   2.475   1.048   0.069
  517SOL    HW2 1571   2.514   0.977   0.211
  518SOL     OW 1572   1.984   0.643   0.563
  518SOL    HW1 1573   1.939   0.555   0.580
  518SOL    HW2 1574   1.983   0.697   0.647
  519SOL     OW 1575   1.889   1.596   0.117
  519SOL    HW1 1576   1.870   1.500   0.138
  519SOL    HW2 1577   1.856   1.654   0.192
  520SOL     OW 1578   1.975   0.737   1.597
  520SOL    HW1 1579   2.063   0.724   1.642
  520SOL    HW2 1580   1.962   0.834   1.575
  521SOL     OW 1581   2.475   1.365   0.726
  521SOL    HW1 1582   2.426   1.278   0.735
  521SOL    HW2 1583   2.452   1.408   0.639
  522SOL     OW 1584   2.671   0.004   0.502
  522SOL    HW1 1585   2.711   0.095   0.493
  522SOL    HW2 1586   2.571   0.012   0.508
  523SOL     OW 1587   2.059   0.976   1.264
  523SOL    HW1 1588   2.148   0.931   1.250
  523SOL    HW2 1589   1.986   0.911   1.245
  524SOL     OW 1590   2.179   0.251   1.801
  524SOL    HW1 1591   2.250   0.322   1.807
  524SOL    HW2 1592   2.091   0.290   1.829
  525SOL     OW 1593   2.460   0.729   0.270
  525SOL    HW1 1594   2.484   0.798   0.202
  525SOL    HW2 1595   2.382   0.762   0.324
  526SOL     OW 1596   2.669   0.605   1.465
  526SOL    HW1 1597   2.622   0.602   1.554
  526SOL    HW2 1598   2.618   0.550   1.399
  527SOL     OW 1599   1.938   0.811   0.789
  527SOL    HW1 1600   2.037   0.799   0.798
  527SOL    HW2 1601   1.914   0.906   0.810
  528SOL     OW 1602   1.992   1.821   1.571
  528SOL    HW1 1603   1.982   1.806   1.670
  528SOL    HW2 1604   1.906   1.857   1.535
  529SOL     OW 1605   2.727   0.348   0.195
  529SOL    HW1 1606   2.786   0.411   0.146
  529SOL    HW2 1607   2.746   0.254   0.166
  530SOL     OW 1608   2.412   0.196   0.885
  530SOL    HW1 1609   2.407   0.191   0.985
  530SOL    HW2 1610   2.414   0.292   0.856
  531SOL     OW 1611   2.870   1.456   0.477
  531SOL    HW1 1612   2.824   1.528   0.425
  531SOL    HW2 1613   2.866   1.476   0.575
  532SOL     OW 1614   2.213   1.801   0.853
  532SOL    HW1 1615   2.263   1.715   0.859
  532SOL    HW2 1616   2.278   1.878   0.850
  533SOL     OW 1617   2.183   0.943   0.242
  533SOL    HW1 1618   2.265   0.982   0.200
  533SOL    HW2 1619   2.156   0.861   0.193
  534SOL     OW 1620   2.323   1.266   1.727
  534SOL    HW1 1621   2.273   1.267   1.641
  534SOL    HW2 1622   2.260   1.248   1.803
  535SOL     OW 1623   2.064   0.285   1.498
  535SOL    HW1 1624   1.984   0.345   1.485
  535SOL    HW2 1625   2.054   0.236   1.584
  536SOL     OW 1626   2.326   1.743   0.323
  536SOL    HW1 1627   2.359   1.782   0.409
  536SOL    HW2 1628   2.402   1.736   0.258
  537SOL     OW 1629   2.111   1.785   1.241
  537SOL    HW1 1630   2.168   1.720   1.291
  537SOL    HW2 1631   2.095   1.752   1.148
  538SOL     OW 1632   2.244   0.700   0.480
  538SOL    HW1 1633   2.289   0.610   0.477
  538SOL    HW2 1634   2.150   0.689   0.513
  539SOL     OW 1635   2.476   0.122   0.117
  539SOL    HW1 1636   2.574   0.100   0.124
  539SOL    HW2 1637   2.445   0.105   0.024
  540SOL     OW 1638   2.643   0.264   1.749
  540SOL    HW1 1639   2.710   0.203   1.792
  540SOL    HW2 1640   2.570   0.283   1.814
  541SOL     OW 1641   2.750   1.514   1.195
  541SOL    HW1 1642   2.727   1.489   1.101
  541SOL    HW2 1643   2.811   1.445   1.234
  542SOL     OW 1644   2.665   1.402   0.924
  542SOL    HW1 1645   2.755   1.416   0.882
  542SOL    HW2 1646   2.594   1.404   0.853
  543SOL     OW 1647   2.784   0.503   0.899
  543SOL    HW1 1648   2.759   0.494   0.803
  543SOL    HW2 1649   2.832   0.421   0.930
  544SOL     OW 1650   2.401   0.064   0.512
  544SOL    HW1 1651   2.320   0.065   0.570
  544SOL    HW2 1652   2.404   0.147   0.457
  545SOL     OW 1653   2.159   0.035   0.171
  545SOL    HW1 1654   2.208   0.119   0.150
  545SOL    HW2 1655   2.221  -0.030   0.216
  546SOL     OW 1656   2.797   0.236   0.480
  546SOL    HW1 1657   2.749   0.277   0.402
  546SOL    HW2 1658   2.896   0.234   0.461
  547SOL     OW 1659   3.089   1.570   0.793
  547SOL    HW1 1660   3.110   1.644   0.728
  547SOL    HW2 1661   3.157   1.570   0.866
  548SOL     OW 1662   2.321   1.152   0.741
  548SOL    HW1 1663   2.250   1.125   0.806
  548SOL    HW2 1664   2.295   1.124   0.648
  549SOL     OW 1665   1.940   0.556   1.386
  549SOL    HW1 1666   2.032   0.555   1.345
  549SOL    HW2 1667   1.934   0.630   1.453
  550SOL     OW 1668   2.423   0.222   1.147
  550SOL    HW1 1669   2.461   0.138   1.184
  550SOL    HW2 1670   2.335   0.241   1.191
  551SOL     OW 1671   2.879   0.039   0.753
  551SOL    HW1 1672   2.807   0.044   0.684
  551SOL    HW2 1673   2.855  -0.030   0.822
  552SOL     OW 1674   2.350   1.385   0.174
  552SOL    HW1 1675   2.263   1.370   0.221
  552SOL    HW2 1676   2.333   1.411   0.079
  553SOL     OW 1677   2.389   0.256   0.328
  553SOL    HW1 1678   2.416   0.197   0.253
  553SOL    HW2 1679   2.389   0.351   0.297
  554SOL     OW 1680   2.777   0.089   1.402
  554SOL    HW1 1681   2.802   0.069   1.307
  554SOL    HW2 1682   2.849   0.145   1.444
  555SOL     OW 1683   2.842   1.116   1.719
  555SOL    HW1 1684   2.743   1.122   1.729
  555SOL    HW2 1685   2.865   1.036   1.663
  556SOL     OW 1686   2.567   1.050   0.368
  556SOL    HW1 1687   2.553   1.057   0.467
  556SOL    HW2 1688   2.651   0.999   0.350
  557SOL     OW 1689   2.272   0.813   1.251
  557SOL    HW1 1690   2.358   0.825   1.301
  557SOL    HW2 1691   2.230   0.726   1.278
  558SOL     OW 1692   1.926   1.564   1.331
  558SOL    HW1 1693   1.880   1.646   1.297
  558SOL    HW2 1694   2.024   1.583   1.340
  559SOL     OW 1695   2.229   1.100   0.501
  559SOL    HW1 1696   2.222   1.183   0.445
  559SOL    HW2 1697   2.233   1.020   0.441
  560SOL     OW 1698   2.428   0.537   0.865
  560SOL    HW1 1699   2.440   0.603   0.791
  560SOL    HW2 1700   2.474   0.571   0.948
  561SOL     OW 1701   2.216   1.510   1.329
  561SOL    HW1 1702   2.195   1.466   1.242
  561SOL    HW2 1703   2.313   1.536   1.332
  562SOL     OW 1704   2.264   0.751   1.598
  562SOL    HW1 1705   2.332   0.806   1.551
  562SOL    HW2 1706   2.304   0.663   1.625
  563SOL     OW 1707   2.366   0.050   1.740
  563SOL    HW1 1708   2.324  -0.007   1.670
  563SOL    HW2 1709   2.300   0.119   1.772
  564SOL     OW 1710   2.435   0.870   1.029
  564SOL    HW1 1711   2.479   0.959   1.020
  564SOL    HW2 1712   2.372   0.870   1.106
  565SOL     OW 1713   3.071   0.525   0.275
  565SOL    HW1 1714   3.084   0.441   0.329
  565SOL    HW2 1715   3.042   0.599   0.335
  566SOL     OW 1716   2.169   0.213   1.231
  566SOL    HW1 1717   2.146   0.250   1.321
  566SOL    HW2 1718   2.139   0.118   1.225
  567SOL     OW 1719   1.899   1.310   1.282
  567SOL    HW1 1720   1.952   1.261   1.350
  567SOL    HW2 1721   1.921   1.408   1.287
  568SOL     OW 1722   2.594   0.634   1.064
  568SOL    HW1 1723   2.653   0.608   0.988
  568SOL    HW2 1724   2.566   0.730   1.053
  569SOL     OW 1725   2.169   0.063   0.618
  569SOL    HW1 1726   2.158   0.157   0.651
  569SOL    HW2 1727   2.164   0.000   0.695
  570SOL     OW 1728   2.885   0.766   0.966
  570SOL    HW1 1729   2.900   0.787   1.062
  570SOL    HW2 1730   2.855   0.671   0.957
  571SOL     OW 1731   2.842   1.573   1.700
  571SOL    HW1 1732   2.822   1.617   1.612
  571SOL    HW2 1733   2.881   1.482   1.684
  572SOL     OW 1734   2.212   0.898   1.804
  572SOL    HW1 1735   2.288   0.942   1.852
  572SOL    HW2 1736   2.247   0.851   1.722
  573SOL     OW 1737   2.181   0.810   0.949
  573SOL    HW1 1738   2.274   0.846   0.954
  573SOL    HW2 1739   2.175   0.725   1.001
  574SOL     OW 1740   2.201   0.509   1.006
  574SOL    HW1 1741   2.149   0.426   0.989
  574SOL    HW2 1742   2.278   0.514   0.942
  575SOL     OW 1743   1.870   1.326   0.200
  575SOL    HW1 1744   1.777   1.347   0.169
  575SOL    HW2 1745   1.880   1.227   0.213
  576SOL     OW 1746   1.950   1.801   0.927
  576SOL    HW1 1747   1.908   1.715   0.900
  576SOL    HW2 1748   2.044   1.804   0.893
  577SOL     OW 1749   2.366   1.568   0.910
  577SOL    HW1 1750   2.432   1.642   0.919
  577SOL    HW2 1751   2.410   1.489   0.868
  578SOL     OW 1752   2.864   0.796   1.238
  578SOL    HW1 1753   2.905   0.764   1.324
  578SOL    HW2 1754   2.768   0.769   1.235
  579SOL     OW 1755   1.902   0.544   1.114
  579SOL    HW1 1756   1.987   0.511   1.073
  579SOL    HW2 1757   1.915   0.559   1.212
  580SOL     OW 1758   2.051   0.520   1.722
  580SOL    HW1 1759   2.110   0.480   1.652
  580SOL    HW2 1760   1.993   0.591   1.681
  581SOL     OW 1761   2.677   0.572   0.325
  581SOL    HW1 1762   2.684   0.483   0.279
  581SOL    HW2 1763   2.583   0.606   0.317
  582SOL     OW 1764   2.114   1.564   1.744
  582SOL    HW1 1765   2.084   1.621   1.820
  582SOL    HW2 1766   2.107   1.467   1.770
  583SOL     OW 1767   2.533   0.464   1.269
  583SOL    HW1 1768   2.499   0.375   1.239
  583SOL    HW2 1769   2.559   0.518   1.189
  584SOL     OW 1770   2.792   1.678   1.465
  584SOL    HW1 1771   2.768   1.660   1.370
  584SOL    HW2 1772   2.822   1.772   1.475
  585SOL     OW 1773   2.335   0.500   0.191
  585SOL    HW1 1774   2.396   0.580   0.195
  585SOL    HW2 1775   2.240   0.531   0.198
  586SOL     OW 1776   2.021   1.137   1.466
  586SOL    HW1 1777   2.043   1.076   1.542
  586SOL    HW2 1778   2.031   1.088   1.380
  587SOL     OW 1779   1.945   1.258   1.022
  587SOL    HW1 1780   1.940   1.257   1.122
  587SOL    HW2 1781   1.862   1.217   0.984
  588SOL     OW 1782   2.550   1.662   1.716
  588SOL    HW1 1783   2.494   1.743   1.725
  588SOL    HW2 1784   2.602   1.666   1.630
  589SOL     OW 1785   2.765   0.086   0.133
  589SOL    HW1 1786   2.816   0.087   0.047
  589SOL    HW2 1787   2.821   0.044   0.204
  590SOL     OW 1788   1.992   1.794   1.851
  590SOL    HW1 1789   1.951   1.720   1.904
  590SOL    HW2 1790   2.056   1.845   1.909
  591SOL     OW 1791   3.142   0.927   0.672
  591SOL    HW1 1792   3.202   0.846   0.674
  591SOL    HW2 1793   3.182   0.996   0.612
  592SOL     OW 1794   2.692   1.273   1.422
  592SOL    HW1 1795   2.687   1.306   1.517
  592SOL    HW2 1796   2.606   1.292   1.376
  593SOL     OW 1797   2.534   1.616   0.154
  593SOL    HW1 1798   2.543   1.626   0.055
  593SOL    HW2 1799   2.494   1.527   0.175
  594SOL     OW 1800   2.125   0.326   0.720
  594SOL    HW1 1801   2.046   0.377   0.686
  594SOL    HW2 1802   2.116   0.311   0.818
  595SOL     OW 1803   2.684   1.002   1.372
  595SOL    HW1 1804   2.724   1.001   1.280
  595SOL    HW2 1805   2.694   1.094   1.412
  596SOL     OW 1806   2.234   1.288   1.490
  596SOL    HW1 1807   2.221   1.381   1.456
  596SOL    HW2 1808   2.150   1.236   1.477
  597SOL     OW 1809   2.876   0.236   0.971
  597SOL    HW1 1810   2.868   0.200   0.878
  597SOL    HW2 1811   2.874   0.160   1.036
  598SOL     OW 1812   2.452   1.487   0.491
  598SOL    HW1 1813   2.494   1.429   0.421
  598SOL    HW2 1814   2.408   1.566   0.447
  599SOL     OW 1815   2.117   1.348   0.290
  599SOL    HW1 1816   2.021   1.349   0.263
  599SOL    HW2 1817   2.129   1.401   0.374
  600SOL     OW 1818   1.967   1.013   1.726
  600SOL    HW1 1819   1.890   0.980   1.780
  600SOL    HW2 1820   2.052   0.983   1.768
  601SOL     OW 1821   2.534   0.203   1.489
  601SOL    HW1 1822   2.624   0.187   1.449
  601SOL    HW2 1823   2.542   0.208   1.588
  602SOL     OW 1824   1.937   0.345   0.033
  602SOL    HW1 1825   1.845   0.317   0.004
  602SOL    HW2 1826   1.968   0.422  -0.023
  603SOL     OW 1827   2.475   0.842   1.431
  603SOL    HW1 1828   2.531   0.923   1.414
  603SOL    HW2 1829   2.534   0.762   1.434
  604SOL     OW 1830   2.578   0.565   1.708
  604SOL    HW1 1831   2.597   0.630   1.782
  604SOL    HW2 1832   2.638   0.485   1.717
  605SOL     OW 1833   2.252   1.741   1.560
  605SOL    HW1 1834   2.161   1.782   1.558
  605SOL    HW2 1835   2.245   1.647   1.592
  606SOL     OW 1836   3.087   0.325   0.449
  606SOL    HW1 1837   3.152   0.251   0.438
  606SOL    HW2 1838   3.107   0.375   0.533
  607SOL     OW 1839   2.456   0.745   0.652
  607SOL    HW1 1840   2.506   0.830   0.633
  607SOL    HW2 1841   2.368   0.747   0.604
  608SOL     OW 1842   2.721   1.374   0.016
  608SOL    HW1 1843   2.675   1.389   0.104
  608SOL    HW2 1844   2.765   1.459  -0.014
  609SOL     OW 1845   2.523   1.790   0.953
  609SOL    HW1 1846   2.477   1.878   0.940
  609SOL    HW2 1847   2.622   1.802   0.946
  610SOL     OW 1848   2.721   0.956   0.861
  610SOL    HW1 1849   2.775   0.887   0.909
  610SOL    HW2 1850   2.689   1.025   0.927
  611SOL     OW 1851   2.945   0.984   0.087
  611SOL    HW1 1852   2.922   1.037   0.005
  611SOL    HW2 1853   3.026   0.928   0.068
  612SOL     OW 1854   2.083   1.314   1.844
  612SOL    HW1 1855   2.018   1.241   1.823
  612SOL    HW2 1856   2.087   1.328   1.942
  613SOL     OW 1857   1.941   1.240   0.653
  613SOL    HW1 1858   1.940   1.193   0.741
  613SOL    HW2 1859   2.023   1.212   0.602
  614SOL     OW 1860   2.534   1.391   1.624
  614SOL    HW1 1861   2.456   1.341   1.662
  614SOL    HW2 1862   2.531   1.486   1.655
  615SOL     OW 1863   2.290   0.424   0.520
  615SOL    HW1 1864   2.320   0.352   0.458
  615SOL    HW2 1865   2.251   0.384   0.603
  616SOL     OW 1866   2.179   0.547   1.280
  616SOL    HW1 1867   2.217   0.488   1.352
  616SOL    HW2 1868   2.219   0.521   1.192
  617SOL     OW 1869   2.674   1.586   0.687
  617SOL    HW1 1870   2.706   1.596   0.593
  617SOL    HW2 1871   2.595   1.524   0.689
  618SOL     OW 1872   2.863   0.034   1.154
  618SOL    HW1 1873   2.800  -0.038   1.123
  618SOL    HW2 1874   2.956  -0.002   1.154
  619SOL     OW 1875   2.632   1.330   0.301
  619SOL    HW1 1876   2.586   1.243   0.318
  619SOL    HW2 1877   2.723   1.327   0.342
  620SOL     OW 1878   2.480   1.567   1.284
  620SOL    HW1 1879   2.475   1.649   1.341
  620SOL    HW2 1880   2.569   1.564   1.239
  621SOL     OW 1881   1.901   1.077   0.300
  621SOL    HW1 1882   2.000   1.066   0.291
  621SOL    HW2 1883   1.861   0.991   0.332
  622SOL     OW 1884   2.737   1.646   0.337
  622SOL    HW1 1885   2.660   1.611   0.283
  622SOL    HW2 1886   2.705   1.717   0.399
  623SOL     OW 1887   2.092   0.628   1.975
  623SOL    HW1 1888   1.999   0.626   2.012
  623SOL    HW2 1889   2.093   0.589   1.883
  624SOL     OW 1890   2.087   0.275   2.858
  624SOL    HW1 1891   2.122   0.258   2.950
  624SOL    HW2 1892   1.999   0.230   2.846
  625SOL     OW 1893   1.881   0.368   2.509
  625SOL    HW1 1894   1.799   0.411   2.548
  625SOL    HW2 1895   1.853   0.295   2.446
  626SOL     OW 1896   2.630   1.144   2.885
  626SOL    HW1 1897   2.552   1.161   2.945
  626SOL    HW2 1898   2.664   1.231   2.849
  627SOL     OW 1899   2.547   1.012   2.527
  627SOL    HW1 1900   2.616   0.996   2.597
  627SOL    HW2 1901   2.474   1.069   2.565
  628SOL     OW 1902   2.093   1.713   2.345
  628SOL    HW1 1903   2.127   1.790   2.399
  628SOL    HW2 1904   2.137   1.713   2.255
  629SOL     OW 1905   2.092   1.434   2.400
  629SOL    HW1 1906   2.066   1.530   2.400
  629SOL    HW2 1907   2.021   1.380   2.445
  630SOL     OW 1908   2.102   1.091   2.748
  630SOL    HW1 1909   2.116   1.007   2.800
  630SOL    HW2 1910   2.047   1.155   2.803
  631SOL     OW 1911   2.468   0.964   1.985
  631SOL    HW1 1912   2.475   1.048   1.931
  631SOL    HW2 1913   2.514   0.977   2.073
  632SOL     OW 1914   1.984   0.643   2.425
  632SOL    HW1 1915   1.939   0.555   2.442
  632SOL    HW2 1916   1.983   0.697   2.509
  633SOL     OW 1917   1.889   1.596   1.979
  633SOL    HW1 1918   1.870   1.500   2.000
  633SOL    HW2 1919   1.856   1.654   2.054
  634SOL     OW 1920   2.475   1.365   2.588
  634SOL    HW1 1921   2.426   1.278   2.597
  634SOL    HW2 1922   2.452   1.408   2.501
  635SOL     OW 1923   2.671   0.004   2.364
  635SOL    HW1 1924   2.711   0.095   2.355
  635SOL    HW2 1925   2.571   0.012   2.370
  636SOL     OW 1926   2.460   0.729   2.132
  636SOL    HW1 1927   2.484   0.798   2.064
  636SOL    HW2 1928   2.382   0.762   2.186
  637SOL     OW 1929   1.938   0.811   2.651
  637SOL    HW1 1930   2.037   0.799   2.660
  637SOL    HW2 1931   1.914   0.906   2.672
  638SOL     OW 1932   2.727   0.348   2.057
  638SOL    HW1 1933   2.786   0.411   2.008
  638SOL    HW2 1934   2.746   0.254   2.028
  639SOL     OW 1935   2.870   1.456   2.339
  639SOL    HW1 1936   2.824   1.528   2.287
  639SOL    HW2 1937   2.866   1.476   2.437
  640SOL     OW 1938   2.213   1.801   2.715
  640SOL    HW1 1939   2.263   1.715   2.721
  640SOL    HW2 1940   2.278   1.878   2.712
  641SOL     OW 1941   2.183   0.943   2.104
  641SOL    HW1 1942   2.265   0.982   2.062
  641SOL    HW2 1943   2.156   0.861   2.055
  642SOL     OW 1944   2.326   1.743   2.185
  642SOL    HW1 1945   2.359   1.782   2.271
  642SOL    HW2 1946   2.402   1.736   2.120
  643SOL     OW 1947   2.111   1.785   3.103
  643SOL    HW1 1948   2.168   1.720   3.153
  643SOL    HW2 1949   2.095   1.752   3.010
  644SOL     OW 1950   2.244   0.700   2.342
  644SOL    HW1 1951   2.289   0.610   2.339
  644SOL    HW2 1952   2.150   0.689   2.375
  645SOL     OW 1953   2.476   0.122   1.979
  645SOL    HW1 1954   2.574   0.100   1.986
  645SOL    HW2 1955   2.445   0.105   1.886
  646SOL     OW 1956   2.784   0.503   2.761
  646SOL    HW1 1957   2.759   0.494   2.665
  646SOL    HW2 1958   2.832   0.421   2.792
  647SOL     OW 1959   2.401   0.064   2.374
  647SOL    HW1 1960   2.320   0.065   2.432
  647SOL    HW2 1961   2.404   0.147   2.319
  648SOL     OW 1962   2.159   0.035   2.033
  648SOL    HW1 1963   2.208   0.119   2.012
  648SOL    HW2 1964   2.221  -0.030   2.078
  649SOL     OW 1965   2.797   0.236   2.342
  649SOL    HW1 1966   2.749   0.277   2.264
  649SOL    HW2 1967   2.896   0.234   2.323
  650SOL     OW 1968   3.089   1.570   2.655
  650SOL    HW1 1969   3.110   1.644   2.590
  650SOL    HW2 1970   3.157   1.570   2.728
  651SOL     OW 1971   2.321   1.152   2.603
  651SOL    HW1 1972   2.250   1.125   2.668
  651SOL    HW2 1973   2.295   1.124   2.510
  652SOL     OW 1974   2.879   0.039   2.615
  652SOL    HW1 1975   2.807   0.044   2.546
  652SOL    HW2 1976   2.855  -0.030   2.684
  653SOL     OW 1977   2.350   1.385   2.036
  653SOL    HW1 1978   2.263   1.370   2.083
  653SOL    HW2 1979   2.333   1.411   1.941
  654SOL     OW 1980   2.389   0.256   2.190
  654SOL    HW1 1981   2.416   0.197   2.115
  654SOL    HW2 1982   2.389   0.351   2.159
  655SOL     OW 1983   2.567   1.050   2.230
  655SOL    HW1 1984   2.553   1.057   2.329
  655SOL    HW2 1985   2.651   0.999   2.212
  656SOL     OW 1986   2.229   1.100   2.363
  656SOL    HW1 1987   2.222   1.183   2.307
  656SOL    HW2 1988   2.233   1.020   2.303
  657SOL     OW 1989   2.428   0.537   2.727
  657SOL    HW1 1990   2.440   0.603   2.653
  657SOL    HW2 1991   2.474   0.571   2.810
  658SOL     OW 1992   3.071   0.525   2.137
  658SOL    HW1 1993   3.084   0.441   2.191
  658SOL    HW2 1994   3.042   0.599   2.197
  659SOL     OW 1995   2.594   0.634   2.926
  659SOL    HW1 1996   2.653   0.608   2.850
  659SOL    HW2 1997   2.566   0.730   2.915
  660SOL     OW 1998   2.169   0.063   2.480
  660SOL    HW1 1999   2.158   0.157   2.513
  660SOL    HW2 2000   2.164   0.000   2.557
  661SOL     OW 2001   2.885   0.766   2.828
  661SOL    HW1 2002   2.900   0.787   2.924
  661SOL    HW2 2003   2.855   0.671   2.819
  662SOL     OW 2004   2.181   0.810   2.811
  662SOL    HW1 2005   2.274   0.846   2.816
  662SOL    HW2 2006   2.175   0.725   2.863
  663SOL     OW 2007   1.870   1.326   2.062
  663SOL    HW1 2008   1.777   1.347   2.031
  663SOL    HW2 2009   1.880   1.227   2.075
  664SOL     OW 2010   1.950   1.801   2.789
  664SOL    HW1 2011   1.908   1.715   2.762
  664SOL    HW2 2012   2.044   1.804   2.755
  665SOL     OW 2013   2.366   1.568   2.772
  665SOL    HW1 2014   2.432   1.642   2.781
  665SOL    HW2 2015   2.410   1.489   2.730
  666SOL     OW 2016   2.864   0.796   3.100
  666SOL    HW1 2017   2.905   0.764   3.186
  666SOL    HW2 2018   2.768   0.769   3.097
  667SOL     OW 2019   2.677   0.572   2.187
  667SOL    HW1 2020   2.684   0.483   2.141
  667SOL    HW2 2021   2.583   0.606   2.179
  668SOL     OW 2022   2.533   0.464   3.131
  668SOL    HW1 2023   2.499   0.375   3.101
  668SOL    HW2 2024   2.559   0.518   3.051
  669SOL     OW 2025   2.335   0.500   2.053
  669SOL    HW1 2026   2.396   0.580   2.057
  669SOL    HW2 2027   2.240   0.531   2.060
  670SOL     OW 2028   1.945   1.258   2.884
  670SOL    HW1 2029   1.940   1.257   2.984
  670SOL    HW2 2030   1.862   1.217   2.846
  671SOL     OW 2031   2.765   0.086   1.995
  671SOL    HW1 2032   2.816   0.087   1.909
  671SOL    HW2 2033   2.821   0.044   2.066
  672SOL     OW 2034   3.142   0.927   2.534
  672SOL    HW1 2035   3.202   0.846   2.536
  672SOL    HW2 2036   3.182   0.996   2.474
  673SOL     OW 2037   2.534   1.616   2.016
  673SOL    HW1 2038   2.543   1.626   1.917
  673SOL    HW2 2039   2.494   1.527   2.037
  674SOL     OW 2040   2.125   0.326   2.582
  674SOL    HW1 2041   2.046   0.377   2.548
  674SOL    HW2 2042   2.116   0.311   2.680
  675SOL     OW 2043   2.452   1.487   2.353
  675SOL    HW1 2044   2.494   1.429   2.283
  675SOL    HW2 2045   2.408   1.566   2.309
  676SOL     OW 2046   2.117   1.348   2.152
  676SOL    HW1 2047   2.021   1.349   2.125
  676SOL    HW2 2048   2.129   1.401   2.236
  677SOL     OW 2049   1.937   0.345   1.895
  677SOL    HW1 2050   1.845   0.317   1.866
  677SOL    HW2 2051   1.968   0.422   1.839
  678SOL     OW 2052   1.934   0.166   2.180
  678SOL    HW1 2053   1.917   0.249   2.126
  678SOL    HW2 2054   2.024   0.129   2.158
  679SOL     OW 2055   3.087   0.325   2.311
  679SOL    HW1 2056   3.152   0.251   2.300
  679SOL    HW2 2057   3.107   0.375   2.395
  680SOL     OW 2058   2.456   0.745   2.514
  680SOL    HW1 2059   2.506   0.830   2.495
  680SOL    HW2 2060   2.368   0.747   2.466
  681SOL     OW 2061   2.721   1.374   1.878
  681SOL    HW1 2062   2.675   1.389   1.966
  681SOL    HW2 2063   2.765   1.459   1.848
  682SOL     OW 2064   2.523   1.790   2.815
  682SOL    HW1 2065   2.477   1.878   2.802
  682SOL    HW2 2066   2.622   1.802   2.808
  683SOL     OW 2067   2.721   0.956   2.723
  683SOL    HW1 2068   2.775   0.887   2.771
  683SOL    HW2 2069   2.689   1.025   2.789
  684SOL     OW 2070   1.941   1.240   2.515
  684SOL    HW1 2071   1.940   1.193   2.603
  684SOL    HW2 2072   2.023   1.212   2.464
  685SOL     OW 2073   2.290   0.424   2.382
  685SOL    HW1 2074   2.320   0.352   2.320
  685SOL    HW2 2075   2.251   0.384   2.465
  686SOL     OW 2076   2.674   1.586   2.549
  686SOL    HW1 2077   2.706   1.596   2.455
  686SOL    HW2 2078   2.595   1.524   2.551
  687SOL     OW 2079   2.632   1.330   2.163
  687SOL    HW1 2080   2.586   1.243   2.180
  687SOL    HW2 2081   2.723   1.327   2.204
  688SOL     OW 2082   1.901   1.077   2.162
  688SOL    HW1 2083   2.000   1.066   2.153
  688SOL    HW2 2084   1.861   0.991   2.194
  689SOL     OW 2085   2.737   1.646   2.199
  689SOL    HW1 2086   2.660   1.611   2.145
  689SOL    HW2 2087   2.705   1.717   2.261
  690SOL     OW 2088   2.092   2.490   0.113
  690SOL    HW1 2089   1.999   2.488   0.150
  690SOL    HW2 2090   2.093   2.451   0.021
  691SOL     OW 2091   2.087   2.137   0.996
  691SOL    HW1 2092   2.122   2.120   1.088
  691SOL    HW2 2093   1.999   2.092   0.984
  692SOL     OW 2094   1.881   2.230   0.647
  692SOL    HW1 2095   1.799   2.273   0.686
  692SOL    HW2 2096   1.853   2.157   0.584
  693SOL     OW 2097   2.630   3.006   1.023
  693SOL    HW1 2098   2.552   3.023   1.083
  693SOL    HW2 2099   2.664   3.093   0.987
  694SOL     OW 2100   2.712   2.660   1.823
  694SOL    HW1 2101   2.708   2.736   1.888
  694SOL    HW2 2102   2.734   2.696   1.732
  695SOL     OW 2103   2.547   2.874   0.665
  695SOL    HW1 2104   2.616   2.858   0.735
  695SOL    HW2 2105   2.474   2.931   0.703
  696SOL     OW 2106   2.300   2.254   1.499
  696SOL    HW1 2107   2.382   2.198   1.508
  696SOL    HW2 2108   2.219   2.196   1.503
  697SOL     OW 2109   1.984   2.505   0.563
  697SOL    HW1 2110   1.939   2.417   0.580
  697SOL    HW2 2111   1.983   2.559   0.647
  698SOL     OW 2112   1.975   2.599   1.597
  698SOL    HW1 2113   2.063   2.586   1.642
  698SOL    HW2 2114   1.962   2.696   1.575
  699SOL     OW 2115   2.671   1.866   0.502
  699SOL    HW1 2116   2.711   1.957   0.493
  699SOL    HW2 2117   2.571   1.874   0.508
  700SOL     OW 2118   2.059   2.838   1.264
  700SOL    HW1 2119   2.148   2.793   1.250
  700SOL    HW2 2120   1.986   2.773   1.245
  701SOL     OW 2121   2.179   2.113   1.801
  701SOL    HW1 2122   2.250   2.184   1.807
  701SOL    HW2 2123   2.091   2.152   1.829
  702SOL     OW 2124   2.460   2.591   0.270
  702SOL    HW1 2125   2.484   2.660   0.202
  702SOL    HW2 2126   2.382   2.624   0.324
  703SOL     OW 2127   2.669   2.467   1.465
  703SOL    HW1 2128   2.622   2.464   1.554
  703SOL    HW2 2129   2.618   2.412   1.399
  704SOL     OW 2130   2.853   2.272   1.242
  704SOL    HW1 2131   2.776   2.306   1.296
  704SOL    HW2 2132   2.819   2.221   1.163
  705SOL     OW 2133   1.938   2.673   0.789
  705SOL    HW1 2134   2.037   2.661   0.798
  705SOL    HW2 2135   1.914   2.768   0.810
  706SOL     OW 2136   2.727   2.210   0.195
  706SOL    HW1 2137   2.786   2.273   0.146
  706SOL    HW2 2138   2.746   2.116   0.166
  707SOL     OW 2139   2.412   2.058   0.885
  707SOL    HW1 2140   2.407   2.053   0.985
  707SOL    HW2 2141   2.414   2.154   0.856
  708SOL     OW 2142   2.064   2.147   1.498
  708SOL    HW1 2143   1.984   2.207   1.485
  708SOL    HW2 2144   2.054   2.098   1.584
  709SOL     OW 2145   2.244   2.562   0.480
  709SOL    HW1 2146   2.289   2.472   0.477
  709SOL    HW2 2147   2.150   2.551   0.513
  710SOL     OW 2148   2.476   1.984   0.117
  710SOL    HW1 2149   2.574   1.962   0.124
  710SOL    HW2 2150   2.445   1.967   0.024
  711SOL     OW 2151   2.643   2.126   1.749
  711SOL    HW1 2152   2.710   2.065   1.792
  711SOL    HW2 2153   2.570   2.145   1.814
  712SOL     OW 2154   2.784   2.365   0.899
  712SOL    HW1 2155   2.759   2.356   0.803
  712SOL    HW2 2156   2.832   2.283   0.930
  713SOL     OW 2157   2.401   1.926   0.512
  713SOL    HW1 2158   2.320   1.927   0.570
  713SOL    HW2 2159   2.404   2.009   0.457
  714SOL     OW 2160   2.797   2.098   0.480
  714SOL    HW1 2161   2.749   2.139   0.402
  714SOL    HW2 2162   2.896   2.096   0.461
  715SOL     OW 2163   1.940   2.418   1.386
  715SOL    HW1 2164   2.032   2.417   1.345
  715SOL    HW2 2165   1.934   2.492   1.453
  716SOL     OW 2166   2.423   2.084   1.147
  716SOL    HW1 2167   2.461   2.000   1.184
  716SOL    HW2 2168   2.335   2.103   1.191
  717SOL     OW 2169   2.879   1.901   0.753
  717SOL    HW1 2170   2.807   1.906   0.684
  717SOL    HW2 2171   2.855   1.832   0.822
  718SOL     OW 2172   2.389   2.118   0.328
  718SOL    HW1 2173   2.416   2.059   0.253
  718SOL    HW2 2174   2.389   2.213   0.297
  719SOL     OW 2175   2.777   1.951   1.402
  719SOL    HW1 2176   2.802   1.931   1.307
  719SOL    HW2 2177   2.849   2.007   1.444
  720SOL     OW 2178   2.842   2.978   1.719
  720SOL    HW1 2179   2.743   2.984   1.729
  720SOL    HW2 2180   2.865   2.898   1.663
  721SOL     OW 2181   2.272   2.675   1.251
  721SOL    HW1 2182   2.358   2.687   1.301
  721SOL    HW2 2183   2.230   2.588   1.278
  722SOL     OW 2184   2.428   2.399   0.865
  722SOL    HW1 2185   2.440   2.465   0.791
  722SOL    HW2 2186   2.474   2.433   0.948
  723SOL     OW 2187   2.264   2.613   1.598
  723SOL    HW1 2188   2.332   2.668   1.551
  723SOL    HW2 2189   2.304   2.525   1.625
  724SOL     OW 2190   2.875   1.967   1.770
  724SOL    HW1 2191   2.881   2.052   1.718
  724SOL    HW2 2192   2.907   1.891   1.713
  725SOL     OW 2193   2.366   1.912   1.740
  725SOL    HW1 2194   2.324   1.855   1.670
  725SOL    HW2 2195   2.300   1.981   1.772
  726SOL     OW 2196   2.435   2.732   1.029
  726SOL    HW1 2197   2.479   2.821   1.020
  726SOL    HW2 2198   2.372   2.732   1.106
  727SOL     OW 2199   3.071   2.387   0.275
  727SOL    HW1 2200   3.084   2.303   0.329
  727SOL    HW2 2201   3.042   2.461   0.335
  728SOL     OW 2202   2.169   2.075   1.231
  728SOL    HW1 2203   2.146   2.112   1.321
  728SOL    HW2 2204   2.139   1.980   1.225
  729SOL     OW 2205   2.594   2.496   1.064
  729SOL    HW1 2206   2.653   2.470   0.988
  729SOL    HW2 2207   2.566   2.592   1.053
  730SOL     OW 2208   2.169   1.925   0.618
  730SOL    HW1 2209   2.158   2.019   0.651
  730SOL    HW2 2210   2.164   1.862   0.695
  731SOL     OW 2211   2.885   2.628   0.966
  731SOL    HW1 2212   2.900   2.649   1.062
  731SOL    HW2 2213   2.855   2.533   0.957
  732SOL     OW 2214   2.212   2.760   1.804
  732SOL    HW1 2215   2.288   2.804   1.852
  732SOL    HW2 2216   2.247   2.713   1.722
  733SOL     OW 2217   2.181   2.672   0.949
  733SOL    HW1 2218   2.274   2.708   0.954
  733SOL    HW2 2219   2.175   2.587   1.001
  734SOL     OW 2220   2.201   2.371   1.006
  734SOL    HW1 2221   2.149   2.288   0.989
  734SOL    HW2 2222   2.278   2.376   0.942
  735SOL     OW 2223   2.864   2.658   1.238
  735SOL    HW1 2224   2.905   2.626   1.324
  735SOL    HW2 2225   2.768   2.631   1.235
  736SOL     OW 2226   1.902   2.406   1.114
  736SOL    HW1 2227   1.987   2.373   1.073
  736SOL    HW2 2228   1.915   2.421   1.212
  737SOL     OW 2229   2.051   2.382   1.722
  737SOL    HW1 2230   2.110   2.342   1.652
  737SOL    HW2 2231   1.993   2.453   1.681
  738SOL     OW 2232   2.677   2.434   0.325
  738SOL    HW1 2233   2.684   2.345   0.279
  738SOL    HW2 2234   2.583   2.468   0.317
  739SOL     OW 2235   2.533   2.326   1.269
  739SOL    HW1 2236   2.499   2.237   1.239
  739SOL    HW2 2237   2.559   2.380   1.189
  740SOL     OW 2238   2.335   2.362   0.191
  740SOL    HW1 2239   2.396   2.442   0.195
  740SOL    HW2 2240   2.240   2.393   0.198
  741SOL     OW 2241   2.021   2.999   1.466
  741SOL    HW1 2242   2.043   2.938   1.542
  741SOL    HW2 2243   2.031   2.950   1.380
  742SOL     OW 2244   3.164   2.717   0.309
  742SOL    HW1 2245   3.078   2.686   0.351
  742SOL    HW2 2246   3.160   2.703   0.210
  743SOL     OW 2247   2.765   1.948   0.133
  743SOL    HW1 2248   2.816   1.949   0.047
  743SOL    HW2 2249   2.821   1.906   0.204
  744SOL     OW 2250   2.125   2.188   0.720
  744SOL    HW1 2251   2.046   2.239   0.686
  744SOL    HW2 2252   2.116   2.173   0.818
  745SOL     OW 2253   2.778   2.772   0.291
  745SOL    HW1 2254   2.841   2.810   0.223
  745SOL    HW2 2255   2.818   2.689   0.330
  746SOL     OW 2256   2.876   2.098   0.971
  746SOL    HW1 2257   2.868   2.062   0.878
  746SOL    HW2 2258   2.874   2.022   1.036
  747SOL     OW 2259   1.967   2.875   1.726
  747SOL    HW1 2260   1.890   2.842   1.780
  747SOL    HW2 2261   2.052   2.845   1.768
  748SOL     OW 2262   2.534   2.065   1.489
  748SOL    HW1 2263   2.624   2.049   1.449
  748SOL    HW2 2264   2.542   2.070   1.588
  749SOL     OW 2265   1.937   2.207   0.033
  749SOL    HW1 2266   1.845   2.179   0.004
  749SOL    HW2 2267   1.968   2.284  -0.023
  750SOL     OW 2268   2.475   2.704   1.431
  750SOL    HW1 2269   2.531   2.785   1.414
  750SOL    HW2 2270   2.534   2.624   1.434
  751SOL     OW 2271   2.578   2.427   1.708
  751SOL    HW1 2272   2.597   2.492   1.782
  751SOL    HW2 2273   2.638   2.347   1.717
  752SOL     OW 2274   3.087   2.187   0.449
  752SOL    HW1 2275   3.152   2.113   0.438
  752SOL    HW2 2276   3.107   2.237   0.533
  753SOL     OW 2277   2.456   2.607   0.652
  753SOL    HW1 2278   2.506   2.692   0.633
  753SOL    HW2 2279   2.368   2.609   0.604
  754SOL     OW 2280   2.945   2.846   0.087
  754SOL    HW1 2281   2.922   2.899   0.005
  754SOL    HW2 2282   3.026   2.790   0.068
  755SOL     OW 2283   2.290   2.286   0.520
  755SOL    HW1 2284   2.320   2.214   0.458
  755SOL    HW2 2285   2.251   2.246   0.603
  756SOL     OW 2286   2.179   2.409   1.280
  756SOL    HW1 2287   2.217   2.350   1.352
  756SOL    HW2 2288   2.219   2.383   1.192
  757SOL     OW 2289   2.863   1.896   1.154
  757SOL    HW1 2290   2.800   1.824   1.123
  757SOL    HW2 2291   2.956   1.860   1.154
  758SOL     OW 2292   2.092   2.490   1.975
  758SOL    HW1 2293   1.999   2.488   2.012
  758SOL    HW2 2294   2.093   2.451   1.883
  759SOL     OW 2295   2.087   2.137   2.858
  759SOL    HW1 2296   2.122   2.120   2.950
  759SOL    HW2 2297   1.999   2.092   2.846
  760SOL     OW 2298   1.881   2.230   2.509
  760SOL    HW1 2299   1.799   2.273   2.548
  760SOL    HW2 2300   1.853   2.157   2.446
  761SOL     OW 2301   2.547   2.874   2.527
  761SOL    HW1 2302   2.616   2.858   2.597
  761SOL    HW2 2303   2.474   2.931   2.565
  762SOL     OW 2304   1.984   2.505   2.425
  762SOL    HW1 2305   1.939   2.417   2.442
  762SOL    HW2 2306   1.983   2.559   2.509
  763SOL     OW 2307   2.475   3.227   2.588
  763SOL    HW1 2308   2.426   3.140   2.597
  763SOL    HW2 2309   2.452   3.270   2.501
  764SOL     OW 2310   2.671   1.866   2.364
  764SOL    HW1 2311   2.711   1.957   2.355
  764SOL    HW2 2312   2.571   1.874   2.370
  765SOL     OW 2313   2.460   2.591   2.132
  765SOL    HW1 2314   2.484   2.660   2.064
  765SOL    HW2 2315   2.382   2.624   2.186
  766SOL     OW 2316   1.938   2.673   2.651
  766SOL    HW1 2317   2.037   2.661   2.660
  766SOL    HW2 2318   1.914   2.768   2.672
  767SOL     OW 2319   2.727   2.210   2.057
  767SOL    HW1 2320   2.786   2.273   2.008
  767SOL    HW2 2321   2.746   2.116   2.028
  768SOL     OW 2322   2.244   2.562   2.342
  768SOL    HW1 2323   2.289   2.472   2.339
  768SOL    HW2 2324   2.150   2.551   2.375
  769SOL     OW 2325   2.476   1.984   1.979
  769SOL    HW1 2326   2.574   1.962   1.986
  769SOL    HW2 2327   2.445   1.967   1.886
  770SOL     OW 2328   2.784   2.365   2.761
  770SOL    HW1 2329   2.759   2.356   2.665
  770SOL    HW2 2330   2.832   2.283   2.792
  771SOL     OW 2331   2.401   1.926   2.374
  771SOL    HW1 2332   2.320   1.927   2.432
  771SOL    HW2 2333   2.404   2.009   2.319
  772SOL     OW 2334   2.159   1.897   2.033
  772SOL    HW1 2335   2.208   1.981   2.012
  772SOL    HW2 2336   2.221   1.832   2.078
  773SOL     OW 2337   2.797   2.098   2.342
  773SOL    HW1 2338   2.749   2.139   2.264
  773SOL    HW2 2339   2.896   2.096   2.323
  774SOL     OW 2340   2.879   1.901   2.615
  774SOL    HW1 2341   2.807   1.906   2.546
  774SOL    HW2 2342   2.855   1.832   2.684
  775SOL     OW 2343   2.389   2.118   2.190
  775SOL    HW1 2344   2.416   2.059   2.115
  775SOL    HW2 2345   2.389   2.213   2.159
  776SOL     OW 2346   2.428   2.399   2.727
  776SOL    HW1 2347   2.440   2.465   2.653
  776SOL    HW2 2348   2.474   2.433   2.810
  777SOL     OW 2349   2.435   2.732   2.891
  777SOL    HW1 2350   2.479   2.821   2.882
  777SOL    HW2 2351   2.372   2.732   2.968
  778SOL     OW 2352   3.071   2.387   2.137
  778SOL    HW1 2353   3.084   2.303   2.191
  778SOL    HW2 2354   3.042   2.461   2.197
  779SOL     OW 2355   2.169   2.075   3.093
  779SOL    HW1 2356   2.146   2.112   3.183
  779SOL    HW2 2357   2.139   1.980   3.087
  780SOL     OW 2358   2.594   2.496   2.926
  780SOL    HW1 2359   2.653   2.470   2.850
  780SOL    HW2 2360   2.566   2.592   2.915
  781SOL     OW 2361   2.169   1.925   2.480
  781SOL    HW1 2362   2.158   2.019   2.513
  781SOL    HW2 2363   2.164   1.862   2.557
  782SOL     OW 2364   2.885   2.628   2.828
  782SOL    HW1 2365   2.900   2.649   2.924
  782SOL    HW2 2366   2.855   2.533   2.819
  783SOL     OW 2367   2.930   3.195   2.711
  783SOL    HW1 2368   2.937   3.111   2.656
  783SOL    HW2 2369   2.992   3.264   2.675
  784SOL     OW 2370   2.181   2.672   2.811
  784SOL    HW1 2371   2.274   2.708   2.816
  784SOL    HW2 2372   2.175   2.587   2.863
  785SOL     OW 2373   2.677   2.434   2.187
  785SOL    HW1 2374   2.684   2.345   2.141
  785SOL    HW2 2375   2.583   2.468   2.179
  786SOL     OW 2376   2.533   2.326   3.131
  786SOL    HW1 2377   2.499   2.237   3.101
  786SOL    HW2 2378   2.559   2.380   3.051
  787SOL     OW 2379   2.335   2.362   2.053
  787SOL    HW1 2380   2.396   2.442   2.057
  787SOL    HW2 2381   2.240   2.393   2.060
  788SOL     OW 2382   3.164   2.717   2.171
  788SOL    HW1 2383   3.078   2.686   2.213
  788SOL    HW2 2384   3.160   2.703   2.072
  789SOL     OW 2385   2.125   2.188   2.582
  789SOL    HW1 2386   2.046   2.239   2.548
  789SOL    HW2 2387   2.116   2.173   2.680
  790SOL     OW 2388   2.778   2.772   2.153
  790SOL    HW1 2389   2.841   2.810   2.085
  790SOL    HW2 2390   2.818   2.689   2.192
  791SOL     OW 2391   1.937   2.207   1.895
  791SOL    HW1 2392   1.845   2.179   1.866
  791SOL    HW2 2393   1.968   2.284   1.839
  792SOL     OW 2394   1.934   2.028   2.180
  792SOL    HW1 2395   1.917   2.111   2.126
  792SOL    HW2 2396   2.024   1.991   2.158
  793SOL     OW 2397   3.087   2.187   2.311
  793SOL    HW1 2398   3.152   2.113   2.300
  793SOL    HW2 2399   3.107   2.237   2.395
  794SOL     OW 2400   2.456   2.607   2.514
  794SOL    HW1 2401   2.506   2.692   2.495
  794SOL    HW2 2402   2.368   2.609   2.466
  795SOL     OW 2403   2.290   2.286   2.382
  795SOL    HW1 2404   2.320   2.214   2.320
  795SOL    HW2 2405   2.251   2.246   2.465
   2.90606   2.90606   2.90606
