mobley_3775790_GMX.gro created by acpype (v: 2023.10.27) on Thu May 14 14:00:53 2026
 1594
    1MOL     C1    1   1.381   1.345   1.149
    1MOL     C2    2   1.263   1.298   1.087
    1MOL     C3    3   1.372   1.315   1.283
    1MOL     C4    4   1.185   1.240   1.185
    1MOL     C5    5   1.204   1.204   1.431
    1MOL     N1    6   1.252   1.252   1.304
    1MOL     H1    7   1.464   1.396   1.102
    1MOL     H2    8   1.238   1.305   0.982
    1MOL     H3    9   1.440   1.334   1.366
    1MOL     H4   10   1.088   1.193   1.179
    1MOL     H5   11   1.282   1.220   1.505
    1MOL     H6   12   1.113   1.258   1.459
    1MOL     H7   13   1.180   1.097   1.423
    2SOL     OW   14   0.230   0.628   0.113
    2SOL    HW1   15   0.137   0.626   0.150
    2SOL    HW2   16   0.231   0.589   0.021
    3SOL     OW   17   0.225   0.275   0.996
    3SOL    HW1   18   0.260   0.258   1.088
    3SOL    HW2   19   0.137   0.230   0.984
    4SOL     OW   20   0.019   0.368   0.647
    4SOL    HW1   21  -0.063   0.411   0.686
    4SOL    HW2   22  -0.009   0.295   0.584
    5SOL     OW   23   0.569   1.275   1.165
    5SOL    HW1   24   0.476   1.268   1.128
    5SOL    HW2   25   0.580   1.364   1.209
    6SOL     OW   26   1.555   1.511   0.703
    6SOL    HW1   27   1.498   1.495   0.784
    6SOL    HW2   28   1.496   1.521   0.623
    7SOL     OW   29   1.135   0.703   0.717
    7SOL    HW1   30   1.192   0.781   0.692
    7SOL    HW2   31   1.075   0.729   0.793
    8SOL     OW   32   1.755   0.607   0.231
    8SOL    HW1   33   1.743   0.594   0.132
    8SOL    HW2   34   1.725   0.526   0.280
    9SOL     OW   35   0.768   1.144   1.023
    9SOL    HW1   36   0.690   1.161   1.083
    9SOL    HW2   37   0.802   1.231   0.987
   10SOL     OW   38   0.850   0.798   1.823
   10SOL    HW1   39   0.846   0.874   1.888
   10SOL    HW2   40   0.872   0.834   1.732
   11SOL     OW   41   0.685   1.012   0.665
   11SOL    HW1   42   0.754   0.996   0.735
   11SOL    HW2   43   0.612   1.069   0.703
   12SOL     OW   44   0.686   1.161   1.803
   12SOL    HW1   45   0.746   1.240   1.817
   12SOL    HW2   46   0.600   1.192   1.762
   13SOL     OW   47   0.335   1.435   1.061
   13SOL    HW1   48   0.257   1.404   1.008
   13SOL    HW2   49   0.393   1.493   1.004
   14SOL     OW   50   0.438   0.392   1.499
   14SOL    HW1   51   0.520   0.336   1.508
   14SOL    HW2   52   0.357   0.334   1.503
   15SOL     OW   53   1.603   0.447   0.737
   15SOL    HW1   54   1.529   0.493   0.687
   15SOL    HW2   55   1.654   0.515   0.790
   16SOL     OW   56   0.231   1.713   0.483
   16SOL    HW1   57   0.265   1.790   0.537
   16SOL    HW2   58   0.275   1.713   0.393
   17SOL     OW   59   1.127   1.341   1.690
   17SOL    HW1   60   1.174   1.341   1.778
   17SOL    HW2   61   1.079   1.254   1.679
   18SOL     OW   62   0.230   1.434   0.538
   18SOL    HW1   63   0.204   1.530   0.538
   18SOL    HW2   64   0.159   1.380   0.583
   19SOL     OW   65   0.240   1.091   0.886
   19SOL    HW1   66   0.254   1.007   0.938
   19SOL    HW2   67   0.185   1.155   0.941
   20SOL     OW   68   0.620   1.786   1.439
   20SOL    HW1   69   0.528   1.769   1.474
   20SOL    HW2   70   0.648   1.878   1.465
   21SOL     OW   71   0.606   0.964   0.123
   21SOL    HW1   72   0.613   1.048   0.069
   21SOL    HW2   73   0.652   0.977   0.211
   22SOL     OW   74   1.594   0.114   1.480
   22SOL    HW1   75   1.576   0.181   1.408
   22SOL    HW2   76   1.591   0.160   1.569
   23SOL     OW   77   0.122   0.643   0.563
   23SOL    HW1   78   0.077   0.555   0.580
   23SOL    HW2   79   0.121   0.697   0.647
   24SOL     OW   80   1.842   1.767   0.359
   24SOL    HW1   81   1.896   1.738   0.439
   24SOL    HW2   82   1.872   1.857   0.330
   25SOL     OW   83   0.027   1.596   0.117
   25SOL    HW1   84   0.008   1.500   0.138
   25SOL    HW2   85  -0.006   1.654   0.192
   26SOL     OW   86   1.689   0.922   0.612
   26SOL    HW1   87   1.784   0.893   0.620
   26SOL    HW2   88   1.681   0.987   0.537
   27SOL     OW   89   1.641   1.108   0.432
   27SOL    HW1   90   1.727   1.110   0.380
   27SOL    HW2   91   1.655   1.155   0.520
   28SOL     OW   92   0.113   0.737   1.597
   28SOL    HW1   93   0.201   0.724   1.642
   28SOL    HW2   94   0.100   0.834   1.575
   29SOL     OW   95   0.613   1.365   0.726
   29SOL    HW1   96   0.564   1.278   0.735
   29SOL    HW2   97   0.590   1.408   0.639
   30SOL     OW   98   0.809   0.004   0.502
   30SOL    HW1   99   0.849   0.095   0.493
   30SOL    HW2  100   0.709   0.012   0.508
   31SOL     OW  101   0.197   0.976   1.264
   31SOL    HW1  102   0.286   0.931   1.250
   31SOL    HW2  103   0.124   0.911   1.245
   32SOL     OW  104   1.525   0.999   0.190
   32SOL    HW1  105   1.462   0.923   0.203
   32SOL    HW2  106   1.573   1.017   0.276
   33SOL     OW  107   1.187   1.792   1.616
   33SOL    HW1  108   1.211   1.852   1.540
   33SOL    HW2  109   1.194   1.697   1.586
   34SOL     OW  110   0.317   0.251   1.801
   34SOL    HW1  111   0.388   0.322   1.807
   34SOL    HW2  112   0.229   0.290   1.829
   35SOL     OW  113   1.667   1.714   0.572
   35SOL    HW1  114   1.626   1.691   0.484
   35SOL    HW2  115   1.649   1.640   0.637
   36SOL     OW  116   0.598   0.729   0.270
   36SOL    HW1  117   0.622   0.798   0.202
   36SOL    HW2  118   0.520   0.762   0.324
   37SOL     OW  119   1.281   0.345   0.944
   37SOL    HW1  120   1.195   0.295   0.931
   37SOL    HW2  121   1.343   0.291   1.000
   38SOL     OW  122   1.576   1.662   0.307
   38SOL    HW1  123   1.665   1.708   0.310
   38SOL    HW2  124   1.555   1.638   0.212
   39SOL     OW  125   0.807   0.605   1.465
   39SOL    HW1  126   0.760   0.602   1.554
   39SOL    HW2  127   0.756   0.550   1.399
   40SOL     OW  128   1.394   0.469   1.674
   40SOL    HW1  129   1.374   0.512   1.762
   40SOL    HW2  130   1.472   0.407   1.683
   41SOL     OW  131   0.973   0.890   1.572
   41SOL    HW1  132   1.019   0.806   1.543
   41SOL    HW2  133   0.917   0.924   1.497
   42SOL     OW  134   0.991   0.410   1.242
   42SOL    HW1  135   0.914   0.444   1.296
   42SOL    HW2  136   0.957   0.359   1.163
   43SOL     OW  137   1.041   0.701   0.429
   43SOL    HW1  138   1.067   0.697   0.525
   43SOL    HW2  139   0.956   0.650   0.415
   44SOL     OW  140   0.076   0.811   0.789
   44SOL    HW1  141   0.175   0.799   0.798
   44SOL    HW2  142   0.052   0.906   0.810
   45SOL     OW  143   0.130   1.821   1.571
   45SOL    HW1  144   0.120   1.806   1.670
   45SOL    HW2  145   0.044   1.857   1.535
   46SOL     OW  146   0.865   0.348   0.195
   46SOL    HW1  147   0.924   0.411   0.146
   46SOL    HW2  148   0.884   0.254   0.166
   47SOL     OW  149   1.719   0.585   1.831
   47SOL    HW1  150   1.693   0.674   1.795
   47SOL    HW2  151   1.717   0.517   1.758
   48SOL     OW  152   1.362   1.144   0.545
   48SOL    HW1  153   1.445   1.115   0.497
   48SOL    HW2  154   1.313   1.211   0.489
   49SOL     OW  155   0.550   0.196   0.885
   49SOL    HW1  156   0.545   0.191   0.985
   49SOL    HW2  157   0.552   0.292   0.856
   50SOL     OW  158   1.008   1.456   0.477
   50SOL    HW1  159   0.962   1.528   0.425
   50SOL    HW2  160   1.004   1.476   0.575
   51SOL     OW  161   0.351   1.801   0.853
   51SOL    HW1  162   0.401   1.715   0.859
   51SOL    HW2  163   0.416   1.878   0.850
   52SOL     OW  164   1.795   1.066   0.873
   52SOL    HW1  165   1.733   1.051   0.797
   52SOL    HW2  166   1.743   1.077   0.958
   53SOL     OW  167   1.227   1.550   1.506
   53SOL    HW1  168   1.233   1.473   1.570
   53SOL    HW2  169   1.175   1.524   1.426
   54SOL     OW  170   0.321   0.943   0.242
   54SOL    HW1  171   0.403   0.982   0.200
   54SOL    HW2  172   0.294   0.861   0.193
   55SOL     OW  173   1.458   0.735   0.728
   55SOL    HW1  174   1.453   0.670   0.803
   55SOL    HW2  175   1.538   0.794   0.741
   56SOL     OW  176   0.461   1.266   1.727
   56SOL    HW1  177   0.411   1.267   1.641
   56SOL    HW2  178   0.398   1.248   1.803
   57SOL     OW  179   1.111   1.776   0.237
   57SOL    HW1  180   1.051   1.714   0.287
   57SOL    HW2  181   1.142   1.732   0.152
   58SOL     OW  182   0.202   0.285   1.498
   58SOL    HW1  183   0.122   0.345   1.485
   58SOL    HW2  184   0.192   0.236   1.584
   59SOL     OW  185   1.632   1.377   0.081
   59SOL    HW1  186   1.600   1.471   0.071
   59SOL    HW2  187   1.556   1.314   0.069
   60SOL     OW  188   0.464   1.743   0.323
   60SOL    HW1  189   0.497   1.782   0.409
   60SOL    HW2  190   0.540   1.736   0.258
   61SOL     OW  191   1.400   0.107   0.426
   61SOL    HW1  192   1.376   0.070   0.336
   61SOL    HW2  193   1.499   0.123   0.430
   62SOL     OW  194   0.249   1.785   1.241
   62SOL    HW1  195   0.306   1.720   1.291
   62SOL    HW2  196   0.233   1.752   1.148
   63SOL     OW  197   0.940   1.698   0.904
   63SOL    HW1  198   1.020   1.641   0.925
   63SOL    HW2  199   0.891   1.658   0.827
   64SOL     OW  200   0.382   0.700   0.480
   64SOL    HW1  201   0.427   0.610   0.477
   64SOL    HW2  202   0.288   0.689   0.513
   65SOL     OW  203   1.547   0.222   1.729
   65SOL    HW1  204   1.542   0.259   1.821
   65SOL    HW2  205   1.475   0.153   1.717
   66SOL     OW  206   0.614   0.122   0.117
   66SOL    HW1  207   0.712   0.100   0.124
   66SOL    HW2  208   0.583   0.105   0.024
   67SOL     OW  209   0.781   0.264   1.749
   67SOL    HW1  210   0.848   0.203   1.792
   67SOL    HW2  211   0.708   0.283   1.814
   68SOL     OW  212   0.888   1.514   1.195
   68SOL    HW1  213   0.865   1.489   1.101
   68SOL    HW2  214   0.949   1.445   1.234
   69SOL     OW  215   1.351   0.590   1.433
   69SOL    HW1  216   1.379   0.547   1.518
   69SOL    HW2  217   1.376   0.686   1.434
   70SOL     OW  218   0.803   1.402   0.924
   70SOL    HW1  219   0.893   1.416   0.882
   70SOL    HW2  220   0.732   1.404   0.853
   71SOL     OW  221   0.922   0.503   0.899
   71SOL    HW1  222   0.897   0.494   0.803
   71SOL    HW2  223   0.970   0.421   0.930
   72SOL     OW  224   0.539   0.064   0.512
   72SOL    HW1  225   0.458   0.065   0.570
   72SOL    HW2  226   0.542   0.147   0.457
   73SOL     OW  227   1.434   1.188   0.041
   73SOL    HW1  228   1.466   1.112   0.098
   73SOL    HW2  229   1.342   1.215   0.071
   74SOL     OW  230   0.297   0.035   0.171
   74SOL    HW1  231   0.346   0.119   0.150
   74SOL    HW2  232   0.359  -0.030   0.216
   75SOL     OW  233   0.935   0.236   0.480
   75SOL    HW1  234   0.887   0.277   0.402
   75SOL    HW2  235   1.034   0.234   0.461
   76SOL     OW  236   1.076   0.683   1.464
   76SOL    HW1  237   0.996   0.622   1.467
   76SOL    HW2  238   1.157   0.630   1.440
   77SOL     OW  239   1.227   1.570   0.793
   77SOL    HW1  240   1.248   1.644   0.728
   77SOL    HW2  241   1.295   1.570   0.866
   78SOL     OW  242   0.459   1.152   0.741
   78SOL    HW1  243   0.388   1.125   0.806
   78SOL    HW2  244   0.433   1.124   0.648
   79SOL     OW  245   1.271   1.797   0.591
   79SOL    HW1  246   1.315   1.861   0.527
   79SOL    HW2  247   1.221   1.849   0.661
   80SOL     OW  248   1.032   0.549   0.016
   80SOL    HW1  249   0.991   0.631  -0.023
   80SOL    HW2  250   1.096   0.575   0.089
   81SOL     OW  251   0.078   0.556   1.386
   81SOL    HW1  252   0.170   0.555   1.345
   81SOL    HW2  253   0.072   0.630   1.453
   82SOL     OW  254   0.561   0.222   1.147
   82SOL    HW1  255   0.599   0.138   1.184
   82SOL    HW2  256   0.473   0.241   1.191
   83SOL     OW  257   0.866   0.454   0.642
   83SOL    HW1  258   0.834   0.526   0.580
   83SOL    HW2  259   0.890   0.373   0.589
   84SOL     OW  260   1.017   0.039   0.753
   84SOL    HW1  261   0.945   0.044   0.684
   84SOL    HW2  262   0.993  -0.030   0.822
   85SOL     OW  263   1.429   1.173   0.867
   85SOL    HW1  264   1.374   1.089   0.860
   85SOL    HW2  265   1.455   1.202   0.775
   86SOL     OW  266   1.466   0.590   0.992
   86SOL    HW1  267   1.436   0.495   0.999
   86SOL    HW2  268   1.539   0.606   1.058
   87SOL     OW  269   1.857   0.833   0.377
   87SOL    HW1  270   1.899   0.769   0.441
   87SOL    HW2  271   1.819   0.782   0.299
   88SOL     OW  272   0.488   1.385   0.174
   88SOL    HW1  273   0.401   1.370   0.221
   88SOL    HW2  274   0.471   1.411   0.079
   89SOL     OW  275   1.664   1.280   0.657
   89SOL    HW1  276   1.763   1.288   0.671
   89SOL    HW2  277   1.619   1.364   0.688
   90SOL     OW  278   1.390   0.575   0.078
   90SOL    HW1  279   1.336   0.554   0.159
   90SOL    HW2  280   1.481   0.534   0.087
   91SOL     OW  281   0.527   0.256   0.328
   91SOL    HW1  282   0.554   0.197   0.253
   91SOL    HW2  283   0.527   0.351   0.297
   92SOL     OW  284   1.754   1.223   1.588
   92SOL    HW1  285   1.845   1.184   1.575
   92SOL    HW2  286   1.762   1.319   1.612
   93SOL     OW  287   1.592   1.629   1.625
   93SOL    HW1  288   1.619   1.663   1.535
   93SOL    HW2  289   1.671   1.591   1.671
   94SOL     OW  290   1.638   1.099   1.079
   94SOL    HW1  291   1.643   1.180   1.138
   94SOL    HW2  292   1.552   1.101   1.028
   95SOL     OW  293   0.915   0.089   1.402
   95SOL    HW1  294   0.940   0.069   1.307
   95SOL    HW2  295   0.987   0.145   1.444
   96SOL     OW  296   0.980   1.116   1.719
   96SOL    HW1  297   0.881   1.122   1.729
   96SOL    HW2  298   1.003   1.036   1.663
   97SOL     OW  299   0.705   1.050   0.368
   97SOL    HW1  300   0.691   1.057   0.467
   97SOL    HW2  301   0.789   0.999   0.350
   98SOL     OW  302   0.410   0.813   1.251
   98SOL    HW1  303   0.496   0.825   1.301
   98SOL    HW2  304   0.368   0.726   1.278
   99SOL     OW  305   1.274   0.386   1.262
   99SOL    HW1  306   1.295   0.460   1.326
   99SOL    HW2  307   1.185   0.403   1.219
  100SOL     OW  308   0.064   1.564   1.331
  100SOL    HW1  309   0.018   1.646   1.297
  100SOL    HW2  310   0.162   1.583   1.340
  101SOL     OW  311   0.367   1.100   0.501
  101SOL    HW1  312   0.360   1.183   0.445
  101SOL    HW2  313   0.371   1.020   0.441
  102SOL     OW  314   0.566   0.537   0.865
  102SOL    HW1  315   0.578   0.603   0.791
  102SOL    HW2  316   0.612   0.571   0.948
  103SOL     OW  317   1.252   1.348   0.388
  103SOL    HW1  318   1.302   1.425   0.428
  103SOL    HW2  319   1.157   1.350   0.420
  104SOL     OW  320   1.582   0.639   0.472
  104SOL    HW1  321   1.551   0.700   0.545
  104SOL    HW2  322   1.632   0.691   0.403
  105SOL     OW  323   0.354   1.510   1.329
  105SOL    HW1  324   0.333   1.466   1.242
  105SOL    HW2  325   0.451   1.536   1.332
  106SOL     OW  326   0.402   0.751   1.598
  106SOL    HW1  327   0.470   0.806   1.551
  106SOL    HW2  328   0.442   0.663   1.625
  107SOL     OW  329   1.587   0.779   1.670
  107SOL    HW1  330   1.495   0.817   1.665
  107SOL    HW2  331   1.647   0.826   1.605
  108SOL     OW  332   1.013   0.105   1.770
  108SOL    HW1  333   1.019   0.190   1.718
  108SOL    HW2  334   1.045   0.029   1.713
  109SOL     OW  335   0.504   0.050   1.740
  109SOL    HW1  336   0.462  -0.007   1.670
  109SOL    HW2  337   0.438   0.119   1.772
  110SOL     OW  338   0.573   0.870   1.029
  110SOL    HW1  339   0.617   0.959   1.020
  110SOL    HW2  340   0.510   0.870   1.106
  111SOL     OW  341   1.360   0.862   1.045
  111SOL    HW1  342   1.285   0.862   0.979
  111SOL    HW2  343   1.397   0.770   1.054
  112SOL     OW  344   1.209   0.525   0.275
  112SOL    HW1  345   1.222   0.441   0.329
  112SOL    HW2  346   1.180   0.599   0.335
  113SOL     OW  347   0.307   0.213   1.231
  113SOL    HW1  348   0.284   0.250   1.321
  113SOL    HW2  349   0.277   0.118   1.225
  114SOL     OW  350   0.037   1.310   1.282
  114SOL    HW1  351   0.090   1.261   1.350
  114SOL    HW2  352   0.059   1.408   1.287
  115SOL     OW  353   0.732   0.634   1.064
  115SOL    HW1  354   0.791   0.608   0.988
  115SOL    HW2  355   0.704   0.730   1.053
  116SOL     OW  356   1.728   0.935   1.854
  116SOL    HW1  357   1.682   0.928   1.765
  116SOL    HW2  358   1.666   0.979   1.920
  117SOL     OW  359   0.307   0.063   0.618
  117SOL    HW1  360   0.296   0.157   0.651
  117SOL    HW2  361   0.302   0.000   0.695
  118SOL     OW  362   1.622   0.367   0.374
  118SOL    HW1  363   1.624   0.291   0.438
  118SOL    HW2  364   1.574   0.444   0.414
  119SOL     OW  365   1.023   0.766   0.966
  119SOL    HW1  366   1.038   0.787   1.062
  119SOL    HW2  367   0.993   0.671   0.957
  120SOL     OW  368   0.980   1.573   1.700
  120SOL    HW1  369   0.960   1.617   1.612
  120SOL    HW2  370   1.019   1.482   1.684
  121SOL     OW  371   1.859   1.518   1.605
  121SOL    HW1  372   1.873   1.545   1.510
  121SOL    HW2  373   1.942   1.540   1.658
  122SOL     OW  374   0.350   0.898   1.804
  122SOL    HW1  375   0.426   0.942   1.852
  122SOL    HW2  376   0.385   0.851   1.722
  123SOL     OW  377   1.540   0.274   0.125
  123SOL    HW1  378   1.479   0.199   0.148
  123SOL    HW2  379   1.562   0.326   0.208
  124SOL     OW  380   1.303   0.838   0.042
  124SOL    HW1  381   1.337   0.745   0.057
  124SOL    HW2  382   1.321   0.865  -0.053
  125SOL     OW  383   1.068   1.333   0.849
  125SOL    HW1  384   1.075   1.249   0.794
  125SOL    HW2  385   1.130   1.402   0.813
  126SOL     OW  386   0.319   0.810   0.949
  126SOL    HW1  387   0.412   0.846   0.954
  126SOL    HW2  388   0.313   0.725   1.001
  127SOL     OW  389   0.339   0.509   1.006
  127SOL    HW1  390   0.287   0.426   0.989
  127SOL    HW2  391   0.416   0.514   0.942
  128SOL     OW  392   1.138   0.380   1.678
  128SOL    HW1  393   1.093   0.443   1.742
  128SOL    HW2  394   1.231   0.411   1.661
  129SOL     OW  395   1.160   0.207   1.477
  129SOL    HW1  396   1.160   0.271   1.554
  129SOL    HW2  397   1.188   0.255   1.394
  130SOL     OW  398   0.008   1.326   0.200
  130SOL    HW1  399  -0.085   1.347   0.169
  130SOL    HW2  400   0.018   1.227   0.213
  131SOL     OW  401   0.088   1.801   0.927
  131SOL    HW1  402   0.046   1.715   0.900
  131SOL    HW2  403   0.182   1.804   0.893
  132SOL     OW  404   0.504   1.568   0.910
  132SOL    HW1  405   0.570   1.642   0.919
  132SOL    HW2  406   0.548   1.489   0.868
  133SOL     OW  407   1.002   0.796   1.238
  133SOL    HW1  408   1.043   0.764   1.324
  133SOL    HW2  409   0.906   0.769   1.235
  134SOL     OW  410   0.040   0.544   1.114
  134SOL    HW1  411   0.125   0.511   1.073
  134SOL    HW2  412   0.053   0.559   1.212
  135SOL     OW  413   0.189   0.520   1.722
  135SOL    HW1  414   0.248   0.480   1.652
  135SOL    HW2  415   0.131   0.591   1.681
  136SOL     OW  416   1.369   0.950   1.660
  136SOL    HW1  417   1.408   1.039   1.680
  136SOL    HW2  418   1.379   0.930   1.563
  137SOL     OW  419   0.815   0.572   0.325
  137SOL    HW1  420   0.822   0.483   0.279
  137SOL    HW2  421   0.721   0.606   0.317
  138SOL     OW  422   1.657   0.604   1.206
  138SOL    HW1  423   1.619   0.535   1.268
  138SOL    HW2  424   1.739   0.568   1.162
  139SOL     OW  425   0.252   1.564   1.744
  139SOL    HW1  426   0.222   1.621   1.820
  139SOL    HW2  427   0.245   1.467   1.770
  140SOL     OW  428   0.671   0.464   1.269
  140SOL    HW1  429   0.637   0.375   1.239
  140SOL    HW2  430   0.697   0.518   1.189
  141SOL     OW  431   0.930   1.678   1.465
  141SOL    HW1  432   0.906   1.660   1.370
  141SOL    HW2  433   0.960   1.772   1.475
  142SOL     OW  434   0.473   0.500   0.191
  142SOL    HW1  435   0.534   0.580   0.195
  142SOL    HW2  436   0.378   0.531   0.198
  143SOL     OW  437   0.159   1.137   1.466
  143SOL    HW1  438   0.181   1.076   1.542
  143SOL    HW2  439   0.169   1.088   1.380
  144SOL     OW  440   1.302   0.855   0.309
  144SOL    HW1  441   1.216   0.824   0.351
  144SOL    HW2  442   1.298   0.841   0.210
  145SOL     OW  443   1.759   1.747   1.154
  145SOL    HW1  444   1.820   1.777   1.081
  145SOL    HW2  445   1.721   1.658   1.132
  146SOL     OW  446   1.252   1.731   1.128
  146SOL    HW1  447   1.336   1.736   1.074
  146SOL    HW2  448   1.229   1.635   1.146
  147SOL     OW  449   0.083   1.258   1.022
  147SOL    HW1  450   0.078   1.257   1.122
  147SOL    HW2  451   0.000   1.217   0.984
  148SOL     OW  452   0.688   1.662   1.716
  148SOL    HW1  453   0.632   1.743   1.725
  148SOL    HW2  454   0.740   1.666   1.630
  149SOL     OW  455   0.903   0.086   0.133
  149SOL    HW1  456   0.954   0.087   0.047
  149SOL    HW2  457   0.959   0.044   0.204
  150SOL     OW  458   1.726   0.135   0.523
  150SOL    HW1  459   1.799   0.118   0.456
  150SOL    HW2  460   1.695   0.048   0.561
  151SOL     OW  461   1.388   1.573   0.477
  151SOL    HW1  462   1.455   1.585   0.403
  151SOL    HW2  463   1.348   1.662   0.500
  152SOL     OW  464   0.130   1.794   1.851
  152SOL    HW1  465   0.089   1.720   1.904
  152SOL    HW2  466   0.194   1.845   1.909
  153SOL     OW  467   1.280   0.927   0.672
  153SOL    HW1  468   1.340   0.846   0.674
  153SOL    HW2  469   1.320   0.996   0.612
  154SOL     OW  470   0.830   1.273   1.422
  154SOL    HW1  471   0.825   1.306   1.517
  154SOL    HW2  472   0.744   1.292   1.376
  155SOL     OW  473   0.672   1.616   0.154
  155SOL    HW1  474   0.681   1.626   0.055
  155SOL    HW2  475   0.632   1.527   0.175
  156SOL     OW  476   1.650   1.720   1.394
  156SOL    HW1  477   1.703   1.730   1.310
  156SOL    HW2  478   1.623   1.810   1.428
  157SOL     OW  479   1.841   0.175   0.963
  157SOL    HW1  480   1.880   0.090   0.927
  157SOL    HW2  481   1.743   0.177   0.944
  158SOL     OW  482   0.263   0.326   0.720
  158SOL    HW1  483   0.184   0.377   0.686
  158SOL    HW2  484   0.254   0.311   0.818
  159SOL     OW  485   1.194   1.612   0.031
  159SOL    HW1  486   1.200   1.519   0.068
  159SOL    HW2  487   1.135   1.612  -0.049
  160SOL     OW  488   0.822   1.002   1.372
  160SOL    HW1  489   0.862   1.001   1.280
  160SOL    HW2  490   0.832   1.094   1.412
  161SOL     OW  491   0.916   0.910   0.291
  161SOL    HW1  492   0.979   0.948   0.223
  161SOL    HW2  493   0.956   0.827   0.330
  162SOL     OW  494   1.504   1.607   0.044
  162SOL    HW1  495   1.412   1.644   0.051
  162SOL    HW2  496   1.542   1.627  -0.046
  163SOL     OW  497   0.372   1.288   1.490
  163SOL    HW1  498   0.359   1.381   1.456
  163SOL    HW2  499   0.288   1.236   1.477
  164SOL     OW  500   1.039   1.098   0.696
  164SOL    HW1  501   0.969   1.051   0.750
  164SOL    HW2  502   1.098   1.030   0.653
  165SOL     OW  503   1.014   0.236   0.971
  165SOL    HW1  504   1.006   0.200   0.878
  165SOL    HW2  505   1.012   0.160   1.036
  166SOL     OW  506   0.590   1.487   0.491
  166SOL    HW1  507   0.632   1.429   0.421
  166SOL    HW2  508   0.546   1.566   0.447
  167SOL     OW  509   1.709   0.385   1.381
  167SOL    HW1  510   1.782   0.454   1.385
  167SOL    HW2  511   1.737   0.310   1.322
  168SOL     OW  512   0.255   1.348   0.290
  168SOL    HW1  513   0.159   1.349   0.263
  168SOL    HW2  514   0.267   1.401   0.374
  169SOL     OW  515   0.105   1.013   1.726
  169SOL    HW1  516   0.028   0.980   1.780
  169SOL    HW2  517   0.190   0.983   1.768
  170SOL     OW  518   0.672   0.203   1.489
  170SOL    HW1  519   0.762   0.187   1.449
  170SOL    HW2  520   0.680   0.208   1.588
  171SOL     OW  521   0.075   0.345   0.033
  171SOL    HW1  522  -0.017   0.317   0.004
  171SOL    HW2  523   0.106   0.422  -0.023
  172SOL     OW  524   1.440   0.856   1.398
  172SOL    HW1  525   1.383   0.908   1.335
  172SOL    HW2  526   1.536   0.868   1.374
  173SOL     OW  527   0.072   0.166   0.318
  173SOL    HW1  528   0.055   0.249   0.264
  173SOL    HW2  529   0.162   0.129   0.296
  174SOL     OW  530   1.183   1.335   0.119
  174SOL    HW1  531   1.084   1.324   0.121
  174SOL    HW2  532   1.217   1.350   0.212
  175SOL     OW  533   0.613   0.842   1.431
  175SOL    HW1  534   0.669   0.923   1.414
  175SOL    HW2  535   0.672   0.762   1.434
  176SOL     OW  536   1.493   1.767   0.959
  176SOL    HW1  537   1.526   1.831   0.890
  176SOL    HW2  538   1.559   1.761   1.034
  177SOL     OW  539   0.716   0.565   1.708
  177SOL    HW1  540   0.735   0.630   1.782
  177SOL    HW2  541   0.776   0.485   1.717
  178SOL     OW  542   1.450   1.220   1.633
  178SOL    HW1  543   1.441   1.210   1.732
  178SOL    HW2  544   1.546   1.213   1.607
  179SOL     OW  545   0.390   1.741   1.560
  179SOL    HW1  546   0.299   1.782   1.558
  179SOL    HW2  547   0.383   1.647   1.592
  180SOL     OW  548   1.674   0.883   1.254
  180SOL    HW1  549   1.647   0.794   1.217
  180SOL    HW2  550   1.675   0.951   1.181
  181SOL     OW  551   1.225   0.325   0.449
  181SOL    HW1  552   1.290   0.251   0.438
  181SOL    HW2  553   1.245   0.375   0.533
  182SOL     OW  554   0.594   0.745   0.652
  182SOL    HW1  555   0.644   0.830   0.633
  182SOL    HW2  556   0.506   0.747   0.604
  183SOL     OW  557   1.777   0.342   1.642
  183SOL    HW1  558   1.760   0.373   1.548
  183SOL    HW2  559   1.693   0.305   1.680
  184SOL     OW  560   1.730   0.934   1.517
  184SOL    HW1  561   1.768   1.025   1.532
  184SOL    HW2  562   1.722   0.917   1.418
  185SOL     OW  563   0.859   1.374   0.016
  185SOL    HW1  564   0.813   1.389   0.104
  185SOL    HW2  565   0.903   1.459  -0.014
  186SOL     OW  566   0.661   1.790   0.953
  186SOL    HW1  567   0.615   1.878   0.940
  186SOL    HW2  568   0.760   1.802   0.946
  187SOL     OW  569   0.859   0.956   0.861
  187SOL    HW1  570   0.913   0.887   0.909
  187SOL    HW2  571   0.827   1.025   0.927
  188SOL     OW  572   1.083   0.984   0.087
  188SOL    HW1  573   1.060   1.037   0.005
  188SOL    HW2  574   1.164   0.928   0.068
  189SOL     OW  575   1.861   1.569   0.851
  189SOL    HW1  576   1.790   1.557   0.781
  189SOL    HW2  577   1.862   1.490   0.911
  190SOL     OW  578   0.221   1.314   1.844
  190SOL    HW1  579   0.156   1.241   1.823
  190SOL    HW2  580   0.225   1.328   1.942
  191SOL     OW  581   0.079   1.240   0.653
  191SOL    HW1  582   0.078   1.193   0.741
  191SOL    HW2  583   0.161   1.212   0.602
  192SOL     OW  584   0.672   1.391   1.624
  192SOL    HW1  585   0.594   1.341   1.662
  192SOL    HW2  586   0.669   1.486   1.655
  193SOL     OW  587   1.824   0.192   1.227
  193SOL    HW1  588   1.820   0.102   1.271
  193SOL    HW2  589   1.827   0.181   1.128
  194SOL     OW  590   0.428   0.424   0.520
  194SOL    HW1  591   0.458   0.352   0.458
  194SOL    HW2  592   0.389   0.384   0.603
  195SOL     OW  593   1.705   1.487   1.104
  195SOL    HW1  594   1.612   1.462   1.077
  195SOL    HW2  595   1.731   1.437   1.186
  196SOL     OW  596   0.317   0.547   1.280
  196SOL    HW1  597   0.355   0.488   1.352
  196SOL    HW2  598   0.357   0.521   1.192
  197SOL     OW  599   0.812   1.586   0.687
  197SOL    HW1  600   0.844   1.596   0.593
  197SOL    HW2  601   0.733   1.524   0.689
  198SOL     OW  602   1.424   0.214   1.112
  198SOL    HW1  603   1.476   0.149   1.167
  198SOL    HW2  604   1.375   0.277   1.173
  199SOL     OW  605   1.001   0.034   1.154
  199SOL    HW1  606   0.938  -0.038   1.123
  199SOL    HW2  607   1.094  -0.002   1.154
  200SOL     OW  608   0.770   1.330   0.301
  200SOL    HW1  609   0.724   1.243   0.318
  200SOL    HW2  610   0.861   1.327   0.342
  201SOL     OW  611   0.618   1.567   1.284
  201SOL    HW1  612   0.613   1.649   1.341
  201SOL    HW2  613   0.707   1.564   1.239
  202SOL     OW  614   1.352   0.052   0.168
  202SOL    HW1  615   1.387   0.011   0.084
  202SOL    HW2  616   1.262   0.014   0.188
  203SOL     OW  617   1.300   0.453   0.691
  203SOL    HW1  618   1.241   0.533   0.695
  203SOL    HW2  619   1.315   0.418   0.784
  204SOL     OW  620   1.593   0.221   0.882
  204SOL    HW1  621   1.509   0.220   0.936
  204SOL    HW2  622   1.595   0.304   0.826
  205SOL     OW  623   0.039   1.077   0.300
  205SOL    HW1  624   0.138   1.066   0.291
  205SOL    HW2  625  -0.001   0.991   0.332
  206SOL     OW  626   0.875   1.646   0.337
  206SOL    HW1  627   0.798   1.611   0.283
  206SOL    HW2  628   0.843   1.717   0.399
  207SOL     OW  629   0.230   0.628   1.975
  207SOL    HW1  630   0.137   0.626   2.012
  207SOL    HW2  631   0.231   0.589   1.883
  208SOL     OW  632   1.755   0.607   2.093
  208SOL    HW1  633   1.743   0.594   1.994
  208SOL    HW2  634   1.725   0.526   2.142
  209SOL     OW  635   0.231   1.713   2.345
  209SOL    HW1  636   0.265   1.790   2.399
  209SOL    HW2  637   0.275   1.713   2.255
  210SOL     OW  638   0.230   1.434   2.400
  210SOL    HW1  639   0.204   1.530   2.400
  210SOL    HW2  640   0.159   1.380   2.445
  211SOL     OW  641   0.606   0.964   1.985
  211SOL    HW1  642   0.613   1.048   1.931
  211SOL    HW2  643   0.652   0.977   2.073
  212SOL     OW  644   0.122   0.643   2.425
  212SOL    HW1  645   0.077   0.555   2.442
  212SOL    HW2  646   0.121   0.697   2.509
  213SOL     OW  647   1.842   1.767   2.221
  213SOL    HW1  648   1.896   1.738   2.301
  213SOL    HW2  649   1.872   1.857   2.192
  214SOL     OW  650   0.027   1.596   1.979
  214SOL    HW1  651   0.008   1.500   2.000
  214SOL    HW2  652  -0.006   1.654   2.054
  215SOL     OW  653   1.689   0.922   2.474
  215SOL    HW1  654   1.784   0.893   2.482
  215SOL    HW2  655   1.681   0.987   2.399
  216SOL     OW  656   1.641   1.108   2.294
  216SOL    HW1  657   1.727   1.110   2.242
  216SOL    HW2  658   1.655   1.155   2.382
  217SOL     OW  659   0.809   0.004   2.364
  217SOL    HW1  660   0.849   0.095   2.355
  217SOL    HW2  661   0.709   0.012   2.370
  218SOL     OW  662   1.525   0.999   2.052
  218SOL    HW1  663   1.462   0.923   2.065
  218SOL    HW2  664   1.573   1.017   2.138
  219SOL     OW  665   0.598   0.729   2.132
  219SOL    HW1  666   0.622   0.798   2.064
  219SOL    HW2  667   0.520   0.762   2.186
  220SOL     OW  668   1.576   1.662   2.169
  220SOL    HW1  669   1.665   1.708   2.172
  220SOL    HW2  670   1.555   1.638   2.074
  221SOL     OW  671   1.041   0.701   2.291
  221SOL    HW1  672   1.067   0.697   2.387
  221SOL    HW2  673   0.956   0.650   2.277
  222SOL     OW  674   0.076   0.811   2.651
  222SOL    HW1  675   0.175   0.799   2.660
  222SOL    HW2  676   0.052   0.906   2.672
  223SOL     OW  677   0.865   0.348   2.057
  223SOL    HW1  678   0.924   0.411   2.008
  223SOL    HW2  679   0.884   0.254   2.028
  224SOL     OW  680   1.362   1.144   2.407
  224SOL    HW1  681   1.445   1.115   2.359
  224SOL    HW2  682   1.313   1.211   2.351
  225SOL     OW  683   0.321   0.943   2.104
  225SOL    HW1  684   0.403   0.982   2.062
  225SOL    HW2  685   0.294   0.861   2.055
  226SOL     OW  686   1.111   1.776   2.099
  226SOL    HW1  687   1.051   1.714   2.149
  226SOL    HW2  688   1.142   1.732   2.014
  227SOL     OW  689   1.632   1.377   1.943
  227SOL    HW1  690   1.600   1.471   1.933
  227SOL    HW2  691   1.556   1.314   1.931
  228SOL     OW  692   0.464   1.743   2.185
  228SOL    HW1  693   0.497   1.782   2.271
  228SOL    HW2  694   0.540   1.736   2.120
  229SOL     OW  695   1.400   0.107   2.288
  229SOL    HW1  696   1.376   0.070   2.198
  229SOL    HW2  697   1.499   0.123   2.292
  230SOL     OW  698   0.382   0.700   2.342
  230SOL    HW1  699   0.427   0.610   2.339
  230SOL    HW2  700   0.288   0.689   2.375
  231SOL     OW  701   0.614   0.122   1.979
  231SOL    HW1  702   0.712   0.100   1.986
  231SOL    HW2  703   0.583   0.105   1.886
  232SOL     OW  704   0.539   0.064   2.374
  232SOL    HW1  705   0.458   0.065   2.432
  232SOL    HW2  706   0.542   0.147   2.319
  233SOL     OW  707   1.434   1.188   1.903
  233SOL    HW1  708   1.466   1.112   1.960
  233SOL    HW2  709   1.342   1.215   1.933
  234SOL     OW  710   0.297   0.035   2.033
  234SOL    HW1  711   0.346   0.119   2.012
  234SOL    HW2  712   0.359  -0.030   2.078
  235SOL     OW  713   0.935   0.236   2.342
  235SOL    HW1  714   0.887   0.277   2.264
  235SOL    HW2  715   1.034   0.234   2.323
  236SOL     OW  716   0.459   1.152   2.603
  236SOL    HW1  717   0.388   1.125   2.668
  236SOL    HW2  718   0.433   1.124   2.510
  237SOL     OW  719   1.271   1.797   2.453
  237SOL    HW1  720   1.315   1.861   2.389
  237SOL    HW2  721   1.221   1.849   2.523
  238SOL     OW  722   1.032   0.549   1.878
  238SOL    HW1  723   0.991   0.631   1.839
  238SOL    HW2  724   1.096   0.575   1.951
  239SOL     OW  725   0.866   0.454   2.504
  239SOL    HW1  726   0.834   0.526   2.442
  239SOL    HW2  727   0.890   0.373   2.451
  240SOL     OW  728   1.857   0.833   2.239
  240SOL    HW1  729   1.899   0.769   2.303
  240SOL    HW2  730   1.819   0.782   2.161
  241SOL     OW  731   0.488   1.385   2.036
  241SOL    HW1  732   0.401   1.370   2.083
  241SOL    HW2  733   0.471   1.411   1.941
  242SOL     OW  734   1.390   0.575   1.940
  242SOL    HW1  735   1.336   0.554   2.021
  242SOL    HW2  736   1.481   0.534   1.949
  243SOL     OW  737   0.527   0.256   2.190
  243SOL    HW1  738   0.554   0.197   2.115
  243SOL    HW2  739   0.527   0.351   2.159
  244SOL     OW  740   0.705   1.050   2.230
  244SOL    HW1  741   0.691   1.057   2.329
  244SOL    HW2  742   0.789   0.999   2.212
  245SOL     OW  743   0.367   1.100   2.363
  245SOL    HW1  744   0.360   1.183   2.307
  245SOL    HW2  745   0.371   1.020   2.303
  246SOL     OW  746   1.252   1.348   2.250
  246SOL    HW1  747   1.302   1.425   2.290
  246SOL    HW2  748   1.157   1.350   2.282
  247SOL     OW  749   1.582   0.639   2.334
  247SOL    HW1  750   1.551   0.700   2.407
  247SOL    HW2  751   1.632   0.691   2.265
  248SOL     OW  752   1.209   0.525   2.137
  248SOL    HW1  753   1.222   0.441   2.191
  248SOL    HW2  754   1.180   0.599   2.197
  249SOL     OW  755   1.622   0.367   2.236
  249SOL    HW1  756   1.624   0.291   2.300
  249SOL    HW2  757   1.574   0.444   2.276
  250SOL     OW  758   1.540   0.274   1.987
  250SOL    HW1  759   1.479   0.199   2.010
  250SOL    HW2  760   1.562   0.326   2.070
  251SOL     OW  761   1.303   0.838   1.904
  251SOL    HW1  762   1.337   0.745   1.919
  251SOL    HW2  763   1.321   0.865   1.809
  252SOL     OW  764   0.008   1.326   2.062
  252SOL    HW1  765  -0.085   1.347   2.031
  252SOL    HW2  766   0.018   1.227   2.075
  253SOL     OW  767   0.815   0.572   2.187
  253SOL    HW1  768   0.822   0.483   2.141
  253SOL    HW2  769   0.721   0.606   2.179
  254SOL     OW  770   0.473   0.500   2.053
  254SOL    HW1  771   0.534   0.580   2.057
  254SOL    HW2  772   0.378   0.531   2.060
  255SOL     OW  773   1.302   0.855   2.171
  255SOL    HW1  774   1.216   0.824   2.213
  255SOL    HW2  775   1.298   0.841   2.072
  256SOL     OW  776   1.726   0.135   2.385
  256SOL    HW1  777   1.799   0.118   2.318
  256SOL    HW2  778   1.695   0.048   2.423
  257SOL     OW  779   1.388   1.573   2.339
  257SOL    HW1  780   1.455   1.585   2.265
  257SOL    HW2  781   1.348   1.662   2.362
  258SOL     OW  782   0.672   1.616   2.016
  258SOL    HW1  783   0.681   1.626   1.917
  258SOL    HW2  784   0.632   1.527   2.037
  259SOL     OW  785   1.841   0.175   2.825
  259SOL    HW1  786   1.880   0.090   2.789
  259SOL    HW2  787   1.743   0.177   2.806
  260SOL     OW  788   1.194   1.612   1.893
  260SOL    HW1  789   1.200   1.519   1.930
  260SOL    HW2  790   1.135   1.612   1.813
  261SOL     OW  791   0.916   0.910   2.153
  261SOL    HW1  792   0.979   0.948   2.085
  261SOL    HW2  793   0.956   0.827   2.192
  262SOL     OW  794   1.504   1.607   1.906
  262SOL    HW1  795   1.412   1.644   1.913
  262SOL    HW2  796   1.542   1.627   1.816
  263SOL     OW  797   0.590   1.487   2.353
  263SOL    HW1  798   0.632   1.429   2.283
  263SOL    HW2  799   0.546   1.566   2.309
  264SOL     OW  800   0.255   1.348   2.152
  264SOL    HW1  801   0.159   1.349   2.125
  264SOL    HW2  802   0.267   1.401   2.236
  265SOL     OW  803   0.075   0.345   1.895
  265SOL    HW1  804  -0.017   0.317   1.866
  265SOL    HW2  805   0.106   0.422   1.839
  266SOL     OW  806   0.072   0.166   2.180
  266SOL    HW1  807   0.055   0.249   2.126
  266SOL    HW2  808   0.162   0.129   2.158
  267SOL     OW  809   1.183   1.335   1.981
  267SOL    HW1  810   1.084   1.324   1.983
  267SOL    HW2  811   1.217   1.350   2.074
  268SOL     OW  812   1.225   0.325   2.311
  268SOL    HW1  813   1.290   0.251   2.300
  268SOL    HW2  814   1.245   0.375   2.395
  269SOL     OW  815   0.594   0.745   2.514
  269SOL    HW1  816   0.644   0.830   2.495
  269SOL    HW2  817   0.506   0.747   2.466
  270SOL     OW  818   0.859   1.374   1.878
  270SOL    HW1  819   0.813   1.389   1.966
  270SOL    HW2  820   0.903   1.459   1.848
  271SOL     OW  821   1.083   0.984   1.949
  271SOL    HW1  822   1.060   1.037   1.867
  271SOL    HW2  823   1.164   0.928   1.930
  272SOL     OW  824   0.079   1.240   2.515
  272SOL    HW1  825   0.078   1.193   2.603
  272SOL    HW2  826   0.161   1.212   2.464
  273SOL     OW  827   0.428   0.424   2.382
  273SOL    HW1  828   0.458   0.352   2.320
  273SOL    HW2  829   0.389   0.384   2.465
  274SOL     OW  830   0.770   1.330   2.163
  274SOL    HW1  831   0.724   1.243   2.180
  274SOL    HW2  832   0.861   1.327   2.204
  275SOL     OW  833   1.352   0.052   2.030
  275SOL    HW1  834   1.387   0.011   1.946
  275SOL    HW2  835   1.262   0.014   2.050
  276SOL     OW  836   0.039   1.077   2.162
  276SOL    HW1  837   0.138   1.066   2.153
  276SOL    HW2  838  -0.001   0.991   2.194
  277SOL     OW  839   0.875   1.646   2.199
  277SOL    HW1  840   0.798   1.611   2.145
  277SOL    HW2  841   0.843   1.717   2.261
  278SOL     OW  842   0.225   2.137   0.996
  278SOL    HW1  843   0.260   2.120   1.088
  278SOL    HW2  844   0.137   2.092   0.984
  279SOL     OW  845   0.019   2.230   0.647
  279SOL    HW1  846  -0.063   2.273   0.686
  279SOL    HW2  847  -0.009   2.157   0.584
  280SOL     OW  848   1.755   2.469   0.231
  280SOL    HW1  849   1.743   2.456   0.132
  280SOL    HW2  850   1.725   2.388   0.280
  281SOL     OW  851   0.438   2.254   1.499
  281SOL    HW1  852   0.520   2.198   1.508
  281SOL    HW2  853   0.357   2.196   1.503
  282SOL     OW  854   1.603   2.309   0.737
  282SOL    HW1  855   1.529   2.355   0.687
  282SOL    HW2  856   1.654   2.377   0.790
  283SOL     OW  857   1.594   1.976   1.480
  283SOL    HW1  858   1.576   2.043   1.408
  283SOL    HW2  859   1.591   2.022   1.569
  284SOL     OW  860   0.122   2.505   0.563
  284SOL    HW1  861   0.077   2.417   0.580
  284SOL    HW2  862   0.121   2.559   0.647
  285SOL     OW  863   0.809   1.866   0.502
  285SOL    HW1  864   0.849   1.957   0.493
  285SOL    HW2  865   0.709   1.874   0.508
  286SOL     OW  866   0.317   2.113   1.801
  286SOL    HW1  867   0.388   2.184   1.807
  286SOL    HW2  868   0.229   2.152   1.829
  287SOL     OW  869   1.281   2.207   0.944
  287SOL    HW1  870   1.195   2.157   0.931
  287SOL    HW2  871   1.343   2.153   1.000
  288SOL     OW  872   0.807   2.467   1.465
  288SOL    HW1  873   0.760   2.464   1.554
  288SOL    HW2  874   0.756   2.412   1.399
  289SOL     OW  875   1.394   2.331   1.674
  289SOL    HW1  876   1.374   2.374   1.762
  289SOL    HW2  877   1.472   2.269   1.683
  290SOL     OW  878   0.991   2.272   1.242
  290SOL    HW1  879   0.914   2.306   1.296
  290SOL    HW2  880   0.957   2.221   1.163
  291SOL     OW  881   1.041   2.563   0.429
  291SOL    HW1  882   1.067   2.559   0.525
  291SOL    HW2  883   0.956   2.512   0.415
  292SOL     OW  884   0.076   2.673   0.789
  292SOL    HW1  885   0.175   2.661   0.798
  292SOL    HW2  886   0.052   2.768   0.810
  293SOL     OW  887   0.865   2.210   0.195
  293SOL    HW1  888   0.924   2.273   0.146
  293SOL    HW2  889   0.884   2.116   0.166
  294SOL     OW  890   1.719   2.447   1.831
  294SOL    HW1  891   1.693   2.536   1.795
  294SOL    HW2  892   1.717   2.379   1.758
  295SOL     OW  893   0.550   2.058   0.885
  295SOL    HW1  894   0.545   2.053   0.985
  295SOL    HW2  895   0.552   2.154   0.856
  296SOL     OW  896   1.458   2.597   0.728
  296SOL    HW1  897   1.453   2.532   0.803
  296SOL    HW2  898   1.538   2.656   0.741
  297SOL     OW  899   0.202   2.147   1.498
  297SOL    HW1  900   0.122   2.207   1.485
  297SOL    HW2  901   0.192   2.098   1.584
  298SOL     OW  902   1.400   1.969   0.426
  298SOL    HW1  903   1.376   1.932   0.336
  298SOL    HW2  904   1.499   1.985   0.430
  299SOL     OW  905   1.547   2.084   1.729
  299SOL    HW1  906   1.542   2.121   1.821
  299SOL    HW2  907   1.475   2.015   1.717
  300SOL     OW  908   0.614   1.984   0.117
  300SOL    HW1  909   0.712   1.962   0.124
  300SOL    HW2  910   0.583   1.967   0.024
  301SOL     OW  911   0.781   2.126   1.749
  301SOL    HW1  912   0.848   2.065   1.792
  301SOL    HW2  913   0.708   2.145   1.814
  302SOL     OW  914   1.351   2.452   1.433
  302SOL    HW1  915   1.379   2.409   1.518
  302SOL    HW2  916   1.376   2.548   1.434
  303SOL     OW  917   0.922   2.365   0.899
  303SOL    HW1  918   0.897   2.356   0.803
  303SOL    HW2  919   0.970   2.283   0.930
  304SOL     OW  920   0.539   1.926   0.512
  304SOL    HW1  921   0.458   1.927   0.570
  304SOL    HW2  922   0.542   2.009   0.457
  305SOL     OW  923   0.297   1.897   0.171
  305SOL    HW1  924   0.346   1.981   0.150
  305SOL    HW2  925   0.359   1.832   0.216
  306SOL     OW  926   0.935   2.098   0.480
  306SOL    HW1  927   0.887   2.139   0.402
  306SOL    HW2  928   1.034   2.096   0.461
  307SOL     OW  929   1.076   2.545   1.464
  307SOL    HW1  930   0.996   2.484   1.467
  307SOL    HW2  931   1.157   2.492   1.440
  308SOL     OW  932   1.032   2.411   0.016
  308SOL    HW1  933   0.991   2.493  -0.023
  308SOL    HW2  934   1.096   2.437   0.089
  309SOL     OW  935   0.078   2.418   1.386
  309SOL    HW1  936   0.170   2.417   1.345
  309SOL    HW2  937   0.072   2.492   1.453
  310SOL     OW  938   0.561   2.084   1.147
  310SOL    HW1  939   0.599   2.000   1.184
  310SOL    HW2  940   0.473   2.103   1.191
  311SOL     OW  941   0.866   2.316   0.642
  311SOL    HW1  942   0.834   2.388   0.580
  311SOL    HW2  943   0.890   2.235   0.589
  312SOL     OW  944   1.017   1.901   0.753
  312SOL    HW1  945   0.945   1.906   0.684
  312SOL    HW2  946   0.993   1.832   0.822
  313SOL     OW  947   1.466   2.452   0.992
  313SOL    HW1  948   1.436   2.357   0.999
  313SOL    HW2  949   1.539   2.468   1.058
  314SOL     OW  950   0.527   2.118   0.328
  314SOL    HW1  951   0.554   2.059   0.253
  314SOL    HW2  952   0.527   2.213   0.297
  315SOL     OW  953   0.915   1.951   1.402
  315SOL    HW1  954   0.940   1.931   1.307
  315SOL    HW2  955   0.987   2.007   1.444
  316SOL     OW  956   1.274   2.248   1.262
  316SOL    HW1  957   1.295   2.322   1.326
  316SOL    HW2  958   1.185   2.265   1.219
  317SOL     OW  959   0.566   2.399   0.865
  317SOL    HW1  960   0.578   2.465   0.791
  317SOL    HW2  961   0.612   2.433   0.948
  318SOL     OW  962   1.582   2.501   0.472
  318SOL    HW1  963   1.551   2.562   0.545
  318SOL    HW2  964   1.632   2.553   0.403
  319SOL     OW  965   1.013   1.967   1.770
  319SOL    HW1  966   1.019   2.052   1.718
  319SOL    HW2  967   1.045   1.891   1.713
  320SOL     OW  968   0.504   1.912   1.740
  320SOL    HW1  969   0.462   1.855   1.670
  320SOL    HW2  970   0.438   1.981   1.772
  321SOL     OW  971   1.209   2.387   0.275
  321SOL    HW1  972   1.222   2.303   0.329
  321SOL    HW2  973   1.180   2.461   0.335
  322SOL     OW  974   0.307   2.075   1.231
  322SOL    HW1  975   0.284   2.112   1.321
  322SOL    HW2  976   0.277   1.980   1.225
  323SOL     OW  977   0.732   2.496   1.064
  323SOL    HW1  978   0.791   2.470   0.988
  323SOL    HW2  979   0.704   2.592   1.053
  324SOL     OW  980   0.307   1.925   0.618
  324SOL    HW1  981   0.296   2.019   0.651
  324SOL    HW2  982   0.302   1.862   0.695
  325SOL     OW  983   1.622   2.229   0.374
  325SOL    HW1  984   1.624   2.153   0.438
  325SOL    HW2  985   1.574   2.306   0.414
  326SOL     OW  986   1.540   2.136   0.125
  326SOL    HW1  987   1.479   2.061   0.148
  326SOL    HW2  988   1.562   2.188   0.208
  327SOL     OW  989   0.339   2.371   1.006
  327SOL    HW1  990   0.287   2.288   0.989
  327SOL    HW2  991   0.416   2.376   0.942
  328SOL     OW  992   1.138   2.242   1.678
  328SOL    HW1  993   1.093   2.305   1.742
  328SOL    HW2  994   1.231   2.273   1.661
  329SOL     OW  995   1.160   2.069   1.477
  329SOL    HW1  996   1.160   2.133   1.554
  329SOL    HW2  997   1.188   2.117   1.394
  330SOL     OW  998   0.040   2.406   1.114
  330SOL    HW1  999   0.125   2.373   1.073
  330SOL    HW2 1000   0.053   2.421   1.212
  331SOL     OW 1001   0.189   2.382   1.722
  331SOL    HW1 1002   0.248   2.342   1.652
  331SOL    HW2 1003   0.131   2.453   1.681
  332SOL     OW 1004   0.815   2.434   0.325
  332SOL    HW1 1005   0.822   2.345   0.279
  332SOL    HW2 1006   0.721   2.468   0.317
  333SOL     OW 1007   1.657   2.466   1.206
  333SOL    HW1 1008   1.619   2.397   1.268
  333SOL    HW2 1009   1.739   2.430   1.162
  334SOL     OW 1010   0.671   2.326   1.269
  334SOL    HW1 1011   0.637   2.237   1.239
  334SOL    HW2 1012   0.697   2.380   1.189
  335SOL     OW 1013   0.903   1.948   0.133
  335SOL    HW1 1014   0.954   1.949   0.047
  335SOL    HW2 1015   0.959   1.906   0.204
  336SOL     OW 1016   1.726   1.997   0.523
  336SOL    HW1 1017   1.799   1.980   0.456
  336SOL    HW2 1018   1.695   1.910   0.561
  337SOL     OW 1019   1.841   2.037   0.963
  337SOL    HW1 1020   1.880   1.952   0.927
  337SOL    HW2 1021   1.743   2.039   0.944
  338SOL     OW 1022   0.263   2.188   0.720
  338SOL    HW1 1023   0.184   2.239   0.686
  338SOL    HW2 1024   0.254   2.173   0.818
  339SOL     OW 1025   1.014   2.098   0.971
  339SOL    HW1 1026   1.006   2.062   0.878
  339SOL    HW2 1027   1.012   2.022   1.036
  340SOL     OW 1028   1.709   2.247   1.381
  340SOL    HW1 1029   1.782   2.316   1.385
  340SOL    HW2 1030   1.737   2.172   1.322
  341SOL     OW 1031   0.672   2.065   1.489
  341SOL    HW1 1032   0.762   2.049   1.449
  341SOL    HW2 1033   0.680   2.070   1.588
  342SOL     OW 1034   0.075   2.207   0.033
  342SOL    HW1 1035  -0.017   2.179   0.004
  342SOL    HW2 1036   0.106   2.284  -0.023
  343SOL     OW 1037   0.072   2.028   0.318
  343SOL    HW1 1038   0.055   2.111   0.264
  343SOL    HW2 1039   0.162   1.991   0.296
  344SOL     OW 1040   0.716   2.427   1.708
  344SOL    HW1 1041   0.735   2.492   1.782
  344SOL    HW2 1042   0.776   2.347   1.717
  345SOL     OW 1043   1.225   2.187   0.449
  345SOL    HW1 1044   1.290   2.113   0.438
  345SOL    HW2 1045   1.245   2.237   0.533
  346SOL     OW 1046   1.777   2.204   1.642
  346SOL    HW1 1047   1.760   2.235   1.548
  346SOL    HW2 1048   1.693   2.167   1.680
  347SOL     OW 1049   1.083   2.846   0.087
  347SOL    HW1 1050   1.060   2.899   0.005
  347SOL    HW2 1051   1.164   2.790   0.068
  348SOL     OW 1052   1.824   2.054   1.227
  348SOL    HW1 1053   1.820   1.964   1.271
  348SOL    HW2 1054   1.827   2.043   1.128
  349SOL     OW 1055   0.428   2.286   0.520
  349SOL    HW1 1056   0.458   2.214   0.458
  349SOL    HW2 1057   0.389   2.246   0.603
  350SOL     OW 1058   0.317   2.409   1.280
  350SOL    HW1 1059   0.355   2.350   1.352
  350SOL    HW2 1060   0.357   2.383   1.192
  351SOL     OW 1061   1.424   2.076   1.112
  351SOL    HW1 1062   1.476   2.011   1.167
  351SOL    HW2 1063   1.375   2.139   1.173
  352SOL     OW 1064   1.001   1.896   1.154
  352SOL    HW1 1065   0.938   1.824   1.123
  352SOL    HW2 1066   1.094   1.860   1.154
  353SOL     OW 1067   1.352   1.914   0.168
  353SOL    HW1 1068   1.387   1.873   0.084
  353SOL    HW2 1069   1.262   1.876   0.188
  354SOL     OW 1070   1.300   2.315   0.691
  354SOL    HW1 1071   1.241   2.395   0.695
  354SOL    HW2 1072   1.315   2.280   0.784
  355SOL     OW 1073   1.593   2.083   0.882
  355SOL    HW1 1074   1.509   2.082   0.936
  355SOL    HW2 1075   1.595   2.166   0.826
  356SOL     OW 1076   1.755   2.469   2.093
  356SOL    HW1 1077   1.743   2.456   1.994
  356SOL    HW2 1078   1.725   2.388   2.142
  357SOL     OW 1079   0.122   2.505   2.425
  357SOL    HW1 1080   0.077   2.417   2.442
  357SOL    HW2 1081   0.121   2.559   2.509
  358SOL     OW 1082   0.809   1.866   2.364
  358SOL    HW1 1083   0.849   1.957   2.355
  358SOL    HW2 1084   0.709   1.874   2.370
  359SOL     OW 1085   1.041   2.563   2.291
  359SOL    HW1 1086   1.067   2.559   2.387
  359SOL    HW2 1087   0.956   2.512   2.277
  360SOL     OW 1088   0.865   2.210   2.057
  360SOL    HW1 1089   0.924   2.273   2.008
  360SOL    HW2 1090   0.884   2.116   2.028
  361SOL     OW 1091   1.400   1.969   2.288
  361SOL    HW1 1092   1.376   1.932   2.198
  361SOL    HW2 1093   1.499   1.985   2.292
  362SOL     OW 1094   0.614   1.984   1.979
  362SOL    HW1 1095   0.712   1.962   1.986
  362SOL    HW2 1096   0.583   1.967   1.886
  363SOL     OW 1097   0.539   1.926   2.374
  363SOL    HW1 1098   0.458   1.927   2.432
  363SOL    HW2 1099   0.542   2.009   2.319
  364SOL     OW 1100   0.297   1.897   2.033
  364SOL    HW1 1101   0.346   1.981   2.012
  364SOL    HW2 1102   0.359   1.832   2.078
  365SOL     OW 1103   0.935   2.098   2.342
  365SOL    HW1 1104   0.887   2.139   2.264
  365SOL    HW2 1105   1.034   2.096   2.323
  366SOL     OW 1106   1.032   2.411   1.878
  366SOL    HW1 1107   0.991   2.493   1.839
  366SOL    HW2 1108   1.096   2.437   1.951
  367SOL     OW 1109   0.866   2.316   2.504
  367SOL    HW1 1110   0.834   2.388   2.442
  367SOL    HW2 1111   0.890   2.235   2.451
  368SOL     OW 1112   0.527   2.118   2.190
  368SOL    HW1 1113   0.554   2.059   2.115
  368SOL    HW2 1114   0.527   2.213   2.159
  369SOL     OW 1115   1.582   2.501   2.334
  369SOL    HW1 1116   1.551   2.562   2.407
  369SOL    HW2 1117   1.632   2.553   2.265
  370SOL     OW 1118   1.209   2.387   2.137
  370SOL    HW1 1119   1.222   2.303   2.191
  370SOL    HW2 1120   1.180   2.461   2.197
  371SOL     OW 1121   1.622   2.229   2.236
  371SOL    HW1 1122   1.624   2.153   2.300
  371SOL    HW2 1123   1.574   2.306   2.276
  372SOL     OW 1124   1.540   2.136   1.987
  372SOL    HW1 1125   1.479   2.061   2.010
  372SOL    HW2 1126   1.562   2.188   2.070
  373SOL     OW 1127   0.815   2.434   2.187
  373SOL    HW1 1128   0.822   2.345   2.141
  373SOL    HW2 1129   0.721   2.468   2.179
  374SOL     OW 1130   1.726   1.997   2.385
  374SOL    HW1 1131   1.799   1.980   2.318
  374SOL    HW2 1132   1.695   1.910   2.423
  375SOL     OW 1133   0.075   2.207   1.895
  375SOL    HW1 1134  -0.017   2.179   1.866
  375SOL    HW2 1135   0.106   2.284   1.839
  376SOL     OW 1136   0.072   2.028   2.180
  376SOL    HW1 1137   0.055   2.111   2.126
  376SOL    HW2 1138   0.162   1.991   2.158
  377SOL     OW 1139   1.225   2.187   2.311
  377SOL    HW1 1140   1.290   2.113   2.300
  377SOL    HW2 1141   1.245   2.237   2.395
  378SOL     OW 1142   1.083   2.846   1.949
  378SOL    HW1 1143   1.060   2.899   1.867
  378SOL    HW2 1144   1.164   2.790   1.930
  379SOL     OW 1145   0.428   2.286   2.382
  379SOL    HW1 1146   0.458   2.214   2.320
  379SOL    HW2 1147   0.389   2.246   2.465
  380SOL     OW 1148   1.352   1.914   2.030
  380SOL    HW1 1149   1.387   1.873   1.946
  380SOL    HW2 1150   1.262   1.876   2.050
  381SOL     OW 1151   1.300   2.315   2.553
  381SOL    HW1 1152   1.241   2.395   2.557
  381SOL    HW2 1153   1.315   2.280   2.646
  382SOL     OW 1154   2.092   0.628   0.113
  382SOL    HW1 1155   1.999   0.626   0.150
  382SOL    HW2 1156   2.093   0.589   0.021
  383SOL     OW 1157   2.087   0.275   0.996
  383SOL    HW1 1158   2.122   0.258   1.088
  383SOL    HW2 1159   1.999   0.230   0.984
  384SOL     OW 1160   1.881   0.368   0.647
  384SOL    HW1 1161   1.799   0.411   0.686
  384SOL    HW2 1162   1.853   0.295   0.584
  385SOL     OW 1163   2.431   1.275   1.165
  385SOL    HW1 1164   2.338   1.268   1.128
  385SOL    HW2 1165   2.442   1.364   1.209
  386SOL     OW 1166   2.712   0.798   1.823
  386SOL    HW1 1167   2.708   0.874   1.888
  386SOL    HW2 1168   2.734   0.834   1.732
  387SOL     OW 1169   2.197   1.435   1.061
  387SOL    HW1 1170   2.119   1.404   1.008
  387SOL    HW2 1171   2.255   1.493   1.004
  388SOL     OW 1172   2.300   0.392   1.499
  388SOL    HW1 1173   2.382   0.336   1.508
  388SOL    HW2 1174   2.219   0.334   1.503
  389SOL     OW 1175   2.093   1.713   0.483
  389SOL    HW1 1176   2.127   1.790   0.537
  389SOL    HW2 1177   2.137   1.713   0.393
  390SOL     OW 1178   2.092   1.434   0.538
  390SOL    HW1 1179   2.066   1.530   0.538
  390SOL    HW2 1180   2.021   1.380   0.583
  391SOL     OW 1181   2.102   1.091   0.886
  391SOL    HW1 1182   2.116   1.007   0.938
  391SOL    HW2 1183   2.047   1.155   0.941
  392SOL     OW 1184   1.984   0.643   0.563
  392SOL    HW1 1185   1.939   0.555   0.580
  392SOL    HW2 1186   1.983   0.697   0.647
  393SOL     OW 1187   1.889   1.596   0.117
  393SOL    HW1 1188   1.870   1.500   0.138
  393SOL    HW2 1189   1.856   1.654   0.192
  394SOL     OW 1190   1.975   0.737   1.597
  394SOL    HW1 1191   2.063   0.724   1.642
  394SOL    HW2 1192   1.962   0.834   1.575
  395SOL     OW 1193   2.475   1.365   0.726
  395SOL    HW1 1194   2.426   1.278   0.735
  395SOL    HW2 1195   2.452   1.408   0.639
  396SOL     OW 1196   2.059   0.976   1.264
  396SOL    HW1 1197   2.148   0.931   1.250
  396SOL    HW2 1198   1.986   0.911   1.245
  397SOL     OW 1199   2.179   0.251   1.801
  397SOL    HW1 1200   2.250   0.322   1.807
  397SOL    HW2 1201   2.091   0.290   1.829
  398SOL     OW 1202   1.938   0.811   0.789
  398SOL    HW1 1203   2.037   0.799   0.798
  398SOL    HW2 1204   1.914   0.906   0.810
  399SOL     OW 1205   1.992   1.821   1.571
  399SOL    HW1 1206   1.982   1.806   1.670
  399SOL    HW2 1207   1.906   1.857   1.535
  400SOL     OW 1208   2.727   0.348   0.195
  400SOL    HW1 1209   2.786   0.411   0.146
  400SOL    HW2 1210   2.746   0.254   0.166
  401SOL     OW 1211   2.412   0.196   0.885
  401SOL    HW1 1212   2.407   0.191   0.985
  401SOL    HW2 1213   2.414   0.292   0.856
  402SOL     OW 1214   2.213   1.801   0.853
  402SOL    HW1 1215   2.263   1.715   0.859
  402SOL    HW2 1216   2.278   1.878   0.850
  403SOL     OW 1217   2.183   0.943   0.242
  403SOL    HW1 1218   2.265   0.982   0.200
  403SOL    HW2 1219   2.156   0.861   0.193
  404SOL     OW 1220   2.323   1.266   1.727
  404SOL    HW1 1221   2.273   1.267   1.641
  404SOL    HW2 1222   2.260   1.248   1.803
  405SOL     OW 1223   2.064   0.285   1.498
  405SOL    HW1 1224   1.984   0.345   1.485
  405SOL    HW2 1225   2.054   0.236   1.584
  406SOL     OW 1226   2.326   1.743   0.323
  406SOL    HW1 1227   2.359   1.782   0.409
  406SOL    HW2 1228   2.402   1.736   0.258
  407SOL     OW 1229   2.111   1.785   1.241
  407SOL    HW1 1230   2.168   1.720   1.291
  407SOL    HW2 1231   2.095   1.752   1.148
  408SOL     OW 1232   2.244   0.700   0.480
  408SOL    HW1 1233   2.289   0.610   0.477
  408SOL    HW2 1234   2.150   0.689   0.513
  409SOL     OW 1235   2.476   0.122   0.117
  409SOL    HW1 1236   2.574   0.100   0.124
  409SOL    HW2 1237   2.445   0.105   0.024
  410SOL     OW 1238   2.401   0.064   0.512
  410SOL    HW1 1239   2.320   0.065   0.570
  410SOL    HW2 1240   2.404   0.147   0.457
  411SOL     OW 1241   2.159   0.035   0.171
  411SOL    HW1 1242   2.208   0.119   0.150
  411SOL    HW2 1243   2.221  -0.030   0.216
  412SOL     OW 1244   2.797   0.236   0.480
  412SOL    HW1 1245   2.749   0.277   0.402
  412SOL    HW2 1246   2.896   0.234   0.461
  413SOL     OW 1247   2.321   1.152   0.741
  413SOL    HW1 1248   2.250   1.125   0.806
  413SOL    HW2 1249   2.295   1.124   0.648
  414SOL     OW 1250   1.940   0.556   1.386
  414SOL    HW1 1251   2.032   0.555   1.345
  414SOL    HW2 1252   1.934   0.630   1.453
  415SOL     OW 1253   2.423   0.222   1.147
  415SOL    HW1 1254   2.461   0.138   1.184
  415SOL    HW2 1255   2.335   0.241   1.191
  416SOL     OW 1256   2.389   0.256   0.328
  416SOL    HW1 1257   2.416   0.197   0.253
  416SOL    HW2 1258   2.389   0.351   0.297
  417SOL     OW 1259   2.272   0.813   1.251
  417SOL    HW1 1260   2.358   0.825   1.301
  417SOL    HW2 1261   2.230   0.726   1.278
  418SOL     OW 1262   1.926   1.564   1.331
  418SOL    HW1 1263   1.880   1.646   1.297
  418SOL    HW2 1264   2.024   1.583   1.340
  419SOL     OW 1265   2.229   1.100   0.501
  419SOL    HW1 1266   2.222   1.183   0.445
  419SOL    HW2 1267   2.233   1.020   0.441
  420SOL     OW 1268   2.428   0.537   0.865
  420SOL    HW1 1269   2.440   0.603   0.791
  420SOL    HW2 1270   2.474   0.571   0.948
  421SOL     OW 1271   2.216   1.510   1.329
  421SOL    HW1 1272   2.195   1.466   1.242
  421SOL    HW2 1273   2.313   1.536   1.332
  422SOL     OW 1274   2.264   0.751   1.598
  422SOL    HW1 1275   2.332   0.806   1.551
  422SOL    HW2 1276   2.304   0.663   1.625
  423SOL     OW 1277   2.366   0.050   1.740
  423SOL    HW1 1278   2.324  -0.007   1.670
  423SOL    HW2 1279   2.300   0.119   1.772
  424SOL     OW 1280   2.435   0.870   1.029
  424SOL    HW1 1281   2.479   0.959   1.020
  424SOL    HW2 1282   2.372   0.870   1.106
  425SOL     OW 1283   2.169   0.213   1.231
  425SOL    HW1 1284   2.146   0.250   1.321
  425SOL    HW2 1285   2.139   0.118   1.225
  426SOL     OW 1286   1.899   1.310   1.282
  426SOL    HW1 1287   1.952   1.261   1.350
  426SOL    HW2 1288   1.921   1.408   1.287
  427SOL     OW 1289   2.169   0.063   0.618
  427SOL    HW1 1290   2.158   0.157   0.651
  427SOL    HW2 1291   2.164   0.000   0.695
  428SOL     OW 1292   2.212   0.898   1.804
  428SOL    HW1 1293   2.288   0.942   1.852
  428SOL    HW2 1294   2.247   0.851   1.722
  429SOL     OW 1295   2.181   0.810   0.949
  429SOL    HW1 1296   2.274   0.846   0.954
  429SOL    HW2 1297   2.175   0.725   1.001
  430SOL     OW 1298   2.201   0.509   1.006
  430SOL    HW1 1299   2.149   0.426   0.989
  430SOL    HW2 1300   2.278   0.514   0.942
  431SOL     OW 1301   1.870   1.326   0.200
  431SOL    HW1 1302   1.777   1.347   0.169
  431SOL    HW2 1303   1.880   1.227   0.213
  432SOL     OW 1304   1.950   1.801   0.927
  432SOL    HW1 1305   1.908   1.715   0.900
  432SOL    HW2 1306   2.044   1.804   0.893
  433SOL     OW 1307   2.366   1.568   0.910
  433SOL    HW1 1308   2.432   1.642   0.919
  433SOL    HW2 1309   2.410   1.489   0.868
  434SOL     OW 1310   1.902   0.544   1.114
  434SOL    HW1 1311   1.987   0.511   1.073
  434SOL    HW2 1312   1.915   0.559   1.212
  435SOL     OW 1313   2.051   0.520   1.722
  435SOL    HW1 1314   2.110   0.480   1.652
  435SOL    HW2 1315   1.993   0.591   1.681
  436SOL     OW 1316   2.677   0.572   0.325
  436SOL    HW1 1317   2.684   0.483   0.279
  436SOL    HW2 1318   2.583   0.606   0.317
  437SOL     OW 1319   2.114   1.564   1.744
  437SOL    HW1 1320   2.084   1.621   1.820
  437SOL    HW2 1321   2.107   1.467   1.770
  438SOL     OW 1322   2.335   0.500   0.191
  438SOL    HW1 1323   2.396   0.580   0.195
  438SOL    HW2 1324   2.240   0.531   0.198
  439SOL     OW 1325   2.021   1.137   1.466
  439SOL    HW1 1326   2.043   1.076   1.542
  439SOL    HW2 1327   2.031   1.088   1.380
  440SOL     OW 1328   1.945   1.258   1.022
  440SOL    HW1 1329   1.940   1.257   1.122
  440SOL    HW2 1330   1.862   1.217   0.984
  441SOL     OW 1331   2.550   1.662   1.716
  441SOL    HW1 1332   2.494   1.743   1.725
  441SOL    HW2 1333   2.602   1.666   1.630
  442SOL     OW 1334   1.992   1.794   1.851
  442SOL    HW1 1335   1.951   1.720   1.904
  442SOL    HW2 1336   2.056   1.845   1.909
  443SOL     OW 1337   2.125   0.326   0.720
  443SOL    HW1 1338   2.046   0.377   0.686
  443SOL    HW2 1339   2.116   0.311   0.818
  444SOL     OW 1340   2.234   1.288   1.490
  444SOL    HW1 1341   2.221   1.381   1.456
  444SOL    HW2 1342   2.150   1.236   1.477
  445SOL     OW 1343   2.452   1.487   0.491
  445SOL    HW1 1344   2.494   1.429   0.421
  445SOL    HW2 1345   2.408   1.566   0.447
  446SOL     OW 1346   2.117   1.348   0.290
  446SOL    HW1 1347   2.021   1.349   0.263
  446SOL    HW2 1348   2.129   1.401   0.374
  447SOL     OW 1349   1.967   1.013   1.726
  447SOL    HW1 1350   1.890   0.980   1.780
  447SOL    HW2 1351   2.052   0.983   1.768
  448SOL     OW 1352   1.937   0.345   0.033
  448SOL    HW1 1353   1.845   0.317   0.004
  448SOL    HW2 1354   1.968   0.422  -0.023
  449SOL     OW 1355   2.475   0.842   1.431
  449SOL    HW1 1356   2.531   0.923   1.414
  449SOL    HW2 1357   2.534   0.762   1.434
  450SOL     OW 1358   2.252   1.741   1.560
  450SOL    HW1 1359   2.161   1.782   1.558
  450SOL    HW2 1360   2.245   1.647   1.592
  451SOL     OW 1361   2.456   0.745   0.652
  451SOL    HW1 1362   2.506   0.830   0.633
  451SOL    HW2 1363   2.368   0.747   0.604
  452SOL     OW 1364   2.083   1.314   1.844
  452SOL    HW1 1365   2.018   1.241   1.823
  452SOL    HW2 1366   2.087   1.328   1.942
  453SOL     OW 1367   1.941   1.240   0.653
  453SOL    HW1 1368   1.940   1.193   0.741
  453SOL    HW2 1369   2.023   1.212   0.602
  454SOL     OW 1370   2.534   1.391   1.624
  454SOL    HW1 1371   2.456   1.341   1.662
  454SOL    HW2 1372   2.531   1.486   1.655
  455SOL     OW 1373   2.290   0.424   0.520
  455SOL    HW1 1374   2.320   0.352   0.458
  455SOL    HW2 1375   2.251   0.384   0.603
  456SOL     OW 1376   2.179   0.547   1.280
  456SOL    HW1 1377   2.217   0.488   1.352
  456SOL    HW2 1378   2.219   0.521   1.192
  457SOL     OW 1379   1.901   1.077   0.300
  457SOL    HW1 1380   2.000   1.066   0.291
  457SOL    HW2 1381   1.861   0.991   0.332
  458SOL     OW 1382   2.092   0.628   1.975
  458SOL    HW1 1383   1.999   0.626   2.012
  458SOL    HW2 1384   2.093   0.589   1.883
  459SOL     OW 1385   2.093   1.713   2.345
  459SOL    HW1 1386   2.127   1.790   2.399
  459SOL    HW2 1387   2.137   1.713   2.255
  460SOL     OW 1388   2.092   1.434   2.400
  460SOL    HW1 1389   2.066   1.530   2.400
  460SOL    HW2 1390   2.021   1.380   2.445
  461SOL     OW 1391   1.984   0.643   2.425
  461SOL    HW1 1392   1.939   0.555   2.442
  461SOL    HW2 1393   1.983   0.697   2.509
  462SOL     OW 1394   1.889   1.596   1.979
  462SOL    HW1 1395   1.870   1.500   2.000
  462SOL    HW2 1396   1.856   1.654   2.054
  463SOL     OW 1397   2.460   0.729   2.132
  463SOL    HW1 1398   2.484   0.798   2.064
  463SOL    HW2 1399   2.382   0.762   2.186
  464SOL     OW 1400   1.938   0.811   2.651
  464SOL    HW1 1401   2.037   0.799   2.660
  464SOL    HW2 1402   1.914   0.906   2.672
  465SOL     OW 1403   2.727   0.348   2.057
  465SOL    HW1 1404   2.786   0.411   2.008
  465SOL    HW2 1405   2.746   0.254   2.028
  466SOL     OW 1406   2.183   0.943   2.104
  466SOL    HW1 1407   2.265   0.982   2.062
  466SOL    HW2 1408   2.156   0.861   2.055
  467SOL     OW 1409   2.326   1.743   2.185
  467SOL    HW1 1410   2.359   1.782   2.271
  467SOL    HW2 1411   2.402   1.736   2.120
  468SOL     OW 1412   2.802   1.698   2.766
  468SOL    HW1 1413   2.882   1.641   2.787
  468SOL    HW2 1414   2.753   1.658   2.689
  469SOL     OW 1415   2.244   0.700   2.342
  469SOL    HW1 1416   2.289   0.610   2.339
  469SOL    HW2 1417   2.150   0.689   2.375
  470SOL     OW 1418   2.476   0.122   1.979
  470SOL    HW1 1419   2.574   0.100   1.986
  470SOL    HW2 1420   2.445   0.105   1.886
  471SOL     OW 1421   2.401   0.064   2.374
  471SOL    HW1 1422   2.320   0.065   2.432
  471SOL    HW2 1423   2.404   0.147   2.319
  472SOL     OW 1424   2.159   0.035   2.033
  472SOL    HW1 1425   2.208   0.119   2.012
  472SOL    HW2 1426   2.221  -0.030   2.078
  473SOL     OW 1427   2.797   0.236   2.342
  473SOL    HW1 1428   2.749   0.277   2.264
  473SOL    HW2 1429   2.896   0.234   2.323
  474SOL     OW 1430   2.321   1.152   2.603
  474SOL    HW1 1431   2.250   1.125   2.668
  474SOL    HW2 1432   2.295   1.124   2.510
  475SOL     OW 1433   2.389   0.256   2.190
  475SOL    HW1 1434   2.416   0.197   2.115
  475SOL    HW2 1435   2.389   0.351   2.159
  476SOL     OW 1436   2.229   1.100   2.363
  476SOL    HW1 1437   2.222   1.183   2.307
  476SOL    HW2 1438   2.233   1.020   2.303
  477SOL     OW 1439   1.870   1.326   2.062
  477SOL    HW1 1440   1.777   1.347   2.031
  477SOL    HW2 1441   1.880   1.227   2.075
  478SOL     OW 1442   2.677   0.572   2.187
  478SOL    HW1 1443   2.684   0.483   2.141
  478SOL    HW2 1444   2.583   0.606   2.179
  479SOL     OW 1445   2.335   0.500   2.053
  479SOL    HW1 1446   2.396   0.580   2.057
  479SOL    HW2 1447   2.240   0.531   2.060
  480SOL     OW 1448   2.452   1.487   2.353
  480SOL    HW1 1449   2.494   1.429   2.283
  480SOL    HW2 1450   2.408   1.566   2.309
  481SOL     OW 1451   2.117   1.348   2.152
  481SOL    HW1 1452   2.021   1.349   2.125
  481SOL    HW2 1453   2.129   1.401   2.236
  482SOL     OW 1454   1.937   0.345   1.895
  482SOL    HW1 1455   1.845   0.317   1.866
  482SOL    HW2 1456   1.968   0.422   1.839
  483SOL     OW 1457   1.934   0.166   2.180
  483SOL    HW1 1458   1.917   0.249   2.126
  483SOL    HW2 1459   2.024   0.129   2.158
  484SOL     OW 1460   2.456   0.745   2.514
  484SOL    HW1 1461   2.506   0.830   2.495
  484SOL    HW2 1462   2.368   0.747   2.466
  485SOL     OW 1463   1.941   1.240   2.515
  485SOL    HW1 1464   1.940   1.193   2.603
  485SOL    HW2 1465   2.023   1.212   2.464
  486SOL     OW 1466   2.290   0.424   2.382
  486SOL    HW1 1467   2.320   0.352   2.320
  486SOL    HW2 1468   2.251   0.384   2.465
  487SOL     OW 1469   1.901   1.077   2.162
  487SOL    HW1 1470   2.000   1.066   2.153
  487SOL    HW2 1471   1.861   0.991   2.194
  488SOL     OW 1472   2.087   2.137   0.996
  488SOL    HW1 1473   2.122   2.120   1.088
  488SOL    HW2 1474   1.999   2.092   0.984
  489SOL     OW 1475   1.881   2.230   0.647
  489SOL    HW1 1476   1.799   2.273   0.686
  489SOL    HW2 1477   1.853   2.157   0.584
  490SOL     OW 1478   2.300   2.254   1.499
  490SOL    HW1 1479   2.382   2.198   1.508
  490SOL    HW2 1480   2.219   2.196   1.503
  491SOL     OW 1481   1.984   2.505   0.563
  491SOL    HW1 1482   1.939   2.417   0.580
  491SOL    HW2 1483   1.983   2.559   0.647
  492SOL     OW 1484   2.179   2.113   1.801
  492SOL    HW1 1485   2.250   2.184   1.807
  492SOL    HW2 1486   2.091   2.152   1.829
  493SOL     OW 1487   1.938   2.673   0.789
  493SOL    HW1 1488   2.037   2.661   0.798
  493SOL    HW2 1489   1.914   2.768   0.810
  494SOL     OW 1490   2.727   2.210   0.195
  494SOL    HW1 1491   2.786   2.273   0.146
  494SOL    HW2 1492   2.746   2.116   0.166
  495SOL     OW 1493   2.412   2.058   0.885
  495SOL    HW1 1494   2.407   2.053   0.985
  495SOL    HW2 1495   2.414   2.154   0.856
  496SOL     OW 1496   2.064   2.147   1.498
  496SOL    HW1 1497   1.984   2.207   1.485
  496SOL    HW2 1498   2.054   2.098   1.584
  497SOL     OW 1499   2.476   1.984   0.117
  497SOL    HW1 1500   2.574   1.962   0.124
  497SOL    HW2 1501   2.445   1.967   0.024
  498SOL     OW 1502   2.401   1.926   0.512
  498SOL    HW1 1503   2.320   1.927   0.570
  498SOL    HW2 1504   2.404   2.009   0.457
  499SOL     OW 1505   2.159   1.897   0.171
  499SOL    HW1 1506   2.208   1.981   0.150
  499SOL    HW2 1507   2.221   1.832   0.216
  500SOL     OW 1508   2.797   2.098   0.480
  500SOL    HW1 1509   2.749   2.139   0.402
  500SOL    HW2 1510   2.896   2.096   0.461
  501SOL     OW 1511   1.940   2.418   1.386
  501SOL    HW1 1512   2.032   2.417   1.345
  501SOL    HW2 1513   1.934   2.492   1.453
  502SOL     OW 1514   2.423   2.084   1.147
  502SOL    HW1 1515   2.461   2.000   1.184
  502SOL    HW2 1516   2.335   2.103   1.191
  503SOL     OW 1517   2.389   2.118   0.328
  503SOL    HW1 1518   2.416   2.059   0.253
  503SOL    HW2 1519   2.389   2.213   0.297
  504SOL     OW 1520   2.428   2.399   0.865
  504SOL    HW1 1521   2.440   2.465   0.791
  504SOL    HW2 1522   2.474   2.433   0.948
  505SOL     OW 1523   2.366   1.912   1.740
  505SOL    HW1 1524   2.324   1.855   1.670
  505SOL    HW2 1525   2.300   1.981   1.772
  506SOL     OW 1526   2.169   2.075   1.231
  506SOL    HW1 1527   2.146   2.112   1.321
  506SOL    HW2 1528   2.139   1.980   1.225
  507SOL     OW 1529   2.169   1.925   0.618
  507SOL    HW1 1530   2.158   2.019   0.651
  507SOL    HW2 1531   2.164   1.862   0.695
  508SOL     OW 1532   2.201   2.371   1.006
  508SOL    HW1 1533   2.149   2.288   0.989
  508SOL    HW2 1534   2.278   2.376   0.942
  509SOL     OW 1535   1.902   2.406   1.114
  509SOL    HW1 1536   1.987   2.373   1.073
  509SOL    HW2 1537   1.915   2.421   1.212
  510SOL     OW 1538   2.051   2.382   1.722
  510SOL    HW1 1539   2.110   2.342   1.652
  510SOL    HW2 1540   1.993   2.453   1.681
  511SOL     OW 1541   2.677   2.434   0.325
  511SOL    HW1 1542   2.684   2.345   0.279
  511SOL    HW2 1543   2.583   2.468   0.317
  512SOL     OW 1544   2.125   2.188   0.720
  512SOL    HW1 1545   2.046   2.239   0.686
  512SOL    HW2 1546   2.116   2.173   0.818
  513SOL     OW 1547   1.937   2.207   0.033
  513SOL    HW1 1548   1.845   2.179   0.004
  513SOL    HW2 1549   1.968   2.284  -0.023
  514SOL     OW 1550   1.934   2.028   0.318
  514SOL    HW1 1551   1.917   2.111   0.264
  514SOL    HW2 1552   2.024   1.991   0.296
  515SOL     OW 1553   2.475   2.704   1.431
  515SOL    HW1 1554   2.531   2.785   1.414
  515SOL    HW2 1555   2.534   2.624   1.434
  516SOL     OW 1556   2.290   2.286   0.520
  516SOL    HW1 1557   2.320   2.214   0.458
  516SOL    HW2 1558   2.251   2.246   0.603
  517SOL     OW 1559   2.179   2.409   1.280
  517SOL    HW1 1560   2.217   2.350   1.352
  517SOL    HW2 1561   2.219   2.383   1.192
  518SOL     OW 1562   1.984   2.505   2.425
  518SOL    HW1 1563   1.939   2.417   2.442
  518SOL    HW2 1564   1.983   2.559   2.509
  519SOL     OW 1565   2.727   2.210   2.057
  519SOL    HW1 1566   2.786   2.273   2.008
  519SOL    HW2 1567   2.746   2.116   2.028
  520SOL     OW 1568   2.476   1.984   1.979
  520SOL    HW1 1569   2.574   1.962   1.986
  520SOL    HW2 1570   2.445   1.967   1.886
  521SOL     OW 1571   2.401   1.926   2.374
  521SOL    HW1 1572   2.320   1.927   2.432
  521SOL    HW2 1573   2.404   2.009   2.319
  522SOL     OW 1574   2.159   1.897   2.033
  522SOL    HW1 1575   2.208   1.981   2.012
  522SOL    HW2 1576   2.221   1.832   2.078
  523SOL     OW 1577   2.797   2.098   2.342
  523SOL    HW1 1578   2.749   2.139   2.264
  523SOL    HW2 1579   2.896   2.096   2.323
  524SOL     OW 1580   2.389   2.118   2.190
  524SOL    HW1 1581   2.416   2.059   2.115
  524SOL    HW2 1582   2.389   2.213   2.159
  525SOL     OW 1583   2.677   2.434   2.187
  525SOL    HW1 1584   2.684   2.345   2.141
  525SOL    HW2 1585   2.583   2.468   2.179
  526SOL     OW 1586   1.937   2.207   1.895
  526SOL    HW1 1587   1.845   2.179   1.866
  526SOL    HW2 1588   1.968   2.284   1.839
  527SOL     OW 1589   1.934   2.028   2.180
  527SOL    HW1 1590   1.917   2.111   2.126
  527SOL    HW2 1591   2.024   1.991   2.158
  528SOL     OW 1592   2.290   2.286   2.382
  528SOL    HW1 1593   2.320   2.214   2.320
  528SOL    HW2 1594   2.251   2.246   2.465
   2.53169   2.53169   2.53169
