mobley_8809190_GMX.gro created by acpype (v: 2023.10.27) on Thu May 14 13:24:49 2026
 2592
    1MOL     C1    1   1.639   1.519   1.139
    1MOL     C2    2   1.664   1.614   1.238
    1MOL     C3    3   1.534   1.429   1.154
    1MOL     C4    4   1.584   1.619   1.352
    1MOL     C5    5   1.454   1.433   1.268
    1MOL     C6    6   1.480   1.528   1.366
    1MOL     C7    7   1.410   1.356   1.833
    1MOL     C8    8   1.393   1.533   1.489
    1MOL     C9    9   1.358   1.447   1.723
    1MOL    C10   10   1.448   1.444   1.600
    1MOL     H1   11   1.702   1.516   1.050
    1MOL     H2   12   1.746   1.685   1.226
    1MOL     H3   13   1.515   1.355   1.077
    1MOL     H4   14   1.604   1.693   1.428
    1MOL     H5   15   1.372   1.362   1.279
    1MOL     H6   16   1.510   1.386   1.866
    1MOL     H7   17   1.415   1.252   1.799
    1MOL     H8   18   1.343   1.359   1.920
    1MOL     H9   19   1.385   1.637   1.524
    1MOL    H10   20   1.291   1.503   1.463
    1MOL    H11   21   1.351   1.549   1.762
    1MOL    H12   22   1.256   1.416   1.696
    1MOL    H13   23   1.549   1.477   1.628
    1MOL    H14   24   1.458   1.341   1.564
    2SOL     OW   25   0.230   0.628   0.113
    2SOL    HW1   26   0.137   0.626   0.150
    2SOL    HW2   27   0.231   0.589   0.021
    3SOL     OW   28   0.225   0.275   0.996
    3SOL    HW1   29   0.260   0.258   1.088
    3SOL    HW2   30   0.137   0.230   0.984
    4SOL     OW   31   0.019   0.368   0.647
    4SOL    HW1   32  -0.063   0.411   0.686
    4SOL    HW2   33  -0.009   0.295   0.584
    5SOL     OW   34   0.569   1.275   1.165
    5SOL    HW1   35   0.476   1.268   1.128
    5SOL    HW2   36   0.580   1.364   1.209
    6SOL     OW   37   1.555   1.511   0.703
    6SOL    HW1   38   1.498   1.495   0.784
    6SOL    HW2   39   1.496   1.521   0.623
    7SOL     OW   40   1.135   0.703   0.717
    7SOL    HW1   41   1.192   0.781   0.692
    7SOL    HW2   42   1.075   0.729   0.793
    8SOL     OW   43   1.755   0.607   0.231
    8SOL    HW1   44   1.743   0.594   0.132
    8SOL    HW2   45   1.725   0.526   0.280
    9SOL     OW   46   0.768   1.144   1.023
    9SOL    HW1   47   0.690   1.161   1.083
    9SOL    HW2   48   0.802   1.231   0.987
   10SOL     OW   49   0.850   0.798   1.823
   10SOL    HW1   50   0.846   0.874   1.888
   10SOL    HW2   51   0.872   0.834   1.732
   11SOL     OW   52   0.685   1.012   0.665
   11SOL    HW1   53   0.754   0.996   0.735
   11SOL    HW2   54   0.612   1.069   0.703
   12SOL     OW   55   0.686   1.161   1.803
   12SOL    HW1   56   0.746   1.240   1.817
   12SOL    HW2   57   0.600   1.192   1.762
   13SOL     OW   58   0.335   1.435   1.061
   13SOL    HW1   59   0.257   1.404   1.008
   13SOL    HW2   60   0.393   1.493   1.004
   14SOL     OW   61   0.438   0.392   1.499
   14SOL    HW1   62   0.520   0.336   1.508
   14SOL    HW2   63   0.357   0.334   1.503
   15SOL     OW   64   1.603   0.447   0.737
   15SOL    HW1   65   1.529   0.493   0.687
   15SOL    HW2   66   1.654   0.515   0.790
   16SOL     OW   67   0.231   1.713   0.483
   16SOL    HW1   68   0.265   1.790   0.537
   16SOL    HW2   69   0.275   1.713   0.393
   17SOL     OW   70   0.230   1.434   0.538
   17SOL    HW1   71   0.204   1.530   0.538
   17SOL    HW2   72   0.159   1.380   0.583
   18SOL     OW   73   0.240   1.091   0.886
   18SOL    HW1   74   0.254   1.007   0.938
   18SOL    HW2   75   0.185   1.155   0.941
   19SOL     OW   76   0.620   1.786   1.439
   19SOL    HW1   77   0.528   1.769   1.474
   19SOL    HW2   78   0.648   1.878   1.465
   20SOL     OW   79   0.606   0.964   0.123
   20SOL    HW1   80   0.613   1.048   0.069
   20SOL    HW2   81   0.652   0.977   0.211
   21SOL     OW   82   1.594   0.114   1.480
   21SOL    HW1   83   1.576   0.181   1.408
   21SOL    HW2   84   1.591   0.160   1.569
   22SOL     OW   85   0.122   0.643   0.563
   22SOL    HW1   86   0.077   0.555   0.580
   22SOL    HW2   87   0.121   0.697   0.647
   23SOL     OW   88   1.842   1.767   0.359
   23SOL    HW1   89   1.896   1.738   0.439
   23SOL    HW2   90   1.872   1.857   0.330
   24SOL     OW   91   0.027   1.596   0.117
   24SOL    HW1   92   0.008   1.500   0.138
   24SOL    HW2   93  -0.006   1.654   0.192
   25SOL     OW   94   1.689   0.922   0.612
   25SOL    HW1   95   1.784   0.893   0.620
   25SOL    HW2   96   1.681   0.987   0.537
   26SOL     OW   97   1.641   1.108   0.432
   26SOL    HW1   98   1.727   1.110   0.380
   26SOL    HW2   99   1.655   1.155   0.520
   27SOL     OW  100   0.113   0.737   1.597
   27SOL    HW1  101   0.201   0.724   1.642
   27SOL    HW2  102   0.100   0.834   1.575
   28SOL     OW  103   0.613   1.365   0.726
   28SOL    HW1  104   0.564   1.278   0.735
   28SOL    HW2  105   0.590   1.408   0.639
   29SOL     OW  106   1.293   1.228   1.423
   29SOL    HW1  107   1.330   1.155   1.365
   29SOL    HW2  108   1.345   1.233   1.508
   30SOL     OW  109   0.809   0.004   0.502
   30SOL    HW1  110   0.849   0.095   0.493
   30SOL    HW2  111   0.709   0.012   0.508
   31SOL     OW  112   0.197   0.976   1.264
   31SOL    HW1  113   0.286   0.931   1.250
   31SOL    HW2  114   0.124   0.911   1.245
   32SOL     OW  115   1.525   0.999   0.190
   32SOL    HW1  116   1.462   0.923   0.203
   32SOL    HW2  117   1.573   1.017   0.276
   33SOL     OW  118   1.187   1.792   1.616
   33SOL    HW1  119   1.211   1.852   1.540
   33SOL    HW2  120   1.194   1.697   1.586
   34SOL     OW  121   0.317   0.251   1.801
   34SOL    HW1  122   0.388   0.322   1.807
   34SOL    HW2  123   0.229   0.290   1.829
   35SOL     OW  124   1.667   1.714   0.572
   35SOL    HW1  125   1.626   1.691   0.484
   35SOL    HW2  126   1.649   1.640   0.637
   36SOL     OW  127   0.598   0.729   0.270
   36SOL    HW1  128   0.622   0.798   0.202
   36SOL    HW2  129   0.520   0.762   0.324
   37SOL     OW  130   1.281   0.345   0.944
   37SOL    HW1  131   1.195   0.295   0.931
   37SOL    HW2  132   1.343   0.291   1.000
   38SOL     OW  133   1.576   1.662   0.307
   38SOL    HW1  134   1.665   1.708   0.310
   38SOL    HW2  135   1.555   1.638   0.212
   39SOL     OW  136   0.807   0.605   1.465
   39SOL    HW1  137   0.760   0.602   1.554
   39SOL    HW2  138   0.756   0.550   1.399
   40SOL     OW  139   1.394   0.469   1.674
   40SOL    HW1  140   1.374   0.512   1.762
   40SOL    HW2  141   1.472   0.407   1.683
   41SOL     OW  142   0.973   0.890   1.572
   41SOL    HW1  143   1.019   0.806   1.543
   41SOL    HW2  144   0.917   0.924   1.497
   42SOL     OW  145   0.991   0.410   1.242
   42SOL    HW1  146   0.914   0.444   1.296
   42SOL    HW2  147   0.957   0.359   1.163
   43SOL     OW  148   1.041   0.701   0.429
   43SOL    HW1  149   1.067   0.697   0.525
   43SOL    HW2  150   0.956   0.650   0.415
   44SOL     OW  151   0.076   0.811   0.789
   44SOL    HW1  152   0.175   0.799   0.798
   44SOL    HW2  153   0.052   0.906   0.810
   45SOL     OW  154   0.130   1.821   1.571
   45SOL    HW1  155   0.120   1.806   1.670
   45SOL    HW2  156   0.044   1.857   1.535
   46SOL     OW  157   0.865   0.348   0.195
   46SOL    HW1  158   0.924   0.411   0.146
   46SOL    HW2  159   0.884   0.254   0.166
   47SOL     OW  160   1.719   0.585   1.831
   47SOL    HW1  161   1.693   0.674   1.795
   47SOL    HW2  162   1.717   0.517   1.758
   48SOL     OW  163   1.362   1.144   0.545
   48SOL    HW1  164   1.445   1.115   0.497
   48SOL    HW2  165   1.313   1.211   0.489
   49SOL     OW  166   0.550   0.196   0.885
   49SOL    HW1  167   0.545   0.191   0.985
   49SOL    HW2  168   0.552   0.292   0.856
   50SOL     OW  169   1.008   1.456   0.477
   50SOL    HW1  170   0.962   1.528   0.425
   50SOL    HW2  171   1.004   1.476   0.575
   51SOL     OW  172   0.351   1.801   0.853
   51SOL    HW1  173   0.401   1.715   0.859
   51SOL    HW2  174   0.416   1.878   0.850
   52SOL     OW  175   1.795   1.066   0.873
   52SOL    HW1  176   1.733   1.051   0.797
   52SOL    HW2  177   1.743   1.077   0.958
   53SOL     OW  178   0.321   0.943   0.242
   53SOL    HW1  179   0.403   0.982   0.200
   53SOL    HW2  180   0.294   0.861   0.193
   54SOL     OW  181   1.458   0.735   0.728
   54SOL    HW1  182   1.453   0.670   0.803
   54SOL    HW2  183   1.538   0.794   0.741
   55SOL     OW  184   0.461   1.266   1.727
   55SOL    HW1  185   0.411   1.267   1.641
   55SOL    HW2  186   0.398   1.248   1.803
   56SOL     OW  187   1.111   1.776   0.237
   56SOL    HW1  188   1.051   1.714   0.287
   56SOL    HW2  189   1.142   1.732   0.152
   57SOL     OW  190   0.202   0.285   1.498
   57SOL    HW1  191   0.122   0.345   1.485
   57SOL    HW2  192   0.192   0.236   1.584
   58SOL     OW  193   1.632   1.377   0.081
   58SOL    HW1  194   1.600   1.471   0.071
   58SOL    HW2  195   1.556   1.314   0.069
   59SOL     OW  196   0.464   1.743   0.323
   59SOL    HW1  197   0.497   1.782   0.409
   59SOL    HW2  198   0.540   1.736   0.258
   60SOL     OW  199   1.400   0.107   0.426
   60SOL    HW1  200   1.376   0.070   0.336
   60SOL    HW2  201   1.499   0.123   0.430
   61SOL     OW  202   0.249   1.785   1.241
   61SOL    HW1  203   0.306   1.720   1.291
   61SOL    HW2  204   0.233   1.752   1.148
   62SOL     OW  205   0.940   1.698   0.904
   62SOL    HW1  206   1.020   1.641   0.925
   62SOL    HW2  207   0.891   1.658   0.827
   63SOL     OW  208   0.382   0.700   0.480
   63SOL    HW1  209   0.427   0.610   0.477
   63SOL    HW2  210   0.288   0.689   0.513
   64SOL     OW  211   1.547   0.222   1.729
   64SOL    HW1  212   1.542   0.259   1.821
   64SOL    HW2  213   1.475   0.153   1.717
   65SOL     OW  214   0.614   0.122   0.117
   65SOL    HW1  215   0.712   0.100   0.124
   65SOL    HW2  216   0.583   0.105   0.024
   66SOL     OW  217   0.781   0.264   1.749
   66SOL    HW1  218   0.848   0.203   1.792
   66SOL    HW2  219   0.708   0.283   1.814
   67SOL     OW  220   0.888   1.514   1.195
   67SOL    HW1  221   0.865   1.489   1.101
   67SOL    HW2  222   0.949   1.445   1.234
   68SOL     OW  223   1.351   0.590   1.433
   68SOL    HW1  224   1.379   0.547   1.518
   68SOL    HW2  225   1.376   0.686   1.434
   69SOL     OW  226   0.803   1.402   0.924
   69SOL    HW1  227   0.893   1.416   0.882
   69SOL    HW2  228   0.732   1.404   0.853
   70SOL     OW  229   0.922   0.503   0.899
   70SOL    HW1  230   0.897   0.494   0.803
   70SOL    HW2  231   0.970   0.421   0.930
   71SOL     OW  232   0.539   0.064   0.512
   71SOL    HW1  233   0.458   0.065   0.570
   71SOL    HW2  234   0.542   0.147   0.457
   72SOL     OW  235   1.434   1.188   0.041
   72SOL    HW1  236   1.466   1.112   0.098
   72SOL    HW2  237   1.342   1.215   0.071
   73SOL     OW  238   0.297   0.035   0.171
   73SOL    HW1  239   0.346   0.119   0.150
   73SOL    HW2  240   0.359  -0.030   0.216
   74SOL     OW  241   0.935   0.236   0.480
   74SOL    HW1  242   0.887   0.277   0.402
   74SOL    HW2  243   1.034   0.234   0.461
   75SOL     OW  244   1.076   0.683   1.464
   75SOL    HW1  245   0.996   0.622   1.467
   75SOL    HW2  246   1.157   0.630   1.440
   76SOL     OW  247   1.227   1.570   0.793
   76SOL    HW1  248   1.248   1.644   0.728
   76SOL    HW2  249   1.295   1.570   0.866
   77SOL     OW  250   0.459   1.152   0.741
   77SOL    HW1  251   0.388   1.125   0.806
   77SOL    HW2  252   0.433   1.124   0.648
   78SOL     OW  253   1.271   1.797   0.591
   78SOL    HW1  254   1.315   1.861   0.527
   78SOL    HW2  255   1.221   1.849   0.661
   79SOL     OW  256   1.032   0.549   0.016
   79SOL    HW1  257   0.991   0.631  -0.023
   79SOL    HW2  258   1.096   0.575   0.089
   80SOL     OW  259   0.078   0.556   1.386
   80SOL    HW1  260   0.170   0.555   1.345
   80SOL    HW2  261   0.072   0.630   1.453
   81SOL     OW  262   0.561   0.222   1.147
   81SOL    HW1  263   0.599   0.138   1.184
   81SOL    HW2  264   0.473   0.241   1.191
   82SOL     OW  265   0.866   0.454   0.642
   82SOL    HW1  266   0.834   0.526   0.580
   82SOL    HW2  267   0.890   0.373   0.589
   83SOL     OW  268   1.017   0.039   0.753
   83SOL    HW1  269   0.945   0.044   0.684
   83SOL    HW2  270   0.993  -0.030   0.822
   84SOL     OW  271   1.429   1.173   0.867
   84SOL    HW1  272   1.374   1.089   0.860
   84SOL    HW2  273   1.455   1.202   0.775
   85SOL     OW  274   1.466   0.590   0.992
   85SOL    HW1  275   1.436   0.495   0.999
   85SOL    HW2  276   1.539   0.606   1.058
   86SOL     OW  277   1.857   0.833   0.377
   86SOL    HW1  278   1.899   0.769   0.441
   86SOL    HW2  279   1.819   0.782   0.299
   87SOL     OW  280   0.488   1.385   0.174
   87SOL    HW1  281   0.401   1.370   0.221
   87SOL    HW2  282   0.471   1.411   0.079
   88SOL     OW  283   1.664   1.280   0.657
   88SOL    HW1  284   1.763   1.288   0.671
   88SOL    HW2  285   1.619   1.364   0.688
   89SOL     OW  286   1.390   0.575   0.078
   89SOL    HW1  287   1.336   0.554   0.159
   89SOL    HW2  288   1.481   0.534   0.087
   90SOL     OW  289   0.527   0.256   0.328
   90SOL    HW1  290   0.554   0.197   0.253
   90SOL    HW2  291   0.527   0.351   0.297
   91SOL     OW  292   1.754   1.223   1.588
   91SOL    HW1  293   1.845   1.184   1.575
   91SOL    HW2  294   1.762   1.319   1.612
   92SOL     OW  295   1.064   1.347   1.340
   92SOL    HW1  296   0.984   1.324   1.395
   92SOL    HW2  297   1.147   1.321   1.389
   93SOL     OW  298   1.111   1.195   1.100
   93SOL    HW1  299   1.071   1.239   1.181
   93SOL    HW2  300   1.070   1.232   1.017
   94SOL     OW  301   1.638   1.099   1.079
   94SOL    HW1  302   1.643   1.180   1.138
   94SOL    HW2  303   1.552   1.101   1.028
   95SOL     OW  304   0.915   0.089   1.402
   95SOL    HW1  305   0.940   0.069   1.307
   95SOL    HW2  306   0.987   0.145   1.444
   96SOL     OW  307   0.980   1.116   1.719
   96SOL    HW1  308   0.881   1.122   1.729
   96SOL    HW2  309   1.003   1.036   1.663
   97SOL     OW  310   0.705   1.050   0.368
   97SOL    HW1  311   0.691   1.057   0.467
   97SOL    HW2  312   0.789   0.999   0.350
   98SOL     OW  313   0.410   0.813   1.251
   98SOL    HW1  314   0.496   0.825   1.301
   98SOL    HW2  315   0.368   0.726   1.278
   99SOL     OW  316   1.274   0.386   1.262
   99SOL    HW1  317   1.295   0.460   1.326
   99SOL    HW2  318   1.185   0.403   1.219
  100SOL     OW  319   0.064   1.564   1.331
  100SOL    HW1  320   0.018   1.646   1.297
  100SOL    HW2  321   0.162   1.583   1.340
  101SOL     OW  322   0.367   1.100   0.501
  101SOL    HW1  323   0.360   1.183   0.445
  101SOL    HW2  324   0.371   1.020   0.441
  102SOL     OW  325   0.566   0.537   0.865
  102SOL    HW1  326   0.578   0.603   0.791
  102SOL    HW2  327   0.612   0.571   0.948
  103SOL     OW  328   1.252   1.348   0.388
  103SOL    HW1  329   1.302   1.425   0.428
  103SOL    HW2  330   1.157   1.350   0.420
  104SOL     OW  331   1.582   0.639   0.472
  104SOL    HW1  332   1.551   0.700   0.545
  104SOL    HW2  333   1.632   0.691   0.403
  105SOL     OW  334   0.354   1.510   1.329
  105SOL    HW1  335   0.333   1.466   1.242
  105SOL    HW2  336   0.451   1.536   1.332
  106SOL     OW  337   0.402   0.751   1.598
  106SOL    HW1  338   0.470   0.806   1.551
  106SOL    HW2  339   0.442   0.663   1.625
  107SOL     OW  340   1.587   0.779   1.670
  107SOL    HW1  341   1.495   0.817   1.665
  107SOL    HW2  342   1.647   0.826   1.605
  108SOL     OW  343   1.013   0.105   1.770
  108SOL    HW1  344   1.019   0.190   1.718
  108SOL    HW2  345   1.045   0.029   1.713
  109SOL     OW  346   0.504   0.050   1.740
  109SOL    HW1  347   0.462  -0.007   1.670
  109SOL    HW2  348   0.438   0.119   1.772
  110SOL     OW  349   0.573   0.870   1.029
  110SOL    HW1  350   0.617   0.959   1.020
  110SOL    HW2  351   0.510   0.870   1.106
  111SOL     OW  352   1.360   0.862   1.045
  111SOL    HW1  353   1.285   0.862   0.979
  111SOL    HW2  354   1.397   0.770   1.054
  112SOL     OW  355   1.209   0.525   0.275
  112SOL    HW1  356   1.222   0.441   0.329
  112SOL    HW2  357   1.180   0.599   0.335
  113SOL     OW  358   0.307   0.213   1.231
  113SOL    HW1  359   0.284   0.250   1.321
  113SOL    HW2  360   0.277   0.118   1.225
  114SOL     OW  361   0.037   1.310   1.282
  114SOL    HW1  362   0.090   1.261   1.350
  114SOL    HW2  363   0.059   1.408   1.287
  115SOL     OW  364   0.732   0.634   1.064
  115SOL    HW1  365   0.791   0.608   0.988
  115SOL    HW2  366   0.704   0.730   1.053
  116SOL     OW  367   1.728   0.935   1.854
  116SOL    HW1  368   1.682   0.928   1.765
  116SOL    HW2  369   1.666   0.979   1.920
  117SOL     OW  370   0.307   0.063   0.618
  117SOL    HW1  371   0.296   0.157   0.651
  117SOL    HW2  372   0.302   0.000   0.695
  118SOL     OW  373   1.622   0.367   0.374
  118SOL    HW1  374   1.624   0.291   0.438
  118SOL    HW2  375   1.574   0.444   0.414
  119SOL     OW  376   1.023   0.766   0.966
  119SOL    HW1  377   1.038   0.787   1.062
  119SOL    HW2  378   0.993   0.671   0.957
  120SOL     OW  379   0.980   1.573   1.700
  120SOL    HW1  380   0.960   1.617   1.612
  120SOL    HW2  381   1.019   1.482   1.684
  121SOL     OW  382   1.859   1.518   1.605
  121SOL    HW1  383   1.873   1.545   1.510
  121SOL    HW2  384   1.942   1.540   1.658
  122SOL     OW  385   0.350   0.898   1.804
  122SOL    HW1  386   0.426   0.942   1.852
  122SOL    HW2  387   0.385   0.851   1.722
  123SOL     OW  388   1.540   0.274   0.125
  123SOL    HW1  389   1.479   0.199   0.148
  123SOL    HW2  390   1.562   0.326   0.208
  124SOL     OW  391   1.303   0.838   0.042
  124SOL    HW1  392   1.337   0.745   0.057
  124SOL    HW2  393   1.321   0.865  -0.053
  125SOL     OW  394   1.068   1.333   0.849
  125SOL    HW1  395   1.075   1.249   0.794
  125SOL    HW2  396   1.130   1.402   0.813
  126SOL     OW  397   0.319   0.810   0.949
  126SOL    HW1  398   0.412   0.846   0.954
  126SOL    HW2  399   0.313   0.725   1.001
  127SOL     OW  400   0.339   0.509   1.006
  127SOL    HW1  401   0.287   0.426   0.989
  127SOL    HW2  402   0.416   0.514   0.942
  128SOL     OW  403   1.138   0.380   1.678
  128SOL    HW1  404   1.093   0.443   1.742
  128SOL    HW2  405   1.231   0.411   1.661
  129SOL     OW  406   1.160   0.207   1.477
  129SOL    HW1  407   1.160   0.271   1.554
  129SOL    HW2  408   1.188   0.255   1.394
  130SOL     OW  409   0.008   1.326   0.200
  130SOL    HW1  410  -0.085   1.347   0.169
  130SOL    HW2  411   0.018   1.227   0.213
  131SOL     OW  412   0.088   1.801   0.927
  131SOL    HW1  413   0.046   1.715   0.900
  131SOL    HW2  414   0.182   1.804   0.893
  132SOL     OW  415   0.504   1.568   0.910
  132SOL    HW1  416   0.570   1.642   0.919
  132SOL    HW2  417   0.548   1.489   0.868
  133SOL     OW  418   1.002   0.796   1.238
  133SOL    HW1  419   1.043   0.764   1.324
  133SOL    HW2  420   0.906   0.769   1.235
  134SOL     OW  421   0.040   0.544   1.114
  134SOL    HW1  422   0.125   0.511   1.073
  134SOL    HW2  423   0.053   0.559   1.212
  135SOL     OW  424   0.189   0.520   1.722
  135SOL    HW1  425   0.248   0.480   1.652
  135SOL    HW2  426   0.131   0.591   1.681
  136SOL     OW  427   1.369   0.950   1.660
  136SOL    HW1  428   1.408   1.039   1.680
  136SOL    HW2  429   1.379   0.930   1.563
  137SOL     OW  430   0.815   0.572   0.325
  137SOL    HW1  431   0.822   0.483   0.279
  137SOL    HW2  432   0.721   0.606   0.317
  138SOL     OW  433   1.657   0.604   1.206
  138SOL    HW1  434   1.619   0.535   1.268
  138SOL    HW2  435   1.739   0.568   1.162
  139SOL     OW  436   0.252   1.564   1.744
  139SOL    HW1  437   0.222   1.621   1.820
  139SOL    HW2  438   0.245   1.467   1.770
  140SOL     OW  439   0.671   0.464   1.269
  140SOL    HW1  440   0.637   0.375   1.239
  140SOL    HW2  441   0.697   0.518   1.189
  141SOL     OW  442   0.930   1.678   1.465
  141SOL    HW1  443   0.906   1.660   1.370
  141SOL    HW2  444   0.960   1.772   1.475
  142SOL     OW  445   0.473   0.500   0.191
  142SOL    HW1  446   0.534   0.580   0.195
  142SOL    HW2  447   0.378   0.531   0.198
  143SOL     OW  448   0.159   1.137   1.466
  143SOL    HW1  449   0.181   1.076   1.542
  143SOL    HW2  450   0.169   1.088   1.380
  144SOL     OW  451   1.347   1.059   1.234
  144SOL    HW1  452   1.371   0.996   1.160
  144SOL    HW2  453   1.257   1.099   1.216
  145SOL     OW  454   1.302   0.855   0.309
  145SOL    HW1  455   1.216   0.824   0.351
  145SOL    HW2  456   1.298   0.841   0.210
  146SOL     OW  457   1.252   1.731   1.128
  146SOL    HW1  458   1.336   1.736   1.074
  146SOL    HW2  459   1.229   1.635   1.146
  147SOL     OW  460   0.083   1.258   1.022
  147SOL    HW1  461   0.078   1.257   1.122
  147SOL    HW2  462   0.000   1.217   0.984
  148SOL     OW  463   0.688   1.662   1.716
  148SOL    HW1  464   0.632   1.743   1.725
  148SOL    HW2  465   0.740   1.666   1.630
  149SOL     OW  466   0.903   0.086   0.133
  149SOL    HW1  467   0.954   0.087   0.047
  149SOL    HW2  468   0.959   0.044   0.204
  150SOL     OW  469   1.726   0.135   0.523
  150SOL    HW1  470   1.799   0.118   0.456
  150SOL    HW2  471   1.695   0.048   0.561
  151SOL     OW  472   1.388   1.573   0.477
  151SOL    HW1  473   1.455   1.585   0.403
  151SOL    HW2  474   1.348   1.662   0.500
  152SOL     OW  475   0.130   1.794   1.851
  152SOL    HW1  476   0.089   1.720   1.904
  152SOL    HW2  477   0.194   1.845   1.909
  153SOL     OW  478   1.280   0.927   0.672
  153SOL    HW1  479   1.340   0.846   0.674
  153SOL    HW2  480   1.320   0.996   0.612
  154SOL     OW  481   0.830   1.273   1.422
  154SOL    HW1  482   0.825   1.306   1.517
  154SOL    HW2  483   0.744   1.292   1.376
  155SOL     OW  484   0.672   1.616   0.154
  155SOL    HW1  485   0.681   1.626   0.055
  155SOL    HW2  486   0.632   1.527   0.175
  156SOL     OW  487   1.841   0.175   0.963
  156SOL    HW1  488   1.880   0.090   0.927
  156SOL    HW2  489   1.743   0.177   0.944
  157SOL     OW  490   0.263   0.326   0.720
  157SOL    HW1  491   0.184   0.377   0.686
  157SOL    HW2  492   0.254   0.311   0.818
  158SOL     OW  493   1.194   1.612   0.031
  158SOL    HW1  494   1.200   1.519   0.068
  158SOL    HW2  495   1.135   1.612  -0.049
  159SOL     OW  496   0.822   1.002   1.372
  159SOL    HW1  497   0.862   1.001   1.280
  159SOL    HW2  498   0.832   1.094   1.412
  160SOL     OW  499   0.916   0.910   0.291
  160SOL    HW1  500   0.979   0.948   0.223
  160SOL    HW2  501   0.956   0.827   0.330
  161SOL     OW  502   1.504   1.607   0.044
  161SOL    HW1  503   1.412   1.644   0.051
  161SOL    HW2  504   1.542   1.627  -0.046
  162SOL     OW  505   0.372   1.288   1.490
  162SOL    HW1  506   0.359   1.381   1.456
  162SOL    HW2  507   0.288   1.236   1.477
  163SOL     OW  508   1.039   1.098   0.696
  163SOL    HW1  509   0.969   1.051   0.750
  163SOL    HW2  510   1.098   1.030   0.653
  164SOL     OW  511   1.014   0.236   0.971
  164SOL    HW1  512   1.006   0.200   0.878
  164SOL    HW2  513   1.012   0.160   1.036
  165SOL     OW  514   0.590   1.487   0.491
  165SOL    HW1  515   0.632   1.429   0.421
  165SOL    HW2  516   0.546   1.566   0.447
  166SOL     OW  517   1.709   0.385   1.381
  166SOL    HW1  518   1.782   0.454   1.385
  166SOL    HW2  519   1.737   0.310   1.322
  167SOL     OW  520   0.255   1.348   0.290
  167SOL    HW1  521   0.159   1.349   0.263
  167SOL    HW2  522   0.267   1.401   0.374
  168SOL     OW  523   0.105   1.013   1.726
  168SOL    HW1  524   0.028   0.980   1.780
  168SOL    HW2  525   0.190   0.983   1.768
  169SOL     OW  526   0.672   0.203   1.489
  169SOL    HW1  527   0.762   0.187   1.449
  169SOL    HW2  528   0.680   0.208   1.588
  170SOL     OW  529   0.075   0.345   0.033
  170SOL    HW1  530  -0.017   0.317   0.004
  170SOL    HW2  531   0.106   0.422  -0.023
  171SOL     OW  532   1.440   0.856   1.398
  171SOL    HW1  533   1.383   0.908   1.335
  171SOL    HW2  534   1.536   0.868   1.374
  172SOL     OW  535   0.072   0.166   0.318
  172SOL    HW1  536   0.055   0.249   0.264
  172SOL    HW2  537   0.162   0.129   0.296
  173SOL     OW  538   1.183   1.335   0.119
  173SOL    HW1  539   1.084   1.324   0.121
  173SOL    HW2  540   1.217   1.350   0.212
  174SOL     OW  541   0.613   0.842   1.431
  174SOL    HW1  542   0.669   0.923   1.414
  174SOL    HW2  543   0.672   0.762   1.434
  175SOL     OW  544   1.493   1.767   0.959
  175SOL    HW1  545   1.526   1.831   0.890
  175SOL    HW2  546   1.559   1.761   1.034
  176SOL     OW  547   0.716   0.565   1.708
  176SOL    HW1  548   0.735   0.630   1.782
  176SOL    HW2  549   0.776   0.485   1.717
  177SOL     OW  550   0.390   1.741   1.560
  177SOL    HW1  551   0.299   1.782   1.558
  177SOL    HW2  552   0.383   1.647   1.592
  178SOL     OW  553   1.674   0.883   1.254
  178SOL    HW1  554   1.647   0.794   1.217
  178SOL    HW2  555   1.675   0.951   1.181
  179SOL     OW  556   1.225   0.325   0.449
  179SOL    HW1  557   1.290   0.251   0.438
  179SOL    HW2  558   1.245   0.375   0.533
  180SOL     OW  559   0.594   0.745   0.652
  180SOL    HW1  560   0.644   0.830   0.633
  180SOL    HW2  561   0.506   0.747   0.604
  181SOL     OW  562   1.777   0.342   1.642
  181SOL    HW1  563   1.760   0.373   1.548
  181SOL    HW2  564   1.693   0.305   1.680
  182SOL     OW  565   1.730   0.934   1.517
  182SOL    HW1  566   1.768   1.025   1.532
  182SOL    HW2  567   1.722   0.917   1.418
  183SOL     OW  568   0.859   1.374   0.016
  183SOL    HW1  569   0.813   1.389   0.104
  183SOL    HW2  570   0.903   1.459  -0.014
  184SOL     OW  571   0.661   1.790   0.953
  184SOL    HW1  572   0.615   1.878   0.940
  184SOL    HW2  573   0.760   1.802   0.946
  185SOL     OW  574   0.859   0.956   0.861
  185SOL    HW1  575   0.913   0.887   0.909
  185SOL    HW2  576   0.827   1.025   0.927
  186SOL     OW  577   1.083   0.984   0.087
  186SOL    HW1  578   1.060   1.037   0.005
  186SOL    HW2  579   1.164   0.928   0.068
  187SOL     OW  580   1.861   1.569   0.851
  187SOL    HW1  581   1.790   1.557   0.781
  187SOL    HW2  582   1.862   1.490   0.911
  188SOL     OW  583   0.221   1.314   1.844
  188SOL    HW1  584   0.156   1.241   1.823
  188SOL    HW2  585   0.225   1.328   1.942
  189SOL     OW  586   0.079   1.240   0.653
  189SOL    HW1  587   0.078   1.193   0.741
  189SOL    HW2  588   0.161   1.212   0.602
  190SOL     OW  589   0.672   1.391   1.624
  190SOL    HW1  590   0.594   1.341   1.662
  190SOL    HW2  591   0.669   1.486   1.655
  191SOL     OW  592   1.824   0.192   1.227
  191SOL    HW1  593   1.820   0.102   1.271
  191SOL    HW2  594   1.827   0.181   1.128
  192SOL     OW  595   0.428   0.424   0.520
  192SOL    HW1  596   0.458   0.352   0.458
  192SOL    HW2  597   0.389   0.384   0.603
  193SOL     OW  598   0.317   0.547   1.280
  193SOL    HW1  599   0.355   0.488   1.352
  193SOL    HW2  600   0.357   0.521   1.192
  194SOL     OW  601   0.812   1.586   0.687
  194SOL    HW1  602   0.844   1.596   0.593
  194SOL    HW2  603   0.733   1.524   0.689
  195SOL     OW  604   1.424   0.214   1.112
  195SOL    HW1  605   1.476   0.149   1.167
  195SOL    HW2  606   1.375   0.277   1.173
  196SOL     OW  607   1.001   0.034   1.154
  196SOL    HW1  608   0.938  -0.038   1.123
  196SOL    HW2  609   1.094  -0.002   1.154
  197SOL     OW  610   0.770   1.330   0.301
  197SOL    HW1  611   0.724   1.243   0.318
  197SOL    HW2  612   0.861   1.327   0.342
  198SOL     OW  613   0.618   1.567   1.284
  198SOL    HW1  614   0.613   1.649   1.341
  198SOL    HW2  615   0.707   1.564   1.239
  199SOL     OW  616   1.352   0.052   0.168
  199SOL    HW1  617   1.387   0.011   0.084
  199SOL    HW2  618   1.262   0.014   0.188
  200SOL     OW  619   1.300   0.453   0.691
  200SOL    HW1  620   1.241   0.533   0.695
  200SOL    HW2  621   1.315   0.418   0.784
  201SOL     OW  622   1.593   0.221   0.882
  201SOL    HW1  623   1.509   0.220   0.936
  201SOL    HW2  624   1.595   0.304   0.826
  202SOL     OW  625   0.039   1.077   0.300
  202SOL    HW1  626   0.138   1.066   0.291
  202SOL    HW2  627  -0.001   0.991   0.332
  203SOL     OW  628   0.875   1.646   0.337
  203SOL    HW1  629   0.798   1.611   0.283
  203SOL    HW2  630   0.843   1.717   0.399
  204SOL     OW  631   0.230   0.628   1.975
  204SOL    HW1  632   0.137   0.626   2.012
  204SOL    HW2  633   0.231   0.589   1.883
  205SOL     OW  634   0.225   0.275   2.858
  205SOL    HW1  635   0.260   0.258   2.950
  205SOL    HW2  636   0.137   0.230   2.846
  206SOL     OW  637   0.019   0.368   2.509
  206SOL    HW1  638  -0.063   0.411   2.548
  206SOL    HW2  639  -0.009   0.295   2.446
  207SOL     OW  640   1.555   1.511   2.565
  207SOL    HW1  641   1.498   1.495   2.646
  207SOL    HW2  642   1.496   1.521   2.485
  208SOL     OW  643   1.135   0.703   2.579
  208SOL    HW1  644   1.192   0.781   2.554
  208SOL    HW2  645   1.075   0.729   2.655
  209SOL     OW  646   1.755   0.607   2.093
  209SOL    HW1  647   1.743   0.594   1.994
  209SOL    HW2  648   1.725   0.526   2.142
  210SOL     OW  649   0.768   1.144   2.885
  210SOL    HW1  650   0.690   1.161   2.945
  210SOL    HW2  651   0.802   1.231   2.849
  211SOL     OW  652   0.685   1.012   2.527
  211SOL    HW1  653   0.754   0.996   2.597
  211SOL    HW2  654   0.612   1.069   2.565
  212SOL     OW  655   0.335   1.435   2.923
  212SOL    HW1  656   0.257   1.404   2.870
  212SOL    HW2  657   0.393   1.493   2.866
  213SOL     OW  658   1.603   0.447   2.599
  213SOL    HW1  659   1.529   0.493   2.549
  213SOL    HW2  660   1.654   0.515   2.652
  214SOL     OW  661   0.231   1.713   2.345
  214SOL    HW1  662   0.265   1.790   2.399
  214SOL    HW2  663   0.275   1.713   2.255
  215SOL     OW  664   0.230   1.434   2.400
  215SOL    HW1  665   0.204   1.530   2.400
  215SOL    HW2  666   0.159   1.380   2.445
  216SOL     OW  667   0.240   1.091   2.748
  216SOL    HW1  668   0.254   1.007   2.800
  216SOL    HW2  669   0.185   1.155   2.803
  217SOL     OW  670   0.606   0.964   1.985
  217SOL    HW1  671   0.613   1.048   1.931
  217SOL    HW2  672   0.652   0.977   2.073
  218SOL     OW  673   0.122   0.643   2.425
  218SOL    HW1  674   0.077   0.555   2.442
  218SOL    HW2  675   0.121   0.697   2.509
  219SOL     OW  676   1.842   1.767   2.221
  219SOL    HW1  677   1.896   1.738   2.301
  219SOL    HW2  678   1.872   1.857   2.192
  220SOL     OW  679   0.027   1.596   1.979
  220SOL    HW1  680   0.008   1.500   2.000
  220SOL    HW2  681  -0.006   1.654   2.054
  221SOL     OW  682   1.689   0.922   2.474
  221SOL    HW1  683   1.784   0.893   2.482
  221SOL    HW2  684   1.681   0.987   2.399
  222SOL     OW  685   1.641   1.108   2.294
  222SOL    HW1  686   1.727   1.110   2.242
  222SOL    HW2  687   1.655   1.155   2.382
  223SOL     OW  688   0.613   1.365   2.588
  223SOL    HW1  689   0.564   1.278   2.597
  223SOL    HW2  690   0.590   1.408   2.501
  224SOL     OW  691   0.809   0.004   2.364
  224SOL    HW1  692   0.849   0.095   2.355
  224SOL    HW2  693   0.709   0.012   2.370
  225SOL     OW  694   1.525   0.999   2.052
  225SOL    HW1  695   1.462   0.923   2.065
  225SOL    HW2  696   1.573   1.017   2.138
  226SOL     OW  697   1.466   1.417   2.815
  226SOL    HW1  698   1.407   1.423   2.895
  226SOL    HW2  699   1.451   1.329   2.769
  227SOL     OW  700   1.667   1.714   2.434
  227SOL    HW1  701   1.626   1.691   2.346
  227SOL    HW2  702   1.649   1.640   2.499
  228SOL     OW  703   0.598   0.729   2.132
  228SOL    HW1  704   0.622   0.798   2.064
  228SOL    HW2  705   0.520   0.762   2.186
  229SOL     OW  706   1.281   0.345   2.806
  229SOL    HW1  707   1.195   0.295   2.793
  229SOL    HW2  708   1.343   0.291   2.862
  230SOL     OW  709   1.576   1.662   2.169
  230SOL    HW1  710   1.665   1.708   2.172
  230SOL    HW2  711   1.555   1.638   2.074
  231SOL     OW  712   1.041   0.701   2.291
  231SOL    HW1  713   1.067   0.697   2.387
  231SOL    HW2  714   0.956   0.650   2.277
  232SOL     OW  715   0.076   0.811   2.651
  232SOL    HW1  716   0.175   0.799   2.660
  232SOL    HW2  717   0.052   0.906   2.672
  233SOL     OW  718   0.865   0.348   2.057
  233SOL    HW1  719   0.924   0.411   2.008
  233SOL    HW2  720   0.884   0.254   2.028
  234SOL     OW  721   1.362   1.144   2.407
  234SOL    HW1  722   1.445   1.115   2.359
  234SOL    HW2  723   1.313   1.211   2.351
  235SOL     OW  724   0.550   0.196   2.747
  235SOL    HW1  725   0.545   0.191   2.847
  235SOL    HW2  726   0.552   0.292   2.718
  236SOL     OW  727   1.008   1.456   2.339
  236SOL    HW1  728   0.962   1.528   2.287
  236SOL    HW2  729   1.004   1.476   2.437
  237SOL     OW  730   0.351   1.801   2.715
  237SOL    HW1  731   0.401   1.715   2.721
  237SOL    HW2  732   0.416   1.878   2.712
  238SOL     OW  733   1.795   1.066   2.735
  238SOL    HW1  734   1.733   1.051   2.659
  238SOL    HW2  735   1.743   1.077   2.820
  239SOL     OW  736   0.321   0.943   2.104
  239SOL    HW1  737   0.403   0.982   2.062
  239SOL    HW2  738   0.294   0.861   2.055
  240SOL     OW  739   1.458   0.735   2.590
  240SOL    HW1  740   1.453   0.670   2.665
  240SOL    HW2  741   1.538   0.794   2.603
  241SOL     OW  742   1.111   1.776   2.099
  241SOL    HW1  743   1.051   1.714   2.149
  241SOL    HW2  744   1.142   1.732   2.014
  242SOL     OW  745   0.464   1.743   2.185
  242SOL    HW1  746   0.497   1.782   2.271
  242SOL    HW2  747   0.540   1.736   2.120
  243SOL     OW  748   1.400   0.107   2.288
  243SOL    HW1  749   1.376   0.070   2.198
  243SOL    HW2  750   1.499   0.123   2.292
  244SOL     OW  751   0.249   1.785   3.103
  244SOL    HW1  752   0.306   1.720   3.153
  244SOL    HW2  753   0.233   1.752   3.010
  245SOL     OW  754   0.940   1.698   2.766
  245SOL    HW1  755   1.020   1.641   2.787
  245SOL    HW2  756   0.891   1.658   2.689
  246SOL     OW  757   0.382   0.700   2.342
  246SOL    HW1  758   0.427   0.610   2.339
  246SOL    HW2  759   0.288   0.689   2.375
  247SOL     OW  760   0.614   0.122   1.979
  247SOL    HW1  761   0.712   0.100   1.986
  247SOL    HW2  762   0.583   0.105   1.886
  248SOL     OW  763   0.803   1.402   2.786
  248SOL    HW1  764   0.893   1.416   2.744
  248SOL    HW2  765   0.732   1.404   2.715
  249SOL     OW  766   0.922   0.503   2.761
  249SOL    HW1  767   0.897   0.494   2.665
  249SOL    HW2  768   0.970   0.421   2.792
  250SOL     OW  769   0.539   0.064   2.374
  250SOL    HW1  770   0.458   0.065   2.432
  250SOL    HW2  771   0.542   0.147   2.319
  251SOL     OW  772   0.297   0.035   2.033
  251SOL    HW1  773   0.346   0.119   2.012
  251SOL    HW2  774   0.359  -0.030   2.078
  252SOL     OW  775   0.935   0.236   2.342
  252SOL    HW1  776   0.887   0.277   2.264
  252SOL    HW2  777   1.034   0.234   2.323
  253SOL     OW  778   1.227   1.570   2.655
  253SOL    HW1  779   1.248   1.644   2.590
  253SOL    HW2  780   1.295   1.570   2.728
  254SOL     OW  781   0.459   1.152   2.603
  254SOL    HW1  782   0.388   1.125   2.668
  254SOL    HW2  783   0.433   1.124   2.510
  255SOL     OW  784   1.271   1.797   2.453
  255SOL    HW1  785   1.315   1.861   2.389
  255SOL    HW2  786   1.221   1.849   2.523
  256SOL     OW  787   1.032   0.549   1.878
  256SOL    HW1  788   0.991   0.631   1.839
  256SOL    HW2  789   1.096   0.575   1.951
  257SOL     OW  790   0.866   0.454   2.504
  257SOL    HW1  791   0.834   0.526   2.442
  257SOL    HW2  792   0.890   0.373   2.451
  258SOL     OW  793   1.017   0.039   2.615
  258SOL    HW1  794   0.945   0.044   2.546
  258SOL    HW2  795   0.993  -0.030   2.684
  259SOL     OW  796   1.429   1.173   2.729
  259SOL    HW1  797   1.374   1.089   2.722
  259SOL    HW2  798   1.455   1.202   2.637
  260SOL     OW  799   1.466   0.590   2.854
  260SOL    HW1  800   1.436   0.495   2.861
  260SOL    HW2  801   1.539   0.606   2.920
  261SOL     OW  802   1.857   0.833   2.239
  261SOL    HW1  803   1.899   0.769   2.303
  261SOL    HW2  804   1.819   0.782   2.161
  262SOL     OW  805   0.488   1.385   2.036
  262SOL    HW1  806   0.401   1.370   2.083
  262SOL    HW2  807   0.471   1.411   1.941
  263SOL     OW  808   1.664   1.280   2.519
  263SOL    HW1  809   1.763   1.288   2.533
  263SOL    HW2  810   1.619   1.364   2.550
  264SOL     OW  811   1.390   0.575   1.940
  264SOL    HW1  812   1.336   0.554   2.021
  264SOL    HW2  813   1.481   0.534   1.949
  265SOL     OW  814   0.527   0.256   2.190
  265SOL    HW1  815   0.554   0.197   2.115
  265SOL    HW2  816   0.527   0.351   2.159
  266SOL     OW  817   1.638   1.099   2.941
  266SOL    HW1  818   1.643   1.180   3.000
  266SOL    HW2  819   1.552   1.101   2.890
  267SOL     OW  820   0.705   1.050   2.230
  267SOL    HW1  821   0.691   1.057   2.329
  267SOL    HW2  822   0.789   0.999   2.212
  268SOL     OW  823   0.367   1.100   2.363
  268SOL    HW1  824   0.360   1.183   2.307
  268SOL    HW2  825   0.371   1.020   2.303
  269SOL     OW  826   0.566   0.537   2.727
  269SOL    HW1  827   0.578   0.603   2.653
  269SOL    HW2  828   0.612   0.571   2.810
  270SOL     OW  829   1.252   1.348   2.250
  270SOL    HW1  830   1.302   1.425   2.290
  270SOL    HW2  831   1.157   1.350   2.282
  271SOL     OW  832   1.582   0.639   2.334
  271SOL    HW1  833   1.551   0.700   2.407
  271SOL    HW2  834   1.632   0.691   2.265
  272SOL     OW  835   0.573   0.870   2.891
  272SOL    HW1  836   0.617   0.959   2.882
  272SOL    HW2  837   0.510   0.870   2.968
  273SOL     OW  838   1.209   0.525   2.137
  273SOL    HW1  839   1.222   0.441   2.191
  273SOL    HW2  840   1.180   0.599   2.197
  274SOL     OW  841   0.732   0.634   2.926
  274SOL    HW1  842   0.791   0.608   2.850
  274SOL    HW2  843   0.704   0.730   2.915
  275SOL     OW  844   0.307   0.063   2.480
  275SOL    HW1  845   0.296   0.157   2.513
  275SOL    HW2  846   0.302   0.000   2.557
  276SOL     OW  847   1.622   0.367   2.236
  276SOL    HW1  848   1.624   0.291   2.300
  276SOL    HW2  849   1.574   0.444   2.276
  277SOL     OW  850   1.540   0.274   1.987
  277SOL    HW1  851   1.479   0.199   2.010
  277SOL    HW2  852   1.562   0.326   2.070
  278SOL     OW  853   1.303   0.838   1.904
  278SOL    HW1  854   1.337   0.745   1.919
  278SOL    HW2  855   1.321   0.865   1.809
  279SOL     OW  856   1.068   1.333   2.711
  279SOL    HW1  857   1.075   1.249   2.656
  279SOL    HW2  858   1.130   1.402   2.675
  280SOL     OW  859   0.319   0.810   2.811
  280SOL    HW1  860   0.412   0.846   2.816
  280SOL    HW2  861   0.313   0.725   2.863
  281SOL     OW  862   0.339   0.509   2.868
  281SOL    HW1  863   0.287   0.426   2.851
  281SOL    HW2  864   0.416   0.514   2.804
  282SOL     OW  865   0.008   1.326   2.062
  282SOL    HW1  866  -0.085   1.347   2.031
  282SOL    HW2  867   0.018   1.227   2.075
  283SOL     OW  868   0.088   1.801   2.789
  283SOL    HW1  869   0.046   1.715   2.762
  283SOL    HW2  870   0.182   1.804   2.755
  284SOL     OW  871   0.504   1.568   2.772
  284SOL    HW1  872   0.570   1.642   2.781
  284SOL    HW2  873   0.548   1.489   2.730
  285SOL     OW  874   1.002   0.796   3.100
  285SOL    HW1  875   1.043   0.764   3.186
  285SOL    HW2  876   0.906   0.769   3.097
  286SOL     OW  877   0.815   0.572   2.187
  286SOL    HW1  878   0.822   0.483   2.141
  286SOL    HW2  879   0.721   0.606   2.179
  287SOL     OW  880   0.671   0.464   3.131
  287SOL    HW1  881   0.637   0.375   3.101
  287SOL    HW2  882   0.697   0.518   3.051
  288SOL     OW  883   0.473   0.500   2.053
  288SOL    HW1  884   0.534   0.580   2.057
  288SOL    HW2  885   0.378   0.531   2.060
  289SOL     OW  886   1.302   0.855   2.171
  289SOL    HW1  887   1.216   0.824   2.213
  289SOL    HW2  888   1.298   0.841   2.072
  290SOL     OW  889   1.759   1.747   3.016
  290SOL    HW1  890   1.820   1.777   2.943
  290SOL    HW2  891   1.721   1.658   2.994
  291SOL     OW  892   0.083   1.258   2.884
  291SOL    HW1  893   0.078   1.257   2.984
  291SOL    HW2  894   0.000   1.217   2.846
  292SOL     OW  895   1.726   0.135   2.385
  292SOL    HW1  896   1.799   0.118   2.318
  292SOL    HW2  897   1.695   0.048   2.423
  293SOL     OW  898   1.388   1.573   2.339
  293SOL    HW1  899   1.455   1.585   2.265
  293SOL    HW2  900   1.348   1.662   2.362
  294SOL     OW  901   1.280   0.927   2.534
  294SOL    HW1  902   1.340   0.846   2.536
  294SOL    HW2  903   1.320   0.996   2.474
  295SOL     OW  904   0.672   1.616   2.016
  295SOL    HW1  905   0.681   1.626   1.917
  295SOL    HW2  906   0.632   1.527   2.037
  296SOL     OW  907   1.841   0.175   2.825
  296SOL    HW1  908   1.880   0.090   2.789
  296SOL    HW2  909   1.743   0.177   2.806
  297SOL     OW  910   0.263   0.326   2.582
  297SOL    HW1  911   0.184   0.377   2.548
  297SOL    HW2  912   0.254   0.311   2.680
  298SOL     OW  913   1.194   1.612   1.893
  298SOL    HW1  914   1.200   1.519   1.930
  298SOL    HW2  915   1.135   1.612   1.813
  299SOL     OW  916   0.916   0.910   2.153
  299SOL    HW1  917   0.979   0.948   2.085
  299SOL    HW2  918   0.956   0.827   2.192
  300SOL     OW  919   1.504   1.607   1.906
  300SOL    HW1  920   1.412   1.644   1.913
  300SOL    HW2  921   1.542   1.627   1.816
  301SOL     OW  922   1.039   1.098   2.558
  301SOL    HW1  923   0.969   1.051   2.612
  301SOL    HW2  924   1.098   1.030   2.515
  302SOL     OW  925   1.014   0.236   2.833
  302SOL    HW1  926   1.006   0.200   2.740
  302SOL    HW2  927   1.012   0.160   2.898
  303SOL     OW  928   0.590   1.487   2.353
  303SOL    HW1  929   0.632   1.429   2.283
  303SOL    HW2  930   0.546   1.566   2.309
  304SOL     OW  931   0.255   1.348   2.152
  304SOL    HW1  932   0.159   1.349   2.125
  304SOL    HW2  933   0.267   1.401   2.236
  305SOL     OW  934   0.075   0.345   1.895
  305SOL    HW1  935  -0.017   0.317   1.866
  305SOL    HW2  936   0.106   0.422   1.839
  306SOL     OW  937   0.072   0.166   2.180
  306SOL    HW1  938   0.055   0.249   2.126
  306SOL    HW2  939   0.162   0.129   2.158
  307SOL     OW  940   1.183   1.335   1.981
  307SOL    HW1  941   1.084   1.324   1.983
  307SOL    HW2  942   1.217   1.350   2.074
  308SOL     OW  943   1.674   0.883   3.116
  308SOL    HW1  944   1.647   0.794   3.079
  308SOL    HW2  945   1.675   0.951   3.043
  309SOL     OW  946   1.225   0.325   2.311
  309SOL    HW1  947   1.290   0.251   2.300
  309SOL    HW2  948   1.245   0.375   2.395
  310SOL     OW  949   0.594   0.745   2.514
  310SOL    HW1  950   0.644   0.830   2.495
  310SOL    HW2  951   0.506   0.747   2.466
  311SOL     OW  952   0.859   1.374   1.878
  311SOL    HW1  953   0.813   1.389   1.966
  311SOL    HW2  954   0.903   1.459   1.848
  312SOL     OW  955   0.661   1.790   2.815
  312SOL    HW1  956   0.615   1.878   2.802
  312SOL    HW2  957   0.760   1.802   2.808
  313SOL     OW  958   0.859   0.956   2.723
  313SOL    HW1  959   0.913   0.887   2.771
  313SOL    HW2  960   0.827   1.025   2.789
  314SOL     OW  961   1.083   0.984   1.949
  314SOL    HW1  962   1.060   1.037   1.867
  314SOL    HW2  963   1.164   0.928   1.930
  315SOL     OW  964   1.861   1.569   2.713
  315SOL    HW1  965   1.790   1.557   2.643
  315SOL    HW2  966   1.862   1.490   2.773
  316SOL     OW  967   0.079   1.240   2.515
  316SOL    HW1  968   0.078   1.193   2.603
  316SOL    HW2  969   0.161   1.212   2.464
  317SOL     OW  970   1.824   0.192   3.089
  317SOL    HW1  971   1.820   0.102   3.133
  317SOL    HW2  972   1.827   0.181   2.990
  318SOL     OW  973   0.428   0.424   2.382
  318SOL    HW1  974   0.458   0.352   2.320
  318SOL    HW2  975   0.389   0.384   2.465
  319SOL     OW  976   0.812   1.586   2.549
  319SOL    HW1  977   0.844   1.596   2.455
  319SOL    HW2  978   0.733   1.524   2.551
  320SOL     OW  979   0.770   1.330   2.163
  320SOL    HW1  980   0.724   1.243   2.180
  320SOL    HW2  981   0.861   1.327   2.204
  321SOL     OW  982   1.352   0.052   2.030
  321SOL    HW1  983   1.387   0.011   1.946
  321SOL    HW2  984   1.262   0.014   2.050
  322SOL     OW  985   1.300   0.453   2.553
  322SOL    HW1  986   1.241   0.533   2.557
  322SOL    HW2  987   1.315   0.418   2.646
  323SOL     OW  988   1.593   0.221   2.744
  323SOL    HW1  989   1.509   0.220   2.798
  323SOL    HW2  990   1.595   0.304   2.688
  324SOL     OW  991   0.039   1.077   2.162
  324SOL    HW1  992   0.138   1.066   2.153
  324SOL    HW2  993  -0.001   0.991   2.194
  325SOL     OW  994   0.875   1.646   2.199
  325SOL    HW1  995   0.798   1.611   2.145
  325SOL    HW2  996   0.843   1.717   2.261
  326SOL     OW  997   0.230   2.490   0.113
  326SOL    HW1  998   0.137   2.488   0.150
  326SOL    HW2  999   0.231   2.451   0.021
  327SOL     OW 1000   0.225   2.137   0.996
  327SOL    HW1 1001   0.260   2.120   1.088
  327SOL    HW2 1002   0.137   2.092   0.984
  328SOL     OW 1003   0.019   2.230   0.647
  328SOL    HW1 1004  -0.063   2.273   0.686
  328SOL    HW2 1005  -0.009   2.157   0.584
  329SOL     OW 1006   1.135   2.565   0.717
  329SOL    HW1 1007   1.192   2.643   0.692
  329SOL    HW2 1008   1.075   2.591   0.793
  330SOL     OW 1009   1.755   2.469   0.231
  330SOL    HW1 1010   1.743   2.456   0.132
  330SOL    HW2 1011   1.725   2.388   0.280
  331SOL     OW 1012   0.768   3.006   1.023
  331SOL    HW1 1013   0.690   3.023   1.083
  331SOL    HW2 1014   0.802   3.093   0.987
  332SOL     OW 1015   0.850   2.660   1.823
  332SOL    HW1 1016   0.846   2.736   1.888
  332SOL    HW2 1017   0.872   2.696   1.732
  333SOL     OW 1018   0.685   2.874   0.665
  333SOL    HW1 1019   0.754   2.858   0.735
  333SOL    HW2 1020   0.612   2.931   0.703
  334SOL     OW 1021   0.438   2.254   1.499
  334SOL    HW1 1022   0.520   2.198   1.508
  334SOL    HW2 1023   0.357   2.196   1.503
  335SOL     OW 1024   1.603   2.309   0.737
  335SOL    HW1 1025   1.529   2.355   0.687
  335SOL    HW2 1026   1.654   2.377   0.790
  336SOL     OW 1027   0.240   2.953   0.886
  336SOL    HW1 1028   0.254   2.869   0.938
  336SOL    HW2 1029   0.185   3.017   0.941
  337SOL     OW 1030   0.606   2.826   0.123
  337SOL    HW1 1031   0.613   2.910   0.069
  337SOL    HW2 1032   0.652   2.839   0.211
  338SOL     OW 1033   1.594   1.976   1.480
  338SOL    HW1 1034   1.576   2.043   1.408
  338SOL    HW2 1035   1.591   2.022   1.569
  339SOL     OW 1036   0.122   2.505   0.563
  339SOL    HW1 1037   0.077   2.417   0.580
  339SOL    HW2 1038   0.121   2.559   0.647
  340SOL     OW 1039   1.689   2.784   0.612
  340SOL    HW1 1040   1.784   2.755   0.620
  340SOL    HW2 1041   1.681   2.849   0.537
  341SOL     OW 1042   0.113   2.599   1.597
  341SOL    HW1 1043   0.201   2.586   1.642
  341SOL    HW2 1044   0.100   2.696   1.575
  342SOL     OW 1045   0.809   1.866   0.502
  342SOL    HW1 1046   0.849   1.957   0.493
  342SOL    HW2 1047   0.709   1.874   0.508
  343SOL     OW 1048   0.197   2.838   1.264
  343SOL    HW1 1049   0.286   2.793   1.250
  343SOL    HW2 1050   0.124   2.773   1.245
  344SOL     OW 1051   1.525   2.861   0.190
  344SOL    HW1 1052   1.462   2.785   0.203
  344SOL    HW2 1053   1.573   2.879   0.276
  345SOL     OW 1054   0.317   2.113   1.801
  345SOL    HW1 1055   0.388   2.184   1.807
  345SOL    HW2 1056   0.229   2.152   1.829
  346SOL     OW 1057   0.598   2.591   0.270
  346SOL    HW1 1058   0.622   2.660   0.202
  346SOL    HW2 1059   0.520   2.624   0.324
  347SOL     OW 1060   1.281   2.207   0.944
  347SOL    HW1 1061   1.195   2.157   0.931
  347SOL    HW2 1062   1.343   2.153   1.000
  348SOL     OW 1063   0.807   2.467   1.465
  348SOL    HW1 1064   0.760   2.464   1.554
  348SOL    HW2 1065   0.756   2.412   1.399
  349SOL     OW 1066   1.394   2.331   1.674
  349SOL    HW1 1067   1.374   2.374   1.762
  349SOL    HW2 1068   1.472   2.269   1.683
  350SOL     OW 1069   0.973   2.752   1.572
  350SOL    HW1 1070   1.019   2.668   1.543
  350SOL    HW2 1071   0.917   2.786   1.497
  351SOL     OW 1072   0.991   2.272   1.242
  351SOL    HW1 1073   0.914   2.306   1.296
  351SOL    HW2 1074   0.957   2.221   1.163
  352SOL     OW 1075   1.041   2.563   0.429
  352SOL    HW1 1076   1.067   2.559   0.525
  352SOL    HW2 1077   0.956   2.512   0.415
  353SOL     OW 1078   0.076   2.673   0.789
  353SOL    HW1 1079   0.175   2.661   0.798
  353SOL    HW2 1080   0.052   2.768   0.810
  354SOL     OW 1081   0.865   2.210   0.195
  354SOL    HW1 1082   0.924   2.273   0.146
  354SOL    HW2 1083   0.884   2.116   0.166
  355SOL     OW 1084   1.719   2.447   1.831
  355SOL    HW1 1085   1.693   2.536   1.795
  355SOL    HW2 1086   1.717   2.379   1.758
  356SOL     OW 1087   0.550   2.058   0.885
  356SOL    HW1 1088   0.545   2.053   0.985
  356SOL    HW2 1089   0.552   2.154   0.856
  357SOL     OW 1090   1.458   2.597   0.728
  357SOL    HW1 1091   1.453   2.532   0.803
  357SOL    HW2 1092   1.538   2.656   0.741
  358SOL     OW 1093   0.202   2.147   1.498
  358SOL    HW1 1094   0.122   2.207   1.485
  358SOL    HW2 1095   0.192   2.098   1.584
  359SOL     OW 1096   1.400   1.969   0.426
  359SOL    HW1 1097   1.376   1.932   0.336
  359SOL    HW2 1098   1.499   1.985   0.430
  360SOL     OW 1099   0.382   2.562   0.480
  360SOL    HW1 1100   0.427   2.472   0.477
  360SOL    HW2 1101   0.288   2.551   0.513
  361SOL     OW 1102   1.547   2.084   1.729
  361SOL    HW1 1103   1.542   2.121   1.821
  361SOL    HW2 1104   1.475   2.015   1.717
  362SOL     OW 1105   0.614   1.984   0.117
  362SOL    HW1 1106   0.712   1.962   0.124
  362SOL    HW2 1107   0.583   1.967   0.024
  363SOL     OW 1108   0.781   2.126   1.749
  363SOL    HW1 1109   0.848   2.065   1.792
  363SOL    HW2 1110   0.708   2.145   1.814
  364SOL     OW 1111   1.351   2.452   1.433
  364SOL    HW1 1112   1.379   2.409   1.518
  364SOL    HW2 1113   1.376   2.548   1.434
  365SOL     OW 1114   0.922   2.365   0.899
  365SOL    HW1 1115   0.897   2.356   0.803
  365SOL    HW2 1116   0.970   2.283   0.930
  366SOL     OW 1117   0.539   1.926   0.512
  366SOL    HW1 1118   0.458   1.927   0.570
  366SOL    HW2 1119   0.542   2.009   0.457
  367SOL     OW 1120   0.935   2.098   0.480
  367SOL    HW1 1121   0.887   2.139   0.402
  367SOL    HW2 1122   1.034   2.096   0.461
  368SOL     OW 1123   1.076   2.545   1.464
  368SOL    HW1 1124   0.996   2.484   1.467
  368SOL    HW2 1125   1.157   2.492   1.440
  369SOL     OW 1126   1.032   2.411   0.016
  369SOL    HW1 1127   0.991   2.493  -0.023
  369SOL    HW2 1128   1.096   2.437   0.089
  370SOL     OW 1129   0.078   2.418   1.386
  370SOL    HW1 1130   0.170   2.417   1.345
  370SOL    HW2 1131   0.072   2.492   1.453
  371SOL     OW 1132   0.561   2.084   1.147
  371SOL    HW1 1133   0.599   2.000   1.184
  371SOL    HW2 1134   0.473   2.103   1.191
  372SOL     OW 1135   0.866   2.316   0.642
  372SOL    HW1 1136   0.834   2.388   0.580
  372SOL    HW2 1137   0.890   2.235   0.589
  373SOL     OW 1138   1.017   1.901   0.753
  373SOL    HW1 1139   0.945   1.906   0.684
  373SOL    HW2 1140   0.993   1.832   0.822
  374SOL     OW 1141   1.429   3.035   0.867
  374SOL    HW1 1142   1.374   2.951   0.860
  374SOL    HW2 1143   1.455   3.064   0.775
  375SOL     OW 1144   1.466   2.452   0.992
  375SOL    HW1 1145   1.436   2.357   0.999
  375SOL    HW2 1146   1.539   2.468   1.058
  376SOL     OW 1147   1.857   2.695   0.377
  376SOL    HW1 1148   1.899   2.631   0.441
  376SOL    HW2 1149   1.819   2.644   0.299
  377SOL     OW 1150   1.390   2.437   0.078
  377SOL    HW1 1151   1.336   2.416   0.159
  377SOL    HW2 1152   1.481   2.396   0.087
  378SOL     OW 1153   0.527   2.118   0.328
  378SOL    HW1 1154   0.554   2.059   0.253
  378SOL    HW2 1155   0.527   2.213   0.297
  379SOL     OW 1156   1.638   2.961   1.079
  379SOL    HW1 1157   1.643   3.042   1.138
  379SOL    HW2 1158   1.552   2.963   1.028
  380SOL     OW 1159   0.915   1.951   1.402
  380SOL    HW1 1160   0.940   1.931   1.307
  380SOL    HW2 1161   0.987   2.007   1.444
  381SOL     OW 1162   0.410   2.675   1.251
  381SOL    HW1 1163   0.496   2.687   1.301
  381SOL    HW2 1164   0.368   2.588   1.278
  382SOL     OW 1165   1.274   2.248   1.262
  382SOL    HW1 1166   1.295   2.322   1.326
  382SOL    HW2 1167   1.185   2.265   1.219
  383SOL     OW 1168   0.566   2.399   0.865
  383SOL    HW1 1169   0.578   2.465   0.791
  383SOL    HW2 1170   0.612   2.433   0.948
  384SOL     OW 1171   1.582   2.501   0.472
  384SOL    HW1 1172   1.551   2.562   0.545
  384SOL    HW2 1173   1.632   2.553   0.403
  385SOL     OW 1174   0.402   2.613   1.598
  385SOL    HW1 1175   0.470   2.668   1.551
  385SOL    HW2 1176   0.442   2.525   1.625
  386SOL     OW 1177   1.587   2.641   1.670
  386SOL    HW1 1178   1.495   2.679   1.665
  386SOL    HW2 1179   1.647   2.688   1.605
  387SOL     OW 1180   1.013   1.967   1.770
  387SOL    HW1 1181   1.019   2.052   1.718
  387SOL    HW2 1182   1.045   1.891   1.713
  388SOL     OW 1183   0.504   1.912   1.740
  388SOL    HW1 1184   0.462   1.855   1.670
  388SOL    HW2 1185   0.438   1.981   1.772
  389SOL     OW 1186   0.573   2.732   1.029
  389SOL    HW1 1187   0.617   2.821   1.020
  389SOL    HW2 1188   0.510   2.732   1.106
  390SOL     OW 1189   1.360   2.724   1.045
  390SOL    HW1 1190   1.285   2.724   0.979
  390SOL    HW2 1191   1.397   2.632   1.054
  391SOL     OW 1192   1.209   2.387   0.275
  391SOL    HW1 1193   1.222   2.303   0.329
  391SOL    HW2 1194   1.180   2.461   0.335
  392SOL     OW 1195   0.307   2.075   1.231
  392SOL    HW1 1196   0.284   2.112   1.321
  392SOL    HW2 1197   0.277   1.980   1.225
  393SOL     OW 1198   0.037   3.172   1.282
  393SOL    HW1 1199   0.090   3.123   1.350
  393SOL    HW2 1200   0.059   3.270   1.287
  394SOL     OW 1201   0.732   2.496   1.064
  394SOL    HW1 1202   0.791   2.470   0.988
  394SOL    HW2 1203   0.704   2.592   1.053
  395SOL     OW 1204   1.728   2.797   1.854
  395SOL    HW1 1205   1.682   2.790   1.765
  395SOL    HW2 1206   1.666   2.841   1.920
  396SOL     OW 1207   0.307   1.925   0.618
  396SOL    HW1 1208   0.296   2.019   0.651
  396SOL    HW2 1209   0.302   1.862   0.695
  397SOL     OW 1210   1.622   2.229   0.374
  397SOL    HW1 1211   1.624   2.153   0.438
  397SOL    HW2 1212   1.574   2.306   0.414
  398SOL     OW 1213   1.023   2.628   0.966
  398SOL    HW1 1214   1.038   2.649   1.062
  398SOL    HW2 1215   0.993   2.533   0.957
  399SOL     OW 1216   0.350   2.760   1.804
  399SOL    HW1 1217   0.426   2.804   1.852
  399SOL    HW2 1218   0.385   2.713   1.722
  400SOL     OW 1219   1.540   2.136   0.125
  400SOL    HW1 1220   1.479   2.061   0.148
  400SOL    HW2 1221   1.562   2.188   0.208
  401SOL     OW 1222   1.303   2.700   0.042
  401SOL    HW1 1223   1.337   2.607   0.057
  401SOL    HW2 1224   1.321   2.727  -0.053
  402SOL     OW 1225   0.319   2.672   0.949
  402SOL    HW1 1226   0.412   2.708   0.954
  402SOL    HW2 1227   0.313   2.587   1.001
  403SOL     OW 1228   0.339   2.371   1.006
  403SOL    HW1 1229   0.287   2.288   0.989
  403SOL    HW2 1230   0.416   2.376   0.942
  404SOL     OW 1231   1.138   2.242   1.678
  404SOL    HW1 1232   1.093   2.305   1.742
  404SOL    HW2 1233   1.231   2.273   1.661
  405SOL     OW 1234   1.160   2.069   1.477
  405SOL    HW1 1235   1.160   2.133   1.554
  405SOL    HW2 1236   1.188   2.117   1.394
  406SOL     OW 1237   1.002   2.658   1.238
  406SOL    HW1 1238   1.043   2.626   1.324
  406SOL    HW2 1239   0.906   2.631   1.235
  407SOL     OW 1240   0.040   2.406   1.114
  407SOL    HW1 1241   0.125   2.373   1.073
  407SOL    HW2 1242   0.053   2.421   1.212
  408SOL     OW 1243   0.189   2.382   1.722
  408SOL    HW1 1244   0.248   2.342   1.652
  408SOL    HW2 1245   0.131   2.453   1.681
  409SOL     OW 1246   1.369   2.812   1.660
  409SOL    HW1 1247   1.408   2.901   1.680
  409SOL    HW2 1248   1.379   2.792   1.563
  410SOL     OW 1249   0.815   2.434   0.325
  410SOL    HW1 1250   0.822   2.345   0.279
  410SOL    HW2 1251   0.721   2.468   0.317
  411SOL     OW 1252   1.657   2.466   1.206
  411SOL    HW1 1253   1.619   2.397   1.268
  411SOL    HW2 1254   1.739   2.430   1.162
  412SOL     OW 1255   0.671   2.326   1.269
  412SOL    HW1 1256   0.637   2.237   1.239
  412SOL    HW2 1257   0.697   2.380   1.189
  413SOL     OW 1258   0.473   2.362   0.191
  413SOL    HW1 1259   0.534   2.442   0.195
  413SOL    HW2 1260   0.378   2.393   0.198
  414SOL     OW 1261   0.159   2.999   1.466
  414SOL    HW1 1262   0.181   2.938   1.542
  414SOL    HW2 1263   0.169   2.950   1.380
  415SOL     OW 1264   1.347   2.921   1.234
  415SOL    HW1 1265   1.371   2.858   1.160
  415SOL    HW2 1266   1.257   2.961   1.216
  416SOL     OW 1267   1.302   2.717   0.309
  416SOL    HW1 1268   1.216   2.686   0.351
  416SOL    HW2 1269   1.298   2.703   0.210
  417SOL     OW 1270   0.903   1.948   0.133
  417SOL    HW1 1271   0.954   1.949   0.047
  417SOL    HW2 1272   0.959   1.906   0.204
  418SOL     OW 1273   1.726   1.997   0.523
  418SOL    HW1 1274   1.799   1.980   0.456
  418SOL    HW2 1275   1.695   1.910   0.561
  419SOL     OW 1276   1.280   2.789   0.672
  419SOL    HW1 1277   1.340   2.708   0.674
  419SOL    HW2 1278   1.320   2.858   0.612
  420SOL     OW 1279   1.841   2.037   0.963
  420SOL    HW1 1280   1.880   1.952   0.927
  420SOL    HW2 1281   1.743   2.039   0.944
  421SOL     OW 1282   0.263   2.188   0.720
  421SOL    HW1 1283   0.184   2.239   0.686
  421SOL    HW2 1284   0.254   2.173   0.818
  422SOL     OW 1285   0.916   2.772   0.291
  422SOL    HW1 1286   0.979   2.810   0.223
  422SOL    HW2 1287   0.956   2.689   0.330
  423SOL     OW 1288   1.014   2.098   0.971
  423SOL    HW1 1289   1.006   2.062   0.878
  423SOL    HW2 1290   1.012   2.022   1.036
  424SOL     OW 1291   1.709   2.247   1.381
  424SOL    HW1 1292   1.782   2.316   1.385
  424SOL    HW2 1293   1.737   2.172   1.322
  425SOL     OW 1294   0.105   2.875   1.726
  425SOL    HW1 1295   0.028   2.842   1.780
  425SOL    HW2 1296   0.190   2.845   1.768
  426SOL     OW 1297   0.672   2.065   1.489
  426SOL    HW1 1298   0.762   2.049   1.449
  426SOL    HW2 1299   0.680   2.070   1.588
  427SOL     OW 1300   0.075   2.207   0.033
  427SOL    HW1 1301  -0.017   2.179   0.004
  427SOL    HW2 1302   0.106   2.284  -0.023
  428SOL     OW 1303   1.440   2.718   1.398
  428SOL    HW1 1304   1.383   2.770   1.335
  428SOL    HW2 1305   1.536   2.730   1.374
  429SOL     OW 1306   0.072   2.028   0.318
  429SOL    HW1 1307   0.055   2.111   0.264
  429SOL    HW2 1308   0.162   1.991   0.296
  430SOL     OW 1309   1.183   3.197   0.119
  430SOL    HW1 1310   1.084   3.186   0.121
  430SOL    HW2 1311   1.217   3.212   0.212
  431SOL     OW 1312   0.613   2.704   1.431
  431SOL    HW1 1313   0.669   2.785   1.414
  431SOL    HW2 1314   0.672   2.624   1.434
  432SOL     OW 1315   0.716   2.427   1.708
  432SOL    HW1 1316   0.735   2.492   1.782
  432SOL    HW2 1317   0.776   2.347   1.717
  433SOL     OW 1318   1.674   2.745   1.254
  433SOL    HW1 1319   1.647   2.656   1.217
  433SOL    HW2 1320   1.675   2.813   1.181
  434SOL     OW 1321   1.225   2.187   0.449
  434SOL    HW1 1322   1.290   2.113   0.438
  434SOL    HW2 1323   1.245   2.237   0.533
  435SOL     OW 1324   0.594   2.607   0.652
  435SOL    HW1 1325   0.644   2.692   0.633
  435SOL    HW2 1326   0.506   2.609   0.604
  436SOL     OW 1327   1.777   2.204   1.642
  436SOL    HW1 1328   1.760   2.235   1.548
  436SOL    HW2 1329   1.693   2.167   1.680
  437SOL     OW 1330   1.730   2.796   1.517
  437SOL    HW1 1331   1.768   2.887   1.532
  437SOL    HW2 1332   1.722   2.779   1.418
  438SOL     OW 1333   0.859   2.818   0.861
  438SOL    HW1 1334   0.913   2.749   0.909
  438SOL    HW2 1335   0.827   2.887   0.927
  439SOL     OW 1336   1.083   2.846   0.087
  439SOL    HW1 1337   1.060   2.899   0.005
  439SOL    HW2 1338   1.164   2.790   0.068
  440SOL     OW 1339   0.079   3.102   0.653
  440SOL    HW1 1340   0.078   3.055   0.741
  440SOL    HW2 1341   0.161   3.074   0.602
  441SOL     OW 1342   1.824   2.054   1.227
  441SOL    HW1 1343   1.820   1.964   1.271
  441SOL    HW2 1344   1.827   2.043   1.128
  442SOL     OW 1345   0.428   2.286   0.520
  442SOL    HW1 1346   0.458   2.214   0.458
  442SOL    HW2 1347   0.389   2.246   0.603
  443SOL     OW 1348   0.317   2.409   1.280
  443SOL    HW1 1349   0.355   2.350   1.352
  443SOL    HW2 1350   0.357   2.383   1.192
  444SOL     OW 1351   1.424   2.076   1.112
  444SOL    HW1 1352   1.476   2.011   1.167
  444SOL    HW2 1353   1.375   2.139   1.173
  445SOL     OW 1354   1.001   1.896   1.154
  445SOL    HW1 1355   0.938   1.824   1.123
  445SOL    HW2 1356   1.094   1.860   1.154
  446SOL     OW 1357   1.352   1.914   0.168
  446SOL    HW1 1358   1.387   1.873   0.084
  446SOL    HW2 1359   1.262   1.876   0.188
  447SOL     OW 1360   1.300   2.315   0.691
  447SOL    HW1 1361   1.241   2.395   0.695
  447SOL    HW2 1362   1.315   2.280   0.784
  448SOL     OW 1363   1.593   2.083   0.882
  448SOL    HW1 1364   1.509   2.082   0.936
  448SOL    HW2 1365   1.595   2.166   0.826
  449SOL     OW 1366   0.039   2.939   0.300
  449SOL    HW1 1367   0.138   2.928   0.291
  449SOL    HW2 1368  -0.001   2.853   0.332
  450SOL     OW 1369   0.230   2.490   1.975
  450SOL    HW1 1370   0.137   2.488   2.012
  450SOL    HW2 1371   0.231   2.451   1.883
  451SOL     OW 1372   0.225   2.137   2.858
  451SOL    HW1 1373   0.260   2.120   2.950
  451SOL    HW2 1374   0.137   2.092   2.846
  452SOL     OW 1375   0.019   2.230   2.509
  452SOL    HW1 1376  -0.063   2.273   2.548
  452SOL    HW2 1377  -0.009   2.157   2.446
  453SOL     OW 1378   1.135   2.565   2.579
  453SOL    HW1 1379   1.192   2.643   2.554
  453SOL    HW2 1380   1.075   2.591   2.655
  454SOL     OW 1381   1.755   2.469   2.093
  454SOL    HW1 1382   1.743   2.456   1.994
  454SOL    HW2 1383   1.725   2.388   2.142
  455SOL     OW 1384   0.685   2.874   2.527
  455SOL    HW1 1385   0.754   2.858   2.597
  455SOL    HW2 1386   0.612   2.931   2.565
  456SOL     OW 1387   1.603   2.309   2.599
  456SOL    HW1 1388   1.529   2.355   2.549
  456SOL    HW2 1389   1.654   2.377   2.652
  457SOL     OW 1390   0.240   2.953   2.748
  457SOL    HW1 1391   0.254   2.869   2.800
  457SOL    HW2 1392   0.185   3.017   2.803
  458SOL     OW 1393   0.606   2.826   1.985
  458SOL    HW1 1394   0.613   2.910   1.931
  458SOL    HW2 1395   0.652   2.839   2.073
  459SOL     OW 1396   0.122   2.505   2.425
  459SOL    HW1 1397   0.077   2.417   2.442
  459SOL    HW2 1398   0.121   2.559   2.509
  460SOL     OW 1399   1.689   2.784   2.474
  460SOL    HW1 1400   1.784   2.755   2.482
  460SOL    HW2 1401   1.681   2.849   2.399
  461SOL     OW 1402   0.809   1.866   2.364
  461SOL    HW1 1403   0.849   1.957   2.355
  461SOL    HW2 1404   0.709   1.874   2.370
  462SOL     OW 1405   0.197   2.838   3.126
  462SOL    HW1 1406   0.286   2.793   3.112
  462SOL    HW2 1407   0.124   2.773   3.107
  463SOL     OW 1408   1.525   2.861   2.052
  463SOL    HW1 1409   1.462   2.785   2.065
  463SOL    HW2 1410   1.573   2.879   2.138
  464SOL     OW 1411   0.598   2.591   2.132
  464SOL    HW1 1412   0.622   2.660   2.064
  464SOL    HW2 1413   0.520   2.624   2.186
  465SOL     OW 1414   1.281   2.207   2.806
  465SOL    HW1 1415   1.195   2.157   2.793
  465SOL    HW2 1416   1.343   2.153   2.862
  466SOL     OW 1417   1.041   2.563   2.291
  466SOL    HW1 1418   1.067   2.559   2.387
  466SOL    HW2 1419   0.956   2.512   2.277
  467SOL     OW 1420   0.076   2.673   2.651
  467SOL    HW1 1421   0.175   2.661   2.660
  467SOL    HW2 1422   0.052   2.768   2.672
  468SOL     OW 1423   0.865   2.210   2.057
  468SOL    HW1 1424   0.924   2.273   2.008
  468SOL    HW2 1425   0.884   2.116   2.028
  469SOL     OW 1426   0.550   2.058   2.747
  469SOL    HW1 1427   0.545   2.053   2.847
  469SOL    HW2 1428   0.552   2.154   2.718
  470SOL     OW 1429   1.458   2.597   2.590
  470SOL    HW1 1430   1.453   2.532   2.665
  470SOL    HW2 1431   1.538   2.656   2.603
  471SOL     OW 1432   1.400   1.969   2.288
  471SOL    HW1 1433   1.376   1.932   2.198
  471SOL    HW2 1434   1.499   1.985   2.292
  472SOL     OW 1435   0.382   2.562   2.342
  472SOL    HW1 1436   0.427   2.472   2.339
  472SOL    HW2 1437   0.288   2.551   2.375
  473SOL     OW 1438   0.614   1.984   1.979
  473SOL    HW1 1439   0.712   1.962   1.986
  473SOL    HW2 1440   0.583   1.967   1.886
  474SOL     OW 1441   0.922   2.365   2.761
  474SOL    HW1 1442   0.897   2.356   2.665
  474SOL    HW2 1443   0.970   2.283   2.792
  475SOL     OW 1444   0.539   1.926   2.374
  475SOL    HW1 1445   0.458   1.927   2.432
  475SOL    HW2 1446   0.542   2.009   2.319
  476SOL     OW 1447   0.297   1.897   2.033
  476SOL    HW1 1448   0.346   1.981   2.012
  476SOL    HW2 1449   0.359   1.832   2.078
  477SOL     OW 1450   0.935   2.098   2.342
  477SOL    HW1 1451   0.887   2.139   2.264
  477SOL    HW2 1452   1.034   2.096   2.323
  478SOL     OW 1453   1.032   2.411   1.878
  478SOL    HW1 1454   0.991   2.493   1.839
  478SOL    HW2 1455   1.096   2.437   1.951
  479SOL     OW 1456   0.866   2.316   2.504
  479SOL    HW1 1457   0.834   2.388   2.442
  479SOL    HW2 1458   0.890   2.235   2.451
  480SOL     OW 1459   1.017   1.901   2.615
  480SOL    HW1 1460   0.945   1.906   2.546
  480SOL    HW2 1461   0.993   1.832   2.684
  481SOL     OW 1462   1.429   3.035   2.729
  481SOL    HW1 1463   1.374   2.951   2.722
  481SOL    HW2 1464   1.455   3.064   2.637
  482SOL     OW 1465   1.466   2.452   2.854
  482SOL    HW1 1466   1.436   2.357   2.861
  482SOL    HW2 1467   1.539   2.468   2.920
  483SOL     OW 1468   1.857   2.695   2.239
  483SOL    HW1 1469   1.899   2.631   2.303
  483SOL    HW2 1470   1.819   2.644   2.161
  484SOL     OW 1471   1.390   2.437   1.940
  484SOL    HW1 1472   1.336   2.416   2.021
  484SOL    HW2 1473   1.481   2.396   1.949
  485SOL     OW 1474   0.527   2.118   2.190
  485SOL    HW1 1475   0.554   2.059   2.115
  485SOL    HW2 1476   0.527   2.213   2.159
  486SOL     OW 1477   1.638   2.961   2.941
  486SOL    HW1 1478   1.643   3.042   3.000
  486SOL    HW2 1479   1.552   2.963   2.890
  487SOL     OW 1480   0.566   2.399   2.727
  487SOL    HW1 1481   0.578   2.465   2.653
  487SOL    HW2 1482   0.612   2.433   2.810
  488SOL     OW 1483   1.582   2.501   2.334
  488SOL    HW1 1484   1.551   2.562   2.407
  488SOL    HW2 1485   1.632   2.553   2.265
  489SOL     OW 1486   0.573   2.732   2.891
  489SOL    HW1 1487   0.617   2.821   2.882
  489SOL    HW2 1488   0.510   2.732   2.968
  490SOL     OW 1489   1.209   2.387   2.137
  490SOL    HW1 1490   1.222   2.303   2.191
  490SOL    HW2 1491   1.180   2.461   2.197
  491SOL     OW 1492   0.307   2.075   3.093
  491SOL    HW1 1493   0.284   2.112   3.183
  491SOL    HW2 1494   0.277   1.980   3.087
  492SOL     OW 1495   0.732   2.496   2.926
  492SOL    HW1 1496   0.791   2.470   2.850
  492SOL    HW2 1497   0.704   2.592   2.915
  493SOL     OW 1498   0.307   1.925   2.480
  493SOL    HW1 1499   0.296   2.019   2.513
  493SOL    HW2 1500   0.302   1.862   2.557
  494SOL     OW 1501   1.622   2.229   2.236
  494SOL    HW1 1502   1.624   2.153   2.300
  494SOL    HW2 1503   1.574   2.306   2.276
  495SOL     OW 1504   1.540   2.136   1.987
  495SOL    HW1 1505   1.479   2.061   2.010
  495SOL    HW2 1506   1.562   2.188   2.070
  496SOL     OW 1507   1.303   2.700   1.904
  496SOL    HW1 1508   1.337   2.607   1.919
  496SOL    HW2 1509   1.321   2.727   1.809
  497SOL     OW 1510   0.319   2.672   2.811
  497SOL    HW1 1511   0.412   2.708   2.816
  497SOL    HW2 1512   0.313   2.587   2.863
  498SOL     OW 1513   0.339   2.371   2.868
  498SOL    HW1 1514   0.287   2.288   2.851
  498SOL    HW2 1515   0.416   2.376   2.804
  499SOL     OW 1516   1.002   2.658   3.100
  499SOL    HW1 1517   1.043   2.626   3.186
  499SOL    HW2 1518   0.906   2.631   3.097
  500SOL     OW 1519   0.815   2.434   2.187
  500SOL    HW1 1520   0.822   2.345   2.141
  500SOL    HW2 1521   0.721   2.468   2.179
  501SOL     OW 1522   0.671   2.326   3.131
  501SOL    HW1 1523   0.637   2.237   3.101
  501SOL    HW2 1524   0.697   2.380   3.051
  502SOL     OW 1525   0.473   2.362   2.053
  502SOL    HW1 1526   0.534   2.442   2.057
  502SOL    HW2 1527   0.378   2.393   2.060
  503SOL     OW 1528   1.302   2.717   2.171
  503SOL    HW1 1529   1.216   2.686   2.213
  503SOL    HW2 1530   1.298   2.703   2.072
  504SOL     OW 1531   1.726   1.997   2.385
  504SOL    HW1 1532   1.799   1.980   2.318
  504SOL    HW2 1533   1.695   1.910   2.423
  505SOL     OW 1534   1.280   2.789   2.534
  505SOL    HW1 1535   1.340   2.708   2.536
  505SOL    HW2 1536   1.320   2.858   2.474
  506SOL     OW 1537   1.841   2.037   2.825
  506SOL    HW1 1538   1.880   1.952   2.789
  506SOL    HW2 1539   1.743   2.039   2.806
  507SOL     OW 1540   0.263   2.188   2.582
  507SOL    HW1 1541   0.184   2.239   2.548
  507SOL    HW2 1542   0.254   2.173   2.680
  508SOL     OW 1543   0.916   2.772   2.153
  508SOL    HW1 1544   0.979   2.810   2.085
  508SOL    HW2 1545   0.956   2.689   2.192
  509SOL     OW 1546   1.014   2.098   2.833
  509SOL    HW1 1547   1.006   2.062   2.740
  509SOL    HW2 1548   1.012   2.022   2.898
  510SOL     OW 1549   0.075   2.207   1.895
  510SOL    HW1 1550  -0.017   2.179   1.866
  510SOL    HW2 1551   0.106   2.284   1.839
  511SOL     OW 1552   0.072   2.028   2.180
  511SOL    HW1 1553   0.055   2.111   2.126
  511SOL    HW2 1554   0.162   1.991   2.158
  512SOL     OW 1555   1.183   3.197   1.981
  512SOL    HW1 1556   1.084   3.186   1.983
  512SOL    HW2 1557   1.217   3.212   2.074
  513SOL     OW 1558   1.674   2.745   3.116
  513SOL    HW1 1559   1.647   2.656   3.079
  513SOL    HW2 1560   1.675   2.813   3.043
  514SOL     OW 1561   1.225   2.187   2.311
  514SOL    HW1 1562   1.290   2.113   2.300
  514SOL    HW2 1563   1.245   2.237   2.395
  515SOL     OW 1564   0.594   2.607   2.514
  515SOL    HW1 1565   0.644   2.692   2.495
  515SOL    HW2 1566   0.506   2.609   2.466
  516SOL     OW 1567   0.859   2.818   2.723
  516SOL    HW1 1568   0.913   2.749   2.771
  516SOL    HW2 1569   0.827   2.887   2.789
  517SOL     OW 1570   1.083   2.846   1.949
  517SOL    HW1 1571   1.060   2.899   1.867
  517SOL    HW2 1572   1.164   2.790   1.930
  518SOL     OW 1573   0.079   3.102   2.515
  518SOL    HW1 1574   0.078   3.055   2.603
  518SOL    HW2 1575   0.161   3.074   2.464
  519SOL     OW 1576   1.824   2.054   3.089
  519SOL    HW1 1577   1.820   1.964   3.133
  519SOL    HW2 1578   1.827   2.043   2.990
  520SOL     OW 1579   0.428   2.286   2.382
  520SOL    HW1 1580   0.458   2.214   2.320
  520SOL    HW2 1581   0.389   2.246   2.465
  521SOL     OW 1582   1.352   1.914   2.030
  521SOL    HW1 1583   1.387   1.873   1.946
  521SOL    HW2 1584   1.262   1.876   2.050
  522SOL     OW 1585   1.300   2.315   2.553
  522SOL    HW1 1586   1.241   2.395   2.557
  522SOL    HW2 1587   1.315   2.280   2.646
  523SOL     OW 1588   1.593   2.083   2.744
  523SOL    HW1 1589   1.509   2.082   2.798
  523SOL    HW2 1590   1.595   2.166   2.688
  524SOL     OW 1591   0.039   2.939   2.162
  524SOL    HW1 1592   0.138   2.928   2.153
  524SOL    HW2 1593  -0.001   2.853   2.194
  525SOL     OW 1594   2.092   0.628   0.113
  525SOL    HW1 1595   1.999   0.626   0.150
  525SOL    HW2 1596   2.093   0.589   0.021
  526SOL     OW 1597   2.087   0.275   0.996
  526SOL    HW1 1598   2.122   0.258   1.088
  526SOL    HW2 1599   1.999   0.230   0.984
  527SOL     OW 1600   1.881   0.368   0.647
  527SOL    HW1 1601   1.799   0.411   0.686
  527SOL    HW2 1602   1.853   0.295   0.584
  528SOL     OW 1603   2.431   1.275   1.165
  528SOL    HW1 1604   2.338   1.268   1.128
  528SOL    HW2 1605   2.442   1.364   1.209
  529SOL     OW 1606   2.630   1.144   1.023
  529SOL    HW1 1607   2.552   1.161   1.083
  529SOL    HW2 1608   2.664   1.231   0.987
  530SOL     OW 1609   2.712   0.798   1.823
  530SOL    HW1 1610   2.708   0.874   1.888
  530SOL    HW2 1611   2.734   0.834   1.732
  531SOL     OW 1612   2.547   1.012   0.665
  531SOL    HW1 1613   2.616   0.996   0.735
  531SOL    HW2 1614   2.474   1.069   0.703
  532SOL     OW 1615   2.548   1.161   1.803
  532SOL    HW1 1616   2.608   1.240   1.817
  532SOL    HW2 1617   2.462   1.192   1.762
  533SOL     OW 1618   2.197   1.435   1.061
  533SOL    HW1 1619   2.119   1.404   1.008
  533SOL    HW2 1620   2.255   1.493   1.004
  534SOL     OW 1621   2.300   0.392   1.499
  534SOL    HW1 1622   2.382   0.336   1.508
  534SOL    HW2 1623   2.219   0.334   1.503
  535SOL     OW 1624   2.093   1.713   0.483
  535SOL    HW1 1625   2.127   1.790   0.537
  535SOL    HW2 1626   2.137   1.713   0.393
  536SOL     OW 1627   2.092   1.434   0.538
  536SOL    HW1 1628   2.066   1.530   0.538
  536SOL    HW2 1629   2.021   1.380   0.583
  537SOL     OW 1630   2.102   1.091   0.886
  537SOL    HW1 1631   2.116   1.007   0.938
  537SOL    HW2 1632   2.047   1.155   0.941
  538SOL     OW 1633   2.482   1.786   1.439
  538SOL    HW1 1634   2.390   1.769   1.474
  538SOL    HW2 1635   2.510   1.878   1.465
  539SOL     OW 1636   2.468   0.964   0.123
  539SOL    HW1 1637   2.475   1.048   0.069
  539SOL    HW2 1638   2.514   0.977   0.211
  540SOL     OW 1639   1.984   0.643   0.563
  540SOL    HW1 1640   1.939   0.555   0.580
  540SOL    HW2 1641   1.983   0.697   0.647
  541SOL     OW 1642   1.889   1.596   0.117
  541SOL    HW1 1643   1.870   1.500   0.138
  541SOL    HW2 1644   1.856   1.654   0.192
  542SOL     OW 1645   1.975   0.737   1.597
  542SOL    HW1 1646   2.063   0.724   1.642
  542SOL    HW2 1647   1.962   0.834   1.575
  543SOL     OW 1648   2.475   1.365   0.726
  543SOL    HW1 1649   2.426   1.278   0.735
  543SOL    HW2 1650   2.452   1.408   0.639
  544SOL     OW 1651   2.671   0.004   0.502
  544SOL    HW1 1652   2.711   0.095   0.493
  544SOL    HW2 1653   2.571   0.012   0.508
  545SOL     OW 1654   2.059   0.976   1.264
  545SOL    HW1 1655   2.148   0.931   1.250
  545SOL    HW2 1656   1.986   0.911   1.245
  546SOL     OW 1657   2.179   0.251   1.801
  546SOL    HW1 1658   2.250   0.322   1.807
  546SOL    HW2 1659   2.091   0.290   1.829
  547SOL     OW 1660   2.460   0.729   0.270
  547SOL    HW1 1661   2.484   0.798   0.202
  547SOL    HW2 1662   2.382   0.762   0.324
  548SOL     OW 1663   2.669   0.605   1.465
  548SOL    HW1 1664   2.622   0.602   1.554
  548SOL    HW2 1665   2.618   0.550   1.399
  549SOL     OW 1666   2.835   0.890   1.572
  549SOL    HW1 1667   2.881   0.806   1.543
  549SOL    HW2 1668   2.779   0.924   1.497
  550SOL     OW 1669   2.853   0.410   1.242
  550SOL    HW1 1670   2.776   0.444   1.296
  550SOL    HW2 1671   2.819   0.359   1.163
  551SOL     OW 1672   2.903   0.701   0.429
  551SOL    HW1 1673   2.929   0.697   0.525
  551SOL    HW2 1674   2.818   0.650   0.415
  552SOL     OW 1675   1.938   0.811   0.789
  552SOL    HW1 1676   2.037   0.799   0.798
  552SOL    HW2 1677   1.914   0.906   0.810
  553SOL     OW 1678   1.992   1.821   1.571
  553SOL    HW1 1679   1.982   1.806   1.670
  553SOL    HW2 1680   1.906   1.857   1.535
  554SOL     OW 1681   2.727   0.348   0.195
  554SOL    HW1 1682   2.786   0.411   0.146
  554SOL    HW2 1683   2.746   0.254   0.166
  555SOL     OW 1684   2.412   0.196   0.885
  555SOL    HW1 1685   2.407   0.191   0.985
  555SOL    HW2 1686   2.414   0.292   0.856
  556SOL     OW 1687   2.870   1.456   0.477
  556SOL    HW1 1688   2.824   1.528   0.425
  556SOL    HW2 1689   2.866   1.476   0.575
  557SOL     OW 1690   2.213   1.801   0.853
  557SOL    HW1 1691   2.263   1.715   0.859
  557SOL    HW2 1692   2.278   1.878   0.850
  558SOL     OW 1693   2.183   0.943   0.242
  558SOL    HW1 1694   2.265   0.982   0.200
  558SOL    HW2 1695   2.156   0.861   0.193
  559SOL     OW 1696   2.323   1.266   1.727
  559SOL    HW1 1697   2.273   1.267   1.641
  559SOL    HW2 1698   2.260   1.248   1.803
  560SOL     OW 1699   2.064   0.285   1.498
  560SOL    HW1 1700   1.984   0.345   1.485
  560SOL    HW2 1701   2.054   0.236   1.584
  561SOL     OW 1702   2.326   1.743   0.323
  561SOL    HW1 1703   2.359   1.782   0.409
  561SOL    HW2 1704   2.402   1.736   0.258
  562SOL     OW 1705   2.111   1.785   1.241
  562SOL    HW1 1706   2.168   1.720   1.291
  562SOL    HW2 1707   2.095   1.752   1.148
  563SOL     OW 1708   2.802   1.698   0.904
  563SOL    HW1 1709   2.882   1.641   0.925
  563SOL    HW2 1710   2.753   1.658   0.827
  564SOL     OW 1711   2.244   0.700   0.480
  564SOL    HW1 1712   2.289   0.610   0.477
  564SOL    HW2 1713   2.150   0.689   0.513
  565SOL     OW 1714   2.476   0.122   0.117
  565SOL    HW1 1715   2.574   0.100   0.124
  565SOL    HW2 1716   2.445   0.105   0.024
  566SOL     OW 1717   2.643   0.264   1.749
  566SOL    HW1 1718   2.710   0.203   1.792
  566SOL    HW2 1719   2.570   0.283   1.814
  567SOL     OW 1720   2.750   1.514   1.195
  567SOL    HW1 1721   2.727   1.489   1.101
  567SOL    HW2 1722   2.811   1.445   1.234
  568SOL     OW 1723   2.665   1.402   0.924
  568SOL    HW1 1724   2.755   1.416   0.882
  568SOL    HW2 1725   2.594   1.404   0.853
  569SOL     OW 1726   2.784   0.503   0.899
  569SOL    HW1 1727   2.759   0.494   0.803
  569SOL    HW2 1728   2.832   0.421   0.930
  570SOL     OW 1729   2.401   0.064   0.512
  570SOL    HW1 1730   2.320   0.065   0.570
  570SOL    HW2 1731   2.404   0.147   0.457
  571SOL     OW 1732   3.296   1.188   0.041
  571SOL    HW1 1733   3.328   1.112   0.098
  571SOL    HW2 1734   3.204   1.215   0.071
  572SOL     OW 1735   2.159   0.035   0.171
  572SOL    HW1 1736   2.208   0.119   0.150
  572SOL    HW2 1737   2.221  -0.030   0.216
  573SOL     OW 1738   2.797   0.236   0.480
  573SOL    HW1 1739   2.749   0.277   0.402
  573SOL    HW2 1740   2.896   0.234   0.461
  574SOL     OW 1741   3.089   1.570   0.793
  574SOL    HW1 1742   3.110   1.644   0.728
  574SOL    HW2 1743   3.157   1.570   0.866
  575SOL     OW 1744   2.321   1.152   0.741
  575SOL    HW1 1745   2.250   1.125   0.806
  575SOL    HW2 1746   2.295   1.124   0.648
  576SOL     OW 1747   2.894   0.549   0.016
  576SOL    HW1 1748   2.853   0.631  -0.023
  576SOL    HW2 1749   2.958   0.575   0.089
  577SOL     OW 1750   1.940   0.556   1.386
  577SOL    HW1 1751   2.032   0.555   1.345
  577SOL    HW2 1752   1.934   0.630   1.453
  578SOL     OW 1753   2.423   0.222   1.147
  578SOL    HW1 1754   2.461   0.138   1.184
  578SOL    HW2 1755   2.335   0.241   1.191
  579SOL     OW 1756   2.728   0.454   0.642
  579SOL    HW1 1757   2.696   0.526   0.580
  579SOL    HW2 1758   2.752   0.373   0.589
  580SOL     OW 1759   2.879   0.039   0.753
  580SOL    HW1 1760   2.807   0.044   0.684
  580SOL    HW2 1761   2.855  -0.030   0.822
  581SOL     OW 1762   2.350   1.385   0.174
  581SOL    HW1 1763   2.263   1.370   0.221
  581SOL    HW2 1764   2.333   1.411   0.079
  582SOL     OW 1765   2.389   0.256   0.328
  582SOL    HW1 1766   2.416   0.197   0.253
  582SOL    HW2 1767   2.389   0.351   0.297
  583SOL     OW 1768   2.777   0.089   1.402
  583SOL    HW1 1769   2.802   0.069   1.307
  583SOL    HW2 1770   2.849   0.145   1.444
  584SOL     OW 1771   2.842   1.116   1.719
  584SOL    HW1 1772   2.743   1.122   1.729
  584SOL    HW2 1773   2.865   1.036   1.663
  585SOL     OW 1774   2.567   1.050   0.368
  585SOL    HW1 1775   2.553   1.057   0.467
  585SOL    HW2 1776   2.651   0.999   0.350
  586SOL     OW 1777   2.272   0.813   1.251
  586SOL    HW1 1778   2.358   0.825   1.301
  586SOL    HW2 1779   2.230   0.726   1.278
  587SOL     OW 1780   1.926   1.564   1.331
  587SOL    HW1 1781   1.880   1.646   1.297
  587SOL    HW2 1782   2.024   1.583   1.340
  588SOL     OW 1783   2.229   1.100   0.501
  588SOL    HW1 1784   2.222   1.183   0.445
  588SOL    HW2 1785   2.233   1.020   0.441
  589SOL     OW 1786   2.428   0.537   0.865
  589SOL    HW1 1787   2.440   0.603   0.791
  589SOL    HW2 1788   2.474   0.571   0.948
  590SOL     OW 1789   2.216   1.510   1.329
  590SOL    HW1 1790   2.195   1.466   1.242
  590SOL    HW2 1791   2.313   1.536   1.332
  591SOL     OW 1792   2.264   0.751   1.598
  591SOL    HW1 1793   2.332   0.806   1.551
  591SOL    HW2 1794   2.304   0.663   1.625
  592SOL     OW 1795   2.875   0.105   1.770
  592SOL    HW1 1796   2.881   0.190   1.718
  592SOL    HW2 1797   2.907   0.029   1.713
  593SOL     OW 1798   2.366   0.050   1.740
  593SOL    HW1 1799   2.324  -0.007   1.670
  593SOL    HW2 1800   2.300   0.119   1.772
  594SOL     OW 1801   2.435   0.870   1.029
  594SOL    HW1 1802   2.479   0.959   1.020
  594SOL    HW2 1803   2.372   0.870   1.106
  595SOL     OW 1804   3.071   0.525   0.275
  595SOL    HW1 1805   3.084   0.441   0.329
  595SOL    HW2 1806   3.042   0.599   0.335
  596SOL     OW 1807   2.169   0.213   1.231
  596SOL    HW1 1808   2.146   0.250   1.321
  596SOL    HW2 1809   2.139   0.118   1.225
  597SOL     OW 1810   1.899   1.310   1.282
  597SOL    HW1 1811   1.952   1.261   1.350
  597SOL    HW2 1812   1.921   1.408   1.287
  598SOL     OW 1813   2.594   0.634   1.064
  598SOL    HW1 1814   2.653   0.608   0.988
  598SOL    HW2 1815   2.566   0.730   1.053
  599SOL     OW 1816   2.169   0.063   0.618
  599SOL    HW1 1817   2.158   0.157   0.651
  599SOL    HW2 1818   2.164   0.000   0.695
  600SOL     OW 1819   2.885   0.766   0.966
  600SOL    HW1 1820   2.900   0.787   1.062
  600SOL    HW2 1821   2.855   0.671   0.957
  601SOL     OW 1822   2.842   1.573   1.700
  601SOL    HW1 1823   2.822   1.617   1.612
  601SOL    HW2 1824   2.881   1.482   1.684
  602SOL     OW 1825   2.212   0.898   1.804
  602SOL    HW1 1826   2.288   0.942   1.852
  602SOL    HW2 1827   2.247   0.851   1.722
  603SOL     OW 1828   2.181   0.810   0.949
  603SOL    HW1 1829   2.274   0.846   0.954
  603SOL    HW2 1830   2.175   0.725   1.001
  604SOL     OW 1831   2.201   0.509   1.006
  604SOL    HW1 1832   2.149   0.426   0.989
  604SOL    HW2 1833   2.278   0.514   0.942
  605SOL     OW 1834   1.870   1.326   0.200
  605SOL    HW1 1835   1.777   1.347   0.169
  605SOL    HW2 1836   1.880   1.227   0.213
  606SOL     OW 1837   1.950   1.801   0.927
  606SOL    HW1 1838   1.908   1.715   0.900
  606SOL    HW2 1839   2.044   1.804   0.893
  607SOL     OW 1840   2.366   1.568   0.910
  607SOL    HW1 1841   2.432   1.642   0.919
  607SOL    HW2 1842   2.410   1.489   0.868
  608SOL     OW 1843   2.864   0.796   1.238
  608SOL    HW1 1844   2.905   0.764   1.324
  608SOL    HW2 1845   2.768   0.769   1.235
  609SOL     OW 1846   1.902   0.544   1.114
  609SOL    HW1 1847   1.987   0.511   1.073
  609SOL    HW2 1848   1.915   0.559   1.212
  610SOL     OW 1849   2.051   0.520   1.722
  610SOL    HW1 1850   2.110   0.480   1.652
  610SOL    HW2 1851   1.993   0.591   1.681
  611SOL     OW 1852   2.677   0.572   0.325
  611SOL    HW1 1853   2.684   0.483   0.279
  611SOL    HW2 1854   2.583   0.606   0.317
  612SOL     OW 1855   2.114   1.564   1.744
  612SOL    HW1 1856   2.084   1.621   1.820
  612SOL    HW2 1857   2.107   1.467   1.770
  613SOL     OW 1858   2.533   0.464   1.269
  613SOL    HW1 1859   2.499   0.375   1.239
  613SOL    HW2 1860   2.559   0.518   1.189
  614SOL     OW 1861   2.792   1.678   1.465
  614SOL    HW1 1862   2.768   1.660   1.370
  614SOL    HW2 1863   2.822   1.772   1.475
  615SOL     OW 1864   2.335   0.500   0.191
  615SOL    HW1 1865   2.396   0.580   0.195
  615SOL    HW2 1866   2.240   0.531   0.198
  616SOL     OW 1867   2.021   1.137   1.466
  616SOL    HW1 1868   2.043   1.076   1.542
  616SOL    HW2 1869   2.031   1.088   1.380
  617SOL     OW 1870   1.945   1.258   1.022
  617SOL    HW1 1871   1.940   1.257   1.122
  617SOL    HW2 1872   1.862   1.217   0.984
  618SOL     OW 1873   2.550   1.662   1.716
  618SOL    HW1 1874   2.494   1.743   1.725
  618SOL    HW2 1875   2.602   1.666   1.630
  619SOL     OW 1876   2.765   0.086   0.133
  619SOL    HW1 1877   2.816   0.087   0.047
  619SOL    HW2 1878   2.821   0.044   0.204
  620SOL     OW 1879   1.992   1.794   1.851
  620SOL    HW1 1880   1.951   1.720   1.904
  620SOL    HW2 1881   2.056   1.845   1.909
  621SOL     OW 1882   3.142   0.927   0.672
  621SOL    HW1 1883   3.202   0.846   0.674
  621SOL    HW2 1884   3.182   0.996   0.612
  622SOL     OW 1885   2.692   1.273   1.422
  622SOL    HW1 1886   2.687   1.306   1.517
  622SOL    HW2 1887   2.606   1.292   1.376
  623SOL     OW 1888   2.534   1.616   0.154
  623SOL    HW1 1889   2.543   1.626   0.055
  623SOL    HW2 1890   2.494   1.527   0.175
  624SOL     OW 1891   2.125   0.326   0.720
  624SOL    HW1 1892   2.046   0.377   0.686
  624SOL    HW2 1893   2.116   0.311   0.818
  625SOL     OW 1894   2.684   1.002   1.372
  625SOL    HW1 1895   2.724   1.001   1.280
  625SOL    HW2 1896   2.694   1.094   1.412
  626SOL     OW 1897   2.778   0.910   0.291
  626SOL    HW1 1898   2.841   0.948   0.223
  626SOL    HW2 1899   2.818   0.827   0.330
  627SOL     OW 1900   2.234   1.288   1.490
  627SOL    HW1 1901   2.221   1.381   1.456
  627SOL    HW2 1902   2.150   1.236   1.477
  628SOL     OW 1903   2.901   1.098   0.696
  628SOL    HW1 1904   2.831   1.051   0.750
  628SOL    HW2 1905   2.960   1.030   0.653
  629SOL     OW 1906   2.876   0.236   0.971
  629SOL    HW1 1907   2.868   0.200   0.878
  629SOL    HW2 1908   2.874   0.160   1.036
  630SOL     OW 1909   2.452   1.487   0.491
  630SOL    HW1 1910   2.494   1.429   0.421
  630SOL    HW2 1911   2.408   1.566   0.447
  631SOL     OW 1912   2.117   1.348   0.290
  631SOL    HW1 1913   2.021   1.349   0.263
  631SOL    HW2 1914   2.129   1.401   0.374
  632SOL     OW 1915   1.967   1.013   1.726
  632SOL    HW1 1916   1.890   0.980   1.780
  632SOL    HW2 1917   2.052   0.983   1.768
  633SOL     OW 1918   2.534   0.203   1.489
  633SOL    HW1 1919   2.624   0.187   1.449
  633SOL    HW2 1920   2.542   0.208   1.588
  634SOL     OW 1921   1.937   0.345   0.033
  634SOL    HW1 1922   1.845   0.317   0.004
  634SOL    HW2 1923   1.968   0.422  -0.023
  635SOL     OW 1924   1.934   0.166   0.318
  635SOL    HW1 1925   1.917   0.249   0.264
  635SOL    HW2 1926   2.024   0.129   0.296
  636SOL     OW 1927   2.475   0.842   1.431
  636SOL    HW1 1928   2.531   0.923   1.414
  636SOL    HW2 1929   2.534   0.762   1.434
  637SOL     OW 1930   2.578   0.565   1.708
  637SOL    HW1 1931   2.597   0.630   1.782
  637SOL    HW2 1932   2.638   0.485   1.717
  638SOL     OW 1933   2.252   1.741   1.560
  638SOL    HW1 1934   2.161   1.782   1.558
  638SOL    HW2 1935   2.245   1.647   1.592
  639SOL     OW 1936   3.087   0.325   0.449
  639SOL    HW1 1937   3.152   0.251   0.438
  639SOL    HW2 1938   3.107   0.375   0.533
  640SOL     OW 1939   2.456   0.745   0.652
  640SOL    HW1 1940   2.506   0.830   0.633
  640SOL    HW2 1941   2.368   0.747   0.604
  641SOL     OW 1942   2.721   1.374   0.016
  641SOL    HW1 1943   2.675   1.389   0.104
  641SOL    HW2 1944   2.765   1.459  -0.014
  642SOL     OW 1945   2.523   1.790   0.953
  642SOL    HW1 1946   2.477   1.878   0.940
  642SOL    HW2 1947   2.622   1.802   0.946
  643SOL     OW 1948   2.721   0.956   0.861
  643SOL    HW1 1949   2.775   0.887   0.909
  643SOL    HW2 1950   2.689   1.025   0.927
  644SOL     OW 1951   2.945   0.984   0.087
  644SOL    HW1 1952   2.922   1.037   0.005
  644SOL    HW2 1953   3.026   0.928   0.068
  645SOL     OW 1954   2.083   1.314   1.844
  645SOL    HW1 1955   2.018   1.241   1.823
  645SOL    HW2 1956   2.087   1.328   1.942
  646SOL     OW 1957   1.941   1.240   0.653
  646SOL    HW1 1958   1.940   1.193   0.741
  646SOL    HW2 1959   2.023   1.212   0.602
  647SOL     OW 1960   2.534   1.391   1.624
  647SOL    HW1 1961   2.456   1.341   1.662
  647SOL    HW2 1962   2.531   1.486   1.655
  648SOL     OW 1963   2.290   0.424   0.520
  648SOL    HW1 1964   2.320   0.352   0.458
  648SOL    HW2 1965   2.251   0.384   0.603
  649SOL     OW 1966   2.179   0.547   1.280
  649SOL    HW1 1967   2.217   0.488   1.352
  649SOL    HW2 1968   2.219   0.521   1.192
  650SOL     OW 1969   2.674   1.586   0.687
  650SOL    HW1 1970   2.706   1.596   0.593
  650SOL    HW2 1971   2.595   1.524   0.689
  651SOL     OW 1972   2.863   0.034   1.154
  651SOL    HW1 1973   2.800  -0.038   1.123
  651SOL    HW2 1974   2.956  -0.002   1.154
  652SOL     OW 1975   2.632   1.330   0.301
  652SOL    HW1 1976   2.586   1.243   0.318
  652SOL    HW2 1977   2.723   1.327   0.342
  653SOL     OW 1978   2.480   1.567   1.284
  653SOL    HW1 1979   2.475   1.649   1.341
  653SOL    HW2 1980   2.569   1.564   1.239
  654SOL     OW 1981   1.901   1.077   0.300
  654SOL    HW1 1982   2.000   1.066   0.291
  654SOL    HW2 1983   1.861   0.991   0.332
  655SOL     OW 1984   2.737   1.646   0.337
  655SOL    HW1 1985   2.660   1.611   0.283
  655SOL    HW2 1986   2.705   1.717   0.399
  656SOL     OW 1987   2.092   0.628   1.975
  656SOL    HW1 1988   1.999   0.626   2.012
  656SOL    HW2 1989   2.093   0.589   1.883
  657SOL     OW 1990   2.087   0.275   2.858
  657SOL    HW1 1991   2.122   0.258   2.950
  657SOL    HW2 1992   1.999   0.230   2.846
  658SOL     OW 1993   1.881   0.368   2.509
  658SOL    HW1 1994   1.799   0.411   2.548
  658SOL    HW2 1995   1.853   0.295   2.446
  659SOL     OW 1996   2.630   1.144   2.885
  659SOL    HW1 1997   2.552   1.161   2.945
  659SOL    HW2 1998   2.664   1.231   2.849
  660SOL     OW 1999   2.547   1.012   2.527
  660SOL    HW1 2000   2.616   0.996   2.597
  660SOL    HW2 2001   2.474   1.069   2.565
  661SOL     OW 2002   2.197   1.435   2.923
  661SOL    HW1 2003   2.119   1.404   2.870
  661SOL    HW2 2004   2.255   1.493   2.866
  662SOL     OW 2005   2.093   1.713   2.345
  662SOL    HW1 2006   2.127   1.790   2.399
  662SOL    HW2 2007   2.137   1.713   2.255
  663SOL     OW 2008   2.092   1.434   2.400
  663SOL    HW1 2009   2.066   1.530   2.400
  663SOL    HW2 2010   2.021   1.380   2.445
  664SOL     OW 2011   2.102   1.091   2.748
  664SOL    HW1 2012   2.116   1.007   2.800
  664SOL    HW2 2013   2.047   1.155   2.803
  665SOL     OW 2014   2.468   0.964   1.985
  665SOL    HW1 2015   2.475   1.048   1.931
  665SOL    HW2 2016   2.514   0.977   2.073
  666SOL     OW 2017   1.984   0.643   2.425
  666SOL    HW1 2018   1.939   0.555   2.442
  666SOL    HW2 2019   1.983   0.697   2.509
  667SOL     OW 2020   1.889   1.596   1.979
  667SOL    HW1 2021   1.870   1.500   2.000
  667SOL    HW2 2022   1.856   1.654   2.054
  668SOL     OW 2023   2.475   1.365   2.588
  668SOL    HW1 2024   2.426   1.278   2.597
  668SOL    HW2 2025   2.452   1.408   2.501
  669SOL     OW 2026   2.671   0.004   2.364
  669SOL    HW1 2027   2.711   0.095   2.355
  669SOL    HW2 2028   2.571   0.012   2.370
  670SOL     OW 2029   2.460   0.729   2.132
  670SOL    HW1 2030   2.484   0.798   2.064
  670SOL    HW2 2031   2.382   0.762   2.186
  671SOL     OW 2032   2.903   0.701   2.291
  671SOL    HW1 2033   2.929   0.697   2.387
  671SOL    HW2 2034   2.818   0.650   2.277
  672SOL     OW 2035   1.938   0.811   2.651
  672SOL    HW1 2036   2.037   0.799   2.660
  672SOL    HW2 2037   1.914   0.906   2.672
  673SOL     OW 2038   2.727   0.348   2.057
  673SOL    HW1 2039   2.786   0.411   2.008
  673SOL    HW2 2040   2.746   0.254   2.028
  674SOL     OW 2041   2.412   0.196   2.747
  674SOL    HW1 2042   2.407   0.191   2.847
  674SOL    HW2 2043   2.414   0.292   2.718
  675SOL     OW 2044   2.870   1.456   2.339
  675SOL    HW1 2045   2.824   1.528   2.287
  675SOL    HW2 2046   2.866   1.476   2.437
  676SOL     OW 2047   2.213   1.801   2.715
  676SOL    HW1 2048   2.263   1.715   2.721
  676SOL    HW2 2049   2.278   1.878   2.712
  677SOL     OW 2050   2.183   0.943   2.104
  677SOL    HW1 2051   2.265   0.982   2.062
  677SOL    HW2 2052   2.156   0.861   2.055
  678SOL     OW 2053   2.326   1.743   2.185
  678SOL    HW1 2054   2.359   1.782   2.271
  678SOL    HW2 2055   2.402   1.736   2.120
  679SOL     OW 2056   2.111   1.785   3.103
  679SOL    HW1 2057   2.168   1.720   3.153
  679SOL    HW2 2058   2.095   1.752   3.010
  680SOL     OW 2059   2.802   1.698   2.766
  680SOL    HW1 2060   2.882   1.641   2.787
  680SOL    HW2 2061   2.753   1.658   2.689
  681SOL     OW 2062   2.244   0.700   2.342
  681SOL    HW1 2063   2.289   0.610   2.339
  681SOL    HW2 2064   2.150   0.689   2.375
  682SOL     OW 2065   2.476   0.122   1.979
  682SOL    HW1 2066   2.574   0.100   1.986
  682SOL    HW2 2067   2.445   0.105   1.886
  683SOL     OW 2068   2.665   1.402   2.786
  683SOL    HW1 2069   2.755   1.416   2.744
  683SOL    HW2 2070   2.594   1.404   2.715
  684SOL     OW 2071   2.784   0.503   2.761
  684SOL    HW1 2072   2.759   0.494   2.665
  684SOL    HW2 2073   2.832   0.421   2.792
  685SOL     OW 2074   2.401   0.064   2.374
  685SOL    HW1 2075   2.320   0.065   2.432
  685SOL    HW2 2076   2.404   0.147   2.319
  686SOL     OW 2077   2.159   0.035   2.033
  686SOL    HW1 2078   2.208   0.119   2.012
  686SOL    HW2 2079   2.221  -0.030   2.078
  687SOL     OW 2080   2.797   0.236   2.342
  687SOL    HW1 2081   2.749   0.277   2.264
  687SOL    HW2 2082   2.896   0.234   2.323
  688SOL     OW 2083   3.089   1.570   2.655
  688SOL    HW1 2084   3.110   1.644   2.590
  688SOL    HW2 2085   3.157   1.570   2.728
  689SOL     OW 2086   2.321   1.152   2.603
  689SOL    HW1 2087   2.250   1.125   2.668
  689SOL    HW2 2088   2.295   1.124   2.510
  690SOL     OW 2089   2.894   0.549   1.878
  690SOL    HW1 2090   2.853   0.631   1.839
  690SOL    HW2 2091   2.958   0.575   1.951
  691SOL     OW 2092   2.728   0.454   2.504
  691SOL    HW1 2093   2.696   0.526   2.442
  691SOL    HW2 2094   2.752   0.373   2.451
  692SOL     OW 2095   2.879   0.039   2.615
  692SOL    HW1 2096   2.807   0.044   2.546
  692SOL    HW2 2097   2.855  -0.030   2.684
  693SOL     OW 2098   2.350   1.385   2.036
  693SOL    HW1 2099   2.263   1.370   2.083
  693SOL    HW2 2100   2.333   1.411   1.941
  694SOL     OW 2101   2.389   0.256   2.190
  694SOL    HW1 2102   2.416   0.197   2.115
  694SOL    HW2 2103   2.389   0.351   2.159
  695SOL     OW 2104   2.567   1.050   2.230
  695SOL    HW1 2105   2.553   1.057   2.329
  695SOL    HW2 2106   2.651   0.999   2.212
  696SOL     OW 2107   2.229   1.100   2.363
  696SOL    HW1 2108   2.222   1.183   2.307
  696SOL    HW2 2109   2.233   1.020   2.303
  697SOL     OW 2110   2.428   0.537   2.727
  697SOL    HW1 2111   2.440   0.603   2.653
  697SOL    HW2 2112   2.474   0.571   2.810
  698SOL     OW 2113   2.435   0.870   2.891
  698SOL    HW1 2114   2.479   0.959   2.882
  698SOL    HW2 2115   2.372   0.870   2.968
  699SOL     OW 2116   3.071   0.525   2.137
  699SOL    HW1 2117   3.084   0.441   2.191
  699SOL    HW2 2118   3.042   0.599   2.197
  700SOL     OW 2119   2.594   0.634   2.926
  700SOL    HW1 2120   2.653   0.608   2.850
  700SOL    HW2 2121   2.566   0.730   2.915
  701SOL     OW 2122   2.169   0.063   2.480
  701SOL    HW1 2123   2.158   0.157   2.513
  701SOL    HW2 2124   2.164   0.000   2.557
  702SOL     OW 2125   2.181   0.810   2.811
  702SOL    HW1 2126   2.274   0.846   2.816
  702SOL    HW2 2127   2.175   0.725   2.863
  703SOL     OW 2128   2.201   0.509   2.868
  703SOL    HW1 2129   2.149   0.426   2.851
  703SOL    HW2 2130   2.278   0.514   2.804
  704SOL     OW 2131   1.870   1.326   2.062
  704SOL    HW1 2132   1.777   1.347   2.031
  704SOL    HW2 2133   1.880   1.227   2.075
  705SOL     OW 2134   1.950   1.801   2.789
  705SOL    HW1 2135   1.908   1.715   2.762
  705SOL    HW2 2136   2.044   1.804   2.755
  706SOL     OW 2137   2.366   1.568   2.772
  706SOL    HW1 2138   2.432   1.642   2.781
  706SOL    HW2 2139   2.410   1.489   2.730
  707SOL     OW 2140   2.864   0.796   3.100
  707SOL    HW1 2141   2.905   0.764   3.186
  707SOL    HW2 2142   2.768   0.769   3.097
  708SOL     OW 2143   2.677   0.572   2.187
  708SOL    HW1 2144   2.684   0.483   2.141
  708SOL    HW2 2145   2.583   0.606   2.179
  709SOL     OW 2146   2.533   0.464   3.131
  709SOL    HW1 2147   2.499   0.375   3.101
  709SOL    HW2 2148   2.559   0.518   3.051
  710SOL     OW 2149   2.335   0.500   2.053
  710SOL    HW1 2150   2.396   0.580   2.057
  710SOL    HW2 2151   2.240   0.531   2.060
  711SOL     OW 2152   1.945   1.258   2.884
  711SOL    HW1 2153   1.940   1.257   2.984
  711SOL    HW2 2154   1.862   1.217   2.846
  712SOL     OW 2155   3.142   0.927   2.534
  712SOL    HW1 2156   3.202   0.846   2.536
  712SOL    HW2 2157   3.182   0.996   2.474
  713SOL     OW 2158   2.534   1.616   2.016
  713SOL    HW1 2159   2.543   1.626   1.917
  713SOL    HW2 2160   2.494   1.527   2.037
  714SOL     OW 2161   2.125   0.326   2.582
  714SOL    HW1 2162   2.046   0.377   2.548
  714SOL    HW2 2163   2.116   0.311   2.680
  715SOL     OW 2164   2.778   0.910   2.153
  715SOL    HW1 2165   2.841   0.948   2.085
  715SOL    HW2 2166   2.818   0.827   2.192
  716SOL     OW 2167   2.901   1.098   2.558
  716SOL    HW1 2168   2.831   1.051   2.612
  716SOL    HW2 2169   2.960   1.030   2.515
  717SOL     OW 2170   2.876   0.236   2.833
  717SOL    HW1 2171   2.868   0.200   2.740
  717SOL    HW2 2172   2.874   0.160   2.898
  718SOL     OW 2173   2.452   1.487   2.353
  718SOL    HW1 2174   2.494   1.429   2.283
  718SOL    HW2 2175   2.408   1.566   2.309
  719SOL     OW 2176   2.117   1.348   2.152
  719SOL    HW1 2177   2.021   1.349   2.125
  719SOL    HW2 2178   2.129   1.401   2.236
  720SOL     OW 2179   1.937   0.345   1.895
  720SOL    HW1 2180   1.845   0.317   1.866
  720SOL    HW2 2181   1.968   0.422   1.839
  721SOL     OW 2182   1.934   0.166   2.180
  721SOL    HW1 2183   1.917   0.249   2.126
  721SOL    HW2 2184   2.024   0.129   2.158
  722SOL     OW 2185   3.087   0.325   2.311
  722SOL    HW1 2186   3.152   0.251   2.300
  722SOL    HW2 2187   3.107   0.375   2.395
  723SOL     OW 2188   2.456   0.745   2.514
  723SOL    HW1 2189   2.506   0.830   2.495
  723SOL    HW2 2190   2.368   0.747   2.466
  724SOL     OW 2191   2.721   1.374   1.878
  724SOL    HW1 2192   2.675   1.389   1.966
  724SOL    HW2 2193   2.765   1.459   1.848
  725SOL     OW 2194   2.523   1.790   2.815
  725SOL    HW1 2195   2.477   1.878   2.802
  725SOL    HW2 2196   2.622   1.802   2.808
  726SOL     OW 2197   2.721   0.956   2.723
  726SOL    HW1 2198   2.775   0.887   2.771
  726SOL    HW2 2199   2.689   1.025   2.789
  727SOL     OW 2200   1.941   1.240   2.515
  727SOL    HW1 2201   1.940   1.193   2.603
  727SOL    HW2 2202   2.023   1.212   2.464
  728SOL     OW 2203   2.290   0.424   2.382
  728SOL    HW1 2204   2.320   0.352   2.320
  728SOL    HW2 2205   2.251   0.384   2.465
  729SOL     OW 2206   2.674   1.586   2.549
  729SOL    HW1 2207   2.706   1.596   2.455
  729SOL    HW2 2208   2.595   1.524   2.551
  730SOL     OW 2209   2.632   1.330   2.163
  730SOL    HW1 2210   2.586   1.243   2.180
  730SOL    HW2 2211   2.723   1.327   2.204
  731SOL     OW 2212   1.901   1.077   2.162
  731SOL    HW1 2213   2.000   1.066   2.153
  731SOL    HW2 2214   1.861   0.991   2.194
  732SOL     OW 2215   2.737   1.646   2.199
  732SOL    HW1 2216   2.660   1.611   2.145
  732SOL    HW2 2217   2.705   1.717   2.261
  733SOL     OW 2218   2.092   2.490   0.113
  733SOL    HW1 2219   1.999   2.488   0.150
  733SOL    HW2 2220   2.093   2.451   0.021
  734SOL     OW 2221   2.087   2.137   0.996
  734SOL    HW1 2222   2.122   2.120   1.088
  734SOL    HW2 2223   1.999   2.092   0.984
  735SOL     OW 2224   1.881   2.230   0.647
  735SOL    HW1 2225   1.799   2.273   0.686
  735SOL    HW2 2226   1.853   2.157   0.584
  736SOL     OW 2227   2.630   3.006   1.023
  736SOL    HW1 2228   2.552   3.023   1.083
  736SOL    HW2 2229   2.664   3.093   0.987
  737SOL     OW 2230   2.712   2.660   1.823
  737SOL    HW1 2231   2.708   2.736   1.888
  737SOL    HW2 2232   2.734   2.696   1.732
  738SOL     OW 2233   2.547   2.874   0.665
  738SOL    HW1 2234   2.616   2.858   0.735
  738SOL    HW2 2235   2.474   2.931   0.703
  739SOL     OW 2236   2.300   2.254   1.499
  739SOL    HW1 2237   2.382   2.198   1.508
  739SOL    HW2 2238   2.219   2.196   1.503
  740SOL     OW 2239   2.102   2.953   0.886
  740SOL    HW1 2240   2.116   2.869   0.938
  740SOL    HW2 2241   2.047   3.017   0.941
  741SOL     OW 2242   2.468   2.826   0.123
  741SOL    HW1 2243   2.475   2.910   0.069
  741SOL    HW2 2244   2.514   2.839   0.211
  742SOL     OW 2245   1.984   2.505   0.563
  742SOL    HW1 2246   1.939   2.417   0.580
  742SOL    HW2 2247   1.983   2.559   0.647
  743SOL     OW 2248   1.975   2.599   1.597
  743SOL    HW1 2249   2.063   2.586   1.642
  743SOL    HW2 2250   1.962   2.696   1.575
  744SOL     OW 2251   2.671   1.866   0.502
  744SOL    HW1 2252   2.711   1.957   0.493
  744SOL    HW2 2253   2.571   1.874   0.508
  745SOL     OW 2254   2.059   2.838   1.264
  745SOL    HW1 2255   2.148   2.793   1.250
  745SOL    HW2 2256   1.986   2.773   1.245
  746SOL     OW 2257   2.179   2.113   1.801
  746SOL    HW1 2258   2.250   2.184   1.807
  746SOL    HW2 2259   2.091   2.152   1.829
  747SOL     OW 2260   2.460   2.591   0.270
  747SOL    HW1 2261   2.484   2.660   0.202
  747SOL    HW2 2262   2.382   2.624   0.324
  748SOL     OW 2263   2.669   2.467   1.465
  748SOL    HW1 2264   2.622   2.464   1.554
  748SOL    HW2 2265   2.618   2.412   1.399
  749SOL     OW 2266   2.835   2.752   1.572
  749SOL    HW1 2267   2.881   2.668   1.543
  749SOL    HW2 2268   2.779   2.786   1.497
  750SOL     OW 2269   2.853   2.272   1.242
  750SOL    HW1 2270   2.776   2.306   1.296
  750SOL    HW2 2271   2.819   2.221   1.163
  751SOL     OW 2272   2.903   2.563   0.429
  751SOL    HW1 2273   2.929   2.559   0.525
  751SOL    HW2 2274   2.818   2.512   0.415
  752SOL     OW 2275   1.938   2.673   0.789
  752SOL    HW1 2276   2.037   2.661   0.798
  752SOL    HW2 2277   1.914   2.768   0.810
  753SOL     OW 2278   2.727   2.210   0.195
  753SOL    HW1 2279   2.786   2.273   0.146
  753SOL    HW2 2280   2.746   2.116   0.166
  754SOL     OW 2281   2.412   2.058   0.885
  754SOL    HW1 2282   2.407   2.053   0.985
  754SOL    HW2 2283   2.414   2.154   0.856
  755SOL     OW 2284   2.064   2.147   1.498
  755SOL    HW1 2285   1.984   2.207   1.485
  755SOL    HW2 2286   2.054   2.098   1.584
  756SOL     OW 2287   2.244   2.562   0.480
  756SOL    HW1 2288   2.289   2.472   0.477
  756SOL    HW2 2289   2.150   2.551   0.513
  757SOL     OW 2290   2.476   1.984   0.117
  757SOL    HW1 2291   2.574   1.962   0.124
  757SOL    HW2 2292   2.445   1.967   0.024
  758SOL     OW 2293   2.643   2.126   1.749
  758SOL    HW1 2294   2.710   2.065   1.792
  758SOL    HW2 2295   2.570   2.145   1.814
  759SOL     OW 2296   2.784   2.365   0.899
  759SOL    HW1 2297   2.759   2.356   0.803
  759SOL    HW2 2298   2.832   2.283   0.930
  760SOL     OW 2299   2.401   1.926   0.512
  760SOL    HW1 2300   2.320   1.927   0.570
  760SOL    HW2 2301   2.404   2.009   0.457
  761SOL     OW 2302   2.797   2.098   0.480
  761SOL    HW1 2303   2.749   2.139   0.402
  761SOL    HW2 2304   2.896   2.096   0.461
  762SOL     OW 2305   2.894   2.411   0.016
  762SOL    HW1 2306   2.853   2.493  -0.023
  762SOL    HW2 2307   2.958   2.437   0.089
  763SOL     OW 2308   1.940   2.418   1.386
  763SOL    HW1 2309   2.032   2.417   1.345
  763SOL    HW2 2310   1.934   2.492   1.453
  764SOL     OW 2311   2.423   2.084   1.147
  764SOL    HW1 2312   2.461   2.000   1.184
  764SOL    HW2 2313   2.335   2.103   1.191
  765SOL     OW 2314   2.728   2.316   0.642
  765SOL    HW1 2315   2.696   2.388   0.580
  765SOL    HW2 2316   2.752   2.235   0.589
  766SOL     OW 2317   2.879   1.901   0.753
  766SOL    HW1 2318   2.807   1.906   0.684
  766SOL    HW2 2319   2.855   1.832   0.822
  767SOL     OW 2320   2.389   2.118   0.328
  767SOL    HW1 2321   2.416   2.059   0.253
  767SOL    HW2 2322   2.389   2.213   0.297
  768SOL     OW 2323   2.777   1.951   1.402
  768SOL    HW1 2324   2.802   1.931   1.307
  768SOL    HW2 2325   2.849   2.007   1.444
  769SOL     OW 2326   2.272   2.675   1.251
  769SOL    HW1 2327   2.358   2.687   1.301
  769SOL    HW2 2328   2.230   2.588   1.278
  770SOL     OW 2329   2.428   2.399   0.865
  770SOL    HW1 2330   2.440   2.465   0.791
  770SOL    HW2 2331   2.474   2.433   0.948
  771SOL     OW 2332   2.264   2.613   1.598
  771SOL    HW1 2333   2.332   2.668   1.551
  771SOL    HW2 2334   2.304   2.525   1.625
  772SOL     OW 2335   2.875   1.967   1.770
  772SOL    HW1 2336   2.881   2.052   1.718
  772SOL    HW2 2337   2.907   1.891   1.713
  773SOL     OW 2338   2.366   1.912   1.740
  773SOL    HW1 2339   2.324   1.855   1.670
  773SOL    HW2 2340   2.300   1.981   1.772
  774SOL     OW 2341   2.435   2.732   1.029
  774SOL    HW1 2342   2.479   2.821   1.020
  774SOL    HW2 2343   2.372   2.732   1.106
  775SOL     OW 2344   3.071   2.387   0.275
  775SOL    HW1 2345   3.084   2.303   0.329
  775SOL    HW2 2346   3.042   2.461   0.335
  776SOL     OW 2347   2.169   2.075   1.231
  776SOL    HW1 2348   2.146   2.112   1.321
  776SOL    HW2 2349   2.139   1.980   1.225
  777SOL     OW 2350   2.594   2.496   1.064
  777SOL    HW1 2351   2.653   2.470   0.988
  777SOL    HW2 2352   2.566   2.592   1.053
  778SOL     OW 2353   2.169   1.925   0.618
  778SOL    HW1 2354   2.158   2.019   0.651
  778SOL    HW2 2355   2.164   1.862   0.695
  779SOL     OW 2356   2.885   2.628   0.966
  779SOL    HW1 2357   2.900   2.649   1.062
  779SOL    HW2 2358   2.855   2.533   0.957
  780SOL     OW 2359   2.212   2.760   1.804
  780SOL    HW1 2360   2.288   2.804   1.852
  780SOL    HW2 2361   2.247   2.713   1.722
  781SOL     OW 2362   2.181   2.672   0.949
  781SOL    HW1 2363   2.274   2.708   0.954
  781SOL    HW2 2364   2.175   2.587   1.001
  782SOL     OW 2365   2.201   2.371   1.006
  782SOL    HW1 2366   2.149   2.288   0.989
  782SOL    HW2 2367   2.278   2.376   0.942
  783SOL     OW 2368   2.864   2.658   1.238
  783SOL    HW1 2369   2.905   2.626   1.324
  783SOL    HW2 2370   2.768   2.631   1.235
  784SOL     OW 2371   1.902   2.406   1.114
  784SOL    HW1 2372   1.987   2.373   1.073
  784SOL    HW2 2373   1.915   2.421   1.212
  785SOL     OW 2374   2.051   2.382   1.722
  785SOL    HW1 2375   2.110   2.342   1.652
  785SOL    HW2 2376   1.993   2.453   1.681
  786SOL     OW 2377   2.677   2.434   0.325
  786SOL    HW1 2378   2.684   2.345   0.279
  786SOL    HW2 2379   2.583   2.468   0.317
  787SOL     OW 2380   2.533   2.326   1.269
  787SOL    HW1 2381   2.499   2.237   1.239
  787SOL    HW2 2382   2.559   2.380   1.189
  788SOL     OW 2383   2.335   2.362   0.191
  788SOL    HW1 2384   2.396   2.442   0.195
  788SOL    HW2 2385   2.240   2.393   0.198
  789SOL     OW 2386   2.021   2.999   1.466
  789SOL    HW1 2387   2.043   2.938   1.542
  789SOL    HW2 2388   2.031   2.950   1.380
  790SOL     OW 2389   2.765   1.948   0.133
  790SOL    HW1 2390   2.816   1.949   0.047
  790SOL    HW2 2391   2.821   1.906   0.204
  791SOL     OW 2392   3.142   2.789   0.672
  791SOL    HW1 2393   3.202   2.708   0.674
  791SOL    HW2 2394   3.182   2.858   0.612
  792SOL     OW 2395   2.125   2.188   0.720
  792SOL    HW1 2396   2.046   2.239   0.686
  792SOL    HW2 2397   2.116   2.173   0.818
  793SOL     OW 2398   2.778   2.772   0.291
  793SOL    HW1 2399   2.841   2.810   0.223
  793SOL    HW2 2400   2.818   2.689   0.330
  794SOL     OW 2401   2.876   2.098   0.971
  794SOL    HW1 2402   2.868   2.062   0.878
  794SOL    HW2 2403   2.874   2.022   1.036
  795SOL     OW 2404   1.967   2.875   1.726
  795SOL    HW1 2405   1.890   2.842   1.780
  795SOL    HW2 2406   2.052   2.845   1.768
  796SOL     OW 2407   2.534   2.065   1.489
  796SOL    HW1 2408   2.624   2.049   1.449
  796SOL    HW2 2409   2.542   2.070   1.588
  797SOL     OW 2410   1.937   2.207   0.033
  797SOL    HW1 2411   1.845   2.179   0.004
  797SOL    HW2 2412   1.968   2.284  -0.023
  798SOL     OW 2413   1.934   2.028   0.318
  798SOL    HW1 2414   1.917   2.111   0.264
  798SOL    HW2 2415   2.024   1.991   0.296
  799SOL     OW 2416   2.475   2.704   1.431
  799SOL    HW1 2417   2.531   2.785   1.414
  799SOL    HW2 2418   2.534   2.624   1.434
  800SOL     OW 2419   2.578   2.427   1.708
  800SOL    HW1 2420   2.597   2.492   1.782
  800SOL    HW2 2421   2.638   2.347   1.717
  801SOL     OW 2422   3.087   2.187   0.449
  801SOL    HW1 2423   3.152   2.113   0.438
  801SOL    HW2 2424   3.107   2.237   0.533
  802SOL     OW 2425   2.456   2.607   0.652
  802SOL    HW1 2426   2.506   2.692   0.633
  802SOL    HW2 2427   2.368   2.609   0.604
  803SOL     OW 2428   2.721   2.818   0.861
  803SOL    HW1 2429   2.775   2.749   0.909
  803SOL    HW2 2430   2.689   2.887   0.927
  804SOL     OW 2431   1.941   3.102   0.653
  804SOL    HW1 2432   1.940   3.055   0.741
  804SOL    HW2 2433   2.023   3.074   0.602
  805SOL     OW 2434   2.290   2.286   0.520
  805SOL    HW1 2435   2.320   2.214   0.458
  805SOL    HW2 2436   2.251   2.246   0.603
  806SOL     OW 2437   2.179   2.409   1.280
  806SOL    HW1 2438   2.217   2.350   1.352
  806SOL    HW2 2439   2.219   2.383   1.192
  807SOL     OW 2440   2.863   1.896   1.154
  807SOL    HW1 2441   2.800   1.824   1.123
  807SOL    HW2 2442   2.956   1.860   1.154
  808SOL     OW 2443   1.901   2.939   0.300
  808SOL    HW1 2444   2.000   2.928   0.291
  808SOL    HW2 2445   1.861   2.853   0.332
  809SOL     OW 2446   2.092   2.490   1.975
  809SOL    HW1 2447   1.999   2.488   2.012
  809SOL    HW2 2448   2.093   2.451   1.883
  810SOL     OW 2449   2.087   2.137   2.858
  810SOL    HW1 2450   2.122   2.120   2.950
  810SOL    HW2 2451   1.999   2.092   2.846
  811SOL     OW 2452   1.881   2.230   2.509
  811SOL    HW1 2453   1.799   2.273   2.548
  811SOL    HW2 2454   1.853   2.157   2.446
  812SOL     OW 2455   2.547   2.874   2.527
  812SOL    HW1 2456   2.616   2.858   2.597
  812SOL    HW2 2457   2.474   2.931   2.565
  813SOL     OW 2458   2.102   2.953   2.748
  813SOL    HW1 2459   2.116   2.869   2.800
  813SOL    HW2 2460   2.047   3.017   2.803
  814SOL     OW 2461   2.468   2.826   1.985
  814SOL    HW1 2462   2.475   2.910   1.931
  814SOL    HW2 2463   2.514   2.839   2.073
  815SOL     OW 2464   1.984   2.505   2.425
  815SOL    HW1 2465   1.939   2.417   2.442
  815SOL    HW2 2466   1.983   2.559   2.509
  816SOL     OW 2467   2.671   1.866   2.364
  816SOL    HW1 2468   2.711   1.957   2.355
  816SOL    HW2 2469   2.571   1.874   2.370
  817SOL     OW 2470   2.059   2.838   3.126
  817SOL    HW1 2471   2.148   2.793   3.112
  817SOL    HW2 2472   1.986   2.773   3.107
  818SOL     OW 2473   2.460   2.591   2.132
  818SOL    HW1 2474   2.484   2.660   2.064
  818SOL    HW2 2475   2.382   2.624   2.186
  819SOL     OW 2476   2.903   2.563   2.291
  819SOL    HW1 2477   2.929   2.559   2.387
  819SOL    HW2 2478   2.818   2.512   2.277
  820SOL     OW 2479   1.938   2.673   2.651
  820SOL    HW1 2480   2.037   2.661   2.660
  820SOL    HW2 2481   1.914   2.768   2.672
  821SOL     OW 2482   2.727   2.210   2.057
  821SOL    HW1 2483   2.786   2.273   2.008
  821SOL    HW2 2484   2.746   2.116   2.028
  822SOL     OW 2485   2.412   2.058   2.747
  822SOL    HW1 2486   2.407   2.053   2.847
  822SOL    HW2 2487   2.414   2.154   2.718
  823SOL     OW 2488   2.244   2.562   2.342
  823SOL    HW1 2489   2.289   2.472   2.339
  823SOL    HW2 2490   2.150   2.551   2.375
  824SOL     OW 2491   2.476   1.984   1.979
  824SOL    HW1 2492   2.574   1.962   1.986
  824SOL    HW2 2493   2.445   1.967   1.886
  825SOL     OW 2494   2.784   2.365   2.761
  825SOL    HW1 2495   2.759   2.356   2.665
  825SOL    HW2 2496   2.832   2.283   2.792
  826SOL     OW 2497   2.401   1.926   2.374
  826SOL    HW1 2498   2.320   1.927   2.432
  826SOL    HW2 2499   2.404   2.009   2.319
  827SOL     OW 2500   2.159   1.897   2.033
  827SOL    HW1 2501   2.208   1.981   2.012
  827SOL    HW2 2502   2.221   1.832   2.078
  828SOL     OW 2503   2.797   2.098   2.342
  828SOL    HW1 2504   2.749   2.139   2.264
  828SOL    HW2 2505   2.896   2.096   2.323
  829SOL     OW 2506   2.894   2.411   1.878
  829SOL    HW1 2507   2.853   2.493   1.839
  829SOL    HW2 2508   2.958   2.437   1.951
  830SOL     OW 2509   2.728   2.316   2.504
  830SOL    HW1 2510   2.696   2.388   2.442
  830SOL    HW2 2511   2.752   2.235   2.451
  831SOL     OW 2512   2.879   1.901   2.615
  831SOL    HW1 2513   2.807   1.906   2.546
  831SOL    HW2 2514   2.855   1.832   2.684
  832SOL     OW 2515   2.389   2.118   2.190
  832SOL    HW1 2516   2.416   2.059   2.115
  832SOL    HW2 2517   2.389   2.213   2.159
  833SOL     OW 2518   2.428   2.399   2.727
  833SOL    HW1 2519   2.440   2.465   2.653
  833SOL    HW2 2520   2.474   2.433   2.810
  834SOL     OW 2521   2.435   2.732   2.891
  834SOL    HW1 2522   2.479   2.821   2.882
  834SOL    HW2 2523   2.372   2.732   2.968
  835SOL     OW 2524   3.071   2.387   2.137
  835SOL    HW1 2525   3.084   2.303   2.191
  835SOL    HW2 2526   3.042   2.461   2.197
  836SOL     OW 2527   2.169   2.075   3.093
  836SOL    HW1 2528   2.146   2.112   3.183
  836SOL    HW2 2529   2.139   1.980   3.087
  837SOL     OW 2530   2.594   2.496   2.926
  837SOL    HW1 2531   2.653   2.470   2.850
  837SOL    HW2 2532   2.566   2.592   2.915
  838SOL     OW 2533   2.169   1.925   2.480
  838SOL    HW1 2534   2.158   2.019   2.513
  838SOL    HW2 2535   2.164   1.862   2.557
  839SOL     OW 2536   2.181   2.672   2.811
  839SOL    HW1 2537   2.274   2.708   2.816
  839SOL    HW2 2538   2.175   2.587   2.863
  840SOL     OW 2539   2.201   2.371   2.868
  840SOL    HW1 2540   2.149   2.288   2.851
  840SOL    HW2 2541   2.278   2.376   2.804
  841SOL     OW 2542   2.864   2.658   3.100
  841SOL    HW1 2543   2.905   2.626   3.186
  841SOL    HW2 2544   2.768   2.631   3.097
  842SOL     OW 2545   2.677   2.434   2.187
  842SOL    HW1 2546   2.684   2.345   2.141
  842SOL    HW2 2547   2.583   2.468   2.179
  843SOL     OW 2548   2.533   2.326   3.131
  843SOL    HW1 2549   2.499   2.237   3.101
  843SOL    HW2 2550   2.559   2.380   3.051
  844SOL     OW 2551   2.335   2.362   2.053
  844SOL    HW1 2552   2.396   2.442   2.057
  844SOL    HW2 2553   2.240   2.393   2.060
  845SOL     OW 2554   3.164   2.717   2.171
  845SOL    HW1 2555   3.078   2.686   2.213
  845SOL    HW2 2556   3.160   2.703   2.072
  846SOL     OW 2557   3.142   2.789   2.534
  846SOL    HW1 2558   3.202   2.708   2.536
  846SOL    HW2 2559   3.182   2.858   2.474
  847SOL     OW 2560   2.125   2.188   2.582
  847SOL    HW1 2561   2.046   2.239   2.548
  847SOL    HW2 2562   2.116   2.173   2.680
  848SOL     OW 2563   2.778   2.772   2.153
  848SOL    HW1 2564   2.841   2.810   2.085
  848SOL    HW2 2565   2.818   2.689   2.192
  849SOL     OW 2566   2.876   2.098   2.833
  849SOL    HW1 2567   2.868   2.062   2.740
  849SOL    HW2 2568   2.874   2.022   2.898
  850SOL     OW 2569   1.937   2.207   1.895
  850SOL    HW1 2570   1.845   2.179   1.866
  850SOL    HW2 2571   1.968   2.284   1.839
  851SOL     OW 2572   1.934   2.028   2.180
  851SOL    HW1 2573   1.917   2.111   2.126
  851SOL    HW2 2574   2.024   1.991   2.158
  852SOL     OW 2575   3.087   2.187   2.311
  852SOL    HW1 2576   3.152   2.113   2.300
  852SOL    HW2 2577   3.107   2.237   2.395
  853SOL     OW 2578   2.456   2.607   2.514
  853SOL    HW1 2579   2.506   2.692   2.495
  853SOL    HW2 2580   2.368   2.609   2.466
  854SOL     OW 2581   2.721   2.818   2.723
  854SOL    HW1 2582   2.775   2.749   2.771
  854SOL    HW2 2583   2.689   2.887   2.789
  855SOL     OW 2584   1.941   3.102   2.515
  855SOL    HW1 2585   1.940   3.055   2.603
  855SOL    HW2 2586   2.023   3.074   2.464
  856SOL     OW 2587   2.290   2.286   2.382
  856SOL    HW1 2588   2.320   2.214   2.320
  856SOL    HW2 2589   2.251   2.246   2.465
  857SOL     OW 2590   1.901   2.939   2.162
  857SOL    HW1 2591   2.000   2.928   2.153
  857SOL    HW2 2592   1.861   2.853   2.194
   2.95416   2.95416   2.95416
