mobley_5123639_GMX.gro created by acpype (v: 2023.10.27) on Thu May 14 13:34:46 2026
 1752
    1MOL     C1    1   1.195   1.126   1.276
    1MOL     C2    2   1.198   1.270   1.480
    1MOL     C3    3   1.500   1.444   1.191
    1MOL     C4    4   1.265   1.371   1.260
    1MOL     C5    5   1.173   1.268   1.329
    1MOL     C6    6   1.415   1.344   1.268
    1MOL     O1    7   1.452   1.350   1.406
    1MOL     H1    8   1.300   1.096   1.285
    1MOL     H2    9   1.166   1.118   1.170
    1MOL     H3   10   1.134   1.054   1.331
    1MOL     H4   11   1.179   1.371   1.521
    1MOL     H5   12   1.131   1.201   1.531
    1MOL     H6   13   1.301   1.242   1.504
    1MOL     H7   14   1.479   1.546   1.225
    1MOL     H8   15   1.606   1.426   1.208
    1MOL     H9   16   1.481   1.439   1.083
    1MOL    H10   17   1.245   1.471   1.301
    1MOL    H11   18   1.236   1.379   1.154
    1MOL    H12   19   1.069   1.296   1.312
    1MOL    H13   20   1.438   1.242   1.234
    1MOL    H14   21   1.524   1.415   1.412
    2SOL     OW   22   0.230   0.628   0.113
    2SOL    HW1   23   0.137   0.626   0.150
    2SOL    HW2   24   0.231   0.589   0.021
    3SOL     OW   25   0.225   0.275   0.996
    3SOL    HW1   26   0.260   0.258   1.088
    3SOL    HW2   27   0.137   0.230   0.984
    4SOL     OW   28   0.019   0.368   0.647
    4SOL    HW1   29  -0.063   0.411   0.686
    4SOL    HW2   30  -0.009   0.295   0.584
    5SOL     OW   31   0.569   1.275   1.165
    5SOL    HW1   32   0.476   1.268   1.128
    5SOL    HW2   33   0.580   1.364   1.209
    6SOL     OW   34   1.555   1.511   0.703
    6SOL    HW1   35   1.498   1.495   0.784
    6SOL    HW2   36   1.496   1.521   0.623
    7SOL     OW   37   1.135   0.703   0.717
    7SOL    HW1   38   1.192   0.781   0.692
    7SOL    HW2   39   1.075   0.729   0.793
    8SOL     OW   40   1.755   0.607   0.231
    8SOL    HW1   41   1.743   0.594   0.132
    8SOL    HW2   42   1.725   0.526   0.280
    9SOL     OW   43   0.768   1.144   1.023
    9SOL    HW1   44   0.690   1.161   1.083
    9SOL    HW2   45   0.802   1.231   0.987
   10SOL     OW   46   0.850   0.798   1.823
   10SOL    HW1   47   0.846   0.874   1.888
   10SOL    HW2   48   0.872   0.834   1.732
   11SOL     OW   49   0.685   1.012   0.665
   11SOL    HW1   50   0.754   0.996   0.735
   11SOL    HW2   51   0.612   1.069   0.703
   12SOL     OW   52   0.686   1.161   1.803
   12SOL    HW1   53   0.746   1.240   1.817
   12SOL    HW2   54   0.600   1.192   1.762
   13SOL     OW   55   0.335   1.435   1.061
   13SOL    HW1   56   0.257   1.404   1.008
   13SOL    HW2   57   0.393   1.493   1.004
   14SOL     OW   58   0.438   0.392   1.499
   14SOL    HW1   59   0.520   0.336   1.508
   14SOL    HW2   60   0.357   0.334   1.503
   15SOL     OW   61   1.603   0.447   0.737
   15SOL    HW1   62   1.529   0.493   0.687
   15SOL    HW2   63   1.654   0.515   0.790
   16SOL     OW   64   0.231   1.713   0.483
   16SOL    HW1   65   0.265   1.790   0.537
   16SOL    HW2   66   0.275   1.713   0.393
   17SOL     OW   67   1.127   1.341   1.690
   17SOL    HW1   68   1.174   1.341   1.778
   17SOL    HW2   69   1.079   1.254   1.679
   18SOL     OW   70   0.230   1.434   0.538
   18SOL    HW1   71   0.204   1.530   0.538
   18SOL    HW2   72   0.159   1.380   0.583
   19SOL     OW   73   0.240   1.091   0.886
   19SOL    HW1   74   0.254   1.007   0.938
   19SOL    HW2   75   0.185   1.155   0.941
   20SOL     OW   76   0.620   1.786   1.439
   20SOL    HW1   77   0.528   1.769   1.474
   20SOL    HW2   78   0.648   1.878   1.465
   21SOL     OW   79   0.606   0.964   0.123
   21SOL    HW1   80   0.613   1.048   0.069
   21SOL    HW2   81   0.652   0.977   0.211
   22SOL     OW   82   1.594   0.114   1.480
   22SOL    HW1   83   1.576   0.181   1.408
   22SOL    HW2   84   1.591   0.160   1.569
   23SOL     OW   85   0.122   0.643   0.563
   23SOL    HW1   86   0.077   0.555   0.580
   23SOL    HW2   87   0.121   0.697   0.647
   24SOL     OW   88   1.842   1.767   0.359
   24SOL    HW1   89   1.896   1.738   0.439
   24SOL    HW2   90   1.872   1.857   0.330
   25SOL     OW   91   0.027   1.596   0.117
   25SOL    HW1   92   0.008   1.500   0.138
   25SOL    HW2   93  -0.006   1.654   0.192
   26SOL     OW   94   1.689   0.922   0.612
   26SOL    HW1   95   1.784   0.893   0.620
   26SOL    HW2   96   1.681   0.987   0.537
   27SOL     OW   97   1.641   1.108   0.432
   27SOL    HW1   98   1.727   1.110   0.380
   27SOL    HW2   99   1.655   1.155   0.520
   28SOL     OW  100   0.113   0.737   1.597
   28SOL    HW1  101   0.201   0.724   1.642
   28SOL    HW2  102   0.100   0.834   1.575
   29SOL     OW  103   0.613   1.365   0.726
   29SOL    HW1  104   0.564   1.278   0.735
   29SOL    HW2  105   0.590   1.408   0.639
   30SOL     OW  106   0.809   0.004   0.502
   30SOL    HW1  107   0.849   0.095   0.493
   30SOL    HW2  108   0.709   0.012   0.508
   31SOL     OW  109   0.197   0.976   1.264
   31SOL    HW1  110   0.286   0.931   1.250
   31SOL    HW2  111   0.124   0.911   1.245
   32SOL     OW  112   1.525   0.999   0.190
   32SOL    HW1  113   1.462   0.923   0.203
   32SOL    HW2  114   1.573   1.017   0.276
   33SOL     OW  115   1.187   1.792   1.616
   33SOL    HW1  116   1.211   1.852   1.540
   33SOL    HW2  117   1.194   1.697   1.586
   34SOL     OW  118   0.317   0.251   1.801
   34SOL    HW1  119   0.388   0.322   1.807
   34SOL    HW2  120   0.229   0.290   1.829
   35SOL     OW  121   1.667   1.714   0.572
   35SOL    HW1  122   1.626   1.691   0.484
   35SOL    HW2  123   1.649   1.640   0.637
   36SOL     OW  124   0.598   0.729   0.270
   36SOL    HW1  125   0.622   0.798   0.202
   36SOL    HW2  126   0.520   0.762   0.324
   37SOL     OW  127   1.281   0.345   0.944
   37SOL    HW1  128   1.195   0.295   0.931
   37SOL    HW2  129   1.343   0.291   1.000
   38SOL     OW  130   1.576   1.662   0.307
   38SOL    HW1  131   1.665   1.708   0.310
   38SOL    HW2  132   1.555   1.638   0.212
   39SOL     OW  133   0.807   0.605   1.465
   39SOL    HW1  134   0.760   0.602   1.554
   39SOL    HW2  135   0.756   0.550   1.399
   40SOL     OW  136   1.394   0.469   1.674
   40SOL    HW1  137   1.374   0.512   1.762
   40SOL    HW2  138   1.472   0.407   1.683
   41SOL     OW  139   0.973   0.890   1.572
   41SOL    HW1  140   1.019   0.806   1.543
   41SOL    HW2  141   0.917   0.924   1.497
   42SOL     OW  142   0.991   0.410   1.242
   42SOL    HW1  143   0.914   0.444   1.296
   42SOL    HW2  144   0.957   0.359   1.163
   43SOL     OW  145   1.041   0.701   0.429
   43SOL    HW1  146   1.067   0.697   0.525
   43SOL    HW2  147   0.956   0.650   0.415
   44SOL     OW  148   0.076   0.811   0.789
   44SOL    HW1  149   0.175   0.799   0.798
   44SOL    HW2  150   0.052   0.906   0.810
   45SOL     OW  151   0.130   1.821   1.571
   45SOL    HW1  152   0.120   1.806   1.670
   45SOL    HW2  153   0.044   1.857   1.535
   46SOL     OW  154   0.865   0.348   0.195
   46SOL    HW1  155   0.924   0.411   0.146
   46SOL    HW2  156   0.884   0.254   0.166
   47SOL     OW  157   1.719   0.585   1.831
   47SOL    HW1  158   1.693   0.674   1.795
   47SOL    HW2  159   1.717   0.517   1.758
   48SOL     OW  160   1.362   1.144   0.545
   48SOL    HW1  161   1.445   1.115   0.497
   48SOL    HW2  162   1.313   1.211   0.489
   49SOL     OW  163   0.550   0.196   0.885
   49SOL    HW1  164   0.545   0.191   0.985
   49SOL    HW2  165   0.552   0.292   0.856
   50SOL     OW  166   1.008   1.456   0.477
   50SOL    HW1  167   0.962   1.528   0.425
   50SOL    HW2  168   1.004   1.476   0.575
   51SOL     OW  169   0.351   1.801   0.853
   51SOL    HW1  170   0.401   1.715   0.859
   51SOL    HW2  171   0.416   1.878   0.850
   52SOL     OW  172   1.795   1.066   0.873
   52SOL    HW1  173   1.733   1.051   0.797
   52SOL    HW2  174   1.743   1.077   0.958
   53SOL     OW  175   0.321   0.943   0.242
   53SOL    HW1  176   0.403   0.982   0.200
   53SOL    HW2  177   0.294   0.861   0.193
   54SOL     OW  178   1.458   0.735   0.728
   54SOL    HW1  179   1.453   0.670   0.803
   54SOL    HW2  180   1.538   0.794   0.741
   55SOL     OW  181   0.461   1.266   1.727
   55SOL    HW1  182   0.411   1.267   1.641
   55SOL    HW2  183   0.398   1.248   1.803
   56SOL     OW  184   1.111   1.776   0.237
   56SOL    HW1  185   1.051   1.714   0.287
   56SOL    HW2  186   1.142   1.732   0.152
   57SOL     OW  187   0.202   0.285   1.498
   57SOL    HW1  188   0.122   0.345   1.485
   57SOL    HW2  189   0.192   0.236   1.584
   58SOL     OW  190   1.632   1.377   0.081
   58SOL    HW1  191   1.600   1.471   0.071
   58SOL    HW2  192   1.556   1.314   0.069
   59SOL     OW  193   0.464   1.743   0.323
   59SOL    HW1  194   0.497   1.782   0.409
   59SOL    HW2  195   0.540   1.736   0.258
   60SOL     OW  196   1.400   0.107   0.426
   60SOL    HW1  197   1.376   0.070   0.336
   60SOL    HW2  198   1.499   0.123   0.430
   61SOL     OW  199   0.249   1.785   1.241
   61SOL    HW1  200   0.306   1.720   1.291
   61SOL    HW2  201   0.233   1.752   1.148
   62SOL     OW  202   0.940   1.698   0.904
   62SOL    HW1  203   1.020   1.641   0.925
   62SOL    HW2  204   0.891   1.658   0.827
   63SOL     OW  205   0.382   0.700   0.480
   63SOL    HW1  206   0.427   0.610   0.477
   63SOL    HW2  207   0.288   0.689   0.513
   64SOL     OW  208   1.547   0.222   1.729
   64SOL    HW1  209   1.542   0.259   1.821
   64SOL    HW2  210   1.475   0.153   1.717
   65SOL     OW  211   0.614   0.122   0.117
   65SOL    HW1  212   0.712   0.100   0.124
   65SOL    HW2  213   0.583   0.105   0.024
   66SOL     OW  214   0.781   0.264   1.749
   66SOL    HW1  215   0.848   0.203   1.792
   66SOL    HW2  216   0.708   0.283   1.814
   67SOL     OW  217   0.888   1.514   1.195
   67SOL    HW1  218   0.865   1.489   1.101
   67SOL    HW2  219   0.949   1.445   1.234
   68SOL     OW  220   1.351   0.590   1.433
   68SOL    HW1  221   1.379   0.547   1.518
   68SOL    HW2  222   1.376   0.686   1.434
   69SOL     OW  223   0.803   1.402   0.924
   69SOL    HW1  224   0.893   1.416   0.882
   69SOL    HW2  225   0.732   1.404   0.853
   70SOL     OW  226   0.922   0.503   0.899
   70SOL    HW1  227   0.897   0.494   0.803
   70SOL    HW2  228   0.970   0.421   0.930
   71SOL     OW  229   0.539   0.064   0.512
   71SOL    HW1  230   0.458   0.065   0.570
   71SOL    HW2  231   0.542   0.147   0.457
   72SOL     OW  232   1.434   1.188   0.041
   72SOL    HW1  233   1.466   1.112   0.098
   72SOL    HW2  234   1.342   1.215   0.071
   73SOL     OW  235   0.297   0.035   0.171
   73SOL    HW1  236   0.346   0.119   0.150
   73SOL    HW2  237   0.359  -0.030   0.216
   74SOL     OW  238   0.935   0.236   0.480
   74SOL    HW1  239   0.887   0.277   0.402
   74SOL    HW2  240   1.034   0.234   0.461
   75SOL     OW  241   1.076   0.683   1.464
   75SOL    HW1  242   0.996   0.622   1.467
   75SOL    HW2  243   1.157   0.630   1.440
   76SOL     OW  244   1.227   1.570   0.793
   76SOL    HW1  245   1.248   1.644   0.728
   76SOL    HW2  246   1.295   1.570   0.866
   77SOL     OW  247   0.459   1.152   0.741
   77SOL    HW1  248   0.388   1.125   0.806
   77SOL    HW2  249   0.433   1.124   0.648
   78SOL     OW  250   1.271   1.797   0.591
   78SOL    HW1  251   1.315   1.861   0.527
   78SOL    HW2  252   1.221   1.849   0.661
   79SOL     OW  253   1.032   0.549   0.016
   79SOL    HW1  254   0.991   0.631  -0.023
   79SOL    HW2  255   1.096   0.575   0.089
   80SOL     OW  256   0.078   0.556   1.386
   80SOL    HW1  257   0.170   0.555   1.345
   80SOL    HW2  258   0.072   0.630   1.453
   81SOL     OW  259   0.561   0.222   1.147
   81SOL    HW1  260   0.599   0.138   1.184
   81SOL    HW2  261   0.473   0.241   1.191
   82SOL     OW  262   0.866   0.454   0.642
   82SOL    HW1  263   0.834   0.526   0.580
   82SOL    HW2  264   0.890   0.373   0.589
   83SOL     OW  265   1.017   0.039   0.753
   83SOL    HW1  266   0.945   0.044   0.684
   83SOL    HW2  267   0.993  -0.030   0.822
   84SOL     OW  268   1.429   1.173   0.867
   84SOL    HW1  269   1.374   1.089   0.860
   84SOL    HW2  270   1.455   1.202   0.775
   85SOL     OW  271   1.466   0.590   0.992
   85SOL    HW1  272   1.436   0.495   0.999
   85SOL    HW2  273   1.539   0.606   1.058
   86SOL     OW  274   1.857   0.833   0.377
   86SOL    HW1  275   1.899   0.769   0.441
   86SOL    HW2  276   1.819   0.782   0.299
   87SOL     OW  277   0.488   1.385   0.174
   87SOL    HW1  278   0.401   1.370   0.221
   87SOL    HW2  279   0.471   1.411   0.079
   88SOL     OW  280   1.664   1.280   0.657
   88SOL    HW1  281   1.763   1.288   0.671
   88SOL    HW2  282   1.619   1.364   0.688
   89SOL     OW  283   1.390   0.575   0.078
   89SOL    HW1  284   1.336   0.554   0.159
   89SOL    HW2  285   1.481   0.534   0.087
   90SOL     OW  286   0.527   0.256   0.328
   90SOL    HW1  287   0.554   0.197   0.253
   90SOL    HW2  288   0.527   0.351   0.297
   91SOL     OW  289   1.754   1.223   1.588
   91SOL    HW1  290   1.845   1.184   1.575
   91SOL    HW2  291   1.762   1.319   1.612
   92SOL     OW  292   1.592   1.629   1.625
   92SOL    HW1  293   1.619   1.663   1.535
   92SOL    HW2  294   1.671   1.591   1.671
   93SOL     OW  295   1.638   1.099   1.079
   93SOL    HW1  296   1.643   1.180   1.138
   93SOL    HW2  297   1.552   1.101   1.028
   94SOL     OW  298   0.915   0.089   1.402
   94SOL    HW1  299   0.940   0.069   1.307
   94SOL    HW2  300   0.987   0.145   1.444
   95SOL     OW  301   0.980   1.116   1.719
   95SOL    HW1  302   0.881   1.122   1.729
   95SOL    HW2  303   1.003   1.036   1.663
   96SOL     OW  304   0.705   1.050   0.368
   96SOL    HW1  305   0.691   1.057   0.467
   96SOL    HW2  306   0.789   0.999   0.350
   97SOL     OW  307   0.410   0.813   1.251
   97SOL    HW1  308   0.496   0.825   1.301
   97SOL    HW2  309   0.368   0.726   1.278
   98SOL     OW  310   1.274   0.386   1.262
   98SOL    HW1  311   1.295   0.460   1.326
   98SOL    HW2  312   1.185   0.403   1.219
   99SOL     OW  313   0.064   1.564   1.331
   99SOL    HW1  314   0.018   1.646   1.297
   99SOL    HW2  315   0.162   1.583   1.340
  100SOL     OW  316   0.367   1.100   0.501
  100SOL    HW1  317   0.360   1.183   0.445
  100SOL    HW2  318   0.371   1.020   0.441
  101SOL     OW  319   0.566   0.537   0.865
  101SOL    HW1  320   0.578   0.603   0.791
  101SOL    HW2  321   0.612   0.571   0.948
  102SOL     OW  322   1.252   1.348   0.388
  102SOL    HW1  323   1.302   1.425   0.428
  102SOL    HW2  324   1.157   1.350   0.420
  103SOL     OW  325   1.582   0.639   0.472
  103SOL    HW1  326   1.551   0.700   0.545
  103SOL    HW2  327   1.632   0.691   0.403
  104SOL     OW  328   0.354   1.510   1.329
  104SOL    HW1  329   0.333   1.466   1.242
  104SOL    HW2  330   0.451   1.536   1.332
  105SOL     OW  331   0.402   0.751   1.598
  105SOL    HW1  332   0.470   0.806   1.551
  105SOL    HW2  333   0.442   0.663   1.625
  106SOL     OW  334   1.587   0.779   1.670
  106SOL    HW1  335   1.495   0.817   1.665
  106SOL    HW2  336   1.647   0.826   1.605
  107SOL     OW  337   1.013   0.105   1.770
  107SOL    HW1  338   1.019   0.190   1.718
  107SOL    HW2  339   1.045   0.029   1.713
  108SOL     OW  340   0.504   0.050   1.740
  108SOL    HW1  341   0.462  -0.007   1.670
  108SOL    HW2  342   0.438   0.119   1.772
  109SOL     OW  343   0.573   0.870   1.029
  109SOL    HW1  344   0.617   0.959   1.020
  109SOL    HW2  345   0.510   0.870   1.106
  110SOL     OW  346   1.360   0.862   1.045
  110SOL    HW1  347   1.285   0.862   0.979
  110SOL    HW2  348   1.397   0.770   1.054
  111SOL     OW  349   1.209   0.525   0.275
  111SOL    HW1  350   1.222   0.441   0.329
  111SOL    HW2  351   1.180   0.599   0.335
  112SOL     OW  352   0.307   0.213   1.231
  112SOL    HW1  353   0.284   0.250   1.321
  112SOL    HW2  354   0.277   0.118   1.225
  113SOL     OW  355   0.037   1.310   1.282
  113SOL    HW1  356   0.090   1.261   1.350
  113SOL    HW2  357   0.059   1.408   1.287
  114SOL     OW  358   0.732   0.634   1.064
  114SOL    HW1  359   0.791   0.608   0.988
  114SOL    HW2  360   0.704   0.730   1.053
  115SOL     OW  361   1.728   0.935   1.854
  115SOL    HW1  362   1.682   0.928   1.765
  115SOL    HW2  363   1.666   0.979   1.920
  116SOL     OW  364   0.307   0.063   0.618
  116SOL    HW1  365   0.296   0.157   0.651
  116SOL    HW2  366   0.302   0.000   0.695
  117SOL     OW  367   1.622   0.367   0.374
  117SOL    HW1  368   1.624   0.291   0.438
  117SOL    HW2  369   1.574   0.444   0.414
  118SOL     OW  370   1.023   0.766   0.966
  118SOL    HW1  371   1.038   0.787   1.062
  118SOL    HW2  372   0.993   0.671   0.957
  119SOL     OW  373   0.980   1.573   1.700
  119SOL    HW1  374   0.960   1.617   1.612
  119SOL    HW2  375   1.019   1.482   1.684
  120SOL     OW  376   1.859   1.518   1.605
  120SOL    HW1  377   1.873   1.545   1.510
  120SOL    HW2  378   1.942   1.540   1.658
  121SOL     OW  379   0.350   0.898   1.804
  121SOL    HW1  380   0.426   0.942   1.852
  121SOL    HW2  381   0.385   0.851   1.722
  122SOL     OW  382   1.540   0.274   0.125
  122SOL    HW1  383   1.479   0.199   0.148
  122SOL    HW2  384   1.562   0.326   0.208
  123SOL     OW  385   1.303   0.838   0.042
  123SOL    HW1  386   1.337   0.745   0.057
  123SOL    HW2  387   1.321   0.865  -0.053
  124SOL     OW  388   1.068   1.333   0.849
  124SOL    HW1  389   1.075   1.249   0.794
  124SOL    HW2  390   1.130   1.402   0.813
  125SOL     OW  391   0.319   0.810   0.949
  125SOL    HW1  392   0.412   0.846   0.954
  125SOL    HW2  393   0.313   0.725   1.001
  126SOL     OW  394   0.339   0.509   1.006
  126SOL    HW1  395   0.287   0.426   0.989
  126SOL    HW2  396   0.416   0.514   0.942
  127SOL     OW  397   1.138   0.380   1.678
  127SOL    HW1  398   1.093   0.443   1.742
  127SOL    HW2  399   1.231   0.411   1.661
  128SOL     OW  400   1.160   0.207   1.477
  128SOL    HW1  401   1.160   0.271   1.554
  128SOL    HW2  402   1.188   0.255   1.394
  129SOL     OW  403   0.008   1.326   0.200
  129SOL    HW1  404  -0.085   1.347   0.169
  129SOL    HW2  405   0.018   1.227   0.213
  130SOL     OW  406   0.088   1.801   0.927
  130SOL    HW1  407   0.046   1.715   0.900
  130SOL    HW2  408   0.182   1.804   0.893
  131SOL     OW  409   0.504   1.568   0.910
  131SOL    HW1  410   0.570   1.642   0.919
  131SOL    HW2  411   0.548   1.489   0.868
  132SOL     OW  412   1.002   0.796   1.238
  132SOL    HW1  413   1.043   0.764   1.324
  132SOL    HW2  414   0.906   0.769   1.235
  133SOL     OW  415   0.040   0.544   1.114
  133SOL    HW1  416   0.125   0.511   1.073
  133SOL    HW2  417   0.053   0.559   1.212
  134SOL     OW  418   0.189   0.520   1.722
  134SOL    HW1  419   0.248   0.480   1.652
  134SOL    HW2  420   0.131   0.591   1.681
  135SOL     OW  421   1.369   0.950   1.660
  135SOL    HW1  422   1.408   1.039   1.680
  135SOL    HW2  423   1.379   0.930   1.563
  136SOL     OW  424   0.815   0.572   0.325
  136SOL    HW1  425   0.822   0.483   0.279
  136SOL    HW2  426   0.721   0.606   0.317
  137SOL     OW  427   1.657   0.604   1.206
  137SOL    HW1  428   1.619   0.535   1.268
  137SOL    HW2  429   1.739   0.568   1.162
  138SOL     OW  430   0.252   1.564   1.744
  138SOL    HW1  431   0.222   1.621   1.820
  138SOL    HW2  432   0.245   1.467   1.770
  139SOL     OW  433   0.671   0.464   1.269
  139SOL    HW1  434   0.637   0.375   1.239
  139SOL    HW2  435   0.697   0.518   1.189
  140SOL     OW  436   0.930   1.678   1.465
  140SOL    HW1  437   0.906   1.660   1.370
  140SOL    HW2  438   0.960   1.772   1.475
  141SOL     OW  439   0.473   0.500   0.191
  141SOL    HW1  440   0.534   0.580   0.195
  141SOL    HW2  441   0.378   0.531   0.198
  142SOL     OW  442   0.159   1.137   1.466
  142SOL    HW1  443   0.181   1.076   1.542
  142SOL    HW2  444   0.169   1.088   1.380
  143SOL     OW  445   1.302   0.855   0.309
  143SOL    HW1  446   1.216   0.824   0.351
  143SOL    HW2  447   1.298   0.841   0.210
  144SOL     OW  448   1.759   1.747   1.154
  144SOL    HW1  449   1.820   1.777   1.081
  144SOL    HW2  450   1.721   1.658   1.132
  145SOL     OW  451   1.252   1.731   1.128
  145SOL    HW1  452   1.336   1.736   1.074
  145SOL    HW2  453   1.229   1.635   1.146
  146SOL     OW  454   0.083   1.258   1.022
  146SOL    HW1  455   0.078   1.257   1.122
  146SOL    HW2  456   0.000   1.217   0.984
  147SOL     OW  457   0.688   1.662   1.716
  147SOL    HW1  458   0.632   1.743   1.725
  147SOL    HW2  459   0.740   1.666   1.630
  148SOL     OW  460   0.903   0.086   0.133
  148SOL    HW1  461   0.954   0.087   0.047
  148SOL    HW2  462   0.959   0.044   0.204
  149SOL     OW  463   1.726   0.135   0.523
  149SOL    HW1  464   1.799   0.118   0.456
  149SOL    HW2  465   1.695   0.048   0.561
  150SOL     OW  466   1.388   1.573   0.477
  150SOL    HW1  467   1.455   1.585   0.403
  150SOL    HW2  468   1.348   1.662   0.500
  151SOL     OW  469   0.130   1.794   1.851
  151SOL    HW1  470   0.089   1.720   1.904
  151SOL    HW2  471   0.194   1.845   1.909
  152SOL     OW  472   1.280   0.927   0.672
  152SOL    HW1  473   1.340   0.846   0.674
  152SOL    HW2  474   1.320   0.996   0.612
  153SOL     OW  475   0.830   1.273   1.422
  153SOL    HW1  476   0.825   1.306   1.517
  153SOL    HW2  477   0.744   1.292   1.376
  154SOL     OW  478   0.672   1.616   0.154
  154SOL    HW1  479   0.681   1.626   0.055
  154SOL    HW2  480   0.632   1.527   0.175
  155SOL     OW  481   1.650   1.720   1.394
  155SOL    HW1  482   1.703   1.730   1.310
  155SOL    HW2  483   1.623   1.810   1.428
  156SOL     OW  484   1.841   0.175   0.963
  156SOL    HW1  485   1.880   0.090   0.927
  156SOL    HW2  486   1.743   0.177   0.944
  157SOL     OW  487   0.263   0.326   0.720
  157SOL    HW1  488   0.184   0.377   0.686
  157SOL    HW2  489   0.254   0.311   0.818
  158SOL     OW  490   1.194   1.612   0.031
  158SOL    HW1  491   1.200   1.519   0.068
  158SOL    HW2  492   1.135   1.612  -0.049
  159SOL     OW  493   0.822   1.002   1.372
  159SOL    HW1  494   0.862   1.001   1.280
  159SOL    HW2  495   0.832   1.094   1.412
  160SOL     OW  496   0.916   0.910   0.291
  160SOL    HW1  497   0.979   0.948   0.223
  160SOL    HW2  498   0.956   0.827   0.330
  161SOL     OW  499   1.504   1.607   0.044
  161SOL    HW1  500   1.412   1.644   0.051
  161SOL    HW2  501   1.542   1.627  -0.046
  162SOL     OW  502   0.372   1.288   1.490
  162SOL    HW1  503   0.359   1.381   1.456
  162SOL    HW2  504   0.288   1.236   1.477
  163SOL     OW  505   1.039   1.098   0.696
  163SOL    HW1  506   0.969   1.051   0.750
  163SOL    HW2  507   1.098   1.030   0.653
  164SOL     OW  508   1.014   0.236   0.971
  164SOL    HW1  509   1.006   0.200   0.878
  164SOL    HW2  510   1.012   0.160   1.036
  165SOL     OW  511   0.590   1.487   0.491
  165SOL    HW1  512   0.632   1.429   0.421
  165SOL    HW2  513   0.546   1.566   0.447
  166SOL     OW  514   1.709   0.385   1.381
  166SOL    HW1  515   1.782   0.454   1.385
  166SOL    HW2  516   1.737   0.310   1.322
  167SOL     OW  517   0.255   1.348   0.290
  167SOL    HW1  518   0.159   1.349   0.263
  167SOL    HW2  519   0.267   1.401   0.374
  168SOL     OW  520   0.105   1.013   1.726
  168SOL    HW1  521   0.028   0.980   1.780
  168SOL    HW2  522   0.190   0.983   1.768
  169SOL     OW  523   0.672   0.203   1.489
  169SOL    HW1  524   0.762   0.187   1.449
  169SOL    HW2  525   0.680   0.208   1.588
  170SOL     OW  526   0.075   0.345   0.033
  170SOL    HW1  527  -0.017   0.317   0.004
  170SOL    HW2  528   0.106   0.422  -0.023
  171SOL     OW  529   1.440   0.856   1.398
  171SOL    HW1  530   1.383   0.908   1.335
  171SOL    HW2  531   1.536   0.868   1.374
  172SOL     OW  532   0.072   0.166   0.318
  172SOL    HW1  533   0.055   0.249   0.264
  172SOL    HW2  534   0.162   0.129   0.296
  173SOL     OW  535   1.183   1.335   0.119
  173SOL    HW1  536   1.084   1.324   0.121
  173SOL    HW2  537   1.217   1.350   0.212
  174SOL     OW  538   0.613   0.842   1.431
  174SOL    HW1  539   0.669   0.923   1.414
  174SOL    HW2  540   0.672   0.762   1.434
  175SOL     OW  541   1.493   1.767   0.959
  175SOL    HW1  542   1.526   1.831   0.890
  175SOL    HW2  543   1.559   1.761   1.034
  176SOL     OW  544   0.716   0.565   1.708
  176SOL    HW1  545   0.735   0.630   1.782
  176SOL    HW2  546   0.776   0.485   1.717
  177SOL     OW  547   1.450   1.220   1.633
  177SOL    HW1  548   1.441   1.210   1.732
  177SOL    HW2  549   1.546   1.213   1.607
  178SOL     OW  550   0.390   1.741   1.560
  178SOL    HW1  551   0.299   1.782   1.558
  178SOL    HW2  552   0.383   1.647   1.592
  179SOL     OW  553   1.674   0.883   1.254
  179SOL    HW1  554   1.647   0.794   1.217
  179SOL    HW2  555   1.675   0.951   1.181
  180SOL     OW  556   1.225   0.325   0.449
  180SOL    HW1  557   1.290   0.251   0.438
  180SOL    HW2  558   1.245   0.375   0.533
  181SOL     OW  559   0.594   0.745   0.652
  181SOL    HW1  560   0.644   0.830   0.633
  181SOL    HW2  561   0.506   0.747   0.604
  182SOL     OW  562   1.777   0.342   1.642
  182SOL    HW1  563   1.760   0.373   1.548
  182SOL    HW2  564   1.693   0.305   1.680
  183SOL     OW  565   1.730   0.934   1.517
  183SOL    HW1  566   1.768   1.025   1.532
  183SOL    HW2  567   1.722   0.917   1.418
  184SOL     OW  568   0.859   1.374   0.016
  184SOL    HW1  569   0.813   1.389   0.104
  184SOL    HW2  570   0.903   1.459  -0.014
  185SOL     OW  571   0.661   1.790   0.953
  185SOL    HW1  572   0.615   1.878   0.940
  185SOL    HW2  573   0.760   1.802   0.946
  186SOL     OW  574   0.859   0.956   0.861
  186SOL    HW1  575   0.913   0.887   0.909
  186SOL    HW2  576   0.827   1.025   0.927
  187SOL     OW  577   1.083   0.984   0.087
  187SOL    HW1  578   1.060   1.037   0.005
  187SOL    HW2  579   1.164   0.928   0.068
  188SOL     OW  580   1.861   1.569   0.851
  188SOL    HW1  581   1.790   1.557   0.781
  188SOL    HW2  582   1.862   1.490   0.911
  189SOL     OW  583   0.221   1.314   1.844
  189SOL    HW1  584   0.156   1.241   1.823
  189SOL    HW2  585   0.225   1.328   1.942
  190SOL     OW  586   0.079   1.240   0.653
  190SOL    HW1  587   0.078   1.193   0.741
  190SOL    HW2  588   0.161   1.212   0.602
  191SOL     OW  589   0.672   1.391   1.624
  191SOL    HW1  590   0.594   1.341   1.662
  191SOL    HW2  591   0.669   1.486   1.655
  192SOL     OW  592   1.824   0.192   1.227
  192SOL    HW1  593   1.820   0.102   1.271
  192SOL    HW2  594   1.827   0.181   1.128
  193SOL     OW  595   0.428   0.424   0.520
  193SOL    HW1  596   0.458   0.352   0.458
  193SOL    HW2  597   0.389   0.384   0.603
  194SOL     OW  598   0.317   0.547   1.280
  194SOL    HW1  599   0.355   0.488   1.352
  194SOL    HW2  600   0.357   0.521   1.192
  195SOL     OW  601   0.812   1.586   0.687
  195SOL    HW1  602   0.844   1.596   0.593
  195SOL    HW2  603   0.733   1.524   0.689
  196SOL     OW  604   1.424   0.214   1.112
  196SOL    HW1  605   1.476   0.149   1.167
  196SOL    HW2  606   1.375   0.277   1.173
  197SOL     OW  607   1.001   0.034   1.154
  197SOL    HW1  608   0.938  -0.038   1.123
  197SOL    HW2  609   1.094  -0.002   1.154
  198SOL     OW  610   0.770   1.330   0.301
  198SOL    HW1  611   0.724   1.243   0.318
  198SOL    HW2  612   0.861   1.327   0.342
  199SOL     OW  613   0.618   1.567   1.284
  199SOL    HW1  614   0.613   1.649   1.341
  199SOL    HW2  615   0.707   1.564   1.239
  200SOL     OW  616   1.352   0.052   0.168
  200SOL    HW1  617   1.387   0.011   0.084
  200SOL    HW2  618   1.262   0.014   0.188
  201SOL     OW  619   1.300   0.453   0.691
  201SOL    HW1  620   1.241   0.533   0.695
  201SOL    HW2  621   1.315   0.418   0.784
  202SOL     OW  622   1.593   0.221   0.882
  202SOL    HW1  623   1.509   0.220   0.936
  202SOL    HW2  624   1.595   0.304   0.826
  203SOL     OW  625   0.039   1.077   0.300
  203SOL    HW1  626   0.138   1.066   0.291
  203SOL    HW2  627  -0.001   0.991   0.332
  204SOL     OW  628   0.875   1.646   0.337
  204SOL    HW1  629   0.798   1.611   0.283
  204SOL    HW2  630   0.843   1.717   0.399
  205SOL     OW  631   0.230   0.628   1.975
  205SOL    HW1  632   0.137   0.626   2.012
  205SOL    HW2  633   0.231   0.589   1.883
  206SOL     OW  634   1.135   0.703   2.579
  206SOL    HW1  635   1.192   0.781   2.554
  206SOL    HW2  636   1.075   0.729   2.655
  207SOL     OW  637   1.755   0.607   2.093
  207SOL    HW1  638   1.743   0.594   1.994
  207SOL    HW2  639   1.725   0.526   2.142
  208SOL     OW  640   1.603   0.447   2.599
  208SOL    HW1  641   1.529   0.493   2.549
  208SOL    HW2  642   1.654   0.515   2.652
  209SOL     OW  643   0.231   1.713   2.345
  209SOL    HW1  644   0.265   1.790   2.399
  209SOL    HW2  645   0.275   1.713   2.255
  210SOL     OW  646   0.230   1.434   2.400
  210SOL    HW1  647   0.204   1.530   2.400
  210SOL    HW2  648   0.159   1.380   2.445
  211SOL     OW  649   0.606   0.964   1.985
  211SOL    HW1  650   0.613   1.048   1.931
  211SOL    HW2  651   0.652   0.977   2.073
  212SOL     OW  652   0.122   0.643   2.425
  212SOL    HW1  653   0.077   0.555   2.442
  212SOL    HW2  654   0.121   0.697   2.509
  213SOL     OW  655   1.842   1.767   2.221
  213SOL    HW1  656   1.896   1.738   2.301
  213SOL    HW2  657   1.872   1.857   2.192
  214SOL     OW  658   0.027   1.596   1.979
  214SOL    HW1  659   0.008   1.500   2.000
  214SOL    HW2  660  -0.006   1.654   2.054
  215SOL     OW  661   1.689   0.922   2.474
  215SOL    HW1  662   1.784   0.893   2.482
  215SOL    HW2  663   1.681   0.987   2.399
  216SOL     OW  664   1.641   1.108   2.294
  216SOL    HW1  665   1.727   1.110   2.242
  216SOL    HW2  666   1.655   1.155   2.382
  217SOL     OW  667   0.613   1.365   2.588
  217SOL    HW1  668   0.564   1.278   2.597
  217SOL    HW2  669   0.590   1.408   2.501
  218SOL     OW  670   0.809   0.004   2.364
  218SOL    HW1  671   0.849   0.095   2.355
  218SOL    HW2  672   0.709   0.012   2.370
  219SOL     OW  673   1.525   0.999   2.052
  219SOL    HW1  674   1.462   0.923   2.065
  219SOL    HW2  675   1.573   1.017   2.138
  220SOL     OW  676   0.598   0.729   2.132
  220SOL    HW1  677   0.622   0.798   2.064
  220SOL    HW2  678   0.520   0.762   2.186
  221SOL     OW  679   1.281   0.345   2.806
  221SOL    HW1  680   1.195   0.295   2.793
  221SOL    HW2  681   1.343   0.291   2.862
  222SOL     OW  682   1.576   1.662   2.169
  222SOL    HW1  683   1.665   1.708   2.172
  222SOL    HW2  684   1.555   1.638   2.074
  223SOL     OW  685   1.041   0.701   2.291
  223SOL    HW1  686   1.067   0.697   2.387
  223SOL    HW2  687   0.956   0.650   2.277
  224SOL     OW  688   0.076   0.811   2.651
  224SOL    HW1  689   0.175   0.799   2.660
  224SOL    HW2  690   0.052   0.906   2.672
  225SOL     OW  691   0.865   0.348   2.057
  225SOL    HW1  692   0.924   0.411   2.008
  225SOL    HW2  693   0.884   0.254   2.028
  226SOL     OW  694   1.362   1.144   2.407
  226SOL    HW1  695   1.445   1.115   2.359
  226SOL    HW2  696   1.313   1.211   2.351
  227SOL     OW  697   1.008   1.456   2.339
  227SOL    HW1  698   0.962   1.528   2.287
  227SOL    HW2  699   1.004   1.476   2.437
  228SOL     OW  700   0.351   1.801   2.715
  228SOL    HW1  701   0.401   1.715   2.721
  228SOL    HW2  702   0.416   1.878   2.712
  229SOL     OW  703   1.795   1.066   2.735
  229SOL    HW1  704   1.733   1.051   2.659
  229SOL    HW2  705   1.743   1.077   2.820
  230SOL     OW  706   0.321   0.943   2.104
  230SOL    HW1  707   0.403   0.982   2.062
  230SOL    HW2  708   0.294   0.861   2.055
  231SOL     OW  709   1.111   1.776   2.099
  231SOL    HW1  710   1.051   1.714   2.149
  231SOL    HW2  711   1.142   1.732   2.014
  232SOL     OW  712   1.632   1.377   1.943
  232SOL    HW1  713   1.600   1.471   1.933
  232SOL    HW2  714   1.556   1.314   1.931
  233SOL     OW  715   0.464   1.743   2.185
  233SOL    HW1  716   0.497   1.782   2.271
  233SOL    HW2  717   0.540   1.736   2.120
  234SOL     OW  718   1.400   0.107   2.288
  234SOL    HW1  719   1.376   0.070   2.198
  234SOL    HW2  720   1.499   0.123   2.292
  235SOL     OW  721   0.940   1.698   2.766
  235SOL    HW1  722   1.020   1.641   2.787
  235SOL    HW2  723   0.891   1.658   2.689
  236SOL     OW  724   0.382   0.700   2.342
  236SOL    HW1  725   0.427   0.610   2.339
  236SOL    HW2  726   0.288   0.689   2.375
  237SOL     OW  727   0.614   0.122   1.979
  237SOL    HW1  728   0.712   0.100   1.986
  237SOL    HW2  729   0.583   0.105   1.886
  238SOL     OW  730   0.539   0.064   2.374
  238SOL    HW1  731   0.458   0.065   2.432
  238SOL    HW2  732   0.542   0.147   2.319
  239SOL     OW  733   1.434   1.188   1.903
  239SOL    HW1  734   1.466   1.112   1.960
  239SOL    HW2  735   1.342   1.215   1.933
  240SOL     OW  736   0.297   0.035   2.033
  240SOL    HW1  737   0.346   0.119   2.012
  240SOL    HW2  738   0.359  -0.030   2.078
  241SOL     OW  739   0.935   0.236   2.342
  241SOL    HW1  740   0.887   0.277   2.264
  241SOL    HW2  741   1.034   0.234   2.323
  242SOL     OW  742   0.459   1.152   2.603
  242SOL    HW1  743   0.388   1.125   2.668
  242SOL    HW2  744   0.433   1.124   2.510
  243SOL     OW  745   1.271   1.797   2.453
  243SOL    HW1  746   1.315   1.861   2.389
  243SOL    HW2  747   1.221   1.849   2.523
  244SOL     OW  748   1.032   0.549   1.878
  244SOL    HW1  749   0.991   0.631   1.839
  244SOL    HW2  750   1.096   0.575   1.951
  245SOL     OW  751   0.866   0.454   2.504
  245SOL    HW1  752   0.834   0.526   2.442
  245SOL    HW2  753   0.890   0.373   2.451
  246SOL     OW  754   1.466   0.590   2.854
  246SOL    HW1  755   1.436   0.495   2.861
  246SOL    HW2  756   1.539   0.606   2.920
  247SOL     OW  757   1.857   0.833   2.239
  247SOL    HW1  758   1.899   0.769   2.303
  247SOL    HW2  759   1.819   0.782   2.161
  248SOL     OW  760   0.488   1.385   2.036
  248SOL    HW1  761   0.401   1.370   2.083
  248SOL    HW2  762   0.471   1.411   1.941
  249SOL     OW  763   1.390   0.575   1.940
  249SOL    HW1  764   1.336   0.554   2.021
  249SOL    HW2  765   1.481   0.534   1.949
  250SOL     OW  766   0.527   0.256   2.190
  250SOL    HW1  767   0.554   0.197   2.115
  250SOL    HW2  768   0.527   0.351   2.159
  251SOL     OW  769   0.705   1.050   2.230
  251SOL    HW1  770   0.691   1.057   2.329
  251SOL    HW2  771   0.789   0.999   2.212
  252SOL     OW  772   0.367   1.100   2.363
  252SOL    HW1  773   0.360   1.183   2.307
  252SOL    HW2  774   0.371   1.020   2.303
  253SOL     OW  775   1.252   1.348   2.250
  253SOL    HW1  776   1.302   1.425   2.290
  253SOL    HW2  777   1.157   1.350   2.282
  254SOL     OW  778   1.582   0.639   2.334
  254SOL    HW1  779   1.551   0.700   2.407
  254SOL    HW2  780   1.632   0.691   2.265
  255SOL     OW  781   1.209   0.525   2.137
  255SOL    HW1  782   1.222   0.441   2.191
  255SOL    HW2  783   1.180   0.599   2.197
  256SOL     OW  784   0.307   0.063   2.480
  256SOL    HW1  785   0.296   0.157   2.513
  256SOL    HW2  786   0.302   0.000   2.557
  257SOL     OW  787   1.622   0.367   2.236
  257SOL    HW1  788   1.624   0.291   2.300
  257SOL    HW2  789   1.574   0.444   2.276
  258SOL     OW  790   1.540   0.274   1.987
  258SOL    HW1  791   1.479   0.199   2.010
  258SOL    HW2  792   1.562   0.326   2.070
  259SOL     OW  793   1.303   0.838   1.904
  259SOL    HW1  794   1.337   0.745   1.919
  259SOL    HW2  795   1.321   0.865   1.809
  260SOL     OW  796   0.008   1.326   2.062
  260SOL    HW1  797  -0.085   1.347   2.031
  260SOL    HW2  798   0.018   1.227   2.075
  261SOL     OW  799   0.815   0.572   2.187
  261SOL    HW1  800   0.822   0.483   2.141
  261SOL    HW2  801   0.721   0.606   2.179
  262SOL     OW  802   0.473   0.500   2.053
  262SOL    HW1  803   0.534   0.580   2.057
  262SOL    HW2  804   0.378   0.531   2.060
  263SOL     OW  805   1.302   0.855   2.171
  263SOL    HW1  806   1.216   0.824   2.213
  263SOL    HW2  807   1.298   0.841   2.072
  264SOL     OW  808   1.726   0.135   2.385
  264SOL    HW1  809   1.799   0.118   2.318
  264SOL    HW2  810   1.695   0.048   2.423
  265SOL     OW  811   1.388   1.573   2.339
  265SOL    HW1  812   1.455   1.585   2.265
  265SOL    HW2  813   1.348   1.662   2.362
  266SOL     OW  814   0.672   1.616   2.016
  266SOL    HW1  815   0.681   1.626   1.917
  266SOL    HW2  816   0.632   1.527   2.037
  267SOL     OW  817   1.841   0.175   2.825
  267SOL    HW1  818   1.880   0.090   2.789
  267SOL    HW2  819   1.743   0.177   2.806
  268SOL     OW  820   1.194   1.612   1.893
  268SOL    HW1  821   1.200   1.519   1.930
  268SOL    HW2  822   1.135   1.612   1.813
  269SOL     OW  823   0.916   0.910   2.153
  269SOL    HW1  824   0.979   0.948   2.085
  269SOL    HW2  825   0.956   0.827   2.192
  270SOL     OW  826   1.504   1.607   1.906
  270SOL    HW1  827   1.412   1.644   1.913
  270SOL    HW2  828   1.542   1.627   1.816
  271SOL     OW  829   0.590   1.487   2.353
  271SOL    HW1  830   0.632   1.429   2.283
  271SOL    HW2  831   0.546   1.566   2.309
  272SOL     OW  832   0.255   1.348   2.152
  272SOL    HW1  833   0.159   1.349   2.125
  272SOL    HW2  834   0.267   1.401   2.236
  273SOL     OW  835   0.075   0.345   1.895
  273SOL    HW1  836  -0.017   0.317   1.866
  273SOL    HW2  837   0.106   0.422   1.839
  274SOL     OW  838   0.072   0.166   2.180
  274SOL    HW1  839   0.055   0.249   2.126
  274SOL    HW2  840   0.162   0.129   2.158
  275SOL     OW  841   1.183   1.335   1.981
  275SOL    HW1  842   1.084   1.324   1.983
  275SOL    HW2  843   1.217   1.350   2.074
  276SOL     OW  844   1.225   0.325   2.311
  276SOL    HW1  845   1.290   0.251   2.300
  276SOL    HW2  846   1.245   0.375   2.395
  277SOL     OW  847   0.594   0.745   2.514
  277SOL    HW1  848   0.644   0.830   2.495
  277SOL    HW2  849   0.506   0.747   2.466
  278SOL     OW  850   0.859   1.374   1.878
  278SOL    HW1  851   0.813   1.389   1.966
  278SOL    HW2  852   0.903   1.459   1.848
  279SOL     OW  853   1.083   0.984   1.949
  279SOL    HW1  854   1.060   1.037   1.867
  279SOL    HW2  855   1.164   0.928   1.930
  280SOL     OW  856   0.079   1.240   2.515
  280SOL    HW1  857   0.078   1.193   2.603
  280SOL    HW2  858   0.161   1.212   2.464
  281SOL     OW  859   0.428   0.424   2.382
  281SOL    HW1  860   0.458   0.352   2.320
  281SOL    HW2  861   0.389   0.384   2.465
  282SOL     OW  862   0.812   1.586   2.549
  282SOL    HW1  863   0.844   1.596   2.455
  282SOL    HW2  864   0.733   1.524   2.551
  283SOL     OW  865   0.770   1.330   2.163
  283SOL    HW1  866   0.724   1.243   2.180
  283SOL    HW2  867   0.861   1.327   2.204
  284SOL     OW  868   1.352   0.052   2.030
  284SOL    HW1  869   1.387   0.011   1.946
  284SOL    HW2  870   1.262   0.014   2.050
  285SOL     OW  871   1.300   0.453   2.553
  285SOL    HW1  872   1.241   0.533   2.557
  285SOL    HW2  873   1.315   0.418   2.646
  286SOL     OW  874   0.039   1.077   2.162
  286SOL    HW1  875   0.138   1.066   2.153
  286SOL    HW2  876  -0.001   0.991   2.194
  287SOL     OW  877   0.875   1.646   2.199
  287SOL    HW1  878   0.798   1.611   2.145
  287SOL    HW2  879   0.843   1.717   2.261
  288SOL     OW  880   0.230   2.490   0.113
  288SOL    HW1  881   0.137   2.488   0.150
  288SOL    HW2  882   0.231   2.451   0.021
  289SOL     OW  883   0.225   2.137   0.996
  289SOL    HW1  884   0.260   2.120   1.088
  289SOL    HW2  885   0.137   2.092   0.984
  290SOL     OW  886   0.019   2.230   0.647
  290SOL    HW1  887  -0.063   2.273   0.686
  290SOL    HW2  888  -0.009   2.157   0.584
  291SOL     OW  889   1.755   2.469   0.231
  291SOL    HW1  890   1.743   2.456   0.132
  291SOL    HW2  891   1.725   2.388   0.280
  292SOL     OW  892   0.685   2.874   0.665
  292SOL    HW1  893   0.754   2.858   0.735
  292SOL    HW2  894   0.612   2.931   0.703
  293SOL     OW  895   0.438   2.254   1.499
  293SOL    HW1  896   0.520   2.198   1.508
  293SOL    HW2  897   0.357   2.196   1.503
  294SOL     OW  898   1.603   2.309   0.737
  294SOL    HW1  899   1.529   2.355   0.687
  294SOL    HW2  900   1.654   2.377   0.790
  295SOL     OW  901   1.594   1.976   1.480
  295SOL    HW1  902   1.576   2.043   1.408
  295SOL    HW2  903   1.591   2.022   1.569
  296SOL     OW  904   0.122   2.505   0.563
  296SOL    HW1  905   0.077   2.417   0.580
  296SOL    HW2  906   0.121   2.559   0.647
  297SOL     OW  907   0.113   2.599   1.597
  297SOL    HW1  908   0.201   2.586   1.642
  297SOL    HW2  909   0.100   2.696   1.575
  298SOL     OW  910   0.809   1.866   0.502
  298SOL    HW1  911   0.849   1.957   0.493
  298SOL    HW2  912   0.709   1.874   0.508
  299SOL     OW  913   0.317   2.113   1.801
  299SOL    HW1  914   0.388   2.184   1.807
  299SOL    HW2  915   0.229   2.152   1.829
  300SOL     OW  916   1.281   2.207   0.944
  300SOL    HW1  917   1.195   2.157   0.931
  300SOL    HW2  918   1.343   2.153   1.000
  301SOL     OW  919   0.807   2.467   1.465
  301SOL    HW1  920   0.760   2.464   1.554
  301SOL    HW2  921   0.756   2.412   1.399
  302SOL     OW  922   1.394   2.331   1.674
  302SOL    HW1  923   1.374   2.374   1.762
  302SOL    HW2  924   1.472   2.269   1.683
  303SOL     OW  925   0.991   2.272   1.242
  303SOL    HW1  926   0.914   2.306   1.296
  303SOL    HW2  927   0.957   2.221   1.163
  304SOL     OW  928   1.041   2.563   0.429
  304SOL    HW1  929   1.067   2.559   0.525
  304SOL    HW2  930   0.956   2.512   0.415
  305SOL     OW  931   0.076   2.673   0.789
  305SOL    HW1  932   0.175   2.661   0.798
  305SOL    HW2  933   0.052   2.768   0.810
  306SOL     OW  934   0.865   2.210   0.195
  306SOL    HW1  935   0.924   2.273   0.146
  306SOL    HW2  936   0.884   2.116   0.166
  307SOL     OW  937   1.719   2.447   1.831
  307SOL    HW1  938   1.693   2.536   1.795
  307SOL    HW2  939   1.717   2.379   1.758
  308SOL     OW  940   0.550   2.058   0.885
  308SOL    HW1  941   0.545   2.053   0.985
  308SOL    HW2  942   0.552   2.154   0.856
  309SOL     OW  943   1.458   2.597   0.728
  309SOL    HW1  944   1.453   2.532   0.803
  309SOL    HW2  945   1.538   2.656   0.741
  310SOL     OW  946   0.202   2.147   1.498
  310SOL    HW1  947   0.122   2.207   1.485
  310SOL    HW2  948   0.192   2.098   1.584
  311SOL     OW  949   1.400   1.969   0.426
  311SOL    HW1  950   1.376   1.932   0.336
  311SOL    HW2  951   1.499   1.985   0.430
  312SOL     OW  952   0.382   2.562   0.480
  312SOL    HW1  953   0.427   2.472   0.477
  312SOL    HW2  954   0.288   2.551   0.513
  313SOL     OW  955   1.547   2.084   1.729
  313SOL    HW1  956   1.542   2.121   1.821
  313SOL    HW2  957   1.475   2.015   1.717
  314SOL     OW  958   0.614   1.984   0.117
  314SOL    HW1  959   0.712   1.962   0.124
  314SOL    HW2  960   0.583   1.967   0.024
  315SOL     OW  961   0.781   2.126   1.749
  315SOL    HW1  962   0.848   2.065   1.792
  315SOL    HW2  963   0.708   2.145   1.814
  316SOL     OW  964   1.351   2.452   1.433
  316SOL    HW1  965   1.379   2.409   1.518
  316SOL    HW2  966   1.376   2.548   1.434
  317SOL     OW  967   0.922   2.365   0.899
  317SOL    HW1  968   0.897   2.356   0.803
  317SOL    HW2  969   0.970   2.283   0.930
  318SOL     OW  970   0.539   1.926   0.512
  318SOL    HW1  971   0.458   1.927   0.570
  318SOL    HW2  972   0.542   2.009   0.457
  319SOL     OW  973   0.935   2.098   0.480
  319SOL    HW1  974   0.887   2.139   0.402
  319SOL    HW2  975   1.034   2.096   0.461
  320SOL     OW  976   1.076   2.545   1.464
  320SOL    HW1  977   0.996   2.484   1.467
  320SOL    HW2  978   1.157   2.492   1.440
  321SOL     OW  979   1.032   2.411   0.016
  321SOL    HW1  980   0.991   2.493  -0.023
  321SOL    HW2  981   1.096   2.437   0.089
  322SOL     OW  982   0.078   2.418   1.386
  322SOL    HW1  983   0.170   2.417   1.345
  322SOL    HW2  984   0.072   2.492   1.453
  323SOL     OW  985   0.561   2.084   1.147
  323SOL    HW1  986   0.599   2.000   1.184
  323SOL    HW2  987   0.473   2.103   1.191
  324SOL     OW  988   0.866   2.316   0.642
  324SOL    HW1  989   0.834   2.388   0.580
  324SOL    HW2  990   0.890   2.235   0.589
  325SOL     OW  991   1.017   1.901   0.753
  325SOL    HW1  992   0.945   1.906   0.684
  325SOL    HW2  993   0.993   1.832   0.822
  326SOL     OW  994   1.466   2.452   0.992
  326SOL    HW1  995   1.436   2.357   0.999
  326SOL    HW2  996   1.539   2.468   1.058
  327SOL     OW  997   1.390   2.437   0.078
  327SOL    HW1  998   1.336   2.416   0.159
  327SOL    HW2  999   1.481   2.396   0.087
  328SOL     OW 1000   0.527   2.118   0.328
  328SOL    HW1 1001   0.554   2.059   0.253
  328SOL    HW2 1002   0.527   2.213   0.297
  329SOL     OW 1003   0.915   1.951   1.402
  329SOL    HW1 1004   0.940   1.931   1.307
  329SOL    HW2 1005   0.987   2.007   1.444
  330SOL     OW 1006   1.274   2.248   1.262
  330SOL    HW1 1007   1.295   2.322   1.326
  330SOL    HW2 1008   1.185   2.265   1.219
  331SOL     OW 1009   0.566   2.399   0.865
  331SOL    HW1 1010   0.578   2.465   0.791
  331SOL    HW2 1011   0.612   2.433   0.948
  332SOL     OW 1012   1.582   2.501   0.472
  332SOL    HW1 1013   1.551   2.562   0.545
  332SOL    HW2 1014   1.632   2.553   0.403
  333SOL     OW 1015   1.013   1.967   1.770
  333SOL    HW1 1016   1.019   2.052   1.718
  333SOL    HW2 1017   1.045   1.891   1.713
  334SOL     OW 1018   0.504   1.912   1.740
  334SOL    HW1 1019   0.462   1.855   1.670
  334SOL    HW2 1020   0.438   1.981   1.772
  335SOL     OW 1021   1.209   2.387   0.275
  335SOL    HW1 1022   1.222   2.303   0.329
  335SOL    HW2 1023   1.180   2.461   0.335
  336SOL     OW 1024   0.307   2.075   1.231
  336SOL    HW1 1025   0.284   2.112   1.321
  336SOL    HW2 1026   0.277   1.980   1.225
  337SOL     OW 1027   0.732   2.496   1.064
  337SOL    HW1 1028   0.791   2.470   0.988
  337SOL    HW2 1029   0.704   2.592   1.053
  338SOL     OW 1030   0.307   1.925   0.618
  338SOL    HW1 1031   0.296   2.019   0.651
  338SOL    HW2 1032   0.302   1.862   0.695
  339SOL     OW 1033   1.622   2.229   0.374
  339SOL    HW1 1034   1.624   2.153   0.438
  339SOL    HW2 1035   1.574   2.306   0.414
  340SOL     OW 1036   1.540   2.136   0.125
  340SOL    HW1 1037   1.479   2.061   0.148
  340SOL    HW2 1038   1.562   2.188   0.208
  341SOL     OW 1039   0.319   2.672   0.949
  341SOL    HW1 1040   0.412   2.708   0.954
  341SOL    HW2 1041   0.313   2.587   1.001
  342SOL     OW 1042   0.339   2.371   1.006
  342SOL    HW1 1043   0.287   2.288   0.989
  342SOL    HW2 1044   0.416   2.376   0.942
  343SOL     OW 1045   1.138   2.242   1.678
  343SOL    HW1 1046   1.093   2.305   1.742
  343SOL    HW2 1047   1.231   2.273   1.661
  344SOL     OW 1048   1.160   2.069   1.477
  344SOL    HW1 1049   1.160   2.133   1.554
  344SOL    HW2 1050   1.188   2.117   1.394
  345SOL     OW 1051   0.040   2.406   1.114
  345SOL    HW1 1052   0.125   2.373   1.073
  345SOL    HW2 1053   0.053   2.421   1.212
  346SOL     OW 1054   0.189   2.382   1.722
  346SOL    HW1 1055   0.248   2.342   1.652
  346SOL    HW2 1056   0.131   2.453   1.681
  347SOL     OW 1057   0.815   2.434   0.325
  347SOL    HW1 1058   0.822   2.345   0.279
  347SOL    HW2 1059   0.721   2.468   0.317
  348SOL     OW 1060   1.657   2.466   1.206
  348SOL    HW1 1061   1.619   2.397   1.268
  348SOL    HW2 1062   1.739   2.430   1.162
  349SOL     OW 1063   0.671   2.326   1.269
  349SOL    HW1 1064   0.637   2.237   1.239
  349SOL    HW2 1065   0.697   2.380   1.189
  350SOL     OW 1066   0.473   2.362   0.191
  350SOL    HW1 1067   0.534   2.442   0.195
  350SOL    HW2 1068   0.378   2.393   0.198
  351SOL     OW 1069   0.903   1.948   0.133
  351SOL    HW1 1070   0.954   1.949   0.047
  351SOL    HW2 1071   0.959   1.906   0.204
  352SOL     OW 1072   1.726   1.997   0.523
  352SOL    HW1 1073   1.799   1.980   0.456
  352SOL    HW2 1074   1.695   1.910   0.561
  353SOL     OW 1075   1.280   2.789   0.672
  353SOL    HW1 1076   1.340   2.708   0.674
  353SOL    HW2 1077   1.320   2.858   0.612
  354SOL     OW 1078   1.841   2.037   0.963
  354SOL    HW1 1079   1.880   1.952   0.927
  354SOL    HW2 1080   1.743   2.039   0.944
  355SOL     OW 1081   0.263   2.188   0.720
  355SOL    HW1 1082   0.184   2.239   0.686
  355SOL    HW2 1083   0.254   2.173   0.818
  356SOL     OW 1084   1.014   2.098   0.971
  356SOL    HW1 1085   1.006   2.062   0.878
  356SOL    HW2 1086   1.012   2.022   1.036
  357SOL     OW 1087   1.709   2.247   1.381
  357SOL    HW1 1088   1.782   2.316   1.385
  357SOL    HW2 1089   1.737   2.172   1.322
  358SOL     OW 1090   0.672   2.065   1.489
  358SOL    HW1 1091   0.762   2.049   1.449
  358SOL    HW2 1092   0.680   2.070   1.588
  359SOL     OW 1093   0.075   2.207   0.033
  359SOL    HW1 1094  -0.017   2.179   0.004
  359SOL    HW2 1095   0.106   2.284  -0.023
  360SOL     OW 1096   0.072   2.028   0.318
  360SOL    HW1 1097   0.055   2.111   0.264
  360SOL    HW2 1098   0.162   1.991   0.296
  361SOL     OW 1099   0.716   2.427   1.708
  361SOL    HW1 1100   0.735   2.492   1.782
  361SOL    HW2 1101   0.776   2.347   1.717
  362SOL     OW 1102   1.225   2.187   0.449
  362SOL    HW1 1103   1.290   2.113   0.438
  362SOL    HW2 1104   1.245   2.237   0.533
  363SOL     OW 1105   1.777   2.204   1.642
  363SOL    HW1 1106   1.760   2.235   1.548
  363SOL    HW2 1107   1.693   2.167   1.680
  364SOL     OW 1108   1.083   2.846   0.087
  364SOL    HW1 1109   1.060   2.899   0.005
  364SOL    HW2 1110   1.164   2.790   0.068
  365SOL     OW 1111   1.824   2.054   1.227
  365SOL    HW1 1112   1.820   1.964   1.271
  365SOL    HW2 1113   1.827   2.043   1.128
  366SOL     OW 1114   0.428   2.286   0.520
  366SOL    HW1 1115   0.458   2.214   0.458
  366SOL    HW2 1116   0.389   2.246   0.603
  367SOL     OW 1117   0.317   2.409   1.280
  367SOL    HW1 1118   0.355   2.350   1.352
  367SOL    HW2 1119   0.357   2.383   1.192
  368SOL     OW 1120   1.424   2.076   1.112
  368SOL    HW1 1121   1.476   2.011   1.167
  368SOL    HW2 1122   1.375   2.139   1.173
  369SOL     OW 1123   1.001   1.896   1.154
  369SOL    HW1 1124   0.938   1.824   1.123
  369SOL    HW2 1125   1.094   1.860   1.154
  370SOL     OW 1126   1.352   1.914   0.168
  370SOL    HW1 1127   1.387   1.873   0.084
  370SOL    HW2 1128   1.262   1.876   0.188
  371SOL     OW 1129   1.300   2.315   0.691
  371SOL    HW1 1130   1.241   2.395   0.695
  371SOL    HW2 1131   1.315   2.280   0.784
  372SOL     OW 1132   1.593   2.083   0.882
  372SOL    HW1 1133   1.509   2.082   0.936
  372SOL    HW2 1134   1.595   2.166   0.826
  373SOL     OW 1135   0.230   2.490   1.975
  373SOL    HW1 1136   0.137   2.488   2.012
  373SOL    HW2 1137   0.231   2.451   1.883
  374SOL     OW 1138   1.135   2.565   2.579
  374SOL    HW1 1139   1.192   2.643   2.554
  374SOL    HW2 1140   1.075   2.591   2.655
  375SOL     OW 1141   1.755   2.469   2.093
  375SOL    HW1 1142   1.743   2.456   1.994
  375SOL    HW2 1143   1.725   2.388   2.142
  376SOL     OW 1144   0.685   2.874   2.527
  376SOL    HW1 1145   0.754   2.858   2.597
  376SOL    HW2 1146   0.612   2.931   2.565
  377SOL     OW 1147   1.603   2.309   2.599
  377SOL    HW1 1148   1.529   2.355   2.549
  377SOL    HW2 1149   1.654   2.377   2.652
  378SOL     OW 1150   0.240   2.953   2.748
  378SOL    HW1 1151   0.254   2.869   2.800
  378SOL    HW2 1152   0.185   3.017   2.803
  379SOL     OW 1153   0.122   2.505   2.425
  379SOL    HW1 1154   0.077   2.417   2.442
  379SOL    HW2 1155   0.121   2.559   2.509
  380SOL     OW 1156   0.809   1.866   2.364
  380SOL    HW1 1157   0.849   1.957   2.355
  380SOL    HW2 1158   0.709   1.874   2.370
  381SOL     OW 1159   1.281   2.207   2.806
  381SOL    HW1 1160   1.195   2.157   2.793
  381SOL    HW2 1161   1.343   2.153   2.862
  382SOL     OW 1162   1.041   2.563   2.291
  382SOL    HW1 1163   1.067   2.559   2.387
  382SOL    HW2 1164   0.956   2.512   2.277
  383SOL     OW 1165   0.076   2.673   2.651
  383SOL    HW1 1166   0.175   2.661   2.660
  383SOL    HW2 1167   0.052   2.768   2.672
  384SOL     OW 1168   0.865   2.210   2.057
  384SOL    HW1 1169   0.924   2.273   2.008
  384SOL    HW2 1170   0.884   2.116   2.028
  385SOL     OW 1171   1.400   1.969   2.288
  385SOL    HW1 1172   1.376   1.932   2.198
  385SOL    HW2 1173   1.499   1.985   2.292
  386SOL     OW 1174   0.382   2.562   2.342
  386SOL    HW1 1175   0.427   2.472   2.339
  386SOL    HW2 1176   0.288   2.551   2.375
  387SOL     OW 1177   0.614   1.984   1.979
  387SOL    HW1 1178   0.712   1.962   1.986
  387SOL    HW2 1179   0.583   1.967   1.886
  388SOL     OW 1180   0.539   1.926   2.374
  388SOL    HW1 1181   0.458   1.927   2.432
  388SOL    HW2 1182   0.542   2.009   2.319
  389SOL     OW 1183   0.297   1.897   2.033
  389SOL    HW1 1184   0.346   1.981   2.012
  389SOL    HW2 1185   0.359   1.832   2.078
  390SOL     OW 1186   0.935   2.098   2.342
  390SOL    HW1 1187   0.887   2.139   2.264
  390SOL    HW2 1188   1.034   2.096   2.323
  391SOL     OW 1189   1.032   2.411   1.878
  391SOL    HW1 1190   0.991   2.493   1.839
  391SOL    HW2 1191   1.096   2.437   1.951
  392SOL     OW 1192   0.866   2.316   2.504
  392SOL    HW1 1193   0.834   2.388   2.442
  392SOL    HW2 1194   0.890   2.235   2.451
  393SOL     OW 1195   1.466   2.452   2.854
  393SOL    HW1 1196   1.436   2.357   2.861
  393SOL    HW2 1197   1.539   2.468   2.920
  394SOL     OW 1198   1.390   2.437   1.940
  394SOL    HW1 1199   1.336   2.416   2.021
  394SOL    HW2 1200   1.481   2.396   1.949
  395SOL     OW 1201   0.527   2.118   2.190
  395SOL    HW1 1202   0.554   2.059   2.115
  395SOL    HW2 1203   0.527   2.213   2.159
  396SOL     OW 1204   1.582   2.501   2.334
  396SOL    HW1 1205   1.551   2.562   2.407
  396SOL    HW2 1206   1.632   2.553   2.265
  397SOL     OW 1207   1.209   2.387   2.137
  397SOL    HW1 1208   1.222   2.303   2.191
  397SOL    HW2 1209   1.180   2.461   2.197
  398SOL     OW 1210   0.307   1.925   2.480
  398SOL    HW1 1211   0.296   2.019   2.513
  398SOL    HW2 1212   0.302   1.862   2.557
  399SOL     OW 1213   1.622   2.229   2.236
  399SOL    HW1 1214   1.624   2.153   2.300
  399SOL    HW2 1215   1.574   2.306   2.276
  400SOL     OW 1216   1.540   2.136   1.987
  400SOL    HW1 1217   1.479   2.061   2.010
  400SOL    HW2 1218   1.562   2.188   2.070
  401SOL     OW 1219   0.815   2.434   2.187
  401SOL    HW1 1220   0.822   2.345   2.141
  401SOL    HW2 1221   0.721   2.468   2.179
  402SOL     OW 1222   0.473   2.362   2.053
  402SOL    HW1 1223   0.534   2.442   2.057
  402SOL    HW2 1224   0.378   2.393   2.060
  403SOL     OW 1225   1.726   1.997   2.385
  403SOL    HW1 1226   1.799   1.980   2.318
  403SOL    HW2 1227   1.695   1.910   2.423
  404SOL     OW 1228   1.280   2.789   2.534
  404SOL    HW1 1229   1.340   2.708   2.536
  404SOL    HW2 1230   1.320   2.858   2.474
  405SOL     OW 1231   1.841   2.037   2.825
  405SOL    HW1 1232   1.880   1.952   2.789
  405SOL    HW2 1233   1.743   2.039   2.806
  406SOL     OW 1234   0.075   2.207   1.895
  406SOL    HW1 1235  -0.017   2.179   1.866
  406SOL    HW2 1236   0.106   2.284   1.839
  407SOL     OW 1237   0.072   2.028   2.180
  407SOL    HW1 1238   0.055   2.111   2.126
  407SOL    HW2 1239   0.162   1.991   2.158
  408SOL     OW 1240   1.225   2.187   2.311
  408SOL    HW1 1241   1.290   2.113   2.300
  408SOL    HW2 1242   1.245   2.237   2.395
  409SOL     OW 1243   1.083   2.846   1.949
  409SOL    HW1 1244   1.060   2.899   1.867
  409SOL    HW2 1245   1.164   2.790   1.930
  410SOL     OW 1246   0.428   2.286   2.382
  410SOL    HW1 1247   0.458   2.214   2.320
  410SOL    HW2 1248   0.389   2.246   2.465
  411SOL     OW 1249   1.352   1.914   2.030
  411SOL    HW1 1250   1.387   1.873   1.946
  411SOL    HW2 1251   1.262   1.876   2.050
  412SOL     OW 1252   1.300   2.315   2.553
  412SOL    HW1 1253   1.241   2.395   2.557
  412SOL    HW2 1254   1.315   2.280   2.646
  413SOL     OW 1255   2.092   0.628   0.113
  413SOL    HW1 1256   1.999   0.626   0.150
  413SOL    HW2 1257   2.093   0.589   0.021
  414SOL     OW 1258   2.087   0.275   0.996
  414SOL    HW1 1259   2.122   0.258   1.088
  414SOL    HW2 1260   1.999   0.230   0.984
  415SOL     OW 1261   1.881   0.368   0.647
  415SOL    HW1 1262   1.799   0.411   0.686
  415SOL    HW2 1263   1.853   0.295   0.584
  416SOL     OW 1264   2.431   1.275   1.165
  416SOL    HW1 1265   2.338   1.268   1.128
  416SOL    HW2 1266   2.442   1.364   1.209
  417SOL     OW 1267   2.712   0.798   1.823
  417SOL    HW1 1268   2.708   0.874   1.888
  417SOL    HW2 1269   2.734   0.834   1.732
  418SOL     OW 1270   2.548   1.161   1.803
  418SOL    HW1 1271   2.608   1.240   1.817
  418SOL    HW2 1272   2.462   1.192   1.762
  419SOL     OW 1273   2.197   1.435   1.061
  419SOL    HW1 1274   2.119   1.404   1.008
  419SOL    HW2 1275   2.255   1.493   1.004
  420SOL     OW 1276   2.300   0.392   1.499
  420SOL    HW1 1277   2.382   0.336   1.508
  420SOL    HW2 1278   2.219   0.334   1.503
  421SOL     OW 1279   2.093   1.713   0.483
  421SOL    HW1 1280   2.127   1.790   0.537
  421SOL    HW2 1281   2.137   1.713   0.393
  422SOL     OW 1282   2.092   1.434   0.538
  422SOL    HW1 1283   2.066   1.530   0.538
  422SOL    HW2 1284   2.021   1.380   0.583
  423SOL     OW 1285   2.102   1.091   0.886
  423SOL    HW1 1286   2.116   1.007   0.938
  423SOL    HW2 1287   2.047   1.155   0.941
  424SOL     OW 1288   2.482   1.786   1.439
  424SOL    HW1 1289   2.390   1.769   1.474
  424SOL    HW2 1290   2.510   1.878   1.465
  425SOL     OW 1291   2.468   0.964   0.123
  425SOL    HW1 1292   2.475   1.048   0.069
  425SOL    HW2 1293   2.514   0.977   0.211
  426SOL     OW 1294   1.984   0.643   0.563
  426SOL    HW1 1295   1.939   0.555   0.580
  426SOL    HW2 1296   1.983   0.697   0.647
  427SOL     OW 1297   1.889   1.596   0.117
  427SOL    HW1 1298   1.870   1.500   0.138
  427SOL    HW2 1299   1.856   1.654   0.192
  428SOL     OW 1300   1.975   0.737   1.597
  428SOL    HW1 1301   2.063   0.724   1.642
  428SOL    HW2 1302   1.962   0.834   1.575
  429SOL     OW 1303   2.475   1.365   0.726
  429SOL    HW1 1304   2.426   1.278   0.735
  429SOL    HW2 1305   2.452   1.408   0.639
  430SOL     OW 1306   2.059   0.976   1.264
  430SOL    HW1 1307   2.148   0.931   1.250
  430SOL    HW2 1308   1.986   0.911   1.245
  431SOL     OW 1309   2.179   0.251   1.801
  431SOL    HW1 1310   2.250   0.322   1.807
  431SOL    HW2 1311   2.091   0.290   1.829
  432SOL     OW 1312   2.460   0.729   0.270
  432SOL    HW1 1313   2.484   0.798   0.202
  432SOL    HW2 1314   2.382   0.762   0.324
  433SOL     OW 1315   1.938   0.811   0.789
  433SOL    HW1 1316   2.037   0.799   0.798
  433SOL    HW2 1317   1.914   0.906   0.810
  434SOL     OW 1318   1.992   1.821   1.571
  434SOL    HW1 1319   1.982   1.806   1.670
  434SOL    HW2 1320   1.906   1.857   1.535
  435SOL     OW 1321   2.412   0.196   0.885
  435SOL    HW1 1322   2.407   0.191   0.985
  435SOL    HW2 1323   2.414   0.292   0.856
  436SOL     OW 1324   2.213   1.801   0.853
  436SOL    HW1 1325   2.263   1.715   0.859
  436SOL    HW2 1326   2.278   1.878   0.850
  437SOL     OW 1327   2.183   0.943   0.242
  437SOL    HW1 1328   2.265   0.982   0.200
  437SOL    HW2 1329   2.156   0.861   0.193
  438SOL     OW 1330   2.323   1.266   1.727
  438SOL    HW1 1331   2.273   1.267   1.641
  438SOL    HW2 1332   2.260   1.248   1.803
  439SOL     OW 1333   2.064   0.285   1.498
  439SOL    HW1 1334   1.984   0.345   1.485
  439SOL    HW2 1335   2.054   0.236   1.584
  440SOL     OW 1336   2.326   1.743   0.323
  440SOL    HW1 1337   2.359   1.782   0.409
  440SOL    HW2 1338   2.402   1.736   0.258
  441SOL     OW 1339   2.111   1.785   1.241
  441SOL    HW1 1340   2.168   1.720   1.291
  441SOL    HW2 1341   2.095   1.752   1.148
  442SOL     OW 1342   2.244   0.700   0.480
  442SOL    HW1 1343   2.289   0.610   0.477
  442SOL    HW2 1344   2.150   0.689   0.513
  443SOL     OW 1345   2.665   1.402   0.924
  443SOL    HW1 1346   2.755   1.416   0.882
  443SOL    HW2 1347   2.594   1.404   0.853
  444SOL     OW 1348   2.401   0.064   0.512
  444SOL    HW1 1349   2.320   0.065   0.570
  444SOL    HW2 1350   2.404   0.147   0.457
  445SOL     OW 1351   2.159   0.035   0.171
  445SOL    HW1 1352   2.208   0.119   0.150
  445SOL    HW2 1353   2.221  -0.030   0.216
  446SOL     OW 1354   2.321   1.152   0.741
  446SOL    HW1 1355   2.250   1.125   0.806
  446SOL    HW2 1356   2.295   1.124   0.648
  447SOL     OW 1357   1.940   0.556   1.386
  447SOL    HW1 1358   2.032   0.555   1.345
  447SOL    HW2 1359   1.934   0.630   1.453
  448SOL     OW 1360   2.423   0.222   1.147
  448SOL    HW1 1361   2.461   0.138   1.184
  448SOL    HW2 1362   2.335   0.241   1.191
  449SOL     OW 1363   2.350   1.385   0.174
  449SOL    HW1 1364   2.263   1.370   0.221
  449SOL    HW2 1365   2.333   1.411   0.079
  450SOL     OW 1366   2.389   0.256   0.328
  450SOL    HW1 1367   2.416   0.197   0.253
  450SOL    HW2 1368   2.389   0.351   0.297
  451SOL     OW 1369   2.272   0.813   1.251
  451SOL    HW1 1370   2.358   0.825   1.301
  451SOL    HW2 1371   2.230   0.726   1.278
  452SOL     OW 1372   1.926   1.564   1.331
  452SOL    HW1 1373   1.880   1.646   1.297
  452SOL    HW2 1374   2.024   1.583   1.340
  453SOL     OW 1375   2.229   1.100   0.501
  453SOL    HW1 1376   2.222   1.183   0.445
  453SOL    HW2 1377   2.233   1.020   0.441
  454SOL     OW 1378   2.428   0.537   0.865
  454SOL    HW1 1379   2.440   0.603   0.791
  454SOL    HW2 1380   2.474   0.571   0.948
  455SOL     OW 1381   2.216   1.510   1.329
  455SOL    HW1 1382   2.195   1.466   1.242
  455SOL    HW2 1383   2.313   1.536   1.332
  456SOL     OW 1384   2.264   0.751   1.598
  456SOL    HW1 1385   2.332   0.806   1.551
  456SOL    HW2 1386   2.304   0.663   1.625
  457SOL     OW 1387   2.366   0.050   1.740
  457SOL    HW1 1388   2.324  -0.007   1.670
  457SOL    HW2 1389   2.300   0.119   1.772
  458SOL     OW 1390   2.435   0.870   1.029
  458SOL    HW1 1391   2.479   0.959   1.020
  458SOL    HW2 1392   2.372   0.870   1.106
  459SOL     OW 1393   2.169   0.213   1.231
  459SOL    HW1 1394   2.146   0.250   1.321
  459SOL    HW2 1395   2.139   0.118   1.225
  460SOL     OW 1396   1.899   1.310   1.282
  460SOL    HW1 1397   1.952   1.261   1.350
  460SOL    HW2 1398   1.921   1.408   1.287
  461SOL     OW 1399   2.169   0.063   0.618
  461SOL    HW1 1400   2.158   0.157   0.651
  461SOL    HW2 1401   2.164   0.000   0.695
  462SOL     OW 1402   2.212   0.898   1.804
  462SOL    HW1 1403   2.288   0.942   1.852
  462SOL    HW2 1404   2.247   0.851   1.722
  463SOL     OW 1405   2.181   0.810   0.949
  463SOL    HW1 1406   2.274   0.846   0.954
  463SOL    HW2 1407   2.175   0.725   1.001
  464SOL     OW 1408   2.201   0.509   1.006
  464SOL    HW1 1409   2.149   0.426   0.989
  464SOL    HW2 1410   2.278   0.514   0.942
  465SOL     OW 1411   1.870   1.326   0.200
  465SOL    HW1 1412   1.777   1.347   0.169
  465SOL    HW2 1413   1.880   1.227   0.213
  466SOL     OW 1414   1.950   1.801   0.927
  466SOL    HW1 1415   1.908   1.715   0.900
  466SOL    HW2 1416   2.044   1.804   0.893
  467SOL     OW 1417   2.366   1.568   0.910
  467SOL    HW1 1418   2.432   1.642   0.919
  467SOL    HW2 1419   2.410   1.489   0.868
  468SOL     OW 1420   1.902   0.544   1.114
  468SOL    HW1 1421   1.987   0.511   1.073
  468SOL    HW2 1422   1.915   0.559   1.212
  469SOL     OW 1423   2.051   0.520   1.722
  469SOL    HW1 1424   2.110   0.480   1.652
  469SOL    HW2 1425   1.993   0.591   1.681
  470SOL     OW 1426   2.677   0.572   0.325
  470SOL    HW1 1427   2.684   0.483   0.279
  470SOL    HW2 1428   2.583   0.606   0.317
  471SOL     OW 1429   2.114   1.564   1.744
  471SOL    HW1 1430   2.084   1.621   1.820
  471SOL    HW2 1431   2.107   1.467   1.770
  472SOL     OW 1432   2.335   0.500   0.191
  472SOL    HW1 1433   2.396   0.580   0.195
  472SOL    HW2 1434   2.240   0.531   0.198
  473SOL     OW 1435   2.021   1.137   1.466
  473SOL    HW1 1436   2.043   1.076   1.542
  473SOL    HW2 1437   2.031   1.088   1.380
  474SOL     OW 1438   1.945   1.258   1.022
  474SOL    HW1 1439   1.940   1.257   1.122
  474SOL    HW2 1440   1.862   1.217   0.984
  475SOL     OW 1441   2.550   1.662   1.716
  475SOL    HW1 1442   2.494   1.743   1.725
  475SOL    HW2 1443   2.602   1.666   1.630
  476SOL     OW 1444   1.992   1.794   1.851
  476SOL    HW1 1445   1.951   1.720   1.904
  476SOL    HW2 1446   2.056   1.845   1.909
  477SOL     OW 1447   2.125   0.326   0.720
  477SOL    HW1 1448   2.046   0.377   0.686
  477SOL    HW2 1449   2.116   0.311   0.818
  478SOL     OW 1450   2.234   1.288   1.490
  478SOL    HW1 1451   2.221   1.381   1.456
  478SOL    HW2 1452   2.150   1.236   1.477
  479SOL     OW 1453   2.452   1.487   0.491
  479SOL    HW1 1454   2.494   1.429   0.421
  479SOL    HW2 1455   2.408   1.566   0.447
  480SOL     OW 1456   2.117   1.348   0.290
  480SOL    HW1 1457   2.021   1.349   0.263
  480SOL    HW2 1458   2.129   1.401   0.374
  481SOL     OW 1459   1.967   1.013   1.726
  481SOL    HW1 1460   1.890   0.980   1.780
  481SOL    HW2 1461   2.052   0.983   1.768
  482SOL     OW 1462   2.534   0.203   1.489
  482SOL    HW1 1463   2.624   0.187   1.449
  482SOL    HW2 1464   2.542   0.208   1.588
  483SOL     OW 1465   1.937   0.345   0.033
  483SOL    HW1 1466   1.845   0.317   0.004
  483SOL    HW2 1467   1.968   0.422  -0.023
  484SOL     OW 1468   2.475   0.842   1.431
  484SOL    HW1 1469   2.531   0.923   1.414
  484SOL    HW2 1470   2.534   0.762   1.434
  485SOL     OW 1471   2.578   0.565   1.708
  485SOL    HW1 1472   2.597   0.630   1.782
  485SOL    HW2 1473   2.638   0.485   1.717
  486SOL     OW 1474   2.252   1.741   1.560
  486SOL    HW1 1475   2.161   1.782   1.558
  486SOL    HW2 1476   2.245   1.647   1.592
  487SOL     OW 1477   2.456   0.745   0.652
  487SOL    HW1 1478   2.506   0.830   0.633
  487SOL    HW2 1479   2.368   0.747   0.604
  488SOL     OW 1480   2.083   1.314   1.844
  488SOL    HW1 1481   2.018   1.241   1.823
  488SOL    HW2 1482   2.087   1.328   1.942
  489SOL     OW 1483   1.941   1.240   0.653
  489SOL    HW1 1484   1.940   1.193   0.741
  489SOL    HW2 1485   2.023   1.212   0.602
  490SOL     OW 1486   2.534   1.391   1.624
  490SOL    HW1 1487   2.456   1.341   1.662
  490SOL    HW2 1488   2.531   1.486   1.655
  491SOL     OW 1489   2.290   0.424   0.520
  491SOL    HW1 1490   2.320   0.352   0.458
  491SOL    HW2 1491   2.251   0.384   0.603
  492SOL     OW 1492   2.179   0.547   1.280
  492SOL    HW1 1493   2.217   0.488   1.352
  492SOL    HW2 1494   2.219   0.521   1.192
  493SOL     OW 1495   2.674   1.586   0.687
  493SOL    HW1 1496   2.706   1.596   0.593
  493SOL    HW2 1497   2.595   1.524   0.689
  494SOL     OW 1498   1.901   1.077   0.300
  494SOL    HW1 1499   2.000   1.066   0.291
  494SOL    HW2 1500   1.861   0.991   0.332
  495SOL     OW 1501   2.092   0.628   1.975
  495SOL    HW1 1502   1.999   0.626   2.012
  495SOL    HW2 1503   2.093   0.589   1.883
  496SOL     OW 1504   2.087   0.275   2.858
  496SOL    HW1 1505   2.122   0.258   2.950
  496SOL    HW2 1506   1.999   0.230   2.846
  497SOL     OW 1507   2.093   1.713   2.345
  497SOL    HW1 1508   2.127   1.790   2.399
  497SOL    HW2 1509   2.137   1.713   2.255
  498SOL     OW 1510   2.092   1.434   2.400
  498SOL    HW1 1511   2.066   1.530   2.400
  498SOL    HW2 1512   2.021   1.380   2.445
  499SOL     OW 1513   2.468   0.964   1.985
  499SOL    HW1 1514   2.475   1.048   1.931
  499SOL    HW2 1515   2.514   0.977   2.073
  500SOL     OW 1516   1.984   0.643   2.425
  500SOL    HW1 1517   1.939   0.555   2.442
  500SOL    HW2 1518   1.983   0.697   2.509
  501SOL     OW 1519   1.889   1.596   1.979
  501SOL    HW1 1520   1.870   1.500   2.000
  501SOL    HW2 1521   1.856   1.654   2.054
  502SOL     OW 1522   2.475   1.365   2.588
  502SOL    HW1 1523   2.426   1.278   2.597
  502SOL    HW2 1524   2.452   1.408   2.501
  503SOL     OW 1525   2.460   0.729   2.132
  503SOL    HW1 1526   2.484   0.798   2.064
  503SOL    HW2 1527   2.382   0.762   2.186
  504SOL     OW 1528   1.938   0.811   2.651
  504SOL    HW1 1529   2.037   0.799   2.660
  504SOL    HW2 1530   1.914   0.906   2.672
  505SOL     OW 1531   2.213   1.801   2.715
  505SOL    HW1 1532   2.263   1.715   2.721
  505SOL    HW2 1533   2.278   1.878   2.712
  506SOL     OW 1534   2.183   0.943   2.104
  506SOL    HW1 1535   2.265   0.982   2.062
  506SOL    HW2 1536   2.156   0.861   2.055
  507SOL     OW 1537   2.326   1.743   2.185
  507SOL    HW1 1538   2.359   1.782   2.271
  507SOL    HW2 1539   2.402   1.736   2.120
  508SOL     OW 1540   2.244   0.700   2.342
  508SOL    HW1 1541   2.289   0.610   2.339
  508SOL    HW2 1542   2.150   0.689   2.375
  509SOL     OW 1543   2.476   0.122   1.979
  509SOL    HW1 1544   2.574   0.100   1.986
  509SOL    HW2 1545   2.445   0.105   1.886
  510SOL     OW 1546   2.401   0.064   2.374
  510SOL    HW1 1547   2.320   0.065   2.432
  510SOL    HW2 1548   2.404   0.147   2.319
  511SOL     OW 1549   2.159   0.035   2.033
  511SOL    HW1 1550   2.208   0.119   2.012
  511SOL    HW2 1551   2.221  -0.030   2.078
  512SOL     OW 1552   2.321   1.152   2.603
  512SOL    HW1 1553   2.250   1.125   2.668
  512SOL    HW2 1554   2.295   1.124   2.510
  513SOL     OW 1555   2.350   1.385   2.036
  513SOL    HW1 1556   2.263   1.370   2.083
  513SOL    HW2 1557   2.333   1.411   1.941
  514SOL     OW 1558   2.389   0.256   2.190
  514SOL    HW1 1559   2.416   0.197   2.115
  514SOL    HW2 1560   2.389   0.351   2.159
  515SOL     OW 1561   2.229   1.100   2.363
  515SOL    HW1 1562   2.222   1.183   2.307
  515SOL    HW2 1563   2.233   1.020   2.303
  516SOL     OW 1564   2.169   0.063   2.480
  516SOL    HW1 1565   2.158   0.157   2.513
  516SOL    HW2 1566   2.164   0.000   2.557
  517SOL     OW 1567   1.870   1.326   2.062
  517SOL    HW1 1568   1.777   1.347   2.031
  517SOL    HW2 1569   1.880   1.227   2.075
  518SOL     OW 1570   2.677   0.572   2.187
  518SOL    HW1 1571   2.684   0.483   2.141
  518SOL    HW2 1572   2.583   0.606   2.179
  519SOL     OW 1573   2.335   0.500   2.053
  519SOL    HW1 1574   2.396   0.580   2.057
  519SOL    HW2 1575   2.240   0.531   2.060
  520SOL     OW 1576   2.452   1.487   2.353
  520SOL    HW1 1577   2.494   1.429   2.283
  520SOL    HW2 1578   2.408   1.566   2.309
  521SOL     OW 1579   2.117   1.348   2.152
  521SOL    HW1 1580   2.021   1.349   2.125
  521SOL    HW2 1581   2.129   1.401   2.236
  522SOL     OW 1582   1.937   0.345   1.895
  522SOL    HW1 1583   1.845   0.317   1.866
  522SOL    HW2 1584   1.968   0.422   1.839
  523SOL     OW 1585   1.934   0.166   2.180
  523SOL    HW1 1586   1.917   0.249   2.126
  523SOL    HW2 1587   2.024   0.129   2.158
  524SOL     OW 1588   2.456   0.745   2.514
  524SOL    HW1 1589   2.506   0.830   2.495
  524SOL    HW2 1590   2.368   0.747   2.466
  525SOL     OW 1591   1.941   1.240   2.515
  525SOL    HW1 1592   1.940   1.193   2.603
  525SOL    HW2 1593   2.023   1.212   2.464
  526SOL     OW 1594   2.290   0.424   2.382
  526SOL    HW1 1595   2.320   0.352   2.320
  526SOL    HW2 1596   2.251   0.384   2.465
  527SOL     OW 1597   2.674   1.586   2.549
  527SOL    HW1 1598   2.706   1.596   2.455
  527SOL    HW2 1599   2.595   1.524   2.551
  528SOL     OW 1600   1.901   1.077   2.162
  528SOL    HW1 1601   2.000   1.066   2.153
  528SOL    HW2 1602   1.861   0.991   2.194
  529SOL     OW 1603   2.092   2.490   0.113
  529SOL    HW1 1604   1.999   2.488   0.150
  529SOL    HW2 1605   2.093   2.451   0.021
  530SOL     OW 1606   2.087   2.137   0.996
  530SOL    HW1 1607   2.122   2.120   1.088
  530SOL    HW2 1608   1.999   2.092   0.984
  531SOL     OW 1609   1.881   2.230   0.647
  531SOL    HW1 1610   1.799   2.273   0.686
  531SOL    HW2 1611   1.853   2.157   0.584
  532SOL     OW 1612   2.712   2.660   1.823
  532SOL    HW1 1613   2.708   2.736   1.888
  532SOL    HW2 1614   2.734   2.696   1.732
  533SOL     OW 1615   2.300   2.254   1.499
  533SOL    HW1 1616   2.382   2.198   1.508
  533SOL    HW2 1617   2.219   2.196   1.503
  534SOL     OW 1618   1.984   2.505   0.563
  534SOL    HW1 1619   1.939   2.417   0.580
  534SOL    HW2 1620   1.983   2.559   0.647
  535SOL     OW 1621   1.975   2.599   1.597
  535SOL    HW1 1622   2.063   2.586   1.642
  535SOL    HW2 1623   1.962   2.696   1.575
  536SOL     OW 1624   2.671   1.866   0.502
  536SOL    HW1 1625   2.711   1.957   0.493
  536SOL    HW2 1626   2.571   1.874   0.508
  537SOL     OW 1627   2.179   2.113   1.801
  537SOL    HW1 1628   2.250   2.184   1.807
  537SOL    HW2 1629   2.091   2.152   1.829
  538SOL     OW 1630   2.460   2.591   0.270
  538SOL    HW1 1631   2.484   2.660   0.202
  538SOL    HW2 1632   2.382   2.624   0.324
  539SOL     OW 1633   2.412   2.058   0.885
  539SOL    HW1 1634   2.407   2.053   0.985
  539SOL    HW2 1635   2.414   2.154   0.856
  540SOL     OW 1636   2.064   2.147   1.498
  540SOL    HW1 1637   1.984   2.207   1.485
  540SOL    HW2 1638   2.054   2.098   1.584
  541SOL     OW 1639   2.244   2.562   0.480
  541SOL    HW1 1640   2.289   2.472   0.477
  541SOL    HW2 1641   2.150   2.551   0.513
  542SOL     OW 1642   2.476   1.984   0.117
  542SOL    HW1 1643   2.574   1.962   0.124
  542SOL    HW2 1644   2.445   1.967   0.024
  543SOL     OW 1645   2.401   1.926   0.512
  543SOL    HW1 1646   2.320   1.927   0.570
  543SOL    HW2 1647   2.404   2.009   0.457
  544SOL     OW 1648   2.938   2.545   1.464
  544SOL    HW1 1649   2.858   2.484   1.467
  544SOL    HW2 1650   3.019   2.492   1.440
  545SOL     OW 1651   1.940   2.418   1.386
  545SOL    HW1 1652   2.032   2.417   1.345
  545SOL    HW2 1653   1.934   2.492   1.453
  546SOL     OW 1654   2.423   2.084   1.147
  546SOL    HW1 1655   2.461   2.000   1.184
  546SOL    HW2 1656   2.335   2.103   1.191
  547SOL     OW 1657   2.389   2.118   0.328
  547SOL    HW1 1658   2.416   2.059   0.253
  547SOL    HW2 1659   2.389   2.213   0.297
  548SOL     OW 1660   2.428   2.399   0.865
  548SOL    HW1 1661   2.440   2.465   0.791
  548SOL    HW2 1662   2.474   2.433   0.948
  549SOL     OW 1663   2.366   1.912   1.740
  549SOL    HW1 1664   2.324   1.855   1.670
  549SOL    HW2 1665   2.300   1.981   1.772
  550SOL     OW 1666   2.169   2.075   1.231
  550SOL    HW1 1667   2.146   2.112   1.321
  550SOL    HW2 1668   2.139   1.980   1.225
  551SOL     OW 1669   2.169   1.925   0.618
  551SOL    HW1 1670   2.158   2.019   0.651
  551SOL    HW2 1671   2.164   1.862   0.695
  552SOL     OW 1672   2.181   2.672   0.949
  552SOL    HW1 1673   2.274   2.708   0.954
  552SOL    HW2 1674   2.175   2.587   1.001
  553SOL     OW 1675   2.201   2.371   1.006
  553SOL    HW1 1676   2.149   2.288   0.989
  553SOL    HW2 1677   2.278   2.376   0.942
  554SOL     OW 1678   1.902   2.406   1.114
  554SOL    HW1 1679   1.987   2.373   1.073
  554SOL    HW2 1680   1.915   2.421   1.212
  555SOL     OW 1681   2.051   2.382   1.722
  555SOL    HW1 1682   2.110   2.342   1.652
  555SOL    HW2 1683   1.993   2.453   1.681
  556SOL     OW 1684   2.677   2.434   0.325
  556SOL    HW1 1685   2.684   2.345   0.279
  556SOL    HW2 1686   2.583   2.468   0.317
  557SOL     OW 1687   2.335   2.362   0.191
  557SOL    HW1 1688   2.396   2.442   0.195
  557SOL    HW2 1689   2.240   2.393   0.198
  558SOL     OW 1690   2.125   2.188   0.720
  558SOL    HW1 1691   2.046   2.239   0.686
  558SOL    HW2 1692   2.116   2.173   0.818
  559SOL     OW 1693   2.534   2.065   1.489
  559SOL    HW1 1694   2.624   2.049   1.449
  559SOL    HW2 1695   2.542   2.070   1.588
  560SOL     OW 1696   1.937   2.207   0.033
  560SOL    HW1 1697   1.845   2.179   0.004
  560SOL    HW2 1698   1.968   2.284  -0.023
  561SOL     OW 1699   2.578   2.427   1.708
  561SOL    HW1 1700   2.597   2.492   1.782
  561SOL    HW2 1701   2.638   2.347   1.717
  562SOL     OW 1702   2.290   2.286   0.520
  562SOL    HW1 1703   2.320   2.214   0.458
  562SOL    HW2 1704   2.251   2.246   0.603
  563SOL     OW 1705   2.179   2.409   1.280
  563SOL    HW1 1706   2.217   2.350   1.352
  563SOL    HW2 1707   2.219   2.383   1.192
  564SOL     OW 1708   2.092   2.490   1.975
  564SOL    HW1 1709   1.999   2.488   2.012
  564SOL    HW2 1710   2.093   2.451   1.883
  565SOL     OW 1711   2.087   2.137   2.858
  565SOL    HW1 1712   2.122   2.120   2.950
  565SOL    HW2 1713   1.999   2.092   2.846
  566SOL     OW 1714   1.984   2.505   2.425
  566SOL    HW1 1715   1.939   2.417   2.442
  566SOL    HW2 1716   1.983   2.559   2.509
  567SOL     OW 1717   2.671   1.866   2.364
  567SOL    HW1 1718   2.711   1.957   2.355
  567SOL    HW2 1719   2.571   1.874   2.370
  568SOL     OW 1720   2.244   2.562   2.342
  568SOL    HW1 1721   2.289   2.472   2.339
  568SOL    HW2 1722   2.150   2.551   2.375
  569SOL     OW 1723   2.476   1.984   1.979
  569SOL    HW1 1724   2.574   1.962   1.986
  569SOL    HW2 1725   2.445   1.967   1.886
  570SOL     OW 1726   2.401   1.926   2.374
  570SOL    HW1 1727   2.320   1.927   2.432
  570SOL    HW2 1728   2.404   2.009   2.319
  571SOL     OW 1729   2.159   1.897   2.033
  571SOL    HW1 1730   2.208   1.981   2.012
  571SOL    HW2 1731   2.221   1.832   2.078
  572SOL     OW 1732   2.389   2.118   2.190
  572SOL    HW1 1733   2.416   2.059   2.115
  572SOL    HW2 1734   2.389   2.213   2.159
  573SOL     OW 1735   2.169   1.925   2.480
  573SOL    HW1 1736   2.158   2.019   2.513
  573SOL    HW2 1737   2.164   1.862   2.557
  574SOL     OW 1738   2.677   2.434   2.187
  574SOL    HW1 1739   2.684   2.345   2.141
  574SOL    HW2 1740   2.583   2.468   2.179
  575SOL     OW 1741   2.335   2.362   2.053
  575SOL    HW1 1742   2.396   2.442   2.057
  575SOL    HW2 1743   2.240   2.393   2.060
  576SOL     OW 1744   1.937   2.207   1.895
  576SOL    HW1 1745   1.845   2.179   1.866
  576SOL    HW2 1746   1.968   2.284   1.839
  577SOL     OW 1747   1.934   2.028   2.180
  577SOL    HW1 1748   1.917   2.111   2.126
  577SOL    HW2 1749   2.024   1.991   2.158
  578SOL     OW 1750   2.290   2.286   2.382
  578SOL    HW1 1751   2.320   2.214   2.320
  578SOL    HW2 1752   2.251   2.246   2.465
   2.61691   2.61691   2.61691
