mobley_3709920_GMX.gro created by acpype (v: 2023.10.27) on Thu May 14 13:54:45 2026
 3036
    1MOL     C1    1   1.779   1.183   1.849
    1MOL     C2    2   1.810   1.280   1.763
    1MOL     C3    3   1.330   1.920   1.371
    1MOL     C4    4   1.748   1.417   1.765
    1MOL     C5    5   1.403   1.787   1.366
    1MOL     C6    6   1.685   1.456   1.631
    1MOL     C7    7   1.475   1.758   1.498
    1MOL     C8    8   1.614   1.592   1.628
    1MOL     C9    9   1.546   1.622   1.495
    1MOL     H1   10   1.828   1.086   1.843
    1MOL     H2   11   1.704   1.197   1.926
    1MOL     H3   12   1.886   1.261   1.688
    1MOL     H4   13   1.255   1.921   1.450
    1MOL     H5   14   1.279   1.939   1.276
    1MOL     H6   15   1.400   2.002   1.389
    1MOL     H7   16   1.674   1.425   1.845
    1MOL     H8   17   1.827   1.489   1.788
    1MOL     H9   18   1.331   1.707   1.345
    1MOL    H10   19   1.476   1.788   1.284
    1MOL    H11   20   1.763   1.455   1.554
    1MOL    H12   21   1.612   1.379   1.601
    1MOL    H13   22   1.548   1.837   1.518
    1MOL    H14   23   1.402   1.759   1.581
    1MOL    H15   24   1.685   1.672   1.652
    1MOL    H16   25   1.539   1.592   1.708
    1MOL    H17   26   1.619   1.622   1.414
    1MOL    H18   27   1.473   1.543   1.472
    2SOL     OW   28   0.230   0.628   0.113
    2SOL    HW1   29   0.137   0.626   0.150
    2SOL    HW2   30   0.231   0.589   0.021
    3SOL     OW   31   0.225   0.275   0.996
    3SOL    HW1   32   0.260   0.258   1.088
    3SOL    HW2   33   0.137   0.230   0.984
    4SOL     OW   34   0.019   0.368   0.647
    4SOL    HW1   35  -0.063   0.411   0.686
    4SOL    HW2   36  -0.009   0.295   0.584
    5SOL     OW   37   0.569   1.275   1.165
    5SOL    HW1   38   0.476   1.268   1.128
    5SOL    HW2   39   0.580   1.364   1.209
    6SOL     OW   40   1.555   1.511   0.703
    6SOL    HW1   41   1.498   1.495   0.784
    6SOL    HW2   42   1.496   1.521   0.623
    7SOL     OW   43   1.135   0.703   0.717
    7SOL    HW1   44   1.192   0.781   0.692
    7SOL    HW2   45   1.075   0.729   0.793
    8SOL     OW   46   1.755   0.607   0.231
    8SOL    HW1   47   1.743   0.594   0.132
    8SOL    HW2   48   1.725   0.526   0.280
    9SOL     OW   49   0.768   1.144   1.023
    9SOL    HW1   50   0.690   1.161   1.083
    9SOL    HW2   51   0.802   1.231   0.987
   10SOL     OW   52   0.850   0.798   1.823
   10SOL    HW1   53   0.846   0.874   1.888
   10SOL    HW2   54   0.872   0.834   1.732
   11SOL     OW   55   0.685   1.012   0.665
   11SOL    HW1   56   0.754   0.996   0.735
   11SOL    HW2   57   0.612   1.069   0.703
   12SOL     OW   58   0.686   1.161   1.803
   12SOL    HW1   59   0.746   1.240   1.817
   12SOL    HW2   60   0.600   1.192   1.762
   13SOL     OW   61   0.335   1.435   1.061
   13SOL    HW1   62   0.257   1.404   1.008
   13SOL    HW2   63   0.393   1.493   1.004
   14SOL     OW   64   0.438   0.392   1.499
   14SOL    HW1   65   0.520   0.336   1.508
   14SOL    HW2   66   0.357   0.334   1.503
   15SOL     OW   67   1.603   0.447   0.737
   15SOL    HW1   68   1.529   0.493   0.687
   15SOL    HW2   69   1.654   0.515   0.790
   16SOL     OW   70   0.231   1.713   0.483
   16SOL    HW1   71   0.265   1.790   0.537
   16SOL    HW2   72   0.275   1.713   0.393
   17SOL     OW   73   1.127   1.341   1.690
   17SOL    HW1   74   1.174   1.341   1.778
   17SOL    HW2   75   1.079   1.254   1.679
   18SOL     OW   76   0.230   1.434   0.538
   18SOL    HW1   77   0.204   1.530   0.538
   18SOL    HW2   78   0.159   1.380   0.583
   19SOL     OW   79   0.240   1.091   0.886
   19SOL    HW1   80   0.254   1.007   0.938
   19SOL    HW2   81   0.185   1.155   0.941
   20SOL     OW   82   0.620   1.786   1.439
   20SOL    HW1   83   0.528   1.769   1.474
   20SOL    HW2   84   0.648   1.878   1.465
   21SOL     OW   85   0.606   0.964   0.123
   21SOL    HW1   86   0.613   1.048   0.069
   21SOL    HW2   87   0.652   0.977   0.211
   22SOL     OW   88   1.594   0.114   1.480
   22SOL    HW1   89   1.576   0.181   1.408
   22SOL    HW2   90   1.591   0.160   1.569
   23SOL     OW   91   0.122   0.643   0.563
   23SOL    HW1   92   0.077   0.555   0.580
   23SOL    HW2   93   0.121   0.697   0.647
   24SOL     OW   94   1.842   1.767   0.359
   24SOL    HW1   95   1.896   1.738   0.439
   24SOL    HW2   96   1.872   1.857   0.330
   25SOL     OW   97   0.027   1.596   0.117
   25SOL    HW1   98   0.008   1.500   0.138
   25SOL    HW2   99  -0.006   1.654   0.192
   26SOL     OW  100   1.689   0.922   0.612
   26SOL    HW1  101   1.784   0.893   0.620
   26SOL    HW2  102   1.681   0.987   0.537
   27SOL     OW  103   1.641   1.108   0.432
   27SOL    HW1  104   1.727   1.110   0.380
   27SOL    HW2  105   1.655   1.155   0.520
   28SOL     OW  106   0.113   0.737   1.597
   28SOL    HW1  107   0.201   0.724   1.642
   28SOL    HW2  108   0.100   0.834   1.575
   29SOL     OW  109   0.613   1.365   0.726
   29SOL    HW1  110   0.564   1.278   0.735
   29SOL    HW2  111   0.590   1.408   0.639
   30SOL     OW  112   1.293   1.228   1.423
   30SOL    HW1  113   1.330   1.155   1.365
   30SOL    HW2  114   1.345   1.233   1.508
   31SOL     OW  115   0.809   0.004   0.502
   31SOL    HW1  116   0.849   0.095   0.493
   31SOL    HW2  117   0.709   0.012   0.508
   32SOL     OW  118   0.197   0.976   1.264
   32SOL    HW1  119   0.286   0.931   1.250
   32SOL    HW2  120   0.124   0.911   1.245
   33SOL     OW  121   1.525   0.999   0.190
   33SOL    HW1  122   1.462   0.923   0.203
   33SOL    HW2  123   1.573   1.017   0.276
   34SOL     OW  124   0.317   0.251   1.801
   34SOL    HW1  125   0.388   0.322   1.807
   34SOL    HW2  126   0.229   0.290   1.829
   35SOL     OW  127   1.466   1.417   0.953
   35SOL    HW1  128   1.407   1.423   1.033
   35SOL    HW2  129   1.451   1.329   0.907
   36SOL     OW  130   1.667   1.714   0.572
   36SOL    HW1  131   1.626   1.691   0.484
   36SOL    HW2  132   1.649   1.640   0.637
   37SOL     OW  133   0.598   0.729   0.270
   37SOL    HW1  134   0.622   0.798   0.202
   37SOL    HW2  135   0.520   0.762   0.324
   38SOL     OW  136   1.281   0.345   0.944
   38SOL    HW1  137   1.195   0.295   0.931
   38SOL    HW2  138   1.343   0.291   1.000
   39SOL     OW  139   1.576   1.662   0.307
   39SOL    HW1  140   1.665   1.708   0.310
   39SOL    HW2  141   1.555   1.638   0.212
   40SOL     OW  142   0.807   0.605   1.465
   40SOL    HW1  143   0.760   0.602   1.554
   40SOL    HW2  144   0.756   0.550   1.399
   41SOL     OW  145   1.394   0.469   1.674
   41SOL    HW1  146   1.374   0.512   1.762
   41SOL    HW2  147   1.472   0.407   1.683
   42SOL     OW  148   0.973   0.890   1.572
   42SOL    HW1  149   1.019   0.806   1.543
   42SOL    HW2  150   0.917   0.924   1.497
   43SOL     OW  151   0.991   0.410   1.242
   43SOL    HW1  152   0.914   0.444   1.296
   43SOL    HW2  153   0.957   0.359   1.163
   44SOL     OW  154   1.041   0.701   0.429
   44SOL    HW1  155   1.067   0.697   0.525
   44SOL    HW2  156   0.956   0.650   0.415
   45SOL     OW  157   0.076   0.811   0.789
   45SOL    HW1  158   0.175   0.799   0.798
   45SOL    HW2  159   0.052   0.906   0.810
   46SOL     OW  160   0.130   1.821   1.571
   46SOL    HW1  161   0.120   1.806   1.670
   46SOL    HW2  162   0.044   1.857   1.535
   47SOL     OW  163   0.865   0.348   0.195
   47SOL    HW1  164   0.924   0.411   0.146
   47SOL    HW2  165   0.884   0.254   0.166
   48SOL     OW  166   1.719   0.585   1.831
   48SOL    HW1  167   1.693   0.674   1.795
   48SOL    HW2  168   1.717   0.517   1.758
   49SOL     OW  169   1.362   1.144   0.545
   49SOL    HW1  170   1.445   1.115   0.497
   49SOL    HW2  171   1.313   1.211   0.489
   50SOL     OW  172   0.550   0.196   0.885
   50SOL    HW1  173   0.545   0.191   0.985
   50SOL    HW2  174   0.552   0.292   0.856
   51SOL     OW  175   1.008   1.456   0.477
   51SOL    HW1  176   0.962   1.528   0.425
   51SOL    HW2  177   1.004   1.476   0.575
   52SOL     OW  178   0.351   1.801   0.853
   52SOL    HW1  179   0.401   1.715   0.859
   52SOL    HW2  180   0.416   1.878   0.850
   53SOL     OW  181   1.795   1.066   0.873
   53SOL    HW1  182   1.733   1.051   0.797
   53SOL    HW2  183   1.743   1.077   0.958
   54SOL     OW  184   1.227   1.550   1.506
   54SOL    HW1  185   1.233   1.473   1.570
   54SOL    HW2  186   1.175   1.524   1.426
   55SOL     OW  187   0.321   0.943   0.242
   55SOL    HW1  188   0.403   0.982   0.200
   55SOL    HW2  189   0.294   0.861   0.193
   56SOL     OW  190   1.458   0.735   0.728
   56SOL    HW1  191   1.453   0.670   0.803
   56SOL    HW2  192   1.538   0.794   0.741
   57SOL     OW  193   0.461   1.266   1.727
   57SOL    HW1  194   0.411   1.267   1.641
   57SOL    HW2  195   0.398   1.248   1.803
   58SOL     OW  196   1.111   1.776   0.237
   58SOL    HW1  197   1.051   1.714   0.287
   58SOL    HW2  198   1.142   1.732   0.152
   59SOL     OW  199   0.202   0.285   1.498
   59SOL    HW1  200   0.122   0.345   1.485
   59SOL    HW2  201   0.192   0.236   1.584
   60SOL     OW  202   1.632   1.377   0.081
   60SOL    HW1  203   1.600   1.471   0.071
   60SOL    HW2  204   1.556   1.314   0.069
   61SOL     OW  205   0.464   1.743   0.323
   61SOL    HW1  206   0.497   1.782   0.409
   61SOL    HW2  207   0.540   1.736   0.258
   62SOL     OW  208   1.400   0.107   0.426
   62SOL    HW1  209   1.376   0.070   0.336
   62SOL    HW2  210   1.499   0.123   0.430
   63SOL     OW  211   0.249   1.785   1.241
   63SOL    HW1  212   0.306   1.720   1.291
   63SOL    HW2  213   0.233   1.752   1.148
   64SOL     OW  214   0.940   1.698   0.904
   64SOL    HW1  215   1.020   1.641   0.925
   64SOL    HW2  216   0.891   1.658   0.827
   65SOL     OW  217   0.382   0.700   0.480
   65SOL    HW1  218   0.427   0.610   0.477
   65SOL    HW2  219   0.288   0.689   0.513
   66SOL     OW  220   1.547   0.222   1.729
   66SOL    HW1  221   1.542   0.259   1.821
   66SOL    HW2  222   1.475   0.153   1.717
   67SOL     OW  223   0.614   0.122   0.117
   67SOL    HW1  224   0.712   0.100   0.124
   67SOL    HW2  225   0.583   0.105   0.024
   68SOL     OW  226   0.781   0.264   1.749
   68SOL    HW1  227   0.848   0.203   1.792
   68SOL    HW2  228   0.708   0.283   1.814
   69SOL     OW  229   0.888   1.514   1.195
   69SOL    HW1  230   0.865   1.489   1.101
   69SOL    HW2  231   0.949   1.445   1.234
   70SOL     OW  232   1.351   0.590   1.433
   70SOL    HW1  233   1.379   0.547   1.518
   70SOL    HW2  234   1.376   0.686   1.434
   71SOL     OW  235   0.803   1.402   0.924
   71SOL    HW1  236   0.893   1.416   0.882
   71SOL    HW2  237   0.732   1.404   0.853
   72SOL     OW  238   0.922   0.503   0.899
   72SOL    HW1  239   0.897   0.494   0.803
   72SOL    HW2  240   0.970   0.421   0.930
   73SOL     OW  241   0.539   0.064   0.512
   73SOL    HW1  242   0.458   0.065   0.570
   73SOL    HW2  243   0.542   0.147   0.457
   74SOL     OW  244   1.434   1.188   0.041
   74SOL    HW1  245   1.466   1.112   0.098
   74SOL    HW2  246   1.342   1.215   0.071
   75SOL     OW  247   0.297   0.035   0.171
   75SOL    HW1  248   0.346   0.119   0.150
   75SOL    HW2  249   0.359  -0.030   0.216
   76SOL     OW  250   0.935   0.236   0.480
   76SOL    HW1  251   0.887   0.277   0.402
   76SOL    HW2  252   1.034   0.234   0.461
   77SOL     OW  253   1.076   0.683   1.464
   77SOL    HW1  254   0.996   0.622   1.467
   77SOL    HW2  255   1.157   0.630   1.440
   78SOL     OW  256   1.227   1.570   0.793
   78SOL    HW1  257   1.248   1.644   0.728
   78SOL    HW2  258   1.295   1.570   0.866
   79SOL     OW  259   0.459   1.152   0.741
   79SOL    HW1  260   0.388   1.125   0.806
   79SOL    HW2  261   0.433   1.124   0.648
   80SOL     OW  262   1.271   1.797   0.591
   80SOL    HW1  263   1.315   1.861   0.527
   80SOL    HW2  264   1.221   1.849   0.661
   81SOL     OW  265   1.032   0.549   0.016
   81SOL    HW1  266   0.991   0.631  -0.023
   81SOL    HW2  267   1.096   0.575   0.089
   82SOL     OW  268   0.078   0.556   1.386
   82SOL    HW1  269   0.170   0.555   1.345
   82SOL    HW2  270   0.072   0.630   1.453
   83SOL     OW  271   0.561   0.222   1.147
   83SOL    HW1  272   0.599   0.138   1.184
   83SOL    HW2  273   0.473   0.241   1.191
   84SOL     OW  274   0.866   0.454   0.642
   84SOL    HW1  275   0.834   0.526   0.580
   84SOL    HW2  276   0.890   0.373   0.589
   85SOL     OW  277   1.017   0.039   0.753
   85SOL    HW1  278   0.945   0.044   0.684
   85SOL    HW2  279   0.993  -0.030   0.822
   86SOL     OW  280   1.429   1.173   0.867
   86SOL    HW1  281   1.374   1.089   0.860
   86SOL    HW2  282   1.455   1.202   0.775
   87SOL     OW  283   1.466   0.590   0.992
   87SOL    HW1  284   1.436   0.495   0.999
   87SOL    HW2  285   1.539   0.606   1.058
   88SOL     OW  286   1.857   0.833   0.377
   88SOL    HW1  287   1.899   0.769   0.441
   88SOL    HW2  288   1.819   0.782   0.299
   89SOL     OW  289   0.488   1.385   0.174
   89SOL    HW1  290   0.401   1.370   0.221
   89SOL    HW2  291   0.471   1.411   0.079
   90SOL     OW  292   1.664   1.280   0.657
   90SOL    HW1  293   1.763   1.288   0.671
   90SOL    HW2  294   1.619   1.364   0.688
   91SOL     OW  295   1.390   0.575   0.078
   91SOL    HW1  296   1.336   0.554   0.159
   91SOL    HW2  297   1.481   0.534   0.087
   92SOL     OW  298   0.527   0.256   0.328
   92SOL    HW1  299   0.554   0.197   0.253
   92SOL    HW2  300   0.527   0.351   0.297
   93SOL     OW  301   1.064   1.347   1.340
   93SOL    HW1  302   0.984   1.324   1.395
   93SOL    HW2  303   1.147   1.321   1.389
   94SOL     OW  304   1.111   1.195   1.100
   94SOL    HW1  305   1.071   1.239   1.181
   94SOL    HW2  306   1.070   1.232   1.017
   95SOL     OW  307   1.638   1.099   1.079
   95SOL    HW1  308   1.643   1.180   1.138
   95SOL    HW2  309   1.552   1.101   1.028
   96SOL     OW  310   0.915   0.089   1.402
   96SOL    HW1  311   0.940   0.069   1.307
   96SOL    HW2  312   0.987   0.145   1.444
   97SOL     OW  313   0.980   1.116   1.719
   97SOL    HW1  314   0.881   1.122   1.729
   97SOL    HW2  315   1.003   1.036   1.663
   98SOL     OW  316   0.705   1.050   0.368
   98SOL    HW1  317   0.691   1.057   0.467
   98SOL    HW2  318   0.789   0.999   0.350
   99SOL     OW  319   0.410   0.813   1.251
   99SOL    HW1  320   0.496   0.825   1.301
   99SOL    HW2  321   0.368   0.726   1.278
  100SOL     OW  322   1.274   0.386   1.262
  100SOL    HW1  323   1.295   0.460   1.326
  100SOL    HW2  324   1.185   0.403   1.219
  101SOL     OW  325   0.064   1.564   1.331
  101SOL    HW1  326   0.018   1.646   1.297
  101SOL    HW2  327   0.162   1.583   1.340
  102SOL     OW  328   0.367   1.100   0.501
  102SOL    HW1  329   0.360   1.183   0.445
  102SOL    HW2  330   0.371   1.020   0.441
  103SOL     OW  331   0.566   0.537   0.865
  103SOL    HW1  332   0.578   0.603   0.791
  103SOL    HW2  333   0.612   0.571   0.948
  104SOL     OW  334   1.252   1.348   0.388
  104SOL    HW1  335   1.302   1.425   0.428
  104SOL    HW2  336   1.157   1.350   0.420
  105SOL     OW  337   1.272   1.445   1.142
  105SOL    HW1  338   1.319   1.458   1.229
  105SOL    HW2  339   1.206   1.371   1.151
  106SOL     OW  340   1.582   0.639   0.472
  106SOL    HW1  341   1.551   0.700   0.545
  106SOL    HW2  342   1.632   0.691   0.403
  107SOL     OW  343   0.354   1.510   1.329
  107SOL    HW1  344   0.333   1.466   1.242
  107SOL    HW2  345   0.451   1.536   1.332
  108SOL     OW  346   0.402   0.751   1.598
  108SOL    HW1  347   0.470   0.806   1.551
  108SOL    HW2  348   0.442   0.663   1.625
  109SOL     OW  349   1.587   0.779   1.670
  109SOL    HW1  350   1.495   0.817   1.665
  109SOL    HW2  351   1.647   0.826   1.605
  110SOL     OW  352   1.013   0.105   1.770
  110SOL    HW1  353   1.019   0.190   1.718
  110SOL    HW2  354   1.045   0.029   1.713
  111SOL     OW  355   0.504   0.050   1.740
  111SOL    HW1  356   0.462  -0.007   1.670
  111SOL    HW2  357   0.438   0.119   1.772
  112SOL     OW  358   0.573   0.870   1.029
  112SOL    HW1  359   0.617   0.959   1.020
  112SOL    HW2  360   0.510   0.870   1.106
  113SOL     OW  361   1.360   0.862   1.045
  113SOL    HW1  362   1.285   0.862   0.979
  113SOL    HW2  363   1.397   0.770   1.054
  114SOL     OW  364   1.209   0.525   0.275
  114SOL    HW1  365   1.222   0.441   0.329
  114SOL    HW2  366   1.180   0.599   0.335
  115SOL     OW  367   0.307   0.213   1.231
  115SOL    HW1  368   0.284   0.250   1.321
  115SOL    HW2  369   0.277   0.118   1.225
  116SOL     OW  370   0.037   1.310   1.282
  116SOL    HW1  371   0.090   1.261   1.350
  116SOL    HW2  372   0.059   1.408   1.287
  117SOL     OW  373   0.732   0.634   1.064
  117SOL    HW1  374   0.791   0.608   0.988
  117SOL    HW2  375   0.704   0.730   1.053
  118SOL     OW  376   1.728   0.935   1.854
  118SOL    HW1  377   1.682   0.928   1.765
  118SOL    HW2  378   1.666   0.979   1.920
  119SOL     OW  379   0.307   0.063   0.618
  119SOL    HW1  380   0.296   0.157   0.651
  119SOL    HW2  381   0.302   0.000   0.695
  120SOL     OW  382   1.622   0.367   0.374
  120SOL    HW1  383   1.624   0.291   0.438
  120SOL    HW2  384   1.574   0.444   0.414
  121SOL     OW  385   1.023   0.766   0.966
  121SOL    HW1  386   1.038   0.787   1.062
  121SOL    HW2  387   0.993   0.671   0.957
  122SOL     OW  388   0.980   1.573   1.700
  122SOL    HW1  389   0.960   1.617   1.612
  122SOL    HW2  390   1.019   1.482   1.684
  123SOL     OW  391   0.350   0.898   1.804
  123SOL    HW1  392   0.426   0.942   1.852
  123SOL    HW2  393   0.385   0.851   1.722
  124SOL     OW  394   1.540   0.274   0.125
  124SOL    HW1  395   1.479   0.199   0.148
  124SOL    HW2  396   1.562   0.326   0.208
  125SOL     OW  397   1.303   0.838   0.042
  125SOL    HW1  398   1.337   0.745   0.057
  125SOL    HW2  399   1.321   0.865  -0.053
  126SOL     OW  400   1.068   1.333   0.849
  126SOL    HW1  401   1.075   1.249   0.794
  126SOL    HW2  402   1.130   1.402   0.813
  127SOL     OW  403   0.319   0.810   0.949
  127SOL    HW1  404   0.412   0.846   0.954
  127SOL    HW2  405   0.313   0.725   1.001
  128SOL     OW  406   0.339   0.509   1.006
  128SOL    HW1  407   0.287   0.426   0.989
  128SOL    HW2  408   0.416   0.514   0.942
  129SOL     OW  409   1.138   0.380   1.678
  129SOL    HW1  410   1.093   0.443   1.742
  129SOL    HW2  411   1.231   0.411   1.661
  130SOL     OW  412   1.160   0.207   1.477
  130SOL    HW1  413   1.160   0.271   1.554
  130SOL    HW2  414   1.188   0.255   1.394
  131SOL     OW  415   0.008   1.326   0.200
  131SOL    HW1  416  -0.085   1.347   0.169
  131SOL    HW2  417   0.018   1.227   0.213
  132SOL     OW  418   0.088   1.801   0.927
  132SOL    HW1  419   0.046   1.715   0.900
  132SOL    HW2  420   0.182   1.804   0.893
  133SOL     OW  421   0.504   1.568   0.910
  133SOL    HW1  422   0.570   1.642   0.919
  133SOL    HW2  423   0.548   1.489   0.868
  134SOL     OW  424   1.002   0.796   1.238
  134SOL    HW1  425   1.043   0.764   1.324
  134SOL    HW2  426   0.906   0.769   1.235
  135SOL     OW  427   0.040   0.544   1.114
  135SOL    HW1  428   0.125   0.511   1.073
  135SOL    HW2  429   0.053   0.559   1.212
  136SOL     OW  430   0.189   0.520   1.722
  136SOL    HW1  431   0.248   0.480   1.652
  136SOL    HW2  432   0.131   0.591   1.681
  137SOL     OW  433   1.369   0.950   1.660
  137SOL    HW1  434   1.408   1.039   1.680
  137SOL    HW2  435   1.379   0.930   1.563
  138SOL     OW  436   0.815   0.572   0.325
  138SOL    HW1  437   0.822   0.483   0.279
  138SOL    HW2  438   0.721   0.606   0.317
  139SOL     OW  439   1.657   0.604   1.206
  139SOL    HW1  440   1.619   0.535   1.268
  139SOL    HW2  441   1.739   0.568   1.162
  140SOL     OW  442   0.252   1.564   1.744
  140SOL    HW1  443   0.222   1.621   1.820
  140SOL    HW2  444   0.245   1.467   1.770
  141SOL     OW  445   0.671   0.464   1.269
  141SOL    HW1  446   0.637   0.375   1.239
  141SOL    HW2  447   0.697   0.518   1.189
  142SOL     OW  448   0.930   1.678   1.465
  142SOL    HW1  449   0.906   1.660   1.370
  142SOL    HW2  450   0.960   1.772   1.475
  143SOL     OW  451   0.473   0.500   0.191
  143SOL    HW1  452   0.534   0.580   0.195
  143SOL    HW2  453   0.378   0.531   0.198
  144SOL     OW  454   0.159   1.137   1.466
  144SOL    HW1  455   0.181   1.076   1.542
  144SOL    HW2  456   0.169   1.088   1.380
  145SOL     OW  457   1.347   1.059   1.234
  145SOL    HW1  458   1.371   0.996   1.160
  145SOL    HW2  459   1.257   1.099   1.216
  146SOL     OW  460   1.302   0.855   0.309
  146SOL    HW1  461   1.216   0.824   0.351
  146SOL    HW2  462   1.298   0.841   0.210
  147SOL     OW  463   1.759   1.747   1.154
  147SOL    HW1  464   1.820   1.777   1.081
  147SOL    HW2  465   1.721   1.658   1.132
  148SOL     OW  466   1.252   1.731   1.128
  148SOL    HW1  467   1.336   1.736   1.074
  148SOL    HW2  468   1.229   1.635   1.146
  149SOL     OW  469   0.083   1.258   1.022
  149SOL    HW1  470   0.078   1.257   1.122
  149SOL    HW2  471   0.000   1.217   0.984
  150SOL     OW  472   0.688   1.662   1.716
  150SOL    HW1  473   0.632   1.743   1.725
  150SOL    HW2  474   0.740   1.666   1.630
  151SOL     OW  475   0.903   0.086   0.133
  151SOL    HW1  476   0.954   0.087   0.047
  151SOL    HW2  477   0.959   0.044   0.204
  152SOL     OW  478   1.726   0.135   0.523
  152SOL    HW1  479   1.799   0.118   0.456
  152SOL    HW2  480   1.695   0.048   0.561
  153SOL     OW  481   1.388   1.573   0.477
  153SOL    HW1  482   1.455   1.585   0.403
  153SOL    HW2  483   1.348   1.662   0.500
  154SOL     OW  484   0.130   1.794   1.851
  154SOL    HW1  485   0.089   1.720   1.904
  154SOL    HW2  486   0.194   1.845   1.909
  155SOL     OW  487   1.280   0.927   0.672
  155SOL    HW1  488   1.340   0.846   0.674
  155SOL    HW2  489   1.320   0.996   0.612
  156SOL     OW  490   0.830   1.273   1.422
  156SOL    HW1  491   0.825   1.306   1.517
  156SOL    HW2  492   0.744   1.292   1.376
  157SOL     OW  493   0.672   1.616   0.154
  157SOL    HW1  494   0.681   1.626   0.055
  157SOL    HW2  495   0.632   1.527   0.175
  158SOL     OW  496   1.841   0.175   0.963
  158SOL    HW1  497   1.880   0.090   0.927
  158SOL    HW2  498   1.743   0.177   0.944
  159SOL     OW  499   0.263   0.326   0.720
  159SOL    HW1  500   0.184   0.377   0.686
  159SOL    HW2  501   0.254   0.311   0.818
  160SOL     OW  502   1.194   1.612   0.031
  160SOL    HW1  503   1.200   1.519   0.068
  160SOL    HW2  504   1.135   1.612  -0.049
  161SOL     OW  505   0.822   1.002   1.372
  161SOL    HW1  506   0.862   1.001   1.280
  161SOL    HW2  507   0.832   1.094   1.412
  162SOL     OW  508   0.916   0.910   0.291
  162SOL    HW1  509   0.979   0.948   0.223
  162SOL    HW2  510   0.956   0.827   0.330
  163SOL     OW  511   1.504   1.607   0.044
  163SOL    HW1  512   1.412   1.644   0.051
  163SOL    HW2  513   1.542   1.627  -0.046
  164SOL     OW  514   0.372   1.288   1.490
  164SOL    HW1  515   0.359   1.381   1.456
  164SOL    HW2  516   0.288   1.236   1.477
  165SOL     OW  517   1.614   1.292   1.289
  165SOL    HW1  518   1.674   1.295   1.369
  165SOL    HW2  519   1.539   1.356   1.302
  166SOL     OW  520   1.039   1.098   0.696
  166SOL    HW1  521   0.969   1.051   0.750
  166SOL    HW2  522   1.098   1.030   0.653
  167SOL     OW  523   1.014   0.236   0.971
  167SOL    HW1  524   1.006   0.200   0.878
  167SOL    HW2  525   1.012   0.160   1.036
  168SOL     OW  526   0.590   1.487   0.491
  168SOL    HW1  527   0.632   1.429   0.421
  168SOL    HW2  528   0.546   1.566   0.447
  169SOL     OW  529   1.709   0.385   1.381
  169SOL    HW1  530   1.782   0.454   1.385
  169SOL    HW2  531   1.737   0.310   1.322
  170SOL     OW  532   0.255   1.348   0.290
  170SOL    HW1  533   0.159   1.349   0.263
  170SOL    HW2  534   0.267   1.401   0.374
  171SOL     OW  535   0.105   1.013   1.726
  171SOL    HW1  536   0.028   0.980   1.780
  171SOL    HW2  537   0.190   0.983   1.768
  172SOL     OW  538   0.672   0.203   1.489
  172SOL    HW1  539   0.762   0.187   1.449
  172SOL    HW2  540   0.680   0.208   1.588
  173SOL     OW  541   0.075   0.345   0.033
  173SOL    HW1  542  -0.017   0.317   0.004
  173SOL    HW2  543   0.106   0.422  -0.023
  174SOL     OW  544   1.440   0.856   1.398
  174SOL    HW1  545   1.383   0.908   1.335
  174SOL    HW2  546   1.536   0.868   1.374
  175SOL     OW  547   0.072   0.166   0.318
  175SOL    HW1  548   0.055   0.249   0.264
  175SOL    HW2  549   0.162   0.129   0.296
  176SOL     OW  550   1.183   1.335   0.119
  176SOL    HW1  551   1.084   1.324   0.121
  176SOL    HW2  552   1.217   1.350   0.212
  177SOL     OW  553   0.613   0.842   1.431
  177SOL    HW1  554   0.669   0.923   1.414
  177SOL    HW2  555   0.672   0.762   1.434
  178SOL     OW  556   1.493   1.767   0.959
  178SOL    HW1  557   1.526   1.831   0.890
  178SOL    HW2  558   1.559   1.761   1.034
  179SOL     OW  559   0.716   0.565   1.708
  179SOL    HW1  560   0.735   0.630   1.782
  179SOL    HW2  561   0.776   0.485   1.717
  180SOL     OW  562   1.450   1.220   1.633
  180SOL    HW1  563   1.441   1.210   1.732
  180SOL    HW2  564   1.546   1.213   1.607
  181SOL     OW  565   0.390   1.741   1.560
  181SOL    HW1  566   0.299   1.782   1.558
  181SOL    HW2  567   0.383   1.647   1.592
  182SOL     OW  568   1.674   0.883   1.254
  182SOL    HW1  569   1.647   0.794   1.217
  182SOL    HW2  570   1.675   0.951   1.181
  183SOL     OW  571   1.225   0.325   0.449
  183SOL    HW1  572   1.290   0.251   0.438
  183SOL    HW2  573   1.245   0.375   0.533
  184SOL     OW  574   0.594   0.745   0.652
  184SOL    HW1  575   0.644   0.830   0.633
  184SOL    HW2  576   0.506   0.747   0.604
  185SOL     OW  577   1.777   0.342   1.642
  185SOL    HW1  578   1.760   0.373   1.548
  185SOL    HW2  579   1.693   0.305   1.680
  186SOL     OW  580   1.730   0.934   1.517
  186SOL    HW1  581   1.768   1.025   1.532
  186SOL    HW2  582   1.722   0.917   1.418
  187SOL     OW  583   0.859   1.374   0.016
  187SOL    HW1  584   0.813   1.389   0.104
  187SOL    HW2  585   0.903   1.459  -0.014
  188SOL     OW  586   0.661   1.790   0.953
  188SOL    HW1  587   0.615   1.878   0.940
  188SOL    HW2  588   0.760   1.802   0.946
  189SOL     OW  589   0.859   0.956   0.861
  189SOL    HW1  590   0.913   0.887   0.909
  189SOL    HW2  591   0.827   1.025   0.927
  190SOL     OW  592   1.083   0.984   0.087
  190SOL    HW1  593   1.060   1.037   0.005
  190SOL    HW2  594   1.164   0.928   0.068
  191SOL     OW  595   1.861   1.569   0.851
  191SOL    HW1  596   1.790   1.557   0.781
  191SOL    HW2  597   1.862   1.490   0.911
  192SOL     OW  598   0.221   1.314   1.844
  192SOL    HW1  599   0.156   1.241   1.823
  192SOL    HW2  600   0.225   1.328   1.942
  193SOL     OW  601   0.079   1.240   0.653
  193SOL    HW1  602   0.078   1.193   0.741
  193SOL    HW2  603   0.161   1.212   0.602
  194SOL     OW  604   0.672   1.391   1.624
  194SOL    HW1  605   0.594   1.341   1.662
  194SOL    HW2  606   0.669   1.486   1.655
  195SOL     OW  607   1.824   0.192   1.227
  195SOL    HW1  608   1.820   0.102   1.271
  195SOL    HW2  609   1.827   0.181   1.128
  196SOL     OW  610   0.428   0.424   0.520
  196SOL    HW1  611   0.458   0.352   0.458
  196SOL    HW2  612   0.389   0.384   0.603
  197SOL     OW  613   1.705   1.487   1.104
  197SOL    HW1  614   1.612   1.462   1.077
  197SOL    HW2  615   1.731   1.437   1.186
  198SOL     OW  616   0.317   0.547   1.280
  198SOL    HW1  617   0.355   0.488   1.352
  198SOL    HW2  618   0.357   0.521   1.192
  199SOL     OW  619   0.812   1.586   0.687
  199SOL    HW1  620   0.844   1.596   0.593
  199SOL    HW2  621   0.733   1.524   0.689
  200SOL     OW  622   1.424   0.214   1.112
  200SOL    HW1  623   1.476   0.149   1.167
  200SOL    HW2  624   1.375   0.277   1.173
  201SOL     OW  625   1.001   0.034   1.154
  201SOL    HW1  626   0.938  -0.038   1.123
  201SOL    HW2  627   1.094  -0.002   1.154
  202SOL     OW  628   0.770   1.330   0.301
  202SOL    HW1  629   0.724   1.243   0.318
  202SOL    HW2  630   0.861   1.327   0.342
  203SOL     OW  631   0.618   1.567   1.284
  203SOL    HW1  632   0.613   1.649   1.341
  203SOL    HW2  633   0.707   1.564   1.239
  204SOL     OW  634   1.352   0.052   0.168
  204SOL    HW1  635   1.387   0.011   0.084
  204SOL    HW2  636   1.262   0.014   0.188
  205SOL     OW  637   1.300   0.453   0.691
  205SOL    HW1  638   1.241   0.533   0.695
  205SOL    HW2  639   1.315   0.418   0.784
  206SOL     OW  640   1.593   0.221   0.882
  206SOL    HW1  641   1.509   0.220   0.936
  206SOL    HW2  642   1.595   0.304   0.826
  207SOL     OW  643   0.039   1.077   0.300
  207SOL    HW1  644   0.138   1.066   0.291
  207SOL    HW2  645  -0.001   0.991   0.332
  208SOL     OW  646   0.875   1.646   0.337
  208SOL    HW1  647   0.798   1.611   0.283
  208SOL    HW2  648   0.843   1.717   0.399
  209SOL     OW  649   0.230   0.628   1.975
  209SOL    HW1  650   0.137   0.626   2.012
  209SOL    HW2  651   0.231   0.589   1.883
  210SOL     OW  652   0.225   0.275   2.858
  210SOL    HW1  653   0.260   0.258   2.950
  210SOL    HW2  654   0.137   0.230   2.846
  211SOL     OW  655   0.019   0.368   2.509
  211SOL    HW1  656  -0.063   0.411   2.548
  211SOL    HW2  657  -0.009   0.295   2.446
  212SOL     OW  658   0.569   1.275   3.027
  212SOL    HW1  659   0.476   1.268   2.990
  212SOL    HW2  660   0.580   1.364   3.071
  213SOL     OW  661   1.555   1.511   2.565
  213SOL    HW1  662   1.498   1.495   2.646
  213SOL    HW2  663   1.496   1.521   2.485
  214SOL     OW  664   1.135   0.703   2.579
  214SOL    HW1  665   1.192   0.781   2.554
  214SOL    HW2  666   1.075   0.729   2.655
  215SOL     OW  667   1.755   0.607   2.093
  215SOL    HW1  668   1.743   0.594   1.994
  215SOL    HW2  669   1.725   0.526   2.142
  216SOL     OW  670   0.768   1.144   2.885
  216SOL    HW1  671   0.690   1.161   2.945
  216SOL    HW2  672   0.802   1.231   2.849
  217SOL     OW  673   0.685   1.012   2.527
  217SOL    HW1  674   0.754   0.996   2.597
  217SOL    HW2  675   0.612   1.069   2.565
  218SOL     OW  676   0.335   1.435   2.923
  218SOL    HW1  677   0.257   1.404   2.870
  218SOL    HW2  678   0.393   1.493   2.866
  219SOL     OW  679   1.603   0.447   2.599
  219SOL    HW1  680   1.529   0.493   2.549
  219SOL    HW2  681   1.654   0.515   2.652
  220SOL     OW  682   0.231   1.713   2.345
  220SOL    HW1  683   0.265   1.790   2.399
  220SOL    HW2  684   0.275   1.713   2.255
  221SOL     OW  685   0.230   1.434   2.400
  221SOL    HW1  686   0.204   1.530   2.400
  221SOL    HW2  687   0.159   1.380   2.445
  222SOL     OW  688   0.240   1.091   2.748
  222SOL    HW1  689   0.254   1.007   2.800
  222SOL    HW2  690   0.185   1.155   2.803
  223SOL     OW  691   0.606   0.964   1.985
  223SOL    HW1  692   0.613   1.048   1.931
  223SOL    HW2  693   0.652   0.977   2.073
  224SOL     OW  694   0.122   0.643   2.425
  224SOL    HW1  695   0.077   0.555   2.442
  224SOL    HW2  696   0.121   0.697   2.509
  225SOL     OW  697   1.842   1.767   2.221
  225SOL    HW1  698   1.896   1.738   2.301
  225SOL    HW2  699   1.872   1.857   2.192
  226SOL     OW  700   0.027   1.596   1.979
  226SOL    HW1  701   0.008   1.500   2.000
  226SOL    HW2  702  -0.006   1.654   2.054
  227SOL     OW  703   1.689   0.922   2.474
  227SOL    HW1  704   1.784   0.893   2.482
  227SOL    HW2  705   1.681   0.987   2.399
  228SOL     OW  706   1.641   1.108   2.294
  228SOL    HW1  707   1.727   1.110   2.242
  228SOL    HW2  708   1.655   1.155   2.382
  229SOL     OW  709   0.613   1.365   2.588
  229SOL    HW1  710   0.564   1.278   2.597
  229SOL    HW2  711   0.590   1.408   2.501
  230SOL     OW  712   0.809   0.004   2.364
  230SOL    HW1  713   0.849   0.095   2.355
  230SOL    HW2  714   0.709   0.012   2.370
  231SOL     OW  715   0.197   0.976   3.126
  231SOL    HW1  716   0.286   0.931   3.112
  231SOL    HW2  717   0.124   0.911   3.107
  232SOL     OW  718   1.525   0.999   2.052
  232SOL    HW1  719   1.462   0.923   2.065
  232SOL    HW2  720   1.573   1.017   2.138
  233SOL     OW  721   1.466   1.417   2.815
  233SOL    HW1  722   1.407   1.423   2.895
  233SOL    HW2  723   1.451   1.329   2.769
  234SOL     OW  724   1.667   1.714   2.434
  234SOL    HW1  725   1.626   1.691   2.346
  234SOL    HW2  726   1.649   1.640   2.499
  235SOL     OW  727   0.598   0.729   2.132
  235SOL    HW1  728   0.622   0.798   2.064
  235SOL    HW2  729   0.520   0.762   2.186
  236SOL     OW  730   1.281   0.345   2.806
  236SOL    HW1  731   1.195   0.295   2.793
  236SOL    HW2  732   1.343   0.291   2.862
  237SOL     OW  733   1.576   1.662   2.169
  237SOL    HW1  734   1.665   1.708   2.172
  237SOL    HW2  735   1.555   1.638   2.074
  238SOL     OW  736   1.041   0.701   2.291
  238SOL    HW1  737   1.067   0.697   2.387
  238SOL    HW2  738   0.956   0.650   2.277
  239SOL     OW  739   0.076   0.811   2.651
  239SOL    HW1  740   0.175   0.799   2.660
  239SOL    HW2  741   0.052   0.906   2.672
  240SOL     OW  742   0.130   1.821   3.433
  240SOL    HW1  743   0.120   1.806   3.532
  240SOL    HW2  744   0.044   1.857   3.397
  241SOL     OW  745   0.865   0.348   2.057
  241SOL    HW1  746   0.924   0.411   2.008
  241SOL    HW2  747   0.884   0.254   2.028
  242SOL     OW  748   1.362   1.144   2.407
  242SOL    HW1  749   1.445   1.115   2.359
  242SOL    HW2  750   1.313   1.211   2.351
  243SOL     OW  751   0.550   0.196   2.747
  243SOL    HW1  752   0.545   0.191   2.847
  243SOL    HW2  753   0.552   0.292   2.718
  244SOL     OW  754   1.008   1.456   2.339
  244SOL    HW1  755   0.962   1.528   2.287
  244SOL    HW2  756   1.004   1.476   2.437
  245SOL     OW  757   0.351   1.801   2.715
  245SOL    HW1  758   0.401   1.715   2.721
  245SOL    HW2  759   0.416   1.878   2.712
  246SOL     OW  760   1.795   1.066   2.735
  246SOL    HW1  761   1.733   1.051   2.659
  246SOL    HW2  762   1.743   1.077   2.820
  247SOL     OW  763   0.321   0.943   2.104
  247SOL    HW1  764   0.403   0.982   2.062
  247SOL    HW2  765   0.294   0.861   2.055
  248SOL     OW  766   1.458   0.735   2.590
  248SOL    HW1  767   1.453   0.670   2.665
  248SOL    HW2  768   1.538   0.794   2.603
  249SOL     OW  769   1.111   1.776   2.099
  249SOL    HW1  770   1.051   1.714   2.149
  249SOL    HW2  771   1.142   1.732   2.014
  250SOL     OW  772   0.464   1.743   2.185
  250SOL    HW1  773   0.497   1.782   2.271
  250SOL    HW2  774   0.540   1.736   2.120
  251SOL     OW  775   1.400   0.107   2.288
  251SOL    HW1  776   1.376   0.070   2.198
  251SOL    HW2  777   1.499   0.123   2.292
  252SOL     OW  778   0.249   1.785   3.103
  252SOL    HW1  779   0.306   1.720   3.153
  252SOL    HW2  780   0.233   1.752   3.010
  253SOL     OW  781   0.940   1.698   2.766
  253SOL    HW1  782   1.020   1.641   2.787
  253SOL    HW2  783   0.891   1.658   2.689
  254SOL     OW  784   0.382   0.700   2.342
  254SOL    HW1  785   0.427   0.610   2.339
  254SOL    HW2  786   0.288   0.689   2.375
  255SOL     OW  787   0.614   0.122   1.979
  255SOL    HW1  788   0.712   0.100   1.986
  255SOL    HW2  789   0.583   0.105   1.886
  256SOL     OW  790   0.803   1.402   2.786
  256SOL    HW1  791   0.893   1.416   2.744
  256SOL    HW2  792   0.732   1.404   2.715
  257SOL     OW  793   0.922   0.503   2.761
  257SOL    HW1  794   0.897   0.494   2.665
  257SOL    HW2  795   0.970   0.421   2.792
  258SOL     OW  796   0.539   0.064   2.374
  258SOL    HW1  797   0.458   0.065   2.432
  258SOL    HW2  798   0.542   0.147   2.319
  259SOL     OW  799   1.434   1.188   1.903
  259SOL    HW1  800   1.466   1.112   1.960
  259SOL    HW2  801   1.342   1.215   1.933
  260SOL     OW  802   0.297   0.035   2.033
  260SOL    HW1  803   0.346   0.119   2.012
  260SOL    HW2  804   0.359  -0.030   2.078
  261SOL     OW  805   0.935   0.236   2.342
  261SOL    HW1  806   0.887   0.277   2.264
  261SOL    HW2  807   1.034   0.234   2.323
  262SOL     OW  808   1.227   1.570   2.655
  262SOL    HW1  809   1.248   1.644   2.590
  262SOL    HW2  810   1.295   1.570   2.728
  263SOL     OW  811   0.459   1.152   2.603
  263SOL    HW1  812   0.388   1.125   2.668
  263SOL    HW2  813   0.433   1.124   2.510
  264SOL     OW  814   1.271   1.797   2.453
  264SOL    HW1  815   1.315   1.861   2.389
  264SOL    HW2  816   1.221   1.849   2.523
  265SOL     OW  817   1.032   0.549   1.878
  265SOL    HW1  818   0.991   0.631   1.839
  265SOL    HW2  819   1.096   0.575   1.951
  266SOL     OW  820   0.561   0.222   3.009
  266SOL    HW1  821   0.599   0.138   3.046
  266SOL    HW2  822   0.473   0.241   3.053
  267SOL     OW  823   0.866   0.454   2.504
  267SOL    HW1  824   0.834   0.526   2.442
  267SOL    HW2  825   0.890   0.373   2.451
  268SOL     OW  826   1.017   0.039   2.615
  268SOL    HW1  827   0.945   0.044   2.546
  268SOL    HW2  828   0.993  -0.030   2.684
  269SOL     OW  829   1.429   1.173   2.729
  269SOL    HW1  830   1.374   1.089   2.722
  269SOL    HW2  831   1.455   1.202   2.637
  270SOL     OW  832   1.466   0.590   2.854
  270SOL    HW1  833   1.436   0.495   2.861
  270SOL    HW2  834   1.539   0.606   2.920
  271SOL     OW  835   1.857   0.833   2.239
  271SOL    HW1  836   1.899   0.769   2.303
  271SOL    HW2  837   1.819   0.782   2.161
  272SOL     OW  838   0.488   1.385   2.036
  272SOL    HW1  839   0.401   1.370   2.083
  272SOL    HW2  840   0.471   1.411   1.941
  273SOL     OW  841   1.664   1.280   2.519
  273SOL    HW1  842   1.763   1.288   2.533
  273SOL    HW2  843   1.619   1.364   2.550
  274SOL     OW  844   1.390   0.575   1.940
  274SOL    HW1  845   1.336   0.554   2.021
  274SOL    HW2  846   1.481   0.534   1.949
  275SOL     OW  847   0.527   0.256   2.190
  275SOL    HW1  848   0.554   0.197   2.115
  275SOL    HW2  849   0.527   0.351   2.159
  276SOL     OW  850   1.111   1.195   2.962
  276SOL    HW1  851   1.071   1.239   3.043
  276SOL    HW2  852   1.070   1.232   2.879
  277SOL     OW  853   1.638   1.099   2.941
  277SOL    HW1  854   1.643   1.180   3.000
  277SOL    HW2  855   1.552   1.101   2.890
  278SOL     OW  856   0.705   1.050   2.230
  278SOL    HW1  857   0.691   1.057   2.329
  278SOL    HW2  858   0.789   0.999   2.212
  279SOL     OW  859   0.410   0.813   3.113
  279SOL    HW1  860   0.496   0.825   3.163
  279SOL    HW2  861   0.368   0.726   3.140
  280SOL     OW  862   1.274   0.386   3.124
  280SOL    HW1  863   1.295   0.460   3.188
  280SOL    HW2  864   1.185   0.403   3.081
  281SOL     OW  865   0.367   1.100   2.363
  281SOL    HW1  866   0.360   1.183   2.307
  281SOL    HW2  867   0.371   1.020   2.303
  282SOL     OW  868   0.566   0.537   2.727
  282SOL    HW1  869   0.578   0.603   2.653
  282SOL    HW2  870   0.612   0.571   2.810
  283SOL     OW  871   1.252   1.348   2.250
  283SOL    HW1  872   1.302   1.425   2.290
  283SOL    HW2  873   1.157   1.350   2.282
  284SOL     OW  874   1.272   1.445   3.004
  284SOL    HW1  875   1.319   1.458   3.091
  284SOL    HW2  876   1.206   1.371   3.013
  285SOL     OW  877   1.582   0.639   2.334
  285SOL    HW1  878   1.551   0.700   2.407
  285SOL    HW2  879   1.632   0.691   2.265
  286SOL     OW  880   0.573   0.870   2.891
  286SOL    HW1  881   0.617   0.959   2.882
  286SOL    HW2  882   0.510   0.870   2.968
  287SOL     OW  883   1.360   0.862   2.907
  287SOL    HW1  884   1.285   0.862   2.841
  287SOL    HW2  885   1.397   0.770   2.916
  288SOL     OW  886   1.209   0.525   2.137
  288SOL    HW1  887   1.222   0.441   2.191
  288SOL    HW2  888   1.180   0.599   2.197
  289SOL     OW  889   0.307   0.213   3.093
  289SOL    HW1  890   0.284   0.250   3.183
  289SOL    HW2  891   0.277   0.118   3.087
  290SOL     OW  892   0.037   1.310   3.144
  290SOL    HW1  893   0.090   1.261   3.212
  290SOL    HW2  894   0.059   1.408   3.149
  291SOL     OW  895   0.732   0.634   2.926
  291SOL    HW1  896   0.791   0.608   2.850
  291SOL    HW2  897   0.704   0.730   2.915
  292SOL     OW  898   0.307   0.063   2.480
  292SOL    HW1  899   0.296   0.157   2.513
  292SOL    HW2  900   0.302   0.000   2.557
  293SOL     OW  901   1.622   0.367   2.236
  293SOL    HW1  902   1.624   0.291   2.300
  293SOL    HW2  903   1.574   0.444   2.276
  294SOL     OW  904   1.023   0.766   2.828
  294SOL    HW1  905   1.038   0.787   2.924
  294SOL    HW2  906   0.993   0.671   2.819
  295SOL     OW  907   1.540   0.274   1.987
  295SOL    HW1  908   1.479   0.199   2.010
  295SOL    HW2  909   1.562   0.326   2.070
  296SOL     OW  910   1.303   0.838   1.904
  296SOL    HW1  911   1.337   0.745   1.919
  296SOL    HW2  912   1.321   0.865   1.809
  297SOL     OW  913   1.068   1.333   2.711
  297SOL    HW1  914   1.075   1.249   2.656
  297SOL    HW2  915   1.130   1.402   2.675
  298SOL     OW  916   0.319   0.810   2.811
  298SOL    HW1  917   0.412   0.846   2.816
  298SOL    HW2  918   0.313   0.725   2.863
  299SOL     OW  919   0.339   0.509   2.868
  299SOL    HW1  920   0.287   0.426   2.851
  299SOL    HW2  921   0.416   0.514   2.804
  300SOL     OW  922   1.160   0.207   3.339
  300SOL    HW1  923   1.160   0.271   3.416
  300SOL    HW2  924   1.188   0.255   3.256
  301SOL     OW  925   0.008   1.326   2.062
  301SOL    HW1  926  -0.085   1.347   2.031
  301SOL    HW2  927   0.018   1.227   2.075
  302SOL     OW  928   0.088   1.801   2.789
  302SOL    HW1  929   0.046   1.715   2.762
  302SOL    HW2  930   0.182   1.804   2.755
  303SOL     OW  931   0.504   1.568   2.772
  303SOL    HW1  932   0.570   1.642   2.781
  303SOL    HW2  933   0.548   1.489   2.730
  304SOL     OW  934   1.002   0.796   3.100
  304SOL    HW1  935   1.043   0.764   3.186
  304SOL    HW2  936   0.906   0.769   3.097
  305SOL     OW  937   0.040   0.544   2.976
  305SOL    HW1  938   0.125   0.511   2.935
  305SOL    HW2  939   0.053   0.559   3.074
  306SOL     OW  940   0.815   0.572   2.187
  306SOL    HW1  941   0.822   0.483   2.141
  306SOL    HW2  942   0.721   0.606   2.179
  307SOL     OW  943   1.657   0.604   3.068
  307SOL    HW1  944   1.619   0.535   3.130
  307SOL    HW2  945   1.739   0.568   3.024
  308SOL     OW  946   0.671   0.464   3.131
  308SOL    HW1  947   0.637   0.375   3.101
  308SOL    HW2  948   0.697   0.518   3.051
  309SOL     OW  949   0.930   1.678   3.327
  309SOL    HW1  950   0.906   1.660   3.232
  309SOL    HW2  951   0.960   1.772   3.337
  310SOL     OW  952   0.473   0.500   2.053
  310SOL    HW1  953   0.534   0.580   2.057
  310SOL    HW2  954   0.378   0.531   2.060
  311SOL     OW  955   1.347   1.059   3.096
  311SOL    HW1  956   1.371   0.996   3.022
  311SOL    HW2  957   1.257   1.099   3.078
  312SOL     OW  958   1.302   0.855   2.171
  312SOL    HW1  959   1.216   0.824   2.213
  312SOL    HW2  960   1.298   0.841   2.072
  313SOL     OW  961   1.759   1.747   3.016
  313SOL    HW1  962   1.820   1.777   2.943
  313SOL    HW2  963   1.721   1.658   2.994
  314SOL     OW  964   1.252   1.731   2.990
  314SOL    HW1  965   1.336   1.736   2.936
  314SOL    HW2  966   1.229   1.635   3.008
  315SOL     OW  967   0.083   1.258   2.884
  315SOL    HW1  968   0.078   1.257   2.984
  315SOL    HW2  969   0.000   1.217   2.846
  316SOL     OW  970   1.726   0.135   2.385
  316SOL    HW1  971   1.799   0.118   2.318
  316SOL    HW2  972   1.695   0.048   2.423
  317SOL     OW  973   1.388   1.573   2.339
  317SOL    HW1  974   1.455   1.585   2.265
  317SOL    HW2  975   1.348   1.662   2.362
  318SOL     OW  976   1.280   0.927   2.534
  318SOL    HW1  977   1.340   0.846   2.536
  318SOL    HW2  978   1.320   0.996   2.474
  319SOL     OW  979   0.672   1.616   2.016
  319SOL    HW1  980   0.681   1.626   1.917
  319SOL    HW2  981   0.632   1.527   2.037
  320SOL     OW  982   1.650   1.720   3.256
  320SOL    HW1  983   1.703   1.730   3.172
  320SOL    HW2  984   1.623   1.810   3.290
  321SOL     OW  985   1.841   0.175   2.825
  321SOL    HW1  986   1.880   0.090   2.789
  321SOL    HW2  987   1.743   0.177   2.806
  322SOL     OW  988   0.263   0.326   2.582
  322SOL    HW1  989   0.184   0.377   2.548
  322SOL    HW2  990   0.254   0.311   2.680
  323SOL     OW  991   1.194   1.612   1.893
  323SOL    HW1  992   1.200   1.519   1.930
  323SOL    HW2  993   1.135   1.612   1.813
  324SOL     OW  994   0.822   1.002   3.234
  324SOL    HW1  995   0.862   1.001   3.142
  324SOL    HW2  996   0.832   1.094   3.274
  325SOL     OW  997   0.916   0.910   2.153
  325SOL    HW1  998   0.979   0.948   2.085
  325SOL    HW2  999   0.956   0.827   2.192
  326SOL     OW 1000   1.039   1.098   2.558
  326SOL    HW1 1001   0.969   1.051   2.612
  326SOL    HW2 1002   1.098   1.030   2.515
  327SOL     OW 1003   1.014   0.236   2.833
  327SOL    HW1 1004   1.006   0.200   2.740
  327SOL    HW2 1005   1.012   0.160   2.898
  328SOL     OW 1006   0.590   1.487   2.353
  328SOL    HW1 1007   0.632   1.429   2.283
  328SOL    HW2 1008   0.546   1.566   2.309
  329SOL     OW 1009   1.709   0.385   3.243
  329SOL    HW1 1010   1.782   0.454   3.247
  329SOL    HW2 1011   1.737   0.310   3.184
  330SOL     OW 1012   0.255   1.348   2.152
  330SOL    HW1 1013   0.159   1.349   2.125
  330SOL    HW2 1014   0.267   1.401   2.236
  331SOL     OW 1015   0.075   0.345   1.895
  331SOL    HW1 1016  -0.017   0.317   1.866
  331SOL    HW2 1017   0.106   0.422   1.839
  332SOL     OW 1018   0.072   0.166   2.180
  332SOL    HW1 1019   0.055   0.249   2.126
  332SOL    HW2 1020   0.162   0.129   2.158
  333SOL     OW 1021   1.183   1.335   1.981
  333SOL    HW1 1022   1.084   1.324   1.983
  333SOL    HW2 1023   1.217   1.350   2.074
  334SOL     OW 1024   1.493   1.767   2.821
  334SOL    HW1 1025   1.526   1.831   2.752
  334SOL    HW2 1026   1.559   1.761   2.896
  335SOL     OW 1027   1.674   0.883   3.116
  335SOL    HW1 1028   1.647   0.794   3.079
  335SOL    HW2 1029   1.675   0.951   3.043
  336SOL     OW 1030   1.225   0.325   2.311
  336SOL    HW1 1031   1.290   0.251   2.300
  336SOL    HW2 1032   1.245   0.375   2.395
  337SOL     OW 1033   0.594   0.745   2.514
  337SOL    HW1 1034   0.644   0.830   2.495
  337SOL    HW2 1035   0.506   0.747   2.466
  338SOL     OW 1036   1.730   0.934   3.379
  338SOL    HW1 1037   1.768   1.025   3.394
  338SOL    HW2 1038   1.722   0.917   3.280
  339SOL     OW 1039   0.859   1.374   1.878
  339SOL    HW1 1040   0.813   1.389   1.966
  339SOL    HW2 1041   0.903   1.459   1.848
  340SOL     OW 1042   0.661   1.790   2.815
  340SOL    HW1 1043   0.615   1.878   2.802
  340SOL    HW2 1044   0.760   1.802   2.808
  341SOL     OW 1045   0.859   0.956   2.723
  341SOL    HW1 1046   0.913   0.887   2.771
  341SOL    HW2 1047   0.827   1.025   2.789
  342SOL     OW 1048   1.083   0.984   1.949
  342SOL    HW1 1049   1.060   1.037   1.867
  342SOL    HW2 1050   1.164   0.928   1.930
  343SOL     OW 1051   1.861   1.569   2.713
  343SOL    HW1 1052   1.790   1.557   2.643
  343SOL    HW2 1053   1.862   1.490   2.773
  344SOL     OW 1054   0.079   1.240   2.515
  344SOL    HW1 1055   0.078   1.193   2.603
  344SOL    HW2 1056   0.161   1.212   2.464
  345SOL     OW 1057   1.824   0.192   3.089
  345SOL    HW1 1058   1.820   0.102   3.133
  345SOL    HW2 1059   1.827   0.181   2.990
  346SOL     OW 1060   0.428   0.424   2.382
  346SOL    HW1 1061   0.458   0.352   2.320
  346SOL    HW2 1062   0.389   0.384   2.465
  347SOL     OW 1063   1.705   1.487   2.966
  347SOL    HW1 1064   1.612   1.462   2.939
  347SOL    HW2 1065   1.731   1.437   3.048
  348SOL     OW 1066   0.812   1.586   2.549
  348SOL    HW1 1067   0.844   1.596   2.455
  348SOL    HW2 1068   0.733   1.524   2.551
  349SOL     OW 1069   1.424   0.214   2.974
  349SOL    HW1 1070   1.476   0.149   3.029
  349SOL    HW2 1071   1.375   0.277   3.035
  350SOL     OW 1072   1.001   0.034   3.016
  350SOL    HW1 1073   0.938  -0.038   2.985
  350SOL    HW2 1074   1.094  -0.002   3.016
  351SOL     OW 1075   0.770   1.330   2.163
  351SOL    HW1 1076   0.724   1.243   2.180
  351SOL    HW2 1077   0.861   1.327   2.204
  352SOL     OW 1078   1.352   0.052   2.030
  352SOL    HW1 1079   1.387   0.011   1.946
  352SOL    HW2 1080   1.262   0.014   2.050
  353SOL     OW 1081   1.300   0.453   2.553
  353SOL    HW1 1082   1.241   0.533   2.557
  353SOL    HW2 1083   1.315   0.418   2.646
  354SOL     OW 1084   1.593   0.221   2.744
  354SOL    HW1 1085   1.509   0.220   2.798
  354SOL    HW2 1086   1.595   0.304   2.688
  355SOL     OW 1087   0.039   1.077   2.162
  355SOL    HW1 1088   0.138   1.066   2.153
  355SOL    HW2 1089  -0.001   0.991   2.194
  356SOL     OW 1090   0.875   1.646   2.199
  356SOL    HW1 1091   0.798   1.611   2.145
  356SOL    HW2 1092   0.843   1.717   2.261
  357SOL     OW 1093   0.230   2.490   0.113
  357SOL    HW1 1094   0.137   2.488   0.150
  357SOL    HW2 1095   0.231   2.451   0.021
  358SOL     OW 1096   0.225   2.137   0.996
  358SOL    HW1 1097   0.260   2.120   1.088
  358SOL    HW2 1098   0.137   2.092   0.984
  359SOL     OW 1099   0.019   2.230   0.647
  359SOL    HW1 1100  -0.063   2.273   0.686
  359SOL    HW2 1101  -0.009   2.157   0.584
  360SOL     OW 1102   1.135   2.565   0.717
  360SOL    HW1 1103   1.192   2.643   0.692
  360SOL    HW2 1104   1.075   2.591   0.793
  361SOL     OW 1105   1.755   2.469   0.231
  361SOL    HW1 1106   1.743   2.456   0.132
  361SOL    HW2 1107   1.725   2.388   0.280
  362SOL     OW 1108   0.768   3.006   1.023
  362SOL    HW1 1109   0.690   3.023   1.083
  362SOL    HW2 1110   0.802   3.093   0.987
  363SOL     OW 1111   0.850   2.660   1.823
  363SOL    HW1 1112   0.846   2.736   1.888
  363SOL    HW2 1113   0.872   2.696   1.732
  364SOL     OW 1114   0.685   2.874   0.665
  364SOL    HW1 1115   0.754   2.858   0.735
  364SOL    HW2 1116   0.612   2.931   0.703
  365SOL     OW 1117   0.686   3.023   1.803
  365SOL    HW1 1118   0.746   3.102   1.817
  365SOL    HW2 1119   0.600   3.054   1.762
  366SOL     OW 1120   0.438   2.254   1.499
  366SOL    HW1 1121   0.520   2.198   1.508
  366SOL    HW2 1122   0.357   2.196   1.503
  367SOL     OW 1123   1.603   2.309   0.737
  367SOL    HW1 1124   1.529   2.355   0.687
  367SOL    HW2 1125   1.654   2.377   0.790
  368SOL     OW 1126   0.240   2.953   0.886
  368SOL    HW1 1127   0.254   2.869   0.938
  368SOL    HW2 1128   0.185   3.017   0.941
  369SOL     OW 1129   0.606   2.826   0.123
  369SOL    HW1 1130   0.613   2.910   0.069
  369SOL    HW2 1131   0.652   2.839   0.211
  370SOL     OW 1132   0.122   2.505   0.563
  370SOL    HW1 1133   0.077   2.417   0.580
  370SOL    HW2 1134   0.121   2.559   0.647
  371SOL     OW 1135   1.689   2.784   0.612
  371SOL    HW1 1136   1.784   2.755   0.620
  371SOL    HW2 1137   1.681   2.849   0.537
  372SOL     OW 1138   1.641   2.970   0.432
  372SOL    HW1 1139   1.727   2.972   0.380
  372SOL    HW2 1140   1.655   3.017   0.520
  373SOL     OW 1141   0.113   2.599   1.597
  373SOL    HW1 1142   0.201   2.586   1.642
  373SOL    HW2 1143   0.100   2.696   1.575
  374SOL     OW 1144   1.293   3.090   1.423
  374SOL    HW1 1145   1.330   3.017   1.365
  374SOL    HW2 1146   1.345   3.095   1.508
  375SOL     OW 1147   0.809   1.866   0.502
  375SOL    HW1 1148   0.849   1.957   0.493
  375SOL    HW2 1149   0.709   1.874   0.508
  376SOL     OW 1150   0.197   2.838   1.264
  376SOL    HW1 1151   0.286   2.793   1.250
  376SOL    HW2 1152   0.124   2.773   1.245
  377SOL     OW 1153   1.525   2.861   0.190
  377SOL    HW1 1154   1.462   2.785   0.203
  377SOL    HW2 1155   1.573   2.879   0.276
  378SOL     OW 1156   0.317   2.113   1.801
  378SOL    HW1 1157   0.388   2.184   1.807
  378SOL    HW2 1158   0.229   2.152   1.829
  379SOL     OW 1159   0.598   2.591   0.270
  379SOL    HW1 1160   0.622   2.660   0.202
  379SOL    HW2 1161   0.520   2.624   0.324
  380SOL     OW 1162   1.281   2.207   0.944
  380SOL    HW1 1163   1.195   2.157   0.931
  380SOL    HW2 1164   1.343   2.153   1.000
  381SOL     OW 1165   0.807   2.467   1.465
  381SOL    HW1 1166   0.760   2.464   1.554
  381SOL    HW2 1167   0.756   2.412   1.399
  382SOL     OW 1168   1.394   2.331   1.674
  382SOL    HW1 1169   1.374   2.374   1.762
  382SOL    HW2 1170   1.472   2.269   1.683
  383SOL     OW 1171   0.973   2.752   1.572
  383SOL    HW1 1172   1.019   2.668   1.543
  383SOL    HW2 1173   0.917   2.786   1.497
  384SOL     OW 1174   0.991   2.272   1.242
  384SOL    HW1 1175   0.914   2.306   1.296
  384SOL    HW2 1176   0.957   2.221   1.163
  385SOL     OW 1177   1.041   2.563   0.429
  385SOL    HW1 1178   1.067   2.559   0.525
  385SOL    HW2 1179   0.956   2.512   0.415
  386SOL     OW 1180   0.076   2.673   0.789
  386SOL    HW1 1181   0.175   2.661   0.798
  386SOL    HW2 1182   0.052   2.768   0.810
  387SOL     OW 1183   0.865   2.210   0.195
  387SOL    HW1 1184   0.924   2.273   0.146
  387SOL    HW2 1185   0.884   2.116   0.166
  388SOL     OW 1186   1.719   2.447   1.831
  388SOL    HW1 1187   1.693   2.536   1.795
  388SOL    HW2 1188   1.717   2.379   1.758
  389SOL     OW 1189   1.362   3.006   0.545
  389SOL    HW1 1190   1.445   2.977   0.497
  389SOL    HW2 1191   1.313   3.073   0.489
  390SOL     OW 1192   0.550   2.058   0.885
  390SOL    HW1 1193   0.545   2.053   0.985
  390SOL    HW2 1194   0.552   2.154   0.856
  391SOL     OW 1195   1.795   2.928   0.873
  391SOL    HW1 1196   1.733   2.913   0.797
  391SOL    HW2 1197   1.743   2.939   0.958
  392SOL     OW 1198   0.321   2.805   0.242
  392SOL    HW1 1199   0.403   2.844   0.200
  392SOL    HW2 1200   0.294   2.723   0.193
  393SOL     OW 1201   1.458   2.597   0.728
  393SOL    HW1 1202   1.453   2.532   0.803
  393SOL    HW2 1203   1.538   2.656   0.741
  394SOL     OW 1204   0.202   2.147   1.498
  394SOL    HW1 1205   0.122   2.207   1.485
  394SOL    HW2 1206   0.192   2.098   1.584
  395SOL     OW 1207   1.400   1.969   0.426
  395SOL    HW1 1208   1.376   1.932   0.336
  395SOL    HW2 1209   1.499   1.985   0.430
  396SOL     OW 1210   0.382   2.562   0.480
  396SOL    HW1 1211   0.427   2.472   0.477
  396SOL    HW2 1212   0.288   2.551   0.513
  397SOL     OW 1213   1.547   2.084   1.729
  397SOL    HW1 1214   1.542   2.121   1.821
  397SOL    HW2 1215   1.475   2.015   1.717
  398SOL     OW 1216   0.614   1.984   0.117
  398SOL    HW1 1217   0.712   1.962   0.124
  398SOL    HW2 1218   0.583   1.967   0.024
  399SOL     OW 1219   0.781   2.126   1.749
  399SOL    HW1 1220   0.848   2.065   1.792
  399SOL    HW2 1221   0.708   2.145   1.814
  400SOL     OW 1222   1.351   2.452   1.433
  400SOL    HW1 1223   1.379   2.409   1.518
  400SOL    HW2 1224   1.376   2.548   1.434
  401SOL     OW 1225   0.803   3.264   0.924
  401SOL    HW1 1226   0.893   3.278   0.882
  401SOL    HW2 1227   0.732   3.266   0.853
  402SOL     OW 1228   0.922   2.365   0.899
  402SOL    HW1 1229   0.897   2.356   0.803
  402SOL    HW2 1230   0.970   2.283   0.930
  403SOL     OW 1231   0.539   1.926   0.512
  403SOL    HW1 1232   0.458   1.927   0.570
  403SOL    HW2 1233   0.542   2.009   0.457
  404SOL     OW 1234   0.297   1.897   0.171
  404SOL    HW1 1235   0.346   1.981   0.150
  404SOL    HW2 1236   0.359   1.832   0.216
  405SOL     OW 1237   0.935   2.098   0.480
  405SOL    HW1 1238   0.887   2.139   0.402
  405SOL    HW2 1239   1.034   2.096   0.461
  406SOL     OW 1240   1.076   2.545   1.464
  406SOL    HW1 1241   0.996   2.484   1.467
  406SOL    HW2 1242   1.157   2.492   1.440
  407SOL     OW 1243   0.459   3.014   0.741
  407SOL    HW1 1244   0.388   2.987   0.806
  407SOL    HW2 1245   0.433   2.986   0.648
  408SOL     OW 1246   1.032   2.411   0.016
  408SOL    HW1 1247   0.991   2.493  -0.023
  408SOL    HW2 1248   1.096   2.437   0.089
  409SOL     OW 1249   0.078   2.418   1.386
  409SOL    HW1 1250   0.170   2.417   1.345
  409SOL    HW2 1251   0.072   2.492   1.453
  410SOL     OW 1252   0.561   2.084   1.147
  410SOL    HW1 1253   0.599   2.000   1.184
  410SOL    HW2 1254   0.473   2.103   1.191
  411SOL     OW 1255   0.866   2.316   0.642
  411SOL    HW1 1256   0.834   2.388   0.580
  411SOL    HW2 1257   0.890   2.235   0.589
  412SOL     OW 1258   1.017   1.901   0.753
  412SOL    HW1 1259   0.945   1.906   0.684
  412SOL    HW2 1260   0.993   1.832   0.822
  413SOL     OW 1261   1.429   3.035   0.867
  413SOL    HW1 1262   1.374   2.951   0.860
  413SOL    HW2 1263   1.455   3.064   0.775
  414SOL     OW 1264   1.466   2.452   0.992
  414SOL    HW1 1265   1.436   2.357   0.999
  414SOL    HW2 1266   1.539   2.468   1.058
  415SOL     OW 1267   1.857   2.695   0.377
  415SOL    HW1 1268   1.899   2.631   0.441
  415SOL    HW2 1269   1.819   2.644   0.299
  416SOL     OW 1270   1.390   2.437   0.078
  416SOL    HW1 1271   1.336   2.416   0.159
  416SOL    HW2 1272   1.481   2.396   0.087
  417SOL     OW 1273   0.527   2.118   0.328
  417SOL    HW1 1274   0.554   2.059   0.253
  417SOL    HW2 1275   0.527   2.213   0.297
  418SOL     OW 1276   1.754   3.085   1.588
  418SOL    HW1 1277   1.845   3.046   1.575
  418SOL    HW2 1278   1.762   3.181   1.612
  419SOL     OW 1279   1.638   2.961   1.079
  419SOL    HW1 1280   1.643   3.042   1.138
  419SOL    HW2 1281   1.552   2.963   1.028
  420SOL     OW 1282   0.915   1.951   1.402
  420SOL    HW1 1283   0.940   1.931   1.307
  420SOL    HW2 1284   0.987   2.007   1.444
  421SOL     OW 1285   0.980   2.978   1.719
  421SOL    HW1 1286   0.881   2.984   1.729
  421SOL    HW2 1287   1.003   2.898   1.663
  422SOL     OW 1288   0.705   2.912   0.368
  422SOL    HW1 1289   0.691   2.919   0.467
  422SOL    HW2 1290   0.789   2.861   0.350
  423SOL     OW 1291   0.410   2.675   1.251
  423SOL    HW1 1292   0.496   2.687   1.301
  423SOL    HW2 1293   0.368   2.588   1.278
  424SOL     OW 1294   1.274   2.248   1.262
  424SOL    HW1 1295   1.295   2.322   1.326
  424SOL    HW2 1296   1.185   2.265   1.219
  425SOL     OW 1297   0.367   2.962   0.501
  425SOL    HW1 1298   0.360   3.045   0.445
  425SOL    HW2 1299   0.371   2.882   0.441
  426SOL     OW 1300   0.566   2.399   0.865
  426SOL    HW1 1301   0.578   2.465   0.791
  426SOL    HW2 1302   0.612   2.433   0.948
  427SOL     OW 1303   1.582   2.501   0.472
  427SOL    HW1 1304   1.551   2.562   0.545
  427SOL    HW2 1305   1.632   2.553   0.403
  428SOL     OW 1306   0.402   2.613   1.598
  428SOL    HW1 1307   0.470   2.668   1.551
  428SOL    HW2 1308   0.442   2.525   1.625
  429SOL     OW 1309   1.587   2.641   1.670
  429SOL    HW1 1310   1.495   2.679   1.665
  429SOL    HW2 1311   1.647   2.688   1.605
  430SOL     OW 1312   1.013   1.967   1.770
  430SOL    HW1 1313   1.019   2.052   1.718
  430SOL    HW2 1314   1.045   1.891   1.713
  431SOL     OW 1315   0.504   1.912   1.740
  431SOL    HW1 1316   0.462   1.855   1.670
  431SOL    HW2 1317   0.438   1.981   1.772
  432SOL     OW 1318   0.573   2.732   1.029
  432SOL    HW1 1319   0.617   2.821   1.020
  432SOL    HW2 1320   0.510   2.732   1.106
  433SOL     OW 1321   1.360   2.724   1.045
  433SOL    HW1 1322   1.285   2.724   0.979
  433SOL    HW2 1323   1.397   2.632   1.054
  434SOL     OW 1324   1.209   2.387   0.275
  434SOL    HW1 1325   1.222   2.303   0.329
  434SOL    HW2 1326   1.180   2.461   0.335
  435SOL     OW 1327   0.307   2.075   1.231
  435SOL    HW1 1328   0.284   2.112   1.321
  435SOL    HW2 1329   0.277   1.980   1.225
  436SOL     OW 1330   0.037   3.172   1.282
  436SOL    HW1 1331   0.090   3.123   1.350
  436SOL    HW2 1332   0.059   3.270   1.287
  437SOL     OW 1333   0.732   2.496   1.064
  437SOL    HW1 1334   0.791   2.470   0.988
  437SOL    HW2 1335   0.704   2.592   1.053
  438SOL     OW 1336   1.728   2.797   1.854
  438SOL    HW1 1337   1.682   2.790   1.765
  438SOL    HW2 1338   1.666   2.841   1.920
  439SOL     OW 1339   0.307   1.925   0.618
  439SOL    HW1 1340   0.296   2.019   0.651
  439SOL    HW2 1341   0.302   1.862   0.695
  440SOL     OW 1342   1.622   2.229   0.374
  440SOL    HW1 1343   1.624   2.153   0.438
  440SOL    HW2 1344   1.574   2.306   0.414
  441SOL     OW 1345   1.023   2.628   0.966
  441SOL    HW1 1346   1.038   2.649   1.062
  441SOL    HW2 1347   0.993   2.533   0.957
  442SOL     OW 1348   0.350   2.760   1.804
  442SOL    HW1 1349   0.426   2.804   1.852
  442SOL    HW2 1350   0.385   2.713   1.722
  443SOL     OW 1351   1.540   2.136   0.125
  443SOL    HW1 1352   1.479   2.061   0.148
  443SOL    HW2 1353   1.562   2.188   0.208
  444SOL     OW 1354   1.303   2.700   0.042
  444SOL    HW1 1355   1.337   2.607   0.057
  444SOL    HW2 1356   1.321   2.727  -0.053
  445SOL     OW 1357   0.319   2.672   0.949
  445SOL    HW1 1358   0.412   2.708   0.954
  445SOL    HW2 1359   0.313   2.587   1.001
  446SOL     OW 1360   0.339   2.371   1.006
  446SOL    HW1 1361   0.287   2.288   0.989
  446SOL    HW2 1362   0.416   2.376   0.942
  447SOL     OW 1363   1.138   2.242   1.678
  447SOL    HW1 1364   1.093   2.305   1.742
  447SOL    HW2 1365   1.231   2.273   1.661
  448SOL     OW 1366   1.160   2.069   1.477
  448SOL    HW1 1367   1.160   2.133   1.554
  448SOL    HW2 1368   1.188   2.117   1.394
  449SOL     OW 1369   0.008   3.188   0.200
  449SOL    HW1 1370  -0.085   3.209   0.169
  449SOL    HW2 1371   0.018   3.089   0.213
  450SOL     OW 1372   1.002   2.658   1.238
  450SOL    HW1 1373   1.043   2.626   1.324
  450SOL    HW2 1374   0.906   2.631   1.235
  451SOL     OW 1375   0.040   2.406   1.114
  451SOL    HW1 1376   0.125   2.373   1.073
  451SOL    HW2 1377   0.053   2.421   1.212
  452SOL     OW 1378   0.189   2.382   1.722
  452SOL    HW1 1379   0.248   2.342   1.652
  452SOL    HW2 1380   0.131   2.453   1.681
  453SOL     OW 1381   1.369   2.812   1.660
  453SOL    HW1 1382   1.408   2.901   1.680
  453SOL    HW2 1383   1.379   2.792   1.563
  454SOL     OW 1384   0.815   2.434   0.325
  454SOL    HW1 1385   0.822   2.345   0.279
  454SOL    HW2 1386   0.721   2.468   0.317
  455SOL     OW 1387   1.657   2.466   1.206
  455SOL    HW1 1388   1.619   2.397   1.268
  455SOL    HW2 1389   1.739   2.430   1.162
  456SOL     OW 1390   0.671   2.326   1.269
  456SOL    HW1 1391   0.637   2.237   1.239
  456SOL    HW2 1392   0.697   2.380   1.189
  457SOL     OW 1393   0.473   2.362   0.191
  457SOL    HW1 1394   0.534   2.442   0.195
  457SOL    HW2 1395   0.378   2.393   0.198
  458SOL     OW 1396   0.159   2.999   1.466
  458SOL    HW1 1397   0.181   2.938   1.542
  458SOL    HW2 1398   0.169   2.950   1.380
  459SOL     OW 1399   1.347   2.921   1.234
  459SOL    HW1 1400   1.371   2.858   1.160
  459SOL    HW2 1401   1.257   2.961   1.216
  460SOL     OW 1402   1.302   2.717   0.309
  460SOL    HW1 1403   1.216   2.686   0.351
  460SOL    HW2 1404   1.298   2.703   0.210
  461SOL     OW 1405   0.083   3.120   1.022
  461SOL    HW1 1406   0.078   3.119   1.122
  461SOL    HW2 1407   0.000   3.079   0.984
  462SOL     OW 1408   0.903   1.948   0.133
  462SOL    HW1 1409   0.954   1.949   0.047
  462SOL    HW2 1410   0.959   1.906   0.204
  463SOL     OW 1411   1.726   1.997   0.523
  463SOL    HW1 1412   1.799   1.980   0.456
  463SOL    HW2 1413   1.695   1.910   0.561
  464SOL     OW 1414   1.280   2.789   0.672
  464SOL    HW1 1415   1.340   2.708   0.674
  464SOL    HW2 1416   1.320   2.858   0.612
  465SOL     OW 1417   1.841   2.037   0.963
  465SOL    HW1 1418   1.880   1.952   0.927
  465SOL    HW2 1419   1.743   2.039   0.944
  466SOL     OW 1420   0.263   2.188   0.720
  466SOL    HW1 1421   0.184   2.239   0.686
  466SOL    HW2 1422   0.254   2.173   0.818
  467SOL     OW 1423   0.822   2.864   1.372
  467SOL    HW1 1424   0.862   2.863   1.280
  467SOL    HW2 1425   0.832   2.956   1.412
  468SOL     OW 1426   0.916   2.772   0.291
  468SOL    HW1 1427   0.979   2.810   0.223
  468SOL    HW2 1428   0.956   2.689   0.330
  469SOL     OW 1429   0.372   3.150   1.490
  469SOL    HW1 1430   0.359   3.243   1.456
  469SOL    HW2 1431   0.288   3.098   1.477
  470SOL     OW 1432   1.614   3.154   1.289
  470SOL    HW1 1433   1.674   3.157   1.369
  470SOL    HW2 1434   1.539   3.218   1.302
  471SOL     OW 1435   1.039   2.960   0.696
  471SOL    HW1 1436   0.969   2.913   0.750
  471SOL    HW2 1437   1.098   2.892   0.653
  472SOL     OW 1438   1.014   2.098   0.971
  472SOL    HW1 1439   1.006   2.062   0.878
  472SOL    HW2 1440   1.012   2.022   1.036
  473SOL     OW 1441   1.709   2.247   1.381
  473SOL    HW1 1442   1.782   2.316   1.385
  473SOL    HW2 1443   1.737   2.172   1.322
  474SOL     OW 1444   0.105   2.875   1.726
  474SOL    HW1 1445   0.028   2.842   1.780
  474SOL    HW2 1446   0.190   2.845   1.768
  475SOL     OW 1447   0.672   2.065   1.489
  475SOL    HW1 1448   0.762   2.049   1.449
  475SOL    HW2 1449   0.680   2.070   1.588
  476SOL     OW 1450   0.075   2.207   0.033
  476SOL    HW1 1451  -0.017   2.179   0.004
  476SOL    HW2 1452   0.106   2.284  -0.023
  477SOL     OW 1453   1.440   2.718   1.398
  477SOL    HW1 1454   1.383   2.770   1.335
  477SOL    HW2 1455   1.536   2.730   1.374
  478SOL     OW 1456   0.072   2.028   0.318
  478SOL    HW1 1457   0.055   2.111   0.264
  478SOL    HW2 1458   0.162   1.991   0.296
  479SOL     OW 1459   0.613   2.704   1.431
  479SOL    HW1 1460   0.669   2.785   1.414
  479SOL    HW2 1461   0.672   2.624   1.434
  480SOL     OW 1462   0.716   2.427   1.708
  480SOL    HW1 1463   0.735   2.492   1.782
  480SOL    HW2 1464   0.776   2.347   1.717
  481SOL     OW 1465   1.450   3.082   1.633
  481SOL    HW1 1466   1.441   3.072   1.732
  481SOL    HW2 1467   1.546   3.075   1.607
  482SOL     OW 1468   1.674   2.745   1.254
  482SOL    HW1 1469   1.647   2.656   1.217
  482SOL    HW2 1470   1.675   2.813   1.181
  483SOL     OW 1471   1.225   2.187   0.449
  483SOL    HW1 1472   1.290   2.113   0.438
  483SOL    HW2 1473   1.245   2.237   0.533
  484SOL     OW 1474   0.594   2.607   0.652
  484SOL    HW1 1475   0.644   2.692   0.633
  484SOL    HW2 1476   0.506   2.609   0.604
  485SOL     OW 1477   1.777   2.204   1.642
  485SOL    HW1 1478   1.760   2.235   1.548
  485SOL    HW2 1479   1.693   2.167   1.680
  486SOL     OW 1480   1.730   2.796   1.517
  486SOL    HW1 1481   1.768   2.887   1.532
  486SOL    HW2 1482   1.722   2.779   1.418
  487SOL     OW 1483   0.859   2.818   0.861
  487SOL    HW1 1484   0.913   2.749   0.909
  487SOL    HW2 1485   0.827   2.887   0.927
  488SOL     OW 1486   1.083   2.846   0.087
  488SOL    HW1 1487   1.060   2.899   0.005
  488SOL    HW2 1488   1.164   2.790   0.068
  489SOL     OW 1489   0.079   3.102   0.653
  489SOL    HW1 1490   0.078   3.055   0.741
  489SOL    HW2 1491   0.161   3.074   0.602
  490SOL     OW 1492   1.824   2.054   1.227
  490SOL    HW1 1493   1.820   1.964   1.271
  490SOL    HW2 1494   1.827   2.043   1.128
  491SOL     OW 1495   0.428   2.286   0.520
  491SOL    HW1 1496   0.458   2.214   0.458
  491SOL    HW2 1497   0.389   2.246   0.603
  492SOL     OW 1498   0.317   2.409   1.280
  492SOL    HW1 1499   0.355   2.350   1.352
  492SOL    HW2 1500   0.357   2.383   1.192
  493SOL     OW 1501   1.424   2.076   1.112
  493SOL    HW1 1502   1.476   2.011   1.167
  493SOL    HW2 1503   1.375   2.139   1.173
  494SOL     OW 1504   1.001   1.896   1.154
  494SOL    HW1 1505   0.938   1.824   1.123
  494SOL    HW2 1506   1.094   1.860   1.154
  495SOL     OW 1507   0.770   3.192   0.301
  495SOL    HW1 1508   0.724   3.105   0.318
  495SOL    HW2 1509   0.861   3.189   0.342
  496SOL     OW 1510   1.352   1.914   0.168
  496SOL    HW1 1511   1.387   1.873   0.084
  496SOL    HW2 1512   1.262   1.876   0.188
  497SOL     OW 1513   1.300   2.315   0.691
  497SOL    HW1 1514   1.241   2.395   0.695
  497SOL    HW2 1515   1.315   2.280   0.784
  498SOL     OW 1516   1.593   2.083   0.882
  498SOL    HW1 1517   1.509   2.082   0.936
  498SOL    HW2 1518   1.595   2.166   0.826
  499SOL     OW 1519   0.039   2.939   0.300
  499SOL    HW1 1520   0.138   2.928   0.291
  499SOL    HW2 1521  -0.001   2.853   0.332
  500SOL     OW 1522   0.230   2.490   1.975
  500SOL    HW1 1523   0.137   2.488   2.012
  500SOL    HW2 1524   0.231   2.451   1.883
  501SOL     OW 1525   0.225   2.137   2.858
  501SOL    HW1 1526   0.260   2.120   2.950
  501SOL    HW2 1527   0.137   2.092   2.846
  502SOL     OW 1528   0.019   2.230   2.509
  502SOL    HW1 1529  -0.063   2.273   2.548
  502SOL    HW2 1530  -0.009   2.157   2.446
  503SOL     OW 1531   1.135   2.565   2.579
  503SOL    HW1 1532   1.192   2.643   2.554
  503SOL    HW2 1533   1.075   2.591   2.655
  504SOL     OW 1534   1.755   2.469   2.093
  504SOL    HW1 1535   1.743   2.456   1.994
  504SOL    HW2 1536   1.725   2.388   2.142
  505SOL     OW 1537   0.768   3.006   2.885
  505SOL    HW1 1538   0.690   3.023   2.945
  505SOL    HW2 1539   0.802   3.093   2.849
  506SOL     OW 1540   0.685   2.874   2.527
  506SOL    HW1 1541   0.754   2.858   2.597
  506SOL    HW2 1542   0.612   2.931   2.565
  507SOL     OW 1543   1.603   2.309   2.599
  507SOL    HW1 1544   1.529   2.355   2.549
  507SOL    HW2 1545   1.654   2.377   2.652
  508SOL     OW 1546   0.240   2.953   2.748
  508SOL    HW1 1547   0.254   2.869   2.800
  508SOL    HW2 1548   0.185   3.017   2.803
  509SOL     OW 1549   0.606   2.826   1.985
  509SOL    HW1 1550   0.613   2.910   1.931
  509SOL    HW2 1551   0.652   2.839   2.073
  510SOL     OW 1552   0.122   2.505   2.425
  510SOL    HW1 1553   0.077   2.417   2.442
  510SOL    HW2 1554   0.121   2.559   2.509
  511SOL     OW 1555   1.689   2.784   2.474
  511SOL    HW1 1556   1.784   2.755   2.482
  511SOL    HW2 1557   1.681   2.849   2.399
  512SOL     OW 1558   1.641   2.970   2.294
  512SOL    HW1 1559   1.727   2.972   2.242
  512SOL    HW2 1560   1.655   3.017   2.382
  513SOL     OW 1561   0.809   1.866   2.364
  513SOL    HW1 1562   0.849   1.957   2.355
  513SOL    HW2 1563   0.709   1.874   2.370
  514SOL     OW 1564   0.197   2.838   3.126
  514SOL    HW1 1565   0.286   2.793   3.112
  514SOL    HW2 1566   0.124   2.773   3.107
  515SOL     OW 1567   1.525   2.861   2.052
  515SOL    HW1 1568   1.462   2.785   2.065
  515SOL    HW2 1569   1.573   2.879   2.138
  516SOL     OW 1570   0.598   2.591   2.132
  516SOL    HW1 1571   0.622   2.660   2.064
  516SOL    HW2 1572   0.520   2.624   2.186
  517SOL     OW 1573   1.281   2.207   2.806
  517SOL    HW1 1574   1.195   2.157   2.793
  517SOL    HW2 1575   1.343   2.153   2.862
  518SOL     OW 1576   1.041   2.563   2.291
  518SOL    HW1 1577   1.067   2.559   2.387
  518SOL    HW2 1578   0.956   2.512   2.277
  519SOL     OW 1579   0.076   2.673   2.651
  519SOL    HW1 1580   0.175   2.661   2.660
  519SOL    HW2 1581   0.052   2.768   2.672
  520SOL     OW 1582   0.865   2.210   2.057
  520SOL    HW1 1583   0.924   2.273   2.008
  520SOL    HW2 1584   0.884   2.116   2.028
  521SOL     OW 1585   1.362   3.006   2.407
  521SOL    HW1 1586   1.445   2.977   2.359
  521SOL    HW2 1587   1.313   3.073   2.351
  522SOL     OW 1588   0.550   2.058   2.747
  522SOL    HW1 1589   0.545   2.053   2.847
  522SOL    HW2 1590   0.552   2.154   2.718
  523SOL     OW 1591   1.795   2.928   2.735
  523SOL    HW1 1592   1.733   2.913   2.659
  523SOL    HW2 1593   1.743   2.939   2.820
  524SOL     OW 1594   0.321   2.805   2.104
  524SOL    HW1 1595   0.403   2.844   2.062
  524SOL    HW2 1596   0.294   2.723   2.055
  525SOL     OW 1597   1.458   2.597   2.590
  525SOL    HW1 1598   1.453   2.532   2.665
  525SOL    HW2 1599   1.538   2.656   2.603
  526SOL     OW 1600   1.400   1.969   2.288
  526SOL    HW1 1601   1.376   1.932   2.198
  526SOL    HW2 1602   1.499   1.985   2.292
  527SOL     OW 1603   0.382   2.562   2.342
  527SOL    HW1 1604   0.427   2.472   2.339
  527SOL    HW2 1605   0.288   2.551   2.375
  528SOL     OW 1606   0.614   1.984   1.979
  528SOL    HW1 1607   0.712   1.962   1.986
  528SOL    HW2 1608   0.583   1.967   1.886
  529SOL     OW 1609   0.803   3.264   2.786
  529SOL    HW1 1610   0.893   3.278   2.744
  529SOL    HW2 1611   0.732   3.266   2.715
  530SOL     OW 1612   0.922   2.365   2.761
  530SOL    HW1 1613   0.897   2.356   2.665
  530SOL    HW2 1614   0.970   2.283   2.792
  531SOL     OW 1615   0.539   1.926   2.374
  531SOL    HW1 1616   0.458   1.927   2.432
  531SOL    HW2 1617   0.542   2.009   2.319
  532SOL     OW 1618   0.297   1.897   2.033
  532SOL    HW1 1619   0.346   1.981   2.012
  532SOL    HW2 1620   0.359   1.832   2.078
  533SOL     OW 1621   0.935   2.098   2.342
  533SOL    HW1 1622   0.887   2.139   2.264
  533SOL    HW2 1623   1.034   2.096   2.323
  534SOL     OW 1624   0.459   3.014   2.603
  534SOL    HW1 1625   0.388   2.987   2.668
  534SOL    HW2 1626   0.433   2.986   2.510
  535SOL     OW 1627   1.032   2.411   1.878
  535SOL    HW1 1628   0.991   2.493   1.839
  535SOL    HW2 1629   1.096   2.437   1.951
  536SOL     OW 1630   0.561   2.084   3.009
  536SOL    HW1 1631   0.599   2.000   3.046
  536SOL    HW2 1632   0.473   2.103   3.053
  537SOL     OW 1633   0.866   2.316   2.504
  537SOL    HW1 1634   0.834   2.388   2.442
  537SOL    HW2 1635   0.890   2.235   2.451
  538SOL     OW 1636   1.017   1.901   2.615
  538SOL    HW1 1637   0.945   1.906   2.546
  538SOL    HW2 1638   0.993   1.832   2.684
  539SOL     OW 1639   1.429   3.035   2.729
  539SOL    HW1 1640   1.374   2.951   2.722
  539SOL    HW2 1641   1.455   3.064   2.637
  540SOL     OW 1642   1.466   2.452   2.854
  540SOL    HW1 1643   1.436   2.357   2.861
  540SOL    HW2 1644   1.539   2.468   2.920
  541SOL     OW 1645   1.857   2.695   2.239
  541SOL    HW1 1646   1.899   2.631   2.303
  541SOL    HW2 1647   1.819   2.644   2.161
  542SOL     OW 1648   1.390   2.437   1.940
  542SOL    HW1 1649   1.336   2.416   2.021
  542SOL    HW2 1650   1.481   2.396   1.949
  543SOL     OW 1651   0.527   2.118   2.190
  543SOL    HW1 1652   0.554   2.059   2.115
  543SOL    HW2 1653   0.527   2.213   2.159
  544SOL     OW 1654   1.638   2.961   2.941
  544SOL    HW1 1655   1.643   3.042   3.000
  544SOL    HW2 1656   1.552   2.963   2.890
  545SOL     OW 1657   0.705   2.912   2.230
  545SOL    HW1 1658   0.691   2.919   2.329
  545SOL    HW2 1659   0.789   2.861   2.212
  546SOL     OW 1660   0.410   2.675   3.113
  546SOL    HW1 1661   0.496   2.687   3.163
  546SOL    HW2 1662   0.368   2.588   3.140
  547SOL     OW 1663   1.274   2.248   3.124
  547SOL    HW1 1664   1.295   2.322   3.188
  547SOL    HW2 1665   1.185   2.265   3.081
  548SOL     OW 1666   0.367   2.962   2.363
  548SOL    HW1 1667   0.360   3.045   2.307
  548SOL    HW2 1668   0.371   2.882   2.303
  549SOL     OW 1669   0.566   2.399   2.727
  549SOL    HW1 1670   0.578   2.465   2.653
  549SOL    HW2 1671   0.612   2.433   2.810
  550SOL     OW 1672   1.582   2.501   2.334
  550SOL    HW1 1673   1.551   2.562   2.407
  550SOL    HW2 1674   1.632   2.553   2.265
  551SOL     OW 1675   0.573   2.732   2.891
  551SOL    HW1 1676   0.617   2.821   2.882
  551SOL    HW2 1677   0.510   2.732   2.968
  552SOL     OW 1678   1.360   2.724   2.907
  552SOL    HW1 1679   1.285   2.724   2.841
  552SOL    HW2 1680   1.397   2.632   2.916
  553SOL     OW 1681   1.209   2.387   2.137
  553SOL    HW1 1682   1.222   2.303   2.191
  553SOL    HW2 1683   1.180   2.461   2.197
  554SOL     OW 1684   0.307   2.075   3.093
  554SOL    HW1 1685   0.284   2.112   3.183
  554SOL    HW2 1686   0.277   1.980   3.087
  555SOL     OW 1687   0.037   3.172   3.144
  555SOL    HW1 1688   0.090   3.123   3.212
  555SOL    HW2 1689   0.059   3.270   3.149
  556SOL     OW 1690   0.732   2.496   2.926
  556SOL    HW1 1691   0.791   2.470   2.850
  556SOL    HW2 1692   0.704   2.592   2.915
  557SOL     OW 1693   0.307   1.925   2.480
  557SOL    HW1 1694   0.296   2.019   2.513
  557SOL    HW2 1695   0.302   1.862   2.557
  558SOL     OW 1696   1.622   2.229   2.236
  558SOL    HW1 1697   1.624   2.153   2.300
  558SOL    HW2 1698   1.574   2.306   2.276
  559SOL     OW 1699   1.023   2.628   2.828
  559SOL    HW1 1700   1.038   2.649   2.924
  559SOL    HW2 1701   0.993   2.533   2.819
  560SOL     OW 1702   1.540   2.136   1.987
  560SOL    HW1 1703   1.479   2.061   2.010
  560SOL    HW2 1704   1.562   2.188   2.070
  561SOL     OW 1705   1.303   2.700   1.904
  561SOL    HW1 1706   1.337   2.607   1.919
  561SOL    HW2 1707   1.321   2.727   1.809
  562SOL     OW 1708   0.319   2.672   2.811
  562SOL    HW1 1709   0.412   2.708   2.816
  562SOL    HW2 1710   0.313   2.587   2.863
  563SOL     OW 1711   0.339   2.371   2.868
  563SOL    HW1 1712   0.287   2.288   2.851
  563SOL    HW2 1713   0.416   2.376   2.804
  564SOL     OW 1714   1.160   2.069   3.339
  564SOL    HW1 1715   1.160   2.133   3.416
  564SOL    HW2 1716   1.188   2.117   3.256
  565SOL     OW 1717   0.008   3.188   2.062
  565SOL    HW1 1718  -0.085   3.209   2.031
  565SOL    HW2 1719   0.018   3.089   2.075
  566SOL     OW 1720   1.002   2.658   3.100
  566SOL    HW1 1721   1.043   2.626   3.186
  566SOL    HW2 1722   0.906   2.631   3.097
  567SOL     OW 1723   0.040   2.406   2.976
  567SOL    HW1 1724   0.125   2.373   2.935
  567SOL    HW2 1725   0.053   2.421   3.074
  568SOL     OW 1726   0.815   2.434   2.187
  568SOL    HW1 1727   0.822   2.345   2.141
  568SOL    HW2 1728   0.721   2.468   2.179
  569SOL     OW 1729   1.657   2.466   3.068
  569SOL    HW1 1730   1.619   2.397   3.130
  569SOL    HW2 1731   1.739   2.430   3.024
  570SOL     OW 1732   0.671   2.326   3.131
  570SOL    HW1 1733   0.637   2.237   3.101
  570SOL    HW2 1734   0.697   2.380   3.051
  571SOL     OW 1735   0.473   2.362   2.053
  571SOL    HW1 1736   0.534   2.442   2.057
  571SOL    HW2 1737   0.378   2.393   2.060
  572SOL     OW 1738   1.347   2.921   3.096
  572SOL    HW1 1739   1.371   2.858   3.022
  572SOL    HW2 1740   1.257   2.961   3.078
  573SOL     OW 1741   1.302   2.717   2.171
  573SOL    HW1 1742   1.216   2.686   2.213
  573SOL    HW2 1743   1.298   2.703   2.072
  574SOL     OW 1744   0.083   3.120   2.884
  574SOL    HW1 1745   0.078   3.119   2.984
  574SOL    HW2 1746   0.000   3.079   2.846
  575SOL     OW 1747   1.726   1.997   2.385
  575SOL    HW1 1748   1.799   1.980   2.318
  575SOL    HW2 1749   1.695   1.910   2.423
  576SOL     OW 1750   1.280   2.789   2.534
  576SOL    HW1 1751   1.340   2.708   2.536
  576SOL    HW2 1752   1.320   2.858   2.474
  577SOL     OW 1753   1.841   2.037   2.825
  577SOL    HW1 1754   1.880   1.952   2.789
  577SOL    HW2 1755   1.743   2.039   2.806
  578SOL     OW 1756   0.263   2.188   2.582
  578SOL    HW1 1757   0.184   2.239   2.548
  578SOL    HW2 1758   0.254   2.173   2.680
  579SOL     OW 1759   0.822   2.864   3.234
  579SOL    HW1 1760   0.862   2.863   3.142
  579SOL    HW2 1761   0.832   2.956   3.274
  580SOL     OW 1762   0.916   2.772   2.153
  580SOL    HW1 1763   0.979   2.810   2.085
  580SOL    HW2 1764   0.956   2.689   2.192
  581SOL     OW 1765   1.614   3.154   3.151
  581SOL    HW1 1766   1.674   3.157   3.231
  581SOL    HW2 1767   1.539   3.218   3.164
  582SOL     OW 1768   1.039   2.960   2.558
  582SOL    HW1 1769   0.969   2.913   2.612
  582SOL    HW2 1770   1.098   2.892   2.515
  583SOL     OW 1771   1.014   2.098   2.833
  583SOL    HW1 1772   1.006   2.062   2.740
  583SOL    HW2 1773   1.012   2.022   2.898
  584SOL     OW 1774   1.709   2.247   3.243
  584SOL    HW1 1775   1.782   2.316   3.247
  584SOL    HW2 1776   1.737   2.172   3.184
  585SOL     OW 1777   0.075   2.207   1.895
  585SOL    HW1 1778  -0.017   2.179   1.866
  585SOL    HW2 1779   0.106   2.284   1.839
  586SOL     OW 1780   0.072   2.028   2.180
  586SOL    HW1 1781   0.055   2.111   2.126
  586SOL    HW2 1782   0.162   1.991   2.158
  587SOL     OW 1783   1.674   2.745   3.116
  587SOL    HW1 1784   1.647   2.656   3.079
  587SOL    HW2 1785   1.675   2.813   3.043
  588SOL     OW 1786   1.225   2.187   2.311
  588SOL    HW1 1787   1.290   2.113   2.300
  588SOL    HW2 1788   1.245   2.237   2.395
  589SOL     OW 1789   0.594   2.607   2.514
  589SOL    HW1 1790   0.644   2.692   2.495
  589SOL    HW2 1791   0.506   2.609   2.466
  590SOL     OW 1792   1.730   2.796   3.379
  590SOL    HW1 1793   1.768   2.887   3.394
  590SOL    HW2 1794   1.722   2.779   3.280
  591SOL     OW 1795   0.859   2.818   2.723
  591SOL    HW1 1796   0.913   2.749   2.771
  591SOL    HW2 1797   0.827   2.887   2.789
  592SOL     OW 1798   1.083   2.846   1.949
  592SOL    HW1 1799   1.060   2.899   1.867
  592SOL    HW2 1800   1.164   2.790   1.930
  593SOL     OW 1801   0.079   3.102   2.515
  593SOL    HW1 1802   0.078   3.055   2.603
  593SOL    HW2 1803   0.161   3.074   2.464
  594SOL     OW 1804   1.824   2.054   3.089
  594SOL    HW1 1805   1.820   1.964   3.133
  594SOL    HW2 1806   1.827   2.043   2.990
  595SOL     OW 1807   0.428   2.286   2.382
  595SOL    HW1 1808   0.458   2.214   2.320
  595SOL    HW2 1809   0.389   2.246   2.465
  596SOL     OW 1810   1.424   2.076   2.974
  596SOL    HW1 1811   1.476   2.011   3.029
  596SOL    HW2 1812   1.375   2.139   3.035
  597SOL     OW 1813   1.001   1.896   3.016
  597SOL    HW1 1814   0.938   1.824   2.985
  597SOL    HW2 1815   1.094   1.860   3.016
  598SOL     OW 1816   0.770   3.192   2.163
  598SOL    HW1 1817   0.724   3.105   2.180
  598SOL    HW2 1818   0.861   3.189   2.204
  599SOL     OW 1819   1.352   1.914   2.030
  599SOL    HW1 1820   1.387   1.873   1.946
  599SOL    HW2 1821   1.262   1.876   2.050
  600SOL     OW 1822   1.300   2.315   2.553
  600SOL    HW1 1823   1.241   2.395   2.557
  600SOL    HW2 1824   1.315   2.280   2.646
  601SOL     OW 1825   1.593   2.083   2.744
  601SOL    HW1 1826   1.509   2.082   2.798
  601SOL    HW2 1827   1.595   2.166   2.688
  602SOL     OW 1828   0.039   2.939   2.162
  602SOL    HW1 1829   0.138   2.928   2.153
  602SOL    HW2 1830  -0.001   2.853   2.194
  603SOL     OW 1831   2.092   0.628   0.113
  603SOL    HW1 1832   1.999   0.626   0.150
  603SOL    HW2 1833   2.093   0.589   0.021
  604SOL     OW 1834   2.087   0.275   0.996
  604SOL    HW1 1835   2.122   0.258   1.088
  604SOL    HW2 1836   1.999   0.230   0.984
  605SOL     OW 1837   1.881   0.368   0.647
  605SOL    HW1 1838   1.799   0.411   0.686
  605SOL    HW2 1839   1.853   0.295   0.584
  606SOL     OW 1840   2.431   1.275   1.165
  606SOL    HW1 1841   2.338   1.268   1.128
  606SOL    HW2 1842   2.442   1.364   1.209
  607SOL     OW 1843   2.997   0.703   0.717
  607SOL    HW1 1844   3.054   0.781   0.692
  607SOL    HW2 1845   2.937   0.729   0.793
  608SOL     OW 1846   2.630   1.144   1.023
  608SOL    HW1 1847   2.552   1.161   1.083
  608SOL    HW2 1848   2.664   1.231   0.987
  609SOL     OW 1849   2.712   0.798   1.823
  609SOL    HW1 1850   2.708   0.874   1.888
  609SOL    HW2 1851   2.734   0.834   1.732
  610SOL     OW 1852   2.547   1.012   0.665
  610SOL    HW1 1853   2.616   0.996   0.735
  610SOL    HW2 1854   2.474   1.069   0.703
  611SOL     OW 1855   2.548   1.161   1.803
  611SOL    HW1 1856   2.608   1.240   1.817
  611SOL    HW2 1857   2.462   1.192   1.762
  612SOL     OW 1858   2.197   1.435   1.061
  612SOL    HW1 1859   2.119   1.404   1.008
  612SOL    HW2 1860   2.255   1.493   1.004
  613SOL     OW 1861   2.300   0.392   1.499
  613SOL    HW1 1862   2.382   0.336   1.508
  613SOL    HW2 1863   2.219   0.334   1.503
  614SOL     OW 1864   2.093   1.713   0.483
  614SOL    HW1 1865   2.127   1.790   0.537
  614SOL    HW2 1866   2.137   1.713   0.393
  615SOL     OW 1867   2.989   1.341   1.690
  615SOL    HW1 1868   3.036   1.341   1.778
  615SOL    HW2 1869   2.941   1.254   1.679
  616SOL     OW 1870   2.092   1.434   0.538
  616SOL    HW1 1871   2.066   1.530   0.538
  616SOL    HW2 1872   2.021   1.380   0.583
  617SOL     OW 1873   2.102   1.091   0.886
  617SOL    HW1 1874   2.116   1.007   0.938
  617SOL    HW2 1875   2.047   1.155   0.941
  618SOL     OW 1876   2.482   1.786   1.439
  618SOL    HW1 1877   2.390   1.769   1.474
  618SOL    HW2 1878   2.510   1.878   1.465
  619SOL     OW 1879   2.468   0.964   0.123
  619SOL    HW1 1880   2.475   1.048   0.069
  619SOL    HW2 1881   2.514   0.977   0.211
  620SOL     OW 1882   1.984   0.643   0.563
  620SOL    HW1 1883   1.939   0.555   0.580
  620SOL    HW2 1884   1.983   0.697   0.647
  621SOL     OW 1885   1.889   1.596   0.117
  621SOL    HW1 1886   1.870   1.500   0.138
  621SOL    HW2 1887   1.856   1.654   0.192
  622SOL     OW 1888   1.975   0.737   1.597
  622SOL    HW1 1889   2.063   0.724   1.642
  622SOL    HW2 1890   1.962   0.834   1.575
  623SOL     OW 1891   2.475   1.365   0.726
  623SOL    HW1 1892   2.426   1.278   0.735
  623SOL    HW2 1893   2.452   1.408   0.639
  624SOL     OW 1894   2.671   0.004   0.502
  624SOL    HW1 1895   2.711   0.095   0.493
  624SOL    HW2 1896   2.571   0.012   0.508
  625SOL     OW 1897   2.059   0.976   1.264
  625SOL    HW1 1898   2.148   0.931   1.250
  625SOL    HW2 1899   1.986   0.911   1.245
  626SOL     OW 1900   2.179   0.251   1.801
  626SOL    HW1 1901   2.250   0.322   1.807
  626SOL    HW2 1902   2.091   0.290   1.829
  627SOL     OW 1903   2.460   0.729   0.270
  627SOL    HW1 1904   2.484   0.798   0.202
  627SOL    HW2 1905   2.382   0.762   0.324
  628SOL     OW 1906   2.669   0.605   1.465
  628SOL    HW1 1907   2.622   0.602   1.554
  628SOL    HW2 1908   2.618   0.550   1.399
  629SOL     OW 1909   2.835   0.890   1.572
  629SOL    HW1 1910   2.881   0.806   1.543
  629SOL    HW2 1911   2.779   0.924   1.497
  630SOL     OW 1912   2.853   0.410   1.242
  630SOL    HW1 1913   2.776   0.444   1.296
  630SOL    HW2 1914   2.819   0.359   1.163
  631SOL     OW 1915   2.903   0.701   0.429
  631SOL    HW1 1916   2.929   0.697   0.525
  631SOL    HW2 1917   2.818   0.650   0.415
  632SOL     OW 1918   1.938   0.811   0.789
  632SOL    HW1 1919   2.037   0.799   0.798
  632SOL    HW2 1920   1.914   0.906   0.810
  633SOL     OW 1921   1.992   1.821   1.571
  633SOL    HW1 1922   1.982   1.806   1.670
  633SOL    HW2 1923   1.906   1.857   1.535
  634SOL     OW 1924   2.727   0.348   0.195
  634SOL    HW1 1925   2.786   0.411   0.146
  634SOL    HW2 1926   2.746   0.254   0.166
  635SOL     OW 1927   2.412   0.196   0.885
  635SOL    HW1 1928   2.407   0.191   0.985
  635SOL    HW2 1929   2.414   0.292   0.856
  636SOL     OW 1930   2.870   1.456   0.477
  636SOL    HW1 1931   2.824   1.528   0.425
  636SOL    HW2 1932   2.866   1.476   0.575
  637SOL     OW 1933   2.213   1.801   0.853
  637SOL    HW1 1934   2.263   1.715   0.859
  637SOL    HW2 1935   2.278   1.878   0.850
  638SOL     OW 1936   3.089   1.550   1.506
  638SOL    HW1 1937   3.095   1.473   1.570
  638SOL    HW2 1938   3.037   1.524   1.426
  639SOL     OW 1939   2.183   0.943   0.242
  639SOL    HW1 1940   2.265   0.982   0.200
  639SOL    HW2 1941   2.156   0.861   0.193
  640SOL     OW 1942   2.323   1.266   1.727
  640SOL    HW1 1943   2.273   1.267   1.641
  640SOL    HW2 1944   2.260   1.248   1.803
  641SOL     OW 1945   2.973   1.776   0.237
  641SOL    HW1 1946   2.913   1.714   0.287
  641SOL    HW2 1947   3.004   1.732   0.152
  642SOL     OW 1948   2.064   0.285   1.498
  642SOL    HW1 1949   1.984   0.345   1.485
  642SOL    HW2 1950   2.054   0.236   1.584
  643SOL     OW 1951   2.326   1.743   0.323
  643SOL    HW1 1952   2.359   1.782   0.409
  643SOL    HW2 1953   2.402   1.736   0.258
  644SOL     OW 1954   2.111   1.785   1.241
  644SOL    HW1 1955   2.168   1.720   1.291
  644SOL    HW2 1956   2.095   1.752   1.148
  645SOL     OW 1957   2.802   1.698   0.904
  645SOL    HW1 1958   2.882   1.641   0.925
  645SOL    HW2 1959   2.753   1.658   0.827
  646SOL     OW 1960   2.244   0.700   0.480
  646SOL    HW1 1961   2.289   0.610   0.477
  646SOL    HW2 1962   2.150   0.689   0.513
  647SOL     OW 1963   2.476   0.122   0.117
  647SOL    HW1 1964   2.574   0.100   0.124
  647SOL    HW2 1965   2.445   0.105   0.024
  648SOL     OW 1966   2.643   0.264   1.749
  648SOL    HW1 1967   2.710   0.203   1.792
  648SOL    HW2 1968   2.570   0.283   1.814
  649SOL     OW 1969   2.750   1.514   1.195
  649SOL    HW1 1970   2.727   1.489   1.101
  649SOL    HW2 1971   2.811   1.445   1.234
  650SOL     OW 1972   2.665   1.402   0.924
  650SOL    HW1 1973   2.755   1.416   0.882
  650SOL    HW2 1974   2.594   1.404   0.853
  651SOL     OW 1975   2.784   0.503   0.899
  651SOL    HW1 1976   2.759   0.494   0.803
  651SOL    HW2 1977   2.832   0.421   0.930
  652SOL     OW 1978   2.401   0.064   0.512
  652SOL    HW1 1979   2.320   0.065   0.570
  652SOL    HW2 1980   2.404   0.147   0.457
  653SOL     OW 1981   2.159   0.035   0.171
  653SOL    HW1 1982   2.208   0.119   0.150
  653SOL    HW2 1983   2.221  -0.030   0.216
  654SOL     OW 1984   2.797   0.236   0.480
  654SOL    HW1 1985   2.749   0.277   0.402
  654SOL    HW2 1986   2.896   0.234   0.461
  655SOL     OW 1987   2.938   0.683   1.464
  655SOL    HW1 1988   2.858   0.622   1.467
  655SOL    HW2 1989   3.019   0.630   1.440
  656SOL     OW 1990   3.089   1.570   0.793
  656SOL    HW1 1991   3.110   1.644   0.728
  656SOL    HW2 1992   3.157   1.570   0.866
  657SOL     OW 1993   2.321   1.152   0.741
  657SOL    HW1 1994   2.250   1.125   0.806
  657SOL    HW2 1995   2.295   1.124   0.648
  658SOL     OW 1996   3.133   1.797   0.591
  658SOL    HW1 1997   3.177   1.861   0.527
  658SOL    HW2 1998   3.083   1.849   0.661
  659SOL     OW 1999   2.894   0.549   0.016
  659SOL    HW1 2000   2.853   0.631  -0.023
  659SOL    HW2 2001   2.958   0.575   0.089
  660SOL     OW 2002   1.940   0.556   1.386
  660SOL    HW1 2003   2.032   0.555   1.345
  660SOL    HW2 2004   1.934   0.630   1.453
  661SOL     OW 2005   2.423   0.222   1.147
  661SOL    HW1 2006   2.461   0.138   1.184
  661SOL    HW2 2007   2.335   0.241   1.191
  662SOL     OW 2008   2.728   0.454   0.642
  662SOL    HW1 2009   2.696   0.526   0.580
  662SOL    HW2 2010   2.752   0.373   0.589
  663SOL     OW 2011   2.879   0.039   0.753
  663SOL    HW1 2012   2.807   0.044   0.684
  663SOL    HW2 2013   2.855  -0.030   0.822
  664SOL     OW 2014   2.350   1.385   0.174
  664SOL    HW1 2015   2.263   1.370   0.221
  664SOL    HW2 2016   2.333   1.411   0.079
  665SOL     OW 2017   2.389   0.256   0.328
  665SOL    HW1 2018   2.416   0.197   0.253
  665SOL    HW2 2019   2.389   0.351   0.297
  666SOL     OW 2020   2.926   1.347   1.340
  666SOL    HW1 2021   2.846   1.324   1.395
  666SOL    HW2 2022   3.009   1.321   1.389
  667SOL     OW 2023   2.973   1.195   1.100
  667SOL    HW1 2024   2.933   1.239   1.181
  667SOL    HW2 2025   2.932   1.232   1.017
  668SOL     OW 2026   2.777   0.089   1.402
  668SOL    HW1 2027   2.802   0.069   1.307
  668SOL    HW2 2028   2.849   0.145   1.444
  669SOL     OW 2029   2.842   1.116   1.719
  669SOL    HW1 2030   2.743   1.122   1.729
  669SOL    HW2 2031   2.865   1.036   1.663
  670SOL     OW 2032   2.567   1.050   0.368
  670SOL    HW1 2033   2.553   1.057   0.467
  670SOL    HW2 2034   2.651   0.999   0.350
  671SOL     OW 2035   2.272   0.813   1.251
  671SOL    HW1 2036   2.358   0.825   1.301
  671SOL    HW2 2037   2.230   0.726   1.278
  672SOL     OW 2038   1.926   1.564   1.331
  672SOL    HW1 2039   1.880   1.646   1.297
  672SOL    HW2 2040   2.024   1.583   1.340
  673SOL     OW 2041   2.229   1.100   0.501
  673SOL    HW1 2042   2.222   1.183   0.445
  673SOL    HW2 2043   2.233   1.020   0.441
  674SOL     OW 2044   2.428   0.537   0.865
  674SOL    HW1 2045   2.440   0.603   0.791
  674SOL    HW2 2046   2.474   0.571   0.948
  675SOL     OW 2047   3.114   1.348   0.388
  675SOL    HW1 2048   3.164   1.425   0.428
  675SOL    HW2 2049   3.019   1.350   0.420
  676SOL     OW 2050   2.216   1.510   1.329
  676SOL    HW1 2051   2.195   1.466   1.242
  676SOL    HW2 2052   2.313   1.536   1.332
  677SOL     OW 2053   2.264   0.751   1.598
  677SOL    HW1 2054   2.332   0.806   1.551
  677SOL    HW2 2055   2.304   0.663   1.625
  678SOL     OW 2056   2.875   0.105   1.770
  678SOL    HW1 2057   2.881   0.190   1.718
  678SOL    HW2 2058   2.907   0.029   1.713
  679SOL     OW 2059   2.366   0.050   1.740
  679SOL    HW1 2060   2.324  -0.007   1.670
  679SOL    HW2 2061   2.300   0.119   1.772
  680SOL     OW 2062   2.435   0.870   1.029
  680SOL    HW1 2063   2.479   0.959   1.020
  680SOL    HW2 2064   2.372   0.870   1.106
  681SOL     OW 2065   3.222   0.862   1.045
  681SOL    HW1 2066   3.147   0.862   0.979
  681SOL    HW2 2067   3.259   0.770   1.054
  682SOL     OW 2068   3.071   0.525   0.275
  682SOL    HW1 2069   3.084   0.441   0.329
  682SOL    HW2 2070   3.042   0.599   0.335
  683SOL     OW 2071   2.169   0.213   1.231
  683SOL    HW1 2072   2.146   0.250   1.321
  683SOL    HW2 2073   2.139   0.118   1.225
  684SOL     OW 2074   1.899   1.310   1.282
  684SOL    HW1 2075   1.952   1.261   1.350
  684SOL    HW2 2076   1.921   1.408   1.287
  685SOL     OW 2077   2.594   0.634   1.064
  685SOL    HW1 2078   2.653   0.608   0.988
  685SOL    HW2 2079   2.566   0.730   1.053
  686SOL     OW 2080   2.169   0.063   0.618
  686SOL    HW1 2081   2.158   0.157   0.651
  686SOL    HW2 2082   2.164   0.000   0.695
  687SOL     OW 2083   2.885   0.766   0.966
  687SOL    HW1 2084   2.900   0.787   1.062
  687SOL    HW2 2085   2.855   0.671   0.957
  688SOL     OW 2086   2.842   1.573   1.700
  688SOL    HW1 2087   2.822   1.617   1.612
  688SOL    HW2 2088   2.881   1.482   1.684
  689SOL     OW 2089   2.212   0.898   1.804
  689SOL    HW1 2090   2.288   0.942   1.852
  689SOL    HW2 2091   2.247   0.851   1.722
  690SOL     OW 2092   2.930   1.333   0.849
  690SOL    HW1 2093   2.937   1.249   0.794
  690SOL    HW2 2094   2.992   1.402   0.813
  691SOL     OW 2095   2.181   0.810   0.949
  691SOL    HW1 2096   2.274   0.846   0.954
  691SOL    HW2 2097   2.175   0.725   1.001
  692SOL     OW 2098   2.201   0.509   1.006
  692SOL    HW1 2099   2.149   0.426   0.989
  692SOL    HW2 2100   2.278   0.514   0.942
  693SOL     OW 2101   3.000   0.380   1.678
  693SOL    HW1 2102   2.955   0.443   1.742
  693SOL    HW2 2103   3.093   0.411   1.661
  694SOL     OW 2104   3.022   0.207   1.477
  694SOL    HW1 2105   3.022   0.271   1.554
  694SOL    HW2 2106   3.050   0.255   1.394
  695SOL     OW 2107   1.870   1.326   0.200
  695SOL    HW1 2108   1.777   1.347   0.169
  695SOL    HW2 2109   1.880   1.227   0.213
  696SOL     OW 2110   1.950   1.801   0.927
  696SOL    HW1 2111   1.908   1.715   0.900
  696SOL    HW2 2112   2.044   1.804   0.893
  697SOL     OW 2113   2.366   1.568   0.910
  697SOL    HW1 2114   2.432   1.642   0.919
  697SOL    HW2 2115   2.410   1.489   0.868
  698SOL     OW 2116   2.864   0.796   1.238
  698SOL    HW1 2117   2.905   0.764   1.324
  698SOL    HW2 2118   2.768   0.769   1.235
  699SOL     OW 2119   1.902   0.544   1.114
  699SOL    HW1 2120   1.987   0.511   1.073
  699SOL    HW2 2121   1.915   0.559   1.212
  700SOL     OW 2122   2.051   0.520   1.722
  700SOL    HW1 2123   2.110   0.480   1.652
  700SOL    HW2 2124   1.993   0.591   1.681
  701SOL     OW 2125   2.677   0.572   0.325
  701SOL    HW1 2126   2.684   0.483   0.279
  701SOL    HW2 2127   2.583   0.606   0.317
  702SOL     OW 2128   2.114   1.564   1.744
  702SOL    HW1 2129   2.084   1.621   1.820
  702SOL    HW2 2130   2.107   1.467   1.770
  703SOL     OW 2131   2.533   0.464   1.269
  703SOL    HW1 2132   2.499   0.375   1.239
  703SOL    HW2 2133   2.559   0.518   1.189
  704SOL     OW 2134   2.792   1.678   1.465
  704SOL    HW1 2135   2.768   1.660   1.370
  704SOL    HW2 2136   2.822   1.772   1.475
  705SOL     OW 2137   2.335   0.500   0.191
  705SOL    HW1 2138   2.396   0.580   0.195
  705SOL    HW2 2139   2.240   0.531   0.198
  706SOL     OW 2140   2.021   1.137   1.466
  706SOL    HW1 2141   2.043   1.076   1.542
  706SOL    HW2 2142   2.031   1.088   1.380
  707SOL     OW 2143   3.114   1.731   1.128
  707SOL    HW1 2144   3.198   1.736   1.074
  707SOL    HW2 2145   3.091   1.635   1.146
  708SOL     OW 2146   1.945   1.258   1.022
  708SOL    HW1 2147   1.940   1.257   1.122
  708SOL    HW2 2148   1.862   1.217   0.984
  709SOL     OW 2149   2.550   1.662   1.716
  709SOL    HW1 2150   2.494   1.743   1.725
  709SOL    HW2 2151   2.602   1.666   1.630
  710SOL     OW 2152   2.765   0.086   0.133
  710SOL    HW1 2153   2.816   0.087   0.047
  710SOL    HW2 2154   2.821   0.044   0.204
  711SOL     OW 2155   1.992   1.794   1.851
  711SOL    HW1 2156   1.951   1.720   1.904
  711SOL    HW2 2157   2.056   1.845   1.909
  712SOL     OW 2158   2.692   1.273   1.422
  712SOL    HW1 2159   2.687   1.306   1.517
  712SOL    HW2 2160   2.606   1.292   1.376
  713SOL     OW 2161   2.534   1.616   0.154
  713SOL    HW1 2162   2.543   1.626   0.055
  713SOL    HW2 2163   2.494   1.527   0.175
  714SOL     OW 2164   2.125   0.326   0.720
  714SOL    HW1 2165   2.046   0.377   0.686
  714SOL    HW2 2166   2.116   0.311   0.818
  715SOL     OW 2167   2.684   1.002   1.372
  715SOL    HW1 2168   2.724   1.001   1.280
  715SOL    HW2 2169   2.694   1.094   1.412
  716SOL     OW 2170   2.778   0.910   0.291
  716SOL    HW1 2171   2.841   0.948   0.223
  716SOL    HW2 2172   2.818   0.827   0.330
  717SOL     OW 2173   2.234   1.288   1.490
  717SOL    HW1 2174   2.221   1.381   1.456
  717SOL    HW2 2175   2.150   1.236   1.477
  718SOL     OW 2176   2.901   1.098   0.696
  718SOL    HW1 2177   2.831   1.051   0.750
  718SOL    HW2 2178   2.960   1.030   0.653
  719SOL     OW 2179   2.876   0.236   0.971
  719SOL    HW1 2180   2.868   0.200   0.878
  719SOL    HW2 2181   2.874   0.160   1.036
  720SOL     OW 2182   2.452   1.487   0.491
  720SOL    HW1 2183   2.494   1.429   0.421
  720SOL    HW2 2184   2.408   1.566   0.447
  721SOL     OW 2185   2.117   1.348   0.290
  721SOL    HW1 2186   2.021   1.349   0.263
  721SOL    HW2 2187   2.129   1.401   0.374
  722SOL     OW 2188   1.967   1.013   1.726
  722SOL    HW1 2189   1.890   0.980   1.780
  722SOL    HW2 2190   2.052   0.983   1.768
  723SOL     OW 2191   2.534   0.203   1.489
  723SOL    HW1 2192   2.624   0.187   1.449
  723SOL    HW2 2193   2.542   0.208   1.588
  724SOL     OW 2194   1.934   0.166   0.318
  724SOL    HW1 2195   1.917   0.249   0.264
  724SOL    HW2 2196   2.024   0.129   0.296
  725SOL     OW 2197   2.475   0.842   1.431
  725SOL    HW1 2198   2.531   0.923   1.414
  725SOL    HW2 2199   2.534   0.762   1.434
  726SOL     OW 2200   2.578   0.565   1.708
  726SOL    HW1 2201   2.597   0.630   1.782
  726SOL    HW2 2202   2.638   0.485   1.717
  727SOL     OW 2203   2.252   1.741   1.560
  727SOL    HW1 2204   2.161   1.782   1.558
  727SOL    HW2 2205   2.245   1.647   1.592
  728SOL     OW 2206   2.456   0.745   0.652
  728SOL    HW1 2207   2.506   0.830   0.633
  728SOL    HW2 2208   2.368   0.747   0.604
  729SOL     OW 2209   2.721   1.374   0.016
  729SOL    HW1 2210   2.675   1.389   0.104
  729SOL    HW2 2211   2.765   1.459  -0.014
  730SOL     OW 2212   2.523   1.790   0.953
  730SOL    HW1 2213   2.477   1.878   0.940
  730SOL    HW2 2214   2.622   1.802   0.946
  731SOL     OW 2215   2.721   0.956   0.861
  731SOL    HW1 2216   2.775   0.887   0.909
  731SOL    HW2 2217   2.689   1.025   0.927
  732SOL     OW 2218   2.945   0.984   0.087
  732SOL    HW1 2219   2.922   1.037   0.005
  732SOL    HW2 2220   3.026   0.928   0.068
  733SOL     OW 2221   2.083   1.314   1.844
  733SOL    HW1 2222   2.018   1.241   1.823
  733SOL    HW2 2223   2.087   1.328   1.942
  734SOL     OW 2224   1.941   1.240   0.653
  734SOL    HW1 2225   1.940   1.193   0.741
  734SOL    HW2 2226   2.023   1.212   0.602
  735SOL     OW 2227   2.534   1.391   1.624
  735SOL    HW1 2228   2.456   1.341   1.662
  735SOL    HW2 2229   2.531   1.486   1.655
  736SOL     OW 2230   2.290   0.424   0.520
  736SOL    HW1 2231   2.320   0.352   0.458
  736SOL    HW2 2232   2.251   0.384   0.603
  737SOL     OW 2233   2.179   0.547   1.280
  737SOL    HW1 2234   2.217   0.488   1.352
  737SOL    HW2 2235   2.219   0.521   1.192
  738SOL     OW 2236   2.674   1.586   0.687
  738SOL    HW1 2237   2.706   1.596   0.593
  738SOL    HW2 2238   2.595   1.524   0.689
  739SOL     OW 2239   2.863   0.034   1.154
  739SOL    HW1 2240   2.800  -0.038   1.123
  739SOL    HW2 2241   2.956  -0.002   1.154
  740SOL     OW 2242   2.632   1.330   0.301
  740SOL    HW1 2243   2.586   1.243   0.318
  740SOL    HW2 2244   2.723   1.327   0.342
  741SOL     OW 2245   2.480   1.567   1.284
  741SOL    HW1 2246   2.475   1.649   1.341
  741SOL    HW2 2247   2.569   1.564   1.239
  742SOL     OW 2248   1.901   1.077   0.300
  742SOL    HW1 2249   2.000   1.066   0.291
  742SOL    HW2 2250   1.861   0.991   0.332
  743SOL     OW 2251   2.737   1.646   0.337
  743SOL    HW1 2252   2.660   1.611   0.283
  743SOL    HW2 2253   2.705   1.717   0.399
  744SOL     OW 2254   2.092   0.628   1.975
  744SOL    HW1 2255   1.999   0.626   2.012
  744SOL    HW2 2256   2.093   0.589   1.883
  745SOL     OW 2257   2.087   0.275   2.858
  745SOL    HW1 2258   2.122   0.258   2.950
  745SOL    HW2 2259   1.999   0.230   2.846
  746SOL     OW 2260   1.881   0.368   2.509
  746SOL    HW1 2261   1.799   0.411   2.548
  746SOL    HW2 2262   1.853   0.295   2.446
  747SOL     OW 2263   2.431   1.275   3.027
  747SOL    HW1 2264   2.338   1.268   2.990
  747SOL    HW2 2265   2.442   1.364   3.071
  748SOL     OW 2266   2.997   0.703   2.579
  748SOL    HW1 2267   3.054   0.781   2.554
  748SOL    HW2 2268   2.937   0.729   2.655
  749SOL     OW 2269   2.630   1.144   2.885
  749SOL    HW1 2270   2.552   1.161   2.945
  749SOL    HW2 2271   2.664   1.231   2.849
  750SOL     OW 2272   2.547   1.012   2.527
  750SOL    HW1 2273   2.616   0.996   2.597
  750SOL    HW2 2274   2.474   1.069   2.565
  751SOL     OW 2275   2.197   1.435   2.923
  751SOL    HW1 2276   2.119   1.404   2.870
  751SOL    HW2 2277   2.255   1.493   2.866
  752SOL     OW 2278   2.093   1.713   2.345
  752SOL    HW1 2279   2.127   1.790   2.399
  752SOL    HW2 2280   2.137   1.713   2.255
  753SOL     OW 2281   2.092   1.434   2.400
  753SOL    HW1 2282   2.066   1.530   2.400
  753SOL    HW2 2283   2.021   1.380   2.445
  754SOL     OW 2284   2.102   1.091   2.748
  754SOL    HW1 2285   2.116   1.007   2.800
  754SOL    HW2 2286   2.047   1.155   2.803
  755SOL     OW 2287   2.468   0.964   1.985
  755SOL    HW1 2288   2.475   1.048   1.931
  755SOL    HW2 2289   2.514   0.977   2.073
  756SOL     OW 2290   1.984   0.643   2.425
  756SOL    HW1 2291   1.939   0.555   2.442
  756SOL    HW2 2292   1.983   0.697   2.509
  757SOL     OW 2293   1.889   1.596   1.979
  757SOL    HW1 2294   1.870   1.500   2.000
  757SOL    HW2 2295   1.856   1.654   2.054
  758SOL     OW 2296   2.475   1.365   2.588
  758SOL    HW1 2297   2.426   1.278   2.597
  758SOL    HW2 2298   2.452   1.408   2.501
  759SOL     OW 2299   2.671   0.004   2.364
  759SOL    HW1 2300   2.711   0.095   2.355
  759SOL    HW2 2301   2.571   0.012   2.370
  760SOL     OW 2302   2.059   0.976   3.126
  760SOL    HW1 2303   2.148   0.931   3.112
  760SOL    HW2 2304   1.986   0.911   3.107
  761SOL     OW 2305   2.460   0.729   2.132
  761SOL    HW1 2306   2.484   0.798   2.064
  761SOL    HW2 2307   2.382   0.762   2.186
  762SOL     OW 2308   2.903   0.701   2.291
  762SOL    HW1 2309   2.929   0.697   2.387
  762SOL    HW2 2310   2.818   0.650   2.277
  763SOL     OW 2311   1.938   0.811   2.651
  763SOL    HW1 2312   2.037   0.799   2.660
  763SOL    HW2 2313   1.914   0.906   2.672
  764SOL     OW 2314   2.727   0.348   2.057
  764SOL    HW1 2315   2.786   0.411   2.008
  764SOL    HW2 2316   2.746   0.254   2.028
  765SOL     OW 2317   2.412   0.196   2.747
  765SOL    HW1 2318   2.407   0.191   2.847
  765SOL    HW2 2319   2.414   0.292   2.718
  766SOL     OW 2320   2.870   1.456   2.339
  766SOL    HW1 2321   2.824   1.528   2.287
  766SOL    HW2 2322   2.866   1.476   2.437
  767SOL     OW 2323   2.213   1.801   2.715
  767SOL    HW1 2324   2.263   1.715   2.721
  767SOL    HW2 2325   2.278   1.878   2.712
  768SOL     OW 2326   2.183   0.943   2.104
  768SOL    HW1 2327   2.265   0.982   2.062
  768SOL    HW2 2328   2.156   0.861   2.055
  769SOL     OW 2329   2.973   1.776   2.099
  769SOL    HW1 2330   2.913   1.714   2.149
  769SOL    HW2 2331   3.004   1.732   2.014
  770SOL     OW 2332   2.326   1.743   2.185
  770SOL    HW1 2333   2.359   1.782   2.271
  770SOL    HW2 2334   2.402   1.736   2.120
  771SOL     OW 2335   2.111   1.785   3.103
  771SOL    HW1 2336   2.168   1.720   3.153
  771SOL    HW2 2337   2.095   1.752   3.010
  772SOL     OW 2338   2.802   1.698   2.766
  772SOL    HW1 2339   2.882   1.641   2.787
  772SOL    HW2 2340   2.753   1.658   2.689
  773SOL     OW 2341   2.244   0.700   2.342
  773SOL    HW1 2342   2.289   0.610   2.339
  773SOL    HW2 2343   2.150   0.689   2.375
  774SOL     OW 2344   2.476   0.122   1.979
  774SOL    HW1 2345   2.574   0.100   1.986
  774SOL    HW2 2346   2.445   0.105   1.886
  775SOL     OW 2347   2.665   1.402   2.786
  775SOL    HW1 2348   2.755   1.416   2.744
  775SOL    HW2 2349   2.594   1.404   2.715
  776SOL     OW 2350   2.784   0.503   2.761
  776SOL    HW1 2351   2.759   0.494   2.665
  776SOL    HW2 2352   2.832   0.421   2.792
  777SOL     OW 2353   2.401   0.064   2.374
  777SOL    HW1 2354   2.320   0.065   2.432
  777SOL    HW2 2355   2.404   0.147   2.319
  778SOL     OW 2356   2.159   0.035   2.033
  778SOL    HW1 2357   2.208   0.119   2.012
  778SOL    HW2 2358   2.221  -0.030   2.078
  779SOL     OW 2359   2.797   0.236   2.342
  779SOL    HW1 2360   2.749   0.277   2.264
  779SOL    HW2 2361   2.896   0.234   2.323
  780SOL     OW 2362   3.089   1.570   2.655
  780SOL    HW1 2363   3.110   1.644   2.590
  780SOL    HW2 2364   3.157   1.570   2.728
  781SOL     OW 2365   2.321   1.152   2.603
  781SOL    HW1 2366   2.250   1.125   2.668
  781SOL    HW2 2367   2.295   1.124   2.510
  782SOL     OW 2368   3.133   1.797   2.453
  782SOL    HW1 2369   3.177   1.861   2.389
  782SOL    HW2 2370   3.083   1.849   2.523
  783SOL     OW 2371   2.894   0.549   1.878
  783SOL    HW1 2372   2.853   0.631   1.839
  783SOL    HW2 2373   2.958   0.575   1.951
  784SOL     OW 2374   2.423   0.222   3.009
  784SOL    HW1 2375   2.461   0.138   3.046
  784SOL    HW2 2376   2.335   0.241   3.053
  785SOL     OW 2377   2.728   0.454   2.504
  785SOL    HW1 2378   2.696   0.526   2.442
  785SOL    HW2 2379   2.752   0.373   2.451
  786SOL     OW 2380   2.879   0.039   2.615
  786SOL    HW1 2381   2.807   0.044   2.546
  786SOL    HW2 2382   2.855  -0.030   2.684
  787SOL     OW 2383   2.350   1.385   2.036
  787SOL    HW1 2384   2.263   1.370   2.083
  787SOL    HW2 2385   2.333   1.411   1.941
  788SOL     OW 2386   2.389   0.256   2.190
  788SOL    HW1 2387   2.416   0.197   2.115
  788SOL    HW2 2388   2.389   0.351   2.159
  789SOL     OW 2389   2.973   1.195   2.962
  789SOL    HW1 2390   2.933   1.239   3.043
  789SOL    HW2 2391   2.932   1.232   2.879
  790SOL     OW 2392   2.567   1.050   2.230
  790SOL    HW1 2393   2.553   1.057   2.329
  790SOL    HW2 2394   2.651   0.999   2.212
  791SOL     OW 2395   2.272   0.813   3.113
  791SOL    HW1 2396   2.358   0.825   3.163
  791SOL    HW2 2397   2.230   0.726   3.140
  792SOL     OW 2398   2.229   1.100   2.363
  792SOL    HW1 2399   2.222   1.183   2.307
  792SOL    HW2 2400   2.233   1.020   2.303
  793SOL     OW 2401   2.428   0.537   2.727
  793SOL    HW1 2402   2.440   0.603   2.653
  793SOL    HW2 2403   2.474   0.571   2.810
  794SOL     OW 2404   3.114   1.348   2.250
  794SOL    HW1 2405   3.164   1.425   2.290
  794SOL    HW2 2406   3.019   1.350   2.282
  795SOL     OW 2407   2.435   0.870   2.891
  795SOL    HW1 2408   2.479   0.959   2.882
  795SOL    HW2 2409   2.372   0.870   2.968
  796SOL     OW 2410   3.222   0.862   2.907
  796SOL    HW1 2411   3.147   0.862   2.841
  796SOL    HW2 2412   3.259   0.770   2.916
  797SOL     OW 2413   3.071   0.525   2.137
  797SOL    HW1 2414   3.084   0.441   2.191
  797SOL    HW2 2415   3.042   0.599   2.197
  798SOL     OW 2416   2.169   0.213   3.093
  798SOL    HW1 2417   2.146   0.250   3.183
  798SOL    HW2 2418   2.139   0.118   3.087
  799SOL     OW 2419   1.899   1.310   3.144
  799SOL    HW1 2420   1.952   1.261   3.212
  799SOL    HW2 2421   1.921   1.408   3.149
  800SOL     OW 2422   2.594   0.634   2.926
  800SOL    HW1 2423   2.653   0.608   2.850
  800SOL    HW2 2424   2.566   0.730   2.915
  801SOL     OW 2425   2.169   0.063   2.480
  801SOL    HW1 2426   2.158   0.157   2.513
  801SOL    HW2 2427   2.164   0.000   2.557
  802SOL     OW 2428   2.885   0.766   2.828
  802SOL    HW1 2429   2.900   0.787   2.924
  802SOL    HW2 2430   2.855   0.671   2.819
  803SOL     OW 2431   3.402   0.274   1.987
  803SOL    HW1 2432   3.341   0.199   2.010
  803SOL    HW2 2433   3.424   0.326   2.070
  804SOL     OW 2434   2.930   1.333   2.711
  804SOL    HW1 2435   2.937   1.249   2.656
  804SOL    HW2 2436   2.992   1.402   2.675
  805SOL     OW 2437   2.181   0.810   2.811
  805SOL    HW1 2438   2.274   0.846   2.816
  805SOL    HW2 2439   2.175   0.725   2.863
  806SOL     OW 2440   2.201   0.509   2.868
  806SOL    HW1 2441   2.149   0.426   2.851
  806SOL    HW2 2442   2.278   0.514   2.804
  807SOL     OW 2443   3.022   0.207   3.339
  807SOL    HW1 2444   3.022   0.271   3.416
  807SOL    HW2 2445   3.050   0.255   3.256
  808SOL     OW 2446   1.870   1.326   2.062
  808SOL    HW1 2447   1.777   1.347   2.031
  808SOL    HW2 2448   1.880   1.227   2.075
  809SOL     OW 2449   1.950   1.801   2.789
  809SOL    HW1 2450   1.908   1.715   2.762
  809SOL    HW2 2451   2.044   1.804   2.755
  810SOL     OW 2452   2.366   1.568   2.772
  810SOL    HW1 2453   2.432   1.642   2.781
  810SOL    HW2 2454   2.410   1.489   2.730
  811SOL     OW 2455   2.864   0.796   3.100
  811SOL    HW1 2456   2.905   0.764   3.186
  811SOL    HW2 2457   2.768   0.769   3.097
  812SOL     OW 2458   1.902   0.544   2.976
  812SOL    HW1 2459   1.987   0.511   2.935
  812SOL    HW2 2460   1.915   0.559   3.074
  813SOL     OW 2461   2.677   0.572   2.187
  813SOL    HW1 2462   2.684   0.483   2.141
  813SOL    HW2 2463   2.583   0.606   2.179
  814SOL     OW 2464   2.533   0.464   3.131
  814SOL    HW1 2465   2.499   0.375   3.101
  814SOL    HW2 2466   2.559   0.518   3.051
  815SOL     OW 2467   2.792   1.678   3.327
  815SOL    HW1 2468   2.768   1.660   3.232
  815SOL    HW2 2469   2.822   1.772   3.337
  816SOL     OW 2470   2.335   0.500   2.053
  816SOL    HW1 2471   2.396   0.580   2.057
  816SOL    HW2 2472   2.240   0.531   2.060
  817SOL     OW 2473   3.114   1.731   2.990
  817SOL    HW1 2474   3.198   1.736   2.936
  817SOL    HW2 2475   3.091   1.635   3.008
  818SOL     OW 2476   1.945   1.258   2.884
  818SOL    HW1 2477   1.940   1.257   2.984
  818SOL    HW2 2478   1.862   1.217   2.846
  819SOL     OW 2479   2.534   1.616   2.016
  819SOL    HW1 2480   2.543   1.626   1.917
  819SOL    HW2 2481   2.494   1.527   2.037
  820SOL     OW 2482   2.125   0.326   2.582
  820SOL    HW1 2483   2.046   0.377   2.548
  820SOL    HW2 2484   2.116   0.311   2.680
  821SOL     OW 2485   2.684   1.002   3.234
  821SOL    HW1 2486   2.724   1.001   3.142
  821SOL    HW2 2487   2.694   1.094   3.274
  822SOL     OW 2488   2.778   0.910   2.153
  822SOL    HW1 2489   2.841   0.948   2.085
  822SOL    HW2 2490   2.818   0.827   2.192
  823SOL     OW 2491   3.476   1.292   3.151
  823SOL    HW1 2492   3.536   1.295   3.231
  823SOL    HW2 2493   3.401   1.356   3.164
  824SOL     OW 2494   2.901   1.098   2.558
  824SOL    HW1 2495   2.831   1.051   2.612
  824SOL    HW2 2496   2.960   1.030   2.515
  825SOL     OW 2497   2.876   0.236   2.833
  825SOL    HW1 2498   2.868   0.200   2.740
  825SOL    HW2 2499   2.874   0.160   2.898
  826SOL     OW 2500   2.452   1.487   2.353
  826SOL    HW1 2501   2.494   1.429   2.283
  826SOL    HW2 2502   2.408   1.566   2.309
  827SOL     OW 2503   2.117   1.348   2.152
  827SOL    HW1 2504   2.021   1.349   2.125
  827SOL    HW2 2505   2.129   1.401   2.236
  828SOL     OW 2506   1.937   0.345   1.895
  828SOL    HW1 2507   1.845   0.317   1.866
  828SOL    HW2 2508   1.968   0.422   1.839
  829SOL     OW 2509   1.934   0.166   2.180
  829SOL    HW1 2510   1.917   0.249   2.126
  829SOL    HW2 2511   2.024   0.129   2.158
  830SOL     OW 2512   2.456   0.745   2.514
  830SOL    HW1 2513   2.506   0.830   2.495
  830SOL    HW2 2514   2.368   0.747   2.466
  831SOL     OW 2515   2.721   1.374   1.878
  831SOL    HW1 2516   2.675   1.389   1.966
  831SOL    HW2 2517   2.765   1.459   1.848
  832SOL     OW 2518   2.523   1.790   2.815
  832SOL    HW1 2519   2.477   1.878   2.802
  832SOL    HW2 2520   2.622   1.802   2.808
  833SOL     OW 2521   2.721   0.956   2.723
  833SOL    HW1 2522   2.775   0.887   2.771
  833SOL    HW2 2523   2.689   1.025   2.789
  834SOL     OW 2524   2.945   0.984   1.949
  834SOL    HW1 2525   2.922   1.037   1.867
  834SOL    HW2 2526   3.026   0.928   1.930
  835SOL     OW 2527   1.941   1.240   2.515
  835SOL    HW1 2528   1.940   1.193   2.603
  835SOL    HW2 2529   2.023   1.212   2.464
  836SOL     OW 2530   2.290   0.424   2.382
  836SOL    HW1 2531   2.320   0.352   2.320
  836SOL    HW2 2532   2.251   0.384   2.465
  837SOL     OW 2533   2.674   1.586   2.549
  837SOL    HW1 2534   2.706   1.596   2.455
  837SOL    HW2 2535   2.595   1.524   2.551
  838SOL     OW 2536   2.863   0.034   3.016
  838SOL    HW1 2537   2.800  -0.038   2.985
  838SOL    HW2 2538   2.956  -0.002   3.016
  839SOL     OW 2539   2.632   1.330   2.163
  839SOL    HW1 2540   2.586   1.243   2.180
  839SOL    HW2 2541   2.723   1.327   2.204
  840SOL     OW 2542   1.901   1.077   2.162
  840SOL    HW1 2543   2.000   1.066   2.153
  840SOL    HW2 2544   1.861   0.991   2.194
  841SOL     OW 2545   2.737   1.646   2.199
  841SOL    HW1 2546   2.660   1.611   2.145
  841SOL    HW2 2547   2.705   1.717   2.261
  842SOL     OW 2548   2.092   2.490   0.113
  842SOL    HW1 2549   1.999   2.488   0.150
  842SOL    HW2 2550   2.093   2.451   0.021
  843SOL     OW 2551   2.087   2.137   0.996
  843SOL    HW1 2552   2.122   2.120   1.088
  843SOL    HW2 2553   1.999   2.092   0.984
  844SOL     OW 2554   1.881   2.230   0.647
  844SOL    HW1 2555   1.799   2.273   0.686
  844SOL    HW2 2556   1.853   2.157   0.584
  845SOL     OW 2557   2.997   2.565   0.717
  845SOL    HW1 2558   3.054   2.643   0.692
  845SOL    HW2 2559   2.937   2.591   0.793
  846SOL     OW 2560   2.630   3.006   1.023
  846SOL    HW1 2561   2.552   3.023   1.083
  846SOL    HW2 2562   2.664   3.093   0.987
  847SOL     OW 2563   2.712   2.660   1.823
  847SOL    HW1 2564   2.708   2.736   1.888
  847SOL    HW2 2565   2.734   2.696   1.732
  848SOL     OW 2566   2.547   2.874   0.665
  848SOL    HW1 2567   2.616   2.858   0.735
  848SOL    HW2 2568   2.474   2.931   0.703
  849SOL     OW 2569   2.548   3.023   1.803
  849SOL    HW1 2570   2.608   3.102   1.817
  849SOL    HW2 2571   2.462   3.054   1.762
  850SOL     OW 2572   2.300   2.254   1.499
  850SOL    HW1 2573   2.382   2.198   1.508
  850SOL    HW2 2574   2.219   2.196   1.503
  851SOL     OW 2575   2.102   2.953   0.886
  851SOL    HW1 2576   2.116   2.869   0.938
  851SOL    HW2 2577   2.047   3.017   0.941
  852SOL     OW 2578   2.468   2.826   0.123
  852SOL    HW1 2579   2.475   2.910   0.069
  852SOL    HW2 2580   2.514   2.839   0.211
  853SOL     OW 2581   1.984   2.505   0.563
  853SOL    HW1 2582   1.939   2.417   0.580
  853SOL    HW2 2583   1.983   2.559   0.647
  854SOL     OW 2584   1.889   3.458   0.117
  854SOL    HW1 2585   1.870   3.362   0.138
  854SOL    HW2 2586   1.856   3.516   0.192
  855SOL     OW 2587   1.975   2.599   1.597
  855SOL    HW1 2588   2.063   2.586   1.642
  855SOL    HW2 2589   1.962   2.696   1.575
  856SOL     OW 2590   2.671   1.866   0.502
  856SOL    HW1 2591   2.711   1.957   0.493
  856SOL    HW2 2592   2.571   1.874   0.508
  857SOL     OW 2593   2.059   2.838   1.264
  857SOL    HW1 2594   2.148   2.793   1.250
  857SOL    HW2 2595   1.986   2.773   1.245
  858SOL     OW 2596   2.179   2.113   1.801
  858SOL    HW1 2597   2.250   2.184   1.807
  858SOL    HW2 2598   2.091   2.152   1.829
  859SOL     OW 2599   2.460   2.591   0.270
  859SOL    HW1 2600   2.484   2.660   0.202
  859SOL    HW2 2601   2.382   2.624   0.324
  860SOL     OW 2602   2.669   2.467   1.465
  860SOL    HW1 2603   2.622   2.464   1.554
  860SOL    HW2 2604   2.618   2.412   1.399
  861SOL     OW 2605   2.835   2.752   1.572
  861SOL    HW1 2606   2.881   2.668   1.543
  861SOL    HW2 2607   2.779   2.786   1.497
  862SOL     OW 2608   2.853   2.272   1.242
  862SOL    HW1 2609   2.776   2.306   1.296
  862SOL    HW2 2610   2.819   2.221   1.163
  863SOL     OW 2611   2.903   2.563   0.429
  863SOL    HW1 2612   2.929   2.559   0.525
  863SOL    HW2 2613   2.818   2.512   0.415
  864SOL     OW 2614   1.938   2.673   0.789
  864SOL    HW1 2615   2.037   2.661   0.798
  864SOL    HW2 2616   1.914   2.768   0.810
  865SOL     OW 2617   2.727   2.210   0.195
  865SOL    HW1 2618   2.786   2.273   0.146
  865SOL    HW2 2619   2.746   2.116   0.166
  866SOL     OW 2620   2.412   2.058   0.885
  866SOL    HW1 2621   2.407   2.053   0.985
  866SOL    HW2 2622   2.414   2.154   0.856
  867SOL     OW 2623   2.183   2.805   0.242
  867SOL    HW1 2624   2.265   2.844   0.200
  867SOL    HW2 2625   2.156   2.723   0.193
  868SOL     OW 2626   2.064   2.147   1.498
  868SOL    HW1 2627   1.984   2.207   1.485
  868SOL    HW2 2628   2.054   2.098   1.584
  869SOL     OW 2629   2.244   2.562   0.480
  869SOL    HW1 2630   2.289   2.472   0.477
  869SOL    HW2 2631   2.150   2.551   0.513
  870SOL     OW 2632   2.476   1.984   0.117
  870SOL    HW1 2633   2.574   1.962   0.124
  870SOL    HW2 2634   2.445   1.967   0.024
  871SOL     OW 2635   2.643   2.126   1.749
  871SOL    HW1 2636   2.710   2.065   1.792
  871SOL    HW2 2637   2.570   2.145   1.814
  872SOL     OW 2638   2.665   3.264   0.924
  872SOL    HW1 2639   2.755   3.278   0.882
  872SOL    HW2 2640   2.594   3.266   0.853
  873SOL     OW 2641   2.784   2.365   0.899
  873SOL    HW1 2642   2.759   2.356   0.803
  873SOL    HW2 2643   2.832   2.283   0.930
  874SOL     OW 2644   2.401   1.926   0.512
  874SOL    HW1 2645   2.320   1.927   0.570
  874SOL    HW2 2646   2.404   2.009   0.457
  875SOL     OW 2647   2.159   1.897   0.171
  875SOL    HW1 2648   2.208   1.981   0.150
  875SOL    HW2 2649   2.221   1.832   0.216
  876SOL     OW 2650   2.797   2.098   0.480
  876SOL    HW1 2651   2.749   2.139   0.402
  876SOL    HW2 2652   2.896   2.096   0.461
  877SOL     OW 2653   2.938   2.545   1.464
  877SOL    HW1 2654   2.858   2.484   1.467
  877SOL    HW2 2655   3.019   2.492   1.440
  878SOL     OW 2656   2.321   3.014   0.741
  878SOL    HW1 2657   2.250   2.987   0.806
  878SOL    HW2 2658   2.295   2.986   0.648
  879SOL     OW 2659   2.894   2.411   0.016
  879SOL    HW1 2660   2.853   2.493  -0.023
  879SOL    HW2 2661   2.958   2.437   0.089
  880SOL     OW 2662   1.940   2.418   1.386
  880SOL    HW1 2663   2.032   2.417   1.345
  880SOL    HW2 2664   1.934   2.492   1.453
  881SOL     OW 2665   2.423   2.084   1.147
  881SOL    HW1 2666   2.461   2.000   1.184
  881SOL    HW2 2667   2.335   2.103   1.191
  882SOL     OW 2668   2.728   2.316   0.642
  882SOL    HW1 2669   2.696   2.388   0.580
  882SOL    HW2 2670   2.752   2.235   0.589
  883SOL     OW 2671   2.879   1.901   0.753
  883SOL    HW1 2672   2.807   1.906   0.684
  883SOL    HW2 2673   2.855   1.832   0.822
  884SOL     OW 2674   2.389   2.118   0.328
  884SOL    HW1 2675   2.416   2.059   0.253
  884SOL    HW2 2676   2.389   2.213   0.297
  885SOL     OW 2677   2.777   1.951   1.402
  885SOL    HW1 2678   2.802   1.931   1.307
  885SOL    HW2 2679   2.849   2.007   1.444
  886SOL     OW 2680   2.842   2.978   1.719
  886SOL    HW1 2681   2.743   2.984   1.729
  886SOL    HW2 2682   2.865   2.898   1.663
  887SOL     OW 2683   2.567   2.912   0.368
  887SOL    HW1 2684   2.553   2.919   0.467
  887SOL    HW2 2685   2.651   2.861   0.350
  888SOL     OW 2686   2.272   2.675   1.251
  888SOL    HW1 2687   2.358   2.687   1.301
  888SOL    HW2 2688   2.230   2.588   1.278
  889SOL     OW 2689   2.229   2.962   0.501
  889SOL    HW1 2690   2.222   3.045   0.445
  889SOL    HW2 2691   2.233   2.882   0.441
  890SOL     OW 2692   2.428   2.399   0.865
  890SOL    HW1 2693   2.440   2.465   0.791
  890SOL    HW2 2694   2.474   2.433   0.948
  891SOL     OW 2695   2.264   2.613   1.598
  891SOL    HW1 2696   2.332   2.668   1.551
  891SOL    HW2 2697   2.304   2.525   1.625
  892SOL     OW 2698   2.875   1.967   1.770
  892SOL    HW1 2699   2.881   2.052   1.718
  892SOL    HW2 2700   2.907   1.891   1.713
  893SOL     OW 2701   2.366   1.912   1.740
  893SOL    HW1 2702   2.324   1.855   1.670
  893SOL    HW2 2703   2.300   1.981   1.772
  894SOL     OW 2704   2.435   2.732   1.029
  894SOL    HW1 2705   2.479   2.821   1.020
  894SOL    HW2 2706   2.372   2.732   1.106
  895SOL     OW 2707   3.222   2.724   1.045
  895SOL    HW1 2708   3.147   2.724   0.979
  895SOL    HW2 2709   3.259   2.632   1.054
  896SOL     OW 2710   3.071   2.387   0.275
  896SOL    HW1 2711   3.084   2.303   0.329
  896SOL    HW2 2712   3.042   2.461   0.335
  897SOL     OW 2713   2.169   2.075   1.231
  897SOL    HW1 2714   2.146   2.112   1.321
  897SOL    HW2 2715   2.139   1.980   1.225
  898SOL     OW 2716   2.594   2.496   1.064
  898SOL    HW1 2717   2.653   2.470   0.988
  898SOL    HW2 2718   2.566   2.592   1.053
  899SOL     OW 2719   2.169   1.925   0.618
  899SOL    HW1 2720   2.158   2.019   0.651
  899SOL    HW2 2721   2.164   1.862   0.695
  900SOL     OW 2722   2.885   2.628   0.966
  900SOL    HW1 2723   2.900   2.649   1.062
  900SOL    HW2 2724   2.855   2.533   0.957
  901SOL     OW 2725   2.212   2.760   1.804
  901SOL    HW1 2726   2.288   2.804   1.852
  901SOL    HW2 2727   2.247   2.713   1.722
  902SOL     OW 2728   2.181   2.672   0.949
  902SOL    HW1 2729   2.274   2.708   0.954
  902SOL    HW2 2730   2.175   2.587   1.001
  903SOL     OW 2731   2.201   2.371   1.006
  903SOL    HW1 2732   2.149   2.288   0.989
  903SOL    HW2 2733   2.278   2.376   0.942
  904SOL     OW 2734   3.000   2.242   1.678
  904SOL    HW1 2735   2.955   2.305   1.742
  904SOL    HW2 2736   3.093   2.273   1.661
  905SOL     OW 2737   3.022   2.069   1.477
  905SOL    HW1 2738   3.022   2.133   1.554
  905SOL    HW2 2739   3.050   2.117   1.394
  906SOL     OW 2740   1.870   3.188   0.200
  906SOL    HW1 2741   1.777   3.209   0.169
  906SOL    HW2 2742   1.880   3.089   0.213
  907SOL     OW 2743   2.864   2.658   1.238
  907SOL    HW1 2744   2.905   2.626   1.324
  907SOL    HW2 2745   2.768   2.631   1.235
  908SOL     OW 2746   1.902   2.406   1.114
  908SOL    HW1 2747   1.987   2.373   1.073
  908SOL    HW2 2748   1.915   2.421   1.212
  909SOL     OW 2749   2.051   2.382   1.722
  909SOL    HW1 2750   2.110   2.342   1.652
  909SOL    HW2 2751   1.993   2.453   1.681
  910SOL     OW 2752   2.677   2.434   0.325
  910SOL    HW1 2753   2.684   2.345   0.279
  910SOL    HW2 2754   2.583   2.468   0.317
  911SOL     OW 2755   2.533   2.326   1.269
  911SOL    HW1 2756   2.499   2.237   1.239
  911SOL    HW2 2757   2.559   2.380   1.189
  912SOL     OW 2758   2.335   2.362   0.191
  912SOL    HW1 2759   2.396   2.442   0.195
  912SOL    HW2 2760   2.240   2.393   0.198
  913SOL     OW 2761   2.021   2.999   1.466
  913SOL    HW1 2762   2.043   2.938   1.542
  913SOL    HW2 2763   2.031   2.950   1.380
  914SOL     OW 2764   1.945   3.120   1.022
  914SOL    HW1 2765   1.940   3.119   1.122
  914SOL    HW2 2766   1.862   3.079   0.984
  915SOL     OW 2767   2.765   1.948   0.133
  915SOL    HW1 2768   2.816   1.949   0.047
  915SOL    HW2 2769   2.821   1.906   0.204
  916SOL     OW 2770   2.125   2.188   0.720
  916SOL    HW1 2771   2.046   2.239   0.686
  916SOL    HW2 2772   2.116   2.173   0.818
  917SOL     OW 2773   2.684   2.864   1.372
  917SOL    HW1 2774   2.724   2.863   1.280
  917SOL    HW2 2775   2.694   2.956   1.412
  918SOL     OW 2776   2.778   2.772   0.291
  918SOL    HW1 2777   2.841   2.810   0.223
  918SOL    HW2 2778   2.818   2.689   0.330
  919SOL     OW 2779   2.234   3.150   1.490
  919SOL    HW1 2780   2.221   3.243   1.456
  919SOL    HW2 2781   2.150   3.098   1.477
  920SOL     OW 2782   2.901   2.960   0.696
  920SOL    HW1 2783   2.831   2.913   0.750
  920SOL    HW2 2784   2.960   2.892   0.653
  921SOL     OW 2785   2.876   2.098   0.971
  921SOL    HW1 2786   2.868   2.062   0.878
  921SOL    HW2 2787   2.874   2.022   1.036
  922SOL     OW 2788   1.967   2.875   1.726
  922SOL    HW1 2789   1.890   2.842   1.780
  922SOL    HW2 2790   2.052   2.845   1.768
  923SOL     OW 2791   2.534   2.065   1.489
  923SOL    HW1 2792   2.624   2.049   1.449
  923SOL    HW2 2793   2.542   2.070   1.588
  924SOL     OW 2794   1.934   2.028   0.318
  924SOL    HW1 2795   1.917   2.111   0.264
  924SOL    HW2 2796   2.024   1.991   0.296
  925SOL     OW 2797   2.475   2.704   1.431
  925SOL    HW1 2798   2.531   2.785   1.414
  925SOL    HW2 2799   2.534   2.624   1.434
  926SOL     OW 2800   2.578   2.427   1.708
  926SOL    HW1 2801   2.597   2.492   1.782
  926SOL    HW2 2802   2.638   2.347   1.717
  927SOL     OW 2803   3.312   3.082   1.633
  927SOL    HW1 2804   3.303   3.072   1.732
  927SOL    HW2 2805   3.408   3.075   1.607
  928SOL     OW 2806   2.456   2.607   0.652
  928SOL    HW1 2807   2.506   2.692   0.633
  928SOL    HW2 2808   2.368   2.609   0.604
  929SOL     OW 2809   2.721   2.818   0.861
  929SOL    HW1 2810   2.775   2.749   0.909
  929SOL    HW2 2811   2.689   2.887   0.927
  930SOL     OW 2812   2.945   2.846   0.087
  930SOL    HW1 2813   2.922   2.899   0.005
  930SOL    HW2 2814   3.026   2.790   0.068
  931SOL     OW 2815   1.941   3.102   0.653
  931SOL    HW1 2816   1.940   3.055   0.741
  931SOL    HW2 2817   2.023   3.074   0.602
  932SOL     OW 2818   2.290   2.286   0.520
  932SOL    HW1 2819   2.320   2.214   0.458
  932SOL    HW2 2820   2.251   2.246   0.603
  933SOL     OW 2821   2.179   2.409   1.280
  933SOL    HW1 2822   2.217   2.350   1.352
  933SOL    HW2 2823   2.219   2.383   1.192
  934SOL     OW 2824   2.863   1.896   1.154
  934SOL    HW1 2825   2.800   1.824   1.123
  934SOL    HW2 2826   2.956   1.860   1.154
  935SOL     OW 2827   2.632   3.192   0.301
  935SOL    HW1 2828   2.586   3.105   0.318
  935SOL    HW2 2829   2.723   3.189   0.342
  936SOL     OW 2830   1.901   2.939   0.300
  936SOL    HW1 2831   2.000   2.928   0.291
  936SOL    HW2 2832   1.861   2.853   0.332
  937SOL     OW 2833   2.092   2.490   1.975
  937SOL    HW1 2834   1.999   2.488   2.012
  937SOL    HW2 2835   2.093   2.451   1.883
  938SOL     OW 2836   2.087   2.137   2.858
  938SOL    HW1 2837   2.122   2.120   2.950
  938SOL    HW2 2838   1.999   2.092   2.846
  939SOL     OW 2839   1.881   2.230   2.509
  939SOL    HW1 2840   1.799   2.273   2.548
  939SOL    HW2 2841   1.853   2.157   2.446
  940SOL     OW 2842   2.997   2.565   2.579
  940SOL    HW1 2843   3.054   2.643   2.554
  940SOL    HW2 2844   2.937   2.591   2.655
  941SOL     OW 2845   2.630   3.006   2.885
  941SOL    HW1 2846   2.552   3.023   2.945
  941SOL    HW2 2847   2.664   3.093   2.849
  942SOL     OW 2848   2.547   2.874   2.527
  942SOL    HW1 2849   2.616   2.858   2.597
  942SOL    HW2 2850   2.474   2.931   2.565
  943SOL     OW 2851   2.102   2.953   2.748
  943SOL    HW1 2852   2.116   2.869   2.800
  943SOL    HW2 2853   2.047   3.017   2.803
  944SOL     OW 2854   2.468   2.826   1.985
  944SOL    HW1 2855   2.475   2.910   1.931
  944SOL    HW2 2856   2.514   2.839   2.073
  945SOL     OW 2857   1.984   2.505   2.425
  945SOL    HW1 2858   1.939   2.417   2.442
  945SOL    HW2 2859   1.983   2.559   2.509
  946SOL     OW 2860   2.671   1.866   2.364
  946SOL    HW1 2861   2.711   1.957   2.355
  946SOL    HW2 2862   2.571   1.874   2.370
  947SOL     OW 2863   2.059   2.838   3.126
  947SOL    HW1 2864   2.148   2.793   3.112
  947SOL    HW2 2865   1.986   2.773   3.107
  948SOL     OW 2866   2.460   2.591   2.132
  948SOL    HW1 2867   2.484   2.660   2.064
  948SOL    HW2 2868   2.382   2.624   2.186
  949SOL     OW 2869   2.903   2.563   2.291
  949SOL    HW1 2870   2.929   2.559   2.387
  949SOL    HW2 2871   2.818   2.512   2.277
  950SOL     OW 2872   1.938   2.673   2.651
  950SOL    HW1 2873   2.037   2.661   2.660
  950SOL    HW2 2874   1.914   2.768   2.672
  951SOL     OW 2875   2.727   2.210   2.057
  951SOL    HW1 2876   2.786   2.273   2.008
  951SOL    HW2 2877   2.746   2.116   2.028
  952SOL     OW 2878   2.412   2.058   2.747
  952SOL    HW1 2879   2.407   2.053   2.847
  952SOL    HW2 2880   2.414   2.154   2.718
  953SOL     OW 2881   2.183   2.805   2.104
  953SOL    HW1 2882   2.265   2.844   2.062
  953SOL    HW2 2883   2.156   2.723   2.055
  954SOL     OW 2884   2.244   2.562   2.342
  954SOL    HW1 2885   2.289   2.472   2.339
  954SOL    HW2 2886   2.150   2.551   2.375
  955SOL     OW 2887   2.476   1.984   1.979
  955SOL    HW1 2888   2.574   1.962   1.986
  955SOL    HW2 2889   2.445   1.967   1.886
  956SOL     OW 2890   2.665   3.264   2.786
  956SOL    HW1 2891   2.755   3.278   2.744
  956SOL    HW2 2892   2.594   3.266   2.715
  957SOL     OW 2893   2.784   2.365   2.761
  957SOL    HW1 2894   2.759   2.356   2.665
  957SOL    HW2 2895   2.832   2.283   2.792
  958SOL     OW 2896   2.401   1.926   2.374
  958SOL    HW1 2897   2.320   1.927   2.432
  958SOL    HW2 2898   2.404   2.009   2.319
  959SOL     OW 2899   3.296   3.050   1.903
  959SOL    HW1 2900   3.328   2.974   1.960
  959SOL    HW2 2901   3.204   3.077   1.933
  960SOL     OW 2902   2.159   1.897   2.033
  960SOL    HW1 2903   2.208   1.981   2.012
  960SOL    HW2 2904   2.221   1.832   2.078
  961SOL     OW 2905   2.797   2.098   2.342
  961SOL    HW1 2906   2.749   2.139   2.264
  961SOL    HW2 2907   2.896   2.096   2.323
  962SOL     OW 2908   2.321   3.014   2.603
  962SOL    HW1 2909   2.250   2.987   2.668
  962SOL    HW2 2910   2.295   2.986   2.510
  963SOL     OW 2911   2.894   2.411   1.878
  963SOL    HW1 2912   2.853   2.493   1.839
  963SOL    HW2 2913   2.958   2.437   1.951
  964SOL     OW 2914   2.423   2.084   3.009
  964SOL    HW1 2915   2.461   2.000   3.046
  964SOL    HW2 2916   2.335   2.103   3.053
  965SOL     OW 2917   2.728   2.316   2.504
  965SOL    HW1 2918   2.696   2.388   2.442
  965SOL    HW2 2919   2.752   2.235   2.451
  966SOL     OW 2920   2.879   1.901   2.615
  966SOL    HW1 2921   2.807   1.906   2.546
  966SOL    HW2 2922   2.855   1.832   2.684
  967SOL     OW 2923   2.389   2.118   2.190
  967SOL    HW1 2924   2.416   2.059   2.115
  967SOL    HW2 2925   2.389   2.213   2.159
  968SOL     OW 2926   2.567   2.912   2.230
  968SOL    HW1 2927   2.553   2.919   2.329
  968SOL    HW2 2928   2.651   2.861   2.212
  969SOL     OW 2929   2.272   2.675   3.113
  969SOL    HW1 2930   2.358   2.687   3.163
  969SOL    HW2 2931   2.230   2.588   3.140
  970SOL     OW 2932   2.229   2.962   2.363
  970SOL    HW1 2933   2.222   3.045   2.307
  970SOL    HW2 2934   2.233   2.882   2.303
  971SOL     OW 2935   2.428   2.399   2.727
  971SOL    HW1 2936   2.440   2.465   2.653
  971SOL    HW2 2937   2.474   2.433   2.810
  972SOL     OW 2938   2.435   2.732   2.891
  972SOL    HW1 2939   2.479   2.821   2.882
  972SOL    HW2 2940   2.372   2.732   2.968
  973SOL     OW 2941   3.222   2.724   2.907
  973SOL    HW1 2942   3.147   2.724   2.841
  973SOL    HW2 2943   3.259   2.632   2.916
  974SOL     OW 2944   3.071   2.387   2.137
  974SOL    HW1 2945   3.084   2.303   2.191
  974SOL    HW2 2946   3.042   2.461   2.197
  975SOL     OW 2947   2.169   2.075   3.093
  975SOL    HW1 2948   2.146   2.112   3.183
  975SOL    HW2 2949   2.139   1.980   3.087
  976SOL     OW 2950   2.594   2.496   2.926
  976SOL    HW1 2951   2.653   2.470   2.850
  976SOL    HW2 2952   2.566   2.592   2.915
  977SOL     OW 2953   2.169   1.925   2.480
  977SOL    HW1 2954   2.158   2.019   2.513
  977SOL    HW2 2955   2.164   1.862   2.557
  978SOL     OW 2956   2.885   2.628   2.828
  978SOL    HW1 2957   2.900   2.649   2.924
  978SOL    HW2 2958   2.855   2.533   2.819
  979SOL     OW 2959   3.402   2.136   1.987
  979SOL    HW1 2960   3.341   2.061   2.010
  979SOL    HW2 2961   3.424   2.188   2.070
  980SOL     OW 2962   2.181   2.672   2.811
  980SOL    HW1 2963   2.274   2.708   2.816
  980SOL    HW2 2964   2.175   2.587   2.863
  981SOL     OW 2965   2.201   2.371   2.868
  981SOL    HW1 2966   2.149   2.288   2.851
  981SOL    HW2 2967   2.278   2.376   2.804
  982SOL     OW 2968   3.022   2.069   3.339
  982SOL    HW1 2969   3.022   2.133   3.416
  982SOL    HW2 2970   3.050   2.117   3.256
  983SOL     OW 2971   1.870   3.188   2.062
  983SOL    HW1 2972   1.777   3.209   2.031
  983SOL    HW2 2973   1.880   3.089   2.075
  984SOL     OW 2974   2.864   2.658   3.100
  984SOL    HW1 2975   2.905   2.626   3.186
  984SOL    HW2 2976   2.768   2.631   3.097
  985SOL     OW 2977   1.902   2.406   2.976
  985SOL    HW1 2978   1.987   2.373   2.935
  985SOL    HW2 2979   1.915   2.421   3.074
  986SOL     OW 2980   2.677   2.434   2.187
  986SOL    HW1 2981   2.684   2.345   2.141
  986SOL    HW2 2982   2.583   2.468   2.179
  987SOL     OW 2983   2.533   2.326   3.131
  987SOL    HW1 2984   2.499   2.237   3.101
  987SOL    HW2 2985   2.559   2.380   3.051
  988SOL     OW 2986   2.335   2.362   2.053
  988SOL    HW1 2987   2.396   2.442   2.057
  988SOL    HW2 2988   2.240   2.393   2.060
  989SOL     OW 2989   1.945   3.120   2.884
  989SOL    HW1 2990   1.940   3.119   2.984
  989SOL    HW2 2991   1.862   3.079   2.846
  990SOL     OW 2992   2.125   2.188   2.582
  990SOL    HW1 2993   2.046   2.239   2.548
  990SOL    HW2 2994   2.116   2.173   2.680
  991SOL     OW 2995   2.684   2.864   3.234
  991SOL    HW1 2996   2.724   2.863   3.142
  991SOL    HW2 2997   2.694   2.956   3.274
  992SOL     OW 2998   2.778   2.772   2.153
  992SOL    HW1 2999   2.841   2.810   2.085
  992SOL    HW2 3000   2.818   2.689   2.192
  993SOL     OW 3001   2.901   2.960   2.558
  993SOL    HW1 3002   2.831   2.913   2.612
  993SOL    HW2 3003   2.960   2.892   2.515
  994SOL     OW 3004   2.876   2.098   2.833
  994SOL    HW1 3005   2.868   2.062   2.740
  994SOL    HW2 3006   2.874   2.022   2.898
  995SOL     OW 3007   1.937   2.207   1.895
  995SOL    HW1 3008   1.845   2.179   1.866
  995SOL    HW2 3009   1.968   2.284   1.839
  996SOL     OW 3010   1.934   2.028   2.180
  996SOL    HW1 3011   1.917   2.111   2.126
  996SOL    HW2 3012   2.024   1.991   2.158
  997SOL     OW 3013   2.456   2.607   2.514
  997SOL    HW1 3014   2.506   2.692   2.495
  997SOL    HW2 3015   2.368   2.609   2.466
  998SOL     OW 3016   2.721   2.818   2.723
  998SOL    HW1 3017   2.775   2.749   2.771
  998SOL    HW2 3018   2.689   2.887   2.789
  999SOL     OW 3019   2.945   2.846   1.949
  999SOL    HW1 3020   2.922   2.899   1.867
  999SOL    HW2 3021   3.026   2.790   1.930
 1000SOL     OW 3022   1.941   3.102   2.515
 1000SOL    HW1 3023   1.940   3.055   2.603
 1000SOL    HW2 3024   2.023   3.074   2.464
 1001SOL     OW 3025   2.290   2.286   2.382
 1001SOL    HW1 3026   2.320   2.214   2.320
 1001SOL    HW2 3027   2.251   2.246   2.465
 1002SOL     OW 3028   2.863   1.896   3.016
 1002SOL    HW1 3029   2.800   1.824   2.985
 1002SOL    HW2 3030   2.956   1.860   3.016
 1003SOL     OW 3031   2.632   3.192   2.163
 1003SOL    HW1 3032   2.586   3.105   2.180
 1003SOL    HW2 3033   2.723   3.189   2.204
 1004SOL     OW 3034   1.901   2.939   2.162
 1004SOL    HW1 3035   2.000   2.928   2.153
 1004SOL    HW2 3036   1.861   2.853   2.194
   3.16211   3.16211   3.16211
