; mobley_5110043_GMX.itp created by acpype (v: 2023.10.27) on Thu May 14 13:57:44 2026

[ atomtypes ]
;name   bond_type     mass     charge   ptype   sigma         epsilon       Amb
 ca       ca          0.00000  0.00000   A     3.31521e-01   4.13379e-01 ; 1.86  0.0988
 c3       c3          0.00000  0.00000   A     3.39771e-01   4.51035e-01 ; 1.91  0.1078
 ha       ha          0.00000  0.00000   A     2.62548e-01   6.73624e-02 ; 1.47  0.0161
 hc       hc          0.00000  0.00000   A     2.60018e-01   8.70272e-02 ; 1.46  0.0208

[ moleculetype ]
;name            nrexcl
 mobley_5110043   3

[ atoms ]
;   nr  type  resi  res  atom  cgnr     charge      mass       ; qtot   bond_type
     1   ca     1   MOL    C1    1    -0.116000     12.01000 ; qtot -0.116
     2   ca     1   MOL    C2    2    -0.116000     12.01000 ; qtot -0.232
     3   ca     1   MOL    C3    3    -0.126000     12.01000 ; qtot -0.358
     4   ca     1   MOL    C4    4    -0.126000     12.01000 ; qtot -0.484
     5   ca     1   MOL    C5    5    -0.119000     12.01000 ; qtot -0.603
     6   ca     1   MOL    C6    6    -0.119000     12.01000 ; qtot -0.722
     7   ca     1   MOL    C7    7    -0.036000     12.01000 ; qtot -0.758
     8   ca     1   MOL    C8    8    -0.036000     12.01000 ; qtot -0.794
     9   ca     1   MOL    C9    9    -0.076300     12.01000 ; qtot -0.870
    10   ca     1   MOL   C10   10    -0.076300     12.01000 ; qtot -0.947
    11   c3     1   MOL   C11   11    -0.053800     12.01000 ; qtot -1.000
    12   c3     1   MOL   C12   12    -0.053800     12.01000 ; qtot -1.054
    13   ha     1   MOL    H1   13     0.131500      1.00800 ; qtot -0.923
    14   ha     1   MOL    H2   14     0.131500      1.00800 ; qtot -0.791
    15   ha     1   MOL    H3   15     0.131000      1.00800 ; qtot -0.660
    16   ha     1   MOL    H4   16     0.131000      1.00800 ; qtot -0.529
    17   ha     1   MOL    H5   17     0.131500      1.00800 ; qtot -0.398
    18   ha     1   MOL    H6   18     0.131500      1.00800 ; qtot -0.266
    19   hc     1   MOL    H7   19     0.044367      1.00800 ; qtot -0.222
    20   hc     1   MOL    H8   20     0.044367      1.00800 ; qtot -0.177
    21   hc     1   MOL    H9   21     0.044367      1.00800 ; qtot -0.133
    22   hc     1   MOL   H10   22     0.044367      1.00800 ; qtot -0.089
    23   hc     1   MOL   H11   23     0.044367      1.00800 ; qtot -0.044
    24   hc     1   MOL   H12   24     0.044367      1.00800 ; qtot -0.000

[ bonds ]
;   ai     aj funct   r             k
     1      3   1    1.3986e-01    2.9644e+05 ;     C1 - C3    
     1      7   1    1.3986e-01    2.9644e+05 ;     C1 - C7    
     1     13   1    1.0860e-01    3.0183e+05 ;     C1 - H1    
     2      4   1    1.3986e-01    2.9644e+05 ;     C2 - C4    
     2      8   1    1.3986e-01    2.9644e+05 ;     C2 - C8    
     2     14   1    1.0860e-01    3.0183e+05 ;     C2 - H2    
     3      9   1    1.3986e-01    2.9644e+05 ;     C3 - C9    
     3     15   1    1.0860e-01    3.0183e+05 ;     C3 - H3    
     4     10   1    1.3986e-01    2.9644e+05 ;     C4 - C10   
     4     16   1    1.0860e-01    3.0183e+05 ;     C4 - H4    
     5      7   1    1.3986e-01    2.9644e+05 ;     C5 - C7    
     5     10   1    1.3986e-01    2.9644e+05 ;     C5 - C10   
     5     17   1    1.0860e-01    3.0183e+05 ;     C5 - H5    
     6      8   1    1.3986e-01    2.9644e+05 ;     C6 - C8    
     6      9   1    1.3986e-01    2.9644e+05 ;     C6 - C9    
     6     18   1    1.0860e-01    3.0183e+05 ;     C6 - H6    
     7      8   1    1.3986e-01    2.9644e+05 ;     C7 - C8    
     9     11   1    1.5147e-01    2.0410e+05 ;     C9 - C11   
    10     12   1    1.5147e-01    2.0410e+05 ;    C10 - C12   
    11     19   1    1.0962e-01    2.8891e+05 ;    C11 - H7    
    11     20   1    1.0962e-01    2.8891e+05 ;    C11 - H8    
    11     21   1    1.0962e-01    2.8891e+05 ;    C11 - H9    
    12     22   1    1.0962e-01    2.8891e+05 ;    C12 - H10   
    12     23   1    1.0962e-01    2.8891e+05 ;    C12 - H11   
    12     24   1    1.0962e-01    2.8891e+05 ;    C12 - H12   

[ pairs ]
;   ai     aj    funct
     1      2      1 ;     C1 - C2    
     1      6      1 ;     C1 - C6    
     1     10      1 ;     C1 - C10   
     1     11      1 ;     C1 - C11   
     1     17      1 ;     C1 - H5    
     2      5      1 ;     C2 - C5    
     2      9      1 ;     C2 - C9    
     2     12      1 ;     C2 - C12   
     2     18      1 ;     C2 - H6    
     3      5      1 ;     C3 - C5    
     3      8      1 ;     C3 - C8    
     3     18      1 ;     C3 - H6    
     3     19      1 ;     C3 - H7    
     3     20      1 ;     C3 - H8    
     3     21      1 ;     C3 - H9    
     4      6      1 ;     C4 - C6    
     4      7      1 ;     C4 - C7    
     4     17      1 ;     C4 - H5    
     4     22      1 ;     C4 - H10   
     4     23      1 ;     C4 - H11   
     4     24      1 ;     C4 - H12   
     5      6      1 ;     C5 - C6    
     5     16      1 ;     C5 - H4    
     5     22      1 ;     C5 - H10   
     5     23      1 ;     C5 - H11   
     5     24      1 ;     C5 - H12   
     6     14      1 ;     C6 - H2    
     6     15      1 ;     C6 - H3    
     6     19      1 ;     C6 - H7    
     6     20      1 ;     C6 - H8    
     6     21      1 ;     C6 - H9    
     7      9      1 ;     C7 - C9    
     7     12      1 ;     C7 - C12   
     7     14      1 ;     C7 - H2    
     7     15      1 ;     C7 - H3    
     7     18      1 ;     C7 - H6    
     8     10      1 ;     C8 - C10   
     8     11      1 ;     C8 - C11   
     8     16      1 ;     C8 - H4    
     8     17      1 ;     C8 - H5    
    10     14      1 ;    C10 - H2    
    11     15      1 ;    C11 - H3    
    11     18      1 ;    C11 - H6    
    12     16      1 ;    C12 - H4    
    12     17      1 ;    C12 - H5    
    13      5      1 ;     H1 - C5    
    13      8      1 ;     H1 - C8    
    13      9      1 ;     H1 - C9    
    13     15      1 ;     H1 - H3    
    14     16      1 ;     H2 - H4    

[ angles ]
;   ai     aj     ak    funct   theta         cth
     1      3      9      1    1.2002e+02    5.3279e+02 ;     C1 - C3     - C9    
     1      3     15      1    1.1988e+02    3.7572e+02 ;     C1 - C3     - H3    
     1      7      5      1    1.2002e+02    5.3279e+02 ;     C1 - C7     - C5    
     1      7      8      1    1.2002e+02    5.3279e+02 ;     C1 - C7     - C8    
     2      4     10      1    1.2002e+02    5.3279e+02 ;     C2 - C4     - C10   
     2      4     16      1    1.1988e+02    3.7572e+02 ;     C2 - C4     - H4    
     2      8      6      1    1.2002e+02    5.3279e+02 ;     C2 - C8     - C6    
     2      8      7      1    1.2002e+02    5.3279e+02 ;     C2 - C8     - C7    
     3      1      7      1    1.2002e+02    5.3279e+02 ;     C3 - C1     - C7    
     3      1     13      1    1.1988e+02    3.7572e+02 ;     C3 - C1     - H1    
     3      9      6      1    1.2002e+02    5.3279e+02 ;     C3 - C9     - C6    
     3      9     11      1    1.2083e+02    5.0827e+02 ;     C3 - C9     - C11   
     4      2      8      1    1.2002e+02    5.3279e+02 ;     C4 - C2     - C8    
     4      2     14      1    1.1988e+02    3.7572e+02 ;     C4 - C2     - H2    
     4     10      5      1    1.2002e+02    5.3279e+02 ;     C4 - C10    - C5    
     4     10     12      1    1.2083e+02    5.0827e+02 ;     C4 - C10    - C12   
     5      7      8      1    1.2002e+02    5.3279e+02 ;     C5 - C7     - C8    
     5     10     12      1    1.2083e+02    5.0827e+02 ;     C5 - C10    - C12   
     6      8      7      1    1.2002e+02    5.3279e+02 ;     C6 - C8     - C7    
     6      9     11      1    1.2083e+02    5.0827e+02 ;     C6 - C9     - C11   
     7      1     13      1    1.1988e+02    3.7572e+02 ;     C7 - C1     - H1    
     7      5     10      1    1.2002e+02    5.3279e+02 ;     C7 - C5     - C10   
     7      5     17      1    1.1988e+02    3.7572e+02 ;     C7 - C5     - H5    
     8      2     14      1    1.1988e+02    3.7572e+02 ;     C8 - C2     - H2    
     8      6      9      1    1.2002e+02    5.3279e+02 ;     C8 - C6     - C9    
     8      6     18      1    1.1988e+02    3.7572e+02 ;     C8 - C6     - H6    
     9      3     15      1    1.1988e+02    3.7572e+02 ;     C9 - C3     - H3    
     9      6     18      1    1.1988e+02    3.7572e+02 ;     C9 - C6     - H6    
     9     11     19      1    1.1063e+02    3.6493e+02 ;     C9 - C11    - H7    
     9     11     20      1    1.1063e+02    3.6493e+02 ;     C9 - C11    - H8    
     9     11     21      1    1.1063e+02    3.6493e+02 ;     C9 - C11    - H9    
    10      4     16      1    1.1988e+02    3.7572e+02 ;    C10 - C4     - H4    
    10      5     17      1    1.1988e+02    3.7572e+02 ;    C10 - C5     - H5    
    10     12     22      1    1.1063e+02    3.6493e+02 ;    C10 - C12    - H10   
    10     12     23      1    1.1063e+02    3.6493e+02 ;    C10 - C12    - H11   
    10     12     24      1    1.1063e+02    3.6493e+02 ;    C10 - C12    - H12   
    19     11     20      1    1.0773e+02    2.9957e+02 ;     H7 - C11    - H8    
    19     11     21      1    1.0773e+02    2.9957e+02 ;     H7 - C11    - H9    
    20     11     21      1    1.0773e+02    2.9957e+02 ;     H8 - C11    - H9    
    22     12     23      1    1.0773e+02    2.9957e+02 ;    H10 - C12    - H11   
    22     12     24      1    1.0773e+02    2.9957e+02 ;    H10 - C12    - H12   
    23     12     24      1    1.0773e+02    2.9957e+02 ;    H11 - C12    - H12   

[ dihedrals ] ; propers
; for gromacs 4.5 or higher, using funct 9
;    i      j      k      l   func   phase     kd      pn
     1      3      9      6      9   180.00  15.16700   2 ;     C1-    C3-    C9-    C6
     1      3      9     11      9   180.00  15.16700   2 ;     C1-    C3-    C9-   C11
     1      7      5     10      9   180.00  15.16700   2 ;     C1-    C7-    C5-   C10
     1      7      5     17      9   180.00  15.16700   2 ;     C1-    C7-    C5-    H5
     1      7      8      2      9   180.00  15.16700   2 ;     C1-    C7-    C8-    C2
     1      7      8      6      9   180.00  15.16700   2 ;     C1-    C7-    C8-    C6
     2      4     10      5      9   180.00  15.16700   2 ;     C2-    C4-   C10-    C5
     2      4     10     12      9   180.00  15.16700   2 ;     C2-    C4-   C10-   C12
     2      8      6      9      9   180.00  15.16700   2 ;     C2-    C8-    C6-    C9
     2      8      6     18      9   180.00  15.16700   2 ;     C2-    C8-    C6-    H6
     2      8      7      5      9   180.00  15.16700   2 ;     C2-    C8-    C7-    C5
     3      1      7      5      9   180.00  15.16700   2 ;     C3-    C1-    C7-    C5
     3      1      7      8      9   180.00  15.16700   2 ;     C3-    C1-    C7-    C8
     3      9      6      8      9   180.00  15.16700   2 ;     C3-    C9-    C6-    C8
     3      9      6     18      9   180.00  15.16700   2 ;     C3-    C9-    C6-    H6
     3      9     11     19      9     0.00   0.00000   0 ;     C3-    C9-   C11-    H7
     3      9     11     20      9     0.00   0.00000   0 ;     C3-    C9-   C11-    H8
     3      9     11     21      9     0.00   0.00000   0 ;     C3-    C9-   C11-    H9
     4      2      8      6      9   180.00  15.16700   2 ;     C4-    C2-    C8-    C6
     4      2      8      7      9   180.00  15.16700   2 ;     C4-    C2-    C8-    C7
     4     10      5      7      9   180.00  15.16700   2 ;     C4-   C10-    C5-    C7
     4     10      5     17      9   180.00  15.16700   2 ;     C4-   C10-    C5-    H5
     4     10     12     22      9     0.00   0.00000   0 ;     C4-   C10-   C12-   H10
     4     10     12     23      9     0.00   0.00000   0 ;     C4-   C10-   C12-   H11
     4     10     12     24      9     0.00   0.00000   0 ;     C4-   C10-   C12-   H12
     5      7      8      6      9   180.00  15.16700   2 ;     C5-    C7-    C8-    C6
     5     10      4     16      9   180.00  15.16700   2 ;     C5-   C10-    C4-    H4
     5     10     12     22      9     0.00   0.00000   0 ;     C5-   C10-   C12-   H10
     5     10     12     23      9     0.00   0.00000   0 ;     C5-   C10-   C12-   H11
     5     10     12     24      9     0.00   0.00000   0 ;     C5-   C10-   C12-   H12
     6      8      2     14      9   180.00  15.16700   2 ;     C6-    C8-    C2-    H2
     6      9      3     15      9   180.00  15.16700   2 ;     C6-    C9-    C3-    H3
     6      9     11     19      9     0.00   0.00000   0 ;     C6-    C9-   C11-    H7
     6      9     11     20      9     0.00   0.00000   0 ;     C6-    C9-   C11-    H8
     6      9     11     21      9     0.00   0.00000   0 ;     C6-    C9-   C11-    H9
     7      1      3      9      9   180.00  15.16700   2 ;     C7-    C1-    C3-    C9
     7      1      3     15      9   180.00  15.16700   2 ;     C7-    C1-    C3-    H3
     7      5     10     12      9   180.00  15.16700   2 ;     C7-    C5-   C10-   C12
     7      8      2     14      9   180.00  15.16700   2 ;     C7-    C8-    C2-    H2
     7      8      6      9      9   180.00  15.16700   2 ;     C7-    C8-    C6-    C9
     7      8      6     18      9   180.00  15.16700   2 ;     C7-    C8-    C6-    H6
     8      2      4     10      9   180.00  15.16700   2 ;     C8-    C2-    C4-   C10
     8      2      4     16      9   180.00  15.16700   2 ;     C8-    C2-    C4-    H4
     8      6      9     11      9   180.00  15.16700   2 ;     C8-    C6-    C9-   C11
     8      7      5     10      9   180.00  15.16700   2 ;     C8-    C7-    C5-   C10
     8      7      5     17      9   180.00  15.16700   2 ;     C8-    C7-    C5-    H5
    10      4      2     14      9   180.00  15.16700   2 ;    C10-    C4-    C2-    H2
    11      9      3     15      9   180.00  15.16700   2 ;    C11-    C9-    C3-    H3
    11      9      6     18      9   180.00  15.16700   2 ;    C11-    C9-    C6-    H6
    12     10      4     16      9   180.00  15.16700   2 ;    C12-   C10-    C4-    H4
    12     10      5     17      9   180.00  15.16700   2 ;    C12-   C10-    C5-    H5
    13      1      3      9      9   180.00  15.16700   2 ;     H1-    C1-    C3-    C9
    13      1      3     15      9   180.00  15.16700   2 ;     H1-    C1-    C3-    H3
    13      1      7      5      9   180.00  15.16700   2 ;     H1-    C1-    C7-    C5
    13      1      7      8      9   180.00  15.16700   2 ;     H1-    C1-    C7-    C8
    14      2      4     16      9   180.00  15.16700   2 ;     H2-    C2-    C4-    H4

[ dihedrals ] ; impropers
; treated as propers in GROMACS to use correct AMBER analytical function
;    i      j      k      l   func   phase     kd      pn
     1      5      7      8      4   180.00   4.60240   2 ;     C1-    C5-    C7-    C8
     1      9      3     15      4   180.00   4.60240   2 ;     C1-    C9-    C3-    H3
     2      6      8      7      4   180.00   4.60240   2 ;     C2-    C6-    C8-    C7
     2     10      4     16      4   180.00   4.60240   2 ;     C2-   C10-    C4-    H4
     3      6      9     11      4   180.00   4.60240   2 ;     C3-    C6-    C9-   C11
     4      8      2     14      4   180.00   4.60240   2 ;     C4-    C8-    C2-    H2
     7     10      5     17      4   180.00   4.60240   2 ;     C7-   C10-    C5-    H5
     8      9      6     18      4   180.00   4.60240   2 ;     C8-    C9-    C6-    H6
    12      4     10      5      4   180.00   4.60240   2 ;    C12-    C4-   C10-    C5
    13      1      7      3      4   180.00   4.60240   2 ;     H1-    C1-    C7-    C3
