; mobley_7142697_GMX.top created by acpype (v: 2023.10.27) on Thu May 14 13:27:55 2026

[ defaults ]
; nbfunc        comb-rule       gen-pairs       fudgeLJ fudgeQQ
1               2               yes             0.5     0.8333333333

; Include mobley_7142697_GMX.itp topology
#include "mobley_7142697_GMX.itp"

; Ligand position restraints
#ifdef POSRES_LIG
#include "posre_mobley_7142697.itp"
#endif

#include "../common/SOL.TIP3P.itp"

[ system ]
mobley_7142697 in water

[ molecules ]
; Compound        nmols
 mobley_7142697   1     
SOL               680
