mobley_4371692_GMX.gro created by acpype (v: 2023.10.27) on Thu May 14 13:57:25 2026
 2604
    1MOL     C1    1   1.838   1.458   1.655
    1MOL     C2    2   1.797   1.580   1.708
    1MOL     C3    3   1.754   1.388   1.568
    1MOL     C4    4   1.672   1.633   1.675
    1MOL     C5    5   1.199   1.406   1.287
    1MOL     C6    6   1.158   1.528   1.340
    1MOL     C7    7   1.628   1.441   1.534
    1MOL     C8    8   1.588   1.563   1.588
    1MOL     C9    9   1.408   1.423   1.407
    1MOL    C10   10   1.368   1.545   1.461
    1MOL    C11   11   1.324   1.353   1.320
    1MOL    C12   12   1.242   1.598   1.427
    1MOL    C13   13   1.540   1.366   1.442
    1MOL    C14   14   1.456   1.620   1.553
    1MOL     N1   15   1.358   1.229   1.262
    1MOL     O1   16   1.580   1.260   1.397
    1MOL     O2   17   1.422   1.727   1.602
    1MOL     O3   18   1.196   1.717   1.476
    1MOL     H1   19   1.935   1.417   1.681
    1MOL     H2   20   1.862   1.634   1.776
    1MOL     H3   21   1.788   1.294   1.527
    1MOL     H4   22   1.643   1.728   1.718
    1MOL     H5   23   1.133   1.353   1.219
    1MOL     H6   24   1.061   1.568   1.314
    1MOL     H7   25   1.292   1.183   1.204
    1MOL     H8   26   1.445   1.186   1.287
    1MOL     H9   27   1.262   1.756   1.535
    2SOL     OW   28   0.230   0.628   0.113
    2SOL    HW1   29   0.137   0.626   0.150
    2SOL    HW2   30   0.231   0.589   0.021
    3SOL     OW   31   0.225   0.275   0.996
    3SOL    HW1   32   0.260   0.258   1.088
    3SOL    HW2   33   0.137   0.230   0.984
    4SOL     OW   34   0.019   0.368   0.647
    4SOL    HW1   35  -0.063   0.411   0.686
    4SOL    HW2   36  -0.009   0.295   0.584
    5SOL     OW   37   0.569   1.275   1.165
    5SOL    HW1   38   0.476   1.268   1.128
    5SOL    HW2   39   0.580   1.364   1.209
    6SOL     OW   40   1.555   1.511   0.703
    6SOL    HW1   41   1.498   1.495   0.784
    6SOL    HW2   42   1.496   1.521   0.623
    7SOL     OW   43   1.135   0.703   0.717
    7SOL    HW1   44   1.192   0.781   0.692
    7SOL    HW2   45   1.075   0.729   0.793
    8SOL     OW   46   1.755   0.607   0.231
    8SOL    HW1   47   1.743   0.594   0.132
    8SOL    HW2   48   1.725   0.526   0.280
    9SOL     OW   49   0.768   1.144   1.023
    9SOL    HW1   50   0.690   1.161   1.083
    9SOL    HW2   51   0.802   1.231   0.987
   10SOL     OW   52   0.850   0.798   1.823
   10SOL    HW1   53   0.846   0.874   1.888
   10SOL    HW2   54   0.872   0.834   1.732
   11SOL     OW   55   0.685   1.012   0.665
   11SOL    HW1   56   0.754   0.996   0.735
   11SOL    HW2   57   0.612   1.069   0.703
   12SOL     OW   58   0.686   1.161   1.803
   12SOL    HW1   59   0.746   1.240   1.817
   12SOL    HW2   60   0.600   1.192   1.762
   13SOL     OW   61   0.335   1.435   1.061
   13SOL    HW1   62   0.257   1.404   1.008
   13SOL    HW2   63   0.393   1.493   1.004
   14SOL     OW   64   0.438   0.392   1.499
   14SOL    HW1   65   0.520   0.336   1.508
   14SOL    HW2   66   0.357   0.334   1.503
   15SOL     OW   67   1.603   0.447   0.737
   15SOL    HW1   68   1.529   0.493   0.687
   15SOL    HW2   69   1.654   0.515   0.790
   16SOL     OW   70   0.231   1.713   0.483
   16SOL    HW1   71   0.265   1.790   0.537
   16SOL    HW2   72   0.275   1.713   0.393
   17SOL     OW   73   1.127   1.341   1.690
   17SOL    HW1   74   1.174   1.341   1.778
   17SOL    HW2   75   1.079   1.254   1.679
   18SOL     OW   76   0.230   1.434   0.538
   18SOL    HW1   77   0.204   1.530   0.538
   18SOL    HW2   78   0.159   1.380   0.583
   19SOL     OW   79   0.240   1.091   0.886
   19SOL    HW1   80   0.254   1.007   0.938
   19SOL    HW2   81   0.185   1.155   0.941
   20SOL     OW   82   0.620   1.786   1.439
   20SOL    HW1   83   0.528   1.769   1.474
   20SOL    HW2   84   0.648   1.878   1.465
   21SOL     OW   85   0.606   0.964   0.123
   21SOL    HW1   86   0.613   1.048   0.069
   21SOL    HW2   87   0.652   0.977   0.211
   22SOL     OW   88   1.594   0.114   1.480
   22SOL    HW1   89   1.576   0.181   1.408
   22SOL    HW2   90   1.591   0.160   1.569
   23SOL     OW   91   0.122   0.643   0.563
   23SOL    HW1   92   0.077   0.555   0.580
   23SOL    HW2   93   0.121   0.697   0.647
   24SOL     OW   94   1.842   1.767   0.359
   24SOL    HW1   95   1.896   1.738   0.439
   24SOL    HW2   96   1.872   1.857   0.330
   25SOL     OW   97   0.027   1.596   0.117
   25SOL    HW1   98   0.008   1.500   0.138
   25SOL    HW2   99  -0.006   1.654   0.192
   26SOL     OW  100   1.689   0.922   0.612
   26SOL    HW1  101   1.784   0.893   0.620
   26SOL    HW2  102   1.681   0.987   0.537
   27SOL     OW  103   1.641   1.108   0.432
   27SOL    HW1  104   1.727   1.110   0.380
   27SOL    HW2  105   1.655   1.155   0.520
   28SOL     OW  106   0.113   0.737   1.597
   28SOL    HW1  107   0.201   0.724   1.642
   28SOL    HW2  108   0.100   0.834   1.575
   29SOL     OW  109   0.613   1.365   0.726
   29SOL    HW1  110   0.564   1.278   0.735
   29SOL    HW2  111   0.590   1.408   0.639
   30SOL     OW  112   0.809   0.004   0.502
   30SOL    HW1  113   0.849   0.095   0.493
   30SOL    HW2  114   0.709   0.012   0.508
   31SOL     OW  115   0.197   0.976   1.264
   31SOL    HW1  116   0.286   0.931   1.250
   31SOL    HW2  117   0.124   0.911   1.245
   32SOL     OW  118   1.525   0.999   0.190
   32SOL    HW1  119   1.462   0.923   0.203
   32SOL    HW2  120   1.573   1.017   0.276
   33SOL     OW  121   0.317   0.251   1.801
   33SOL    HW1  122   0.388   0.322   1.807
   33SOL    HW2  123   0.229   0.290   1.829
   34SOL     OW  124   1.466   1.417   0.953
   34SOL    HW1  125   1.407   1.423   1.033
   34SOL    HW2  126   1.451   1.329   0.907
   35SOL     OW  127   1.667   1.714   0.572
   35SOL    HW1  128   1.626   1.691   0.484
   35SOL    HW2  129   1.649   1.640   0.637
   36SOL     OW  130   0.598   0.729   0.270
   36SOL    HW1  131   0.622   0.798   0.202
   36SOL    HW2  132   0.520   0.762   0.324
   37SOL     OW  133   1.281   0.345   0.944
   37SOL    HW1  134   1.195   0.295   0.931
   37SOL    HW2  135   1.343   0.291   1.000
   38SOL     OW  136   1.576   1.662   0.307
   38SOL    HW1  137   1.665   1.708   0.310
   38SOL    HW2  138   1.555   1.638   0.212
   39SOL     OW  139   0.807   0.605   1.465
   39SOL    HW1  140   0.760   0.602   1.554
   39SOL    HW2  141   0.756   0.550   1.399
   40SOL     OW  142   1.394   0.469   1.674
   40SOL    HW1  143   1.374   0.512   1.762
   40SOL    HW2  144   1.472   0.407   1.683
   41SOL     OW  145   0.973   0.890   1.572
   41SOL    HW1  146   1.019   0.806   1.543
   41SOL    HW2  147   0.917   0.924   1.497
   42SOL     OW  148   0.991   0.410   1.242
   42SOL    HW1  149   0.914   0.444   1.296
   42SOL    HW2  150   0.957   0.359   1.163
   43SOL     OW  151   1.041   0.701   0.429
   43SOL    HW1  152   1.067   0.697   0.525
   43SOL    HW2  153   0.956   0.650   0.415
   44SOL     OW  154   0.076   0.811   0.789
   44SOL    HW1  155   0.175   0.799   0.798
   44SOL    HW2  156   0.052   0.906   0.810
   45SOL     OW  157   0.130   1.821   1.571
   45SOL    HW1  158   0.120   1.806   1.670
   45SOL    HW2  159   0.044   1.857   1.535
   46SOL     OW  160   0.865   0.348   0.195
   46SOL    HW1  161   0.924   0.411   0.146
   46SOL    HW2  162   0.884   0.254   0.166
   47SOL     OW  163   1.719   0.585   1.831
   47SOL    HW1  164   1.693   0.674   1.795
   47SOL    HW2  165   1.717   0.517   1.758
   48SOL     OW  166   1.362   1.144   0.545
   48SOL    HW1  167   1.445   1.115   0.497
   48SOL    HW2  168   1.313   1.211   0.489
   49SOL     OW  169   0.550   0.196   0.885
   49SOL    HW1  170   0.545   0.191   0.985
   49SOL    HW2  171   0.552   0.292   0.856
   50SOL     OW  172   1.008   1.456   0.477
   50SOL    HW1  173   0.962   1.528   0.425
   50SOL    HW2  174   1.004   1.476   0.575
   51SOL     OW  175   0.351   1.801   0.853
   51SOL    HW1  176   0.401   1.715   0.859
   51SOL    HW2  177   0.416   1.878   0.850
   52SOL     OW  178   1.795   1.066   0.873
   52SOL    HW1  179   1.733   1.051   0.797
   52SOL    HW2  180   1.743   1.077   0.958
   53SOL     OW  181   0.321   0.943   0.242
   53SOL    HW1  182   0.403   0.982   0.200
   53SOL    HW2  183   0.294   0.861   0.193
   54SOL     OW  184   1.458   0.735   0.728
   54SOL    HW1  185   1.453   0.670   0.803
   54SOL    HW2  186   1.538   0.794   0.741
   55SOL     OW  187   0.461   1.266   1.727
   55SOL    HW1  188   0.411   1.267   1.641
   55SOL    HW2  189   0.398   1.248   1.803
   56SOL     OW  190   1.111   1.776   0.237
   56SOL    HW1  191   1.051   1.714   0.287
   56SOL    HW2  192   1.142   1.732   0.152
   57SOL     OW  193   0.202   0.285   1.498
   57SOL    HW1  194   0.122   0.345   1.485
   57SOL    HW2  195   0.192   0.236   1.584
   58SOL     OW  196   1.632   1.377   0.081
   58SOL    HW1  197   1.600   1.471   0.071
   58SOL    HW2  198   1.556   1.314   0.069
   59SOL     OW  199   0.464   1.743   0.323
   59SOL    HW1  200   0.497   1.782   0.409
   59SOL    HW2  201   0.540   1.736   0.258
   60SOL     OW  202   1.400   0.107   0.426
   60SOL    HW1  203   1.376   0.070   0.336
   60SOL    HW2  204   1.499   0.123   0.430
   61SOL     OW  205   0.249   1.785   1.241
   61SOL    HW1  206   0.306   1.720   1.291
   61SOL    HW2  207   0.233   1.752   1.148
   62SOL     OW  208   0.940   1.698   0.904
   62SOL    HW1  209   1.020   1.641   0.925
   62SOL    HW2  210   0.891   1.658   0.827
   63SOL     OW  211   0.382   0.700   0.480
   63SOL    HW1  212   0.427   0.610   0.477
   63SOL    HW2  213   0.288   0.689   0.513
   64SOL     OW  214   1.547   0.222   1.729
   64SOL    HW1  215   1.542   0.259   1.821
   64SOL    HW2  216   1.475   0.153   1.717
   65SOL     OW  217   0.614   0.122   0.117
   65SOL    HW1  218   0.712   0.100   0.124
   65SOL    HW2  219   0.583   0.105   0.024
   66SOL     OW  220   0.781   0.264   1.749
   66SOL    HW1  221   0.848   0.203   1.792
   66SOL    HW2  222   0.708   0.283   1.814
   67SOL     OW  223   0.888   1.514   1.195
   67SOL    HW1  224   0.865   1.489   1.101
   67SOL    HW2  225   0.949   1.445   1.234
   68SOL     OW  226   1.351   0.590   1.433
   68SOL    HW1  227   1.379   0.547   1.518
   68SOL    HW2  228   1.376   0.686   1.434
   69SOL     OW  229   0.803   1.402   0.924
   69SOL    HW1  230   0.893   1.416   0.882
   69SOL    HW2  231   0.732   1.404   0.853
   70SOL     OW  232   0.922   0.503   0.899
   70SOL    HW1  233   0.897   0.494   0.803
   70SOL    HW2  234   0.970   0.421   0.930
   71SOL     OW  235   0.539   0.064   0.512
   71SOL    HW1  236   0.458   0.065   0.570
   71SOL    HW2  237   0.542   0.147   0.457
   72SOL     OW  238   1.434   1.188   0.041
   72SOL    HW1  239   1.466   1.112   0.098
   72SOL    HW2  240   1.342   1.215   0.071
   73SOL     OW  241   0.297   0.035   0.171
   73SOL    HW1  242   0.346   0.119   0.150
   73SOL    HW2  243   0.359  -0.030   0.216
   74SOL     OW  244   0.935   0.236   0.480
   74SOL    HW1  245   0.887   0.277   0.402
   74SOL    HW2  246   1.034   0.234   0.461
   75SOL     OW  247   1.076   0.683   1.464
   75SOL    HW1  248   0.996   0.622   1.467
   75SOL    HW2  249   1.157   0.630   1.440
   76SOL     OW  250   1.227   1.570   0.793
   76SOL    HW1  251   1.248   1.644   0.728
   76SOL    HW2  252   1.295   1.570   0.866
   77SOL     OW  253   0.459   1.152   0.741
   77SOL    HW1  254   0.388   1.125   0.806
   77SOL    HW2  255   0.433   1.124   0.648
   78SOL     OW  256   1.271   1.797   0.591
   78SOL    HW1  257   1.315   1.861   0.527
   78SOL    HW2  258   1.221   1.849   0.661
   79SOL     OW  259   1.032   0.549   0.016
   79SOL    HW1  260   0.991   0.631  -0.023
   79SOL    HW2  261   1.096   0.575   0.089
   80SOL     OW  262   0.078   0.556   1.386
   80SOL    HW1  263   0.170   0.555   1.345
   80SOL    HW2  264   0.072   0.630   1.453
   81SOL     OW  265   0.561   0.222   1.147
   81SOL    HW1  266   0.599   0.138   1.184
   81SOL    HW2  267   0.473   0.241   1.191
   82SOL     OW  268   0.866   0.454   0.642
   82SOL    HW1  269   0.834   0.526   0.580
   82SOL    HW2  270   0.890   0.373   0.589
   83SOL     OW  271   1.017   0.039   0.753
   83SOL    HW1  272   0.945   0.044   0.684
   83SOL    HW2  273   0.993  -0.030   0.822
   84SOL     OW  274   1.429   1.173   0.867
   84SOL    HW1  275   1.374   1.089   0.860
   84SOL    HW2  276   1.455   1.202   0.775
   85SOL     OW  277   1.466   0.590   0.992
   85SOL    HW1  278   1.436   0.495   0.999
   85SOL    HW2  279   1.539   0.606   1.058
   86SOL     OW  280   1.857   0.833   0.377
   86SOL    HW1  281   1.899   0.769   0.441
   86SOL    HW2  282   1.819   0.782   0.299
   87SOL     OW  283   0.488   1.385   0.174
   87SOL    HW1  284   0.401   1.370   0.221
   87SOL    HW2  285   0.471   1.411   0.079
   88SOL     OW  286   1.664   1.280   0.657
   88SOL    HW1  287   1.763   1.288   0.671
   88SOL    HW2  288   1.619   1.364   0.688
   89SOL     OW  289   1.390   0.575   0.078
   89SOL    HW1  290   1.336   0.554   0.159
   89SOL    HW2  291   1.481   0.534   0.087
   90SOL     OW  292   0.527   0.256   0.328
   90SOL    HW1  293   0.554   0.197   0.253
   90SOL    HW2  294   0.527   0.351   0.297
   91SOL     OW  295   1.638   1.099   1.079
   91SOL    HW1  296   1.643   1.180   1.138
   91SOL    HW2  297   1.552   1.101   1.028
   92SOL     OW  298   0.915   0.089   1.402
   92SOL    HW1  299   0.940   0.069   1.307
   92SOL    HW2  300   0.987   0.145   1.444
   93SOL     OW  301   0.980   1.116   1.719
   93SOL    HW1  302   0.881   1.122   1.729
   93SOL    HW2  303   1.003   1.036   1.663
   94SOL     OW  304   0.705   1.050   0.368
   94SOL    HW1  305   0.691   1.057   0.467
   94SOL    HW2  306   0.789   0.999   0.350
   95SOL     OW  307   0.410   0.813   1.251
   95SOL    HW1  308   0.496   0.825   1.301
   95SOL    HW2  309   0.368   0.726   1.278
   96SOL     OW  310   1.274   0.386   1.262
   96SOL    HW1  311   1.295   0.460   1.326
   96SOL    HW2  312   1.185   0.403   1.219
   97SOL     OW  313   0.064   1.564   1.331
   97SOL    HW1  314   0.018   1.646   1.297
   97SOL    HW2  315   0.162   1.583   1.340
   98SOL     OW  316   0.367   1.100   0.501
   98SOL    HW1  317   0.360   1.183   0.445
   98SOL    HW2  318   0.371   1.020   0.441
   99SOL     OW  319   0.566   0.537   0.865
   99SOL    HW1  320   0.578   0.603   0.791
   99SOL    HW2  321   0.612   0.571   0.948
  100SOL     OW  322   1.252   1.348   0.388
  100SOL    HW1  323   1.302   1.425   0.428
  100SOL    HW2  324   1.157   1.350   0.420
  101SOL     OW  325   1.582   0.639   0.472
  101SOL    HW1  326   1.551   0.700   0.545
  101SOL    HW2  327   1.632   0.691   0.403
  102SOL     OW  328   0.354   1.510   1.329
  102SOL    HW1  329   0.333   1.466   1.242
  102SOL    HW2  330   0.451   1.536   1.332
  103SOL     OW  331   0.402   0.751   1.598
  103SOL    HW1  332   0.470   0.806   1.551
  103SOL    HW2  333   0.442   0.663   1.625
  104SOL     OW  334   1.587   0.779   1.670
  104SOL    HW1  335   1.495   0.817   1.665
  104SOL    HW2  336   1.647   0.826   1.605
  105SOL     OW  337   1.013   0.105   1.770
  105SOL    HW1  338   1.019   0.190   1.718
  105SOL    HW2  339   1.045   0.029   1.713
  106SOL     OW  340   0.504   0.050   1.740
  106SOL    HW1  341   0.462  -0.007   1.670
  106SOL    HW2  342   0.438   0.119   1.772
  107SOL     OW  343   0.573   0.870   1.029
  107SOL    HW1  344   0.617   0.959   1.020
  107SOL    HW2  345   0.510   0.870   1.106
  108SOL     OW  346   1.360   0.862   1.045
  108SOL    HW1  347   1.285   0.862   0.979
  108SOL    HW2  348   1.397   0.770   1.054
  109SOL     OW  349   1.209   0.525   0.275
  109SOL    HW1  350   1.222   0.441   0.329
  109SOL    HW2  351   1.180   0.599   0.335
  110SOL     OW  352   0.307   0.213   1.231
  110SOL    HW1  353   0.284   0.250   1.321
  110SOL    HW2  354   0.277   0.118   1.225
  111SOL     OW  355   0.037   1.310   1.282
  111SOL    HW1  356   0.090   1.261   1.350
  111SOL    HW2  357   0.059   1.408   1.287
  112SOL     OW  358   0.732   0.634   1.064
  112SOL    HW1  359   0.791   0.608   0.988
  112SOL    HW2  360   0.704   0.730   1.053
  113SOL     OW  361   1.728   0.935   1.854
  113SOL    HW1  362   1.682   0.928   1.765
  113SOL    HW2  363   1.666   0.979   1.920
  114SOL     OW  364   0.307   0.063   0.618
  114SOL    HW1  365   0.296   0.157   0.651
  114SOL    HW2  366   0.302   0.000   0.695
  115SOL     OW  367   1.622   0.367   0.374
  115SOL    HW1  368   1.624   0.291   0.438
  115SOL    HW2  369   1.574   0.444   0.414
  116SOL     OW  370   1.023   0.766   0.966
  116SOL    HW1  371   1.038   0.787   1.062
  116SOL    HW2  372   0.993   0.671   0.957
  117SOL     OW  373   0.980   1.573   1.700
  117SOL    HW1  374   0.960   1.617   1.612
  117SOL    HW2  375   1.019   1.482   1.684
  118SOL     OW  376   0.350   0.898   1.804
  118SOL    HW1  377   0.426   0.942   1.852
  118SOL    HW2  378   0.385   0.851   1.722
  119SOL     OW  379   1.540   0.274   0.125
  119SOL    HW1  380   1.479   0.199   0.148
  119SOL    HW2  381   1.562   0.326   0.208
  120SOL     OW  382   1.303   0.838   0.042
  120SOL    HW1  383   1.337   0.745   0.057
  120SOL    HW2  384   1.321   0.865  -0.053
  121SOL     OW  385   1.068   1.333   0.849
  121SOL    HW1  386   1.075   1.249   0.794
  121SOL    HW2  387   1.130   1.402   0.813
  122SOL     OW  388   0.319   0.810   0.949
  122SOL    HW1  389   0.412   0.846   0.954
  122SOL    HW2  390   0.313   0.725   1.001
  123SOL     OW  391   0.339   0.509   1.006
  123SOL    HW1  392   0.287   0.426   0.989
  123SOL    HW2  393   0.416   0.514   0.942
  124SOL     OW  394   1.138   0.380   1.678
  124SOL    HW1  395   1.093   0.443   1.742
  124SOL    HW2  396   1.231   0.411   1.661
  125SOL     OW  397   1.160   0.207   1.477
  125SOL    HW1  398   1.160   0.271   1.554
  125SOL    HW2  399   1.188   0.255   1.394
  126SOL     OW  400   0.008   1.326   0.200
  126SOL    HW1  401  -0.085   1.347   0.169
  126SOL    HW2  402   0.018   1.227   0.213
  127SOL     OW  403   0.088   1.801   0.927
  127SOL    HW1  404   0.046   1.715   0.900
  127SOL    HW2  405   0.182   1.804   0.893
  128SOL     OW  406   0.504   1.568   0.910
  128SOL    HW1  407   0.570   1.642   0.919
  128SOL    HW2  408   0.548   1.489   0.868
  129SOL     OW  409   1.002   0.796   1.238
  129SOL    HW1  410   1.043   0.764   1.324
  129SOL    HW2  411   0.906   0.769   1.235
  130SOL     OW  412   0.040   0.544   1.114
  130SOL    HW1  413   0.125   0.511   1.073
  130SOL    HW2  414   0.053   0.559   1.212
  131SOL     OW  415   0.189   0.520   1.722
  131SOL    HW1  416   0.248   0.480   1.652
  131SOL    HW2  417   0.131   0.591   1.681
  132SOL     OW  418   1.369   0.950   1.660
  132SOL    HW1  419   1.408   1.039   1.680
  132SOL    HW2  420   1.379   0.930   1.563
  133SOL     OW  421   0.815   0.572   0.325
  133SOL    HW1  422   0.822   0.483   0.279
  133SOL    HW2  423   0.721   0.606   0.317
  134SOL     OW  424   1.657   0.604   1.206
  134SOL    HW1  425   1.619   0.535   1.268
  134SOL    HW2  426   1.739   0.568   1.162
  135SOL     OW  427   0.252   1.564   1.744
  135SOL    HW1  428   0.222   1.621   1.820
  135SOL    HW2  429   0.245   1.467   1.770
  136SOL     OW  430   0.671   0.464   1.269
  136SOL    HW1  431   0.637   0.375   1.239
  136SOL    HW2  432   0.697   0.518   1.189
  137SOL     OW  433   0.930   1.678   1.465
  137SOL    HW1  434   0.906   1.660   1.370
  137SOL    HW2  435   0.960   1.772   1.475
  138SOL     OW  436   0.473   0.500   0.191
  138SOL    HW1  437   0.534   0.580   0.195
  138SOL    HW2  438   0.378   0.531   0.198
  139SOL     OW  439   0.159   1.137   1.466
  139SOL    HW1  440   0.181   1.076   1.542
  139SOL    HW2  441   0.169   1.088   1.380
  140SOL     OW  442   1.302   0.855   0.309
  140SOL    HW1  443   1.216   0.824   0.351
  140SOL    HW2  444   1.298   0.841   0.210
  141SOL     OW  445   1.759   1.747   1.154
  141SOL    HW1  446   1.820   1.777   1.081
  141SOL    HW2  447   1.721   1.658   1.132
  142SOL     OW  448   1.252   1.731   1.128
  142SOL    HW1  449   1.336   1.736   1.074
  142SOL    HW2  450   1.229   1.635   1.146
  143SOL     OW  451   0.083   1.258   1.022
  143SOL    HW1  452   0.078   1.257   1.122
  143SOL    HW2  453   0.000   1.217   0.984
  144SOL     OW  454   0.688   1.662   1.716
  144SOL    HW1  455   0.632   1.743   1.725
  144SOL    HW2  456   0.740   1.666   1.630
  145SOL     OW  457   0.903   0.086   0.133
  145SOL    HW1  458   0.954   0.087   0.047
  145SOL    HW2  459   0.959   0.044   0.204
  146SOL     OW  460   1.726   0.135   0.523
  146SOL    HW1  461   1.799   0.118   0.456
  146SOL    HW2  462   1.695   0.048   0.561
  147SOL     OW  463   1.388   1.573   0.477
  147SOL    HW1  464   1.455   1.585   0.403
  147SOL    HW2  465   1.348   1.662   0.500
  148SOL     OW  466   0.130   1.794   1.851
  148SOL    HW1  467   0.089   1.720   1.904
  148SOL    HW2  468   0.194   1.845   1.909
  149SOL     OW  469   1.280   0.927   0.672
  149SOL    HW1  470   1.340   0.846   0.674
  149SOL    HW2  471   1.320   0.996   0.612
  150SOL     OW  472   0.830   1.273   1.422
  150SOL    HW1  473   0.825   1.306   1.517
  150SOL    HW2  474   0.744   1.292   1.376
  151SOL     OW  475   0.672   1.616   0.154
  151SOL    HW1  476   0.681   1.626   0.055
  151SOL    HW2  477   0.632   1.527   0.175
  152SOL     OW  478   1.650   1.720   1.394
  152SOL    HW1  479   1.703   1.730   1.310
  152SOL    HW2  480   1.623   1.810   1.428
  153SOL     OW  481   1.841   0.175   0.963
  153SOL    HW1  482   1.880   0.090   0.927
  153SOL    HW2  483   1.743   0.177   0.944
  154SOL     OW  484   0.263   0.326   0.720
  154SOL    HW1  485   0.184   0.377   0.686
  154SOL    HW2  486   0.254   0.311   0.818
  155SOL     OW  487   1.194   1.612   0.031
  155SOL    HW1  488   1.200   1.519   0.068
  155SOL    HW2  489   1.135   1.612  -0.049
  156SOL     OW  490   0.822   1.002   1.372
  156SOL    HW1  491   0.862   1.001   1.280
  156SOL    HW2  492   0.832   1.094   1.412
  157SOL     OW  493   0.916   0.910   0.291
  157SOL    HW1  494   0.979   0.948   0.223
  157SOL    HW2  495   0.956   0.827   0.330
  158SOL     OW  496   1.504   1.607   0.044
  158SOL    HW1  497   1.412   1.644   0.051
  158SOL    HW2  498   1.542   1.627  -0.046
  159SOL     OW  499   0.372   1.288   1.490
  159SOL    HW1  500   0.359   1.381   1.456
  159SOL    HW2  501   0.288   1.236   1.477
  160SOL     OW  502   1.039   1.098   0.696
  160SOL    HW1  503   0.969   1.051   0.750
  160SOL    HW2  504   1.098   1.030   0.653
  161SOL     OW  505   1.014   0.236   0.971
  161SOL    HW1  506   1.006   0.200   0.878
  161SOL    HW2  507   1.012   0.160   1.036
  162SOL     OW  508   0.590   1.487   0.491
  162SOL    HW1  509   0.632   1.429   0.421
  162SOL    HW2  510   0.546   1.566   0.447
  163SOL     OW  511   1.709   0.385   1.381
  163SOL    HW1  512   1.782   0.454   1.385
  163SOL    HW2  513   1.737   0.310   1.322
  164SOL     OW  514   0.255   1.348   0.290
  164SOL    HW1  515   0.159   1.349   0.263
  164SOL    HW2  516   0.267   1.401   0.374
  165SOL     OW  517   0.105   1.013   1.726
  165SOL    HW1  518   0.028   0.980   1.780
  165SOL    HW2  519   0.190   0.983   1.768
  166SOL     OW  520   0.672   0.203   1.489
  166SOL    HW1  521   0.762   0.187   1.449
  166SOL    HW2  522   0.680   0.208   1.588
  167SOL     OW  523   0.075   0.345   0.033
  167SOL    HW1  524  -0.017   0.317   0.004
  167SOL    HW2  525   0.106   0.422  -0.023
  168SOL     OW  526   1.440   0.856   1.398
  168SOL    HW1  527   1.383   0.908   1.335
  168SOL    HW2  528   1.536   0.868   1.374
  169SOL     OW  529   0.072   0.166   0.318
  169SOL    HW1  530   0.055   0.249   0.264
  169SOL    HW2  531   0.162   0.129   0.296
  170SOL     OW  532   1.183   1.335   0.119
  170SOL    HW1  533   1.084   1.324   0.121
  170SOL    HW2  534   1.217   1.350   0.212
  171SOL     OW  535   0.613   0.842   1.431
  171SOL    HW1  536   0.669   0.923   1.414
  171SOL    HW2  537   0.672   0.762   1.434
  172SOL     OW  538   1.493   1.767   0.959
  172SOL    HW1  539   1.526   1.831   0.890
  172SOL    HW2  540   1.559   1.761   1.034
  173SOL     OW  541   0.716   0.565   1.708
  173SOL    HW1  542   0.735   0.630   1.782
  173SOL    HW2  543   0.776   0.485   1.717
  174SOL     OW  544   1.450   1.220   1.633
  174SOL    HW1  545   1.441   1.210   1.732
  174SOL    HW2  546   1.546   1.213   1.607
  175SOL     OW  547   0.390   1.741   1.560
  175SOL    HW1  548   0.299   1.782   1.558
  175SOL    HW2  549   0.383   1.647   1.592
  176SOL     OW  550   1.674   0.883   1.254
  176SOL    HW1  551   1.647   0.794   1.217
  176SOL    HW2  552   1.675   0.951   1.181
  177SOL     OW  553   1.225   0.325   0.449
  177SOL    HW1  554   1.290   0.251   0.438
  177SOL    HW2  555   1.245   0.375   0.533
  178SOL     OW  556   0.594   0.745   0.652
  178SOL    HW1  557   0.644   0.830   0.633
  178SOL    HW2  558   0.506   0.747   0.604
  179SOL     OW  559   1.777   0.342   1.642
  179SOL    HW1  560   1.760   0.373   1.548
  179SOL    HW2  561   1.693   0.305   1.680
  180SOL     OW  562   1.730   0.934   1.517
  180SOL    HW1  563   1.768   1.025   1.532
  180SOL    HW2  564   1.722   0.917   1.418
  181SOL     OW  565   0.859   1.374   0.016
  181SOL    HW1  566   0.813   1.389   0.104
  181SOL    HW2  567   0.903   1.459  -0.014
  182SOL     OW  568   0.661   1.790   0.953
  182SOL    HW1  569   0.615   1.878   0.940
  182SOL    HW2  570   0.760   1.802   0.946
  183SOL     OW  571   0.859   0.956   0.861
  183SOL    HW1  572   0.913   0.887   0.909
  183SOL    HW2  573   0.827   1.025   0.927
  184SOL     OW  574   1.083   0.984   0.087
  184SOL    HW1  575   1.060   1.037   0.005
  184SOL    HW2  576   1.164   0.928   0.068
  185SOL     OW  577   1.861   1.569   0.851
  185SOL    HW1  578   1.790   1.557   0.781
  185SOL    HW2  579   1.862   1.490   0.911
  186SOL     OW  580   0.221   1.314   1.844
  186SOL    HW1  581   0.156   1.241   1.823
  186SOL    HW2  582   0.225   1.328   1.942
  187SOL     OW  583   0.079   1.240   0.653
  187SOL    HW1  584   0.078   1.193   0.741
  187SOL    HW2  585   0.161   1.212   0.602
  188SOL     OW  586   0.672   1.391   1.624
  188SOL    HW1  587   0.594   1.341   1.662
  188SOL    HW2  588   0.669   1.486   1.655
  189SOL     OW  589   1.824   0.192   1.227
  189SOL    HW1  590   1.820   0.102   1.271
  189SOL    HW2  591   1.827   0.181   1.128
  190SOL     OW  592   0.428   0.424   0.520
  190SOL    HW1  593   0.458   0.352   0.458
  190SOL    HW2  594   0.389   0.384   0.603
  191SOL     OW  595   1.705   1.487   1.104
  191SOL    HW1  596   1.612   1.462   1.077
  191SOL    HW2  597   1.731   1.437   1.186
  192SOL     OW  598   0.317   0.547   1.280
  192SOL    HW1  599   0.355   0.488   1.352
  192SOL    HW2  600   0.357   0.521   1.192
  193SOL     OW  601   0.812   1.586   0.687
  193SOL    HW1  602   0.844   1.596   0.593
  193SOL    HW2  603   0.733   1.524   0.689
  194SOL     OW  604   1.424   0.214   1.112
  194SOL    HW1  605   1.476   0.149   1.167
  194SOL    HW2  606   1.375   0.277   1.173
  195SOL     OW  607   1.001   0.034   1.154
  195SOL    HW1  608   0.938  -0.038   1.123
  195SOL    HW2  609   1.094  -0.002   1.154
  196SOL     OW  610   0.770   1.330   0.301
  196SOL    HW1  611   0.724   1.243   0.318
  196SOL    HW2  612   0.861   1.327   0.342
  197SOL     OW  613   0.618   1.567   1.284
  197SOL    HW1  614   0.613   1.649   1.341
  197SOL    HW2  615   0.707   1.564   1.239
  198SOL     OW  616   1.352   0.052   0.168
  198SOL    HW1  617   1.387   0.011   0.084
  198SOL    HW2  618   1.262   0.014   0.188
  199SOL     OW  619   1.300   0.453   0.691
  199SOL    HW1  620   1.241   0.533   0.695
  199SOL    HW2  621   1.315   0.418   0.784
  200SOL     OW  622   1.593   0.221   0.882
  200SOL    HW1  623   1.509   0.220   0.936
  200SOL    HW2  624   1.595   0.304   0.826
  201SOL     OW  625   0.039   1.077   0.300
  201SOL    HW1  626   0.138   1.066   0.291
  201SOL    HW2  627  -0.001   0.991   0.332
  202SOL     OW  628   0.875   1.646   0.337
  202SOL    HW1  629   0.798   1.611   0.283
  202SOL    HW2  630   0.843   1.717   0.399
  203SOL     OW  631   0.230   0.628   1.975
  203SOL    HW1  632   0.137   0.626   2.012
  203SOL    HW2  633   0.231   0.589   1.883
  204SOL     OW  634   0.225   0.275   2.858
  204SOL    HW1  635   0.260   0.258   2.950
  204SOL    HW2  636   0.137   0.230   2.846
  205SOL     OW  637   0.019   0.368   2.509
  205SOL    HW1  638  -0.063   0.411   2.548
  205SOL    HW2  639  -0.009   0.295   2.446
  206SOL     OW  640   1.555   1.511   2.565
  206SOL    HW1  641   1.498   1.495   2.646
  206SOL    HW2  642   1.496   1.521   2.485
  207SOL     OW  643   1.135   0.703   2.579
  207SOL    HW1  644   1.192   0.781   2.554
  207SOL    HW2  645   1.075   0.729   2.655
  208SOL     OW  646   1.755   0.607   2.093
  208SOL    HW1  647   1.743   0.594   1.994
  208SOL    HW2  648   1.725   0.526   2.142
  209SOL     OW  649   0.768   1.144   2.885
  209SOL    HW1  650   0.690   1.161   2.945
  209SOL    HW2  651   0.802   1.231   2.849
  210SOL     OW  652   0.685   1.012   2.527
  210SOL    HW1  653   0.754   0.996   2.597
  210SOL    HW2  654   0.612   1.069   2.565
  211SOL     OW  655   0.335   1.435   2.923
  211SOL    HW1  656   0.257   1.404   2.870
  211SOL    HW2  657   0.393   1.493   2.866
  212SOL     OW  658   1.603   0.447   2.599
  212SOL    HW1  659   1.529   0.493   2.549
  212SOL    HW2  660   1.654   0.515   2.652
  213SOL     OW  661   0.231   1.713   2.345
  213SOL    HW1  662   0.265   1.790   2.399
  213SOL    HW2  663   0.275   1.713   2.255
  214SOL     OW  664   0.230   1.434   2.400
  214SOL    HW1  665   0.204   1.530   2.400
  214SOL    HW2  666   0.159   1.380   2.445
  215SOL     OW  667   0.240   1.091   2.748
  215SOL    HW1  668   0.254   1.007   2.800
  215SOL    HW2  669   0.185   1.155   2.803
  216SOL     OW  670   0.606   0.964   1.985
  216SOL    HW1  671   0.613   1.048   1.931
  216SOL    HW2  672   0.652   0.977   2.073
  217SOL     OW  673   0.122   0.643   2.425
  217SOL    HW1  674   0.077   0.555   2.442
  217SOL    HW2  675   0.121   0.697   2.509
  218SOL     OW  676   1.842   1.767   2.221
  218SOL    HW1  677   1.896   1.738   2.301
  218SOL    HW2  678   1.872   1.857   2.192
  219SOL     OW  679   0.027   1.596   1.979
  219SOL    HW1  680   0.008   1.500   2.000
  219SOL    HW2  681  -0.006   1.654   2.054
  220SOL     OW  682   1.689   0.922   2.474
  220SOL    HW1  683   1.784   0.893   2.482
  220SOL    HW2  684   1.681   0.987   2.399
  221SOL     OW  685   1.641   1.108   2.294
  221SOL    HW1  686   1.727   1.110   2.242
  221SOL    HW2  687   1.655   1.155   2.382
  222SOL     OW  688   0.613   1.365   2.588
  222SOL    HW1  689   0.564   1.278   2.597
  222SOL    HW2  690   0.590   1.408   2.501
  223SOL     OW  691   0.809   0.004   2.364
  223SOL    HW1  692   0.849   0.095   2.355
  223SOL    HW2  693   0.709   0.012   2.370
  224SOL     OW  694   1.525   0.999   2.052
  224SOL    HW1  695   1.462   0.923   2.065
  224SOL    HW2  696   1.573   1.017   2.138
  225SOL     OW  697   1.466   1.417   2.815
  225SOL    HW1  698   1.407   1.423   2.895
  225SOL    HW2  699   1.451   1.329   2.769
  226SOL     OW  700   1.667   1.714   2.434
  226SOL    HW1  701   1.626   1.691   2.346
  226SOL    HW2  702   1.649   1.640   2.499
  227SOL     OW  703   0.598   0.729   2.132
  227SOL    HW1  704   0.622   0.798   2.064
  227SOL    HW2  705   0.520   0.762   2.186
  228SOL     OW  706   1.281   0.345   2.806
  228SOL    HW1  707   1.195   0.295   2.793
  228SOL    HW2  708   1.343   0.291   2.862
  229SOL     OW  709   1.576   1.662   2.169
  229SOL    HW1  710   1.665   1.708   2.172
  229SOL    HW2  711   1.555   1.638   2.074
  230SOL     OW  712   1.041   0.701   2.291
  230SOL    HW1  713   1.067   0.697   2.387
  230SOL    HW2  714   0.956   0.650   2.277
  231SOL     OW  715   0.076   0.811   2.651
  231SOL    HW1  716   0.175   0.799   2.660
  231SOL    HW2  717   0.052   0.906   2.672
  232SOL     OW  718   0.865   0.348   2.057
  232SOL    HW1  719   0.924   0.411   2.008
  232SOL    HW2  720   0.884   0.254   2.028
  233SOL     OW  721   1.362   1.144   2.407
  233SOL    HW1  722   1.445   1.115   2.359
  233SOL    HW2  723   1.313   1.211   2.351
  234SOL     OW  724   0.550   0.196   2.747
  234SOL    HW1  725   0.545   0.191   2.847
  234SOL    HW2  726   0.552   0.292   2.718
  235SOL     OW  727   1.008   1.456   2.339
  235SOL    HW1  728   0.962   1.528   2.287
  235SOL    HW2  729   1.004   1.476   2.437
  236SOL     OW  730   0.351   1.801   2.715
  236SOL    HW1  731   0.401   1.715   2.721
  236SOL    HW2  732   0.416   1.878   2.712
  237SOL     OW  733   1.795   1.066   2.735
  237SOL    HW1  734   1.733   1.051   2.659
  237SOL    HW2  735   1.743   1.077   2.820
  238SOL     OW  736   0.321   0.943   2.104
  238SOL    HW1  737   0.403   0.982   2.062
  238SOL    HW2  738   0.294   0.861   2.055
  239SOL     OW  739   1.458   0.735   2.590
  239SOL    HW1  740   1.453   0.670   2.665
  239SOL    HW2  741   1.538   0.794   2.603
  240SOL     OW  742   1.111   1.776   2.099
  240SOL    HW1  743   1.051   1.714   2.149
  240SOL    HW2  744   1.142   1.732   2.014
  241SOL     OW  745   1.632   1.377   1.943
  241SOL    HW1  746   1.600   1.471   1.933
  241SOL    HW2  747   1.556   1.314   1.931
  242SOL     OW  748   0.464   1.743   2.185
  242SOL    HW1  749   0.497   1.782   2.271
  242SOL    HW2  750   0.540   1.736   2.120
  243SOL     OW  751   1.400   0.107   2.288
  243SOL    HW1  752   1.376   0.070   2.198
  243SOL    HW2  753   1.499   0.123   2.292
  244SOL     OW  754   0.249   1.785   3.103
  244SOL    HW1  755   0.306   1.720   3.153
  244SOL    HW2  756   0.233   1.752   3.010
  245SOL     OW  757   0.940   1.698   2.766
  245SOL    HW1  758   1.020   1.641   2.787
  245SOL    HW2  759   0.891   1.658   2.689
  246SOL     OW  760   0.382   0.700   2.342
  246SOL    HW1  761   0.427   0.610   2.339
  246SOL    HW2  762   0.288   0.689   2.375
  247SOL     OW  763   0.614   0.122   1.979
  247SOL    HW1  764   0.712   0.100   1.986
  247SOL    HW2  765   0.583   0.105   1.886
  248SOL     OW  766   0.803   1.402   2.786
  248SOL    HW1  767   0.893   1.416   2.744
  248SOL    HW2  768   0.732   1.404   2.715
  249SOL     OW  769   0.922   0.503   2.761
  249SOL    HW1  770   0.897   0.494   2.665
  249SOL    HW2  771   0.970   0.421   2.792
  250SOL     OW  772   0.539   0.064   2.374
  250SOL    HW1  773   0.458   0.065   2.432
  250SOL    HW2  774   0.542   0.147   2.319
  251SOL     OW  775   1.434   1.188   1.903
  251SOL    HW1  776   1.466   1.112   1.960
  251SOL    HW2  777   1.342   1.215   1.933
  252SOL     OW  778   0.297   0.035   2.033
  252SOL    HW1  779   0.346   0.119   2.012
  252SOL    HW2  780   0.359  -0.030   2.078
  253SOL     OW  781   0.935   0.236   2.342
  253SOL    HW1  782   0.887   0.277   2.264
  253SOL    HW2  783   1.034   0.234   2.323
  254SOL     OW  784   1.227   1.570   2.655
  254SOL    HW1  785   1.248   1.644   2.590
  254SOL    HW2  786   1.295   1.570   2.728
  255SOL     OW  787   0.459   1.152   2.603
  255SOL    HW1  788   0.388   1.125   2.668
  255SOL    HW2  789   0.433   1.124   2.510
  256SOL     OW  790   1.271   1.797   2.453
  256SOL    HW1  791   1.315   1.861   2.389
  256SOL    HW2  792   1.221   1.849   2.523
  257SOL     OW  793   1.032   0.549   1.878
  257SOL    HW1  794   0.991   0.631   1.839
  257SOL    HW2  795   1.096   0.575   1.951
  258SOL     OW  796   0.866   0.454   2.504
  258SOL    HW1  797   0.834   0.526   2.442
  258SOL    HW2  798   0.890   0.373   2.451
  259SOL     OW  799   1.017   0.039   2.615
  259SOL    HW1  800   0.945   0.044   2.546
  259SOL    HW2  801   0.993  -0.030   2.684
  260SOL     OW  802   1.429   1.173   2.729
  260SOL    HW1  803   1.374   1.089   2.722
  260SOL    HW2  804   1.455   1.202   2.637
  261SOL     OW  805   1.466   0.590   2.854
  261SOL    HW1  806   1.436   0.495   2.861
  261SOL    HW2  807   1.539   0.606   2.920
  262SOL     OW  808   1.857   0.833   2.239
  262SOL    HW1  809   1.899   0.769   2.303
  262SOL    HW2  810   1.819   0.782   2.161
  263SOL     OW  811   0.488   1.385   2.036
  263SOL    HW1  812   0.401   1.370   2.083
  263SOL    HW2  813   0.471   1.411   1.941
  264SOL     OW  814   1.664   1.280   2.519
  264SOL    HW1  815   1.763   1.288   2.533
  264SOL    HW2  816   1.619   1.364   2.550
  265SOL     OW  817   1.390   0.575   1.940
  265SOL    HW1  818   1.336   0.554   2.021
  265SOL    HW2  819   1.481   0.534   1.949
  266SOL     OW  820   0.527   0.256   2.190
  266SOL    HW1  821   0.554   0.197   2.115
  266SOL    HW2  822   0.527   0.351   2.159
  267SOL     OW  823   1.638   1.099   2.941
  267SOL    HW1  824   1.643   1.180   3.000
  267SOL    HW2  825   1.552   1.101   2.890
  268SOL     OW  826   0.705   1.050   2.230
  268SOL    HW1  827   0.691   1.057   2.329
  268SOL    HW2  828   0.789   0.999   2.212
  269SOL     OW  829   0.367   1.100   2.363
  269SOL    HW1  830   0.360   1.183   2.307
  269SOL    HW2  831   0.371   1.020   2.303
  270SOL     OW  832   0.566   0.537   2.727
  270SOL    HW1  833   0.578   0.603   2.653
  270SOL    HW2  834   0.612   0.571   2.810
  271SOL     OW  835   1.252   1.348   2.250
  271SOL    HW1  836   1.302   1.425   2.290
  271SOL    HW2  837   1.157   1.350   2.282
  272SOL     OW  838   1.582   0.639   2.334
  272SOL    HW1  839   1.551   0.700   2.407
  272SOL    HW2  840   1.632   0.691   2.265
  273SOL     OW  841   0.573   0.870   2.891
  273SOL    HW1  842   0.617   0.959   2.882
  273SOL    HW2  843   0.510   0.870   2.968
  274SOL     OW  844   1.209   0.525   2.137
  274SOL    HW1  845   1.222   0.441   2.191
  274SOL    HW2  846   1.180   0.599   2.197
  275SOL     OW  847   0.732   0.634   2.926
  275SOL    HW1  848   0.791   0.608   2.850
  275SOL    HW2  849   0.704   0.730   2.915
  276SOL     OW  850   0.307   0.063   2.480
  276SOL    HW1  851   0.296   0.157   2.513
  276SOL    HW2  852   0.302   0.000   2.557
  277SOL     OW  853   1.622   0.367   2.236
  277SOL    HW1  854   1.624   0.291   2.300
  277SOL    HW2  855   1.574   0.444   2.276
  278SOL     OW  856   1.540   0.274   1.987
  278SOL    HW1  857   1.479   0.199   2.010
  278SOL    HW2  858   1.562   0.326   2.070
  279SOL     OW  859   1.303   0.838   1.904
  279SOL    HW1  860   1.337   0.745   1.919
  279SOL    HW2  861   1.321   0.865   1.809
  280SOL     OW  862   1.068   1.333   2.711
  280SOL    HW1  863   1.075   1.249   2.656
  280SOL    HW2  864   1.130   1.402   2.675
  281SOL     OW  865   0.319   0.810   2.811
  281SOL    HW1  866   0.412   0.846   2.816
  281SOL    HW2  867   0.313   0.725   2.863
  282SOL     OW  868   0.339   0.509   2.868
  282SOL    HW1  869   0.287   0.426   2.851
  282SOL    HW2  870   0.416   0.514   2.804
  283SOL     OW  871   0.008   1.326   2.062
  283SOL    HW1  872  -0.085   1.347   2.031
  283SOL    HW2  873   0.018   1.227   2.075
  284SOL     OW  874   0.088   1.801   2.789
  284SOL    HW1  875   0.046   1.715   2.762
  284SOL    HW2  876   0.182   1.804   2.755
  285SOL     OW  877   0.504   1.568   2.772
  285SOL    HW1  878   0.570   1.642   2.781
  285SOL    HW2  879   0.548   1.489   2.730
  286SOL     OW  880   1.002   0.796   3.100
  286SOL    HW1  881   1.043   0.764   3.186
  286SOL    HW2  882   0.906   0.769   3.097
  287SOL     OW  883   0.815   0.572   2.187
  287SOL    HW1  884   0.822   0.483   2.141
  287SOL    HW2  885   0.721   0.606   2.179
  288SOL     OW  886   0.671   0.464   3.131
  288SOL    HW1  887   0.637   0.375   3.101
  288SOL    HW2  888   0.697   0.518   3.051
  289SOL     OW  889   0.473   0.500   2.053
  289SOL    HW1  890   0.534   0.580   2.057
  289SOL    HW2  891   0.378   0.531   2.060
  290SOL     OW  892   1.302   0.855   2.171
  290SOL    HW1  893   1.216   0.824   2.213
  290SOL    HW2  894   1.298   0.841   2.072
  291SOL     OW  895   1.759   1.747   3.016
  291SOL    HW1  896   1.820   1.777   2.943
  291SOL    HW2  897   1.721   1.658   2.994
  292SOL     OW  898   0.083   1.258   2.884
  292SOL    HW1  899   0.078   1.257   2.984
  292SOL    HW2  900   0.000   1.217   2.846
  293SOL     OW  901   1.726   0.135   2.385
  293SOL    HW1  902   1.799   0.118   2.318
  293SOL    HW2  903   1.695   0.048   2.423
  294SOL     OW  904   1.388   1.573   2.339
  294SOL    HW1  905   1.455   1.585   2.265
  294SOL    HW2  906   1.348   1.662   2.362
  295SOL     OW  907   1.280   0.927   2.534
  295SOL    HW1  908   1.340   0.846   2.536
  295SOL    HW2  909   1.320   0.996   2.474
  296SOL     OW  910   0.672   1.616   2.016
  296SOL    HW1  911   0.681   1.626   1.917
  296SOL    HW2  912   0.632   1.527   2.037
  297SOL     OW  913   1.841   0.175   2.825
  297SOL    HW1  914   1.880   0.090   2.789
  297SOL    HW2  915   1.743   0.177   2.806
  298SOL     OW  916   0.263   0.326   2.582
  298SOL    HW1  917   0.184   0.377   2.548
  298SOL    HW2  918   0.254   0.311   2.680
  299SOL     OW  919   1.194   1.612   1.893
  299SOL    HW1  920   1.200   1.519   1.930
  299SOL    HW2  921   1.135   1.612   1.813
  300SOL     OW  922   0.916   0.910   2.153
  300SOL    HW1  923   0.979   0.948   2.085
  300SOL    HW2  924   0.956   0.827   2.192
  301SOL     OW  925   1.504   1.607   1.906
  301SOL    HW1  926   1.412   1.644   1.913
  301SOL    HW2  927   1.542   1.627   1.816
  302SOL     OW  928   1.039   1.098   2.558
  302SOL    HW1  929   0.969   1.051   2.612
  302SOL    HW2  930   1.098   1.030   2.515
  303SOL     OW  931   1.014   0.236   2.833
  303SOL    HW1  932   1.006   0.200   2.740
  303SOL    HW2  933   1.012   0.160   2.898
  304SOL     OW  934   0.590   1.487   2.353
  304SOL    HW1  935   0.632   1.429   2.283
  304SOL    HW2  936   0.546   1.566   2.309
  305SOL     OW  937   0.255   1.348   2.152
  305SOL    HW1  938   0.159   1.349   2.125
  305SOL    HW2  939   0.267   1.401   2.236
  306SOL     OW  940   0.075   0.345   1.895
  306SOL    HW1  941  -0.017   0.317   1.866
  306SOL    HW2  942   0.106   0.422   1.839
  307SOL     OW  943   0.072   0.166   2.180
  307SOL    HW1  944   0.055   0.249   2.126
  307SOL    HW2  945   0.162   0.129   2.158
  308SOL     OW  946   1.183   1.335   1.981
  308SOL    HW1  947   1.084   1.324   1.983
  308SOL    HW2  948   1.217   1.350   2.074
  309SOL     OW  949   1.674   0.883   3.116
  309SOL    HW1  950   1.647   0.794   3.079
  309SOL    HW2  951   1.675   0.951   3.043
  310SOL     OW  952   1.225   0.325   2.311
  310SOL    HW1  953   1.290   0.251   2.300
  310SOL    HW2  954   1.245   0.375   2.395
  311SOL     OW  955   0.594   0.745   2.514
  311SOL    HW1  956   0.644   0.830   2.495
  311SOL    HW2  957   0.506   0.747   2.466
  312SOL     OW  958   0.859   1.374   1.878
  312SOL    HW1  959   0.813   1.389   1.966
  312SOL    HW2  960   0.903   1.459   1.848
  313SOL     OW  961   0.661   1.790   2.815
  313SOL    HW1  962   0.615   1.878   2.802
  313SOL    HW2  963   0.760   1.802   2.808
  314SOL     OW  964   0.859   0.956   2.723
  314SOL    HW1  965   0.913   0.887   2.771
  314SOL    HW2  966   0.827   1.025   2.789
  315SOL     OW  967   1.083   0.984   1.949
  315SOL    HW1  968   1.060   1.037   1.867
  315SOL    HW2  969   1.164   0.928   1.930
  316SOL     OW  970   1.861   1.569   2.713
  316SOL    HW1  971   1.790   1.557   2.643
  316SOL    HW2  972   1.862   1.490   2.773
  317SOL     OW  973   0.079   1.240   2.515
  317SOL    HW1  974   0.078   1.193   2.603
  317SOL    HW2  975   0.161   1.212   2.464
  318SOL     OW  976   1.824   0.192   3.089
  318SOL    HW1  977   1.820   0.102   3.133
  318SOL    HW2  978   1.827   0.181   2.990
  319SOL     OW  979   0.428   0.424   2.382
  319SOL    HW1  980   0.458   0.352   2.320
  319SOL    HW2  981   0.389   0.384   2.465
  320SOL     OW  982   0.812   1.586   2.549
  320SOL    HW1  983   0.844   1.596   2.455
  320SOL    HW2  984   0.733   1.524   2.551
  321SOL     OW  985   0.770   1.330   2.163
  321SOL    HW1  986   0.724   1.243   2.180
  321SOL    HW2  987   0.861   1.327   2.204
  322SOL     OW  988   1.352   0.052   2.030
  322SOL    HW1  989   1.387   0.011   1.946
  322SOL    HW2  990   1.262   0.014   2.050
  323SOL     OW  991   1.300   0.453   2.553
  323SOL    HW1  992   1.241   0.533   2.557
  323SOL    HW2  993   1.315   0.418   2.646
  324SOL     OW  994   1.593   0.221   2.744
  324SOL    HW1  995   1.509   0.220   2.798
  324SOL    HW2  996   1.595   0.304   2.688
  325SOL     OW  997   0.039   1.077   2.162
  325SOL    HW1  998   0.138   1.066   2.153
  325SOL    HW2  999  -0.001   0.991   2.194
  326SOL     OW 1000   0.875   1.646   2.199
  326SOL    HW1 1001   0.798   1.611   2.145
  326SOL    HW2 1002   0.843   1.717   2.261
  327SOL     OW 1003   0.230   2.490   0.113
  327SOL    HW1 1004   0.137   2.488   0.150
  327SOL    HW2 1005   0.231   2.451   0.021
  328SOL     OW 1006   0.225   2.137   0.996
  328SOL    HW1 1007   0.260   2.120   1.088
  328SOL    HW2 1008   0.137   2.092   0.984
  329SOL     OW 1009   0.019   2.230   0.647
  329SOL    HW1 1010  -0.063   2.273   0.686
  329SOL    HW2 1011  -0.009   2.157   0.584
  330SOL     OW 1012   1.135   2.565   0.717
  330SOL    HW1 1013   1.192   2.643   0.692
  330SOL    HW2 1014   1.075   2.591   0.793
  331SOL     OW 1015   1.755   2.469   0.231
  331SOL    HW1 1016   1.743   2.456   0.132
  331SOL    HW2 1017   1.725   2.388   0.280
  332SOL     OW 1018   0.768   3.006   1.023
  332SOL    HW1 1019   0.690   3.023   1.083
  332SOL    HW2 1020   0.802   3.093   0.987
  333SOL     OW 1021   0.850   2.660   1.823
  333SOL    HW1 1022   0.846   2.736   1.888
  333SOL    HW2 1023   0.872   2.696   1.732
  334SOL     OW 1024   0.685   2.874   0.665
  334SOL    HW1 1025   0.754   2.858   0.735
  334SOL    HW2 1026   0.612   2.931   0.703
  335SOL     OW 1027   0.438   2.254   1.499
  335SOL    HW1 1028   0.520   2.198   1.508
  335SOL    HW2 1029   0.357   2.196   1.503
  336SOL     OW 1030   1.603   2.309   0.737
  336SOL    HW1 1031   1.529   2.355   0.687
  336SOL    HW2 1032   1.654   2.377   0.790
  337SOL     OW 1033   0.240   2.953   0.886
  337SOL    HW1 1034   0.254   2.869   0.938
  337SOL    HW2 1035   0.185   3.017   0.941
  338SOL     OW 1036   0.606   2.826   0.123
  338SOL    HW1 1037   0.613   2.910   0.069
  338SOL    HW2 1038   0.652   2.839   0.211
  339SOL     OW 1039   1.594   1.976   1.480
  339SOL    HW1 1040   1.576   2.043   1.408
  339SOL    HW2 1041   1.591   2.022   1.569
  340SOL     OW 1042   0.122   2.505   0.563
  340SOL    HW1 1043   0.077   2.417   0.580
  340SOL    HW2 1044   0.121   2.559   0.647
  341SOL     OW 1045   1.689   2.784   0.612
  341SOL    HW1 1046   1.784   2.755   0.620
  341SOL    HW2 1047   1.681   2.849   0.537
  342SOL     OW 1048   0.113   2.599   1.597
  342SOL    HW1 1049   0.201   2.586   1.642
  342SOL    HW2 1050   0.100   2.696   1.575
  343SOL     OW 1051   0.809   1.866   0.502
  343SOL    HW1 1052   0.849   1.957   0.493
  343SOL    HW2 1053   0.709   1.874   0.508
  344SOL     OW 1054   0.197   2.838   1.264
  344SOL    HW1 1055   0.286   2.793   1.250
  344SOL    HW2 1056   0.124   2.773   1.245
  345SOL     OW 1057   1.525   2.861   0.190
  345SOL    HW1 1058   1.462   2.785   0.203
  345SOL    HW2 1059   1.573   2.879   0.276
  346SOL     OW 1060   0.317   2.113   1.801
  346SOL    HW1 1061   0.388   2.184   1.807
  346SOL    HW2 1062   0.229   2.152   1.829
  347SOL     OW 1063   0.598   2.591   0.270
  347SOL    HW1 1064   0.622   2.660   0.202
  347SOL    HW2 1065   0.520   2.624   0.324
  348SOL     OW 1066   1.281   2.207   0.944
  348SOL    HW1 1067   1.195   2.157   0.931
  348SOL    HW2 1068   1.343   2.153   1.000
  349SOL     OW 1069   0.807   2.467   1.465
  349SOL    HW1 1070   0.760   2.464   1.554
  349SOL    HW2 1071   0.756   2.412   1.399
  350SOL     OW 1072   1.394   2.331   1.674
  350SOL    HW1 1073   1.374   2.374   1.762
  350SOL    HW2 1074   1.472   2.269   1.683
  351SOL     OW 1075   0.973   2.752   1.572
  351SOL    HW1 1076   1.019   2.668   1.543
  351SOL    HW2 1077   0.917   2.786   1.497
  352SOL     OW 1078   0.991   2.272   1.242
  352SOL    HW1 1079   0.914   2.306   1.296
  352SOL    HW2 1080   0.957   2.221   1.163
  353SOL     OW 1081   1.041   2.563   0.429
  353SOL    HW1 1082   1.067   2.559   0.525
  353SOL    HW2 1083   0.956   2.512   0.415
  354SOL     OW 1084   0.076   2.673   0.789
  354SOL    HW1 1085   0.175   2.661   0.798
  354SOL    HW2 1086   0.052   2.768   0.810
  355SOL     OW 1087   0.865   2.210   0.195
  355SOL    HW1 1088   0.924   2.273   0.146
  355SOL    HW2 1089   0.884   2.116   0.166
  356SOL     OW 1090   1.719   2.447   1.831
  356SOL    HW1 1091   1.693   2.536   1.795
  356SOL    HW2 1092   1.717   2.379   1.758
  357SOL     OW 1093   0.550   2.058   0.885
  357SOL    HW1 1094   0.545   2.053   0.985
  357SOL    HW2 1095   0.552   2.154   0.856
  358SOL     OW 1096   1.795   2.928   0.873
  358SOL    HW1 1097   1.733   2.913   0.797
  358SOL    HW2 1098   1.743   2.939   0.958
  359SOL     OW 1099   1.458   2.597   0.728
  359SOL    HW1 1100   1.453   2.532   0.803
  359SOL    HW2 1101   1.538   2.656   0.741
  360SOL     OW 1102   0.202   2.147   1.498
  360SOL    HW1 1103   0.122   2.207   1.485
  360SOL    HW2 1104   0.192   2.098   1.584
  361SOL     OW 1105   1.400   1.969   0.426
  361SOL    HW1 1106   1.376   1.932   0.336
  361SOL    HW2 1107   1.499   1.985   0.430
  362SOL     OW 1108   0.382   2.562   0.480
  362SOL    HW1 1109   0.427   2.472   0.477
  362SOL    HW2 1110   0.288   2.551   0.513
  363SOL     OW 1111   1.547   2.084   1.729
  363SOL    HW1 1112   1.542   2.121   1.821
  363SOL    HW2 1113   1.475   2.015   1.717
  364SOL     OW 1114   0.614   1.984   0.117
  364SOL    HW1 1115   0.712   1.962   0.124
  364SOL    HW2 1116   0.583   1.967   0.024
  365SOL     OW 1117   0.781   2.126   1.749
  365SOL    HW1 1118   0.848   2.065   1.792
  365SOL    HW2 1119   0.708   2.145   1.814
  366SOL     OW 1120   1.351   2.452   1.433
  366SOL    HW1 1121   1.379   2.409   1.518
  366SOL    HW2 1122   1.376   2.548   1.434
  367SOL     OW 1123   0.922   2.365   0.899
  367SOL    HW1 1124   0.897   2.356   0.803
  367SOL    HW2 1125   0.970   2.283   0.930
  368SOL     OW 1126   0.539   1.926   0.512
  368SOL    HW1 1127   0.458   1.927   0.570
  368SOL    HW2 1128   0.542   2.009   0.457
  369SOL     OW 1129   0.935   2.098   0.480
  369SOL    HW1 1130   0.887   2.139   0.402
  369SOL    HW2 1131   1.034   2.096   0.461
  370SOL     OW 1132   1.076   2.545   1.464
  370SOL    HW1 1133   0.996   2.484   1.467
  370SOL    HW2 1134   1.157   2.492   1.440
  371SOL     OW 1135   1.032   2.411   0.016
  371SOL    HW1 1136   0.991   2.493  -0.023
  371SOL    HW2 1137   1.096   2.437   0.089
  372SOL     OW 1138   0.078   2.418   1.386
  372SOL    HW1 1139   0.170   2.417   1.345
  372SOL    HW2 1140   0.072   2.492   1.453
  373SOL     OW 1141   0.561   2.084   1.147
  373SOL    HW1 1142   0.599   2.000   1.184
  373SOL    HW2 1143   0.473   2.103   1.191
  374SOL     OW 1144   0.866   2.316   0.642
  374SOL    HW1 1145   0.834   2.388   0.580
  374SOL    HW2 1146   0.890   2.235   0.589
  375SOL     OW 1147   1.017   1.901   0.753
  375SOL    HW1 1148   0.945   1.906   0.684
  375SOL    HW2 1149   0.993   1.832   0.822
  376SOL     OW 1150   1.429   3.035   0.867
  376SOL    HW1 1151   1.374   2.951   0.860
  376SOL    HW2 1152   1.455   3.064   0.775
  377SOL     OW 1153   1.466   2.452   0.992
  377SOL    HW1 1154   1.436   2.357   0.999
  377SOL    HW2 1155   1.539   2.468   1.058
  378SOL     OW 1156   1.857   2.695   0.377
  378SOL    HW1 1157   1.899   2.631   0.441
  378SOL    HW2 1158   1.819   2.644   0.299
  379SOL     OW 1159   1.390   2.437   0.078
  379SOL    HW1 1160   1.336   2.416   0.159
  379SOL    HW2 1161   1.481   2.396   0.087
  380SOL     OW 1162   0.527   2.118   0.328
  380SOL    HW1 1163   0.554   2.059   0.253
  380SOL    HW2 1164   0.527   2.213   0.297
  381SOL     OW 1165   1.638   2.961   1.079
  381SOL    HW1 1166   1.643   3.042   1.138
  381SOL    HW2 1167   1.552   2.963   1.028
  382SOL     OW 1168   0.915   1.951   1.402
  382SOL    HW1 1169   0.940   1.931   1.307
  382SOL    HW2 1170   0.987   2.007   1.444
  383SOL     OW 1171   0.410   2.675   1.251
  383SOL    HW1 1172   0.496   2.687   1.301
  383SOL    HW2 1173   0.368   2.588   1.278
  384SOL     OW 1174   1.274   2.248   1.262
  384SOL    HW1 1175   1.295   2.322   1.326
  384SOL    HW2 1176   1.185   2.265   1.219
  385SOL     OW 1177   0.566   2.399   0.865
  385SOL    HW1 1178   0.578   2.465   0.791
  385SOL    HW2 1179   0.612   2.433   0.948
  386SOL     OW 1180   1.582   2.501   0.472
  386SOL    HW1 1181   1.551   2.562   0.545
  386SOL    HW2 1182   1.632   2.553   0.403
  387SOL     OW 1183   0.402   2.613   1.598
  387SOL    HW1 1184   0.470   2.668   1.551
  387SOL    HW2 1185   0.442   2.525   1.625
  388SOL     OW 1186   1.587   2.641   1.670
  388SOL    HW1 1187   1.495   2.679   1.665
  388SOL    HW2 1188   1.647   2.688   1.605
  389SOL     OW 1189   1.013   1.967   1.770
  389SOL    HW1 1190   1.019   2.052   1.718
  389SOL    HW2 1191   1.045   1.891   1.713
  390SOL     OW 1192   0.504   1.912   1.740
  390SOL    HW1 1193   0.462   1.855   1.670
  390SOL    HW2 1194   0.438   1.981   1.772
  391SOL     OW 1195   0.573   2.732   1.029
  391SOL    HW1 1196   0.617   2.821   1.020
  391SOL    HW2 1197   0.510   2.732   1.106
  392SOL     OW 1198   1.360   2.724   1.045
  392SOL    HW1 1199   1.285   2.724   0.979
  392SOL    HW2 1200   1.397   2.632   1.054
  393SOL     OW 1201   1.209   2.387   0.275
  393SOL    HW1 1202   1.222   2.303   0.329
  393SOL    HW2 1203   1.180   2.461   0.335
  394SOL     OW 1204   0.307   2.075   1.231
  394SOL    HW1 1205   0.284   2.112   1.321
  394SOL    HW2 1206   0.277   1.980   1.225
  395SOL     OW 1207   0.037   3.172   1.282
  395SOL    HW1 1208   0.090   3.123   1.350
  395SOL    HW2 1209   0.059   3.270   1.287
  396SOL     OW 1210   0.732   2.496   1.064
  396SOL    HW1 1211   0.791   2.470   0.988
  396SOL    HW2 1212   0.704   2.592   1.053
  397SOL     OW 1213   1.728   2.797   1.854
  397SOL    HW1 1214   1.682   2.790   1.765
  397SOL    HW2 1215   1.666   2.841   1.920
  398SOL     OW 1216   0.307   1.925   0.618
  398SOL    HW1 1217   0.296   2.019   0.651
  398SOL    HW2 1218   0.302   1.862   0.695
  399SOL     OW 1219   1.622   2.229   0.374
  399SOL    HW1 1220   1.624   2.153   0.438
  399SOL    HW2 1221   1.574   2.306   0.414
  400SOL     OW 1222   1.023   2.628   0.966
  400SOL    HW1 1223   1.038   2.649   1.062
  400SOL    HW2 1224   0.993   2.533   0.957
  401SOL     OW 1225   0.350   2.760   1.804
  401SOL    HW1 1226   0.426   2.804   1.852
  401SOL    HW2 1227   0.385   2.713   1.722
  402SOL     OW 1228   1.540   2.136   0.125
  402SOL    HW1 1229   1.479   2.061   0.148
  402SOL    HW2 1230   1.562   2.188   0.208
  403SOL     OW 1231   1.303   2.700   0.042
  403SOL    HW1 1232   1.337   2.607   0.057
  403SOL    HW2 1233   1.321   2.727  -0.053
  404SOL     OW 1234   0.319   2.672   0.949
  404SOL    HW1 1235   0.412   2.708   0.954
  404SOL    HW2 1236   0.313   2.587   1.001
  405SOL     OW 1237   0.339   2.371   1.006
  405SOL    HW1 1238   0.287   2.288   0.989
  405SOL    HW2 1239   0.416   2.376   0.942
  406SOL     OW 1240   1.138   2.242   1.678
  406SOL    HW1 1241   1.093   2.305   1.742
  406SOL    HW2 1242   1.231   2.273   1.661
  407SOL     OW 1243   1.160   2.069   1.477
  407SOL    HW1 1244   1.160   2.133   1.554
  407SOL    HW2 1245   1.188   2.117   1.394
  408SOL     OW 1246   1.002   2.658   1.238
  408SOL    HW1 1247   1.043   2.626   1.324
  408SOL    HW2 1248   0.906   2.631   1.235
  409SOL     OW 1249   0.040   2.406   1.114
  409SOL    HW1 1250   0.125   2.373   1.073
  409SOL    HW2 1251   0.053   2.421   1.212
  410SOL     OW 1252   0.189   2.382   1.722
  410SOL    HW1 1253   0.248   2.342   1.652
  410SOL    HW2 1254   0.131   2.453   1.681
  411SOL     OW 1255   1.369   2.812   1.660
  411SOL    HW1 1256   1.408   2.901   1.680
  411SOL    HW2 1257   1.379   2.792   1.563
  412SOL     OW 1258   0.815   2.434   0.325
  412SOL    HW1 1259   0.822   2.345   0.279
  412SOL    HW2 1260   0.721   2.468   0.317
  413SOL     OW 1261   1.657   2.466   1.206
  413SOL    HW1 1262   1.619   2.397   1.268
  413SOL    HW2 1263   1.739   2.430   1.162
  414SOL     OW 1264   0.671   2.326   1.269
  414SOL    HW1 1265   0.637   2.237   1.239
  414SOL    HW2 1266   0.697   2.380   1.189
  415SOL     OW 1267   0.473   2.362   0.191
  415SOL    HW1 1268   0.534   2.442   0.195
  415SOL    HW2 1269   0.378   2.393   0.198
  416SOL     OW 1270   0.159   2.999   1.466
  416SOL    HW1 1271   0.181   2.938   1.542
  416SOL    HW2 1272   0.169   2.950   1.380
  417SOL     OW 1273   1.347   2.921   1.234
  417SOL    HW1 1274   1.371   2.858   1.160
  417SOL    HW2 1275   1.257   2.961   1.216
  418SOL     OW 1276   1.302   2.717   0.309
  418SOL    HW1 1277   1.216   2.686   0.351
  418SOL    HW2 1278   1.298   2.703   0.210
  419SOL     OW 1279   0.903   1.948   0.133
  419SOL    HW1 1280   0.954   1.949   0.047
  419SOL    HW2 1281   0.959   1.906   0.204
  420SOL     OW 1282   1.726   1.997   0.523
  420SOL    HW1 1283   1.799   1.980   0.456
  420SOL    HW2 1284   1.695   1.910   0.561
  421SOL     OW 1285   1.280   2.789   0.672
  421SOL    HW1 1286   1.340   2.708   0.674
  421SOL    HW2 1287   1.320   2.858   0.612
  422SOL     OW 1288   1.841   2.037   0.963
  422SOL    HW1 1289   1.880   1.952   0.927
  422SOL    HW2 1290   1.743   2.039   0.944
  423SOL     OW 1291   0.263   2.188   0.720
  423SOL    HW1 1292   0.184   2.239   0.686
  423SOL    HW2 1293   0.254   2.173   0.818
  424SOL     OW 1294   0.916   2.772   0.291
  424SOL    HW1 1295   0.979   2.810   0.223
  424SOL    HW2 1296   0.956   2.689   0.330
  425SOL     OW 1297   1.014   2.098   0.971
  425SOL    HW1 1298   1.006   2.062   0.878
  425SOL    HW2 1299   1.012   2.022   1.036
  426SOL     OW 1300   1.709   2.247   1.381
  426SOL    HW1 1301   1.782   2.316   1.385
  426SOL    HW2 1302   1.737   2.172   1.322
  427SOL     OW 1303   0.105   2.875   1.726
  427SOL    HW1 1304   0.028   2.842   1.780
  427SOL    HW2 1305   0.190   2.845   1.768
  428SOL     OW 1306   0.672   2.065   1.489
  428SOL    HW1 1307   0.762   2.049   1.449
  428SOL    HW2 1308   0.680   2.070   1.588
  429SOL     OW 1309   0.075   2.207   0.033
  429SOL    HW1 1310  -0.017   2.179   0.004
  429SOL    HW2 1311   0.106   2.284  -0.023
  430SOL     OW 1312   1.440   2.718   1.398
  430SOL    HW1 1313   1.383   2.770   1.335
  430SOL    HW2 1314   1.536   2.730   1.374
  431SOL     OW 1315   0.072   2.028   0.318
  431SOL    HW1 1316   0.055   2.111   0.264
  431SOL    HW2 1317   0.162   1.991   0.296
  432SOL     OW 1318   1.183   3.197   0.119
  432SOL    HW1 1319   1.084   3.186   0.121
  432SOL    HW2 1320   1.217   3.212   0.212
  433SOL     OW 1321   0.613   2.704   1.431
  433SOL    HW1 1322   0.669   2.785   1.414
  433SOL    HW2 1323   0.672   2.624   1.434
  434SOL     OW 1324   0.716   2.427   1.708
  434SOL    HW1 1325   0.735   2.492   1.782
  434SOL    HW2 1326   0.776   2.347   1.717
  435SOL     OW 1327   1.674   2.745   1.254
  435SOL    HW1 1328   1.647   2.656   1.217
  435SOL    HW2 1329   1.675   2.813   1.181
  436SOL     OW 1330   1.225   2.187   0.449
  436SOL    HW1 1331   1.290   2.113   0.438
  436SOL    HW2 1332   1.245   2.237   0.533
  437SOL     OW 1333   0.594   2.607   0.652
  437SOL    HW1 1334   0.644   2.692   0.633
  437SOL    HW2 1335   0.506   2.609   0.604
  438SOL     OW 1336   1.777   2.204   1.642
  438SOL    HW1 1337   1.760   2.235   1.548
  438SOL    HW2 1338   1.693   2.167   1.680
  439SOL     OW 1339   1.730   2.796   1.517
  439SOL    HW1 1340   1.768   2.887   1.532
  439SOL    HW2 1341   1.722   2.779   1.418
  440SOL     OW 1342   0.859   2.818   0.861
  440SOL    HW1 1343   0.913   2.749   0.909
  440SOL    HW2 1344   0.827   2.887   0.927
  441SOL     OW 1345   1.083   2.846   0.087
  441SOL    HW1 1346   1.060   2.899   0.005
  441SOL    HW2 1347   1.164   2.790   0.068
  442SOL     OW 1348   0.079   3.102   0.653
  442SOL    HW1 1349   0.078   3.055   0.741
  442SOL    HW2 1350   0.161   3.074   0.602
  443SOL     OW 1351   1.824   2.054   1.227
  443SOL    HW1 1352   1.820   1.964   1.271
  443SOL    HW2 1353   1.827   2.043   1.128
  444SOL     OW 1354   0.428   2.286   0.520
  444SOL    HW1 1355   0.458   2.214   0.458
  444SOL    HW2 1356   0.389   2.246   0.603
  445SOL     OW 1357   0.317   2.409   1.280
  445SOL    HW1 1358   0.355   2.350   1.352
  445SOL    HW2 1359   0.357   2.383   1.192
  446SOL     OW 1360   1.424   2.076   1.112
  446SOL    HW1 1361   1.476   2.011   1.167
  446SOL    HW2 1362   1.375   2.139   1.173
  447SOL     OW 1363   1.001   1.896   1.154
  447SOL    HW1 1364   0.938   1.824   1.123
  447SOL    HW2 1365   1.094   1.860   1.154
  448SOL     OW 1366   1.352   1.914   0.168
  448SOL    HW1 1367   1.387   1.873   0.084
  448SOL    HW2 1368   1.262   1.876   0.188
  449SOL     OW 1369   1.300   2.315   0.691
  449SOL    HW1 1370   1.241   2.395   0.695
  449SOL    HW2 1371   1.315   2.280   0.784
  450SOL     OW 1372   1.593   2.083   0.882
  450SOL    HW1 1373   1.509   2.082   0.936
  450SOL    HW2 1374   1.595   2.166   0.826
  451SOL     OW 1375   0.039   2.939   0.300
  451SOL    HW1 1376   0.138   2.928   0.291
  451SOL    HW2 1377  -0.001   2.853   0.332
  452SOL     OW 1378   0.230   2.490   1.975
  452SOL    HW1 1379   0.137   2.488   2.012
  452SOL    HW2 1380   0.231   2.451   1.883
  453SOL     OW 1381   0.225   2.137   2.858
  453SOL    HW1 1382   0.260   2.120   2.950
  453SOL    HW2 1383   0.137   2.092   2.846
  454SOL     OW 1384   0.019   2.230   2.509
  454SOL    HW1 1385  -0.063   2.273   2.548
  454SOL    HW2 1386  -0.009   2.157   2.446
  455SOL     OW 1387   1.135   2.565   2.579
  455SOL    HW1 1388   1.192   2.643   2.554
  455SOL    HW2 1389   1.075   2.591   2.655
  456SOL     OW 1390   1.755   2.469   2.093
  456SOL    HW1 1391   1.743   2.456   1.994
  456SOL    HW2 1392   1.725   2.388   2.142
  457SOL     OW 1393   0.685   2.874   2.527
  457SOL    HW1 1394   0.754   2.858   2.597
  457SOL    HW2 1395   0.612   2.931   2.565
  458SOL     OW 1396   1.603   2.309   2.599
  458SOL    HW1 1397   1.529   2.355   2.549
  458SOL    HW2 1398   1.654   2.377   2.652
  459SOL     OW 1399   0.240   2.953   2.748
  459SOL    HW1 1400   0.254   2.869   2.800
  459SOL    HW2 1401   0.185   3.017   2.803
  460SOL     OW 1402   0.606   2.826   1.985
  460SOL    HW1 1403   0.613   2.910   1.931
  460SOL    HW2 1404   0.652   2.839   2.073
  461SOL     OW 1405   0.122   2.505   2.425
  461SOL    HW1 1406   0.077   2.417   2.442
  461SOL    HW2 1407   0.121   2.559   2.509
  462SOL     OW 1408   1.689   2.784   2.474
  462SOL    HW1 1409   1.784   2.755   2.482
  462SOL    HW2 1410   1.681   2.849   2.399
  463SOL     OW 1411   0.809   1.866   2.364
  463SOL    HW1 1412   0.849   1.957   2.355
  463SOL    HW2 1413   0.709   1.874   2.370
  464SOL     OW 1414   0.197   2.838   3.126
  464SOL    HW1 1415   0.286   2.793   3.112
  464SOL    HW2 1416   0.124   2.773   3.107
  465SOL     OW 1417   1.525   2.861   2.052
  465SOL    HW1 1418   1.462   2.785   2.065
  465SOL    HW2 1419   1.573   2.879   2.138
  466SOL     OW 1420   0.598   2.591   2.132
  466SOL    HW1 1421   0.622   2.660   2.064
  466SOL    HW2 1422   0.520   2.624   2.186
  467SOL     OW 1423   1.281   2.207   2.806
  467SOL    HW1 1424   1.195   2.157   2.793
  467SOL    HW2 1425   1.343   2.153   2.862
  468SOL     OW 1426   1.041   2.563   2.291
  468SOL    HW1 1427   1.067   2.559   2.387
  468SOL    HW2 1428   0.956   2.512   2.277
  469SOL     OW 1429   0.076   2.673   2.651
  469SOL    HW1 1430   0.175   2.661   2.660
  469SOL    HW2 1431   0.052   2.768   2.672
  470SOL     OW 1432   0.865   2.210   2.057
  470SOL    HW1 1433   0.924   2.273   2.008
  470SOL    HW2 1434   0.884   2.116   2.028
  471SOL     OW 1435   0.550   2.058   2.747
  471SOL    HW1 1436   0.545   2.053   2.847
  471SOL    HW2 1437   0.552   2.154   2.718
  472SOL     OW 1438   1.795   2.928   2.735
  472SOL    HW1 1439   1.733   2.913   2.659
  472SOL    HW2 1440   1.743   2.939   2.820
  473SOL     OW 1441   1.458   2.597   2.590
  473SOL    HW1 1442   1.453   2.532   2.665
  473SOL    HW2 1443   1.538   2.656   2.603
  474SOL     OW 1444   1.400   1.969   2.288
  474SOL    HW1 1445   1.376   1.932   2.198
  474SOL    HW2 1446   1.499   1.985   2.292
  475SOL     OW 1447   0.382   2.562   2.342
  475SOL    HW1 1448   0.427   2.472   2.339
  475SOL    HW2 1449   0.288   2.551   2.375
  476SOL     OW 1450   0.614   1.984   1.979
  476SOL    HW1 1451   0.712   1.962   1.986
  476SOL    HW2 1452   0.583   1.967   1.886
  477SOL     OW 1453   0.922   2.365   2.761
  477SOL    HW1 1454   0.897   2.356   2.665
  477SOL    HW2 1455   0.970   2.283   2.792
  478SOL     OW 1456   0.539   1.926   2.374
  478SOL    HW1 1457   0.458   1.927   2.432
  478SOL    HW2 1458   0.542   2.009   2.319
  479SOL     OW 1459   0.297   1.897   2.033
  479SOL    HW1 1460   0.346   1.981   2.012
  479SOL    HW2 1461   0.359   1.832   2.078
  480SOL     OW 1462   0.935   2.098   2.342
  480SOL    HW1 1463   0.887   2.139   2.264
  480SOL    HW2 1464   1.034   2.096   2.323
  481SOL     OW 1465   1.032   2.411   1.878
  481SOL    HW1 1466   0.991   2.493   1.839
  481SOL    HW2 1467   1.096   2.437   1.951
  482SOL     OW 1468   0.866   2.316   2.504
  482SOL    HW1 1469   0.834   2.388   2.442
  482SOL    HW2 1470   0.890   2.235   2.451
  483SOL     OW 1471   1.017   1.901   2.615
  483SOL    HW1 1472   0.945   1.906   2.546
  483SOL    HW2 1473   0.993   1.832   2.684
  484SOL     OW 1474   1.429   3.035   2.729
  484SOL    HW1 1475   1.374   2.951   2.722
  484SOL    HW2 1476   1.455   3.064   2.637
  485SOL     OW 1477   1.466   2.452   2.854
  485SOL    HW1 1478   1.436   2.357   2.861
  485SOL    HW2 1479   1.539   2.468   2.920
  486SOL     OW 1480   1.857   2.695   2.239
  486SOL    HW1 1481   1.899   2.631   2.303
  486SOL    HW2 1482   1.819   2.644   2.161
  487SOL     OW 1483   1.390   2.437   1.940
  487SOL    HW1 1484   1.336   2.416   2.021
  487SOL    HW2 1485   1.481   2.396   1.949
  488SOL     OW 1486   0.527   2.118   2.190
  488SOL    HW1 1487   0.554   2.059   2.115
  488SOL    HW2 1488   0.527   2.213   2.159
  489SOL     OW 1489   1.638   2.961   2.941
  489SOL    HW1 1490   1.643   3.042   3.000
  489SOL    HW2 1491   1.552   2.963   2.890
  490SOL     OW 1492   0.566   2.399   2.727
  490SOL    HW1 1493   0.578   2.465   2.653
  490SOL    HW2 1494   0.612   2.433   2.810
  491SOL     OW 1495   1.582   2.501   2.334
  491SOL    HW1 1496   1.551   2.562   2.407
  491SOL    HW2 1497   1.632   2.553   2.265
  492SOL     OW 1498   0.573   2.732   2.891
  492SOL    HW1 1499   0.617   2.821   2.882
  492SOL    HW2 1500   0.510   2.732   2.968
  493SOL     OW 1501   1.209   2.387   2.137
  493SOL    HW1 1502   1.222   2.303   2.191
  493SOL    HW2 1503   1.180   2.461   2.197
  494SOL     OW 1504   0.307   2.075   3.093
  494SOL    HW1 1505   0.284   2.112   3.183
  494SOL    HW2 1506   0.277   1.980   3.087
  495SOL     OW 1507   0.732   2.496   2.926
  495SOL    HW1 1508   0.791   2.470   2.850
  495SOL    HW2 1509   0.704   2.592   2.915
  496SOL     OW 1510   0.307   1.925   2.480
  496SOL    HW1 1511   0.296   2.019   2.513
  496SOL    HW2 1512   0.302   1.862   2.557
  497SOL     OW 1513   1.622   2.229   2.236
  497SOL    HW1 1514   1.624   2.153   2.300
  497SOL    HW2 1515   1.574   2.306   2.276
  498SOL     OW 1516   1.540   2.136   1.987
  498SOL    HW1 1517   1.479   2.061   2.010
  498SOL    HW2 1518   1.562   2.188   2.070
  499SOL     OW 1519   1.303   2.700   1.904
  499SOL    HW1 1520   1.337   2.607   1.919
  499SOL    HW2 1521   1.321   2.727   1.809
  500SOL     OW 1522   0.319   2.672   2.811
  500SOL    HW1 1523   0.412   2.708   2.816
  500SOL    HW2 1524   0.313   2.587   2.863
  501SOL     OW 1525   0.339   2.371   2.868
  501SOL    HW1 1526   0.287   2.288   2.851
  501SOL    HW2 1527   0.416   2.376   2.804
  502SOL     OW 1528   1.002   2.658   3.100
  502SOL    HW1 1529   1.043   2.626   3.186
  502SOL    HW2 1530   0.906   2.631   3.097
  503SOL     OW 1531   0.815   2.434   2.187
  503SOL    HW1 1532   0.822   2.345   2.141
  503SOL    HW2 1533   0.721   2.468   2.179
  504SOL     OW 1534   0.671   2.326   3.131
  504SOL    HW1 1535   0.637   2.237   3.101
  504SOL    HW2 1536   0.697   2.380   3.051
  505SOL     OW 1537   0.473   2.362   2.053
  505SOL    HW1 1538   0.534   2.442   2.057
  505SOL    HW2 1539   0.378   2.393   2.060
  506SOL     OW 1540   1.302   2.717   2.171
  506SOL    HW1 1541   1.216   2.686   2.213
  506SOL    HW2 1542   1.298   2.703   2.072
  507SOL     OW 1543   1.726   1.997   2.385
  507SOL    HW1 1544   1.799   1.980   2.318
  507SOL    HW2 1545   1.695   1.910   2.423
  508SOL     OW 1546   1.280   2.789   2.534
  508SOL    HW1 1547   1.340   2.708   2.536
  508SOL    HW2 1548   1.320   2.858   2.474
  509SOL     OW 1549   1.841   2.037   2.825
  509SOL    HW1 1550   1.880   1.952   2.789
  509SOL    HW2 1551   1.743   2.039   2.806
  510SOL     OW 1552   0.263   2.188   2.582
  510SOL    HW1 1553   0.184   2.239   2.548
  510SOL    HW2 1554   0.254   2.173   2.680
  511SOL     OW 1555   0.916   2.772   2.153
  511SOL    HW1 1556   0.979   2.810   2.085
  511SOL    HW2 1557   0.956   2.689   2.192
  512SOL     OW 1558   1.014   2.098   2.833
  512SOL    HW1 1559   1.006   2.062   2.740
  512SOL    HW2 1560   1.012   2.022   2.898
  513SOL     OW 1561   0.075   2.207   1.895
  513SOL    HW1 1562  -0.017   2.179   1.866
  513SOL    HW2 1563   0.106   2.284   1.839
  514SOL     OW 1564   0.072   2.028   2.180
  514SOL    HW1 1565   0.055   2.111   2.126
  514SOL    HW2 1566   0.162   1.991   2.158
  515SOL     OW 1567   1.183   3.197   1.981
  515SOL    HW1 1568   1.084   3.186   1.983
  515SOL    HW2 1569   1.217   3.212   2.074
  516SOL     OW 1570   1.674   2.745   3.116
  516SOL    HW1 1571   1.647   2.656   3.079
  516SOL    HW2 1572   1.675   2.813   3.043
  517SOL     OW 1573   1.225   2.187   2.311
  517SOL    HW1 1574   1.290   2.113   2.300
  517SOL    HW2 1575   1.245   2.237   2.395
  518SOL     OW 1576   0.594   2.607   2.514
  518SOL    HW1 1577   0.644   2.692   2.495
  518SOL    HW2 1578   0.506   2.609   2.466
  519SOL     OW 1579   0.859   2.818   2.723
  519SOL    HW1 1580   0.913   2.749   2.771
  519SOL    HW2 1581   0.827   2.887   2.789
  520SOL     OW 1582   1.083   2.846   1.949
  520SOL    HW1 1583   1.060   2.899   1.867
  520SOL    HW2 1584   1.164   2.790   1.930
  521SOL     OW 1585   0.079   3.102   2.515
  521SOL    HW1 1586   0.078   3.055   2.603
  521SOL    HW2 1587   0.161   3.074   2.464
  522SOL     OW 1588   1.824   2.054   3.089
  522SOL    HW1 1589   1.820   1.964   3.133
  522SOL    HW2 1590   1.827   2.043   2.990
  523SOL     OW 1591   0.428   2.286   2.382
  523SOL    HW1 1592   0.458   2.214   2.320
  523SOL    HW2 1593   0.389   2.246   2.465
  524SOL     OW 1594   1.352   1.914   2.030
  524SOL    HW1 1595   1.387   1.873   1.946
  524SOL    HW2 1596   1.262   1.876   2.050
  525SOL     OW 1597   1.300   2.315   2.553
  525SOL    HW1 1598   1.241   2.395   2.557
  525SOL    HW2 1599   1.315   2.280   2.646
  526SOL     OW 1600   1.593   2.083   2.744
  526SOL    HW1 1601   1.509   2.082   2.798
  526SOL    HW2 1602   1.595   2.166   2.688
  527SOL     OW 1603   0.039   2.939   2.162
  527SOL    HW1 1604   0.138   2.928   2.153
  527SOL    HW2 1605  -0.001   2.853   2.194
  528SOL     OW 1606   2.092   0.628   0.113
  528SOL    HW1 1607   1.999   0.626   0.150
  528SOL    HW2 1608   2.093   0.589   0.021
  529SOL     OW 1609   2.087   0.275   0.996
  529SOL    HW1 1610   2.122   0.258   1.088
  529SOL    HW2 1611   1.999   0.230   0.984
  530SOL     OW 1612   1.881   0.368   0.647
  530SOL    HW1 1613   1.799   0.411   0.686
  530SOL    HW2 1614   1.853   0.295   0.584
  531SOL     OW 1615   2.431   1.275   1.165
  531SOL    HW1 1616   2.338   1.268   1.128
  531SOL    HW2 1617   2.442   1.364   1.209
  532SOL     OW 1618   2.630   1.144   1.023
  532SOL    HW1 1619   2.552   1.161   1.083
  532SOL    HW2 1620   2.664   1.231   0.987
  533SOL     OW 1621   2.712   0.798   1.823
  533SOL    HW1 1622   2.708   0.874   1.888
  533SOL    HW2 1623   2.734   0.834   1.732
  534SOL     OW 1624   2.547   1.012   0.665
  534SOL    HW1 1625   2.616   0.996   0.735
  534SOL    HW2 1626   2.474   1.069   0.703
  535SOL     OW 1627   2.548   1.161   1.803
  535SOL    HW1 1628   2.608   1.240   1.817
  535SOL    HW2 1629   2.462   1.192   1.762
  536SOL     OW 1630   2.197   1.435   1.061
  536SOL    HW1 1631   2.119   1.404   1.008
  536SOL    HW2 1632   2.255   1.493   1.004
  537SOL     OW 1633   2.300   0.392   1.499
  537SOL    HW1 1634   2.382   0.336   1.508
  537SOL    HW2 1635   2.219   0.334   1.503
  538SOL     OW 1636   2.093   1.713   0.483
  538SOL    HW1 1637   2.127   1.790   0.537
  538SOL    HW2 1638   2.137   1.713   0.393
  539SOL     OW 1639   2.092   1.434   0.538
  539SOL    HW1 1640   2.066   1.530   0.538
  539SOL    HW2 1641   2.021   1.380   0.583
  540SOL     OW 1642   2.102   1.091   0.886
  540SOL    HW1 1643   2.116   1.007   0.938
  540SOL    HW2 1644   2.047   1.155   0.941
  541SOL     OW 1645   2.482   1.786   1.439
  541SOL    HW1 1646   2.390   1.769   1.474
  541SOL    HW2 1647   2.510   1.878   1.465
  542SOL     OW 1648   2.468   0.964   0.123
  542SOL    HW1 1649   2.475   1.048   0.069
  542SOL    HW2 1650   2.514   0.977   0.211
  543SOL     OW 1651   1.984   0.643   0.563
  543SOL    HW1 1652   1.939   0.555   0.580
  543SOL    HW2 1653   1.983   0.697   0.647
  544SOL     OW 1654   1.889   1.596   0.117
  544SOL    HW1 1655   1.870   1.500   0.138
  544SOL    HW2 1656   1.856   1.654   0.192
  545SOL     OW 1657   1.975   0.737   1.597
  545SOL    HW1 1658   2.063   0.724   1.642
  545SOL    HW2 1659   1.962   0.834   1.575
  546SOL     OW 1660   2.475   1.365   0.726
  546SOL    HW1 1661   2.426   1.278   0.735
  546SOL    HW2 1662   2.452   1.408   0.639
  547SOL     OW 1663   2.671   0.004   0.502
  547SOL    HW1 1664   2.711   0.095   0.493
  547SOL    HW2 1665   2.571   0.012   0.508
  548SOL     OW 1666   2.059   0.976   1.264
  548SOL    HW1 1667   2.148   0.931   1.250
  548SOL    HW2 1668   1.986   0.911   1.245
  549SOL     OW 1669   2.179   0.251   1.801
  549SOL    HW1 1670   2.250   0.322   1.807
  549SOL    HW2 1671   2.091   0.290   1.829
  550SOL     OW 1672   2.460   0.729   0.270
  550SOL    HW1 1673   2.484   0.798   0.202
  550SOL    HW2 1674   2.382   0.762   0.324
  551SOL     OW 1675   2.669   0.605   1.465
  551SOL    HW1 1676   2.622   0.602   1.554
  551SOL    HW2 1677   2.618   0.550   1.399
  552SOL     OW 1678   2.835   0.890   1.572
  552SOL    HW1 1679   2.881   0.806   1.543
  552SOL    HW2 1680   2.779   0.924   1.497
  553SOL     OW 1681   2.853   0.410   1.242
  553SOL    HW1 1682   2.776   0.444   1.296
  553SOL    HW2 1683   2.819   0.359   1.163
  554SOL     OW 1684   2.903   0.701   0.429
  554SOL    HW1 1685   2.929   0.697   0.525
  554SOL    HW2 1686   2.818   0.650   0.415
  555SOL     OW 1687   1.938   0.811   0.789
  555SOL    HW1 1688   2.037   0.799   0.798
  555SOL    HW2 1689   1.914   0.906   0.810
  556SOL     OW 1690   1.992   1.821   1.571
  556SOL    HW1 1691   1.982   1.806   1.670
  556SOL    HW2 1692   1.906   1.857   1.535
  557SOL     OW 1693   2.727   0.348   0.195
  557SOL    HW1 1694   2.786   0.411   0.146
  557SOL    HW2 1695   2.746   0.254   0.166
  558SOL     OW 1696   2.412   0.196   0.885
  558SOL    HW1 1697   2.407   0.191   0.985
  558SOL    HW2 1698   2.414   0.292   0.856
  559SOL     OW 1699   2.870   1.456   0.477
  559SOL    HW1 1700   2.824   1.528   0.425
  559SOL    HW2 1701   2.866   1.476   0.575
  560SOL     OW 1702   2.213   1.801   0.853
  560SOL    HW1 1703   2.263   1.715   0.859
  560SOL    HW2 1704   2.278   1.878   0.850
  561SOL     OW 1705   2.183   0.943   0.242
  561SOL    HW1 1706   2.265   0.982   0.200
  561SOL    HW2 1707   2.156   0.861   0.193
  562SOL     OW 1708   2.323   1.266   1.727
  562SOL    HW1 1709   2.273   1.267   1.641
  562SOL    HW2 1710   2.260   1.248   1.803
  563SOL     OW 1711   2.064   0.285   1.498
  563SOL    HW1 1712   1.984   0.345   1.485
  563SOL    HW2 1713   2.054   0.236   1.584
  564SOL     OW 1714   2.326   1.743   0.323
  564SOL    HW1 1715   2.359   1.782   0.409
  564SOL    HW2 1716   2.402   1.736   0.258
  565SOL     OW 1717   2.111   1.785   1.241
  565SOL    HW1 1718   2.168   1.720   1.291
  565SOL    HW2 1719   2.095   1.752   1.148
  566SOL     OW 1720   2.802   1.698   0.904
  566SOL    HW1 1721   2.882   1.641   0.925
  566SOL    HW2 1722   2.753   1.658   0.827
  567SOL     OW 1723   2.244   0.700   0.480
  567SOL    HW1 1724   2.289   0.610   0.477
  567SOL    HW2 1725   2.150   0.689   0.513
  568SOL     OW 1726   2.476   0.122   0.117
  568SOL    HW1 1727   2.574   0.100   0.124
  568SOL    HW2 1728   2.445   0.105   0.024
  569SOL     OW 1729   2.643   0.264   1.749
  569SOL    HW1 1730   2.710   0.203   1.792
  569SOL    HW2 1731   2.570   0.283   1.814
  570SOL     OW 1732   2.750   1.514   1.195
  570SOL    HW1 1733   2.727   1.489   1.101
  570SOL    HW2 1734   2.811   1.445   1.234
  571SOL     OW 1735   2.665   1.402   0.924
  571SOL    HW1 1736   2.755   1.416   0.882
  571SOL    HW2 1737   2.594   1.404   0.853
  572SOL     OW 1738   2.784   0.503   0.899
  572SOL    HW1 1739   2.759   0.494   0.803
  572SOL    HW2 1740   2.832   0.421   0.930
  573SOL     OW 1741   2.401   0.064   0.512
  573SOL    HW1 1742   2.320   0.065   0.570
  573SOL    HW2 1743   2.404   0.147   0.457
  574SOL     OW 1744   3.296   1.188   0.041
  574SOL    HW1 1745   3.328   1.112   0.098
  574SOL    HW2 1746   3.204   1.215   0.071
  575SOL     OW 1747   2.159   0.035   0.171
  575SOL    HW1 1748   2.208   0.119   0.150
  575SOL    HW2 1749   2.221  -0.030   0.216
  576SOL     OW 1750   2.797   0.236   0.480
  576SOL    HW1 1751   2.749   0.277   0.402
  576SOL    HW2 1752   2.896   0.234   0.461
  577SOL     OW 1753   3.089   1.570   0.793
  577SOL    HW1 1754   3.110   1.644   0.728
  577SOL    HW2 1755   3.157   1.570   0.866
  578SOL     OW 1756   2.321   1.152   0.741
  578SOL    HW1 1757   2.250   1.125   0.806
  578SOL    HW2 1758   2.295   1.124   0.648
  579SOL     OW 1759   2.894   0.549   0.016
  579SOL    HW1 1760   2.853   0.631  -0.023
  579SOL    HW2 1761   2.958   0.575   0.089
  580SOL     OW 1762   1.940   0.556   1.386
  580SOL    HW1 1763   2.032   0.555   1.345
  580SOL    HW2 1764   1.934   0.630   1.453
  581SOL     OW 1765   2.423   0.222   1.147
  581SOL    HW1 1766   2.461   0.138   1.184
  581SOL    HW2 1767   2.335   0.241   1.191
  582SOL     OW 1768   2.728   0.454   0.642
  582SOL    HW1 1769   2.696   0.526   0.580
  582SOL    HW2 1770   2.752   0.373   0.589
  583SOL     OW 1771   2.879   0.039   0.753
  583SOL    HW1 1772   2.807   0.044   0.684
  583SOL    HW2 1773   2.855  -0.030   0.822
  584SOL     OW 1774   2.350   1.385   0.174
  584SOL    HW1 1775   2.263   1.370   0.221
  584SOL    HW2 1776   2.333   1.411   0.079
  585SOL     OW 1777   2.389   0.256   0.328
  585SOL    HW1 1778   2.416   0.197   0.253
  585SOL    HW2 1779   2.389   0.351   0.297
  586SOL     OW 1780   2.777   0.089   1.402
  586SOL    HW1 1781   2.802   0.069   1.307
  586SOL    HW2 1782   2.849   0.145   1.444
  587SOL     OW 1783   2.842   1.116   1.719
  587SOL    HW1 1784   2.743   1.122   1.729
  587SOL    HW2 1785   2.865   1.036   1.663
  588SOL     OW 1786   2.567   1.050   0.368
  588SOL    HW1 1787   2.553   1.057   0.467
  588SOL    HW2 1788   2.651   0.999   0.350
  589SOL     OW 1789   2.272   0.813   1.251
  589SOL    HW1 1790   2.358   0.825   1.301
  589SOL    HW2 1791   2.230   0.726   1.278
  590SOL     OW 1792   1.926   1.564   1.331
  590SOL    HW1 1793   1.880   1.646   1.297
  590SOL    HW2 1794   2.024   1.583   1.340
  591SOL     OW 1795   2.229   1.100   0.501
  591SOL    HW1 1796   2.222   1.183   0.445
  591SOL    HW2 1797   2.233   1.020   0.441
  592SOL     OW 1798   2.428   0.537   0.865
  592SOL    HW1 1799   2.440   0.603   0.791
  592SOL    HW2 1800   2.474   0.571   0.948
  593SOL     OW 1801   2.216   1.510   1.329
  593SOL    HW1 1802   2.195   1.466   1.242
  593SOL    HW2 1803   2.313   1.536   1.332
  594SOL     OW 1804   2.264   0.751   1.598
  594SOL    HW1 1805   2.332   0.806   1.551
  594SOL    HW2 1806   2.304   0.663   1.625
  595SOL     OW 1807   2.875   0.105   1.770
  595SOL    HW1 1808   2.881   0.190   1.718
  595SOL    HW2 1809   2.907   0.029   1.713
  596SOL     OW 1810   2.366   0.050   1.740
  596SOL    HW1 1811   2.324  -0.007   1.670
  596SOL    HW2 1812   2.300   0.119   1.772
  597SOL     OW 1813   2.435   0.870   1.029
  597SOL    HW1 1814   2.479   0.959   1.020
  597SOL    HW2 1815   2.372   0.870   1.106
  598SOL     OW 1816   3.071   0.525   0.275
  598SOL    HW1 1817   3.084   0.441   0.329
  598SOL    HW2 1818   3.042   0.599   0.335
  599SOL     OW 1819   2.169   0.213   1.231
  599SOL    HW1 1820   2.146   0.250   1.321
  599SOL    HW2 1821   2.139   0.118   1.225
  600SOL     OW 1822   1.899   1.310   1.282
  600SOL    HW1 1823   1.952   1.261   1.350
  600SOL    HW2 1824   1.921   1.408   1.287
  601SOL     OW 1825   2.594   0.634   1.064
  601SOL    HW1 1826   2.653   0.608   0.988
  601SOL    HW2 1827   2.566   0.730   1.053
  602SOL     OW 1828   2.169   0.063   0.618
  602SOL    HW1 1829   2.158   0.157   0.651
  602SOL    HW2 1830   2.164   0.000   0.695
  603SOL     OW 1831   2.885   0.766   0.966
  603SOL    HW1 1832   2.900   0.787   1.062
  603SOL    HW2 1833   2.855   0.671   0.957
  604SOL     OW 1834   2.842   1.573   1.700
  604SOL    HW1 1835   2.822   1.617   1.612
  604SOL    HW2 1836   2.881   1.482   1.684
  605SOL     OW 1837   2.212   0.898   1.804
  605SOL    HW1 1838   2.288   0.942   1.852
  605SOL    HW2 1839   2.247   0.851   1.722
  606SOL     OW 1840   2.181   0.810   0.949
  606SOL    HW1 1841   2.274   0.846   0.954
  606SOL    HW2 1842   2.175   0.725   1.001
  607SOL     OW 1843   2.201   0.509   1.006
  607SOL    HW1 1844   2.149   0.426   0.989
  607SOL    HW2 1845   2.278   0.514   0.942
  608SOL     OW 1846   1.870   1.326   0.200
  608SOL    HW1 1847   1.777   1.347   0.169
  608SOL    HW2 1848   1.880   1.227   0.213
  609SOL     OW 1849   1.950   1.801   0.927
  609SOL    HW1 1850   1.908   1.715   0.900
  609SOL    HW2 1851   2.044   1.804   0.893
  610SOL     OW 1852   2.366   1.568   0.910
  610SOL    HW1 1853   2.432   1.642   0.919
  610SOL    HW2 1854   2.410   1.489   0.868
  611SOL     OW 1855   2.864   0.796   1.238
  611SOL    HW1 1856   2.905   0.764   1.324
  611SOL    HW2 1857   2.768   0.769   1.235
  612SOL     OW 1858   1.902   0.544   1.114
  612SOL    HW1 1859   1.987   0.511   1.073
  612SOL    HW2 1860   1.915   0.559   1.212
  613SOL     OW 1861   2.051   0.520   1.722
  613SOL    HW1 1862   2.110   0.480   1.652
  613SOL    HW2 1863   1.993   0.591   1.681
  614SOL     OW 1864   2.677   0.572   0.325
  614SOL    HW1 1865   2.684   0.483   0.279
  614SOL    HW2 1866   2.583   0.606   0.317
  615SOL     OW 1867   2.114   1.564   1.744
  615SOL    HW1 1868   2.084   1.621   1.820
  615SOL    HW2 1869   2.107   1.467   1.770
  616SOL     OW 1870   2.533   0.464   1.269
  616SOL    HW1 1871   2.499   0.375   1.239
  616SOL    HW2 1872   2.559   0.518   1.189
  617SOL     OW 1873   2.792   1.678   1.465
  617SOL    HW1 1874   2.768   1.660   1.370
  617SOL    HW2 1875   2.822   1.772   1.475
  618SOL     OW 1876   2.335   0.500   0.191
  618SOL    HW1 1877   2.396   0.580   0.195
  618SOL    HW2 1878   2.240   0.531   0.198
  619SOL     OW 1879   2.021   1.137   1.466
  619SOL    HW1 1880   2.043   1.076   1.542
  619SOL    HW2 1881   2.031   1.088   1.380
  620SOL     OW 1882   1.945   1.258   1.022
  620SOL    HW1 1883   1.940   1.257   1.122
  620SOL    HW2 1884   1.862   1.217   0.984
  621SOL     OW 1885   2.550   1.662   1.716
  621SOL    HW1 1886   2.494   1.743   1.725
  621SOL    HW2 1887   2.602   1.666   1.630
  622SOL     OW 1888   2.765   0.086   0.133
  622SOL    HW1 1889   2.816   0.087   0.047
  622SOL    HW2 1890   2.821   0.044   0.204
  623SOL     OW 1891   1.992   1.794   1.851
  623SOL    HW1 1892   1.951   1.720   1.904
  623SOL    HW2 1893   2.056   1.845   1.909
  624SOL     OW 1894   3.142   0.927   0.672
  624SOL    HW1 1895   3.202   0.846   0.674
  624SOL    HW2 1896   3.182   0.996   0.612
  625SOL     OW 1897   2.692   1.273   1.422
  625SOL    HW1 1898   2.687   1.306   1.517
  625SOL    HW2 1899   2.606   1.292   1.376
  626SOL     OW 1900   2.534   1.616   0.154
  626SOL    HW1 1901   2.543   1.626   0.055
  626SOL    HW2 1902   2.494   1.527   0.175
  627SOL     OW 1903   2.125   0.326   0.720
  627SOL    HW1 1904   2.046   0.377   0.686
  627SOL    HW2 1905   2.116   0.311   0.818
  628SOL     OW 1906   2.684   1.002   1.372
  628SOL    HW1 1907   2.724   1.001   1.280
  628SOL    HW2 1908   2.694   1.094   1.412
  629SOL     OW 1909   2.778   0.910   0.291
  629SOL    HW1 1910   2.841   0.948   0.223
  629SOL    HW2 1911   2.818   0.827   0.330
  630SOL     OW 1912   2.234   1.288   1.490
  630SOL    HW1 1913   2.221   1.381   1.456
  630SOL    HW2 1914   2.150   1.236   1.477
  631SOL     OW 1915   2.901   1.098   0.696
  631SOL    HW1 1916   2.831   1.051   0.750
  631SOL    HW2 1917   2.960   1.030   0.653
  632SOL     OW 1918   2.876   0.236   0.971
  632SOL    HW1 1919   2.868   0.200   0.878
  632SOL    HW2 1920   2.874   0.160   1.036
  633SOL     OW 1921   2.452   1.487   0.491
  633SOL    HW1 1922   2.494   1.429   0.421
  633SOL    HW2 1923   2.408   1.566   0.447
  634SOL     OW 1924   2.117   1.348   0.290
  634SOL    HW1 1925   2.021   1.349   0.263
  634SOL    HW2 1926   2.129   1.401   0.374
  635SOL     OW 1927   1.967   1.013   1.726
  635SOL    HW1 1928   1.890   0.980   1.780
  635SOL    HW2 1929   2.052   0.983   1.768
  636SOL     OW 1930   2.534   0.203   1.489
  636SOL    HW1 1931   2.624   0.187   1.449
  636SOL    HW2 1932   2.542   0.208   1.588
  637SOL     OW 1933   1.937   0.345   0.033
  637SOL    HW1 1934   1.845   0.317   0.004
  637SOL    HW2 1935   1.968   0.422  -0.023
  638SOL     OW 1936   1.934   0.166   0.318
  638SOL    HW1 1937   1.917   0.249   0.264
  638SOL    HW2 1938   2.024   0.129   0.296
  639SOL     OW 1939   2.475   0.842   1.431
  639SOL    HW1 1940   2.531   0.923   1.414
  639SOL    HW2 1941   2.534   0.762   1.434
  640SOL     OW 1942   2.578   0.565   1.708
  640SOL    HW1 1943   2.597   0.630   1.782
  640SOL    HW2 1944   2.638   0.485   1.717
  641SOL     OW 1945   2.252   1.741   1.560
  641SOL    HW1 1946   2.161   1.782   1.558
  641SOL    HW2 1947   2.245   1.647   1.592
  642SOL     OW 1948   3.087   0.325   0.449
  642SOL    HW1 1949   3.152   0.251   0.438
  642SOL    HW2 1950   3.107   0.375   0.533
  643SOL     OW 1951   2.456   0.745   0.652
  643SOL    HW1 1952   2.506   0.830   0.633
  643SOL    HW2 1953   2.368   0.747   0.604
  644SOL     OW 1954   2.721   1.374   0.016
  644SOL    HW1 1955   2.675   1.389   0.104
  644SOL    HW2 1956   2.765   1.459  -0.014
  645SOL     OW 1957   2.523   1.790   0.953
  645SOL    HW1 1958   2.477   1.878   0.940
  645SOL    HW2 1959   2.622   1.802   0.946
  646SOL     OW 1960   2.721   0.956   0.861
  646SOL    HW1 1961   2.775   0.887   0.909
  646SOL    HW2 1962   2.689   1.025   0.927
  647SOL     OW 1963   2.945   0.984   0.087
  647SOL    HW1 1964   2.922   1.037   0.005
  647SOL    HW2 1965   3.026   0.928   0.068
  648SOL     OW 1966   2.083   1.314   1.844
  648SOL    HW1 1967   2.018   1.241   1.823
  648SOL    HW2 1968   2.087   1.328   1.942
  649SOL     OW 1969   1.941   1.240   0.653
  649SOL    HW1 1970   1.940   1.193   0.741
  649SOL    HW2 1971   2.023   1.212   0.602
  650SOL     OW 1972   2.534   1.391   1.624
  650SOL    HW1 1973   2.456   1.341   1.662
  650SOL    HW2 1974   2.531   1.486   1.655
  651SOL     OW 1975   2.290   0.424   0.520
  651SOL    HW1 1976   2.320   0.352   0.458
  651SOL    HW2 1977   2.251   0.384   0.603
  652SOL     OW 1978   2.179   0.547   1.280
  652SOL    HW1 1979   2.217   0.488   1.352
  652SOL    HW2 1980   2.219   0.521   1.192
  653SOL     OW 1981   2.674   1.586   0.687
  653SOL    HW1 1982   2.706   1.596   0.593
  653SOL    HW2 1983   2.595   1.524   0.689
  654SOL     OW 1984   2.863   0.034   1.154
  654SOL    HW1 1985   2.800  -0.038   1.123
  654SOL    HW2 1986   2.956  -0.002   1.154
  655SOL     OW 1987   2.632   1.330   0.301
  655SOL    HW1 1988   2.586   1.243   0.318
  655SOL    HW2 1989   2.723   1.327   0.342
  656SOL     OW 1990   2.480   1.567   1.284
  656SOL    HW1 1991   2.475   1.649   1.341
  656SOL    HW2 1992   2.569   1.564   1.239
  657SOL     OW 1993   1.901   1.077   0.300
  657SOL    HW1 1994   2.000   1.066   0.291
  657SOL    HW2 1995   1.861   0.991   0.332
  658SOL     OW 1996   2.737   1.646   0.337
  658SOL    HW1 1997   2.660   1.611   0.283
  658SOL    HW2 1998   2.705   1.717   0.399
  659SOL     OW 1999   2.092   0.628   1.975
  659SOL    HW1 2000   1.999   0.626   2.012
  659SOL    HW2 2001   2.093   0.589   1.883
  660SOL     OW 2002   2.087   0.275   2.858
  660SOL    HW1 2003   2.122   0.258   2.950
  660SOL    HW2 2004   1.999   0.230   2.846
  661SOL     OW 2005   1.881   0.368   2.509
  661SOL    HW1 2006   1.799   0.411   2.548
  661SOL    HW2 2007   1.853   0.295   2.446
  662SOL     OW 2008   2.630   1.144   2.885
  662SOL    HW1 2009   2.552   1.161   2.945
  662SOL    HW2 2010   2.664   1.231   2.849
  663SOL     OW 2011   2.547   1.012   2.527
  663SOL    HW1 2012   2.616   0.996   2.597
  663SOL    HW2 2013   2.474   1.069   2.565
  664SOL     OW 2014   2.197   1.435   2.923
  664SOL    HW1 2015   2.119   1.404   2.870
  664SOL    HW2 2016   2.255   1.493   2.866
  665SOL     OW 2017   2.093   1.713   2.345
  665SOL    HW1 2018   2.127   1.790   2.399
  665SOL    HW2 2019   2.137   1.713   2.255
  666SOL     OW 2020   2.092   1.434   2.400
  666SOL    HW1 2021   2.066   1.530   2.400
  666SOL    HW2 2022   2.021   1.380   2.445
  667SOL     OW 2023   2.102   1.091   2.748
  667SOL    HW1 2024   2.116   1.007   2.800
  667SOL    HW2 2025   2.047   1.155   2.803
  668SOL     OW 2026   2.468   0.964   1.985
  668SOL    HW1 2027   2.475   1.048   1.931
  668SOL    HW2 2028   2.514   0.977   2.073
  669SOL     OW 2029   1.984   0.643   2.425
  669SOL    HW1 2030   1.939   0.555   2.442
  669SOL    HW2 2031   1.983   0.697   2.509
  670SOL     OW 2032   1.889   1.596   1.979
  670SOL    HW1 2033   1.870   1.500   2.000
  670SOL    HW2 2034   1.856   1.654   2.054
  671SOL     OW 2035   2.475   1.365   2.588
  671SOL    HW1 2036   2.426   1.278   2.597
  671SOL    HW2 2037   2.452   1.408   2.501
  672SOL     OW 2038   2.671   0.004   2.364
  672SOL    HW1 2039   2.711   0.095   2.355
  672SOL    HW2 2040   2.571   0.012   2.370
  673SOL     OW 2041   2.460   0.729   2.132
  673SOL    HW1 2042   2.484   0.798   2.064
  673SOL    HW2 2043   2.382   0.762   2.186
  674SOL     OW 2044   2.903   0.701   2.291
  674SOL    HW1 2045   2.929   0.697   2.387
  674SOL    HW2 2046   2.818   0.650   2.277
  675SOL     OW 2047   1.938   0.811   2.651
  675SOL    HW1 2048   2.037   0.799   2.660
  675SOL    HW2 2049   1.914   0.906   2.672
  676SOL     OW 2050   2.727   0.348   2.057
  676SOL    HW1 2051   2.786   0.411   2.008
  676SOL    HW2 2052   2.746   0.254   2.028
  677SOL     OW 2053   2.412   0.196   2.747
  677SOL    HW1 2054   2.407   0.191   2.847
  677SOL    HW2 2055   2.414   0.292   2.718
  678SOL     OW 2056   2.870   1.456   2.339
  678SOL    HW1 2057   2.824   1.528   2.287
  678SOL    HW2 2058   2.866   1.476   2.437
  679SOL     OW 2059   2.213   1.801   2.715
  679SOL    HW1 2060   2.263   1.715   2.721
  679SOL    HW2 2061   2.278   1.878   2.712
  680SOL     OW 2062   2.183   0.943   2.104
  680SOL    HW1 2063   2.265   0.982   2.062
  680SOL    HW2 2064   2.156   0.861   2.055
  681SOL     OW 2065   2.326   1.743   2.185
  681SOL    HW1 2066   2.359   1.782   2.271
  681SOL    HW2 2067   2.402   1.736   2.120
  682SOL     OW 2068   2.111   1.785   3.103
  682SOL    HW1 2069   2.168   1.720   3.153
  682SOL    HW2 2070   2.095   1.752   3.010
  683SOL     OW 2071   2.802   1.698   2.766
  683SOL    HW1 2072   2.882   1.641   2.787
  683SOL    HW2 2073   2.753   1.658   2.689
  684SOL     OW 2074   2.244   0.700   2.342
  684SOL    HW1 2075   2.289   0.610   2.339
  684SOL    HW2 2076   2.150   0.689   2.375
  685SOL     OW 2077   2.476   0.122   1.979
  685SOL    HW1 2078   2.574   0.100   1.986
  685SOL    HW2 2079   2.445   0.105   1.886
  686SOL     OW 2080   2.665   1.402   2.786
  686SOL    HW1 2081   2.755   1.416   2.744
  686SOL    HW2 2082   2.594   1.404   2.715
  687SOL     OW 2083   2.784   0.503   2.761
  687SOL    HW1 2084   2.759   0.494   2.665
  687SOL    HW2 2085   2.832   0.421   2.792
  688SOL     OW 2086   2.401   0.064   2.374
  688SOL    HW1 2087   2.320   0.065   2.432
  688SOL    HW2 2088   2.404   0.147   2.319
  689SOL     OW 2089   2.159   0.035   2.033
  689SOL    HW1 2090   2.208   0.119   2.012
  689SOL    HW2 2091   2.221  -0.030   2.078
  690SOL     OW 2092   2.797   0.236   2.342
  690SOL    HW1 2093   2.749   0.277   2.264
  690SOL    HW2 2094   2.896   0.234   2.323
  691SOL     OW 2095   3.089   1.570   2.655
  691SOL    HW1 2096   3.110   1.644   2.590
  691SOL    HW2 2097   3.157   1.570   2.728
  692SOL     OW 2098   2.321   1.152   2.603
  692SOL    HW1 2099   2.250   1.125   2.668
  692SOL    HW2 2100   2.295   1.124   2.510
  693SOL     OW 2101   2.894   0.549   1.878
  693SOL    HW1 2102   2.853   0.631   1.839
  693SOL    HW2 2103   2.958   0.575   1.951
  694SOL     OW 2104   2.728   0.454   2.504
  694SOL    HW1 2105   2.696   0.526   2.442
  694SOL    HW2 2106   2.752   0.373   2.451
  695SOL     OW 2107   2.879   0.039   2.615
  695SOL    HW1 2108   2.807   0.044   2.546
  695SOL    HW2 2109   2.855  -0.030   2.684
  696SOL     OW 2110   2.350   1.385   2.036
  696SOL    HW1 2111   2.263   1.370   2.083
  696SOL    HW2 2112   2.333   1.411   1.941
  697SOL     OW 2113   2.389   0.256   2.190
  697SOL    HW1 2114   2.416   0.197   2.115
  697SOL    HW2 2115   2.389   0.351   2.159
  698SOL     OW 2116   2.567   1.050   2.230
  698SOL    HW1 2117   2.553   1.057   2.329
  698SOL    HW2 2118   2.651   0.999   2.212
  699SOL     OW 2119   2.229   1.100   2.363
  699SOL    HW1 2120   2.222   1.183   2.307
  699SOL    HW2 2121   2.233   1.020   2.303
  700SOL     OW 2122   2.428   0.537   2.727
  700SOL    HW1 2123   2.440   0.603   2.653
  700SOL    HW2 2124   2.474   0.571   2.810
  701SOL     OW 2125   2.435   0.870   2.891
  701SOL    HW1 2126   2.479   0.959   2.882
  701SOL    HW2 2127   2.372   0.870   2.968
  702SOL     OW 2128   3.071   0.525   2.137
  702SOL    HW1 2129   3.084   0.441   2.191
  702SOL    HW2 2130   3.042   0.599   2.197
  703SOL     OW 2131   2.594   0.634   2.926
  703SOL    HW1 2132   2.653   0.608   2.850
  703SOL    HW2 2133   2.566   0.730   2.915
  704SOL     OW 2134   2.169   0.063   2.480
  704SOL    HW1 2135   2.158   0.157   2.513
  704SOL    HW2 2136   2.164   0.000   2.557
  705SOL     OW 2137   2.181   0.810   2.811
  705SOL    HW1 2138   2.274   0.846   2.816
  705SOL    HW2 2139   2.175   0.725   2.863
  706SOL     OW 2140   2.201   0.509   2.868
  706SOL    HW1 2141   2.149   0.426   2.851
  706SOL    HW2 2142   2.278   0.514   2.804
  707SOL     OW 2143   1.870   1.326   2.062
  707SOL    HW1 2144   1.777   1.347   2.031
  707SOL    HW2 2145   1.880   1.227   2.075
  708SOL     OW 2146   1.950   1.801   2.789
  708SOL    HW1 2147   1.908   1.715   2.762
  708SOL    HW2 2148   2.044   1.804   2.755
  709SOL     OW 2149   2.366   1.568   2.772
  709SOL    HW1 2150   2.432   1.642   2.781
  709SOL    HW2 2151   2.410   1.489   2.730
  710SOL     OW 2152   2.864   0.796   3.100
  710SOL    HW1 2153   2.905   0.764   3.186
  710SOL    HW2 2154   2.768   0.769   3.097
  711SOL     OW 2155   2.677   0.572   2.187
  711SOL    HW1 2156   2.684   0.483   2.141
  711SOL    HW2 2157   2.583   0.606   2.179
  712SOL     OW 2158   2.533   0.464   3.131
  712SOL    HW1 2159   2.499   0.375   3.101
  712SOL    HW2 2160   2.559   0.518   3.051
  713SOL     OW 2161   2.335   0.500   2.053
  713SOL    HW1 2162   2.396   0.580   2.057
  713SOL    HW2 2163   2.240   0.531   2.060
  714SOL     OW 2164   1.945   1.258   2.884
  714SOL    HW1 2165   1.940   1.257   2.984
  714SOL    HW2 2166   1.862   1.217   2.846
  715SOL     OW 2167   3.142   0.927   2.534
  715SOL    HW1 2168   3.202   0.846   2.536
  715SOL    HW2 2169   3.182   0.996   2.474
  716SOL     OW 2170   2.534   1.616   2.016
  716SOL    HW1 2171   2.543   1.626   1.917
  716SOL    HW2 2172   2.494   1.527   2.037
  717SOL     OW 2173   2.125   0.326   2.582
  717SOL    HW1 2174   2.046   0.377   2.548
  717SOL    HW2 2175   2.116   0.311   2.680
  718SOL     OW 2176   2.778   0.910   2.153
  718SOL    HW1 2177   2.841   0.948   2.085
  718SOL    HW2 2178   2.818   0.827   2.192
  719SOL     OW 2179   2.901   1.098   2.558
  719SOL    HW1 2180   2.831   1.051   2.612
  719SOL    HW2 2181   2.960   1.030   2.515
  720SOL     OW 2182   2.876   0.236   2.833
  720SOL    HW1 2183   2.868   0.200   2.740
  720SOL    HW2 2184   2.874   0.160   2.898
  721SOL     OW 2185   2.452   1.487   2.353
  721SOL    HW1 2186   2.494   1.429   2.283
  721SOL    HW2 2187   2.408   1.566   2.309
  722SOL     OW 2188   2.117   1.348   2.152
  722SOL    HW1 2189   2.021   1.349   2.125
  722SOL    HW2 2190   2.129   1.401   2.236
  723SOL     OW 2191   1.937   0.345   1.895
  723SOL    HW1 2192   1.845   0.317   1.866
  723SOL    HW2 2193   1.968   0.422   1.839
  724SOL     OW 2194   1.934   0.166   2.180
  724SOL    HW1 2195   1.917   0.249   2.126
  724SOL    HW2 2196   2.024   0.129   2.158
  725SOL     OW 2197   3.087   0.325   2.311
  725SOL    HW1 2198   3.152   0.251   2.300
  725SOL    HW2 2199   3.107   0.375   2.395
  726SOL     OW 2200   2.456   0.745   2.514
  726SOL    HW1 2201   2.506   0.830   2.495
  726SOL    HW2 2202   2.368   0.747   2.466
  727SOL     OW 2203   2.721   1.374   1.878
  727SOL    HW1 2204   2.675   1.389   1.966
  727SOL    HW2 2205   2.765   1.459   1.848
  728SOL     OW 2206   2.523   1.790   2.815
  728SOL    HW1 2207   2.477   1.878   2.802
  728SOL    HW2 2208   2.622   1.802   2.808
  729SOL     OW 2209   2.721   0.956   2.723
  729SOL    HW1 2210   2.775   0.887   2.771
  729SOL    HW2 2211   2.689   1.025   2.789
  730SOL     OW 2212   1.941   1.240   2.515
  730SOL    HW1 2213   1.940   1.193   2.603
  730SOL    HW2 2214   2.023   1.212   2.464
  731SOL     OW 2215   2.290   0.424   2.382
  731SOL    HW1 2216   2.320   0.352   2.320
  731SOL    HW2 2217   2.251   0.384   2.465
  732SOL     OW 2218   2.674   1.586   2.549
  732SOL    HW1 2219   2.706   1.596   2.455
  732SOL    HW2 2220   2.595   1.524   2.551
  733SOL     OW 2221   2.632   1.330   2.163
  733SOL    HW1 2222   2.586   1.243   2.180
  733SOL    HW2 2223   2.723   1.327   2.204
  734SOL     OW 2224   1.901   1.077   2.162
  734SOL    HW1 2225   2.000   1.066   2.153
  734SOL    HW2 2226   1.861   0.991   2.194
  735SOL     OW 2227   2.737   1.646   2.199
  735SOL    HW1 2228   2.660   1.611   2.145
  735SOL    HW2 2229   2.705   1.717   2.261
  736SOL     OW 2230   2.092   2.490   0.113
  736SOL    HW1 2231   1.999   2.488   0.150
  736SOL    HW2 2232   2.093   2.451   0.021
  737SOL     OW 2233   2.087   2.137   0.996
  737SOL    HW1 2234   2.122   2.120   1.088
  737SOL    HW2 2235   1.999   2.092   0.984
  738SOL     OW 2236   1.881   2.230   0.647
  738SOL    HW1 2237   1.799   2.273   0.686
  738SOL    HW2 2238   1.853   2.157   0.584
  739SOL     OW 2239   2.630   3.006   1.023
  739SOL    HW1 2240   2.552   3.023   1.083
  739SOL    HW2 2241   2.664   3.093   0.987
  740SOL     OW 2242   2.712   2.660   1.823
  740SOL    HW1 2243   2.708   2.736   1.888
  740SOL    HW2 2244   2.734   2.696   1.732
  741SOL     OW 2245   2.547   2.874   0.665
  741SOL    HW1 2246   2.616   2.858   0.735
  741SOL    HW2 2247   2.474   2.931   0.703
  742SOL     OW 2248   2.300   2.254   1.499
  742SOL    HW1 2249   2.382   2.198   1.508
  742SOL    HW2 2250   2.219   2.196   1.503
  743SOL     OW 2251   2.102   2.953   0.886
  743SOL    HW1 2252   2.116   2.869   0.938
  743SOL    HW2 2253   2.047   3.017   0.941
  744SOL     OW 2254   2.468   2.826   0.123
  744SOL    HW1 2255   2.475   2.910   0.069
  744SOL    HW2 2256   2.514   2.839   0.211
  745SOL     OW 2257   1.984   2.505   0.563
  745SOL    HW1 2258   1.939   2.417   0.580
  745SOL    HW2 2259   1.983   2.559   0.647
  746SOL     OW 2260   1.975   2.599   1.597
  746SOL    HW1 2261   2.063   2.586   1.642
  746SOL    HW2 2262   1.962   2.696   1.575
  747SOL     OW 2263   2.671   1.866   0.502
  747SOL    HW1 2264   2.711   1.957   0.493
  747SOL    HW2 2265   2.571   1.874   0.508
  748SOL     OW 2266   2.059   2.838   1.264
  748SOL    HW1 2267   2.148   2.793   1.250
  748SOL    HW2 2268   1.986   2.773   1.245
  749SOL     OW 2269   2.179   2.113   1.801
  749SOL    HW1 2270   2.250   2.184   1.807
  749SOL    HW2 2271   2.091   2.152   1.829
  750SOL     OW 2272   2.460   2.591   0.270
  750SOL    HW1 2273   2.484   2.660   0.202
  750SOL    HW2 2274   2.382   2.624   0.324
  751SOL     OW 2275   2.669   2.467   1.465
  751SOL    HW1 2276   2.622   2.464   1.554
  751SOL    HW2 2277   2.618   2.412   1.399
  752SOL     OW 2278   2.835   2.752   1.572
  752SOL    HW1 2279   2.881   2.668   1.543
  752SOL    HW2 2280   2.779   2.786   1.497
  753SOL     OW 2281   2.853   2.272   1.242
  753SOL    HW1 2282   2.776   2.306   1.296
  753SOL    HW2 2283   2.819   2.221   1.163
  754SOL     OW 2284   2.903   2.563   0.429
  754SOL    HW1 2285   2.929   2.559   0.525
  754SOL    HW2 2286   2.818   2.512   0.415
  755SOL     OW 2287   1.938   2.673   0.789
  755SOL    HW1 2288   2.037   2.661   0.798
  755SOL    HW2 2289   1.914   2.768   0.810
  756SOL     OW 2290   2.727   2.210   0.195
  756SOL    HW1 2291   2.786   2.273   0.146
  756SOL    HW2 2292   2.746   2.116   0.166
  757SOL     OW 2293   2.412   2.058   0.885
  757SOL    HW1 2294   2.407   2.053   0.985
  757SOL    HW2 2295   2.414   2.154   0.856
  758SOL     OW 2296   2.064   2.147   1.498
  758SOL    HW1 2297   1.984   2.207   1.485
  758SOL    HW2 2298   2.054   2.098   1.584
  759SOL     OW 2299   2.244   2.562   0.480
  759SOL    HW1 2300   2.289   2.472   0.477
  759SOL    HW2 2301   2.150   2.551   0.513
  760SOL     OW 2302   2.476   1.984   0.117
  760SOL    HW1 2303   2.574   1.962   0.124
  760SOL    HW2 2304   2.445   1.967   0.024
  761SOL     OW 2305   2.643   2.126   1.749
  761SOL    HW1 2306   2.710   2.065   1.792
  761SOL    HW2 2307   2.570   2.145   1.814
  762SOL     OW 2308   2.784   2.365   0.899
  762SOL    HW1 2309   2.759   2.356   0.803
  762SOL    HW2 2310   2.832   2.283   0.930
  763SOL     OW 2311   2.401   1.926   0.512
  763SOL    HW1 2312   2.320   1.927   0.570
  763SOL    HW2 2313   2.404   2.009   0.457
  764SOL     OW 2314   2.797   2.098   0.480
  764SOL    HW1 2315   2.749   2.139   0.402
  764SOL    HW2 2316   2.896   2.096   0.461
  765SOL     OW 2317   2.894   2.411   0.016
  765SOL    HW1 2318   2.853   2.493  -0.023
  765SOL    HW2 2319   2.958   2.437   0.089
  766SOL     OW 2320   1.940   2.418   1.386
  766SOL    HW1 2321   2.032   2.417   1.345
  766SOL    HW2 2322   1.934   2.492   1.453
  767SOL     OW 2323   2.423   2.084   1.147
  767SOL    HW1 2324   2.461   2.000   1.184
  767SOL    HW2 2325   2.335   2.103   1.191
  768SOL     OW 2326   2.728   2.316   0.642
  768SOL    HW1 2327   2.696   2.388   0.580
  768SOL    HW2 2328   2.752   2.235   0.589
  769SOL     OW 2329   2.879   1.901   0.753
  769SOL    HW1 2330   2.807   1.906   0.684
  769SOL    HW2 2331   2.855   1.832   0.822
  770SOL     OW 2332   2.389   2.118   0.328
  770SOL    HW1 2333   2.416   2.059   0.253
  770SOL    HW2 2334   2.389   2.213   0.297
  771SOL     OW 2335   2.777   1.951   1.402
  771SOL    HW1 2336   2.802   1.931   1.307
  771SOL    HW2 2337   2.849   2.007   1.444
  772SOL     OW 2338   2.272   2.675   1.251
  772SOL    HW1 2339   2.358   2.687   1.301
  772SOL    HW2 2340   2.230   2.588   1.278
  773SOL     OW 2341   2.428   2.399   0.865
  773SOL    HW1 2342   2.440   2.465   0.791
  773SOL    HW2 2343   2.474   2.433   0.948
  774SOL     OW 2344   2.264   2.613   1.598
  774SOL    HW1 2345   2.332   2.668   1.551
  774SOL    HW2 2346   2.304   2.525   1.625
  775SOL     OW 2347   2.875   1.967   1.770
  775SOL    HW1 2348   2.881   2.052   1.718
  775SOL    HW2 2349   2.907   1.891   1.713
  776SOL     OW 2350   2.366   1.912   1.740
  776SOL    HW1 2351   2.324   1.855   1.670
  776SOL    HW2 2352   2.300   1.981   1.772
  777SOL     OW 2353   2.435   2.732   1.029
  777SOL    HW1 2354   2.479   2.821   1.020
  777SOL    HW2 2355   2.372   2.732   1.106
  778SOL     OW 2356   3.071   2.387   0.275
  778SOL    HW1 2357   3.084   2.303   0.329
  778SOL    HW2 2358   3.042   2.461   0.335
  779SOL     OW 2359   2.169   2.075   1.231
  779SOL    HW1 2360   2.146   2.112   1.321
  779SOL    HW2 2361   2.139   1.980   1.225
  780SOL     OW 2362   2.594   2.496   1.064
  780SOL    HW1 2363   2.653   2.470   0.988
  780SOL    HW2 2364   2.566   2.592   1.053
  781SOL     OW 2365   2.169   1.925   0.618
  781SOL    HW1 2366   2.158   2.019   0.651
  781SOL    HW2 2367   2.164   1.862   0.695
  782SOL     OW 2368   2.885   2.628   0.966
  782SOL    HW1 2369   2.900   2.649   1.062
  782SOL    HW2 2370   2.855   2.533   0.957
  783SOL     OW 2371   2.212   2.760   1.804
  783SOL    HW1 2372   2.288   2.804   1.852
  783SOL    HW2 2373   2.247   2.713   1.722
  784SOL     OW 2374   2.181   2.672   0.949
  784SOL    HW1 2375   2.274   2.708   0.954
  784SOL    HW2 2376   2.175   2.587   1.001
  785SOL     OW 2377   2.201   2.371   1.006
  785SOL    HW1 2378   2.149   2.288   0.989
  785SOL    HW2 2379   2.278   2.376   0.942
  786SOL     OW 2380   2.864   2.658   1.238
  786SOL    HW1 2381   2.905   2.626   1.324
  786SOL    HW2 2382   2.768   2.631   1.235
  787SOL     OW 2383   1.902   2.406   1.114
  787SOL    HW1 2384   1.987   2.373   1.073
  787SOL    HW2 2385   1.915   2.421   1.212
  788SOL     OW 2386   2.051   2.382   1.722
  788SOL    HW1 2387   2.110   2.342   1.652
  788SOL    HW2 2388   1.993   2.453   1.681
  789SOL     OW 2389   2.677   2.434   0.325
  789SOL    HW1 2390   2.684   2.345   0.279
  789SOL    HW2 2391   2.583   2.468   0.317
  790SOL     OW 2392   2.533   2.326   1.269
  790SOL    HW1 2393   2.499   2.237   1.239
  790SOL    HW2 2394   2.559   2.380   1.189
  791SOL     OW 2395   2.335   2.362   0.191
  791SOL    HW1 2396   2.396   2.442   0.195
  791SOL    HW2 2397   2.240   2.393   0.198
  792SOL     OW 2398   2.021   2.999   1.466
  792SOL    HW1 2399   2.043   2.938   1.542
  792SOL    HW2 2400   2.031   2.950   1.380
  793SOL     OW 2401   2.765   1.948   0.133
  793SOL    HW1 2402   2.816   1.949   0.047
  793SOL    HW2 2403   2.821   1.906   0.204
  794SOL     OW 2404   3.142   2.789   0.672
  794SOL    HW1 2405   3.202   2.708   0.674
  794SOL    HW2 2406   3.182   2.858   0.612
  795SOL     OW 2407   2.125   2.188   0.720
  795SOL    HW1 2408   2.046   2.239   0.686
  795SOL    HW2 2409   2.116   2.173   0.818
  796SOL     OW 2410   2.778   2.772   0.291
  796SOL    HW1 2411   2.841   2.810   0.223
  796SOL    HW2 2412   2.818   2.689   0.330
  797SOL     OW 2413   2.876   2.098   0.971
  797SOL    HW1 2414   2.868   2.062   0.878
  797SOL    HW2 2415   2.874   2.022   1.036
  798SOL     OW 2416   1.967   2.875   1.726
  798SOL    HW1 2417   1.890   2.842   1.780
  798SOL    HW2 2418   2.052   2.845   1.768
  799SOL     OW 2419   2.534   2.065   1.489
  799SOL    HW1 2420   2.624   2.049   1.449
  799SOL    HW2 2421   2.542   2.070   1.588
  800SOL     OW 2422   1.937   2.207   0.033
  800SOL    HW1 2423   1.845   2.179   0.004
  800SOL    HW2 2424   1.968   2.284  -0.023
  801SOL     OW 2425   1.934   2.028   0.318
  801SOL    HW1 2426   1.917   2.111   0.264
  801SOL    HW2 2427   2.024   1.991   0.296
  802SOL     OW 2428   2.475   2.704   1.431
  802SOL    HW1 2429   2.531   2.785   1.414
  802SOL    HW2 2430   2.534   2.624   1.434
  803SOL     OW 2431   2.578   2.427   1.708
  803SOL    HW1 2432   2.597   2.492   1.782
  803SOL    HW2 2433   2.638   2.347   1.717
  804SOL     OW 2434   3.087   2.187   0.449
  804SOL    HW1 2435   3.152   2.113   0.438
  804SOL    HW2 2436   3.107   2.237   0.533
  805SOL     OW 2437   2.456   2.607   0.652
  805SOL    HW1 2438   2.506   2.692   0.633
  805SOL    HW2 2439   2.368   2.609   0.604
  806SOL     OW 2440   2.721   2.818   0.861
  806SOL    HW1 2441   2.775   2.749   0.909
  806SOL    HW2 2442   2.689   2.887   0.927
  807SOL     OW 2443   1.941   3.102   0.653
  807SOL    HW1 2444   1.940   3.055   0.741
  807SOL    HW2 2445   2.023   3.074   0.602
  808SOL     OW 2446   2.290   2.286   0.520
  808SOL    HW1 2447   2.320   2.214   0.458
  808SOL    HW2 2448   2.251   2.246   0.603
  809SOL     OW 2449   2.179   2.409   1.280
  809SOL    HW1 2450   2.217   2.350   1.352
  809SOL    HW2 2451   2.219   2.383   1.192
  810SOL     OW 2452   2.863   1.896   1.154
  810SOL    HW1 2453   2.800   1.824   1.123
  810SOL    HW2 2454   2.956   1.860   1.154
  811SOL     OW 2455   1.901   2.939   0.300
  811SOL    HW1 2456   2.000   2.928   0.291
  811SOL    HW2 2457   1.861   2.853   0.332
  812SOL     OW 2458   2.092   2.490   1.975
  812SOL    HW1 2459   1.999   2.488   2.012
  812SOL    HW2 2460   2.093   2.451   1.883
  813SOL     OW 2461   2.087   2.137   2.858
  813SOL    HW1 2462   2.122   2.120   2.950
  813SOL    HW2 2463   1.999   2.092   2.846
  814SOL     OW 2464   1.881   2.230   2.509
  814SOL    HW1 2465   1.799   2.273   2.548
  814SOL    HW2 2466   1.853   2.157   2.446
  815SOL     OW 2467   2.547   2.874   2.527
  815SOL    HW1 2468   2.616   2.858   2.597
  815SOL    HW2 2469   2.474   2.931   2.565
  816SOL     OW 2470   2.102   2.953   2.748
  816SOL    HW1 2471   2.116   2.869   2.800
  816SOL    HW2 2472   2.047   3.017   2.803
  817SOL     OW 2473   2.468   2.826   1.985
  817SOL    HW1 2474   2.475   2.910   1.931
  817SOL    HW2 2475   2.514   2.839   2.073
  818SOL     OW 2476   1.984   2.505   2.425
  818SOL    HW1 2477   1.939   2.417   2.442
  818SOL    HW2 2478   1.983   2.559   2.509
  819SOL     OW 2479   2.671   1.866   2.364
  819SOL    HW1 2480   2.711   1.957   2.355
  819SOL    HW2 2481   2.571   1.874   2.370
  820SOL     OW 2482   2.059   2.838   3.126
  820SOL    HW1 2483   2.148   2.793   3.112
  820SOL    HW2 2484   1.986   2.773   3.107
  821SOL     OW 2485   2.460   2.591   2.132
  821SOL    HW1 2486   2.484   2.660   2.064
  821SOL    HW2 2487   2.382   2.624   2.186
  822SOL     OW 2488   2.903   2.563   2.291
  822SOL    HW1 2489   2.929   2.559   2.387
  822SOL    HW2 2490   2.818   2.512   2.277
  823SOL     OW 2491   1.938   2.673   2.651
  823SOL    HW1 2492   2.037   2.661   2.660
  823SOL    HW2 2493   1.914   2.768   2.672
  824SOL     OW 2494   2.727   2.210   2.057
  824SOL    HW1 2495   2.786   2.273   2.008
  824SOL    HW2 2496   2.746   2.116   2.028
  825SOL     OW 2497   2.412   2.058   2.747
  825SOL    HW1 2498   2.407   2.053   2.847
  825SOL    HW2 2499   2.414   2.154   2.718
  826SOL     OW 2500   2.244   2.562   2.342
  826SOL    HW1 2501   2.289   2.472   2.339
  826SOL    HW2 2502   2.150   2.551   2.375
  827SOL     OW 2503   2.476   1.984   1.979
  827SOL    HW1 2504   2.574   1.962   1.986
  827SOL    HW2 2505   2.445   1.967   1.886
  828SOL     OW 2506   2.784   2.365   2.761
  828SOL    HW1 2507   2.759   2.356   2.665
  828SOL    HW2 2508   2.832   2.283   2.792
  829SOL     OW 2509   2.401   1.926   2.374
  829SOL    HW1 2510   2.320   1.927   2.432
  829SOL    HW2 2511   2.404   2.009   2.319
  830SOL     OW 2512   2.159   1.897   2.033
  830SOL    HW1 2513   2.208   1.981   2.012
  830SOL    HW2 2514   2.221   1.832   2.078
  831SOL     OW 2515   2.797   2.098   2.342
  831SOL    HW1 2516   2.749   2.139   2.264
  831SOL    HW2 2517   2.896   2.096   2.323
  832SOL     OW 2518   2.894   2.411   1.878
  832SOL    HW1 2519   2.853   2.493   1.839
  832SOL    HW2 2520   2.958   2.437   1.951
  833SOL     OW 2521   2.728   2.316   2.504
  833SOL    HW1 2522   2.696   2.388   2.442
  833SOL    HW2 2523   2.752   2.235   2.451
  834SOL     OW 2524   2.879   1.901   2.615
  834SOL    HW1 2525   2.807   1.906   2.546
  834SOL    HW2 2526   2.855   1.832   2.684
  835SOL     OW 2527   2.389   2.118   2.190
  835SOL    HW1 2528   2.416   2.059   2.115
  835SOL    HW2 2529   2.389   2.213   2.159
  836SOL     OW 2530   2.428   2.399   2.727
  836SOL    HW1 2531   2.440   2.465   2.653
  836SOL    HW2 2532   2.474   2.433   2.810
  837SOL     OW 2533   2.435   2.732   2.891
  837SOL    HW1 2534   2.479   2.821   2.882
  837SOL    HW2 2535   2.372   2.732   2.968
  838SOL     OW 2536   3.071   2.387   2.137
  838SOL    HW1 2537   3.084   2.303   2.191
  838SOL    HW2 2538   3.042   2.461   2.197
  839SOL     OW 2539   2.169   2.075   3.093
  839SOL    HW1 2540   2.146   2.112   3.183
  839SOL    HW2 2541   2.139   1.980   3.087
  840SOL     OW 2542   2.594   2.496   2.926
  840SOL    HW1 2543   2.653   2.470   2.850
  840SOL    HW2 2544   2.566   2.592   2.915
  841SOL     OW 2545   2.169   1.925   2.480
  841SOL    HW1 2546   2.158   2.019   2.513
  841SOL    HW2 2547   2.164   1.862   2.557
  842SOL     OW 2548   2.181   2.672   2.811
  842SOL    HW1 2549   2.274   2.708   2.816
  842SOL    HW2 2550   2.175   2.587   2.863
  843SOL     OW 2551   2.201   2.371   2.868
  843SOL    HW1 2552   2.149   2.288   2.851
  843SOL    HW2 2553   2.278   2.376   2.804
  844SOL     OW 2554   2.864   2.658   3.100
  844SOL    HW1 2555   2.905   2.626   3.186
  844SOL    HW2 2556   2.768   2.631   3.097
  845SOL     OW 2557   2.677   2.434   2.187
  845SOL    HW1 2558   2.684   2.345   2.141
  845SOL    HW2 2559   2.583   2.468   2.179
  846SOL     OW 2560   2.533   2.326   3.131
  846SOL    HW1 2561   2.499   2.237   3.101
  846SOL    HW2 2562   2.559   2.380   3.051
  847SOL     OW 2563   2.335   2.362   2.053
  847SOL    HW1 2564   2.396   2.442   2.057
  847SOL    HW2 2565   2.240   2.393   2.060
  848SOL     OW 2566   3.164   2.717   2.171
  848SOL    HW1 2567   3.078   2.686   2.213
  848SOL    HW2 2568   3.160   2.703   2.072
  849SOL     OW 2569   3.142   2.789   2.534
  849SOL    HW1 2570   3.202   2.708   2.536
  849SOL    HW2 2571   3.182   2.858   2.474
  850SOL     OW 2572   2.125   2.188   2.582
  850SOL    HW1 2573   2.046   2.239   2.548
  850SOL    HW2 2574   2.116   2.173   2.680
  851SOL     OW 2575   2.778   2.772   2.153
  851SOL    HW1 2576   2.841   2.810   2.085
  851SOL    HW2 2577   2.818   2.689   2.192
  852SOL     OW 2578   2.876   2.098   2.833
  852SOL    HW1 2579   2.868   2.062   2.740
  852SOL    HW2 2580   2.874   2.022   2.898
  853SOL     OW 2581   1.937   2.207   1.895
  853SOL    HW1 2582   1.845   2.179   1.866
  853SOL    HW2 2583   1.968   2.284   1.839
  854SOL     OW 2584   1.934   2.028   2.180
  854SOL    HW1 2585   1.917   2.111   2.126
  854SOL    HW2 2586   2.024   1.991   2.158
  855SOL     OW 2587   3.087   2.187   2.311
  855SOL    HW1 2588   3.152   2.113   2.300
  855SOL    HW2 2589   3.107   2.237   2.395
  856SOL     OW 2590   2.456   2.607   2.514
  856SOL    HW1 2591   2.506   2.692   2.495
  856SOL    HW2 2592   2.368   2.609   2.466
  857SOL     OW 2593   2.721   2.818   2.723
  857SOL    HW1 2594   2.775   2.749   2.771
  857SOL    HW2 2595   2.689   2.887   2.789
  858SOL     OW 2596   1.941   3.102   2.515
  858SOL    HW1 2597   1.940   3.055   2.603
  858SOL    HW2 2598   2.023   3.074   2.464
  859SOL     OW 2599   2.290   2.286   2.382
  859SOL    HW1 2600   2.320   2.214   2.320
  859SOL    HW2 2601   2.251   2.246   2.465
  860SOL     OW 2602   1.901   2.939   2.162
  860SOL    HW1 2603   2.000   2.928   2.153
  860SOL    HW2 2604   1.861   2.853   2.194
   2.95988   2.95988   2.95988
