; mobley_4845722_GMX.itp created by acpype (v: 2023.10.27) on Thu May 14 13:54:24 2026

[ atomtypes ]
;name   bond_type     mass     charge   ptype   sigma         epsilon       Amb
 ca       ca          0.00000  0.00000   A     3.31521e-01   4.13379e-01 ; 1.86  0.0988
 cl       cl          0.00000  0.00000   A     3.46595e-01   1.10374e+00 ; 1.95  0.2638

[ moleculetype ]
;name            nrexcl
 mobley_4845722   3

[ atoms ]
;   nr  type  resi  res  atom  cgnr     charge      mass       ; qtot   bond_type
     1   ca     1   MOL    C1    1     0.026400     12.01000 ; qtot 0.026
     2   ca     1   MOL    C2    2     0.026400     12.01000 ; qtot 0.053
     3   ca     1   MOL    C3    3     0.026400     12.01000 ; qtot 0.079
     4   ca     1   MOL    C4    4     0.026400     12.01000 ; qtot 0.106
     5   ca     1   MOL    C5    5     0.026400     12.01000 ; qtot 0.132
     6   ca     1   MOL    C6    6     0.026400     12.01000 ; qtot 0.158
     7   cl     1   MOL   CL1    7    -0.026400     35.45000 ; qtot 0.132
     8   cl     1   MOL   CL2    8    -0.026400     35.45000 ; qtot 0.106
     9   cl     1   MOL   CL3    9    -0.026400     35.45000 ; qtot 0.079
    10   cl     1   MOL   CL4   10    -0.026400     35.45000 ; qtot 0.053
    11   cl     1   MOL   CL5   11    -0.026400     35.45000 ; qtot 0.026
    12   cl     1   MOL   CL6   12    -0.026400     35.45000 ; qtot -0.000

[ bonds ]
;   ai     aj funct   r             k
     1      2   1    1.3986e-01    2.9644e+05 ;     C1 - C2    
     1      3   1    1.3986e-01    2.9644e+05 ;     C1 - C3    
     1      7   1    1.7572e-01    1.5730e+05 ;     C1 - CL1   
     2      4   1    1.3986e-01    2.9644e+05 ;     C2 - C4    
     2      8   1    1.7572e-01    1.5730e+05 ;     C2 - CL2   
     3      5   1    1.3986e-01    2.9644e+05 ;     C3 - C5    
     3      9   1    1.7572e-01    1.5730e+05 ;     C3 - CL3   
     4      6   1    1.3986e-01    2.9644e+05 ;     C4 - C6    
     4     10   1    1.7572e-01    1.5730e+05 ;     C4 - CL4   
     5      6   1    1.3986e-01    2.9644e+05 ;     C5 - C6    
     5     11   1    1.7572e-01    1.5730e+05 ;     C5 - CL5   
     6     12   1    1.7572e-01    1.5730e+05 ;     C6 - CL6   

[ pairs ]
;   ai     aj    funct
     1      6      1 ;     C1 - C6    
     1     10      1 ;     C1 - CL4   
     1     11      1 ;     C1 - CL5   
     2      5      1 ;     C2 - C5    
     2      9      1 ;     C2 - CL3   
     2     12      1 ;     C2 - CL6   
     3      4      1 ;     C3 - C4    
     3      8      1 ;     C3 - CL2   
     3     12      1 ;     C3 - CL6   
     4     11      1 ;     C4 - CL5   
     5     10      1 ;     C5 - CL4   
     6      8      1 ;     C6 - CL2   
     6      9      1 ;     C6 - CL3   
     7      4      1 ;    CL1 - C4    
     7      5      1 ;    CL1 - C5    
     7      8      1 ;    CL1 - CL2   
     7      9      1 ;    CL1 - CL3   
     8     10      1 ;    CL2 - CL4   
     9     11      1 ;    CL3 - CL5   
    10     12      1 ;    CL4 - CL6   
    11     12      1 ;    CL5 - CL6   

[ angles ]
;   ai     aj     ak    funct   theta         cth
     1      2      4      1    1.2002e+02    5.3279e+02 ;     C1 - C2     - C4    
     1      2      8      1    1.1938e+02    5.3605e+02 ;     C1 - C2     - CL2   
     1      3      5      1    1.2002e+02    5.3279e+02 ;     C1 - C3     - C5    
     1      3      9      1    1.1938e+02    5.3605e+02 ;     C1 - C3     - CL3   
     2      1      3      1    1.2002e+02    5.3279e+02 ;     C2 - C1     - C3    
     2      1      7      1    1.1938e+02    5.3605e+02 ;     C2 - C1     - CL1   
     2      4      6      1    1.2002e+02    5.3279e+02 ;     C2 - C4     - C6    
     2      4     10      1    1.1938e+02    5.3605e+02 ;     C2 - C4     - CL4   
     3      1      7      1    1.1938e+02    5.3605e+02 ;     C3 - C1     - CL1   
     3      5      6      1    1.2002e+02    5.3279e+02 ;     C3 - C5     - C6    
     3      5     11      1    1.1938e+02    5.3605e+02 ;     C3 - C5     - CL5   
     4      2      8      1    1.1938e+02    5.3605e+02 ;     C4 - C2     - CL2   
     4      6      5      1    1.2002e+02    5.3279e+02 ;     C4 - C6     - C5    
     4      6     12      1    1.1938e+02    5.3605e+02 ;     C4 - C6     - CL6   
     5      3      9      1    1.1938e+02    5.3605e+02 ;     C5 - C3     - CL3   
     5      6     12      1    1.1938e+02    5.3605e+02 ;     C5 - C6     - CL6   
     6      4     10      1    1.1938e+02    5.3605e+02 ;     C6 - C4     - CL4   
     6      5     11      1    1.1938e+02    5.3605e+02 ;     C6 - C5     - CL5   

[ dihedrals ] ; propers
; for gromacs 4.5 or higher, using funct 9
;    i      j      k      l   func   phase     kd      pn
     1      2      4      6      9   180.00  15.16700   2 ;     C1-    C2-    C4-    C6
     1      2      4     10      9   180.00  15.16700   2 ;     C1-    C2-    C4-   CL4
     1      3      5      6      9   180.00  15.16700   2 ;     C1-    C3-    C5-    C6
     1      3      5     11      9   180.00  15.16700   2 ;     C1-    C3-    C5-   CL5
     2      1      3      5      9   180.00  15.16700   2 ;     C2-    C1-    C3-    C5
     2      1      3      9      9   180.00  15.16700   2 ;     C2-    C1-    C3-   CL3
     2      4      6      5      9   180.00  15.16700   2 ;     C2-    C4-    C6-    C5
     2      4      6     12      9   180.00  15.16700   2 ;     C2-    C4-    C6-   CL6
     3      1      2      4      9   180.00  15.16700   2 ;     C3-    C1-    C2-    C4
     3      1      2      8      9   180.00  15.16700   2 ;     C3-    C1-    C2-   CL2
     3      5      6      4      9   180.00  15.16700   2 ;     C3-    C5-    C6-    C4
     3      5      6     12      9   180.00  15.16700   2 ;     C3-    C5-    C6-   CL6
     4      6      5     11      9   180.00  15.16700   2 ;     C4-    C6-    C5-   CL5
     5      6      4     10      9   180.00  15.16700   2 ;     C5-    C6-    C4-   CL4
     6      4      2      8      9   180.00  15.16700   2 ;     C6-    C4-    C2-   CL2
     6      5      3      9      9   180.00  15.16700   2 ;     C6-    C5-    C3-   CL3
     7      1      2      4      9   180.00  15.16700   2 ;    CL1-    C1-    C2-    C4
     7      1      2      8      9   180.00  15.16700   2 ;    CL1-    C1-    C2-   CL2
     7      1      3      5      9   180.00  15.16700   2 ;    CL1-    C1-    C3-    C5
     7      1      3      9      9   180.00  15.16700   2 ;    CL1-    C1-    C3-   CL3
     8      2      4     10      9   180.00  15.16700   2 ;    CL2-    C2-    C4-   CL4
     9      3      5     11      9   180.00  15.16700   2 ;    CL3-    C3-    C5-   CL5
    10      4      6     12      9   180.00  15.16700   2 ;    CL4-    C4-    C6-   CL6
    11      5      6     12      9   180.00  15.16700   2 ;    CL5-    C5-    C6-   CL6

[ dihedrals ] ; impropers
; treated as propers in GROMACS to use correct AMBER analytical function
;    i      j      k      l   func   phase     kd      pn
     1      4      2      8      4   180.00   4.60240   2 ;     C1-    C4-    C2-   CL2
     1      5      3      9      4   180.00   4.60240   2 ;     C1-    C5-    C3-   CL3
     2      6      4     10      4   180.00   4.60240   2 ;     C2-    C6-    C4-   CL4
     3      6      5     11      4   180.00   4.60240   2 ;     C3-    C6-    C5-   CL5
     4      5      6     12      4   180.00   4.60240   2 ;     C4-    C5-    C6-   CL6
     7      1      3      2      4   180.00   4.60240   2 ;    CL1-    C1-    C3-    C2
