; mobley_4287564_GMX.itp created by acpype (v: 2023.10.27) on Thu May 14 14:00:56 2026

[ atomtypes ]
;name   bond_type     mass     charge   ptype   sigma         epsilon       Amb
 ca       ca          0.00000  0.00000   A     3.31521e-01   4.13379e-01 ; 1.86  0.0988
 c3       c3          0.00000  0.00000   A     3.39771e-01   4.51035e-01 ; 1.91  0.1078
 nb       nb          0.00000  0.00000   A     3.38417e-01   3.93714e-01 ; 1.90  0.0941
 ha       ha          0.00000  0.00000   A     2.62548e-01   6.73624e-02 ; 1.47  0.0161
 h4       h4          0.00000  0.00000   A     2.53639e-01   6.73624e-02 ; 1.42  0.0161
 hc       hc          0.00000  0.00000   A     2.60018e-01   8.70272e-02 ; 1.46  0.0208

[ moleculetype ]
;name            nrexcl
 mobley_4287564   3

[ atoms ]
;   nr  type  resi  res  atom  cgnr     charge      mass       ; qtot   bond_type
     1   ca     1   MOL    C1    1    -0.090000     12.01000 ; qtot -0.090
     2   ca     1   MOL    C2    2    -0.253300     12.01000 ; qtot -0.343
     3   ca     1   MOL    C3    3    -0.249300     12.01000 ; qtot -0.593
     4   ca     1   MOL    C4    4     0.400200     12.01000 ; qtot -0.192
     5   ca     1   MOL    C5    5     0.411600     12.01000 ; qtot 0.219
     6   c3     1   MOL    C6    6    -0.149400     12.01000 ; qtot 0.070
     7   nb     1   MOL    N1    7    -0.667000     14.01000 ; qtot -0.597
     8   ha     1   MOL    H1    8     0.136000      1.00800 ; qtot -0.461
     9   ha     1   MOL    H2    9     0.142000      1.00800 ; qtot -0.319
    10   ha     1   MOL    H3   10     0.141000      1.00800 ; qtot -0.178
    11   h4     1   MOL    H4   11     0.020100      1.00800 ; qtot -0.158
    12   hc     1   MOL    H5   12     0.052700      1.00800 ; qtot -0.105
    13   hc     1   MOL    H6   13     0.052700      1.00800 ; qtot -0.053
    14   hc     1   MOL    H7   14     0.052700      1.00800 ; qtot 0.000

[ bonds ]
;   ai     aj funct   r             k
     1      2   1    1.3986e-01    2.9644e+05 ;     C1 - C2    
     1      3   1    1.3986e-01    2.9644e+05 ;     C1 - C3    
     1      8   1    1.0860e-01    3.0183e+05 ;     C1 - H1    
     2      4   1    1.3986e-01    2.9644e+05 ;     C2 - C4    
     2      9   1    1.0860e-01    3.0183e+05 ;     C2 - H2    
     3      5   1    1.3986e-01    2.9644e+05 ;     C3 - C5    
     3     10   1    1.0860e-01    3.0183e+05 ;     C3 - H3    
     4      7   1    1.3392e-01    3.2341e+05 ;     C4 - N1    
     4     11   1    1.0885e-01    2.9859e+05 ;     C4 - H4    
     5      6   1    1.5147e-01    2.0410e+05 ;     C5 - C6    
     5      7   1    1.3392e-01    3.2341e+05 ;     C5 - N1    
     6     12   1    1.0962e-01    2.8891e+05 ;     C6 - H5    
     6     13   1    1.0962e-01    2.8891e+05 ;     C6 - H6    
     6     14   1    1.0962e-01    2.8891e+05 ;     C6 - H7    

[ pairs ]
;   ai     aj    funct
     1      6      1 ;     C1 - C6    
     1      7      1 ;     C1 - N1    
     1     11      1 ;     C1 - H4    
     2      5      1 ;     C2 - C5    
     2     10      1 ;     C2 - H3    
     3      4      1 ;     C3 - C4    
     3      9      1 ;     C3 - H2    
     3     12      1 ;     C3 - H5    
     3     13      1 ;     C3 - H6    
     3     14      1 ;     C3 - H7    
     4      6      1 ;     C4 - C6    
     5     11      1 ;     C5 - H4    
     6     10      1 ;     C6 - H3    
     7      9      1 ;     N1 - H2    
     7     10      1 ;     N1 - H3    
     7     12      1 ;     N1 - H5    
     7     13      1 ;     N1 - H6    
     7     14      1 ;     N1 - H7    
     8      4      1 ;     H1 - C4    
     8      5      1 ;     H1 - C5    
     8      9      1 ;     H1 - H2    
     8     10      1 ;     H1 - H3    
     9     11      1 ;     H2 - H4    

[ angles ]
;   ai     aj     ak    funct   theta         cth
     1      2      4      1    1.2002e+02    5.3279e+02 ;     C1 - C2     - C4    
     1      2      9      1    1.1988e+02    3.7572e+02 ;     C1 - C2     - H2    
     1      3      5      1    1.2002e+02    5.3279e+02 ;     C1 - C3     - C5    
     1      3     10      1    1.1988e+02    3.7572e+02 ;     C1 - C3     - H3    
     2      1      3      1    1.2002e+02    5.3279e+02 ;     C2 - C1     - C3    
     2      1      8      1    1.1988e+02    3.7572e+02 ;     C2 - C1     - H1    
     2      4      7      1    1.2294e+02    5.7045e+02 ;     C2 - C4     - N1    
     2      4     11      1    1.2032e+02    3.7489e+02 ;     C2 - C4     - H4    
     3      1      8      1    1.1988e+02    3.7572e+02 ;     C3 - C1     - H1    
     3      5      6      1    1.2083e+02    5.0827e+02 ;     C3 - C5     - C6    
     3      5      7      1    1.2294e+02    5.7045e+02 ;     C3 - C5     - N1    
     4      2      9      1    1.1988e+02    3.7572e+02 ;     C4 - C2     - H2    
     4      7      5      1    1.1724e+02    6.9580e+02 ;     C4 - N1     - C5    
     5      3     10      1    1.1988e+02    3.7572e+02 ;     C5 - C3     - H3    
     5      6     12      1    1.1063e+02    3.6493e+02 ;     C5 - C6     - H5    
     5      6     13      1    1.1063e+02    3.6493e+02 ;     C5 - C6     - H6    
     5      6     14      1    1.1063e+02    3.6493e+02 ;     C5 - C6     - H7    
     6      5      7      1    1.1664e+02    5.5815e+02 ;     C6 - C5     - N1    
     7      4     11      1    1.1602e+02    4.1924e+02 ;     N1 - C4     - H4    
    12      6     13      1    1.0773e+02    2.9957e+02 ;     H5 - C6     - H6    
    12      6     14      1    1.0773e+02    2.9957e+02 ;     H5 - C6     - H7    
    13      6     14      1    1.0773e+02    2.9957e+02 ;     H6 - C6     - H7    

[ dihedrals ] ; propers
; for gromacs 4.5 or higher, using funct 9
;    i      j      k      l   func   phase     kd      pn
     1      2      4      7      9   180.00  15.16700   2 ;     C1-    C2-    C4-    N1
     1      2      4     11      9   180.00  15.16700   2 ;     C1-    C2-    C4-    H4
     1      3      5      6      9   180.00  15.16700   2 ;     C1-    C3-    C5-    C6
     1      3      5      7      9   180.00  15.16700   2 ;     C1-    C3-    C5-    N1
     2      1      3      5      9   180.00  15.16700   2 ;     C2-    C1-    C3-    C5
     2      1      3     10      9   180.00  15.16700   2 ;     C2-    C1-    C3-    H3
     2      4      7      5      9   180.00  20.08320   2 ;     C2-    C4-    N1-    C5
     3      1      2      4      9   180.00  15.16700   2 ;     C3-    C1-    C2-    C4
     3      1      2      9      9   180.00  15.16700   2 ;     C3-    C1-    C2-    H2
     3      5      6     12      9     0.00   0.00000   0 ;     C3-    C5-    C6-    H5
     3      5      6     13      9     0.00   0.00000   0 ;     C3-    C5-    C6-    H6
     3      5      6     14      9     0.00   0.00000   0 ;     C3-    C5-    C6-    H7
     3      5      7      4      9   180.00  20.08320   2 ;     C3-    C5-    N1-    C4
     4      7      5      6      9   180.00  20.08320   2 ;     C4-    N1-    C5-    C6
     5      7      4     11      9   180.00  20.08320   2 ;     C5-    N1-    C4-    H4
     6      5      3     10      9   180.00  15.16700   2 ;     C6-    C5-    C3-    H3
     7      4      2      9      9   180.00  15.16700   2 ;     N1-    C4-    C2-    H2
     7      5      3     10      9   180.00  15.16700   2 ;     N1-    C5-    C3-    H3
     7      5      6     12      9     0.00   0.00000   0 ;     N1-    C5-    C6-    H5
     7      5      6     13      9     0.00   0.00000   0 ;     N1-    C5-    C6-    H6
     7      5      6     14      9     0.00   0.00000   0 ;     N1-    C5-    C6-    H7
     8      1      2      4      9   180.00  15.16700   2 ;     H1-    C1-    C2-    C4
     8      1      2      9      9   180.00  15.16700   2 ;     H1-    C1-    C2-    H2
     8      1      3      5      9   180.00  15.16700   2 ;     H1-    C1-    C3-    C5
     8      1      3     10      9   180.00  15.16700   2 ;     H1-    C1-    C3-    H3
     9      2      4     11      9   180.00  15.16700   2 ;     H2-    C2-    C4-    H4

[ dihedrals ] ; impropers
; treated as propers in GROMACS to use correct AMBER analytical function
;    i      j      k      l   func   phase     kd      pn
     1      4      2      9      4   180.00   4.60240   2 ;     C1-    C4-    C2-    H2
     1      5      3     10      4   180.00   4.60240   2 ;     C1-    C5-    C3-    H3
     2     11      4      7      4   180.00   4.60240   2 ;     C2-    H4-    C4-    N1
     6      3      5      7      4   180.00   4.60240   2 ;     C6-    C3-    C5-    N1
     8      1      3      2      4   180.00   4.60240   2 ;     H1-    C1-    C3-    C2
