mobley_2197088_GMX.gro created by acpype (v: 2023.10.27) on Thu May 14 13:37:26 2026
 3584
    1MOL     C1    1   2.040   2.055   1.821
    1MOL     C2    2   1.289   1.258   1.492
    1MOL     C3    3   1.967   1.924   1.848
    1MOL     C4    4   1.362   1.388   1.464
    1MOL     C5    5   1.867   1.892   1.737
    1MOL     C6    6   1.448   1.430   1.584
    1MOL     C7    7   1.791   1.762   1.766
    1MOL     C8    8   1.523   1.562   1.561
    1MOL     C9    9   1.694   1.728   1.653
    1MOL    C10   10   1.615   1.600   1.678
    1MOL     H1   11   2.111   2.076   1.902
    1MOL     H2   12   1.970   2.139   1.815
    1MOL     H3   13   2.096   2.050   1.727
    1MOL     H4   14   1.228   1.230   1.405
    1MOL     H5   15   1.359   1.176   1.511
    1MOL     H6   16   1.223   1.268   1.578
    1MOL     H7   17   1.915   1.932   1.944
    1MOL     H8   18   2.040   1.843   1.857
    1MOL     H9   19   1.289   1.466   1.441
    1MOL    H10   20   1.426   1.376   1.375
    1MOL    H11   21   1.921   1.883   1.642
    1MOL    H12   22   1.796   1.975   1.726
    1MOL    H13   23   1.522   1.352   1.604
    1MOL    H14   24   1.385   1.438   1.673
    1MOL    H15   25   1.737   1.774   1.861
    1MOL    H16   26   1.863   1.680   1.780
    1MOL    H17   27   1.451   1.642   1.542
    1MOL    H18   28   1.583   1.552   1.470
    1MOL    H19   29   1.751   1.716   1.560
    1MOL    H20   30   1.625   1.812   1.637
    1MOL    H21   31   1.556   1.611   1.770
    1MOL    H22   32   1.686   1.518   1.696
    2SOL     OW   33   0.230   0.628   0.113
    2SOL    HW1   34   0.137   0.626   0.150
    2SOL    HW2   35   0.231   0.589   0.021
    3SOL     OW   36   0.225   0.275   0.996
    3SOL    HW1   37   0.260   0.258   1.088
    3SOL    HW2   38   0.137   0.230   0.984
    4SOL     OW   39   0.019   0.368   0.647
    4SOL    HW1   40  -0.063   0.411   0.686
    4SOL    HW2   41  -0.009   0.295   0.584
    5SOL     OW   42   0.569   1.275   1.165
    5SOL    HW1   43   0.476   1.268   1.128
    5SOL    HW2   44   0.580   1.364   1.209
    6SOL     OW   45   1.555   1.511   0.703
    6SOL    HW1   46   1.498   1.495   0.784
    6SOL    HW2   47   1.496   1.521   0.623
    7SOL     OW   48   1.135   0.703   0.717
    7SOL    HW1   49   1.192   0.781   0.692
    7SOL    HW2   50   1.075   0.729   0.793
    8SOL     OW   51   1.755   0.607   0.231
    8SOL    HW1   52   1.743   0.594   0.132
    8SOL    HW2   53   1.725   0.526   0.280
    9SOL     OW   54   0.768   1.144   1.023
    9SOL    HW1   55   0.690   1.161   1.083
    9SOL    HW2   56   0.802   1.231   0.987
   10SOL     OW   57   0.850   0.798   1.823
   10SOL    HW1   58   0.846   0.874   1.888
   10SOL    HW2   59   0.872   0.834   1.732
   11SOL     OW   60   0.685   1.012   0.665
   11SOL    HW1   61   0.754   0.996   0.735
   11SOL    HW2   62   0.612   1.069   0.703
   12SOL     OW   63   0.686   1.161   1.803
   12SOL    HW1   64   0.746   1.240   1.817
   12SOL    HW2   65   0.600   1.192   1.762
   13SOL     OW   66   0.335   1.435   1.061
   13SOL    HW1   67   0.257   1.404   1.008
   13SOL    HW2   68   0.393   1.493   1.004
   14SOL     OW   69   0.438   0.392   1.499
   14SOL    HW1   70   0.520   0.336   1.508
   14SOL    HW2   71   0.357   0.334   1.503
   15SOL     OW   72   1.603   0.447   0.737
   15SOL    HW1   73   1.529   0.493   0.687
   15SOL    HW2   74   1.654   0.515   0.790
   16SOL     OW   75   0.231   1.713   0.483
   16SOL    HW1   76   0.265   1.790   0.537
   16SOL    HW2   77   0.275   1.713   0.393
   17SOL     OW   78   1.127   1.341   1.690
   17SOL    HW1   79   1.174   1.341   1.778
   17SOL    HW2   80   1.079   1.254   1.679
   18SOL     OW   81   0.230   1.434   0.538
   18SOL    HW1   82   0.204   1.530   0.538
   18SOL    HW2   83   0.159   1.380   0.583
   19SOL     OW   84   0.240   1.091   0.886
   19SOL    HW1   85   0.254   1.007   0.938
   19SOL    HW2   86   0.185   1.155   0.941
   20SOL     OW   87   0.620   1.786   1.439
   20SOL    HW1   88   0.528   1.769   1.474
   20SOL    HW2   89   0.648   1.878   1.465
   21SOL     OW   90   0.606   0.964   0.123
   21SOL    HW1   91   0.613   1.048   0.069
   21SOL    HW2   92   0.652   0.977   0.211
   22SOL     OW   93   1.594   0.114   1.480
   22SOL    HW1   94   1.576   0.181   1.408
   22SOL    HW2   95   1.591   0.160   1.569
   23SOL     OW   96   0.122   0.643   0.563
   23SOL    HW1   97   0.077   0.555   0.580
   23SOL    HW2   98   0.121   0.697   0.647
   24SOL     OW   99   1.842   1.767   0.359
   24SOL    HW1  100   1.896   1.738   0.439
   24SOL    HW2  101   1.872   1.857   0.330
   25SOL     OW  102   0.027   1.596   0.117
   25SOL    HW1  103   0.008   1.500   0.138
   25SOL    HW2  104  -0.006   1.654   0.192
   26SOL     OW  105   1.689   0.922   0.612
   26SOL    HW1  106   1.784   0.893   0.620
   26SOL    HW2  107   1.681   0.987   0.537
   27SOL     OW  108   1.641   1.108   0.432
   27SOL    HW1  109   1.727   1.110   0.380
   27SOL    HW2  110   1.655   1.155   0.520
   28SOL     OW  111   0.113   0.737   1.597
   28SOL    HW1  112   0.201   0.724   1.642
   28SOL    HW2  113   0.100   0.834   1.575
   29SOL     OW  114   0.613   1.365   0.726
   29SOL    HW1  115   0.564   1.278   0.735
   29SOL    HW2  116   0.590   1.408   0.639
   30SOL     OW  117   0.809   0.004   0.502
   30SOL    HW1  118   0.849   0.095   0.493
   30SOL    HW2  119   0.709   0.012   0.508
   31SOL     OW  120   0.197   0.976   1.264
   31SOL    HW1  121   0.286   0.931   1.250
   31SOL    HW2  122   0.124   0.911   1.245
   32SOL     OW  123   1.525   0.999   0.190
   32SOL    HW1  124   1.462   0.923   0.203
   32SOL    HW2  125   1.573   1.017   0.276
   33SOL     OW  126   1.187   1.792   1.616
   33SOL    HW1  127   1.211   1.852   1.540
   33SOL    HW2  128   1.194   1.697   1.586
   34SOL     OW  129   0.317   0.251   1.801
   34SOL    HW1  130   0.388   0.322   1.807
   34SOL    HW2  131   0.229   0.290   1.829
   35SOL     OW  132   1.466   1.417   0.953
   35SOL    HW1  133   1.407   1.423   1.033
   35SOL    HW2  134   1.451   1.329   0.907
   36SOL     OW  135   1.667   1.714   0.572
   36SOL    HW1  136   1.626   1.691   0.484
   36SOL    HW2  137   1.649   1.640   0.637
   37SOL     OW  138   0.598   0.729   0.270
   37SOL    HW1  139   0.622   0.798   0.202
   37SOL    HW2  140   0.520   0.762   0.324
   38SOL     OW  141   1.281   0.345   0.944
   38SOL    HW1  142   1.195   0.295   0.931
   38SOL    HW2  143   1.343   0.291   1.000
   39SOL     OW  144   1.576   1.662   0.307
   39SOL    HW1  145   1.665   1.708   0.310
   39SOL    HW2  146   1.555   1.638   0.212
   40SOL     OW  147   0.807   0.605   1.465
   40SOL    HW1  148   0.760   0.602   1.554
   40SOL    HW2  149   0.756   0.550   1.399
   41SOL     OW  150   1.394   0.469   1.674
   41SOL    HW1  151   1.374   0.512   1.762
   41SOL    HW2  152   1.472   0.407   1.683
   42SOL     OW  153   0.973   0.890   1.572
   42SOL    HW1  154   1.019   0.806   1.543
   42SOL    HW2  155   0.917   0.924   1.497
   43SOL     OW  156   0.991   0.410   1.242
   43SOL    HW1  157   0.914   0.444   1.296
   43SOL    HW2  158   0.957   0.359   1.163
   44SOL     OW  159   1.041   0.701   0.429
   44SOL    HW1  160   1.067   0.697   0.525
   44SOL    HW2  161   0.956   0.650   0.415
   45SOL     OW  162   0.076   0.811   0.789
   45SOL    HW1  163   0.175   0.799   0.798
   45SOL    HW2  164   0.052   0.906   0.810
   46SOL     OW  165   0.130   1.821   1.571
   46SOL    HW1  166   0.120   1.806   1.670
   46SOL    HW2  167   0.044   1.857   1.535
   47SOL     OW  168   0.865   0.348   0.195
   47SOL    HW1  169   0.924   0.411   0.146
   47SOL    HW2  170   0.884   0.254   0.166
   48SOL     OW  171   1.719   0.585   1.831
   48SOL    HW1  172   1.693   0.674   1.795
   48SOL    HW2  173   1.717   0.517   1.758
   49SOL     OW  174   1.362   1.144   0.545
   49SOL    HW1  175   1.445   1.115   0.497
   49SOL    HW2  176   1.313   1.211   0.489
   50SOL     OW  177   0.550   0.196   0.885
   50SOL    HW1  178   0.545   0.191   0.985
   50SOL    HW2  179   0.552   0.292   0.856
   51SOL     OW  180   1.008   1.456   0.477
   51SOL    HW1  181   0.962   1.528   0.425
   51SOL    HW2  182   1.004   1.476   0.575
   52SOL     OW  183   0.351   1.801   0.853
   52SOL    HW1  184   0.401   1.715   0.859
   52SOL    HW2  185   0.416   1.878   0.850
   53SOL     OW  186   1.795   1.066   0.873
   53SOL    HW1  187   1.733   1.051   0.797
   53SOL    HW2  188   1.743   1.077   0.958
   54SOL     OW  189   0.321   0.943   0.242
   54SOL    HW1  190   0.403   0.982   0.200
   54SOL    HW2  191   0.294   0.861   0.193
   55SOL     OW  192   1.458   0.735   0.728
   55SOL    HW1  193   1.453   0.670   0.803
   55SOL    HW2  194   1.538   0.794   0.741
   56SOL     OW  195   0.461   1.266   1.727
   56SOL    HW1  196   0.411   1.267   1.641
   56SOL    HW2  197   0.398   1.248   1.803
   57SOL     OW  198   1.111   1.776   0.237
   57SOL    HW1  199   1.051   1.714   0.287
   57SOL    HW2  200   1.142   1.732   0.152
   58SOL     OW  201   0.202   0.285   1.498
   58SOL    HW1  202   0.122   0.345   1.485
   58SOL    HW2  203   0.192   0.236   1.584
   59SOL     OW  204   1.632   1.377   0.081
   59SOL    HW1  205   1.600   1.471   0.071
   59SOL    HW2  206   1.556   1.314   0.069
   60SOL     OW  207   0.464   1.743   0.323
   60SOL    HW1  208   0.497   1.782   0.409
   60SOL    HW2  209   0.540   1.736   0.258
   61SOL     OW  210   1.400   0.107   0.426
   61SOL    HW1  211   1.376   0.070   0.336
   61SOL    HW2  212   1.499   0.123   0.430
   62SOL     OW  213   0.249   1.785   1.241
   62SOL    HW1  214   0.306   1.720   1.291
   62SOL    HW2  215   0.233   1.752   1.148
   63SOL     OW  216   0.940   1.698   0.904
   63SOL    HW1  217   1.020   1.641   0.925
   63SOL    HW2  218   0.891   1.658   0.827
   64SOL     OW  219   0.382   0.700   0.480
   64SOL    HW1  220   0.427   0.610   0.477
   64SOL    HW2  221   0.288   0.689   0.513
   65SOL     OW  222   1.547   0.222   1.729
   65SOL    HW1  223   1.542   0.259   1.821
   65SOL    HW2  224   1.475   0.153   1.717
   66SOL     OW  225   0.614   0.122   0.117
   66SOL    HW1  226   0.712   0.100   0.124
   66SOL    HW2  227   0.583   0.105   0.024
   67SOL     OW  228   0.781   0.264   1.749
   67SOL    HW1  229   0.848   0.203   1.792
   67SOL    HW2  230   0.708   0.283   1.814
   68SOL     OW  231   0.888   1.514   1.195
   68SOL    HW1  232   0.865   1.489   1.101
   68SOL    HW2  233   0.949   1.445   1.234
   69SOL     OW  234   1.351   0.590   1.433
   69SOL    HW1  235   1.379   0.547   1.518
   69SOL    HW2  236   1.376   0.686   1.434
   70SOL     OW  237   0.803   1.402   0.924
   70SOL    HW1  238   0.893   1.416   0.882
   70SOL    HW2  239   0.732   1.404   0.853
   71SOL     OW  240   0.922   0.503   0.899
   71SOL    HW1  241   0.897   0.494   0.803
   71SOL    HW2  242   0.970   0.421   0.930
   72SOL     OW  243   0.539   0.064   0.512
   72SOL    HW1  244   0.458   0.065   0.570
   72SOL    HW2  245   0.542   0.147   0.457
   73SOL     OW  246   1.434   1.188   0.041
   73SOL    HW1  247   1.466   1.112   0.098
   73SOL    HW2  248   1.342   1.215   0.071
   74SOL     OW  249   0.297   0.035   0.171
   74SOL    HW1  250   0.346   0.119   0.150
   74SOL    HW2  251   0.359  -0.030   0.216
   75SOL     OW  252   0.935   0.236   0.480
   75SOL    HW1  253   0.887   0.277   0.402
   75SOL    HW2  254   1.034   0.234   0.461
   76SOL     OW  255   1.076   0.683   1.464
   76SOL    HW1  256   0.996   0.622   1.467
   76SOL    HW2  257   1.157   0.630   1.440
   77SOL     OW  258   1.227   1.570   0.793
   77SOL    HW1  259   1.248   1.644   0.728
   77SOL    HW2  260   1.295   1.570   0.866
   78SOL     OW  261   0.459   1.152   0.741
   78SOL    HW1  262   0.388   1.125   0.806
   78SOL    HW2  263   0.433   1.124   0.648
   79SOL     OW  264   1.271   1.797   0.591
   79SOL    HW1  265   1.315   1.861   0.527
   79SOL    HW2  266   1.221   1.849   0.661
   80SOL     OW  267   1.032   0.549   0.016
   80SOL    HW1  268   0.991   0.631  -0.023
   80SOL    HW2  269   1.096   0.575   0.089
   81SOL     OW  270   0.078   0.556   1.386
   81SOL    HW1  271   0.170   0.555   1.345
   81SOL    HW2  272   0.072   0.630   1.453
   82SOL     OW  273   0.561   0.222   1.147
   82SOL    HW1  274   0.599   0.138   1.184
   82SOL    HW2  275   0.473   0.241   1.191
   83SOL     OW  276   0.866   0.454   0.642
   83SOL    HW1  277   0.834   0.526   0.580
   83SOL    HW2  278   0.890   0.373   0.589
   84SOL     OW  279   1.017   0.039   0.753
   84SOL    HW1  280   0.945   0.044   0.684
   84SOL    HW2  281   0.993  -0.030   0.822
   85SOL     OW  282   1.429   1.173   0.867
   85SOL    HW1  283   1.374   1.089   0.860
   85SOL    HW2  284   1.455   1.202   0.775
   86SOL     OW  285   1.466   0.590   0.992
   86SOL    HW1  286   1.436   0.495   0.999
   86SOL    HW2  287   1.539   0.606   1.058
   87SOL     OW  288   1.857   0.833   0.377
   87SOL    HW1  289   1.899   0.769   0.441
   87SOL    HW2  290   1.819   0.782   0.299
   88SOL     OW  291   0.488   1.385   0.174
   88SOL    HW1  292   0.401   1.370   0.221
   88SOL    HW2  293   0.471   1.411   0.079
   89SOL     OW  294   1.664   1.280   0.657
   89SOL    HW1  295   1.763   1.288   0.671
   89SOL    HW2  296   1.619   1.364   0.688
   90SOL     OW  297   1.390   0.575   0.078
   90SOL    HW1  298   1.336   0.554   0.159
   90SOL    HW2  299   1.481   0.534   0.087
   91SOL     OW  300   0.527   0.256   0.328
   91SOL    HW1  301   0.554   0.197   0.253
   91SOL    HW2  302   0.527   0.351   0.297
   92SOL     OW  303   1.754   1.223   1.588
   92SOL    HW1  304   1.845   1.184   1.575
   92SOL    HW2  305   1.762   1.319   1.612
   93SOL     OW  306   1.111   1.195   1.100
   93SOL    HW1  307   1.071   1.239   1.181
   93SOL    HW2  308   1.070   1.232   1.017
   94SOL     OW  309   1.638   1.099   1.079
   94SOL    HW1  310   1.643   1.180   1.138
   94SOL    HW2  311   1.552   1.101   1.028
   95SOL     OW  312   0.915   0.089   1.402
   95SOL    HW1  313   0.940   0.069   1.307
   95SOL    HW2  314   0.987   0.145   1.444
   96SOL     OW  315   0.980   1.116   1.719
   96SOL    HW1  316   0.881   1.122   1.729
   96SOL    HW2  317   1.003   1.036   1.663
   97SOL     OW  318   0.705   1.050   0.368
   97SOL    HW1  319   0.691   1.057   0.467
   97SOL    HW2  320   0.789   0.999   0.350
   98SOL     OW  321   0.410   0.813   1.251
   98SOL    HW1  322   0.496   0.825   1.301
   98SOL    HW2  323   0.368   0.726   1.278
   99SOL     OW  324   1.274   0.386   1.262
   99SOL    HW1  325   1.295   0.460   1.326
   99SOL    HW2  326   1.185   0.403   1.219
  100SOL     OW  327   0.064   1.564   1.331
  100SOL    HW1  328   0.018   1.646   1.297
  100SOL    HW2  329   0.162   1.583   1.340
  101SOL     OW  330   0.367   1.100   0.501
  101SOL    HW1  331   0.360   1.183   0.445
  101SOL    HW2  332   0.371   1.020   0.441
  102SOL     OW  333   0.566   0.537   0.865
  102SOL    HW1  334   0.578   0.603   0.791
  102SOL    HW2  335   0.612   0.571   0.948
  103SOL     OW  336   1.252   1.348   0.388
  103SOL    HW1  337   1.302   1.425   0.428
  103SOL    HW2  338   1.157   1.350   0.420
  104SOL     OW  339   1.272   1.445   1.142
  104SOL    HW1  340   1.319   1.458   1.229
  104SOL    HW2  341   1.206   1.371   1.151
  105SOL     OW  342   1.582   0.639   0.472
  105SOL    HW1  343   1.551   0.700   0.545
  105SOL    HW2  344   1.632   0.691   0.403
  106SOL     OW  345   0.354   1.510   1.329
  106SOL    HW1  346   0.333   1.466   1.242
  106SOL    HW2  347   0.451   1.536   1.332
  107SOL     OW  348   0.402   0.751   1.598
  107SOL    HW1  349   0.470   0.806   1.551
  107SOL    HW2  350   0.442   0.663   1.625
  108SOL     OW  351   1.587   0.779   1.670
  108SOL    HW1  352   1.495   0.817   1.665
  108SOL    HW2  353   1.647   0.826   1.605
  109SOL     OW  354   1.013   0.105   1.770
  109SOL    HW1  355   1.019   0.190   1.718
  109SOL    HW2  356   1.045   0.029   1.713
  110SOL     OW  357   0.504   0.050   1.740
  110SOL    HW1  358   0.462  -0.007   1.670
  110SOL    HW2  359   0.438   0.119   1.772
  111SOL     OW  360   0.573   0.870   1.029
  111SOL    HW1  361   0.617   0.959   1.020
  111SOL    HW2  362   0.510   0.870   1.106
  112SOL     OW  363   1.360   0.862   1.045
  112SOL    HW1  364   1.285   0.862   0.979
  112SOL    HW2  365   1.397   0.770   1.054
  113SOL     OW  366   1.209   0.525   0.275
  113SOL    HW1  367   1.222   0.441   0.329
  113SOL    HW2  368   1.180   0.599   0.335
  114SOL     OW  369   0.307   0.213   1.231
  114SOL    HW1  370   0.284   0.250   1.321
  114SOL    HW2  371   0.277   0.118   1.225
  115SOL     OW  372   0.037   1.310   1.282
  115SOL    HW1  373   0.090   1.261   1.350
  115SOL    HW2  374   0.059   1.408   1.287
  116SOL     OW  375   0.732   0.634   1.064
  116SOL    HW1  376   0.791   0.608   0.988
  116SOL    HW2  377   0.704   0.730   1.053
  117SOL     OW  378   1.728   0.935   1.854
  117SOL    HW1  379   1.682   0.928   1.765
  117SOL    HW2  380   1.666   0.979   1.920
  118SOL     OW  381   0.307   0.063   0.618
  118SOL    HW1  382   0.296   0.157   0.651
  118SOL    HW2  383   0.302   0.000   0.695
  119SOL     OW  384   1.622   0.367   0.374
  119SOL    HW1  385   1.624   0.291   0.438
  119SOL    HW2  386   1.574   0.444   0.414
  120SOL     OW  387   1.023   0.766   0.966
  120SOL    HW1  388   1.038   0.787   1.062
  120SOL    HW2  389   0.993   0.671   0.957
  121SOL     OW  390   0.980   1.573   1.700
  121SOL    HW1  391   0.960   1.617   1.612
  121SOL    HW2  392   1.019   1.482   1.684
  122SOL     OW  393   1.859   1.518   1.605
  122SOL    HW1  394   1.873   1.545   1.510
  122SOL    HW2  395   1.942   1.540   1.658
  123SOL     OW  396   0.350   0.898   1.804
  123SOL    HW1  397   0.426   0.942   1.852
  123SOL    HW2  398   0.385   0.851   1.722
  124SOL     OW  399   1.540   0.274   0.125
  124SOL    HW1  400   1.479   0.199   0.148
  124SOL    HW2  401   1.562   0.326   0.208
  125SOL     OW  402   1.303   0.838   0.042
  125SOL    HW1  403   1.337   0.745   0.057
  125SOL    HW2  404   1.321   0.865  -0.053
  126SOL     OW  405   1.068   1.333   0.849
  126SOL    HW1  406   1.075   1.249   0.794
  126SOL    HW2  407   1.130   1.402   0.813
  127SOL     OW  408   0.319   0.810   0.949
  127SOL    HW1  409   0.412   0.846   0.954
  127SOL    HW2  410   0.313   0.725   1.001
  128SOL     OW  411   0.339   0.509   1.006
  128SOL    HW1  412   0.287   0.426   0.989
  128SOL    HW2  413   0.416   0.514   0.942
  129SOL     OW  414   1.138   0.380   1.678
  129SOL    HW1  415   1.093   0.443   1.742
  129SOL    HW2  416   1.231   0.411   1.661
  130SOL     OW  417   1.160   0.207   1.477
  130SOL    HW1  418   1.160   0.271   1.554
  130SOL    HW2  419   1.188   0.255   1.394
  131SOL     OW  420   0.008   1.326   0.200
  131SOL    HW1  421  -0.085   1.347   0.169
  131SOL    HW2  422   0.018   1.227   0.213
  132SOL     OW  423   0.088   1.801   0.927
  132SOL    HW1  424   0.046   1.715   0.900
  132SOL    HW2  425   0.182   1.804   0.893
  133SOL     OW  426   0.504   1.568   0.910
  133SOL    HW1  427   0.570   1.642   0.919
  133SOL    HW2  428   0.548   1.489   0.868
  134SOL     OW  429   1.002   0.796   1.238
  134SOL    HW1  430   1.043   0.764   1.324
  134SOL    HW2  431   0.906   0.769   1.235
  135SOL     OW  432   0.040   0.544   1.114
  135SOL    HW1  433   0.125   0.511   1.073
  135SOL    HW2  434   0.053   0.559   1.212
  136SOL     OW  435   0.189   0.520   1.722
  136SOL    HW1  436   0.248   0.480   1.652
  136SOL    HW2  437   0.131   0.591   1.681
  137SOL     OW  438   1.369   0.950   1.660
  137SOL    HW1  439   1.408   1.039   1.680
  137SOL    HW2  440   1.379   0.930   1.563
  138SOL     OW  441   0.815   0.572   0.325
  138SOL    HW1  442   0.822   0.483   0.279
  138SOL    HW2  443   0.721   0.606   0.317
  139SOL     OW  444   1.657   0.604   1.206
  139SOL    HW1  445   1.619   0.535   1.268
  139SOL    HW2  446   1.739   0.568   1.162
  140SOL     OW  447   0.252   1.564   1.744
  140SOL    HW1  448   0.222   1.621   1.820
  140SOL    HW2  449   0.245   1.467   1.770
  141SOL     OW  450   0.671   0.464   1.269
  141SOL    HW1  451   0.637   0.375   1.239
  141SOL    HW2  452   0.697   0.518   1.189
  142SOL     OW  453   0.930   1.678   1.465
  142SOL    HW1  454   0.906   1.660   1.370
  142SOL    HW2  455   0.960   1.772   1.475
  143SOL     OW  456   0.473   0.500   0.191
  143SOL    HW1  457   0.534   0.580   0.195
  143SOL    HW2  458   0.378   0.531   0.198
  144SOL     OW  459   0.159   1.137   1.466
  144SOL    HW1  460   0.181   1.076   1.542
  144SOL    HW2  461   0.169   1.088   1.380
  145SOL     OW  462   1.347   1.059   1.234
  145SOL    HW1  463   1.371   0.996   1.160
  145SOL    HW2  464   1.257   1.099   1.216
  146SOL     OW  465   1.302   0.855   0.309
  146SOL    HW1  466   1.216   0.824   0.351
  146SOL    HW2  467   1.298   0.841   0.210
  147SOL     OW  468   1.759   1.747   1.154
  147SOL    HW1  469   1.820   1.777   1.081
  147SOL    HW2  470   1.721   1.658   1.132
  148SOL     OW  471   1.252   1.731   1.128
  148SOL    HW1  472   1.336   1.736   1.074
  148SOL    HW2  473   1.229   1.635   1.146
  149SOL     OW  474   0.083   1.258   1.022
  149SOL    HW1  475   0.078   1.257   1.122
  149SOL    HW2  476   0.000   1.217   0.984
  150SOL     OW  477   0.688   1.662   1.716
  150SOL    HW1  478   0.632   1.743   1.725
  150SOL    HW2  479   0.740   1.666   1.630
  151SOL     OW  480   0.903   0.086   0.133
  151SOL    HW1  481   0.954   0.087   0.047
  151SOL    HW2  482   0.959   0.044   0.204
  152SOL     OW  483   1.726   0.135   0.523
  152SOL    HW1  484   1.799   0.118   0.456
  152SOL    HW2  485   1.695   0.048   0.561
  153SOL     OW  486   1.388   1.573   0.477
  153SOL    HW1  487   1.455   1.585   0.403
  153SOL    HW2  488   1.348   1.662   0.500
  154SOL     OW  489   0.130   1.794   1.851
  154SOL    HW1  490   0.089   1.720   1.904
  154SOL    HW2  491   0.194   1.845   1.909
  155SOL     OW  492   1.280   0.927   0.672
  155SOL    HW1  493   1.340   0.846   0.674
  155SOL    HW2  494   1.320   0.996   0.612
  156SOL     OW  495   0.830   1.273   1.422
  156SOL    HW1  496   0.825   1.306   1.517
  156SOL    HW2  497   0.744   1.292   1.376
  157SOL     OW  498   0.672   1.616   0.154
  157SOL    HW1  499   0.681   1.626   0.055
  157SOL    HW2  500   0.632   1.527   0.175
  158SOL     OW  501   1.650   1.720   1.394
  158SOL    HW1  502   1.703   1.730   1.310
  158SOL    HW2  503   1.623   1.810   1.428
  159SOL     OW  504   1.841   0.175   0.963
  159SOL    HW1  505   1.880   0.090   0.927
  159SOL    HW2  506   1.743   0.177   0.944
  160SOL     OW  507   0.263   0.326   0.720
  160SOL    HW1  508   0.184   0.377   0.686
  160SOL    HW2  509   0.254   0.311   0.818
  161SOL     OW  510   1.194   1.612   0.031
  161SOL    HW1  511   1.200   1.519   0.068
  161SOL    HW2  512   1.135   1.612  -0.049
  162SOL     OW  513   0.822   1.002   1.372
  162SOL    HW1  514   0.862   1.001   1.280
  162SOL    HW2  515   0.832   1.094   1.412
  163SOL     OW  516   0.916   0.910   0.291
  163SOL    HW1  517   0.979   0.948   0.223
  163SOL    HW2  518   0.956   0.827   0.330
  164SOL     OW  519   1.504   1.607   0.044
  164SOL    HW1  520   1.412   1.644   0.051
  164SOL    HW2  521   1.542   1.627  -0.046
  165SOL     OW  522   0.372   1.288   1.490
  165SOL    HW1  523   0.359   1.381   1.456
  165SOL    HW2  524   0.288   1.236   1.477
  166SOL     OW  525   1.039   1.098   0.696
  166SOL    HW1  526   0.969   1.051   0.750
  166SOL    HW2  527   1.098   1.030   0.653
  167SOL     OW  528   1.014   0.236   0.971
  167SOL    HW1  529   1.006   0.200   0.878
  167SOL    HW2  530   1.012   0.160   1.036
  168SOL     OW  531   0.590   1.487   0.491
  168SOL    HW1  532   0.632   1.429   0.421
  168SOL    HW2  533   0.546   1.566   0.447
  169SOL     OW  534   1.709   0.385   1.381
  169SOL    HW1  535   1.782   0.454   1.385
  169SOL    HW2  536   1.737   0.310   1.322
  170SOL     OW  537   0.255   1.348   0.290
  170SOL    HW1  538   0.159   1.349   0.263
  170SOL    HW2  539   0.267   1.401   0.374
  171SOL     OW  540   0.105   1.013   1.726
  171SOL    HW1  541   0.028   0.980   1.780
  171SOL    HW2  542   0.190   0.983   1.768
  172SOL     OW  543   0.672   0.203   1.489
  172SOL    HW1  544   0.762   0.187   1.449
  172SOL    HW2  545   0.680   0.208   1.588
  173SOL     OW  546   0.075   0.345   0.033
  173SOL    HW1  547  -0.017   0.317   0.004
  173SOL    HW2  548   0.106   0.422  -0.023
  174SOL     OW  549   1.440   0.856   1.398
  174SOL    HW1  550   1.383   0.908   1.335
  174SOL    HW2  551   1.536   0.868   1.374
  175SOL     OW  552   0.072   0.166   0.318
  175SOL    HW1  553   0.055   0.249   0.264
  175SOL    HW2  554   0.162   0.129   0.296
  176SOL     OW  555   1.183   1.335   0.119
  176SOL    HW1  556   1.084   1.324   0.121
  176SOL    HW2  557   1.217   1.350   0.212
  177SOL     OW  558   0.613   0.842   1.431
  177SOL    HW1  559   0.669   0.923   1.414
  177SOL    HW2  560   0.672   0.762   1.434
  178SOL     OW  561   1.493   1.767   0.959
  178SOL    HW1  562   1.526   1.831   0.890
  178SOL    HW2  563   1.559   1.761   1.034
  179SOL     OW  564   0.716   0.565   1.708
  179SOL    HW1  565   0.735   0.630   1.782
  179SOL    HW2  566   0.776   0.485   1.717
  180SOL     OW  567   0.390   1.741   1.560
  180SOL    HW1  568   0.299   1.782   1.558
  180SOL    HW2  569   0.383   1.647   1.592
  181SOL     OW  570   1.674   0.883   1.254
  181SOL    HW1  571   1.647   0.794   1.217
  181SOL    HW2  572   1.675   0.951   1.181
  182SOL     OW  573   1.225   0.325   0.449
  182SOL    HW1  574   1.290   0.251   0.438
  182SOL    HW2  575   1.245   0.375   0.533
  183SOL     OW  576   0.594   0.745   0.652
  183SOL    HW1  577   0.644   0.830   0.633
  183SOL    HW2  578   0.506   0.747   0.604
  184SOL     OW  579   1.777   0.342   1.642
  184SOL    HW1  580   1.760   0.373   1.548
  184SOL    HW2  581   1.693   0.305   1.680
  185SOL     OW  582   1.730   0.934   1.517
  185SOL    HW1  583   1.768   1.025   1.532
  185SOL    HW2  584   1.722   0.917   1.418
  186SOL     OW  585   0.859   1.374   0.016
  186SOL    HW1  586   0.813   1.389   0.104
  186SOL    HW2  587   0.903   1.459  -0.014
  187SOL     OW  588   0.661   1.790   0.953
  187SOL    HW1  589   0.615   1.878   0.940
  187SOL    HW2  590   0.760   1.802   0.946
  188SOL     OW  591   0.859   0.956   0.861
  188SOL    HW1  592   0.913   0.887   0.909
  188SOL    HW2  593   0.827   1.025   0.927
  189SOL     OW  594   1.083   0.984   0.087
  189SOL    HW1  595   1.060   1.037   0.005
  189SOL    HW2  596   1.164   0.928   0.068
  190SOL     OW  597   1.861   1.569   0.851
  190SOL    HW1  598   1.790   1.557   0.781
  190SOL    HW2  599   1.862   1.490   0.911
  191SOL     OW  600   0.221   1.314   1.844
  191SOL    HW1  601   0.156   1.241   1.823
  191SOL    HW2  602   0.225   1.328   1.942
  192SOL     OW  603   0.079   1.240   0.653
  192SOL    HW1  604   0.078   1.193   0.741
  192SOL    HW2  605   0.161   1.212   0.602
  193SOL     OW  606   0.672   1.391   1.624
  193SOL    HW1  607   0.594   1.341   1.662
  193SOL    HW2  608   0.669   1.486   1.655
  194SOL     OW  609   1.824   0.192   1.227
  194SOL    HW1  610   1.820   0.102   1.271
  194SOL    HW2  611   1.827   0.181   1.128
  195SOL     OW  612   0.428   0.424   0.520
  195SOL    HW1  613   0.458   0.352   0.458
  195SOL    HW2  614   0.389   0.384   0.603
  196SOL     OW  615   1.705   1.487   1.104
  196SOL    HW1  616   1.612   1.462   1.077
  196SOL    HW2  617   1.731   1.437   1.186
  197SOL     OW  618   0.317   0.547   1.280
  197SOL    HW1  619   0.355   0.488   1.352
  197SOL    HW2  620   0.357   0.521   1.192
  198SOL     OW  621   0.812   1.586   0.687
  198SOL    HW1  622   0.844   1.596   0.593
  198SOL    HW2  623   0.733   1.524   0.689
  199SOL     OW  624   1.424   0.214   1.112
  199SOL    HW1  625   1.476   0.149   1.167
  199SOL    HW2  626   1.375   0.277   1.173
  200SOL     OW  627   1.001   0.034   1.154
  200SOL    HW1  628   0.938  -0.038   1.123
  200SOL    HW2  629   1.094  -0.002   1.154
  201SOL     OW  630   0.770   1.330   0.301
  201SOL    HW1  631   0.724   1.243   0.318
  201SOL    HW2  632   0.861   1.327   0.342
  202SOL     OW  633   0.618   1.567   1.284
  202SOL    HW1  634   0.613   1.649   1.341
  202SOL    HW2  635   0.707   1.564   1.239
  203SOL     OW  636   1.352   0.052   0.168
  203SOL    HW1  637   1.387   0.011   0.084
  203SOL    HW2  638   1.262   0.014   0.188
  204SOL     OW  639   1.300   0.453   0.691
  204SOL    HW1  640   1.241   0.533   0.695
  204SOL    HW2  641   1.315   0.418   0.784
  205SOL     OW  642   1.593   0.221   0.882
  205SOL    HW1  643   1.509   0.220   0.936
  205SOL    HW2  644   1.595   0.304   0.826
  206SOL     OW  645   0.039   1.077   0.300
  206SOL    HW1  646   0.138   1.066   0.291
  206SOL    HW2  647  -0.001   0.991   0.332
  207SOL     OW  648   0.875   1.646   0.337
  207SOL    HW1  649   0.798   1.611   0.283
  207SOL    HW2  650   0.843   1.717   0.399
  208SOL     OW  651   0.230   0.628   1.975
  208SOL    HW1  652   0.137   0.626   2.012
  208SOL    HW2  653   0.231   0.589   1.883
  209SOL     OW  654   0.225   0.275   2.858
  209SOL    HW1  655   0.260   0.258   2.950
  209SOL    HW2  656   0.137   0.230   2.846
  210SOL     OW  657   0.019   0.368   2.509
  210SOL    HW1  658  -0.063   0.411   2.548
  210SOL    HW2  659  -0.009   0.295   2.446
  211SOL     OW  660   0.569   1.275   3.027
  211SOL    HW1  661   0.476   1.268   2.990
  211SOL    HW2  662   0.580   1.364   3.071
  212SOL     OW  663   1.555   1.511   2.565
  212SOL    HW1  664   1.498   1.495   2.646
  212SOL    HW2  665   1.496   1.521   2.485
  213SOL     OW  666   1.135   0.703   2.579
  213SOL    HW1  667   1.192   0.781   2.554
  213SOL    HW2  668   1.075   0.729   2.655
  214SOL     OW  669   1.755   0.607   2.093
  214SOL    HW1  670   1.743   0.594   1.994
  214SOL    HW2  671   1.725   0.526   2.142
  215SOL     OW  672   0.768   1.144   2.885
  215SOL    HW1  673   0.690   1.161   2.945
  215SOL    HW2  674   0.802   1.231   2.849
  216SOL     OW  675   0.685   1.012   2.527
  216SOL    HW1  676   0.754   0.996   2.597
  216SOL    HW2  677   0.612   1.069   2.565
  217SOL     OW  678   0.335   1.435   2.923
  217SOL    HW1  679   0.257   1.404   2.870
  217SOL    HW2  680   0.393   1.493   2.866
  218SOL     OW  681   0.438   0.392   3.361
  218SOL    HW1  682   0.520   0.336   3.370
  218SOL    HW2  683   0.357   0.334   3.365
  219SOL     OW  684   1.603   0.447   2.599
  219SOL    HW1  685   1.529   0.493   2.549
  219SOL    HW2  686   1.654   0.515   2.652
  220SOL     OW  687   0.231   1.713   2.345
  220SOL    HW1  688   0.265   1.790   2.399
  220SOL    HW2  689   0.275   1.713   2.255
  221SOL     OW  690   0.230   1.434   2.400
  221SOL    HW1  691   0.204   1.530   2.400
  221SOL    HW2  692   0.159   1.380   2.445
  222SOL     OW  693   0.240   1.091   2.748
  222SOL    HW1  694   0.254   1.007   2.800
  222SOL    HW2  695   0.185   1.155   2.803
  223SOL     OW  696   0.620   1.786   3.301
  223SOL    HW1  697   0.528   1.769   3.336
  223SOL    HW2  698   0.648   1.878   3.327
  224SOL     OW  699   0.606   0.964   1.985
  224SOL    HW1  700   0.613   1.048   1.931
  224SOL    HW2  701   0.652   0.977   2.073
  225SOL     OW  702   0.122   0.643   2.425
  225SOL    HW1  703   0.077   0.555   2.442
  225SOL    HW2  704   0.121   0.697   2.509
  226SOL     OW  705   1.842   1.767   2.221
  226SOL    HW1  706   1.896   1.738   2.301
  226SOL    HW2  707   1.872   1.857   2.192
  227SOL     OW  708   0.027   1.596   1.979
  227SOL    HW1  709   0.008   1.500   2.000
  227SOL    HW2  710  -0.006   1.654   2.054
  228SOL     OW  711   1.689   0.922   2.474
  228SOL    HW1  712   1.784   0.893   2.482
  228SOL    HW2  713   1.681   0.987   2.399
  229SOL     OW  714   1.641   1.108   2.294
  229SOL    HW1  715   1.727   1.110   2.242
  229SOL    HW2  716   1.655   1.155   2.382
  230SOL     OW  717   0.613   1.365   2.588
  230SOL    HW1  718   0.564   1.278   2.597
  230SOL    HW2  719   0.590   1.408   2.501
  231SOL     OW  720   0.809   0.004   2.364
  231SOL    HW1  721   0.849   0.095   2.355
  231SOL    HW2  722   0.709   0.012   2.370
  232SOL     OW  723   0.197   0.976   3.126
  232SOL    HW1  724   0.286   0.931   3.112
  232SOL    HW2  725   0.124   0.911   3.107
  233SOL     OW  726   1.525   0.999   2.052
  233SOL    HW1  727   1.462   0.923   2.065
  233SOL    HW2  728   1.573   1.017   2.138
  234SOL     OW  729   1.466   1.417   2.815
  234SOL    HW1  730   1.407   1.423   2.895
  234SOL    HW2  731   1.451   1.329   2.769
  235SOL     OW  732   1.667   1.714   2.434
  235SOL    HW1  733   1.626   1.691   2.346
  235SOL    HW2  734   1.649   1.640   2.499
  236SOL     OW  735   0.598   0.729   2.132
  236SOL    HW1  736   0.622   0.798   2.064
  236SOL    HW2  737   0.520   0.762   2.186
  237SOL     OW  738   1.281   0.345   2.806
  237SOL    HW1  739   1.195   0.295   2.793
  237SOL    HW2  740   1.343   0.291   2.862
  238SOL     OW  741   1.576   1.662   2.169
  238SOL    HW1  742   1.665   1.708   2.172
  238SOL    HW2  743   1.555   1.638   2.074
  239SOL     OW  744   0.807   0.605   3.327
  239SOL    HW1  745   0.760   0.602   3.416
  239SOL    HW2  746   0.756   0.550   3.261
  240SOL     OW  747   0.991   0.410   3.104
  240SOL    HW1  748   0.914   0.444   3.158
  240SOL    HW2  749   0.957   0.359   3.025
  241SOL     OW  750   1.041   0.701   2.291
  241SOL    HW1  751   1.067   0.697   2.387
  241SOL    HW2  752   0.956   0.650   2.277
  242SOL     OW  753   0.076   0.811   2.651
  242SOL    HW1  754   0.175   0.799   2.660
  242SOL    HW2  755   0.052   0.906   2.672
  243SOL     OW  756   0.130   1.821   3.433
  243SOL    HW1  757   0.120   1.806   3.532
  243SOL    HW2  758   0.044   1.857   3.397
  244SOL     OW  759   0.865   0.348   2.057
  244SOL    HW1  760   0.924   0.411   2.008
  244SOL    HW2  761   0.884   0.254   2.028
  245SOL     OW  762   1.362   1.144   2.407
  245SOL    HW1  763   1.445   1.115   2.359
  245SOL    HW2  764   1.313   1.211   2.351
  246SOL     OW  765   0.550   0.196   2.747
  246SOL    HW1  766   0.545   0.191   2.847
  246SOL    HW2  767   0.552   0.292   2.718
  247SOL     OW  768   1.008   1.456   2.339
  247SOL    HW1  769   0.962   1.528   2.287
  247SOL    HW2  770   1.004   1.476   2.437
  248SOL     OW  771   0.351   1.801   2.715
  248SOL    HW1  772   0.401   1.715   2.721
  248SOL    HW2  773   0.416   1.878   2.712
  249SOL     OW  774   1.795   1.066   2.735
  249SOL    HW1  775   1.733   1.051   2.659
  249SOL    HW2  776   1.743   1.077   2.820
  250SOL     OW  777   0.321   0.943   2.104
  250SOL    HW1  778   0.403   0.982   2.062
  250SOL    HW2  779   0.294   0.861   2.055
  251SOL     OW  780   1.458   0.735   2.590
  251SOL    HW1  781   1.453   0.670   2.665
  251SOL    HW2  782   1.538   0.794   2.603
  252SOL     OW  783   1.111   1.776   2.099
  252SOL    HW1  784   1.051   1.714   2.149
  252SOL    HW2  785   1.142   1.732   2.014
  253SOL     OW  786   1.632   1.377   1.943
  253SOL    HW1  787   1.600   1.471   1.933
  253SOL    HW2  788   1.556   1.314   1.931
  254SOL     OW  789   0.464   1.743   2.185
  254SOL    HW1  790   0.497   1.782   2.271
  254SOL    HW2  791   0.540   1.736   2.120
  255SOL     OW  792   1.400   0.107   2.288
  255SOL    HW1  793   1.376   0.070   2.198
  255SOL    HW2  794   1.499   0.123   2.292
  256SOL     OW  795   0.249   1.785   3.103
  256SOL    HW1  796   0.306   1.720   3.153
  256SOL    HW2  797   0.233   1.752   3.010
  257SOL     OW  798   0.940   1.698   2.766
  257SOL    HW1  799   1.020   1.641   2.787
  257SOL    HW2  800   0.891   1.658   2.689
  258SOL     OW  801   0.382   0.700   2.342
  258SOL    HW1  802   0.427   0.610   2.339
  258SOL    HW2  803   0.288   0.689   2.375
  259SOL     OW  804   0.614   0.122   1.979
  259SOL    HW1  805   0.712   0.100   1.986
  259SOL    HW2  806   0.583   0.105   1.886
  260SOL     OW  807   0.888   1.514   3.057
  260SOL    HW1  808   0.865   1.489   2.963
  260SOL    HW2  809   0.949   1.445   3.096
  261SOL     OW  810   0.803   1.402   2.786
  261SOL    HW1  811   0.893   1.416   2.744
  261SOL    HW2  812   0.732   1.404   2.715
  262SOL     OW  813   0.922   0.503   2.761
  262SOL    HW1  814   0.897   0.494   2.665
  262SOL    HW2  815   0.970   0.421   2.792
  263SOL     OW  816   0.539   0.064   2.374
  263SOL    HW1  817   0.458   0.065   2.432
  263SOL    HW2  818   0.542   0.147   2.319
  264SOL     OW  819   1.434   1.188   1.903
  264SOL    HW1  820   1.466   1.112   1.960
  264SOL    HW2  821   1.342   1.215   1.933
  265SOL     OW  822   0.297   0.035   2.033
  265SOL    HW1  823   0.346   0.119   2.012
  265SOL    HW2  824   0.359  -0.030   2.078
  266SOL     OW  825   0.935   0.236   2.342
  266SOL    HW1  826   0.887   0.277   2.264
  266SOL    HW2  827   1.034   0.234   2.323
  267SOL     OW  828   1.227   1.570   2.655
  267SOL    HW1  829   1.248   1.644   2.590
  267SOL    HW2  830   1.295   1.570   2.728
  268SOL     OW  831   0.459   1.152   2.603
  268SOL    HW1  832   0.388   1.125   2.668
  268SOL    HW2  833   0.433   1.124   2.510
  269SOL     OW  834   1.271   1.797   2.453
  269SOL    HW1  835   1.315   1.861   2.389
  269SOL    HW2  836   1.221   1.849   2.523
  270SOL     OW  837   1.032   0.549   1.878
  270SOL    HW1  838   0.991   0.631   1.839
  270SOL    HW2  839   1.096   0.575   1.951
  271SOL     OW  840   0.561   0.222   3.009
  271SOL    HW1  841   0.599   0.138   3.046
  271SOL    HW2  842   0.473   0.241   3.053
  272SOL     OW  843   0.866   0.454   2.504
  272SOL    HW1  844   0.834   0.526   2.442
  272SOL    HW2  845   0.890   0.373   2.451
  273SOL     OW  846   1.017   0.039   2.615
  273SOL    HW1  847   0.945   0.044   2.546
  273SOL    HW2  848   0.993  -0.030   2.684
  274SOL     OW  849   1.429   1.173   2.729
  274SOL    HW1  850   1.374   1.089   2.722
  274SOL    HW2  851   1.455   1.202   2.637
  275SOL     OW  852   1.466   0.590   2.854
  275SOL    HW1  853   1.436   0.495   2.861
  275SOL    HW2  854   1.539   0.606   2.920
  276SOL     OW  855   1.857   0.833   2.239
  276SOL    HW1  856   1.899   0.769   2.303
  276SOL    HW2  857   1.819   0.782   2.161
  277SOL     OW  858   0.488   1.385   2.036
  277SOL    HW1  859   0.401   1.370   2.083
  277SOL    HW2  860   0.471   1.411   1.941
  278SOL     OW  861   1.664   1.280   2.519
  278SOL    HW1  862   1.763   1.288   2.533
  278SOL    HW2  863   1.619   1.364   2.550
  279SOL     OW  864   1.390   0.575   1.940
  279SOL    HW1  865   1.336   0.554   2.021
  279SOL    HW2  866   1.481   0.534   1.949
  280SOL     OW  867   0.527   0.256   2.190
  280SOL    HW1  868   0.554   0.197   2.115
  280SOL    HW2  869   0.527   0.351   2.159
  281SOL     OW  870   1.754   1.223   3.450
  281SOL    HW1  871   1.845   1.184   3.437
  281SOL    HW2  872   1.762   1.319   3.474
  282SOL     OW  873   1.064   1.347   3.202
  282SOL    HW1  874   0.984   1.324   3.257
  282SOL    HW2  875   1.147   1.321   3.251
  283SOL     OW  876   1.111   1.195   2.962
  283SOL    HW1  877   1.071   1.239   3.043
  283SOL    HW2  878   1.070   1.232   2.879
  284SOL     OW  879   1.638   1.099   2.941
  284SOL    HW1  880   1.643   1.180   3.000
  284SOL    HW2  881   1.552   1.101   2.890
  285SOL     OW  882   0.705   1.050   2.230
  285SOL    HW1  883   0.691   1.057   2.329
  285SOL    HW2  884   0.789   0.999   2.212
  286SOL     OW  885   0.410   0.813   3.113
  286SOL    HW1  886   0.496   0.825   3.163
  286SOL    HW2  887   0.368   0.726   3.140
  287SOL     OW  888   1.274   0.386   3.124
  287SOL    HW1  889   1.295   0.460   3.188
  287SOL    HW2  890   1.185   0.403   3.081
  288SOL     OW  891   0.064   1.564   3.193
  288SOL    HW1  892   0.018   1.646   3.159
  288SOL    HW2  893   0.162   1.583   3.202
  289SOL     OW  894   0.367   1.100   2.363
  289SOL    HW1  895   0.360   1.183   2.307
  289SOL    HW2  896   0.371   1.020   2.303
  290SOL     OW  897   0.566   0.537   2.727
  290SOL    HW1  898   0.578   0.603   2.653
  290SOL    HW2  899   0.612   0.571   2.810
  291SOL     OW  900   1.252   1.348   2.250
  291SOL    HW1  901   1.302   1.425   2.290
  291SOL    HW2  902   1.157   1.350   2.282
  292SOL     OW  903   1.272   1.445   3.004
  292SOL    HW1  904   1.319   1.458   3.091
  292SOL    HW2  905   1.206   1.371   3.013
  293SOL     OW  906   1.582   0.639   2.334
  293SOL    HW1  907   1.551   0.700   2.407
  293SOL    HW2  908   1.632   0.691   2.265
  294SOL     OW  909   0.354   1.510   3.191
  294SOL    HW1  910   0.333   1.466   3.104
  294SOL    HW2  911   0.451   1.536   3.194
  295SOL     OW  912   0.573   0.870   2.891
  295SOL    HW1  913   0.617   0.959   2.882
  295SOL    HW2  914   0.510   0.870   2.968
  296SOL     OW  915   1.360   0.862   2.907
  296SOL    HW1  916   1.285   0.862   2.841
  296SOL    HW2  917   1.397   0.770   2.916
  297SOL     OW  918   1.209   0.525   2.137
  297SOL    HW1  919   1.222   0.441   2.191
  297SOL    HW2  920   1.180   0.599   2.197
  298SOL     OW  921   0.307   0.213   3.093
  298SOL    HW1  922   0.284   0.250   3.183
  298SOL    HW2  923   0.277   0.118   3.087
  299SOL     OW  924   0.037   1.310   3.144
  299SOL    HW1  925   0.090   1.261   3.212
  299SOL    HW2  926   0.059   1.408   3.149
  300SOL     OW  927   0.732   0.634   2.926
  300SOL    HW1  928   0.791   0.608   2.850
  300SOL    HW2  929   0.704   0.730   2.915
  301SOL     OW  930   0.307   0.063   2.480
  301SOL    HW1  931   0.296   0.157   2.513
  301SOL    HW2  932   0.302   0.000   2.557
  302SOL     OW  933   1.622   0.367   2.236
  302SOL    HW1  934   1.624   0.291   2.300
  302SOL    HW2  935   1.574   0.444   2.276
  303SOL     OW  936   1.023   0.766   2.828
  303SOL    HW1  937   1.038   0.787   2.924
  303SOL    HW2  938   0.993   0.671   2.819
  304SOL     OW  939   1.540   0.274   1.987
  304SOL    HW1  940   1.479   0.199   2.010
  304SOL    HW2  941   1.562   0.326   2.070
  305SOL     OW  942   1.303   0.838   1.904
  305SOL    HW1  943   1.337   0.745   1.919
  305SOL    HW2  944   1.321   0.865   1.809
  306SOL     OW  945   1.068   1.333   2.711
  306SOL    HW1  946   1.075   1.249   2.656
  306SOL    HW2  947   1.130   1.402   2.675
  307SOL     OW  948   0.319   0.810   2.811
  307SOL    HW1  949   0.412   0.846   2.816
  307SOL    HW2  950   0.313   0.725   2.863
  308SOL     OW  951   0.339   0.509   2.868
  308SOL    HW1  952   0.287   0.426   2.851
  308SOL    HW2  953   0.416   0.514   2.804
  309SOL     OW  954   1.160   0.207   3.339
  309SOL    HW1  955   1.160   0.271   3.416
  309SOL    HW2  956   1.188   0.255   3.256
  310SOL     OW  957   0.008   1.326   2.062
  310SOL    HW1  958  -0.085   1.347   2.031
  310SOL    HW2  959   0.018   1.227   2.075
  311SOL     OW  960   0.088   1.801   2.789
  311SOL    HW1  961   0.046   1.715   2.762
  311SOL    HW2  962   0.182   1.804   2.755
  312SOL     OW  963   0.504   1.568   2.772
  312SOL    HW1  964   0.570   1.642   2.781
  312SOL    HW2  965   0.548   1.489   2.730
  313SOL     OW  966   1.002   0.796   3.100
  313SOL    HW1  967   1.043   0.764   3.186
  313SOL    HW2  968   0.906   0.769   3.097
  314SOL     OW  969   0.040   0.544   2.976
  314SOL    HW1  970   0.125   0.511   2.935
  314SOL    HW2  971   0.053   0.559   3.074
  315SOL     OW  972   0.815   0.572   2.187
  315SOL    HW1  973   0.822   0.483   2.141
  315SOL    HW2  974   0.721   0.606   2.179
  316SOL     OW  975   1.657   0.604   3.068
  316SOL    HW1  976   1.619   0.535   3.130
  316SOL    HW2  977   1.739   0.568   3.024
  317SOL     OW  978   0.671   0.464   3.131
  317SOL    HW1  979   0.637   0.375   3.101
  317SOL    HW2  980   0.697   0.518   3.051
  318SOL     OW  981   0.930   1.678   3.327
  318SOL    HW1  982   0.906   1.660   3.232
  318SOL    HW2  983   0.960   1.772   3.337
  319SOL     OW  984   0.473   0.500   2.053
  319SOL    HW1  985   0.534   0.580   2.057
  319SOL    HW2  986   0.378   0.531   2.060
  320SOL     OW  987   0.159   1.137   3.328
  320SOL    HW1  988   0.181   1.076   3.404
  320SOL    HW2  989   0.169   1.088   3.242
  321SOL     OW  990   1.347   1.059   3.096
  321SOL    HW1  991   1.371   0.996   3.022
  321SOL    HW2  992   1.257   1.099   3.078
  322SOL     OW  993   1.302   0.855   2.171
  322SOL    HW1  994   1.216   0.824   2.213
  322SOL    HW2  995   1.298   0.841   2.072
  323SOL     OW  996   1.759   1.747   3.016
  323SOL    HW1  997   1.820   1.777   2.943
  323SOL    HW2  998   1.721   1.658   2.994
  324SOL     OW  999   1.252   1.731   2.990
  324SOL    HW1 1000   1.336   1.736   2.936
  324SOL    HW2 1001   1.229   1.635   3.008
  325SOL     OW 1002   0.083   1.258   2.884
  325SOL    HW1 1003   0.078   1.257   2.984
  325SOL    HW2 1004   0.000   1.217   2.846
  326SOL     OW 1005   1.726   0.135   2.385
  326SOL    HW1 1006   1.799   0.118   2.318
  326SOL    HW2 1007   1.695   0.048   2.423
  327SOL     OW 1008   1.388   1.573   2.339
  327SOL    HW1 1009   1.455   1.585   2.265
  327SOL    HW2 1010   1.348   1.662   2.362
  328SOL     OW 1011   1.280   0.927   2.534
  328SOL    HW1 1012   1.340   0.846   2.536
  328SOL    HW2 1013   1.320   0.996   2.474
  329SOL     OW 1014   0.672   1.616   2.016
  329SOL    HW1 1015   0.681   1.626   1.917
  329SOL    HW2 1016   0.632   1.527   2.037
  330SOL     OW 1017   1.841   0.175   2.825
  330SOL    HW1 1018   1.880   0.090   2.789
  330SOL    HW2 1019   1.743   0.177   2.806
  331SOL     OW 1020   0.263   0.326   2.582
  331SOL    HW1 1021   0.184   0.377   2.548
  331SOL    HW2 1022   0.254   0.311   2.680
  332SOL     OW 1023   1.194   1.612   1.893
  332SOL    HW1 1024   1.200   1.519   1.930
  332SOL    HW2 1025   1.135   1.612   1.813
  333SOL     OW 1026   0.822   1.002   3.234
  333SOL    HW1 1027   0.862   1.001   3.142
  333SOL    HW2 1028   0.832   1.094   3.274
  334SOL     OW 1029   0.916   0.910   2.153
  334SOL    HW1 1030   0.979   0.948   2.085
  334SOL    HW2 1031   0.956   0.827   2.192
  335SOL     OW 1032   0.372   1.288   3.352
  335SOL    HW1 1033   0.359   1.381   3.318
  335SOL    HW2 1034   0.288   1.236   3.339
  336SOL     OW 1035   1.614   1.292   3.151
  336SOL    HW1 1036   1.674   1.295   3.231
  336SOL    HW2 1037   1.539   1.356   3.164
  337SOL     OW 1038   1.039   1.098   2.558
  337SOL    HW1 1039   0.969   1.051   2.612
  337SOL    HW2 1040   1.098   1.030   2.515
  338SOL     OW 1041   1.014   0.236   2.833
  338SOL    HW1 1042   1.006   0.200   2.740
  338SOL    HW2 1043   1.012   0.160   2.898
  339SOL     OW 1044   0.590   1.487   2.353
  339SOL    HW1 1045   0.632   1.429   2.283
  339SOL    HW2 1046   0.546   1.566   2.309
  340SOL     OW 1047   1.709   0.385   3.243
  340SOL    HW1 1048   1.782   0.454   3.247
  340SOL    HW2 1049   1.737   0.310   3.184
  341SOL     OW 1050   0.255   1.348   2.152
  341SOL    HW1 1051   0.159   1.349   2.125
  341SOL    HW2 1052   0.267   1.401   2.236
  342SOL     OW 1053   0.075   0.345   1.895
  342SOL    HW1 1054  -0.017   0.317   1.866
  342SOL    HW2 1055   0.106   0.422   1.839
  343SOL     OW 1056   0.072   0.166   2.180
  343SOL    HW1 1057   0.055   0.249   2.126
  343SOL    HW2 1058   0.162   0.129   2.158
  344SOL     OW 1059   1.183   1.335   1.981
  344SOL    HW1 1060   1.084   1.324   1.983
  344SOL    HW2 1061   1.217   1.350   2.074
  345SOL     OW 1062   0.613   0.842   3.293
  345SOL    HW1 1063   0.669   0.923   3.276
  345SOL    HW2 1064   0.672   0.762   3.296
  346SOL     OW 1065   1.493   1.767   2.821
  346SOL    HW1 1066   1.526   1.831   2.752
  346SOL    HW2 1067   1.559   1.761   2.896
  347SOL     OW 1068   0.390   1.741   3.422
  347SOL    HW1 1069   0.299   1.782   3.420
  347SOL    HW2 1070   0.383   1.647   3.454
  348SOL     OW 1071   1.674   0.883   3.116
  348SOL    HW1 1072   1.647   0.794   3.079
  348SOL    HW2 1073   1.675   0.951   3.043
  349SOL     OW 1074   1.225   0.325   2.311
  349SOL    HW1 1075   1.290   0.251   2.300
  349SOL    HW2 1076   1.245   0.375   2.395
  350SOL     OW 1077   0.594   0.745   2.514
  350SOL    HW1 1078   0.644   0.830   2.495
  350SOL    HW2 1079   0.506   0.747   2.466
  351SOL     OW 1080   1.730   0.934   3.379
  351SOL    HW1 1081   1.768   1.025   3.394
  351SOL    HW2 1082   1.722   0.917   3.280
  352SOL     OW 1083   0.859   1.374   1.878
  352SOL    HW1 1084   0.813   1.389   1.966
  352SOL    HW2 1085   0.903   1.459   1.848
  353SOL     OW 1086   0.661   1.790   2.815
  353SOL    HW1 1087   0.615   1.878   2.802
  353SOL    HW2 1088   0.760   1.802   2.808
  354SOL     OW 1089   0.859   0.956   2.723
  354SOL    HW1 1090   0.913   0.887   2.771
  354SOL    HW2 1091   0.827   1.025   2.789
  355SOL     OW 1092   1.083   0.984   1.949
  355SOL    HW1 1093   1.060   1.037   1.867
  355SOL    HW2 1094   1.164   0.928   1.930
  356SOL     OW 1095   1.861   1.569   2.713
  356SOL    HW1 1096   1.790   1.557   2.643
  356SOL    HW2 1097   1.862   1.490   2.773
  357SOL     OW 1098   0.079   1.240   2.515
  357SOL    HW1 1099   0.078   1.193   2.603
  357SOL    HW2 1100   0.161   1.212   2.464
  358SOL     OW 1101   1.824   0.192   3.089
  358SOL    HW1 1102   1.820   0.102   3.133
  358SOL    HW2 1103   1.827   0.181   2.990
  359SOL     OW 1104   0.428   0.424   2.382
  359SOL    HW1 1105   0.458   0.352   2.320
  359SOL    HW2 1106   0.389   0.384   2.465
  360SOL     OW 1107   1.705   1.487   2.966
  360SOL    HW1 1108   1.612   1.462   2.939
  360SOL    HW2 1109   1.731   1.437   3.048
  361SOL     OW 1110   0.317   0.547   3.142
  361SOL    HW1 1111   0.355   0.488   3.214
  361SOL    HW2 1112   0.357   0.521   3.054
  362SOL     OW 1113   0.812   1.586   2.549
  362SOL    HW1 1114   0.844   1.596   2.455
  362SOL    HW2 1115   0.733   1.524   2.551
  363SOL     OW 1116   1.424   0.214   2.974
  363SOL    HW1 1117   1.476   0.149   3.029
  363SOL    HW2 1118   1.375   0.277   3.035
  364SOL     OW 1119   1.001   0.034   3.016
  364SOL    HW1 1120   0.938  -0.038   2.985
  364SOL    HW2 1121   1.094  -0.002   3.016
  365SOL     OW 1122   0.770   1.330   2.163
  365SOL    HW1 1123   0.724   1.243   2.180
  365SOL    HW2 1124   0.861   1.327   2.204
  366SOL     OW 1125   0.618   1.567   3.146
  366SOL    HW1 1126   0.613   1.649   3.203
  366SOL    HW2 1127   0.707   1.564   3.101
  367SOL     OW 1128   1.352   0.052   2.030
  367SOL    HW1 1129   1.387   0.011   1.946
  367SOL    HW2 1130   1.262   0.014   2.050
  368SOL     OW 1131   1.300   0.453   2.553
  368SOL    HW1 1132   1.241   0.533   2.557
  368SOL    HW2 1133   1.315   0.418   2.646
  369SOL     OW 1134   1.593   0.221   2.744
  369SOL    HW1 1135   1.509   0.220   2.798
  369SOL    HW2 1136   1.595   0.304   2.688
  370SOL     OW 1137   0.039   1.077   2.162
  370SOL    HW1 1138   0.138   1.066   2.153
  370SOL    HW2 1139  -0.001   0.991   2.194
  371SOL     OW 1140   0.875   1.646   2.199
  371SOL    HW1 1141   0.798   1.611   2.145
  371SOL    HW2 1142   0.843   1.717   2.261
  372SOL     OW 1143   0.230   2.490   0.113
  372SOL    HW1 1144   0.137   2.488   0.150
  372SOL    HW2 1145   0.231   2.451   0.021
  373SOL     OW 1146   0.225   2.137   0.996
  373SOL    HW1 1147   0.260   2.120   1.088
  373SOL    HW2 1148   0.137   2.092   0.984
  374SOL     OW 1149   0.019   2.230   0.647
  374SOL    HW1 1150  -0.063   2.273   0.686
  374SOL    HW2 1151  -0.009   2.157   0.584
  375SOL     OW 1152   0.569   3.137   1.165
  375SOL    HW1 1153   0.476   3.130   1.128
  375SOL    HW2 1154   0.580   3.226   1.209
  376SOL     OW 1155   1.555   3.373   0.703
  376SOL    HW1 1156   1.498   3.357   0.784
  376SOL    HW2 1157   1.496   3.383   0.623
  377SOL     OW 1158   1.135   2.565   0.717
  377SOL    HW1 1159   1.192   2.643   0.692
  377SOL    HW2 1160   1.075   2.591   0.793
  378SOL     OW 1161   1.755   2.469   0.231
  378SOL    HW1 1162   1.743   2.456   0.132
  378SOL    HW2 1163   1.725   2.388   0.280
  379SOL     OW 1164   0.768   3.006   1.023
  379SOL    HW1 1165   0.690   3.023   1.083
  379SOL    HW2 1166   0.802   3.093   0.987
  380SOL     OW 1167   0.850   2.660   1.823
  380SOL    HW1 1168   0.846   2.736   1.888
  380SOL    HW2 1169   0.872   2.696   1.732
  381SOL     OW 1170   0.685   2.874   0.665
  381SOL    HW1 1171   0.754   2.858   0.735
  381SOL    HW2 1172   0.612   2.931   0.703
  382SOL     OW 1173   0.686   3.023   1.803
  382SOL    HW1 1174   0.746   3.102   1.817
  382SOL    HW2 1175   0.600   3.054   1.762
  383SOL     OW 1176   0.335   3.297   1.061
  383SOL    HW1 1177   0.257   3.266   1.008
  383SOL    HW2 1178   0.393   3.355   1.004
  384SOL     OW 1179   0.438   2.254   1.499
  384SOL    HW1 1180   0.520   2.198   1.508
  384SOL    HW2 1181   0.357   2.196   1.503
  385SOL     OW 1182   1.603   2.309   0.737
  385SOL    HW1 1183   1.529   2.355   0.687
  385SOL    HW2 1184   1.654   2.377   0.790
  386SOL     OW 1185   0.231   3.575   0.483
  386SOL    HW1 1186   0.265   3.652   0.537
  386SOL    HW2 1187   0.275   3.575   0.393
  387SOL     OW 1188   1.127   3.203   1.690
  387SOL    HW1 1189   1.174   3.203   1.778
  387SOL    HW2 1190   1.079   3.116   1.679
  388SOL     OW 1191   0.240   2.953   0.886
  388SOL    HW1 1192   0.254   2.869   0.938
  388SOL    HW2 1193   0.185   3.017   0.941
  389SOL     OW 1194   0.606   2.826   0.123
  389SOL    HW1 1195   0.613   2.910   0.069
  389SOL    HW2 1196   0.652   2.839   0.211
  390SOL     OW 1197   1.594   1.976   1.480
  390SOL    HW1 1198   1.576   2.043   1.408
  390SOL    HW2 1199   1.591   2.022   1.569
  391SOL     OW 1200   0.122   2.505   0.563
  391SOL    HW1 1201   0.077   2.417   0.580
  391SOL    HW2 1202   0.121   2.559   0.647
  392SOL     OW 1203   1.689   2.784   0.612
  392SOL    HW1 1204   1.784   2.755   0.620
  392SOL    HW2 1205   1.681   2.849   0.537
  393SOL     OW 1206   1.641   2.970   0.432
  393SOL    HW1 1207   1.727   2.972   0.380
  393SOL    HW2 1208   1.655   3.017   0.520
  394SOL     OW 1209   0.113   2.599   1.597
  394SOL    HW1 1210   0.201   2.586   1.642
  394SOL    HW2 1211   0.100   2.696   1.575
  395SOL     OW 1212   0.613   3.227   0.726
  395SOL    HW1 1213   0.564   3.140   0.735
  395SOL    HW2 1214   0.590   3.270   0.639
  396SOL     OW 1215   1.293   3.090   1.423
  396SOL    HW1 1216   1.330   3.017   1.365
  396SOL    HW2 1217   1.345   3.095   1.508
  397SOL     OW 1218   0.809   1.866   0.502
  397SOL    HW1 1219   0.849   1.957   0.493
  397SOL    HW2 1220   0.709   1.874   0.508
  398SOL     OW 1221   0.197   2.838   1.264
  398SOL    HW1 1222   0.286   2.793   1.250
  398SOL    HW2 1223   0.124   2.773   1.245
  399SOL     OW 1224   1.525   2.861   0.190
  399SOL    HW1 1225   1.462   2.785   0.203
  399SOL    HW2 1226   1.573   2.879   0.276
  400SOL     OW 1227   0.317   2.113   1.801
  400SOL    HW1 1228   0.388   2.184   1.807
  400SOL    HW2 1229   0.229   2.152   1.829
  401SOL     OW 1230   1.466   3.279   0.953
  401SOL    HW1 1231   1.407   3.285   1.033
  401SOL    HW2 1232   1.451   3.191   0.907
  402SOL     OW 1233   0.598   2.591   0.270
  402SOL    HW1 1234   0.622   2.660   0.202
  402SOL    HW2 1235   0.520   2.624   0.324
  403SOL     OW 1236   1.281   2.207   0.944
  403SOL    HW1 1237   1.195   2.157   0.931
  403SOL    HW2 1238   1.343   2.153   1.000
  404SOL     OW 1239   0.807   2.467   1.465
  404SOL    HW1 1240   0.760   2.464   1.554
  404SOL    HW2 1241   0.756   2.412   1.399
  405SOL     OW 1242   1.394   2.331   1.674
  405SOL    HW1 1243   1.374   2.374   1.762
  405SOL    HW2 1244   1.472   2.269   1.683
  406SOL     OW 1245   0.973   2.752   1.572
  406SOL    HW1 1246   1.019   2.668   1.543
  406SOL    HW2 1247   0.917   2.786   1.497
  407SOL     OW 1248   0.991   2.272   1.242
  407SOL    HW1 1249   0.914   2.306   1.296
  407SOL    HW2 1250   0.957   2.221   1.163
  408SOL     OW 1251   1.041   2.563   0.429
  408SOL    HW1 1252   1.067   2.559   0.525
  408SOL    HW2 1253   0.956   2.512   0.415
  409SOL     OW 1254   0.076   2.673   0.789
  409SOL    HW1 1255   0.175   2.661   0.798
  409SOL    HW2 1256   0.052   2.768   0.810
  410SOL     OW 1257   0.865   2.210   0.195
  410SOL    HW1 1258   0.924   2.273   0.146
  410SOL    HW2 1259   0.884   2.116   0.166
  411SOL     OW 1260   1.719   2.447   1.831
  411SOL    HW1 1261   1.693   2.536   1.795
  411SOL    HW2 1262   1.717   2.379   1.758
  412SOL     OW 1263   1.362   3.006   0.545
  412SOL    HW1 1264   1.445   2.977   0.497
  412SOL    HW2 1265   1.313   3.073   0.489
  413SOL     OW 1266   0.550   2.058   0.885
  413SOL    HW1 1267   0.545   2.053   0.985
  413SOL    HW2 1268   0.552   2.154   0.856
  414SOL     OW 1269   1.795   2.928   0.873
  414SOL    HW1 1270   1.733   2.913   0.797
  414SOL    HW2 1271   1.743   2.939   0.958
  415SOL     OW 1272   0.321   2.805   0.242
  415SOL    HW1 1273   0.403   2.844   0.200
  415SOL    HW2 1274   0.294   2.723   0.193
  416SOL     OW 1275   1.458   2.597   0.728
  416SOL    HW1 1276   1.453   2.532   0.803
  416SOL    HW2 1277   1.538   2.656   0.741
  417SOL     OW 1278   0.461   3.128   1.727
  417SOL    HW1 1279   0.411   3.129   1.641
  417SOL    HW2 1280   0.398   3.110   1.803
  418SOL     OW 1281   0.202   2.147   1.498
  418SOL    HW1 1282   0.122   2.207   1.485
  418SOL    HW2 1283   0.192   2.098   1.584
  419SOL     OW 1284   1.632   3.239   0.081
  419SOL    HW1 1285   1.600   3.333   0.071
  419SOL    HW2 1286   1.556   3.176   0.069
  420SOL     OW 1287   1.400   1.969   0.426
  420SOL    HW1 1288   1.376   1.932   0.336
  420SOL    HW2 1289   1.499   1.985   0.430
  421SOL     OW 1290   0.382   2.562   0.480
  421SOL    HW1 1291   0.427   2.472   0.477
  421SOL    HW2 1292   0.288   2.551   0.513
  422SOL     OW 1293   1.547   2.084   1.729
  422SOL    HW1 1294   1.542   2.121   1.821
  422SOL    HW2 1295   1.475   2.015   1.717
  423SOL     OW 1296   0.781   2.126   1.749
  423SOL    HW1 1297   0.848   2.065   1.792
  423SOL    HW2 1298   0.708   2.145   1.814
  424SOL     OW 1299   1.351   2.452   1.433
  424SOL    HW1 1300   1.379   2.409   1.518
  424SOL    HW2 1301   1.376   2.548   1.434
  425SOL     OW 1302   0.922   2.365   0.899
  425SOL    HW1 1303   0.897   2.356   0.803
  425SOL    HW2 1304   0.970   2.283   0.930
  426SOL     OW 1305   0.539   1.926   0.512
  426SOL    HW1 1306   0.458   1.927   0.570
  426SOL    HW2 1307   0.542   2.009   0.457
  427SOL     OW 1308   1.434   3.050   0.041
  427SOL    HW1 1309   1.466   2.974   0.098
  427SOL    HW2 1310   1.342   3.077   0.071
  428SOL     OW 1311   0.935   2.098   0.480
  428SOL    HW1 1312   0.887   2.139   0.402
  428SOL    HW2 1313   1.034   2.096   0.461
  429SOL     OW 1314   1.076   2.545   1.464
  429SOL    HW1 1315   0.996   2.484   1.467
  429SOL    HW2 1316   1.157   2.492   1.440
  430SOL     OW 1317   1.227   3.432   0.793
  430SOL    HW1 1318   1.248   3.506   0.728
  430SOL    HW2 1319   1.295   3.432   0.866
  431SOL     OW 1320   0.459   3.014   0.741
  431SOL    HW1 1321   0.388   2.987   0.806
  431SOL    HW2 1322   0.433   2.986   0.648
  432SOL     OW 1323   1.032   2.411   0.016
  432SOL    HW1 1324   0.991   2.493  -0.023
  432SOL    HW2 1325   1.096   2.437   0.089
  433SOL     OW 1326   0.078   2.418   1.386
  433SOL    HW1 1327   0.170   2.417   1.345
  433SOL    HW2 1328   0.072   2.492   1.453
  434SOL     OW 1329   0.561   2.084   1.147
  434SOL    HW1 1330   0.599   2.000   1.184
  434SOL    HW2 1331   0.473   2.103   1.191
  435SOL     OW 1332   0.866   2.316   0.642
  435SOL    HW1 1333   0.834   2.388   0.580
  435SOL    HW2 1334   0.890   2.235   0.589
  436SOL     OW 1335   1.017   1.901   0.753
  436SOL    HW1 1336   0.945   1.906   0.684
  436SOL    HW2 1337   0.993   1.832   0.822
  437SOL     OW 1338   1.429   3.035   0.867
  437SOL    HW1 1339   1.374   2.951   0.860
  437SOL    HW2 1340   1.455   3.064   0.775
  438SOL     OW 1341   1.466   2.452   0.992
  438SOL    HW1 1342   1.436   2.357   0.999
  438SOL    HW2 1343   1.539   2.468   1.058
  439SOL     OW 1344   1.857   2.695   0.377
  439SOL    HW1 1345   1.899   2.631   0.441
  439SOL    HW2 1346   1.819   2.644   0.299
  440SOL     OW 1347   1.664   3.142   0.657
  440SOL    HW1 1348   1.763   3.150   0.671
  440SOL    HW2 1349   1.619   3.226   0.688
  441SOL     OW 1350   1.390   2.437   0.078
  441SOL    HW1 1351   1.336   2.416   0.159
  441SOL    HW2 1352   1.481   2.396   0.087
  442SOL     OW 1353   0.527   2.118   0.328
  442SOL    HW1 1354   0.554   2.059   0.253
  442SOL    HW2 1355   0.527   2.213   0.297
  443SOL     OW 1356   1.754   3.085   1.588
  443SOL    HW1 1357   1.845   3.046   1.575
  443SOL    HW2 1358   1.762   3.181   1.612
  444SOL     OW 1359   1.064   3.209   1.340
  444SOL    HW1 1360   0.984   3.186   1.395
  444SOL    HW2 1361   1.147   3.183   1.389
  445SOL     OW 1362   1.111   3.057   1.100
  445SOL    HW1 1363   1.071   3.101   1.181
  445SOL    HW2 1364   1.070   3.094   1.017
  446SOL     OW 1365   1.638   2.961   1.079
  446SOL    HW1 1366   1.643   3.042   1.138
  446SOL    HW2 1367   1.552   2.963   1.028
  447SOL     OW 1368   0.915   1.951   1.402
  447SOL    HW1 1369   0.940   1.931   1.307
  447SOL    HW2 1370   0.987   2.007   1.444
  448SOL     OW 1371   0.980   2.978   1.719
  448SOL    HW1 1372   0.881   2.984   1.729
  448SOL    HW2 1373   1.003   2.898   1.663
  449SOL     OW 1374   0.705   2.912   0.368
  449SOL    HW1 1375   0.691   2.919   0.467
  449SOL    HW2 1376   0.789   2.861   0.350
  450SOL     OW 1377   0.410   2.675   1.251
  450SOL    HW1 1378   0.496   2.687   1.301
  450SOL    HW2 1379   0.368   2.588   1.278
  451SOL     OW 1380   1.274   2.248   1.262
  451SOL    HW1 1381   1.295   2.322   1.326
  451SOL    HW2 1382   1.185   2.265   1.219
  452SOL     OW 1383   0.064   3.426   1.331
  452SOL    HW1 1384   0.018   3.508   1.297
  452SOL    HW2 1385   0.162   3.445   1.340
  453SOL     OW 1386   0.367   2.962   0.501
  453SOL    HW1 1387   0.360   3.045   0.445
  453SOL    HW2 1388   0.371   2.882   0.441
  454SOL     OW 1389   0.566   2.399   0.865
  454SOL    HW1 1390   0.578   2.465   0.791
  454SOL    HW2 1391   0.612   2.433   0.948
  455SOL     OW 1392   1.252   3.210   0.388
  455SOL    HW1 1393   1.302   3.287   0.428
  455SOL    HW2 1394   1.157   3.212   0.420
  456SOL     OW 1395   1.272   3.307   1.142
  456SOL    HW1 1396   1.319   3.320   1.229
  456SOL    HW2 1397   1.206   3.233   1.151
  457SOL     OW 1398   1.582   2.501   0.472
  457SOL    HW1 1399   1.551   2.562   0.545
  457SOL    HW2 1400   1.632   2.553   0.403
  458SOL     OW 1401   0.402   2.613   1.598
  458SOL    HW1 1402   0.470   2.668   1.551
  458SOL    HW2 1403   0.442   2.525   1.625
  459SOL     OW 1404   1.587   2.641   1.670
  459SOL    HW1 1405   1.495   2.679   1.665
  459SOL    HW2 1406   1.647   2.688   1.605
  460SOL     OW 1407   1.013   1.967   1.770
  460SOL    HW1 1408   1.019   2.052   1.718
  460SOL    HW2 1409   1.045   1.891   1.713
  461SOL     OW 1410   0.504   1.912   1.740
  461SOL    HW1 1411   0.462   1.855   1.670
  461SOL    HW2 1412   0.438   1.981   1.772
  462SOL     OW 1413   0.573   2.732   1.029
  462SOL    HW1 1414   0.617   2.821   1.020
  462SOL    HW2 1415   0.510   2.732   1.106
  463SOL     OW 1416   1.360   2.724   1.045
  463SOL    HW1 1417   1.285   2.724   0.979
  463SOL    HW2 1418   1.397   2.632   1.054
  464SOL     OW 1419   1.209   2.387   0.275
  464SOL    HW1 1420   1.222   2.303   0.329
  464SOL    HW2 1421   1.180   2.461   0.335
  465SOL     OW 1422   0.307   2.075   1.231
  465SOL    HW1 1423   0.284   2.112   1.321
  465SOL    HW2 1424   0.277   1.980   1.225
  466SOL     OW 1425   0.037   3.172   1.282
  466SOL    HW1 1426   0.090   3.123   1.350
  466SOL    HW2 1427   0.059   3.270   1.287
  467SOL     OW 1428   0.732   2.496   1.064
  467SOL    HW1 1429   0.791   2.470   0.988
  467SOL    HW2 1430   0.704   2.592   1.053
  468SOL     OW 1431   1.728   2.797   1.854
  468SOL    HW1 1432   1.682   2.790   1.765
  468SOL    HW2 1433   1.666   2.841   1.920
  469SOL     OW 1434   0.307   1.925   0.618
  469SOL    HW1 1435   0.296   2.019   0.651
  469SOL    HW2 1436   0.302   1.862   0.695
  470SOL     OW 1437   1.622   2.229   0.374
  470SOL    HW1 1438   1.624   2.153   0.438
  470SOL    HW2 1439   1.574   2.306   0.414
  471SOL     OW 1440   1.023   2.628   0.966
  471SOL    HW1 1441   1.038   2.649   1.062
  471SOL    HW2 1442   0.993   2.533   0.957
  472SOL     OW 1443   1.859   3.380   1.605
  472SOL    HW1 1444   1.873   3.407   1.510
  472SOL    HW2 1445   1.942   3.402   1.658
  473SOL     OW 1446   0.350   2.760   1.804
  473SOL    HW1 1447   0.426   2.804   1.852
  473SOL    HW2 1448   0.385   2.713   1.722
  474SOL     OW 1449   1.540   2.136   0.125
  474SOL    HW1 1450   1.479   2.061   0.148
  474SOL    HW2 1451   1.562   2.188   0.208
  475SOL     OW 1452   1.303   2.700   0.042
  475SOL    HW1 1453   1.337   2.607   0.057
  475SOL    HW2 1454   1.321   2.727  -0.053
  476SOL     OW 1455   0.319   2.672   0.949
  476SOL    HW1 1456   0.412   2.708   0.954
  476SOL    HW2 1457   0.313   2.587   1.001
  477SOL     OW 1458   0.339   2.371   1.006
  477SOL    HW1 1459   0.287   2.288   0.989
  477SOL    HW2 1460   0.416   2.376   0.942
  478SOL     OW 1461   1.138   2.242   1.678
  478SOL    HW1 1462   1.093   2.305   1.742
  478SOL    HW2 1463   1.231   2.273   1.661
  479SOL     OW 1464   1.160   2.069   1.477
  479SOL    HW1 1465   1.160   2.133   1.554
  479SOL    HW2 1466   1.188   2.117   1.394
  480SOL     OW 1467   0.008   3.188   0.200
  480SOL    HW1 1468  -0.085   3.209   0.169
  480SOL    HW2 1469   0.018   3.089   0.213
  481SOL     OW 1470   1.002   2.658   1.238
  481SOL    HW1 1471   1.043   2.626   1.324
  481SOL    HW2 1472   0.906   2.631   1.235
  482SOL     OW 1473   0.040   2.406   1.114
  482SOL    HW1 1474   0.125   2.373   1.073
  482SOL    HW2 1475   0.053   2.421   1.212
  483SOL     OW 1476   0.189   2.382   1.722
  483SOL    HW1 1477   0.248   2.342   1.652
  483SOL    HW2 1478   0.131   2.453   1.681
  484SOL     OW 1479   1.369   2.812   1.660
  484SOL    HW1 1480   1.408   2.901   1.680
  484SOL    HW2 1481   1.379   2.792   1.563
  485SOL     OW 1482   0.815   2.434   0.325
  485SOL    HW1 1483   0.822   2.345   0.279
  485SOL    HW2 1484   0.721   2.468   0.317
  486SOL     OW 1485   1.657   2.466   1.206
  486SOL    HW1 1486   1.619   2.397   1.268
  486SOL    HW2 1487   1.739   2.430   1.162
  487SOL     OW 1488   0.671   2.326   1.269
  487SOL    HW1 1489   0.637   2.237   1.239
  487SOL    HW2 1490   0.697   2.380   1.189
  488SOL     OW 1491   0.473   2.362   0.191
  488SOL    HW1 1492   0.534   2.442   0.195
  488SOL    HW2 1493   0.378   2.393   0.198
  489SOL     OW 1494   0.159   2.999   1.466
  489SOL    HW1 1495   0.181   2.938   1.542
  489SOL    HW2 1496   0.169   2.950   1.380
  490SOL     OW 1497   1.347   2.921   1.234
  490SOL    HW1 1498   1.371   2.858   1.160
  490SOL    HW2 1499   1.257   2.961   1.216
  491SOL     OW 1500   1.302   2.717   0.309
  491SOL    HW1 1501   1.216   2.686   0.351
  491SOL    HW2 1502   1.298   2.703   0.210
  492SOL     OW 1503   0.083   3.120   1.022
  492SOL    HW1 1504   0.078   3.119   1.122
  492SOL    HW2 1505   0.000   3.079   0.984
  493SOL     OW 1506   0.903   1.948   0.133
  493SOL    HW1 1507   0.954   1.949   0.047
  493SOL    HW2 1508   0.959   1.906   0.204
  494SOL     OW 1509   1.726   1.997   0.523
  494SOL    HW1 1510   1.799   1.980   0.456
  494SOL    HW2 1511   1.695   1.910   0.561
  495SOL     OW 1512   1.280   2.789   0.672
  495SOL    HW1 1513   1.340   2.708   0.674
  495SOL    HW2 1514   1.320   2.858   0.612
  496SOL     OW 1515   0.830   3.135   1.422
  496SOL    HW1 1516   0.825   3.168   1.517
  496SOL    HW2 1517   0.744   3.154   1.376
  497SOL     OW 1518   1.841   2.037   0.963
  497SOL    HW1 1519   1.880   1.952   0.927
  497SOL    HW2 1520   1.743   2.039   0.944
  498SOL     OW 1521   0.263   2.188   0.720
  498SOL    HW1 1522   0.184   2.239   0.686
  498SOL    HW2 1523   0.254   2.173   0.818
  499SOL     OW 1524   0.822   2.864   1.372
  499SOL    HW1 1525   0.862   2.863   1.280
  499SOL    HW2 1526   0.832   2.956   1.412
  500SOL     OW 1527   0.916   2.772   0.291
  500SOL    HW1 1528   0.979   2.810   0.223
  500SOL    HW2 1529   0.956   2.689   0.330
  501SOL     OW 1530   0.372   3.150   1.490
  501SOL    HW1 1531   0.359   3.243   1.456
  501SOL    HW2 1532   0.288   3.098   1.477
  502SOL     OW 1533   1.614   3.154   1.289
  502SOL    HW1 1534   1.674   3.157   1.369
  502SOL    HW2 1535   1.539   3.218   1.302
  503SOL     OW 1536   1.039   2.960   0.696
  503SOL    HW1 1537   0.969   2.913   0.750
  503SOL    HW2 1538   1.098   2.892   0.653
  504SOL     OW 1539   1.014   2.098   0.971
  504SOL    HW1 1540   1.006   2.062   0.878
  504SOL    HW2 1541   1.012   2.022   1.036
  505SOL     OW 1542   1.709   2.247   1.381
  505SOL    HW1 1543   1.782   2.316   1.385
  505SOL    HW2 1544   1.737   2.172   1.322
  506SOL     OW 1545   0.105   2.875   1.726
  506SOL    HW1 1546   0.028   2.842   1.780
  506SOL    HW2 1547   0.190   2.845   1.768
  507SOL     OW 1548   0.672   2.065   1.489
  507SOL    HW1 1549   0.762   2.049   1.449
  507SOL    HW2 1550   0.680   2.070   1.588
  508SOL     OW 1551   0.075   2.207   0.033
  508SOL    HW1 1552  -0.017   2.179   0.004
  508SOL    HW2 1553   0.106   2.284  -0.023
  509SOL     OW 1554   1.440   2.718   1.398
  509SOL    HW1 1555   1.383   2.770   1.335
  509SOL    HW2 1556   1.536   2.730   1.374
  510SOL     OW 1557   0.072   2.028   0.318
  510SOL    HW1 1558   0.055   2.111   0.264
  510SOL    HW2 1559   0.162   1.991   0.296
  511SOL     OW 1560   0.613   2.704   1.431
  511SOL    HW1 1561   0.669   2.785   1.414
  511SOL    HW2 1562   0.672   2.624   1.434
  512SOL     OW 1563   0.716   2.427   1.708
  512SOL    HW1 1564   0.735   2.492   1.782
  512SOL    HW2 1565   0.776   2.347   1.717
  513SOL     OW 1566   1.450   3.082   1.633
  513SOL    HW1 1567   1.441   3.072   1.732
  513SOL    HW2 1568   1.546   3.075   1.607
  514SOL     OW 1569   1.674   2.745   1.254
  514SOL    HW1 1570   1.647   2.656   1.217
  514SOL    HW2 1571   1.675   2.813   1.181
  515SOL     OW 1572   1.225   2.187   0.449
  515SOL    HW1 1573   1.290   2.113   0.438
  515SOL    HW2 1574   1.245   2.237   0.533
  516SOL     OW 1575   0.594   2.607   0.652
  516SOL    HW1 1576   0.644   2.692   0.633
  516SOL    HW2 1577   0.506   2.609   0.604
  517SOL     OW 1578   1.777   2.204   1.642
  517SOL    HW1 1579   1.760   2.235   1.548
  517SOL    HW2 1580   1.693   2.167   1.680
  518SOL     OW 1581   1.730   2.796   1.517
  518SOL    HW1 1582   1.768   2.887   1.532
  518SOL    HW2 1583   1.722   2.779   1.418
  519SOL     OW 1584   0.859   2.818   0.861
  519SOL    HW1 1585   0.913   2.749   0.909
  519SOL    HW2 1586   0.827   2.887   0.927
  520SOL     OW 1587   1.083   2.846   0.087
  520SOL    HW1 1588   1.060   2.899   0.005
  520SOL    HW2 1589   1.164   2.790   0.068
  521SOL     OW 1590   0.221   3.176   1.844
  521SOL    HW1 1591   0.156   3.103   1.823
  521SOL    HW2 1592   0.225   3.190   1.942
  522SOL     OW 1593   0.079   3.102   0.653
  522SOL    HW1 1594   0.078   3.055   0.741
  522SOL    HW2 1595   0.161   3.074   0.602
  523SOL     OW 1596   0.672   3.253   1.624
  523SOL    HW1 1597   0.594   3.203   1.662
  523SOL    HW2 1598   0.669   3.348   1.655
  524SOL     OW 1599   1.824   2.054   1.227
  524SOL    HW1 1600   1.820   1.964   1.271
  524SOL    HW2 1601   1.827   2.043   1.128
  525SOL     OW 1602   0.428   2.286   0.520
  525SOL    HW1 1603   0.458   2.214   0.458
  525SOL    HW2 1604   0.389   2.246   0.603
  526SOL     OW 1605   1.705   3.349   1.104
  526SOL    HW1 1606   1.612   3.324   1.077
  526SOL    HW2 1607   1.731   3.299   1.186
  527SOL     OW 1608   0.317   2.409   1.280
  527SOL    HW1 1609   0.355   2.350   1.352
  527SOL    HW2 1610   0.357   2.383   1.192
  528SOL     OW 1611   1.424   2.076   1.112
  528SOL    HW1 1612   1.476   2.011   1.167
  528SOL    HW2 1613   1.375   2.139   1.173
  529SOL     OW 1614   1.001   1.896   1.154
  529SOL    HW1 1615   0.938   1.824   1.123
  529SOL    HW2 1616   1.094   1.860   1.154
  530SOL     OW 1617   0.770   3.192   0.301
  530SOL    HW1 1618   0.724   3.105   0.318
  530SOL    HW2 1619   0.861   3.189   0.342
  531SOL     OW 1620   1.352   1.914   0.168
  531SOL    HW1 1621   1.387   1.873   0.084
  531SOL    HW2 1622   1.262   1.876   0.188
  532SOL     OW 1623   1.300   2.315   0.691
  532SOL    HW1 1624   1.241   2.395   0.695
  532SOL    HW2 1625   1.315   2.280   0.784
  533SOL     OW 1626   1.593   2.083   0.882
  533SOL    HW1 1627   1.509   2.082   0.936
  533SOL    HW2 1628   1.595   2.166   0.826
  534SOL     OW 1629   0.039   2.939   0.300
  534SOL    HW1 1630   0.138   2.928   0.291
  534SOL    HW2 1631  -0.001   2.853   0.332
  535SOL     OW 1632   0.230   2.490   1.975
  535SOL    HW1 1633   0.137   2.488   2.012
  535SOL    HW2 1634   0.231   2.451   1.883
  536SOL     OW 1635   0.225   2.137   2.858
  536SOL    HW1 1636   0.260   2.120   2.950
  536SOL    HW2 1637   0.137   2.092   2.846
  537SOL     OW 1638   0.019   2.230   2.509
  537SOL    HW1 1639  -0.063   2.273   2.548
  537SOL    HW2 1640  -0.009   2.157   2.446
  538SOL     OW 1641   0.569   3.137   3.027
  538SOL    HW1 1642   0.476   3.130   2.990
  538SOL    HW2 1643   0.580   3.226   3.071
  539SOL     OW 1644   1.555   3.373   2.565
  539SOL    HW1 1645   1.498   3.357   2.646
  539SOL    HW2 1646   1.496   3.383   2.485
  540SOL     OW 1647   1.135   2.565   2.579
  540SOL    HW1 1648   1.192   2.643   2.554
  540SOL    HW2 1649   1.075   2.591   2.655
  541SOL     OW 1650   1.755   2.469   2.093
  541SOL    HW1 1651   1.743   2.456   1.994
  541SOL    HW2 1652   1.725   2.388   2.142
  542SOL     OW 1653   0.768   3.006   2.885
  542SOL    HW1 1654   0.690   3.023   2.945
  542SOL    HW2 1655   0.802   3.093   2.849
  543SOL     OW 1656   0.685   2.874   2.527
  543SOL    HW1 1657   0.754   2.858   2.597
  543SOL    HW2 1658   0.612   2.931   2.565
  544SOL     OW 1659   0.335   3.297   2.923
  544SOL    HW1 1660   0.257   3.266   2.870
  544SOL    HW2 1661   0.393   3.355   2.866
  545SOL     OW 1662   0.438   2.254   3.361
  545SOL    HW1 1663   0.520   2.198   3.370
  545SOL    HW2 1664   0.357   2.196   3.365
  546SOL     OW 1665   1.603   2.309   2.599
  546SOL    HW1 1666   1.529   2.355   2.549
  546SOL    HW2 1667   1.654   2.377   2.652
  547SOL     OW 1668   0.231   3.575   2.345
  547SOL    HW1 1669   0.265   3.652   2.399
  547SOL    HW2 1670   0.275   3.575   2.255
  548SOL     OW 1671   0.240   2.953   2.748
  548SOL    HW1 1672   0.254   2.869   2.800
  548SOL    HW2 1673   0.185   3.017   2.803
  549SOL     OW 1674   0.606   2.826   1.985
  549SOL    HW1 1675   0.613   2.910   1.931
  549SOL    HW2 1676   0.652   2.839   2.073
  550SOL     OW 1677   0.122   2.505   2.425
  550SOL    HW1 1678   0.077   2.417   2.442
  550SOL    HW2 1679   0.121   2.559   2.509
  551SOL     OW 1680   1.689   2.784   2.474
  551SOL    HW1 1681   1.784   2.755   2.482
  551SOL    HW2 1682   1.681   2.849   2.399
  552SOL     OW 1683   1.641   2.970   2.294
  552SOL    HW1 1684   1.727   2.972   2.242
  552SOL    HW2 1685   1.655   3.017   2.382
  553SOL     OW 1686   0.613   3.227   2.588
  553SOL    HW1 1687   0.564   3.140   2.597
  553SOL    HW2 1688   0.590   3.270   2.501
  554SOL     OW 1689   0.809   1.866   2.364
  554SOL    HW1 1690   0.849   1.957   2.355
  554SOL    HW2 1691   0.709   1.874   2.370
  555SOL     OW 1692   0.197   2.838   3.126
  555SOL    HW1 1693   0.286   2.793   3.112
  555SOL    HW2 1694   0.124   2.773   3.107
  556SOL     OW 1695   1.525   2.861   2.052
  556SOL    HW1 1696   1.462   2.785   2.065
  556SOL    HW2 1697   1.573   2.879   2.138
  557SOL     OW 1698   1.466   3.279   2.815
  557SOL    HW1 1699   1.407   3.285   2.895
  557SOL    HW2 1700   1.451   3.191   2.769
  558SOL     OW 1701   0.598   2.591   2.132
  558SOL    HW1 1702   0.622   2.660   2.064
  558SOL    HW2 1703   0.520   2.624   2.186
  559SOL     OW 1704   1.281   2.207   2.806
  559SOL    HW1 1705   1.195   2.157   2.793
  559SOL    HW2 1706   1.343   2.153   2.862
  560SOL     OW 1707   0.807   2.467   3.327
  560SOL    HW1 1708   0.760   2.464   3.416
  560SOL    HW2 1709   0.756   2.412   3.261
  561SOL     OW 1710   0.991   2.272   3.104
  561SOL    HW1 1711   0.914   2.306   3.158
  561SOL    HW2 1712   0.957   2.221   3.025
  562SOL     OW 1713   1.041   2.563   2.291
  562SOL    HW1 1714   1.067   2.559   2.387
  562SOL    HW2 1715   0.956   2.512   2.277
  563SOL     OW 1716   0.076   2.673   2.651
  563SOL    HW1 1717   0.175   2.661   2.660
  563SOL    HW2 1718   0.052   2.768   2.672
  564SOL     OW 1719   0.865   2.210   2.057
  564SOL    HW1 1720   0.924   2.273   2.008
  564SOL    HW2 1721   0.884   2.116   2.028
  565SOL     OW 1722   1.362   3.006   2.407
  565SOL    HW1 1723   1.445   2.977   2.359
  565SOL    HW2 1724   1.313   3.073   2.351
  566SOL     OW 1725   0.550   2.058   2.747
  566SOL    HW1 1726   0.545   2.053   2.847
  566SOL    HW2 1727   0.552   2.154   2.718
  567SOL     OW 1728   1.795   2.928   2.735
  567SOL    HW1 1729   1.733   2.913   2.659
  567SOL    HW2 1730   1.743   2.939   2.820
  568SOL     OW 1731   0.321   2.805   2.104
  568SOL    HW1 1732   0.403   2.844   2.062
  568SOL    HW2 1733   0.294   2.723   2.055
  569SOL     OW 1734   1.458   2.597   2.590
  569SOL    HW1 1735   1.453   2.532   2.665
  569SOL    HW2 1736   1.538   2.656   2.603
  570SOL     OW 1737   1.111   3.638   2.099
  570SOL    HW1 1738   1.051   3.576   2.149
  570SOL    HW2 1739   1.142   3.594   2.014
  571SOL     OW 1740   1.632   3.239   1.943
  571SOL    HW1 1741   1.600   3.333   1.933
  571SOL    HW2 1742   1.556   3.176   1.931
  572SOL     OW 1743   1.400   1.969   2.288
  572SOL    HW1 1744   1.376   1.932   2.198
  572SOL    HW2 1745   1.499   1.985   2.292
  573SOL     OW 1746   0.382   2.562   2.342
  573SOL    HW1 1747   0.427   2.472   2.339
  573SOL    HW2 1748   0.288   2.551   2.375
  574SOL     OW 1749   0.614   1.984   1.979
  574SOL    HW1 1750   0.712   1.962   1.986
  574SOL    HW2 1751   0.583   1.967   1.886
  575SOL     OW 1752   0.922   2.365   2.761
  575SOL    HW1 1753   0.897   2.356   2.665
  575SOL    HW2 1754   0.970   2.283   2.792
  576SOL     OW 1755   0.539   1.926   2.374
  576SOL    HW1 1756   0.458   1.927   2.432
  576SOL    HW2 1757   0.542   2.009   2.319
  577SOL     OW 1758   1.434   3.050   1.903
  577SOL    HW1 1759   1.466   2.974   1.960
  577SOL    HW2 1760   1.342   3.077   1.933
  578SOL     OW 1761   0.297   1.897   2.033
  578SOL    HW1 1762   0.346   1.981   2.012
  578SOL    HW2 1763   0.359   1.832   2.078
  579SOL     OW 1764   0.935   2.098   2.342
  579SOL    HW1 1765   0.887   2.139   2.264
  579SOL    HW2 1766   1.034   2.096   2.323
  580SOL     OW 1767   1.227   3.432   2.655
  580SOL    HW1 1768   1.248   3.506   2.590
  580SOL    HW2 1769   1.295   3.432   2.728
  581SOL     OW 1770   0.459   3.014   2.603
  581SOL    HW1 1771   0.388   2.987   2.668
  581SOL    HW2 1772   0.433   2.986   2.510
  582SOL     OW 1773   1.032   2.411   1.878
  582SOL    HW1 1774   0.991   2.493   1.839
  582SOL    HW2 1775   1.096   2.437   1.951
  583SOL     OW 1776   0.561   2.084   3.009
  583SOL    HW1 1777   0.599   2.000   3.046
  583SOL    HW2 1778   0.473   2.103   3.053
  584SOL     OW 1779   0.866   2.316   2.504
  584SOL    HW1 1780   0.834   2.388   2.442
  584SOL    HW2 1781   0.890   2.235   2.451
  585SOL     OW 1782   1.017   1.901   2.615
  585SOL    HW1 1783   0.945   1.906   2.546
  585SOL    HW2 1784   0.993   1.832   2.684
  586SOL     OW 1785   1.429   3.035   2.729
  586SOL    HW1 1786   1.374   2.951   2.722
  586SOL    HW2 1787   1.455   3.064   2.637
  587SOL     OW 1788   1.466   2.452   2.854
  587SOL    HW1 1789   1.436   2.357   2.861
  587SOL    HW2 1790   1.539   2.468   2.920
  588SOL     OW 1791   1.857   2.695   2.239
  588SOL    HW1 1792   1.899   2.631   2.303
  588SOL    HW2 1793   1.819   2.644   2.161
  589SOL     OW 1794   1.664   3.142   2.519
  589SOL    HW1 1795   1.763   3.150   2.533
  589SOL    HW2 1796   1.619   3.226   2.550
  590SOL     OW 1797   1.390   2.437   1.940
  590SOL    HW1 1798   1.336   2.416   2.021
  590SOL    HW2 1799   1.481   2.396   1.949
  591SOL     OW 1800   0.527   2.118   2.190
  591SOL    HW1 1801   0.554   2.059   2.115
  591SOL    HW2 1802   0.527   2.213   2.159
  592SOL     OW 1803   1.754   3.085   3.450
  592SOL    HW1 1804   1.845   3.046   3.437
  592SOL    HW2 1805   1.762   3.181   3.474
  593SOL     OW 1806   1.064   3.209   3.202
  593SOL    HW1 1807   0.984   3.186   3.257
  593SOL    HW2 1808   1.147   3.183   3.251
  594SOL     OW 1809   1.111   3.057   2.962
  594SOL    HW1 1810   1.071   3.101   3.043
  594SOL    HW2 1811   1.070   3.094   2.879
  595SOL     OW 1812   1.638   2.961   2.941
  595SOL    HW1 1813   1.643   3.042   3.000
  595SOL    HW2 1814   1.552   2.963   2.890
  596SOL     OW 1815   0.705   2.912   2.230
  596SOL    HW1 1816   0.691   2.919   2.329
  596SOL    HW2 1817   0.789   2.861   2.212
  597SOL     OW 1818   0.410   2.675   3.113
  597SOL    HW1 1819   0.496   2.687   3.163
  597SOL    HW2 1820   0.368   2.588   3.140
  598SOL     OW 1821   1.274   2.248   3.124
  598SOL    HW1 1822   1.295   2.322   3.188
  598SOL    HW2 1823   1.185   2.265   3.081
  599SOL     OW 1824   0.064   3.426   3.193
  599SOL    HW1 1825   0.018   3.508   3.159
  599SOL    HW2 1826   0.162   3.445   3.202
  600SOL     OW 1827   0.367   2.962   2.363
  600SOL    HW1 1828   0.360   3.045   2.307
  600SOL    HW2 1829   0.371   2.882   2.303
  601SOL     OW 1830   0.566   2.399   2.727
  601SOL    HW1 1831   0.578   2.465   2.653
  601SOL    HW2 1832   0.612   2.433   2.810
  602SOL     OW 1833   1.252   3.210   2.250
  602SOL    HW1 1834   1.302   3.287   2.290
  602SOL    HW2 1835   1.157   3.212   2.282
  603SOL     OW 1836   1.272   3.307   3.004
  603SOL    HW1 1837   1.319   3.320   3.091
  603SOL    HW2 1838   1.206   3.233   3.013
  604SOL     OW 1839   1.582   2.501   2.334
  604SOL    HW1 1840   1.551   2.562   2.407
  604SOL    HW2 1841   1.632   2.553   2.265
  605SOL     OW 1842   0.504   1.912   3.602
  605SOL    HW1 1843   0.462   1.855   3.532
  605SOL    HW2 1844   0.438   1.981   3.634
  606SOL     OW 1845   0.573   2.732   2.891
  606SOL    HW1 1846   0.617   2.821   2.882
  606SOL    HW2 1847   0.510   2.732   2.968
  607SOL     OW 1848   1.360   2.724   2.907
  607SOL    HW1 1849   1.285   2.724   2.841
  607SOL    HW2 1850   1.397   2.632   2.916
  608SOL     OW 1851   1.209   2.387   2.137
  608SOL    HW1 1852   1.222   2.303   2.191
  608SOL    HW2 1853   1.180   2.461   2.197
  609SOL     OW 1854   0.307   2.075   3.093
  609SOL    HW1 1855   0.284   2.112   3.183
  609SOL    HW2 1856   0.277   1.980   3.087
  610SOL     OW 1857   0.037   3.172   3.144
  610SOL    HW1 1858   0.090   3.123   3.212
  610SOL    HW2 1859   0.059   3.270   3.149
  611SOL     OW 1860   0.732   2.496   2.926
  611SOL    HW1 1861   0.791   2.470   2.850
  611SOL    HW2 1862   0.704   2.592   2.915
  612SOL     OW 1863   0.307   1.925   2.480
  612SOL    HW1 1864   0.296   2.019   2.513
  612SOL    HW2 1865   0.302   1.862   2.557
  613SOL     OW 1866   1.622   2.229   2.236
  613SOL    HW1 1867   1.624   2.153   2.300
  613SOL    HW2 1868   1.574   2.306   2.276
  614SOL     OW 1869   1.023   2.628   2.828
  614SOL    HW1 1870   1.038   2.649   2.924
  614SOL    HW2 1871   0.993   2.533   2.819
  615SOL     OW 1872   1.540   2.136   1.987
  615SOL    HW1 1873   1.479   2.061   2.010
  615SOL    HW2 1874   1.562   2.188   2.070
  616SOL     OW 1875   1.303   2.700   1.904
  616SOL    HW1 1876   1.337   2.607   1.919
  616SOL    HW2 1877   1.321   2.727   1.809
  617SOL     OW 1878   0.319   2.672   2.811
  617SOL    HW1 1879   0.412   2.708   2.816
  617SOL    HW2 1880   0.313   2.587   2.863
  618SOL     OW 1881   0.339   2.371   2.868
  618SOL    HW1 1882   0.287   2.288   2.851
  618SOL    HW2 1883   0.416   2.376   2.804
  619SOL     OW 1884   1.160   2.069   3.339
  619SOL    HW1 1885   1.160   2.133   3.416
  619SOL    HW2 1886   1.188   2.117   3.256
  620SOL     OW 1887   0.008   3.188   2.062
  620SOL    HW1 1888  -0.085   3.209   2.031
  620SOL    HW2 1889   0.018   3.089   2.075
  621SOL     OW 1890   1.002   2.658   3.100
  621SOL    HW1 1891   1.043   2.626   3.186
  621SOL    HW2 1892   0.906   2.631   3.097
  622SOL     OW 1893   0.040   2.406   2.976
  622SOL    HW1 1894   0.125   2.373   2.935
  622SOL    HW2 1895   0.053   2.421   3.074
  623SOL     OW 1896   0.815   2.434   2.187
  623SOL    HW1 1897   0.822   2.345   2.141
  623SOL    HW2 1898   0.721   2.468   2.179
  624SOL     OW 1899   1.657   2.466   3.068
  624SOL    HW1 1900   1.619   2.397   3.130
  624SOL    HW2 1901   1.739   2.430   3.024
  625SOL     OW 1902   0.671   2.326   3.131
  625SOL    HW1 1903   0.637   2.237   3.101
  625SOL    HW2 1904   0.697   2.380   3.051
  626SOL     OW 1905   0.473   2.362   2.053
  626SOL    HW1 1906   0.534   2.442   2.057
  626SOL    HW2 1907   0.378   2.393   2.060
  627SOL     OW 1908   0.159   2.999   3.328
  627SOL    HW1 1909   0.181   2.938   3.404
  627SOL    HW2 1910   0.169   2.950   3.242
  628SOL     OW 1911   1.347   2.921   3.096
  628SOL    HW1 1912   1.371   2.858   3.022
  628SOL    HW2 1913   1.257   2.961   3.078
  629SOL     OW 1914   1.302   2.717   2.171
  629SOL    HW1 1915   1.216   2.686   2.213
  629SOL    HW2 1916   1.298   2.703   2.072
  630SOL     OW 1917   0.083   3.120   2.884
  630SOL    HW1 1918   0.078   3.119   2.984
  630SOL    HW2 1919   0.000   3.079   2.846
  631SOL     OW 1920   1.726   1.997   2.385
  631SOL    HW1 1921   1.799   1.980   2.318
  631SOL    HW2 1922   1.695   1.910   2.423
  632SOL     OW 1923   1.280   2.789   2.534
  632SOL    HW1 1924   1.340   2.708   2.536
  632SOL    HW2 1925   1.320   2.858   2.474
  633SOL     OW 1926   0.830   3.135   3.284
  633SOL    HW1 1927   0.825   3.168   3.379
  633SOL    HW2 1928   0.744   3.154   3.238
  634SOL     OW 1929   1.841   2.037   2.825
  634SOL    HW1 1930   1.880   1.952   2.789
  634SOL    HW2 1931   1.743   2.039   2.806
  635SOL     OW 1932   0.263   2.188   2.582
  635SOL    HW1 1933   0.184   2.239   2.548
  635SOL    HW2 1934   0.254   2.173   2.680
  636SOL     OW 1935   0.822   2.864   3.234
  636SOL    HW1 1936   0.862   2.863   3.142
  636SOL    HW2 1937   0.832   2.956   3.274
  637SOL     OW 1938   0.916   2.772   2.153
  637SOL    HW1 1939   0.979   2.810   2.085
  637SOL    HW2 1940   0.956   2.689   2.192
  638SOL     OW 1941   0.372   3.150   3.352
  638SOL    HW1 1942   0.359   3.243   3.318
  638SOL    HW2 1943   0.288   3.098   3.339
  639SOL     OW 1944   1.614   3.154   3.151
  639SOL    HW1 1945   1.674   3.157   3.231
  639SOL    HW2 1946   1.539   3.218   3.164
  640SOL     OW 1947   1.039   2.960   2.558
  640SOL    HW1 1948   0.969   2.913   2.612
  640SOL    HW2 1949   1.098   2.892   2.515
  641SOL     OW 1950   1.014   2.098   2.833
  641SOL    HW1 1951   1.006   2.062   2.740
  641SOL    HW2 1952   1.012   2.022   2.898
  642SOL     OW 1953   1.709   2.247   3.243
  642SOL    HW1 1954   1.782   2.316   3.247
  642SOL    HW2 1955   1.737   2.172   3.184
  643SOL     OW 1956   0.672   2.065   3.351
  643SOL    HW1 1957   0.762   2.049   3.311
  643SOL    HW2 1958   0.680   2.070   3.450
  644SOL     OW 1959   0.075   2.207   1.895
  644SOL    HW1 1960  -0.017   2.179   1.866
  644SOL    HW2 1961   0.106   2.284   1.839
  645SOL     OW 1962   0.072   2.028   2.180
  645SOL    HW1 1963   0.055   2.111   2.126
  645SOL    HW2 1964   0.162   1.991   2.158
  646SOL     OW 1965   0.613   2.704   3.293
  646SOL    HW1 1966   0.669   2.785   3.276
  646SOL    HW2 1967   0.672   2.624   3.296
  647SOL     OW 1968   1.674   2.745   3.116
  647SOL    HW1 1969   1.647   2.656   3.079
  647SOL    HW2 1970   1.675   2.813   3.043
  648SOL     OW 1971   1.225   2.187   2.311
  648SOL    HW1 1972   1.290   2.113   2.300
  648SOL    HW2 1973   1.245   2.237   2.395
  649SOL     OW 1974   0.594   2.607   2.514
  649SOL    HW1 1975   0.644   2.692   2.495
  649SOL    HW2 1976   0.506   2.609   2.466
  650SOL     OW 1977   1.730   2.796   3.379
  650SOL    HW1 1978   1.768   2.887   3.394
  650SOL    HW2 1979   1.722   2.779   3.280
  651SOL     OW 1980   0.859   3.236   1.878
  651SOL    HW1 1981   0.813   3.251   1.966
  651SOL    HW2 1982   0.903   3.321   1.848
  652SOL     OW 1983   0.859   2.818   2.723
  652SOL    HW1 1984   0.913   2.749   2.771
  652SOL    HW2 1985   0.827   2.887   2.789
  653SOL     OW 1986   1.083   2.846   1.949
  653SOL    HW1 1987   1.060   2.899   1.867
  653SOL    HW2 1988   1.164   2.790   1.930
  654SOL     OW 1989   0.079   3.102   2.515
  654SOL    HW1 1990   0.078   3.055   2.603
  654SOL    HW2 1991   0.161   3.074   2.464
  655SOL     OW 1992   1.824   2.054   3.089
  655SOL    HW1 1993   1.820   1.964   3.133
  655SOL    HW2 1994   1.827   2.043   2.990
  656SOL     OW 1995   0.428   2.286   2.382
  656SOL    HW1 1996   0.458   2.214   2.320
  656SOL    HW2 1997   0.389   2.246   2.465
  657SOL     OW 1998   1.705   3.349   2.966
  657SOL    HW1 1999   1.612   3.324   2.939
  657SOL    HW2 2000   1.731   3.299   3.048
  658SOL     OW 2001   0.317   2.409   3.142
  658SOL    HW1 2002   0.355   2.350   3.214
  658SOL    HW2 2003   0.357   2.383   3.054
  659SOL     OW 2004   1.424   2.076   2.974
  659SOL    HW1 2005   1.476   2.011   3.029
  659SOL    HW2 2006   1.375   2.139   3.035
  660SOL     OW 2007   1.001   1.896   3.016
  660SOL    HW1 2008   0.938   1.824   2.985
  660SOL    HW2 2009   1.094   1.860   3.016
  661SOL     OW 2010   0.770   3.192   2.163
  661SOL    HW1 2011   0.724   3.105   2.180
  661SOL    HW2 2012   0.861   3.189   2.204
  662SOL     OW 2013   1.352   1.914   2.030
  662SOL    HW1 2014   1.387   1.873   1.946
  662SOL    HW2 2015   1.262   1.876   2.050
  663SOL     OW 2016   1.300   2.315   2.553
  663SOL    HW1 2017   1.241   2.395   2.557
  663SOL    HW2 2018   1.315   2.280   2.646
  664SOL     OW 2019   1.593   2.083   2.744
  664SOL    HW1 2020   1.509   2.082   2.798
  664SOL    HW2 2021   1.595   2.166   2.688
  665SOL     OW 2022   0.039   2.939   2.162
  665SOL    HW1 2023   0.138   2.928   2.153
  665SOL    HW2 2024  -0.001   2.853   2.194
  666SOL     OW 2025   2.092   0.628   0.113
  666SOL    HW1 2026   1.999   0.626   0.150
  666SOL    HW2 2027   2.093   0.589   0.021
  667SOL     OW 2028   2.087   0.275   0.996
  667SOL    HW1 2029   2.122   0.258   1.088
  667SOL    HW2 2030   1.999   0.230   0.984
  668SOL     OW 2031   1.881   0.368   0.647
  668SOL    HW1 2032   1.799   0.411   0.686
  668SOL    HW2 2033   1.853   0.295   0.584
  669SOL     OW 2034   2.431   1.275   1.165
  669SOL    HW1 2035   2.338   1.268   1.128
  669SOL    HW2 2036   2.442   1.364   1.209
  670SOL     OW 2037   3.417   1.511   0.703
  670SOL    HW1 2038   3.360   1.495   0.784
  670SOL    HW2 2039   3.358   1.521   0.623
  671SOL     OW 2040   2.997   0.703   0.717
  671SOL    HW1 2041   3.054   0.781   0.692
  671SOL    HW2 2042   2.937   0.729   0.793
  672SOL     OW 2043   2.630   1.144   1.023
  672SOL    HW1 2044   2.552   1.161   1.083
  672SOL    HW2 2045   2.664   1.231   0.987
  673SOL     OW 2046   2.712   0.798   1.823
  673SOL    HW1 2047   2.708   0.874   1.888
  673SOL    HW2 2048   2.734   0.834   1.732
  674SOL     OW 2049   2.547   1.012   0.665
  674SOL    HW1 2050   2.616   0.996   0.735
  674SOL    HW2 2051   2.474   1.069   0.703
  675SOL     OW 2052   2.548   1.161   1.803
  675SOL    HW1 2053   2.608   1.240   1.817
  675SOL    HW2 2054   2.462   1.192   1.762
  676SOL     OW 2055   2.197   1.435   1.061
  676SOL    HW1 2056   2.119   1.404   1.008
  676SOL    HW2 2057   2.255   1.493   1.004
  677SOL     OW 2058   2.300   0.392   1.499
  677SOL    HW1 2059   2.382   0.336   1.508
  677SOL    HW2 2060   2.219   0.334   1.503
  678SOL     OW 2061   2.093   1.713   0.483
  678SOL    HW1 2062   2.127   1.790   0.537
  678SOL    HW2 2063   2.137   1.713   0.393
  679SOL     OW 2064   2.989   1.341   1.690
  679SOL    HW1 2065   3.036   1.341   1.778
  679SOL    HW2 2066   2.941   1.254   1.679
  680SOL     OW 2067   2.092   1.434   0.538
  680SOL    HW1 2068   2.066   1.530   0.538
  680SOL    HW2 2069   2.021   1.380   0.583
  681SOL     OW 2070   2.102   1.091   0.886
  681SOL    HW1 2071   2.116   1.007   0.938
  681SOL    HW2 2072   2.047   1.155   0.941
  682SOL     OW 2073   2.482   1.786   1.439
  682SOL    HW1 2074   2.390   1.769   1.474
  682SOL    HW2 2075   2.510   1.878   1.465
  683SOL     OW 2076   2.468   0.964   0.123
  683SOL    HW1 2077   2.475   1.048   0.069
  683SOL    HW2 2078   2.514   0.977   0.211
  684SOL     OW 2079   1.984   0.643   0.563
  684SOL    HW1 2080   1.939   0.555   0.580
  684SOL    HW2 2081   1.983   0.697   0.647
  685SOL     OW 2082   1.889   1.596   0.117
  685SOL    HW1 2083   1.870   1.500   0.138
  685SOL    HW2 2084   1.856   1.654   0.192
  686SOL     OW 2085   3.551   0.922   0.612
  686SOL    HW1 2086   3.646   0.893   0.620
  686SOL    HW2 2087   3.543   0.987   0.537
  687SOL     OW 2088   1.975   0.737   1.597
  687SOL    HW1 2089   2.063   0.724   1.642
  687SOL    HW2 2090   1.962   0.834   1.575
  688SOL     OW 2091   2.475   1.365   0.726
  688SOL    HW1 2092   2.426   1.278   0.735
  688SOL    HW2 2093   2.452   1.408   0.639
  689SOL     OW 2094   3.155   1.228   1.423
  689SOL    HW1 2095   3.192   1.155   1.365
  689SOL    HW2 2096   3.207   1.233   1.508
  690SOL     OW 2097   2.671   0.004   0.502
  690SOL    HW1 2098   2.711   0.095   0.493
  690SOL    HW2 2099   2.571   0.012   0.508
  691SOL     OW 2100   2.059   0.976   1.264
  691SOL    HW1 2101   2.148   0.931   1.250
  691SOL    HW2 2102   1.986   0.911   1.245
  692SOL     OW 2103   3.049   1.792   1.616
  692SOL    HW1 2104   3.073   1.852   1.540
  692SOL    HW2 2105   3.056   1.697   1.586
  693SOL     OW 2106   2.179   0.251   1.801
  693SOL    HW1 2107   2.250   0.322   1.807
  693SOL    HW2 2108   2.091   0.290   1.829
  694SOL     OW 2109   2.460   0.729   0.270
  694SOL    HW1 2110   2.484   0.798   0.202
  694SOL    HW2 2111   2.382   0.762   0.324
  695SOL     OW 2112   3.143   0.345   0.944
  695SOL    HW1 2113   3.057   0.295   0.931
  695SOL    HW2 2114   3.205   0.291   1.000
  696SOL     OW 2115   2.669   0.605   1.465
  696SOL    HW1 2116   2.622   0.602   1.554
  696SOL    HW2 2117   2.618   0.550   1.399
  697SOL     OW 2118   3.256   0.469   1.674
  697SOL    HW1 2119   3.236   0.512   1.762
  697SOL    HW2 2120   3.334   0.407   1.683
  698SOL     OW 2121   2.835   0.890   1.572
  698SOL    HW1 2122   2.881   0.806   1.543
  698SOL    HW2 2123   2.779   0.924   1.497
  699SOL     OW 2124   2.853   0.410   1.242
  699SOL    HW1 2125   2.776   0.444   1.296
  699SOL    HW2 2126   2.819   0.359   1.163
  700SOL     OW 2127   2.903   0.701   0.429
  700SOL    HW1 2128   2.929   0.697   0.525
  700SOL    HW2 2129   2.818   0.650   0.415
  701SOL     OW 2130   1.938   0.811   0.789
  701SOL    HW1 2131   2.037   0.799   0.798
  701SOL    HW2 2132   1.914   0.906   0.810
  702SOL     OW 2133   2.727   0.348   0.195
  702SOL    HW1 2134   2.786   0.411   0.146
  702SOL    HW2 2135   2.746   0.254   0.166
  703SOL     OW 2136   3.224   1.144   0.545
  703SOL    HW1 2137   3.307   1.115   0.497
  703SOL    HW2 2138   3.175   1.211   0.489
  704SOL     OW 2139   2.412   0.196   0.885
  704SOL    HW1 2140   2.407   0.191   0.985
  704SOL    HW2 2141   2.414   0.292   0.856
  705SOL     OW 2142   2.870   1.456   0.477
  705SOL    HW1 2143   2.824   1.528   0.425
  705SOL    HW2 2144   2.866   1.476   0.575
  706SOL     OW 2145   2.213   1.801   0.853
  706SOL    HW1 2146   2.263   1.715   0.859
  706SOL    HW2 2147   2.278   1.878   0.850
  707SOL     OW 2148   3.089   1.550   1.506
  707SOL    HW1 2149   3.095   1.473   1.570
  707SOL    HW2 2150   3.037   1.524   1.426
  708SOL     OW 2151   2.183   0.943   0.242
  708SOL    HW1 2152   2.265   0.982   0.200
  708SOL    HW2 2153   2.156   0.861   0.193
  709SOL     OW 2154   2.323   1.266   1.727
  709SOL    HW1 2155   2.273   1.267   1.641
  709SOL    HW2 2156   2.260   1.248   1.803
  710SOL     OW 2157   2.973   1.776   0.237
  710SOL    HW1 2158   2.913   1.714   0.287
  710SOL    HW2 2159   3.004   1.732   0.152
  711SOL     OW 2160   2.064   0.285   1.498
  711SOL    HW1 2161   1.984   0.345   1.485
  711SOL    HW2 2162   2.054   0.236   1.584
  712SOL     OW 2163   3.494   1.377   0.081
  712SOL    HW1 2164   3.462   1.471   0.071
  712SOL    HW2 2165   3.418   1.314   0.069
  713SOL     OW 2166   2.326   1.743   0.323
  713SOL    HW1 2167   2.359   1.782   0.409
  713SOL    HW2 2168   2.402   1.736   0.258
  714SOL     OW 2169   2.111   1.785   1.241
  714SOL    HW1 2170   2.168   1.720   1.291
  714SOL    HW2 2171   2.095   1.752   1.148
  715SOL     OW 2172   2.802   1.698   0.904
  715SOL    HW1 2173   2.882   1.641   0.925
  715SOL    HW2 2174   2.753   1.658   0.827
  716SOL     OW 2175   2.244   0.700   0.480
  716SOL    HW1 2176   2.289   0.610   0.477
  716SOL    HW2 2177   2.150   0.689   0.513
  717SOL     OW 2178   2.476   0.122   0.117
  717SOL    HW1 2179   2.574   0.100   0.124
  717SOL    HW2 2180   2.445   0.105   0.024
  718SOL     OW 2181   2.643   0.264   1.749
  718SOL    HW1 2182   2.710   0.203   1.792
  718SOL    HW2 2183   2.570   0.283   1.814
  719SOL     OW 2184   2.750   1.514   1.195
  719SOL    HW1 2185   2.727   1.489   1.101
  719SOL    HW2 2186   2.811   1.445   1.234
  720SOL     OW 2187   3.213   0.590   1.433
  720SOL    HW1 2188   3.241   0.547   1.518
  720SOL    HW2 2189   3.238   0.686   1.434
  721SOL     OW 2190   2.665   1.402   0.924
  721SOL    HW1 2191   2.755   1.416   0.882
  721SOL    HW2 2192   2.594   1.404   0.853
  722SOL     OW 2193   2.784   0.503   0.899
  722SOL    HW1 2194   2.759   0.494   0.803
  722SOL    HW2 2195   2.832   0.421   0.930
  723SOL     OW 2196   2.401   0.064   0.512
  723SOL    HW1 2197   2.320   0.065   0.570
  723SOL    HW2 2198   2.404   0.147   0.457
  724SOL     OW 2199   3.296   1.188   0.041
  724SOL    HW1 2200   3.328   1.112   0.098
  724SOL    HW2 2201   3.204   1.215   0.071
  725SOL     OW 2202   2.159   0.035   0.171
  725SOL    HW1 2203   2.208   0.119   0.150
  725SOL    HW2 2204   2.221  -0.030   0.216
  726SOL     OW 2205   2.797   0.236   0.480
  726SOL    HW1 2206   2.749   0.277   0.402
  726SOL    HW2 2207   2.896   0.234   0.461
  727SOL     OW 2208   2.938   0.683   1.464
  727SOL    HW1 2209   2.858   0.622   1.467
  727SOL    HW2 2210   3.019   0.630   1.440
  728SOL     OW 2211   3.089   1.570   0.793
  728SOL    HW1 2212   3.110   1.644   0.728
  728SOL    HW2 2213   3.157   1.570   0.866
  729SOL     OW 2214   2.321   1.152   0.741
  729SOL    HW1 2215   2.250   1.125   0.806
  729SOL    HW2 2216   2.295   1.124   0.648
  730SOL     OW 2217   3.133   1.797   0.591
  730SOL    HW1 2218   3.177   1.861   0.527
  730SOL    HW2 2219   3.083   1.849   0.661
  731SOL     OW 2220   2.894   0.549   0.016
  731SOL    HW1 2221   2.853   0.631  -0.023
  731SOL    HW2 2222   2.958   0.575   0.089
  732SOL     OW 2223   1.940   0.556   1.386
  732SOL    HW1 2224   2.032   0.555   1.345
  732SOL    HW2 2225   1.934   0.630   1.453
  733SOL     OW 2226   2.423   0.222   1.147
  733SOL    HW1 2227   2.461   0.138   1.184
  733SOL    HW2 2228   2.335   0.241   1.191
  734SOL     OW 2229   2.728   0.454   0.642
  734SOL    HW1 2230   2.696   0.526   0.580
  734SOL    HW2 2231   2.752   0.373   0.589
  735SOL     OW 2232   2.879   0.039   0.753
  735SOL    HW1 2233   2.807   0.044   0.684
  735SOL    HW2 2234   2.855  -0.030   0.822
  736SOL     OW 2235   2.350   1.385   0.174
  736SOL    HW1 2236   2.263   1.370   0.221
  736SOL    HW2 2237   2.333   1.411   0.079
  737SOL     OW 2238   3.252   0.575   0.078
  737SOL    HW1 2239   3.198   0.554   0.159
  737SOL    HW2 2240   3.343   0.534   0.087
  738SOL     OW 2241   2.389   0.256   0.328
  738SOL    HW1 2242   2.416   0.197   0.253
  738SOL    HW2 2243   2.389   0.351   0.297
  739SOL     OW 2244   2.926   1.347   1.340
  739SOL    HW1 2245   2.846   1.324   1.395
  739SOL    HW2 2246   3.009   1.321   1.389
  740SOL     OW 2247   2.973   1.195   1.100
  740SOL    HW1 2248   2.933   1.239   1.181
  740SOL    HW2 2249   2.932   1.232   1.017
  741SOL     OW 2250   2.777   0.089   1.402
  741SOL    HW1 2251   2.802   0.069   1.307
  741SOL    HW2 2252   2.849   0.145   1.444
  742SOL     OW 2253   2.842   1.116   1.719
  742SOL    HW1 2254   2.743   1.122   1.729
  742SOL    HW2 2255   2.865   1.036   1.663
  743SOL     OW 2256   2.567   1.050   0.368
  743SOL    HW1 2257   2.553   1.057   0.467
  743SOL    HW2 2258   2.651   0.999   0.350
  744SOL     OW 2259   2.272   0.813   1.251
  744SOL    HW1 2260   2.358   0.825   1.301
  744SOL    HW2 2261   2.230   0.726   1.278
  745SOL     OW 2262   3.136   0.386   1.262
  745SOL    HW1 2263   3.157   0.460   1.326
  745SOL    HW2 2264   3.047   0.403   1.219
  746SOL     OW 2265   1.926   1.564   1.331
  746SOL    HW1 2266   1.880   1.646   1.297
  746SOL    HW2 2267   2.024   1.583   1.340
  747SOL     OW 2268   2.229   1.100   0.501
  747SOL    HW1 2269   2.222   1.183   0.445
  747SOL    HW2 2270   2.233   1.020   0.441
  748SOL     OW 2271   2.428   0.537   0.865
  748SOL    HW1 2272   2.440   0.603   0.791
  748SOL    HW2 2273   2.474   0.571   0.948
  749SOL     OW 2274   3.114   1.348   0.388
  749SOL    HW1 2275   3.164   1.425   0.428
  749SOL    HW2 2276   3.019   1.350   0.420
  750SOL     OW 2277   3.134   1.445   1.142
  750SOL    HW1 2278   3.181   1.458   1.229
  750SOL    HW2 2279   3.068   1.371   1.151
  751SOL     OW 2280   2.216   1.510   1.329
  751SOL    HW1 2281   2.195   1.466   1.242
  751SOL    HW2 2282   2.313   1.536   1.332
  752SOL     OW 2283   2.264   0.751   1.598
  752SOL    HW1 2284   2.332   0.806   1.551
  752SOL    HW2 2285   2.304   0.663   1.625
  753SOL     OW 2286   2.875   0.105   1.770
  753SOL    HW1 2287   2.881   0.190   1.718
  753SOL    HW2 2288   2.907   0.029   1.713
  754SOL     OW 2289   2.366   0.050   1.740
  754SOL    HW1 2290   2.324  -0.007   1.670
  754SOL    HW2 2291   2.300   0.119   1.772
  755SOL     OW 2292   2.435   0.870   1.029
  755SOL    HW1 2293   2.479   0.959   1.020
  755SOL    HW2 2294   2.372   0.870   1.106
  756SOL     OW 2295   3.222   0.862   1.045
  756SOL    HW1 2296   3.147   0.862   0.979
  756SOL    HW2 2297   3.259   0.770   1.054
  757SOL     OW 2298   3.071   0.525   0.275
  757SOL    HW1 2299   3.084   0.441   0.329
  757SOL    HW2 2300   3.042   0.599   0.335
  758SOL     OW 2301   2.169   0.213   1.231
  758SOL    HW1 2302   2.146   0.250   1.321
  758SOL    HW2 2303   2.139   0.118   1.225
  759SOL     OW 2304   1.899   1.310   1.282
  759SOL    HW1 2305   1.952   1.261   1.350
  759SOL    HW2 2306   1.921   1.408   1.287
  760SOL     OW 2307   2.594   0.634   1.064
  760SOL    HW1 2308   2.653   0.608   0.988
  760SOL    HW2 2309   2.566   0.730   1.053
  761SOL     OW 2310   2.169   0.063   0.618
  761SOL    HW1 2311   2.158   0.157   0.651
  761SOL    HW2 2312   2.164   0.000   0.695
  762SOL     OW 2313   2.885   0.766   0.966
  762SOL    HW1 2314   2.900   0.787   1.062
  762SOL    HW2 2315   2.855   0.671   0.957
  763SOL     OW 2316   2.842   1.573   1.700
  763SOL    HW1 2317   2.822   1.617   1.612
  763SOL    HW2 2318   2.881   1.482   1.684
  764SOL     OW 2319   2.212   0.898   1.804
  764SOL    HW1 2320   2.288   0.942   1.852
  764SOL    HW2 2321   2.247   0.851   1.722
  765SOL     OW 2322   3.165   0.838   0.042
  765SOL    HW1 2323   3.199   0.745   0.057
  765SOL    HW2 2324   3.183   0.865  -0.053
  766SOL     OW 2325   2.930   1.333   0.849
  766SOL    HW1 2326   2.937   1.249   0.794
  766SOL    HW2 2327   2.992   1.402   0.813
  767SOL     OW 2328   2.181   0.810   0.949
  767SOL    HW1 2329   2.274   0.846   0.954
  767SOL    HW2 2330   2.175   0.725   1.001
  768SOL     OW 2331   2.201   0.509   1.006
  768SOL    HW1 2332   2.149   0.426   0.989
  768SOL    HW2 2333   2.278   0.514   0.942
  769SOL     OW 2334   3.000   0.380   1.678
  769SOL    HW1 2335   2.955   0.443   1.742
  769SOL    HW2 2336   3.093   0.411   1.661
  770SOL     OW 2337   3.022   0.207   1.477
  770SOL    HW1 2338   3.022   0.271   1.554
  770SOL    HW2 2339   3.050   0.255   1.394
  771SOL     OW 2340   1.950   1.801   0.927
  771SOL    HW1 2341   1.908   1.715   0.900
  771SOL    HW2 2342   2.044   1.804   0.893
  772SOL     OW 2343   2.366   1.568   0.910
  772SOL    HW1 2344   2.432   1.642   0.919
  772SOL    HW2 2345   2.410   1.489   0.868
  773SOL     OW 2346   2.864   0.796   1.238
  773SOL    HW1 2347   2.905   0.764   1.324
  773SOL    HW2 2348   2.768   0.769   1.235
  774SOL     OW 2349   1.902   0.544   1.114
  774SOL    HW1 2350   1.987   0.511   1.073
  774SOL    HW2 2351   1.915   0.559   1.212
  775SOL     OW 2352   2.051   0.520   1.722
  775SOL    HW1 2353   2.110   0.480   1.652
  775SOL    HW2 2354   1.993   0.591   1.681
  776SOL     OW 2355   3.231   0.950   1.660
  776SOL    HW1 2356   3.270   1.039   1.680
  776SOL    HW2 2357   3.241   0.930   1.563
  777SOL     OW 2358   2.677   0.572   0.325
  777SOL    HW1 2359   2.684   0.483   0.279
  777SOL    HW2 2360   2.583   0.606   0.317
  778SOL     OW 2361   2.114   1.564   1.744
  778SOL    HW1 2362   2.084   1.621   1.820
  778SOL    HW2 2363   2.107   1.467   1.770
  779SOL     OW 2364   2.533   0.464   1.269
  779SOL    HW1 2365   2.499   0.375   1.239
  779SOL    HW2 2366   2.559   0.518   1.189
  780SOL     OW 2367   2.792   1.678   1.465
  780SOL    HW1 2368   2.768   1.660   1.370
  780SOL    HW2 2369   2.822   1.772   1.475
  781SOL     OW 2370   2.335   0.500   0.191
  781SOL    HW1 2371   2.396   0.580   0.195
  781SOL    HW2 2372   2.240   0.531   0.198
  782SOL     OW 2373   2.021   1.137   1.466
  782SOL    HW1 2374   2.043   1.076   1.542
  782SOL    HW2 2375   2.031   1.088   1.380
  783SOL     OW 2376   3.209   1.059   1.234
  783SOL    HW1 2377   3.233   0.996   1.160
  783SOL    HW2 2378   3.119   1.099   1.216
  784SOL     OW 2379   3.164   0.855   0.309
  784SOL    HW1 2380   3.078   0.824   0.351
  784SOL    HW2 2381   3.160   0.841   0.210
  785SOL     OW 2382   3.114   1.731   1.128
  785SOL    HW1 2383   3.198   1.736   1.074
  785SOL    HW2 2384   3.091   1.635   1.146
  786SOL     OW 2385   1.945   1.258   1.022
  786SOL    HW1 2386   1.940   1.257   1.122
  786SOL    HW2 2387   1.862   1.217   0.984
  787SOL     OW 2388   2.550   1.662   1.716
  787SOL    HW1 2389   2.494   1.743   1.725
  787SOL    HW2 2390   2.602   1.666   1.630
  788SOL     OW 2391   2.765   0.086   0.133
  788SOL    HW1 2392   2.816   0.087   0.047
  788SOL    HW2 2393   2.821   0.044   0.204
  789SOL     OW 2394   3.250   1.573   0.477
  789SOL    HW1 2395   3.317   1.585   0.403
  789SOL    HW2 2396   3.210   1.662   0.500
  790SOL     OW 2397   3.142   0.927   0.672
  790SOL    HW1 2398   3.202   0.846   0.674
  790SOL    HW2 2399   3.182   0.996   0.612
  791SOL     OW 2400   2.692   1.273   1.422
  791SOL    HW1 2401   2.687   1.306   1.517
  791SOL    HW2 2402   2.606   1.292   1.376
  792SOL     OW 2403   2.534   1.616   0.154
  792SOL    HW1 2404   2.543   1.626   0.055
  792SOL    HW2 2405   2.494   1.527   0.175
  793SOL     OW 2406   2.125   0.326   0.720
  793SOL    HW1 2407   2.046   0.377   0.686
  793SOL    HW2 2408   2.116   0.311   0.818
  794SOL     OW 2409   3.056   1.612   0.031
  794SOL    HW1 2410   3.062   1.519   0.068
  794SOL    HW2 2411   2.997   1.612  -0.049
  795SOL     OW 2412   2.684   1.002   1.372
  795SOL    HW1 2413   2.724   1.001   1.280
  795SOL    HW2 2414   2.694   1.094   1.412
  796SOL     OW 2415   2.778   0.910   0.291
  796SOL    HW1 2416   2.841   0.948   0.223
  796SOL    HW2 2417   2.818   0.827   0.330
  797SOL     OW 2418   2.234   1.288   1.490
  797SOL    HW1 2419   2.221   1.381   1.456
  797SOL    HW2 2420   2.150   1.236   1.477
  798SOL     OW 2421   2.901   1.098   0.696
  798SOL    HW1 2422   2.831   1.051   0.750
  798SOL    HW2 2423   2.960   1.030   0.653
  799SOL     OW 2424   2.876   0.236   0.971
  799SOL    HW1 2425   2.868   0.200   0.878
  799SOL    HW2 2426   2.874   0.160   1.036
  800SOL     OW 2427   2.452   1.487   0.491
  800SOL    HW1 2428   2.494   1.429   0.421
  800SOL    HW2 2429   2.408   1.566   0.447
  801SOL     OW 2430   2.117   1.348   0.290
  801SOL    HW1 2431   2.021   1.349   0.263
  801SOL    HW2 2432   2.129   1.401   0.374
  802SOL     OW 2433   1.967   1.013   1.726
  802SOL    HW1 2434   1.890   0.980   1.780
  802SOL    HW2 2435   2.052   0.983   1.768
  803SOL     OW 2436   2.534   0.203   1.489
  803SOL    HW1 2437   2.624   0.187   1.449
  803SOL    HW2 2438   2.542   0.208   1.588
  804SOL     OW 2439   1.937   0.345   0.033
  804SOL    HW1 2440   1.845   0.317   0.004
  804SOL    HW2 2441   1.968   0.422  -0.023
  805SOL     OW 2442   3.302   0.856   1.398
  805SOL    HW1 2443   3.245   0.908   1.335
  805SOL    HW2 2444   3.398   0.868   1.374
  806SOL     OW 2445   1.934   0.166   0.318
  806SOL    HW1 2446   1.917   0.249   0.264
  806SOL    HW2 2447   2.024   0.129   0.296
  807SOL     OW 2448   3.045   1.335   0.119
  807SOL    HW1 2449   2.946   1.324   0.121
  807SOL    HW2 2450   3.079   1.350   0.212
  808SOL     OW 2451   2.475   0.842   1.431
  808SOL    HW1 2452   2.531   0.923   1.414
  808SOL    HW2 2453   2.534   0.762   1.434
  809SOL     OW 2454   2.578   0.565   1.708
  809SOL    HW1 2455   2.597   0.630   1.782
  809SOL    HW2 2456   2.638   0.485   1.717
  810SOL     OW 2457   3.312   1.220   1.633
  810SOL    HW1 2458   3.303   1.210   1.732
  810SOL    HW2 2459   3.408   1.213   1.607
  811SOL     OW 2460   2.252   1.741   1.560
  811SOL    HW1 2461   2.161   1.782   1.558
  811SOL    HW2 2462   2.245   1.647   1.592
  812SOL     OW 2463   3.087   0.325   0.449
  812SOL    HW1 2464   3.152   0.251   0.438
  812SOL    HW2 2465   3.107   0.375   0.533
  813SOL     OW 2466   2.456   0.745   0.652
  813SOL    HW1 2467   2.506   0.830   0.633
  813SOL    HW2 2468   2.368   0.747   0.604
  814SOL     OW 2469   2.721   1.374   0.016
  814SOL    HW1 2470   2.675   1.389   0.104
  814SOL    HW2 2471   2.765   1.459  -0.014
  815SOL     OW 2472   2.523   1.790   0.953
  815SOL    HW1 2473   2.477   1.878   0.940
  815SOL    HW2 2474   2.622   1.802   0.946
  816SOL     OW 2475   2.721   0.956   0.861
  816SOL    HW1 2476   2.775   0.887   0.909
  816SOL    HW2 2477   2.689   1.025   0.927
  817SOL     OW 2478   2.945   0.984   0.087
  817SOL    HW1 2479   2.922   1.037   0.005
  817SOL    HW2 2480   3.026   0.928   0.068
  818SOL     OW 2481   2.083   1.314   1.844
  818SOL    HW1 2482   2.018   1.241   1.823
  818SOL    HW2 2483   2.087   1.328   1.942
  819SOL     OW 2484   1.941   1.240   0.653
  819SOL    HW1 2485   1.940   1.193   0.741
  819SOL    HW2 2486   2.023   1.212   0.602
  820SOL     OW 2487   2.534   1.391   1.624
  820SOL    HW1 2488   2.456   1.341   1.662
  820SOL    HW2 2489   2.531   1.486   1.655
  821SOL     OW 2490   2.290   0.424   0.520
  821SOL    HW1 2491   2.320   0.352   0.458
  821SOL    HW2 2492   2.251   0.384   0.603
  822SOL     OW 2493   2.179   0.547   1.280
  822SOL    HW1 2494   2.217   0.488   1.352
  822SOL    HW2 2495   2.219   0.521   1.192
  823SOL     OW 2496   2.674   1.586   0.687
  823SOL    HW1 2497   2.706   1.596   0.593
  823SOL    HW2 2498   2.595   1.524   0.689
  824SOL     OW 2499   2.863   0.034   1.154
  824SOL    HW1 2500   2.800  -0.038   1.123
  824SOL    HW2 2501   2.956  -0.002   1.154
  825SOL     OW 2502   2.632   1.330   0.301
  825SOL    HW1 2503   2.586   1.243   0.318
  825SOL    HW2 2504   2.723   1.327   0.342
  826SOL     OW 2505   2.480   1.567   1.284
  826SOL    HW1 2506   2.475   1.649   1.341
  826SOL    HW2 2507   2.569   1.564   1.239
  827SOL     OW 2508   3.214   0.052   0.168
  827SOL    HW1 2509   3.249   0.011   0.084
  827SOL    HW2 2510   3.124   0.014   0.188
  828SOL     OW 2511   1.901   1.077   0.300
  828SOL    HW1 2512   2.000   1.066   0.291
  828SOL    HW2 2513   1.861   0.991   0.332
  829SOL     OW 2514   2.737   1.646   0.337
  829SOL    HW1 2515   2.660   1.611   0.283
  829SOL    HW2 2516   2.705   1.717   0.399
  830SOL     OW 2517   2.092   0.628   1.975
  830SOL    HW1 2518   1.999   0.626   2.012
  830SOL    HW2 2519   2.093   0.589   1.883
  831SOL     OW 2520   2.087   0.275   2.858
  831SOL    HW1 2521   2.122   0.258   2.950
  831SOL    HW2 2522   1.999   0.230   2.846
  832SOL     OW 2523   1.881   0.368   2.509
  832SOL    HW1 2524   1.799   0.411   2.548
  832SOL    HW2 2525   1.853   0.295   2.446
  833SOL     OW 2526   2.431   1.275   3.027
  833SOL    HW1 2527   2.338   1.268   2.990
  833SOL    HW2 2528   2.442   1.364   3.071
  834SOL     OW 2529   3.417   1.511   2.565
  834SOL    HW1 2530   3.360   1.495   2.646
  834SOL    HW2 2531   3.358   1.521   2.485
  835SOL     OW 2532   2.997   0.703   2.579
  835SOL    HW1 2533   3.054   0.781   2.554
  835SOL    HW2 2534   2.937   0.729   2.655
  836SOL     OW 2535   2.630   1.144   2.885
  836SOL    HW1 2536   2.552   1.161   2.945
  836SOL    HW2 2537   2.664   1.231   2.849
  837SOL     OW 2538   2.547   1.012   2.527
  837SOL    HW1 2539   2.616   0.996   2.597
  837SOL    HW2 2540   2.474   1.069   2.565
  838SOL     OW 2541   2.197   1.435   2.923
  838SOL    HW1 2542   2.119   1.404   2.870
  838SOL    HW2 2543   2.255   1.493   2.866
  839SOL     OW 2544   2.300   0.392   3.361
  839SOL    HW1 2545   2.382   0.336   3.370
  839SOL    HW2 2546   2.219   0.334   3.365
  840SOL     OW 2547   2.093   1.713   2.345
  840SOL    HW1 2548   2.127   1.790   2.399
  840SOL    HW2 2549   2.137   1.713   2.255
  841SOL     OW 2550   2.092   1.434   2.400
  841SOL    HW1 2551   2.066   1.530   2.400
  841SOL    HW2 2552   2.021   1.380   2.445
  842SOL     OW 2553   2.102   1.091   2.748
  842SOL    HW1 2554   2.116   1.007   2.800
  842SOL    HW2 2555   2.047   1.155   2.803
  843SOL     OW 2556   2.482   1.786   3.301
  843SOL    HW1 2557   2.390   1.769   3.336
  843SOL    HW2 2558   2.510   1.878   3.327
  844SOL     OW 2559   2.468   0.964   1.985
  844SOL    HW1 2560   2.475   1.048   1.931
  844SOL    HW2 2561   2.514   0.977   2.073
  845SOL     OW 2562   1.984   0.643   2.425
  845SOL    HW1 2563   1.939   0.555   2.442
  845SOL    HW2 2564   1.983   0.697   2.509
  846SOL     OW 2565   1.889   1.596   1.979
  846SOL    HW1 2566   1.870   1.500   2.000
  846SOL    HW2 2567   1.856   1.654   2.054
  847SOL     OW 2568   3.551   0.922   2.474
  847SOL    HW1 2569   3.646   0.893   2.482
  847SOL    HW2 2570   3.543   0.987   2.399
  848SOL     OW 2571   2.475   1.365   2.588
  848SOL    HW1 2572   2.426   1.278   2.597
  848SOL    HW2 2573   2.452   1.408   2.501
  849SOL     OW 2574   2.671   0.004   2.364
  849SOL    HW1 2575   2.711   0.095   2.355
  849SOL    HW2 2576   2.571   0.012   2.370
  850SOL     OW 2577   2.059   0.976   3.126
  850SOL    HW1 2578   2.148   0.931   3.112
  850SOL    HW2 2579   1.986   0.911   3.107
  851SOL     OW 2580   2.460   0.729   2.132
  851SOL    HW1 2581   2.484   0.798   2.064
  851SOL    HW2 2582   2.382   0.762   2.186
  852SOL     OW 2583   3.143   0.345   2.806
  852SOL    HW1 2584   3.057   0.295   2.793
  852SOL    HW2 2585   3.205   0.291   2.862
  853SOL     OW 2586   2.669   0.605   3.327
  853SOL    HW1 2587   2.622   0.602   3.416
  853SOL    HW2 2588   2.618   0.550   3.261
  854SOL     OW 2589   2.853   0.410   3.104
  854SOL    HW1 2590   2.776   0.444   3.158
  854SOL    HW2 2591   2.819   0.359   3.025
  855SOL     OW 2592   2.903   0.701   2.291
  855SOL    HW1 2593   2.929   0.697   2.387
  855SOL    HW2 2594   2.818   0.650   2.277
  856SOL     OW 2595   1.938   0.811   2.651
  856SOL    HW1 2596   2.037   0.799   2.660
  856SOL    HW2 2597   1.914   0.906   2.672
  857SOL     OW 2598   1.992   1.821   3.433
  857SOL    HW1 2599   1.982   1.806   3.532
  857SOL    HW2 2600   1.906   1.857   3.397
  858SOL     OW 2601   2.727   0.348   2.057
  858SOL    HW1 2602   2.786   0.411   2.008
  858SOL    HW2 2603   2.746   0.254   2.028
  859SOL     OW 2604   3.224   1.144   2.407
  859SOL    HW1 2605   3.307   1.115   2.359
  859SOL    HW2 2606   3.175   1.211   2.351
  860SOL     OW 2607   2.412   0.196   2.747
  860SOL    HW1 2608   2.407   0.191   2.847
  860SOL    HW2 2609   2.414   0.292   2.718
  861SOL     OW 2610   2.870   1.456   2.339
  861SOL    HW1 2611   2.824   1.528   2.287
  861SOL    HW2 2612   2.866   1.476   2.437
  862SOL     OW 2613   2.213   1.801   2.715
  862SOL    HW1 2614   2.263   1.715   2.721
  862SOL    HW2 2615   2.278   1.878   2.712
  863SOL     OW 2616   2.183   0.943   2.104
  863SOL    HW1 2617   2.265   0.982   2.062
  863SOL    HW2 2618   2.156   0.861   2.055
  864SOL     OW 2619   2.973   1.776   2.099
  864SOL    HW1 2620   2.913   1.714   2.149
  864SOL    HW2 2621   3.004   1.732   2.014
  865SOL     OW 2622   2.326   1.743   2.185
  865SOL    HW1 2623   2.359   1.782   2.271
  865SOL    HW2 2624   2.402   1.736   2.120
  866SOL     OW 2625   2.111   1.785   3.103
  866SOL    HW1 2626   2.168   1.720   3.153
  866SOL    HW2 2627   2.095   1.752   3.010
  867SOL     OW 2628   2.802   1.698   2.766
  867SOL    HW1 2629   2.882   1.641   2.787
  867SOL    HW2 2630   2.753   1.658   2.689
  868SOL     OW 2631   2.244   0.700   2.342
  868SOL    HW1 2632   2.289   0.610   2.339
  868SOL    HW2 2633   2.150   0.689   2.375
  869SOL     OW 2634   2.476   0.122   1.979
  869SOL    HW1 2635   2.574   0.100   1.986
  869SOL    HW2 2636   2.445   0.105   1.886
  870SOL     OW 2637   2.750   1.514   3.057
  870SOL    HW1 2638   2.727   1.489   2.963
  870SOL    HW2 2639   2.811   1.445   3.096
  871SOL     OW 2640   2.665   1.402   2.786
  871SOL    HW1 2641   2.755   1.416   2.744
  871SOL    HW2 2642   2.594   1.404   2.715
  872SOL     OW 2643   2.784   0.503   2.761
  872SOL    HW1 2644   2.759   0.494   2.665
  872SOL    HW2 2645   2.832   0.421   2.792
  873SOL     OW 2646   2.401   0.064   2.374
  873SOL    HW1 2647   2.320   0.065   2.432
  873SOL    HW2 2648   2.404   0.147   2.319
  874SOL     OW 2649   3.296   1.188   1.903
  874SOL    HW1 2650   3.328   1.112   1.960
  874SOL    HW2 2651   3.204   1.215   1.933
  875SOL     OW 2652   2.159   0.035   2.033
  875SOL    HW1 2653   2.208   0.119   2.012
  875SOL    HW2 2654   2.221  -0.030   2.078
  876SOL     OW 2655   2.797   0.236   2.342
  876SOL    HW1 2656   2.749   0.277   2.264
  876SOL    HW2 2657   2.896   0.234   2.323
  877SOL     OW 2658   3.089   1.570   2.655
  877SOL    HW1 2659   3.110   1.644   2.590
  877SOL    HW2 2660   3.157   1.570   2.728
  878SOL     OW 2661   2.321   1.152   2.603
  878SOL    HW1 2662   2.250   1.125   2.668
  878SOL    HW2 2663   2.295   1.124   2.510
  879SOL     OW 2664   3.133   1.797   2.453
  879SOL    HW1 2665   3.177   1.861   2.389
  879SOL    HW2 2666   3.083   1.849   2.523
  880SOL     OW 2667   2.894   0.549   1.878
  880SOL    HW1 2668   2.853   0.631   1.839
  880SOL    HW2 2669   2.958   0.575   1.951
  881SOL     OW 2670   2.423   0.222   3.009
  881SOL    HW1 2671   2.461   0.138   3.046
  881SOL    HW2 2672   2.335   0.241   3.053
  882SOL     OW 2673   2.728   0.454   2.504
  882SOL    HW1 2674   2.696   0.526   2.442
  882SOL    HW2 2675   2.752   0.373   2.451
  883SOL     OW 2676   2.879   0.039   2.615
  883SOL    HW1 2677   2.807   0.044   2.546
  883SOL    HW2 2678   2.855  -0.030   2.684
  884SOL     OW 2679   2.350   1.385   2.036
  884SOL    HW1 2680   2.263   1.370   2.083
  884SOL    HW2 2681   2.333   1.411   1.941
  885SOL     OW 2682   3.252   0.575   1.940
  885SOL    HW1 2683   3.198   0.554   2.021
  885SOL    HW2 2684   3.343   0.534   1.949
  886SOL     OW 2685   2.389   0.256   2.190
  886SOL    HW1 2686   2.416   0.197   2.115
  886SOL    HW2 2687   2.389   0.351   2.159
  887SOL     OW 2688   2.926   1.347   3.202
  887SOL    HW1 2689   2.846   1.324   3.257
  887SOL    HW2 2690   3.009   1.321   3.251
  888SOL     OW 2691   2.973   1.195   2.962
  888SOL    HW1 2692   2.933   1.239   3.043
  888SOL    HW2 2693   2.932   1.232   2.879
  889SOL     OW 2694   2.567   1.050   2.230
  889SOL    HW1 2695   2.553   1.057   2.329
  889SOL    HW2 2696   2.651   0.999   2.212
  890SOL     OW 2697   2.272   0.813   3.113
  890SOL    HW1 2698   2.358   0.825   3.163
  890SOL    HW2 2699   2.230   0.726   3.140
  891SOL     OW 2700   3.136   0.386   3.124
  891SOL    HW1 2701   3.157   0.460   3.188
  891SOL    HW2 2702   3.047   0.403   3.081
  892SOL     OW 2703   1.926   1.564   3.193
  892SOL    HW1 2704   1.880   1.646   3.159
  892SOL    HW2 2705   2.024   1.583   3.202
  893SOL     OW 2706   2.229   1.100   2.363
  893SOL    HW1 2707   2.222   1.183   2.307
  893SOL    HW2 2708   2.233   1.020   2.303
  894SOL     OW 2709   2.428   0.537   2.727
  894SOL    HW1 2710   2.440   0.603   2.653
  894SOL    HW2 2711   2.474   0.571   2.810
  895SOL     OW 2712   3.114   1.348   2.250
  895SOL    HW1 2713   3.164   1.425   2.290
  895SOL    HW2 2714   3.019   1.350   2.282
  896SOL     OW 2715   3.134   1.445   3.004
  896SOL    HW1 2716   3.181   1.458   3.091
  896SOL    HW2 2717   3.068   1.371   3.013
  897SOL     OW 2718   2.216   1.510   3.191
  897SOL    HW1 2719   2.195   1.466   3.104
  897SOL    HW2 2720   2.313   1.536   3.194
  898SOL     OW 2721   2.435   0.870   2.891
  898SOL    HW1 2722   2.479   0.959   2.882
  898SOL    HW2 2723   2.372   0.870   2.968
  899SOL     OW 2724   3.222   0.862   2.907
  899SOL    HW1 2725   3.147   0.862   2.841
  899SOL    HW2 2726   3.259   0.770   2.916
  900SOL     OW 2727   3.071   0.525   2.137
  900SOL    HW1 2728   3.084   0.441   2.191
  900SOL    HW2 2729   3.042   0.599   2.197
  901SOL     OW 2730   2.169   0.213   3.093
  901SOL    HW1 2731   2.146   0.250   3.183
  901SOL    HW2 2732   2.139   0.118   3.087
  902SOL     OW 2733   1.899   1.310   3.144
  902SOL    HW1 2734   1.952   1.261   3.212
  902SOL    HW2 2735   1.921   1.408   3.149
  903SOL     OW 2736   2.594   0.634   2.926
  903SOL    HW1 2737   2.653   0.608   2.850
  903SOL    HW2 2738   2.566   0.730   2.915
  904SOL     OW 2739   2.169   0.063   2.480
  904SOL    HW1 2740   2.158   0.157   2.513
  904SOL    HW2 2741   2.164   0.000   2.557
  905SOL     OW 2742   2.885   0.766   2.828
  905SOL    HW1 2743   2.900   0.787   2.924
  905SOL    HW2 2744   2.855   0.671   2.819
  906SOL     OW 2745   3.165   0.838   1.904
  906SOL    HW1 2746   3.199   0.745   1.919
  906SOL    HW2 2747   3.183   0.865   1.809
  907SOL     OW 2748   2.930   1.333   2.711
  907SOL    HW1 2749   2.937   1.249   2.656
  907SOL    HW2 2750   2.992   1.402   2.675
  908SOL     OW 2751   2.181   0.810   2.811
  908SOL    HW1 2752   2.274   0.846   2.816
  908SOL    HW2 2753   2.175   0.725   2.863
  909SOL     OW 2754   2.201   0.509   2.868
  909SOL    HW1 2755   2.149   0.426   2.851
  909SOL    HW2 2756   2.278   0.514   2.804
  910SOL     OW 2757   3.022   0.207   3.339
  910SOL    HW1 2758   3.022   0.271   3.416
  910SOL    HW2 2759   3.050   0.255   3.256
  911SOL     OW 2760   1.870   1.326   2.062
  911SOL    HW1 2761   1.777   1.347   2.031
  911SOL    HW2 2762   1.880   1.227   2.075
  912SOL     OW 2763   1.950   1.801   2.789
  912SOL    HW1 2764   1.908   1.715   2.762
  912SOL    HW2 2765   2.044   1.804   2.755
  913SOL     OW 2766   2.366   1.568   2.772
  913SOL    HW1 2767   2.432   1.642   2.781
  913SOL    HW2 2768   2.410   1.489   2.730
  914SOL     OW 2769   2.864   0.796   3.100
  914SOL    HW1 2770   2.905   0.764   3.186
  914SOL    HW2 2771   2.768   0.769   3.097
  915SOL     OW 2772   1.902   0.544   2.976
  915SOL    HW1 2773   1.987   0.511   2.935
  915SOL    HW2 2774   1.915   0.559   3.074
  916SOL     OW 2775   2.677   0.572   2.187
  916SOL    HW1 2776   2.684   0.483   2.141
  916SOL    HW2 2777   2.583   0.606   2.179
  917SOL     OW 2778   2.533   0.464   3.131
  917SOL    HW1 2779   2.499   0.375   3.101
  917SOL    HW2 2780   2.559   0.518   3.051
  918SOL     OW 2781   2.792   1.678   3.327
  918SOL    HW1 2782   2.768   1.660   3.232
  918SOL    HW2 2783   2.822   1.772   3.337
  919SOL     OW 2784   2.335   0.500   2.053
  919SOL    HW1 2785   2.396   0.580   2.057
  919SOL    HW2 2786   2.240   0.531   2.060
  920SOL     OW 2787   2.021   1.137   3.328
  920SOL    HW1 2788   2.043   1.076   3.404
  920SOL    HW2 2789   2.031   1.088   3.242
  921SOL     OW 2790   3.209   1.059   3.096
  921SOL    HW1 2791   3.233   0.996   3.022
  921SOL    HW2 2792   3.119   1.099   3.078
  922SOL     OW 2793   3.164   0.855   2.171
  922SOL    HW1 2794   3.078   0.824   2.213
  922SOL    HW2 2795   3.160   0.841   2.072
  923SOL     OW 2796   3.114   1.731   2.990
  923SOL    HW1 2797   3.198   1.736   2.936
  923SOL    HW2 2798   3.091   1.635   3.008
  924SOL     OW 2799   1.945   1.258   2.884
  924SOL    HW1 2800   1.940   1.257   2.984
  924SOL    HW2 2801   1.862   1.217   2.846
  925SOL     OW 2802   3.250   1.573   2.339
  925SOL    HW1 2803   3.317   1.585   2.265
  925SOL    HW2 2804   3.210   1.662   2.362
  926SOL     OW 2805   3.142   0.927   2.534
  926SOL    HW1 2806   3.202   0.846   2.536
  926SOL    HW2 2807   3.182   0.996   2.474
  927SOL     OW 2808   2.534   1.616   2.016
  927SOL    HW1 2809   2.543   1.626   1.917
  927SOL    HW2 2810   2.494   1.527   2.037
  928SOL     OW 2811   2.125   0.326   2.582
  928SOL    HW1 2812   2.046   0.377   2.548
  928SOL    HW2 2813   2.116   0.311   2.680
  929SOL     OW 2814   3.056   1.612   1.893
  929SOL    HW1 2815   3.062   1.519   1.930
  929SOL    HW2 2816   2.997   1.612   1.813
  930SOL     OW 2817   2.684   1.002   3.234
  930SOL    HW1 2818   2.724   1.001   3.142
  930SOL    HW2 2819   2.694   1.094   3.274
  931SOL     OW 2820   2.778   0.910   2.153
  931SOL    HW1 2821   2.841   0.948   2.085
  931SOL    HW2 2822   2.818   0.827   2.192
  932SOL     OW 2823   2.234   1.288   3.352
  932SOL    HW1 2824   2.221   1.381   3.318
  932SOL    HW2 2825   2.150   1.236   3.339
  933SOL     OW 2826   2.901   1.098   2.558
  933SOL    HW1 2827   2.831   1.051   2.612
  933SOL    HW2 2828   2.960   1.030   2.515
  934SOL     OW 2829   2.876   0.236   2.833
  934SOL    HW1 2830   2.868   0.200   2.740
  934SOL    HW2 2831   2.874   0.160   2.898
  935SOL     OW 2832   2.452   1.487   2.353
  935SOL    HW1 2833   2.494   1.429   2.283
  935SOL    HW2 2834   2.408   1.566   2.309
  936SOL     OW 2835   2.117   1.348   2.152
  936SOL    HW1 2836   2.021   1.349   2.125
  936SOL    HW2 2837   2.129   1.401   2.236
  937SOL     OW 2838   1.937   0.345   1.895
  937SOL    HW1 2839   1.845   0.317   1.866
  937SOL    HW2 2840   1.968   0.422   1.839
  938SOL     OW 2841   1.934   0.166   2.180
  938SOL    HW1 2842   1.917   0.249   2.126
  938SOL    HW2 2843   2.024   0.129   2.158
  939SOL     OW 2844   3.045   1.335   1.981
  939SOL    HW1 2845   2.946   1.324   1.983
  939SOL    HW2 2846   3.079   1.350   2.074
  940SOL     OW 2847   2.475   0.842   3.293
  940SOL    HW1 2848   2.531   0.923   3.276
  940SOL    HW2 2849   2.534   0.762   3.296
  941SOL     OW 2850   2.252   1.741   3.422
  941SOL    HW1 2851   2.161   1.782   3.420
  941SOL    HW2 2852   2.245   1.647   3.454
  942SOL     OW 2853   3.087   0.325   2.311
  942SOL    HW1 2854   3.152   0.251   2.300
  942SOL    HW2 2855   3.107   0.375   2.395
  943SOL     OW 2856   2.456   0.745   2.514
  943SOL    HW1 2857   2.506   0.830   2.495
  943SOL    HW2 2858   2.368   0.747   2.466
  944SOL     OW 2859   2.721   1.374   1.878
  944SOL    HW1 2860   2.675   1.389   1.966
  944SOL    HW2 2861   2.765   1.459   1.848
  945SOL     OW 2862   2.523   1.790   2.815
  945SOL    HW1 2863   2.477   1.878   2.802
  945SOL    HW2 2864   2.622   1.802   2.808
  946SOL     OW 2865   2.721   0.956   2.723
  946SOL    HW1 2866   2.775   0.887   2.771
  946SOL    HW2 2867   2.689   1.025   2.789
  947SOL     OW 2868   2.945   0.984   1.949
  947SOL    HW1 2869   2.922   1.037   1.867
  947SOL    HW2 2870   3.026   0.928   1.930
  948SOL     OW 2871   1.941   1.240   2.515
  948SOL    HW1 2872   1.940   1.193   2.603
  948SOL    HW2 2873   2.023   1.212   2.464
  949SOL     OW 2874   2.290   0.424   2.382
  949SOL    HW1 2875   2.320   0.352   2.320
  949SOL    HW2 2876   2.251   0.384   2.465
  950SOL     OW 2877   2.179   0.547   3.142
  950SOL    HW1 2878   2.217   0.488   3.214
  950SOL    HW2 2879   2.219   0.521   3.054
  951SOL     OW 2880   2.674   1.586   2.549
  951SOL    HW1 2881   2.706   1.596   2.455
  951SOL    HW2 2882   2.595   1.524   2.551
  952SOL     OW 2883   2.863   0.034   3.016
  952SOL    HW1 2884   2.800  -0.038   2.985
  952SOL    HW2 2885   2.956  -0.002   3.016
  953SOL     OW 2886   2.632   1.330   2.163
  953SOL    HW1 2887   2.586   1.243   2.180
  953SOL    HW2 2888   2.723   1.327   2.204
  954SOL     OW 2889   2.480   1.567   3.146
  954SOL    HW1 2890   2.475   1.649   3.203
  954SOL    HW2 2891   2.569   1.564   3.101
  955SOL     OW 2892   3.214   0.052   2.030
  955SOL    HW1 2893   3.249   0.011   1.946
  955SOL    HW2 2894   3.124   0.014   2.050
  956SOL     OW 2895   1.901   1.077   2.162
  956SOL    HW1 2896   2.000   1.066   2.153
  956SOL    HW2 2897   1.861   0.991   2.194
  957SOL     OW 2898   2.737   1.646   2.199
  957SOL    HW1 2899   2.660   1.611   2.145
  957SOL    HW2 2900   2.705   1.717   2.261
  958SOL     OW 2901   2.092   2.490   0.113
  958SOL    HW1 2902   1.999   2.488   0.150
  958SOL    HW2 2903   2.093   2.451   0.021
  959SOL     OW 2904   2.087   2.137   0.996
  959SOL    HW1 2905   2.122   2.120   1.088
  959SOL    HW2 2906   1.999   2.092   0.984
  960SOL     OW 2907   1.881   2.230   0.647
  960SOL    HW1 2908   1.799   2.273   0.686
  960SOL    HW2 2909   1.853   2.157   0.584
  961SOL     OW 2910   2.431   3.137   1.165
  961SOL    HW1 2911   2.338   3.130   1.128
  961SOL    HW2 2912   2.442   3.226   1.209
  962SOL     OW 2913   3.417   3.373   0.703
  962SOL    HW1 2914   3.360   3.357   0.784
  962SOL    HW2 2915   3.358   3.383   0.623
  963SOL     OW 2916   2.997   2.565   0.717
  963SOL    HW1 2917   3.054   2.643   0.692
  963SOL    HW2 2918   2.937   2.591   0.793
  964SOL     OW 2919   2.630   3.006   1.023
  964SOL    HW1 2920   2.552   3.023   1.083
  964SOL    HW2 2921   2.664   3.093   0.987
  965SOL     OW 2922   2.712   2.660   1.823
  965SOL    HW1 2923   2.708   2.736   1.888
  965SOL    HW2 2924   2.734   2.696   1.732
  966SOL     OW 2925   2.547   2.874   0.665
  966SOL    HW1 2926   2.616   2.858   0.735
  966SOL    HW2 2927   2.474   2.931   0.703
  967SOL     OW 2928   2.548   3.023   1.803
  967SOL    HW1 2929   2.608   3.102   1.817
  967SOL    HW2 2930   2.462   3.054   1.762
  968SOL     OW 2931   2.197   3.297   1.061
  968SOL    HW1 2932   2.119   3.266   1.008
  968SOL    HW2 2933   2.255   3.355   1.004
  969SOL     OW 2934   2.300   2.254   1.499
  969SOL    HW1 2935   2.382   2.198   1.508
  969SOL    HW2 2936   2.219   2.196   1.503
  970SOL     OW 2937   2.093   3.575   0.483
  970SOL    HW1 2938   2.127   3.652   0.537
  970SOL    HW2 2939   2.137   3.575   0.393
  971SOL     OW 2940   2.989   3.203   1.690
  971SOL    HW1 2941   3.036   3.203   1.778
  971SOL    HW2 2942   2.941   3.116   1.679
  972SOL     OW 2943   2.102   2.953   0.886
  972SOL    HW1 2944   2.116   2.869   0.938
  972SOL    HW2 2945   2.047   3.017   0.941
  973SOL     OW 2946   2.468   2.826   0.123
  973SOL    HW1 2947   2.475   2.910   0.069
  973SOL    HW2 2948   2.514   2.839   0.211
  974SOL     OW 2949   1.984   2.505   0.563
  974SOL    HW1 2950   1.939   2.417   0.580
  974SOL    HW2 2951   1.983   2.559   0.647
  975SOL     OW 2952   3.551   2.784   0.612
  975SOL    HW1 2953   3.646   2.755   0.620
  975SOL    HW2 2954   3.543   2.849   0.537
  976SOL     OW 2955   1.975   2.599   1.597
  976SOL    HW1 2956   2.063   2.586   1.642
  976SOL    HW2 2957   1.962   2.696   1.575
  977SOL     OW 2958   2.475   3.227   0.726
  977SOL    HW1 2959   2.426   3.140   0.735
  977SOL    HW2 2960   2.452   3.270   0.639
  978SOL     OW 2961   3.155   3.090   1.423
  978SOL    HW1 2962   3.192   3.017   1.365
  978SOL    HW2 2963   3.207   3.095   1.508
  979SOL     OW 2964   2.671   1.866   0.502
  979SOL    HW1 2965   2.711   1.957   0.493
  979SOL    HW2 2966   2.571   1.874   0.508
  980SOL     OW 2967   2.059   2.838   1.264
  980SOL    HW1 2968   2.148   2.793   1.250
  980SOL    HW2 2969   1.986   2.773   1.245
  981SOL     OW 2970   2.460   2.591   0.270
  981SOL    HW1 2971   2.484   2.660   0.202
  981SOL    HW2 2972   2.382   2.624   0.324
  982SOL     OW 2973   3.143   2.207   0.944
  982SOL    HW1 2974   3.057   2.157   0.931
  982SOL    HW2 2975   3.205   2.153   1.000
  983SOL     OW 2976   2.669   2.467   1.465
  983SOL    HW1 2977   2.622   2.464   1.554
  983SOL    HW2 2978   2.618   2.412   1.399
  984SOL     OW 2979   3.256   2.331   1.674
  984SOL    HW1 2980   3.236   2.374   1.762
  984SOL    HW2 2981   3.334   2.269   1.683
  985SOL     OW 2982   2.835   2.752   1.572
  985SOL    HW1 2983   2.881   2.668   1.543
  985SOL    HW2 2984   2.779   2.786   1.497
  986SOL     OW 2985   2.853   2.272   1.242
  986SOL    HW1 2986   2.776   2.306   1.296
  986SOL    HW2 2987   2.819   2.221   1.163
  987SOL     OW 2988   2.903   2.563   0.429
  987SOL    HW1 2989   2.929   2.559   0.525
  987SOL    HW2 2990   2.818   2.512   0.415
  988SOL     OW 2991   1.938   2.673   0.789
  988SOL    HW1 2992   2.037   2.661   0.798
  988SOL    HW2 2993   1.914   2.768   0.810
  989SOL     OW 2994   2.727   2.210   0.195
  989SOL    HW1 2995   2.786   2.273   0.146
  989SOL    HW2 2996   2.746   2.116   0.166
  990SOL     OW 2997   3.224   3.006   0.545
  990SOL    HW1 2998   3.307   2.977   0.497
  990SOL    HW2 2999   3.175   3.073   0.489
  991SOL     OW 3000   2.412   2.058   0.885
  991SOL    HW1 3001   2.407   2.053   0.985
  991SOL    HW2 3002   2.414   2.154   0.856
  992SOL     OW 3003   2.183   2.805   0.242
  992SOL    HW1 3004   2.265   2.844   0.200
  992SOL    HW2 3005   2.156   2.723   0.193
  993SOL     OW 3006   2.323   3.128   1.727
  993SOL    HW1 3007   2.273   3.129   1.641
  993SOL    HW2 3008   2.260   3.110   1.803
  994SOL     OW 3009   2.064   2.147   1.498
  994SOL    HW1 3010   1.984   2.207   1.485
  994SOL    HW2 3011   2.054   2.098   1.584
  995SOL     OW 3012   3.494   3.239   0.081
  995SOL    HW1 3013   3.462   3.333   0.071
  995SOL    HW2 3014   3.418   3.176   0.069
  996SOL     OW 3015   2.244   2.562   0.480
  996SOL    HW1 3016   2.289   2.472   0.477
  996SOL    HW2 3017   2.150   2.551   0.513
  997SOL     OW 3018   2.643   2.126   1.749
  997SOL    HW1 3019   2.710   2.065   1.792
  997SOL    HW2 3020   2.570   2.145   1.814
  998SOL     OW 3021   3.213   2.452   1.433
  998SOL    HW1 3022   3.241   2.409   1.518
  998SOL    HW2 3023   3.238   2.548   1.434
  999SOL     OW 3024   2.784   2.365   0.899
  999SOL    HW1 3025   2.759   2.356   0.803
  999SOL    HW2 3026   2.832   2.283   0.930
 1000SOL     OW 3027   2.401   1.926   0.512
 1000SOL    HW1 3028   2.320   1.927   0.570
 1000SOL    HW2 3029   2.404   2.009   0.457
 1001SOL     OW 3030   3.296   3.050   0.041
 1001SOL    HW1 3031   3.328   2.974   0.098
 1001SOL    HW2 3032   3.204   3.077   0.071
 1002SOL     OW 3033   2.797   2.098   0.480
 1002SOL    HW1 3034   2.749   2.139   0.402
 1002SOL    HW2 3035   2.896   2.096   0.461
 1003SOL     OW 3036   2.938   2.545   1.464
 1003SOL    HW1 3037   2.858   2.484   1.467
 1003SOL    HW2 3038   3.019   2.492   1.440
 1004SOL     OW 3039   3.089   3.432   0.793
 1004SOL    HW1 3040   3.110   3.506   0.728
 1004SOL    HW2 3041   3.157   3.432   0.866
 1005SOL     OW 3042   2.321   3.014   0.741
 1005SOL    HW1 3043   2.250   2.987   0.806
 1005SOL    HW2 3044   2.295   2.986   0.648
 1006SOL     OW 3045   2.894   2.411   0.016
 1006SOL    HW1 3046   2.853   2.493  -0.023
 1006SOL    HW2 3047   2.958   2.437   0.089
 1007SOL     OW 3048   1.940   2.418   1.386
 1007SOL    HW1 3049   2.032   2.417   1.345
 1007SOL    HW2 3050   1.934   2.492   1.453
 1008SOL     OW 3051   2.423   2.084   1.147
 1008SOL    HW1 3052   2.461   2.000   1.184
 1008SOL    HW2 3053   2.335   2.103   1.191
 1009SOL     OW 3054   2.728   2.316   0.642
 1009SOL    HW1 3055   2.696   2.388   0.580
 1009SOL    HW2 3056   2.752   2.235   0.589
 1010SOL     OW 3057   2.879   1.901   0.753
 1010SOL    HW1 3058   2.807   1.906   0.684
 1010SOL    HW2 3059   2.855   1.832   0.822
 1011SOL     OW 3060   3.252   2.437   0.078
 1011SOL    HW1 3061   3.198   2.416   0.159
 1011SOL    HW2 3062   3.343   2.396   0.087
 1012SOL     OW 3063   2.389   2.118   0.328
 1012SOL    HW1 3064   2.416   2.059   0.253
 1012SOL    HW2 3065   2.389   2.213   0.297
 1013SOL     OW 3066   2.926   3.209   1.340
 1013SOL    HW1 3067   2.846   3.186   1.395
 1013SOL    HW2 3068   3.009   3.183   1.389
 1014SOL     OW 3069   2.973   3.057   1.100
 1014SOL    HW1 3070   2.933   3.101   1.181
 1014SOL    HW2 3071   2.932   3.094   1.017
 1015SOL     OW 3072   2.777   1.951   1.402
 1015SOL    HW1 3073   2.802   1.931   1.307
 1015SOL    HW2 3074   2.849   2.007   1.444
 1016SOL     OW 3075   2.842   2.978   1.719
 1016SOL    HW1 3076   2.743   2.984   1.729
 1016SOL    HW2 3077   2.865   2.898   1.663
 1017SOL     OW 3078   2.567   2.912   0.368
 1017SOL    HW1 3079   2.553   2.919   0.467
 1017SOL    HW2 3080   2.651   2.861   0.350
 1018SOL     OW 3081   2.272   2.675   1.251
 1018SOL    HW1 3082   2.358   2.687   1.301
 1018SOL    HW2 3083   2.230   2.588   1.278
 1019SOL     OW 3084   3.136   2.248   1.262
 1019SOL    HW1 3085   3.157   2.322   1.326
 1019SOL    HW2 3086   3.047   2.265   1.219
 1020SOL     OW 3087   2.229   2.962   0.501
 1020SOL    HW1 3088   2.222   3.045   0.445
 1020SOL    HW2 3089   2.233   2.882   0.441
 1021SOL     OW 3090   2.428   2.399   0.865
 1021SOL    HW1 3091   2.440   2.465   0.791
 1021SOL    HW2 3092   2.474   2.433   0.948
 1022SOL     OW 3093   3.114   3.210   0.388
 1022SOL    HW1 3094   3.164   3.287   0.428
 1022SOL    HW2 3095   3.019   3.212   0.420
 1023SOL     OW 3096   3.134   3.307   1.142
 1023SOL    HW1 3097   3.181   3.320   1.229
 1023SOL    HW2 3098   3.068   3.233   1.151
 1024SOL     OW 3099   2.264   2.613   1.598
 1024SOL    HW1 3100   2.332   2.668   1.551
 1024SOL    HW2 3101   2.304   2.525   1.625
 1025SOL     OW 3102   2.875   1.967   1.770
 1025SOL    HW1 3103   2.881   2.052   1.718
 1025SOL    HW2 3104   2.907   1.891   1.713
 1026SOL     OW 3105   2.366   1.912   1.740
 1026SOL    HW1 3106   2.324   1.855   1.670
 1026SOL    HW2 3107   2.300   1.981   1.772
 1027SOL     OW 3108   2.435   2.732   1.029
 1027SOL    HW1 3109   2.479   2.821   1.020
 1027SOL    HW2 3110   2.372   2.732   1.106
 1028SOL     OW 3111   3.222   2.724   1.045
 1028SOL    HW1 3112   3.147   2.724   0.979
 1028SOL    HW2 3113   3.259   2.632   1.054
 1029SOL     OW 3114   3.071   2.387   0.275
 1029SOL    HW1 3115   3.084   2.303   0.329
 1029SOL    HW2 3116   3.042   2.461   0.335
 1030SOL     OW 3117   2.169   2.075   1.231
 1030SOL    HW1 3118   2.146   2.112   1.321
 1030SOL    HW2 3119   2.139   1.980   1.225
 1031SOL     OW 3120   1.899   3.172   1.282
 1031SOL    HW1 3121   1.952   3.123   1.350
 1031SOL    HW2 3122   1.921   3.270   1.287
 1032SOL     OW 3123   2.594   2.496   1.064
 1032SOL    HW1 3124   2.653   2.470   0.988
 1032SOL    HW2 3125   2.566   2.592   1.053
 1033SOL     OW 3126   2.169   1.925   0.618
 1033SOL    HW1 3127   2.158   2.019   0.651
 1033SOL    HW2 3128   2.164   1.862   0.695
 1034SOL     OW 3129   3.484   2.229   0.374
 1034SOL    HW1 3130   3.486   2.153   0.438
 1034SOL    HW2 3131   3.436   2.306   0.414
 1035SOL     OW 3132   2.885   2.628   0.966
 1035SOL    HW1 3133   2.900   2.649   1.062
 1035SOL    HW2 3134   2.855   2.533   0.957
 1036SOL     OW 3135   2.212   2.760   1.804
 1036SOL    HW1 3136   2.288   2.804   1.852
 1036SOL    HW2 3137   2.247   2.713   1.722
 1037SOL     OW 3138   3.165   2.700   0.042
 1037SOL    HW1 3139   3.199   2.607   0.057
 1037SOL    HW2 3140   3.183   2.727  -0.053
 1038SOL     OW 3141   2.181   2.672   0.949
 1038SOL    HW1 3142   2.274   2.708   0.954
 1038SOL    HW2 3143   2.175   2.587   1.001
 1039SOL     OW 3144   2.201   2.371   1.006
 1039SOL    HW1 3145   2.149   2.288   0.989
 1039SOL    HW2 3146   2.278   2.376   0.942
 1040SOL     OW 3147   3.000   2.242   1.678
 1040SOL    HW1 3148   2.955   2.305   1.742
 1040SOL    HW2 3149   3.093   2.273   1.661
 1041SOL     OW 3150   3.022   2.069   1.477
 1041SOL    HW1 3151   3.022   2.133   1.554
 1041SOL    HW2 3152   3.050   2.117   1.394
 1042SOL     OW 3153   2.864   2.658   1.238
 1042SOL    HW1 3154   2.905   2.626   1.324
 1042SOL    HW2 3155   2.768   2.631   1.235
 1043SOL     OW 3156   1.902   2.406   1.114
 1043SOL    HW1 3157   1.987   2.373   1.073
 1043SOL    HW2 3158   1.915   2.421   1.212
 1044SOL     OW 3159   2.051   2.382   1.722
 1044SOL    HW1 3160   2.110   2.342   1.652
 1044SOL    HW2 3161   1.993   2.453   1.681
 1045SOL     OW 3162   3.231   2.812   1.660
 1045SOL    HW1 3163   3.270   2.901   1.680
 1045SOL    HW2 3164   3.241   2.792   1.563
 1046SOL     OW 3165   2.677   2.434   0.325
 1046SOL    HW1 3166   2.684   2.345   0.279
 1046SOL    HW2 3167   2.583   2.468   0.317
 1047SOL     OW 3168   2.533   2.326   1.269
 1047SOL    HW1 3169   2.499   2.237   1.239
 1047SOL    HW2 3170   2.559   2.380   1.189
 1048SOL     OW 3171   2.335   2.362   0.191
 1048SOL    HW1 3172   2.396   2.442   0.195
 1048SOL    HW2 3173   2.240   2.393   0.198
 1049SOL     OW 3174   2.021   2.999   1.466
 1049SOL    HW1 3175   2.043   2.938   1.542
 1049SOL    HW2 3176   2.031   2.950   1.380
 1050SOL     OW 3177   3.209   2.921   1.234
 1050SOL    HW1 3178   3.233   2.858   1.160
 1050SOL    HW2 3179   3.119   2.961   1.216
 1051SOL     OW 3180   3.164   2.717   0.309
 1051SOL    HW1 3181   3.078   2.686   0.351
 1051SOL    HW2 3182   3.160   2.703   0.210
 1052SOL     OW 3183   1.945   3.120   1.022
 1052SOL    HW1 3184   1.940   3.119   1.122
 1052SOL    HW2 3185   1.862   3.079   0.984
 1053SOL     OW 3186   2.765   1.948   0.133
 1053SOL    HW1 3187   2.816   1.949   0.047
 1053SOL    HW2 3188   2.821   1.906   0.204
 1054SOL     OW 3189   3.142   2.789   0.672
 1054SOL    HW1 3190   3.202   2.708   0.674
 1054SOL    HW2 3191   3.182   2.858   0.612
 1055SOL     OW 3192   2.692   3.135   1.422
 1055SOL    HW1 3193   2.687   3.168   1.517
 1055SOL    HW2 3194   2.606   3.154   1.376
 1056SOL     OW 3195   2.125   2.188   0.720
 1056SOL    HW1 3196   2.046   2.239   0.686
 1056SOL    HW2 3197   2.116   2.173   0.818
 1057SOL     OW 3198   2.684   2.864   1.372
 1057SOL    HW1 3199   2.724   2.863   1.280
 1057SOL    HW2 3200   2.694   2.956   1.412
 1058SOL     OW 3201   2.778   2.772   0.291
 1058SOL    HW1 3202   2.841   2.810   0.223
 1058SOL    HW2 3203   2.818   2.689   0.330
 1059SOL     OW 3204   2.234   3.150   1.490
 1059SOL    HW1 3205   2.221   3.243   1.456
 1059SOL    HW2 3206   2.150   3.098   1.477
 1060SOL     OW 3207   2.901   2.960   0.696
 1060SOL    HW1 3208   2.831   2.913   0.750
 1060SOL    HW2 3209   2.960   2.892   0.653
 1061SOL     OW 3210   2.876   2.098   0.971
 1061SOL    HW1 3211   2.868   2.062   0.878
 1061SOL    HW2 3212   2.874   2.022   1.036
 1062SOL     OW 3213   1.967   2.875   1.726
 1062SOL    HW1 3214   1.890   2.842   1.780
 1062SOL    HW2 3215   2.052   2.845   1.768
 1063SOL     OW 3216   2.534   2.065   1.489
 1063SOL    HW1 3217   2.624   2.049   1.449
 1063SOL    HW2 3218   2.542   2.070   1.588
 1064SOL     OW 3219   1.937   2.207   0.033
 1064SOL    HW1 3220   1.845   2.179   0.004
 1064SOL    HW2 3221   1.968   2.284  -0.023
 1065SOL     OW 3222   3.302   2.718   1.398
 1065SOL    HW1 3223   3.245   2.770   1.335
 1065SOL    HW2 3224   3.398   2.730   1.374
 1066SOL     OW 3225   1.934   2.028   0.318
 1066SOL    HW1 3226   1.917   2.111   0.264
 1066SOL    HW2 3227   2.024   1.991   0.296
 1067SOL     OW 3228   2.475   2.704   1.431
 1067SOL    HW1 3229   2.531   2.785   1.414
 1067SOL    HW2 3230   2.534   2.624   1.434
 1068SOL     OW 3231   2.578   2.427   1.708
 1068SOL    HW1 3232   2.597   2.492   1.782
 1068SOL    HW2 3233   2.638   2.347   1.717
 1069SOL     OW 3234   3.312   3.082   1.633
 1069SOL    HW1 3235   3.303   3.072   1.732
 1069SOL    HW2 3236   3.408   3.075   1.607
 1070SOL     OW 3237   3.087   2.187   0.449
 1070SOL    HW1 3238   3.152   2.113   0.438
 1070SOL    HW2 3239   3.107   2.237   0.533
 1071SOL     OW 3240   2.456   2.607   0.652
 1071SOL    HW1 3241   2.506   2.692   0.633
 1071SOL    HW2 3242   2.368   2.609   0.604
 1072SOL     OW 3243   2.721   2.818   0.861
 1072SOL    HW1 3244   2.775   2.749   0.909
 1072SOL    HW2 3245   2.689   2.887   0.927
 1073SOL     OW 3246   2.945   2.846   0.087
 1073SOL    HW1 3247   2.922   2.899   0.005
 1073SOL    HW2 3248   3.026   2.790   0.068
 1074SOL     OW 3249   2.083   3.176   1.844
 1074SOL    HW1 3250   2.018   3.103   1.823
 1074SOL    HW2 3251   2.087   3.190   1.942
 1075SOL     OW 3252   1.941   3.102   0.653
 1075SOL    HW1 3253   1.940   3.055   0.741
 1075SOL    HW2 3254   2.023   3.074   0.602
 1076SOL     OW 3255   2.534   3.253   1.624
 1076SOL    HW1 3256   2.456   3.203   1.662
 1076SOL    HW2 3257   2.531   3.348   1.655
 1077SOL     OW 3258   2.290   2.286   0.520
 1077SOL    HW1 3259   2.320   2.214   0.458
 1077SOL    HW2 3260   2.251   2.246   0.603
 1078SOL     OW 3261   2.179   2.409   1.280
 1078SOL    HW1 3262   2.217   2.350   1.352
 1078SOL    HW2 3263   2.219   2.383   1.192
 1079SOL     OW 3264   3.286   2.076   1.112
 1079SOL    HW1 3265   3.338   2.011   1.167
 1079SOL    HW2 3266   3.237   2.139   1.173
 1080SOL     OW 3267   2.863   1.896   1.154
 1080SOL    HW1 3268   2.800   1.824   1.123
 1080SOL    HW2 3269   2.956   1.860   1.154
 1081SOL     OW 3270   2.632   3.192   0.301
 1081SOL    HW1 3271   2.586   3.105   0.318
 1081SOL    HW2 3272   2.723   3.189   0.342
 1082SOL     OW 3273   1.901   2.939   0.300
 1082SOL    HW1 3274   2.000   2.928   0.291
 1082SOL    HW2 3275   1.861   2.853   0.332
 1083SOL     OW 3276   2.092   2.490   1.975
 1083SOL    HW1 3277   1.999   2.488   2.012
 1083SOL    HW2 3278   2.093   2.451   1.883
 1084SOL     OW 3279   2.087   2.137   2.858
 1084SOL    HW1 3280   2.122   2.120   2.950
 1084SOL    HW2 3281   1.999   2.092   2.846
 1085SOL     OW 3282   1.881   2.230   2.509
 1085SOL    HW1 3283   1.799   2.273   2.548
 1085SOL    HW2 3284   1.853   2.157   2.446
 1086SOL     OW 3285   2.431   3.137   3.027
 1086SOL    HW1 3286   2.338   3.130   2.990
 1086SOL    HW2 3287   2.442   3.226   3.071
 1087SOL     OW 3288   3.417   3.373   2.565
 1087SOL    HW1 3289   3.360   3.357   2.646
 1087SOL    HW2 3290   3.358   3.383   2.485
 1088SOL     OW 3291   2.997   2.565   2.579
 1088SOL    HW1 3292   3.054   2.643   2.554
 1088SOL    HW2 3293   2.937   2.591   2.655
 1089SOL     OW 3294   2.630   3.006   2.885
 1089SOL    HW1 3295   2.552   3.023   2.945
 1089SOL    HW2 3296   2.664   3.093   2.849
 1090SOL     OW 3297   2.547   2.874   2.527
 1090SOL    HW1 3298   2.616   2.858   2.597
 1090SOL    HW2 3299   2.474   2.931   2.565
 1091SOL     OW 3300   2.197   3.297   2.923
 1091SOL    HW1 3301   2.119   3.266   2.870
 1091SOL    HW2 3302   2.255   3.355   2.866
 1092SOL     OW 3303   2.300   2.254   3.361
 1092SOL    HW1 3304   2.382   2.198   3.370
 1092SOL    HW2 3305   2.219   2.196   3.365
 1093SOL     OW 3306   2.093   3.575   2.345
 1093SOL    HW1 3307   2.127   3.652   2.399
 1093SOL    HW2 3308   2.137   3.575   2.255
 1094SOL     OW 3309   2.102   2.953   2.748
 1094SOL    HW1 3310   2.116   2.869   2.800
 1094SOL    HW2 3311   2.047   3.017   2.803
 1095SOL     OW 3312   2.468   2.826   1.985
 1095SOL    HW1 3313   2.475   2.910   1.931
 1095SOL    HW2 3314   2.514   2.839   2.073
 1096SOL     OW 3315   3.456   1.976   3.342
 1096SOL    HW1 3316   3.438   2.043   3.270
 1096SOL    HW2 3317   3.453   2.022   3.431
 1097SOL     OW 3318   1.984   2.505   2.425
 1097SOL    HW1 3319   1.939   2.417   2.442
 1097SOL    HW2 3320   1.983   2.559   2.509
 1098SOL     OW 3321   3.551   2.784   2.474
 1098SOL    HW1 3322   3.646   2.755   2.482
 1098SOL    HW2 3323   3.543   2.849   2.399
 1099SOL     OW 3324   2.475   3.227   2.588
 1099SOL    HW1 3325   2.426   3.140   2.597
 1099SOL    HW2 3326   2.452   3.270   2.501
 1100SOL     OW 3327   2.671   1.866   2.364
 1100SOL    HW1 3328   2.711   1.957   2.355
 1100SOL    HW2 3329   2.571   1.874   2.370
 1101SOL     OW 3330   2.059   2.838   3.126
 1101SOL    HW1 3331   2.148   2.793   3.112
 1101SOL    HW2 3332   1.986   2.773   3.107
 1102SOL     OW 3333   2.460   2.591   2.132
 1102SOL    HW1 3334   2.484   2.660   2.064
 1102SOL    HW2 3335   2.382   2.624   2.186
 1103SOL     OW 3336   3.143   2.207   2.806
 1103SOL    HW1 3337   3.057   2.157   2.793
 1103SOL    HW2 3338   3.205   2.153   2.862
 1104SOL     OW 3339   2.669   2.467   3.327
 1104SOL    HW1 3340   2.622   2.464   3.416
 1104SOL    HW2 3341   2.618   2.412   3.261
 1105SOL     OW 3342   2.853   2.272   3.104
 1105SOL    HW1 3343   2.776   2.306   3.158
 1105SOL    HW2 3344   2.819   2.221   3.025
 1106SOL     OW 3345   2.903   2.563   2.291
 1106SOL    HW1 3346   2.929   2.559   2.387
 1106SOL    HW2 3347   2.818   2.512   2.277
 1107SOL     OW 3348   1.938   2.673   2.651
 1107SOL    HW1 3349   2.037   2.661   2.660
 1107SOL    HW2 3350   1.914   2.768   2.672
 1108SOL     OW 3351   2.727   2.210   2.057
 1108SOL    HW1 3352   2.786   2.273   2.008
 1108SOL    HW2 3353   2.746   2.116   2.028
 1109SOL     OW 3354   3.224   3.006   2.407
 1109SOL    HW1 3355   3.307   2.977   2.359
 1109SOL    HW2 3356   3.175   3.073   2.351
 1110SOL     OW 3357   2.412   2.058   2.747
 1110SOL    HW1 3358   2.407   2.053   2.847
 1110SOL    HW2 3359   2.414   2.154   2.718
 1111SOL     OW 3360   2.183   2.805   2.104
 1111SOL    HW1 3361   2.265   2.844   2.062
 1111SOL    HW2 3362   2.156   2.723   2.055
 1112SOL     OW 3363   2.973   3.638   2.099
 1112SOL    HW1 3364   2.913   3.576   2.149
 1112SOL    HW2 3365   3.004   3.594   2.014
 1113SOL     OW 3366   2.244   2.562   2.342
 1113SOL    HW1 3367   2.289   2.472   2.339
 1113SOL    HW2 3368   2.150   2.551   2.375
 1114SOL     OW 3369   2.476   1.984   1.979
 1114SOL    HW1 3370   2.574   1.962   1.986
 1114SOL    HW2 3371   2.445   1.967   1.886
 1115SOL     OW 3372   2.784   2.365   2.761
 1115SOL    HW1 3373   2.759   2.356   2.665
 1115SOL    HW2 3374   2.832   2.283   2.792
 1116SOL     OW 3375   2.401   1.926   2.374
 1116SOL    HW1 3376   2.320   1.927   2.432
 1116SOL    HW2 3377   2.404   2.009   2.319
 1117SOL     OW 3378   3.296   3.050   1.903
 1117SOL    HW1 3379   3.328   2.974   1.960
 1117SOL    HW2 3380   3.204   3.077   1.933
 1118SOL     OW 3381   2.159   1.897   2.033
 1118SOL    HW1 3382   2.208   1.981   2.012
 1118SOL    HW2 3383   2.221   1.832   2.078
 1119SOL     OW 3384   2.797   2.098   2.342
 1119SOL    HW1 3385   2.749   2.139   2.264
 1119SOL    HW2 3386   2.896   2.096   2.323
 1120SOL     OW 3387   3.089   3.432   2.655
 1120SOL    HW1 3388   3.110   3.506   2.590
 1120SOL    HW2 3389   3.157   3.432   2.728
 1121SOL     OW 3390   2.321   3.014   2.603
 1121SOL    HW1 3391   2.250   2.987   2.668
 1121SOL    HW2 3392   2.295   2.986   2.510
 1122SOL     OW 3393   2.894   2.411   1.878
 1122SOL    HW1 3394   2.853   2.493   1.839
 1122SOL    HW2 3395   2.958   2.437   1.951
 1123SOL     OW 3396   2.423   2.084   3.009
 1123SOL    HW1 3397   2.461   2.000   3.046
 1123SOL    HW2 3398   2.335   2.103   3.053
 1124SOL     OW 3399   2.728   2.316   2.504
 1124SOL    HW1 3400   2.696   2.388   2.442
 1124SOL    HW2 3401   2.752   2.235   2.451
 1125SOL     OW 3402   2.879   1.901   2.615
 1125SOL    HW1 3403   2.807   1.906   2.546
 1125SOL    HW2 3404   2.855   1.832   2.684
 1126SOL     OW 3405   3.252   2.437   1.940
 1126SOL    HW1 3406   3.198   2.416   2.021
 1126SOL    HW2 3407   3.343   2.396   1.949
 1127SOL     OW 3408   2.389   2.118   2.190
 1127SOL    HW1 3409   2.416   2.059   2.115
 1127SOL    HW2 3410   2.389   2.213   2.159
 1128SOL     OW 3411   2.926   3.209   3.202
 1128SOL    HW1 3412   2.846   3.186   3.257
 1128SOL    HW2 3413   3.009   3.183   3.251
 1129SOL     OW 3414   2.973   3.057   2.962
 1129SOL    HW1 3415   2.933   3.101   3.043
 1129SOL    HW2 3416   2.932   3.094   2.879
 1130SOL     OW 3417   2.567   2.912   2.230
 1130SOL    HW1 3418   2.553   2.919   2.329
 1130SOL    HW2 3419   2.651   2.861   2.212
 1131SOL     OW 3420   2.272   2.675   3.113
 1131SOL    HW1 3421   2.358   2.687   3.163
 1131SOL    HW2 3422   2.230   2.588   3.140
 1132SOL     OW 3423   3.136   2.248   3.124
 1132SOL    HW1 3424   3.157   2.322   3.188
 1132SOL    HW2 3425   3.047   2.265   3.081
 1133SOL     OW 3426   2.229   2.962   2.363
 1133SOL    HW1 3427   2.222   3.045   2.307
 1133SOL    HW2 3428   2.233   2.882   2.303
 1134SOL     OW 3429   2.428   2.399   2.727
 1134SOL    HW1 3430   2.440   2.465   2.653
 1134SOL    HW2 3431   2.474   2.433   2.810
 1135SOL     OW 3432   3.114   3.210   2.250
 1135SOL    HW1 3433   3.164   3.287   2.290
 1135SOL    HW2 3434   3.019   3.212   2.282
 1136SOL     OW 3435   3.134   3.307   3.004
 1136SOL    HW1 3436   3.181   3.320   3.091
 1136SOL    HW2 3437   3.068   3.233   3.013
 1137SOL     OW 3438   2.366   1.912   3.602
 1137SOL    HW1 3439   2.324   1.855   3.532
 1137SOL    HW2 3440   2.300   1.981   3.634
 1138SOL     OW 3441   2.435   2.732   2.891
 1138SOL    HW1 3442   2.479   2.821   2.882
 1138SOL    HW2 3443   2.372   2.732   2.968
 1139SOL     OW 3444   3.222   2.724   2.907
 1139SOL    HW1 3445   3.147   2.724   2.841
 1139SOL    HW2 3446   3.259   2.632   2.916
 1140SOL     OW 3447   3.071   2.387   2.137
 1140SOL    HW1 3448   3.084   2.303   2.191
 1140SOL    HW2 3449   3.042   2.461   2.197
 1141SOL     OW 3450   2.169   2.075   3.093
 1141SOL    HW1 3451   2.146   2.112   3.183
 1141SOL    HW2 3452   2.139   1.980   3.087
 1142SOL     OW 3453   1.899   3.172   3.144
 1142SOL    HW1 3454   1.952   3.123   3.212
 1142SOL    HW2 3455   1.921   3.270   3.149
 1143SOL     OW 3456   2.594   2.496   2.926
 1143SOL    HW1 3457   2.653   2.470   2.850
 1143SOL    HW2 3458   2.566   2.592   2.915
 1144SOL     OW 3459   2.169   1.925   2.480
 1144SOL    HW1 3460   2.158   2.019   2.513
 1144SOL    HW2 3461   2.164   1.862   2.557
 1145SOL     OW 3462   3.484   2.229   2.236
 1145SOL    HW1 3463   3.486   2.153   2.300
 1145SOL    HW2 3464   3.436   2.306   2.276
 1146SOL     OW 3465   2.885   2.628   2.828
 1146SOL    HW1 3466   2.900   2.649   2.924
 1146SOL    HW2 3467   2.855   2.533   2.819
 1147SOL     OW 3468   3.165   2.700   1.904
 1147SOL    HW1 3469   3.199   2.607   1.919
 1147SOL    HW2 3470   3.183   2.727   1.809
 1148SOL     OW 3471   2.181   2.672   2.811
 1148SOL    HW1 3472   2.274   2.708   2.816
 1148SOL    HW2 3473   2.175   2.587   2.863
 1149SOL     OW 3474   2.201   2.371   2.868
 1149SOL    HW1 3475   2.149   2.288   2.851
 1149SOL    HW2 3476   2.278   2.376   2.804
 1150SOL     OW 3477   3.022   2.069   3.339
 1150SOL    HW1 3478   3.022   2.133   3.416
 1150SOL    HW2 3479   3.050   2.117   3.256
 1151SOL     OW 3480   1.870   3.188   2.062
 1151SOL    HW1 3481   1.777   3.209   2.031
 1151SOL    HW2 3482   1.880   3.089   2.075
 1152SOL     OW 3483   2.864   2.658   3.100
 1152SOL    HW1 3484   2.905   2.626   3.186
 1152SOL    HW2 3485   2.768   2.631   3.097
 1153SOL     OW 3486   1.902   2.406   2.976
 1153SOL    HW1 3487   1.987   2.373   2.935
 1153SOL    HW2 3488   1.915   2.421   3.074
 1154SOL     OW 3489   2.677   2.434   2.187
 1154SOL    HW1 3490   2.684   2.345   2.141
 1154SOL    HW2 3491   2.583   2.468   2.179
 1155SOL     OW 3492   2.533   2.326   3.131
 1155SOL    HW1 3493   2.499   2.237   3.101
 1155SOL    HW2 3494   2.559   2.380   3.051
 1156SOL     OW 3495   2.335   2.362   2.053
 1156SOL    HW1 3496   2.396   2.442   2.057
 1156SOL    HW2 3497   2.240   2.393   2.060
 1157SOL     OW 3498   2.021   2.999   3.328
 1157SOL    HW1 3499   2.043   2.938   3.404
 1157SOL    HW2 3500   2.031   2.950   3.242
 1158SOL     OW 3501   3.209   2.921   3.096
 1158SOL    HW1 3502   3.233   2.858   3.022
 1158SOL    HW2 3503   3.119   2.961   3.078
 1159SOL     OW 3504   3.164   2.717   2.171
 1159SOL    HW1 3505   3.078   2.686   2.213
 1159SOL    HW2 3506   3.160   2.703   2.072
 1160SOL     OW 3507   1.945   3.120   2.884
 1160SOL    HW1 3508   1.940   3.119   2.984
 1160SOL    HW2 3509   1.862   3.079   2.846
 1161SOL     OW 3510   3.142   2.789   2.534
 1161SOL    HW1 3511   3.202   2.708   2.536
 1161SOL    HW2 3512   3.182   2.858   2.474
 1162SOL     OW 3513   2.692   3.135   3.284
 1162SOL    HW1 3514   2.687   3.168   3.379
 1162SOL    HW2 3515   2.606   3.154   3.238
 1163SOL     OW 3516   2.125   2.188   2.582
 1163SOL    HW1 3517   2.046   2.239   2.548
 1163SOL    HW2 3518   2.116   2.173   2.680
 1164SOL     OW 3519   2.684   2.864   3.234
 1164SOL    HW1 3520   2.724   2.863   3.142
 1164SOL    HW2 3521   2.694   2.956   3.274
 1165SOL     OW 3522   2.778   2.772   2.153
 1165SOL    HW1 3523   2.841   2.810   2.085
 1165SOL    HW2 3524   2.818   2.689   2.192
 1166SOL     OW 3525   3.366   3.469   1.906
 1166SOL    HW1 3526   3.274   3.506   1.913
 1166SOL    HW2 3527   3.404   3.489   1.816
 1167SOL     OW 3528   2.234   3.150   3.352
 1167SOL    HW1 3529   2.221   3.243   3.318
 1167SOL    HW2 3530   2.150   3.098   3.339
 1168SOL     OW 3531   2.901   2.960   2.558
 1168SOL    HW1 3532   2.831   2.913   2.612
 1168SOL    HW2 3533   2.960   2.892   2.515
 1169SOL     OW 3534   2.876   2.098   2.833
 1169SOL    HW1 3535   2.868   2.062   2.740
 1169SOL    HW2 3536   2.874   2.022   2.898
 1170SOL     OW 3537   2.534   2.065   3.351
 1170SOL    HW1 3538   2.624   2.049   3.311
 1170SOL    HW2 3539   2.542   2.070   3.450
 1171SOL     OW 3540   1.934   2.028   2.180
 1171SOL    HW1 3541   1.917   2.111   2.126
 1171SOL    HW2 3542   2.024   1.991   2.158
 1172SOL     OW 3543   2.475   2.704   3.293
 1172SOL    HW1 3544   2.531   2.785   3.276
 1172SOL    HW2 3545   2.534   2.624   3.296
 1173SOL     OW 3546   3.087   2.187   2.311
 1173SOL    HW1 3547   3.152   2.113   2.300
 1173SOL    HW2 3548   3.107   2.237   2.395
 1174SOL     OW 3549   2.456   2.607   2.514
 1174SOL    HW1 3550   2.506   2.692   2.495
 1174SOL    HW2 3551   2.368   2.609   2.466
 1175SOL     OW 3552   2.721   3.236   1.878
 1175SOL    HW1 3553   2.675   3.251   1.966
 1175SOL    HW2 3554   2.765   3.321   1.848
 1176SOL     OW 3555   2.721   2.818   2.723
 1176SOL    HW1 3556   2.775   2.749   2.771
 1176SOL    HW2 3557   2.689   2.887   2.789
 1177SOL     OW 3558   2.945   2.846   1.949
 1177SOL    HW1 3559   2.922   2.899   1.867
 1177SOL    HW2 3560   3.026   2.790   1.930
 1178SOL     OW 3561   1.941   3.102   2.515
 1178SOL    HW1 3562   1.940   3.055   2.603
 1178SOL    HW2 3563   2.023   3.074   2.464
 1179SOL     OW 3564   2.290   2.286   2.382
 1179SOL    HW1 3565   2.320   2.214   2.320
 1179SOL    HW2 3566   2.251   2.246   2.465
 1180SOL     OW 3567   2.179   2.409   3.142
 1180SOL    HW1 3568   2.217   2.350   3.214
 1180SOL    HW2 3569   2.219   2.383   3.054
 1181SOL     OW 3570   3.286   2.076   2.974
 1181SOL    HW1 3571   3.338   2.011   3.029
 1181SOL    HW2 3572   3.237   2.139   3.035
 1182SOL     OW 3573   2.863   1.896   3.016
 1182SOL    HW1 3574   2.800   1.824   2.985
 1182SOL    HW2 3575   2.956   1.860   3.016
 1183SOL     OW 3576   2.632   3.192   2.163
 1183SOL    HW1 3577   2.586   3.105   2.180
 1183SOL    HW2 3578   2.723   3.189   2.204
 1184SOL     OW 3579   3.214   1.914   2.030
 1184SOL    HW1 3580   3.249   1.873   1.946
 1184SOL    HW2 3581   3.124   1.876   2.050
 1185SOL     OW 3582   1.901   2.939   2.162
 1185SOL    HW1 3583   2.000   2.928   2.153
 1185SOL    HW2 3584   1.861   2.853   2.194
   3.32001   3.32001   3.32001
