mobley_7106722_GMX.gro created by acpype (v: 2023.10.27) on Thu May 14 13:48:18 2026
 1901
    1MOL     C1    1   1.312   1.126   1.517
    1MOL     C2    2   1.449   1.387   1.193
    1MOL     C3    3   1.321   1.579   1.289
    1MOL     C4    4   1.314   1.198   1.382
    1MOL     C5    5   1.313   1.350   1.401
    1MOL     C6    6   1.322   1.428   1.268
    1MOL     H1    7   1.400   1.153   1.577
    1MOL     H2    8   1.223   1.152   1.574
    1MOL     H3    9   1.313   1.018   1.501
    1MOL     H4   10   1.449   1.279   1.173
    1MOL     H5   11   1.539   1.411   1.250
    1MOL     H6   12   1.455   1.438   1.096
    1MOL     H7   13   1.402   1.611   1.356
    1MOL     H8   14   1.335   1.632   1.194
    1MOL     H9   15   1.226   1.613   1.331
    1MOL    H10   16   1.404   1.168   1.327
    1MOL    H11   17   1.227   1.166   1.324
    1MOL    H12   18   1.222   1.380   1.455
    1MOL    H13   19   1.398   1.379   1.464
    1MOL    H14   20   1.236   1.401   1.206
    2SOL     OW   21   0.230   0.628   0.113
    2SOL    HW1   22   0.137   0.626   0.150
    2SOL    HW2   23   0.231   0.589   0.021
    3SOL     OW   24   0.225   0.275   0.996
    3SOL    HW1   25   0.260   0.258   1.088
    3SOL    HW2   26   0.137   0.230   0.984
    4SOL     OW   27   0.019   0.368   0.647
    4SOL    HW1   28  -0.063   0.411   0.686
    4SOL    HW2   29  -0.009   0.295   0.584
    5SOL     OW   30   0.569   1.275   1.165
    5SOL    HW1   31   0.476   1.268   1.128
    5SOL    HW2   32   0.580   1.364   1.209
    6SOL     OW   33   1.555   1.511   0.703
    6SOL    HW1   34   1.498   1.495   0.784
    6SOL    HW2   35   1.496   1.521   0.623
    7SOL     OW   36   1.135   0.703   0.717
    7SOL    HW1   37   1.192   0.781   0.692
    7SOL    HW2   38   1.075   0.729   0.793
    8SOL     OW   39   1.755   0.607   0.231
    8SOL    HW1   40   1.743   0.594   0.132
    8SOL    HW2   41   1.725   0.526   0.280
    9SOL     OW   42   0.768   1.144   1.023
    9SOL    HW1   43   0.690   1.161   1.083
    9SOL    HW2   44   0.802   1.231   0.987
   10SOL     OW   45   0.850   0.798   1.823
   10SOL    HW1   46   0.846   0.874   1.888
   10SOL    HW2   47   0.872   0.834   1.732
   11SOL     OW   48   0.685   1.012   0.665
   11SOL    HW1   49   0.754   0.996   0.735
   11SOL    HW2   50   0.612   1.069   0.703
   12SOL     OW   51   0.686   1.161   1.803
   12SOL    HW1   52   0.746   1.240   1.817
   12SOL    HW2   53   0.600   1.192   1.762
   13SOL     OW   54   0.335   1.435   1.061
   13SOL    HW1   55   0.257   1.404   1.008
   13SOL    HW2   56   0.393   1.493   1.004
   14SOL     OW   57   0.438   0.392   1.499
   14SOL    HW1   58   0.520   0.336   1.508
   14SOL    HW2   59   0.357   0.334   1.503
   15SOL     OW   60   1.603   0.447   0.737
   15SOL    HW1   61   1.529   0.493   0.687
   15SOL    HW2   62   1.654   0.515   0.790
   16SOL     OW   63   0.231   1.713   0.483
   16SOL    HW1   64   0.265   1.790   0.537
   16SOL    HW2   65   0.275   1.713   0.393
   17SOL     OW   66   1.127   1.341   1.690
   17SOL    HW1   67   1.174   1.341   1.778
   17SOL    HW2   68   1.079   1.254   1.679
   18SOL     OW   69   0.230   1.434   0.538
   18SOL    HW1   70   0.204   1.530   0.538
   18SOL    HW2   71   0.159   1.380   0.583
   19SOL     OW   72   0.240   1.091   0.886
   19SOL    HW1   73   0.254   1.007   0.938
   19SOL    HW2   74   0.185   1.155   0.941
   20SOL     OW   75   0.620   1.786   1.439
   20SOL    HW1   76   0.528   1.769   1.474
   20SOL    HW2   77   0.648   1.878   1.465
   21SOL     OW   78   0.606   0.964   0.123
   21SOL    HW1   79   0.613   1.048   0.069
   21SOL    HW2   80   0.652   0.977   0.211
   22SOL     OW   81   1.594   0.114   1.480
   22SOL    HW1   82   1.576   0.181   1.408
   22SOL    HW2   83   1.591   0.160   1.569
   23SOL     OW   84   0.122   0.643   0.563
   23SOL    HW1   85   0.077   0.555   0.580
   23SOL    HW2   86   0.121   0.697   0.647
   24SOL     OW   87   1.842   1.767   0.359
   24SOL    HW1   88   1.896   1.738   0.439
   24SOL    HW2   89   1.872   1.857   0.330
   25SOL     OW   90   0.027   1.596   0.117
   25SOL    HW1   91   0.008   1.500   0.138
   25SOL    HW2   92  -0.006   1.654   0.192
   26SOL     OW   93   1.689   0.922   0.612
   26SOL    HW1   94   1.784   0.893   0.620
   26SOL    HW2   95   1.681   0.987   0.537
   27SOL     OW   96   1.641   1.108   0.432
   27SOL    HW1   97   1.727   1.110   0.380
   27SOL    HW2   98   1.655   1.155   0.520
   28SOL     OW   99   0.113   0.737   1.597
   28SOL    HW1  100   0.201   0.724   1.642
   28SOL    HW2  101   0.100   0.834   1.575
   29SOL     OW  102   0.613   1.365   0.726
   29SOL    HW1  103   0.564   1.278   0.735
   29SOL    HW2  104   0.590   1.408   0.639
   30SOL     OW  105   0.809   0.004   0.502
   30SOL    HW1  106   0.849   0.095   0.493
   30SOL    HW2  107   0.709   0.012   0.508
   31SOL     OW  108   0.197   0.976   1.264
   31SOL    HW1  109   0.286   0.931   1.250
   31SOL    HW2  110   0.124   0.911   1.245
   32SOL     OW  111   1.525   0.999   0.190
   32SOL    HW1  112   1.462   0.923   0.203
   32SOL    HW2  113   1.573   1.017   0.276
   33SOL     OW  114   1.187   1.792   1.616
   33SOL    HW1  115   1.211   1.852   1.540
   33SOL    HW2  116   1.194   1.697   1.586
   34SOL     OW  117   0.317   0.251   1.801
   34SOL    HW1  118   0.388   0.322   1.807
   34SOL    HW2  119   0.229   0.290   1.829
   35SOL     OW  120   1.667   1.714   0.572
   35SOL    HW1  121   1.626   1.691   0.484
   35SOL    HW2  122   1.649   1.640   0.637
   36SOL     OW  123   0.598   0.729   0.270
   36SOL    HW1  124   0.622   0.798   0.202
   36SOL    HW2  125   0.520   0.762   0.324
   37SOL     OW  126   1.281   0.345   0.944
   37SOL    HW1  127   1.195   0.295   0.931
   37SOL    HW2  128   1.343   0.291   1.000
   38SOL     OW  129   1.576   1.662   0.307
   38SOL    HW1  130   1.665   1.708   0.310
   38SOL    HW2  131   1.555   1.638   0.212
   39SOL     OW  132   0.807   0.605   1.465
   39SOL    HW1  133   0.760   0.602   1.554
   39SOL    HW2  134   0.756   0.550   1.399
   40SOL     OW  135   1.394   0.469   1.674
   40SOL    HW1  136   1.374   0.512   1.762
   40SOL    HW2  137   1.472   0.407   1.683
   41SOL     OW  138   0.973   0.890   1.572
   41SOL    HW1  139   1.019   0.806   1.543
   41SOL    HW2  140   0.917   0.924   1.497
   42SOL     OW  141   0.991   0.410   1.242
   42SOL    HW1  142   0.914   0.444   1.296
   42SOL    HW2  143   0.957   0.359   1.163
   43SOL     OW  144   1.041   0.701   0.429
   43SOL    HW1  145   1.067   0.697   0.525
   43SOL    HW2  146   0.956   0.650   0.415
   44SOL     OW  147   0.076   0.811   0.789
   44SOL    HW1  148   0.175   0.799   0.798
   44SOL    HW2  149   0.052   0.906   0.810
   45SOL     OW  150   0.130   1.821   1.571
   45SOL    HW1  151   0.120   1.806   1.670
   45SOL    HW2  152   0.044   1.857   1.535
   46SOL     OW  153   0.865   0.348   0.195
   46SOL    HW1  154   0.924   0.411   0.146
   46SOL    HW2  155   0.884   0.254   0.166
   47SOL     OW  156   1.719   0.585   1.831
   47SOL    HW1  157   1.693   0.674   1.795
   47SOL    HW2  158   1.717   0.517   1.758
   48SOL     OW  159   1.362   1.144   0.545
   48SOL    HW1  160   1.445   1.115   0.497
   48SOL    HW2  161   1.313   1.211   0.489
   49SOL     OW  162   0.550   0.196   0.885
   49SOL    HW1  163   0.545   0.191   0.985
   49SOL    HW2  164   0.552   0.292   0.856
   50SOL     OW  165   1.008   1.456   0.477
   50SOL    HW1  166   0.962   1.528   0.425
   50SOL    HW2  167   1.004   1.476   0.575
   51SOL     OW  168   0.351   1.801   0.853
   51SOL    HW1  169   0.401   1.715   0.859
   51SOL    HW2  170   0.416   1.878   0.850
   52SOL     OW  171   1.795   1.066   0.873
   52SOL    HW1  172   1.733   1.051   0.797
   52SOL    HW2  173   1.743   1.077   0.958
   53SOL     OW  174   1.227   1.550   1.506
   53SOL    HW1  175   1.233   1.473   1.570
   53SOL    HW2  176   1.175   1.524   1.426
   54SOL     OW  177   0.321   0.943   0.242
   54SOL    HW1  178   0.403   0.982   0.200
   54SOL    HW2  179   0.294   0.861   0.193
   55SOL     OW  180   1.458   0.735   0.728
   55SOL    HW1  181   1.453   0.670   0.803
   55SOL    HW2  182   1.538   0.794   0.741
   56SOL     OW  183   0.461   1.266   1.727
   56SOL    HW1  184   0.411   1.267   1.641
   56SOL    HW2  185   0.398   1.248   1.803
   57SOL     OW  186   1.111   1.776   0.237
   57SOL    HW1  187   1.051   1.714   0.287
   57SOL    HW2  188   1.142   1.732   0.152
   58SOL     OW  189   0.202   0.285   1.498
   58SOL    HW1  190   0.122   0.345   1.485
   58SOL    HW2  191   0.192   0.236   1.584
   59SOL     OW  192   1.632   1.377   0.081
   59SOL    HW1  193   1.600   1.471   0.071
   59SOL    HW2  194   1.556   1.314   0.069
   60SOL     OW  195   0.464   1.743   0.323
   60SOL    HW1  196   0.497   1.782   0.409
   60SOL    HW2  197   0.540   1.736   0.258
   61SOL     OW  198   1.400   0.107   0.426
   61SOL    HW1  199   1.376   0.070   0.336
   61SOL    HW2  200   1.499   0.123   0.430
   62SOL     OW  201   0.249   1.785   1.241
   62SOL    HW1  202   0.306   1.720   1.291
   62SOL    HW2  203   0.233   1.752   1.148
   63SOL     OW  204   0.940   1.698   0.904
   63SOL    HW1  205   1.020   1.641   0.925
   63SOL    HW2  206   0.891   1.658   0.827
   64SOL     OW  207   0.382   0.700   0.480
   64SOL    HW1  208   0.427   0.610   0.477
   64SOL    HW2  209   0.288   0.689   0.513
   65SOL     OW  210   1.547   0.222   1.729
   65SOL    HW1  211   1.542   0.259   1.821
   65SOL    HW2  212   1.475   0.153   1.717
   66SOL     OW  213   0.614   0.122   0.117
   66SOL    HW1  214   0.712   0.100   0.124
   66SOL    HW2  215   0.583   0.105   0.024
   67SOL     OW  216   0.781   0.264   1.749
   67SOL    HW1  217   0.848   0.203   1.792
   67SOL    HW2  218   0.708   0.283   1.814
   68SOL     OW  219   0.888   1.514   1.195
   68SOL    HW1  220   0.865   1.489   1.101
   68SOL    HW2  221   0.949   1.445   1.234
   69SOL     OW  222   1.351   0.590   1.433
   69SOL    HW1  223   1.379   0.547   1.518
   69SOL    HW2  224   1.376   0.686   1.434
   70SOL     OW  225   0.803   1.402   0.924
   70SOL    HW1  226   0.893   1.416   0.882
   70SOL    HW2  227   0.732   1.404   0.853
   71SOL     OW  228   0.922   0.503   0.899
   71SOL    HW1  229   0.897   0.494   0.803
   71SOL    HW2  230   0.970   0.421   0.930
   72SOL     OW  231   0.539   0.064   0.512
   72SOL    HW1  232   0.458   0.065   0.570
   72SOL    HW2  233   0.542   0.147   0.457
   73SOL     OW  234   1.434   1.188   0.041
   73SOL    HW1  235   1.466   1.112   0.098
   73SOL    HW2  236   1.342   1.215   0.071
   74SOL     OW  237   0.297   0.035   0.171
   74SOL    HW1  238   0.346   0.119   0.150
   74SOL    HW2  239   0.359  -0.030   0.216
   75SOL     OW  240   0.935   0.236   0.480
   75SOL    HW1  241   0.887   0.277   0.402
   75SOL    HW2  242   1.034   0.234   0.461
   76SOL     OW  243   1.076   0.683   1.464
   76SOL    HW1  244   0.996   0.622   1.467
   76SOL    HW2  245   1.157   0.630   1.440
   77SOL     OW  246   1.227   1.570   0.793
   77SOL    HW1  247   1.248   1.644   0.728
   77SOL    HW2  248   1.295   1.570   0.866
   78SOL     OW  249   0.459   1.152   0.741
   78SOL    HW1  250   0.388   1.125   0.806
   78SOL    HW2  251   0.433   1.124   0.648
   79SOL     OW  252   1.271   1.797   0.591
   79SOL    HW1  253   1.315   1.861   0.527
   79SOL    HW2  254   1.221   1.849   0.661
   80SOL     OW  255   1.032   0.549   0.016
   80SOL    HW1  256   0.991   0.631  -0.023
   80SOL    HW2  257   1.096   0.575   0.089
   81SOL     OW  258   0.078   0.556   1.386
   81SOL    HW1  259   0.170   0.555   1.345
   81SOL    HW2  260   0.072   0.630   1.453
   82SOL     OW  261   0.561   0.222   1.147
   82SOL    HW1  262   0.599   0.138   1.184
   82SOL    HW2  263   0.473   0.241   1.191
   83SOL     OW  264   0.866   0.454   0.642
   83SOL    HW1  265   0.834   0.526   0.580
   83SOL    HW2  266   0.890   0.373   0.589
   84SOL     OW  267   1.017   0.039   0.753
   84SOL    HW1  268   0.945   0.044   0.684
   84SOL    HW2  269   0.993  -0.030   0.822
   85SOL     OW  270   1.429   1.173   0.867
   85SOL    HW1  271   1.374   1.089   0.860
   85SOL    HW2  272   1.455   1.202   0.775
   86SOL     OW  273   1.466   0.590   0.992
   86SOL    HW1  274   1.436   0.495   0.999
   86SOL    HW2  275   1.539   0.606   1.058
   87SOL     OW  276   1.857   0.833   0.377
   87SOL    HW1  277   1.899   0.769   0.441
   87SOL    HW2  278   1.819   0.782   0.299
   88SOL     OW  279   0.488   1.385   0.174
   88SOL    HW1  280   0.401   1.370   0.221
   88SOL    HW2  281   0.471   1.411   0.079
   89SOL     OW  282   1.664   1.280   0.657
   89SOL    HW1  283   1.763   1.288   0.671
   89SOL    HW2  284   1.619   1.364   0.688
   90SOL     OW  285   1.390   0.575   0.078
   90SOL    HW1  286   1.336   0.554   0.159
   90SOL    HW2  287   1.481   0.534   0.087
   91SOL     OW  288   0.527   0.256   0.328
   91SOL    HW1  289   0.554   0.197   0.253
   91SOL    HW2  290   0.527   0.351   0.297
   92SOL     OW  291   1.754   1.223   1.588
   92SOL    HW1  292   1.845   1.184   1.575
   92SOL    HW2  293   1.762   1.319   1.612
   93SOL     OW  294   1.592   1.629   1.625
   93SOL    HW1  295   1.619   1.663   1.535
   93SOL    HW2  296   1.671   1.591   1.671
   94SOL     OW  297   1.111   1.195   1.100
   94SOL    HW1  298   1.071   1.239   1.181
   94SOL    HW2  299   1.070   1.232   1.017
   95SOL     OW  300   1.638   1.099   1.079
   95SOL    HW1  301   1.643   1.180   1.138
   95SOL    HW2  302   1.552   1.101   1.028
   96SOL     OW  303   0.915   0.089   1.402
   96SOL    HW1  304   0.940   0.069   1.307
   96SOL    HW2  305   0.987   0.145   1.444
   97SOL     OW  306   0.980   1.116   1.719
   97SOL    HW1  307   0.881   1.122   1.729
   97SOL    HW2  308   1.003   1.036   1.663
   98SOL     OW  309   0.705   1.050   0.368
   98SOL    HW1  310   0.691   1.057   0.467
   98SOL    HW2  311   0.789   0.999   0.350
   99SOL     OW  312   0.410   0.813   1.251
   99SOL    HW1  313   0.496   0.825   1.301
   99SOL    HW2  314   0.368   0.726   1.278
  100SOL     OW  315   1.274   0.386   1.262
  100SOL    HW1  316   1.295   0.460   1.326
  100SOL    HW2  317   1.185   0.403   1.219
  101SOL     OW  318   0.064   1.564   1.331
  101SOL    HW1  319   0.018   1.646   1.297
  101SOL    HW2  320   0.162   1.583   1.340
  102SOL     OW  321   0.367   1.100   0.501
  102SOL    HW1  322   0.360   1.183   0.445
  102SOL    HW2  323   0.371   1.020   0.441
  103SOL     OW  324   0.566   0.537   0.865
  103SOL    HW1  325   0.578   0.603   0.791
  103SOL    HW2  326   0.612   0.571   0.948
  104SOL     OW  327   1.252   1.348   0.388
  104SOL    HW1  328   1.302   1.425   0.428
  104SOL    HW2  329   1.157   1.350   0.420
  105SOL     OW  330   1.582   0.639   0.472
  105SOL    HW1  331   1.551   0.700   0.545
  105SOL    HW2  332   1.632   0.691   0.403
  106SOL     OW  333   0.354   1.510   1.329
  106SOL    HW1  334   0.333   1.466   1.242
  106SOL    HW2  335   0.451   1.536   1.332
  107SOL     OW  336   0.402   0.751   1.598
  107SOL    HW1  337   0.470   0.806   1.551
  107SOL    HW2  338   0.442   0.663   1.625
  108SOL     OW  339   1.587   0.779   1.670
  108SOL    HW1  340   1.495   0.817   1.665
  108SOL    HW2  341   1.647   0.826   1.605
  109SOL     OW  342   1.013   0.105   1.770
  109SOL    HW1  343   1.019   0.190   1.718
  109SOL    HW2  344   1.045   0.029   1.713
  110SOL     OW  345   0.504   0.050   1.740
  110SOL    HW1  346   0.462  -0.007   1.670
  110SOL    HW2  347   0.438   0.119   1.772
  111SOL     OW  348   0.573   0.870   1.029
  111SOL    HW1  349   0.617   0.959   1.020
  111SOL    HW2  350   0.510   0.870   1.106
  112SOL     OW  351   1.360   0.862   1.045
  112SOL    HW1  352   1.285   0.862   0.979
  112SOL    HW2  353   1.397   0.770   1.054
  113SOL     OW  354   1.209   0.525   0.275
  113SOL    HW1  355   1.222   0.441   0.329
  113SOL    HW2  356   1.180   0.599   0.335
  114SOL     OW  357   0.307   0.213   1.231
  114SOL    HW1  358   0.284   0.250   1.321
  114SOL    HW2  359   0.277   0.118   1.225
  115SOL     OW  360   0.037   1.310   1.282
  115SOL    HW1  361   0.090   1.261   1.350
  115SOL    HW2  362   0.059   1.408   1.287
  116SOL     OW  363   0.732   0.634   1.064
  116SOL    HW1  364   0.791   0.608   0.988
  116SOL    HW2  365   0.704   0.730   1.053
  117SOL     OW  366   1.728   0.935   1.854
  117SOL    HW1  367   1.682   0.928   1.765
  117SOL    HW2  368   1.666   0.979   1.920
  118SOL     OW  369   0.307   0.063   0.618
  118SOL    HW1  370   0.296   0.157   0.651
  118SOL    HW2  371   0.302   0.000   0.695
  119SOL     OW  372   1.622   0.367   0.374
  119SOL    HW1  373   1.624   0.291   0.438
  119SOL    HW2  374   1.574   0.444   0.414
  120SOL     OW  375   1.023   0.766   0.966
  120SOL    HW1  376   1.038   0.787   1.062
  120SOL    HW2  377   0.993   0.671   0.957
  121SOL     OW  378   0.980   1.573   1.700
  121SOL    HW1  379   0.960   1.617   1.612
  121SOL    HW2  380   1.019   1.482   1.684
  122SOL     OW  381   1.859   1.518   1.605
  122SOL    HW1  382   1.873   1.545   1.510
  122SOL    HW2  383   1.942   1.540   1.658
  123SOL     OW  384   0.350   0.898   1.804
  123SOL    HW1  385   0.426   0.942   1.852
  123SOL    HW2  386   0.385   0.851   1.722
  124SOL     OW  387   1.540   0.274   0.125
  124SOL    HW1  388   1.479   0.199   0.148
  124SOL    HW2  389   1.562   0.326   0.208
  125SOL     OW  390   1.303   0.838   0.042
  125SOL    HW1  391   1.337   0.745   0.057
  125SOL    HW2  392   1.321   0.865  -0.053
  126SOL     OW  393   1.068   1.333   0.849
  126SOL    HW1  394   1.075   1.249   0.794
  126SOL    HW2  395   1.130   1.402   0.813
  127SOL     OW  396   0.319   0.810   0.949
  127SOL    HW1  397   0.412   0.846   0.954
  127SOL    HW2  398   0.313   0.725   1.001
  128SOL     OW  399   0.339   0.509   1.006
  128SOL    HW1  400   0.287   0.426   0.989
  128SOL    HW2  401   0.416   0.514   0.942
  129SOL     OW  402   1.138   0.380   1.678
  129SOL    HW1  403   1.093   0.443   1.742
  129SOL    HW2  404   1.231   0.411   1.661
  130SOL     OW  405   1.160   0.207   1.477
  130SOL    HW1  406   1.160   0.271   1.554
  130SOL    HW2  407   1.188   0.255   1.394
  131SOL     OW  408   0.008   1.326   0.200
  131SOL    HW1  409  -0.085   1.347   0.169
  131SOL    HW2  410   0.018   1.227   0.213
  132SOL     OW  411   0.088   1.801   0.927
  132SOL    HW1  412   0.046   1.715   0.900
  132SOL    HW2  413   0.182   1.804   0.893
  133SOL     OW  414   0.504   1.568   0.910
  133SOL    HW1  415   0.570   1.642   0.919
  133SOL    HW2  416   0.548   1.489   0.868
  134SOL     OW  417   1.002   0.796   1.238
  134SOL    HW1  418   1.043   0.764   1.324
  134SOL    HW2  419   0.906   0.769   1.235
  135SOL     OW  420   0.040   0.544   1.114
  135SOL    HW1  421   0.125   0.511   1.073
  135SOL    HW2  422   0.053   0.559   1.212
  136SOL     OW  423   0.189   0.520   1.722
  136SOL    HW1  424   0.248   0.480   1.652
  136SOL    HW2  425   0.131   0.591   1.681
  137SOL     OW  426   0.815   0.572   0.325
  137SOL    HW1  427   0.822   0.483   0.279
  137SOL    HW2  428   0.721   0.606   0.317
  138SOL     OW  429   1.657   0.604   1.206
  138SOL    HW1  430   1.619   0.535   1.268
  138SOL    HW2  431   1.739   0.568   1.162
  139SOL     OW  432   0.252   1.564   1.744
  139SOL    HW1  433   0.222   1.621   1.820
  139SOL    HW2  434   0.245   1.467   1.770
  140SOL     OW  435   0.671   0.464   1.269
  140SOL    HW1  436   0.637   0.375   1.239
  140SOL    HW2  437   0.697   0.518   1.189
  141SOL     OW  438   0.930   1.678   1.465
  141SOL    HW1  439   0.906   1.660   1.370
  141SOL    HW2  440   0.960   1.772   1.475
  142SOL     OW  441   0.473   0.500   0.191
  142SOL    HW1  442   0.534   0.580   0.195
  142SOL    HW2  443   0.378   0.531   0.198
  143SOL     OW  444   0.159   1.137   1.466
  143SOL    HW1  445   0.181   1.076   1.542
  143SOL    HW2  446   0.169   1.088   1.380
  144SOL     OW  447   1.302   0.855   0.309
  144SOL    HW1  448   1.216   0.824   0.351
  144SOL    HW2  449   1.298   0.841   0.210
  145SOL     OW  450   1.759   1.747   1.154
  145SOL    HW1  451   1.820   1.777   1.081
  145SOL    HW2  452   1.721   1.658   1.132
  146SOL     OW  453   0.083   1.258   1.022
  146SOL    HW1  454   0.078   1.257   1.122
  146SOL    HW2  455   0.000   1.217   0.984
  147SOL     OW  456   0.688   1.662   1.716
  147SOL    HW1  457   0.632   1.743   1.725
  147SOL    HW2  458   0.740   1.666   1.630
  148SOL     OW  459   0.903   0.086   0.133
  148SOL    HW1  460   0.954   0.087   0.047
  148SOL    HW2  461   0.959   0.044   0.204
  149SOL     OW  462   1.726   0.135   0.523
  149SOL    HW1  463   1.799   0.118   0.456
  149SOL    HW2  464   1.695   0.048   0.561
  150SOL     OW  465   1.388   1.573   0.477
  150SOL    HW1  466   1.455   1.585   0.403
  150SOL    HW2  467   1.348   1.662   0.500
  151SOL     OW  468   0.130   1.794   1.851
  151SOL    HW1  469   0.089   1.720   1.904
  151SOL    HW2  470   0.194   1.845   1.909
  152SOL     OW  471   1.280   0.927   0.672
  152SOL    HW1  472   1.340   0.846   0.674
  152SOL    HW2  473   1.320   0.996   0.612
  153SOL     OW  474   0.830   1.273   1.422
  153SOL    HW1  475   0.825   1.306   1.517
  153SOL    HW2  476   0.744   1.292   1.376
  154SOL     OW  477   0.672   1.616   0.154
  154SOL    HW1  478   0.681   1.626   0.055
  154SOL    HW2  479   0.632   1.527   0.175
  155SOL     OW  480   1.650   1.720   1.394
  155SOL    HW1  481   1.703   1.730   1.310
  155SOL    HW2  482   1.623   1.810   1.428
  156SOL     OW  483   1.841   0.175   0.963
  156SOL    HW1  484   1.880   0.090   0.927
  156SOL    HW2  485   1.743   0.177   0.944
  157SOL     OW  486   0.263   0.326   0.720
  157SOL    HW1  487   0.184   0.377   0.686
  157SOL    HW2  488   0.254   0.311   0.818
  158SOL     OW  489   1.194   1.612   0.031
  158SOL    HW1  490   1.200   1.519   0.068
  158SOL    HW2  491   1.135   1.612  -0.049
  159SOL     OW  492   0.822   1.002   1.372
  159SOL    HW1  493   0.862   1.001   1.280
  159SOL    HW2  494   0.832   1.094   1.412
  160SOL     OW  495   0.916   0.910   0.291
  160SOL    HW1  496   0.979   0.948   0.223
  160SOL    HW2  497   0.956   0.827   0.330
  161SOL     OW  498   1.504   1.607   0.044
  161SOL    HW1  499   1.412   1.644   0.051
  161SOL    HW2  500   1.542   1.627  -0.046
  162SOL     OW  501   0.372   1.288   1.490
  162SOL    HW1  502   0.359   1.381   1.456
  162SOL    HW2  503   0.288   1.236   1.477
  163SOL     OW  504   1.039   1.098   0.696
  163SOL    HW1  505   0.969   1.051   0.750
  163SOL    HW2  506   1.098   1.030   0.653
  164SOL     OW  507   1.014   0.236   0.971
  164SOL    HW1  508   1.006   0.200   0.878
  164SOL    HW2  509   1.012   0.160   1.036
  165SOL     OW  510   0.590   1.487   0.491
  165SOL    HW1  511   0.632   1.429   0.421
  165SOL    HW2  512   0.546   1.566   0.447
  166SOL     OW  513   1.709   0.385   1.381
  166SOL    HW1  514   1.782   0.454   1.385
  166SOL    HW2  515   1.737   0.310   1.322
  167SOL     OW  516   0.255   1.348   0.290
  167SOL    HW1  517   0.159   1.349   0.263
  167SOL    HW2  518   0.267   1.401   0.374
  168SOL     OW  519   0.105   1.013   1.726
  168SOL    HW1  520   0.028   0.980   1.780
  168SOL    HW2  521   0.190   0.983   1.768
  169SOL     OW  522   0.672   0.203   1.489
  169SOL    HW1  523   0.762   0.187   1.449
  169SOL    HW2  524   0.680   0.208   1.588
  170SOL     OW  525   0.075   0.345   0.033
  170SOL    HW1  526  -0.017   0.317   0.004
  170SOL    HW2  527   0.106   0.422  -0.023
  171SOL     OW  528   1.440   0.856   1.398
  171SOL    HW1  529   1.383   0.908   1.335
  171SOL    HW2  530   1.536   0.868   1.374
  172SOL     OW  531   0.072   0.166   0.318
  172SOL    HW1  532   0.055   0.249   0.264
  172SOL    HW2  533   0.162   0.129   0.296
  173SOL     OW  534   1.183   1.335   0.119
  173SOL    HW1  535   1.084   1.324   0.121
  173SOL    HW2  536   1.217   1.350   0.212
  174SOL     OW  537   0.613   0.842   1.431
  174SOL    HW1  538   0.669   0.923   1.414
  174SOL    HW2  539   0.672   0.762   1.434
  175SOL     OW  540   1.493   1.767   0.959
  175SOL    HW1  541   1.526   1.831   0.890
  175SOL    HW2  542   1.559   1.761   1.034
  176SOL     OW  543   0.716   0.565   1.708
  176SOL    HW1  544   0.735   0.630   1.782
  176SOL    HW2  545   0.776   0.485   1.717
  177SOL     OW  546   0.390   1.741   1.560
  177SOL    HW1  547   0.299   1.782   1.558
  177SOL    HW2  548   0.383   1.647   1.592
  178SOL     OW  549   1.674   0.883   1.254
  178SOL    HW1  550   1.647   0.794   1.217
  178SOL    HW2  551   1.675   0.951   1.181
  179SOL     OW  552   1.225   0.325   0.449
  179SOL    HW1  553   1.290   0.251   0.438
  179SOL    HW2  554   1.245   0.375   0.533
  180SOL     OW  555   0.594   0.745   0.652
  180SOL    HW1  556   0.644   0.830   0.633
  180SOL    HW2  557   0.506   0.747   0.604
  181SOL     OW  558   1.777   0.342   1.642
  181SOL    HW1  559   1.760   0.373   1.548
  181SOL    HW2  560   1.693   0.305   1.680
  182SOL     OW  561   1.730   0.934   1.517
  182SOL    HW1  562   1.768   1.025   1.532
  182SOL    HW2  563   1.722   0.917   1.418
  183SOL     OW  564   0.859   1.374   0.016
  183SOL    HW1  565   0.813   1.389   0.104
  183SOL    HW2  566   0.903   1.459  -0.014
  184SOL     OW  567   0.661   1.790   0.953
  184SOL    HW1  568   0.615   1.878   0.940
  184SOL    HW2  569   0.760   1.802   0.946
  185SOL     OW  570   0.859   0.956   0.861
  185SOL    HW1  571   0.913   0.887   0.909
  185SOL    HW2  572   0.827   1.025   0.927
  186SOL     OW  573   1.083   0.984   0.087
  186SOL    HW1  574   1.060   1.037   0.005
  186SOL    HW2  575   1.164   0.928   0.068
  187SOL     OW  576   1.861   1.569   0.851
  187SOL    HW1  577   1.790   1.557   0.781
  187SOL    HW2  578   1.862   1.490   0.911
  188SOL     OW  579   0.221   1.314   1.844
  188SOL    HW1  580   0.156   1.241   1.823
  188SOL    HW2  581   0.225   1.328   1.942
  189SOL     OW  582   0.079   1.240   0.653
  189SOL    HW1  583   0.078   1.193   0.741
  189SOL    HW2  584   0.161   1.212   0.602
  190SOL     OW  585   0.672   1.391   1.624
  190SOL    HW1  586   0.594   1.341   1.662
  190SOL    HW2  587   0.669   1.486   1.655
  191SOL     OW  588   1.824   0.192   1.227
  191SOL    HW1  589   1.820   0.102   1.271
  191SOL    HW2  590   1.827   0.181   1.128
  192SOL     OW  591   0.428   0.424   0.520
  192SOL    HW1  592   0.458   0.352   0.458
  192SOL    HW2  593   0.389   0.384   0.603
  193SOL     OW  594   1.705   1.487   1.104
  193SOL    HW1  595   1.612   1.462   1.077
  193SOL    HW2  596   1.731   1.437   1.186
  194SOL     OW  597   0.317   0.547   1.280
  194SOL    HW1  598   0.355   0.488   1.352
  194SOL    HW2  599   0.357   0.521   1.192
  195SOL     OW  600   0.812   1.586   0.687
  195SOL    HW1  601   0.844   1.596   0.593
  195SOL    HW2  602   0.733   1.524   0.689
  196SOL     OW  603   1.424   0.214   1.112
  196SOL    HW1  604   1.476   0.149   1.167
  196SOL    HW2  605   1.375   0.277   1.173
  197SOL     OW  606   1.001   0.034   1.154
  197SOL    HW1  607   0.938  -0.038   1.123
  197SOL    HW2  608   1.094  -0.002   1.154
  198SOL     OW  609   0.770   1.330   0.301
  198SOL    HW1  610   0.724   1.243   0.318
  198SOL    HW2  611   0.861   1.327   0.342
  199SOL     OW  612   0.618   1.567   1.284
  199SOL    HW1  613   0.613   1.649   1.341
  199SOL    HW2  614   0.707   1.564   1.239
  200SOL     OW  615   1.352   0.052   0.168
  200SOL    HW1  616   1.387   0.011   0.084
  200SOL    HW2  617   1.262   0.014   0.188
  201SOL     OW  618   1.300   0.453   0.691
  201SOL    HW1  619   1.241   0.533   0.695
  201SOL    HW2  620   1.315   0.418   0.784
  202SOL     OW  621   1.593   0.221   0.882
  202SOL    HW1  622   1.509   0.220   0.936
  202SOL    HW2  623   1.595   0.304   0.826
  203SOL     OW  624   0.039   1.077   0.300
  203SOL    HW1  625   0.138   1.066   0.291
  203SOL    HW2  626  -0.001   0.991   0.332
  204SOL     OW  627   0.875   1.646   0.337
  204SOL    HW1  628   0.798   1.611   0.283
  204SOL    HW2  629   0.843   1.717   0.399
  205SOL     OW  630   0.230   0.628   1.975
  205SOL    HW1  631   0.137   0.626   2.012
  205SOL    HW2  632   0.231   0.589   1.883
  206SOL     OW  633   0.019   0.368   2.509
  206SOL    HW1  634  -0.063   0.411   2.548
  206SOL    HW2  635  -0.009   0.295   2.446
  207SOL     OW  636   1.755   0.607   2.093
  207SOL    HW1  637   1.743   0.594   1.994
  207SOL    HW2  638   1.725   0.526   2.142
  208SOL     OW  639   0.685   1.012   2.527
  208SOL    HW1  640   0.754   0.996   2.597
  208SOL    HW2  641   0.612   1.069   2.565
  209SOL     OW  642   1.603   0.447   2.599
  209SOL    HW1  643   1.529   0.493   2.549
  209SOL    HW2  644   1.654   0.515   2.652
  210SOL     OW  645   0.231   1.713   2.345
  210SOL    HW1  646   0.265   1.790   2.399
  210SOL    HW2  647   0.275   1.713   2.255
  211SOL     OW  648   0.230   1.434   2.400
  211SOL    HW1  649   0.204   1.530   2.400
  211SOL    HW2  650   0.159   1.380   2.445
  212SOL     OW  651   0.240   1.091   2.748
  212SOL    HW1  652   0.254   1.007   2.800
  212SOL    HW2  653   0.185   1.155   2.803
  213SOL     OW  654   0.606   0.964   1.985
  213SOL    HW1  655   0.613   1.048   1.931
  213SOL    HW2  656   0.652   0.977   2.073
  214SOL     OW  657   0.122   0.643   2.425
  214SOL    HW1  658   0.077   0.555   2.442
  214SOL    HW2  659   0.121   0.697   2.509
  215SOL     OW  660   1.842   1.767   2.221
  215SOL    HW1  661   1.896   1.738   2.301
  215SOL    HW2  662   1.872   1.857   2.192
  216SOL     OW  663   0.027   1.596   1.979
  216SOL    HW1  664   0.008   1.500   2.000
  216SOL    HW2  665  -0.006   1.654   2.054
  217SOL     OW  666   1.689   0.922   2.474
  217SOL    HW1  667   1.784   0.893   2.482
  217SOL    HW2  668   1.681   0.987   2.399
  218SOL     OW  669   1.641   1.108   2.294
  218SOL    HW1  670   1.727   1.110   2.242
  218SOL    HW2  671   1.655   1.155   2.382
  219SOL     OW  672   0.613   1.365   2.588
  219SOL    HW1  673   0.564   1.278   2.597
  219SOL    HW2  674   0.590   1.408   2.501
  220SOL     OW  675   0.809   0.004   2.364
  220SOL    HW1  676   0.849   0.095   2.355
  220SOL    HW2  677   0.709   0.012   2.370
  221SOL     OW  678   1.525   0.999   2.052
  221SOL    HW1  679   1.462   0.923   2.065
  221SOL    HW2  680   1.573   1.017   2.138
  222SOL     OW  681   1.667   1.714   2.434
  222SOL    HW1  682   1.626   1.691   2.346
  222SOL    HW2  683   1.649   1.640   2.499
  223SOL     OW  684   0.598   0.729   2.132
  223SOL    HW1  685   0.622   0.798   2.064
  223SOL    HW2  686   0.520   0.762   2.186
  224SOL     OW  687   1.281   0.345   2.806
  224SOL    HW1  688   1.195   0.295   2.793
  224SOL    HW2  689   1.343   0.291   2.862
  225SOL     OW  690   1.576   1.662   2.169
  225SOL    HW1  691   1.665   1.708   2.172
  225SOL    HW2  692   1.555   1.638   2.074
  226SOL     OW  693   1.041   0.701   2.291
  226SOL    HW1  694   1.067   0.697   2.387
  226SOL    HW2  695   0.956   0.650   2.277
  227SOL     OW  696   0.076   0.811   2.651
  227SOL    HW1  697   0.175   0.799   2.660
  227SOL    HW2  698   0.052   0.906   2.672
  228SOL     OW  699   0.865   0.348   2.057
  228SOL    HW1  700   0.924   0.411   2.008
  228SOL    HW2  701   0.884   0.254   2.028
  229SOL     OW  702   1.362   1.144   2.407
  229SOL    HW1  703   1.445   1.115   2.359
  229SOL    HW2  704   1.313   1.211   2.351
  230SOL     OW  705   1.008   1.456   2.339
  230SOL    HW1  706   0.962   1.528   2.287
  230SOL    HW2  707   1.004   1.476   2.437
  231SOL     OW  708   0.351   1.801   2.715
  231SOL    HW1  709   0.401   1.715   2.721
  231SOL    HW2  710   0.416   1.878   2.712
  232SOL     OW  711   1.795   1.066   2.735
  232SOL    HW1  712   1.733   1.051   2.659
  232SOL    HW2  713   1.743   1.077   2.820
  233SOL     OW  714   0.321   0.943   2.104
  233SOL    HW1  715   0.403   0.982   2.062
  233SOL    HW2  716   0.294   0.861   2.055
  234SOL     OW  717   1.111   1.776   2.099
  234SOL    HW1  718   1.051   1.714   2.149
  234SOL    HW2  719   1.142   1.732   2.014
  235SOL     OW  720   1.632   1.377   1.943
  235SOL    HW1  721   1.600   1.471   1.933
  235SOL    HW2  722   1.556   1.314   1.931
  236SOL     OW  723   0.464   1.743   2.185
  236SOL    HW1  724   0.497   1.782   2.271
  236SOL    HW2  725   0.540   1.736   2.120
  237SOL     OW  726   1.400   0.107   2.288
  237SOL    HW1  727   1.376   0.070   2.198
  237SOL    HW2  728   1.499   0.123   2.292
  238SOL     OW  729   0.940   1.698   2.766
  238SOL    HW1  730   1.020   1.641   2.787
  238SOL    HW2  731   0.891   1.658   2.689
  239SOL     OW  732   0.382   0.700   2.342
  239SOL    HW1  733   0.427   0.610   2.339
  239SOL    HW2  734   0.288   0.689   2.375
  240SOL     OW  735   0.614   0.122   1.979
  240SOL    HW1  736   0.712   0.100   1.986
  240SOL    HW2  737   0.583   0.105   1.886
  241SOL     OW  738   0.539   0.064   2.374
  241SOL    HW1  739   0.458   0.065   2.432
  241SOL    HW2  740   0.542   0.147   2.319
  242SOL     OW  741   1.434   1.188   1.903
  242SOL    HW1  742   1.466   1.112   1.960
  242SOL    HW2  743   1.342   1.215   1.933
  243SOL     OW  744   0.297   0.035   2.033
  243SOL    HW1  745   0.346   0.119   2.012
  243SOL    HW2  746   0.359  -0.030   2.078
  244SOL     OW  747   0.935   0.236   2.342
  244SOL    HW1  748   0.887   0.277   2.264
  244SOL    HW2  749   1.034   0.234   2.323
  245SOL     OW  750   0.459   1.152   2.603
  245SOL    HW1  751   0.388   1.125   2.668
  245SOL    HW2  752   0.433   1.124   2.510
  246SOL     OW  753   1.271   1.797   2.453
  246SOL    HW1  754   1.315   1.861   2.389
  246SOL    HW2  755   1.221   1.849   2.523
  247SOL     OW  756   1.032   0.549   1.878
  247SOL    HW1  757   0.991   0.631   1.839
  247SOL    HW2  758   1.096   0.575   1.951
  248SOL     OW  759   0.866   0.454   2.504
  248SOL    HW1  760   0.834   0.526   2.442
  248SOL    HW2  761   0.890   0.373   2.451
  249SOL     OW  762   1.857   0.833   2.239
  249SOL    HW1  763   1.899   0.769   2.303
  249SOL    HW2  764   1.819   0.782   2.161
  250SOL     OW  765   0.488   1.385   2.036
  250SOL    HW1  766   0.401   1.370   2.083
  250SOL    HW2  767   0.471   1.411   1.941
  251SOL     OW  768   1.664   1.280   2.519
  251SOL    HW1  769   1.763   1.288   2.533
  251SOL    HW2  770   1.619   1.364   2.550
  252SOL     OW  771   1.390   0.575   1.940
  252SOL    HW1  772   1.336   0.554   2.021
  252SOL    HW2  773   1.481   0.534   1.949
  253SOL     OW  774   0.527   0.256   2.190
  253SOL    HW1  775   0.554   0.197   2.115
  253SOL    HW2  776   0.527   0.351   2.159
  254SOL     OW  777   0.705   1.050   2.230
  254SOL    HW1  778   0.691   1.057   2.329
  254SOL    HW2  779   0.789   0.999   2.212
  255SOL     OW  780   0.367   1.100   2.363
  255SOL    HW1  781   0.360   1.183   2.307
  255SOL    HW2  782   0.371   1.020   2.303
  256SOL     OW  783   1.252   1.348   2.250
  256SOL    HW1  784   1.302   1.425   2.290
  256SOL    HW2  785   1.157   1.350   2.282
  257SOL     OW  786   1.582   0.639   2.334
  257SOL    HW1  787   1.551   0.700   2.407
  257SOL    HW2  788   1.632   0.691   2.265
  258SOL     OW  789   1.209   0.525   2.137
  258SOL    HW1  790   1.222   0.441   2.191
  258SOL    HW2  791   1.180   0.599   2.197
  259SOL     OW  792   0.307   0.063   2.480
  259SOL    HW1  793   0.296   0.157   2.513
  259SOL    HW2  794   0.302   0.000   2.557
  260SOL     OW  795   1.622   0.367   2.236
  260SOL    HW1  796   1.624   0.291   2.300
  260SOL    HW2  797   1.574   0.444   2.276
  261SOL     OW  798   1.540   0.274   1.987
  261SOL    HW1  799   1.479   0.199   2.010
  261SOL    HW2  800   1.562   0.326   2.070
  262SOL     OW  801   1.303   0.838   1.904
  262SOL    HW1  802   1.337   0.745   1.919
  262SOL    HW2  803   1.321   0.865   1.809
  263SOL     OW  804   0.008   1.326   2.062
  263SOL    HW1  805  -0.085   1.347   2.031
  263SOL    HW2  806   0.018   1.227   2.075
  264SOL     OW  807   0.040   0.544   2.976
  264SOL    HW1  808   0.125   0.511   2.935
  264SOL    HW2  809   0.053   0.559   3.074
  265SOL     OW  810   0.815   0.572   2.187
  265SOL    HW1  811   0.822   0.483   2.141
  265SOL    HW2  812   0.721   0.606   2.179
  266SOL     OW  813   0.473   0.500   2.053
  266SOL    HW1  814   0.534   0.580   2.057
  266SOL    HW2  815   0.378   0.531   2.060
  267SOL     OW  816   1.302   0.855   2.171
  267SOL    HW1  817   1.216   0.824   2.213
  267SOL    HW2  818   1.298   0.841   2.072
  268SOL     OW  819   1.726   0.135   2.385
  268SOL    HW1  820   1.799   0.118   2.318
  268SOL    HW2  821   1.695   0.048   2.423
  269SOL     OW  822   1.388   1.573   2.339
  269SOL    HW1  823   1.455   1.585   2.265
  269SOL    HW2  824   1.348   1.662   2.362
  270SOL     OW  825   0.672   1.616   2.016
  270SOL    HW1  826   0.681   1.626   1.917
  270SOL    HW2  827   0.632   1.527   2.037
  271SOL     OW  828   1.841   0.175   2.825
  271SOL    HW1  829   1.880   0.090   2.789
  271SOL    HW2  830   1.743   0.177   2.806
  272SOL     OW  831   0.263   0.326   2.582
  272SOL    HW1  832   0.184   0.377   2.548
  272SOL    HW2  833   0.254   0.311   2.680
  273SOL     OW  834   1.194   1.612   1.893
  273SOL    HW1  835   1.200   1.519   1.930
  273SOL    HW2  836   1.135   1.612   1.813
  274SOL     OW  837   0.916   0.910   2.153
  274SOL    HW1  838   0.979   0.948   2.085
  274SOL    HW2  839   0.956   0.827   2.192
  275SOL     OW  840   1.504   1.607   1.906
  275SOL    HW1  841   1.412   1.644   1.913
  275SOL    HW2  842   1.542   1.627   1.816
  276SOL     OW  843   0.590   1.487   2.353
  276SOL    HW1  844   0.632   1.429   2.283
  276SOL    HW2  845   0.546   1.566   2.309
  277SOL     OW  846   0.255   1.348   2.152
  277SOL    HW1  847   0.159   1.349   2.125
  277SOL    HW2  848   0.267   1.401   2.236
  278SOL     OW  849   0.075   0.345   1.895
  278SOL    HW1  850  -0.017   0.317   1.866
  278SOL    HW2  851   0.106   0.422   1.839
  279SOL     OW  852   0.072   0.166   2.180
  279SOL    HW1  853   0.055   0.249   2.126
  279SOL    HW2  854   0.162   0.129   2.158
  280SOL     OW  855   1.183   1.335   1.981
  280SOL    HW1  856   1.084   1.324   1.983
  280SOL    HW2  857   1.217   1.350   2.074
  281SOL     OW  858   1.225   0.325   2.311
  281SOL    HW1  859   1.290   0.251   2.300
  281SOL    HW2  860   1.245   0.375   2.395
  282SOL     OW  861   0.594   0.745   2.514
  282SOL    HW1  862   0.644   0.830   2.495
  282SOL    HW2  863   0.506   0.747   2.466
  283SOL     OW  864   0.859   1.374   1.878
  283SOL    HW1  865   0.813   1.389   1.966
  283SOL    HW2  866   0.903   1.459   1.848
  284SOL     OW  867   0.661   1.790   2.815
  284SOL    HW1  868   0.615   1.878   2.802
  284SOL    HW2  869   0.760   1.802   2.808
  285SOL     OW  870   0.859   0.956   2.723
  285SOL    HW1  871   0.913   0.887   2.771
  285SOL    HW2  872   0.827   1.025   2.789
  286SOL     OW  873   1.083   0.984   1.949
  286SOL    HW1  874   1.060   1.037   1.867
  286SOL    HW2  875   1.164   0.928   1.930
  287SOL     OW  876   0.079   1.240   2.515
  287SOL    HW1  877   0.078   1.193   2.603
  287SOL    HW2  878   0.161   1.212   2.464
  288SOL     OW  879   0.428   0.424   2.382
  288SOL    HW1  880   0.458   0.352   2.320
  288SOL    HW2  881   0.389   0.384   2.465
  289SOL     OW  882   1.705   1.487   2.966
  289SOL    HW1  883   1.612   1.462   2.939
  289SOL    HW2  884   1.731   1.437   3.048
  290SOL     OW  885   0.812   1.586   2.549
  290SOL    HW1  886   0.844   1.596   2.455
  290SOL    HW2  887   0.733   1.524   2.551
  291SOL     OW  888   0.770   1.330   2.163
  291SOL    HW1  889   0.724   1.243   2.180
  291SOL    HW2  890   0.861   1.327   2.204
  292SOL     OW  891   1.352   0.052   2.030
  292SOL    HW1  892   1.387   0.011   1.946
  292SOL    HW2  893   1.262   0.014   2.050
  293SOL     OW  894   1.300   0.453   2.553
  293SOL    HW1  895   1.241   0.533   2.557
  293SOL    HW2  896   1.315   0.418   2.646
  294SOL     OW  897   0.039   1.077   2.162
  294SOL    HW1  898   0.138   1.066   2.153
  294SOL    HW2  899  -0.001   0.991   2.194
  295SOL     OW  900   0.875   1.646   2.199
  295SOL    HW1  901   0.798   1.611   2.145
  295SOL    HW2  902   0.843   1.717   2.261
  296SOL     OW  903   0.230   2.490   0.113
  296SOL    HW1  904   0.137   2.488   0.150
  296SOL    HW2  905   0.231   2.451   0.021
  297SOL     OW  906   0.225   2.137   0.996
  297SOL    HW1  907   0.260   2.120   1.088
  297SOL    HW2  908   0.137   2.092   0.984
  298SOL     OW  909   0.019   2.230   0.647
  298SOL    HW1  910  -0.063   2.273   0.686
  298SOL    HW2  911  -0.009   2.157   0.584
  299SOL     OW  912   1.755   2.469   0.231
  299SOL    HW1  913   1.743   2.456   0.132
  299SOL    HW2  914   1.725   2.388   0.280
  300SOL     OW  915   0.850   2.660   1.823
  300SOL    HW1  916   0.846   2.736   1.888
  300SOL    HW2  917   0.872   2.696   1.732
  301SOL     OW  918   0.685   2.874   0.665
  301SOL    HW1  919   0.754   2.858   0.735
  301SOL    HW2  920   0.612   2.931   0.703
  302SOL     OW  921   0.438   2.254   1.499
  302SOL    HW1  922   0.520   2.198   1.508
  302SOL    HW2  923   0.357   2.196   1.503
  303SOL     OW  924   1.603   2.309   0.737
  303SOL    HW1  925   1.529   2.355   0.687
  303SOL    HW2  926   1.654   2.377   0.790
  304SOL     OW  927   1.594   1.976   1.480
  304SOL    HW1  928   1.576   2.043   1.408
  304SOL    HW2  929   1.591   2.022   1.569
  305SOL     OW  930   0.122   2.505   0.563
  305SOL    HW1  931   0.077   2.417   0.580
  305SOL    HW2  932   0.121   2.559   0.647
  306SOL     OW  933   0.113   2.599   1.597
  306SOL    HW1  934   0.201   2.586   1.642
  306SOL    HW2  935   0.100   2.696   1.575
  307SOL     OW  936   0.809   1.866   0.502
  307SOL    HW1  937   0.849   1.957   0.493
  307SOL    HW2  938   0.709   1.874   0.508
  308SOL     OW  939   0.317   2.113   1.801
  308SOL    HW1  940   0.388   2.184   1.807
  308SOL    HW2  941   0.229   2.152   1.829
  309SOL     OW  942   0.598   2.591   0.270
  309SOL    HW1  943   0.622   2.660   0.202
  309SOL    HW2  944   0.520   2.624   0.324
  310SOL     OW  945   1.281   2.207   0.944
  310SOL    HW1  946   1.195   2.157   0.931
  310SOL    HW2  947   1.343   2.153   1.000
  311SOL     OW  948   0.807   2.467   1.465
  311SOL    HW1  949   0.760   2.464   1.554
  311SOL    HW2  950   0.756   2.412   1.399
  312SOL     OW  951   1.394   2.331   1.674
  312SOL    HW1  952   1.374   2.374   1.762
  312SOL    HW2  953   1.472   2.269   1.683
  313SOL     OW  954   0.991   2.272   1.242
  313SOL    HW1  955   0.914   2.306   1.296
  313SOL    HW2  956   0.957   2.221   1.163
  314SOL     OW  957   1.041   2.563   0.429
  314SOL    HW1  958   1.067   2.559   0.525
  314SOL    HW2  959   0.956   2.512   0.415
  315SOL     OW  960   0.076   2.673   0.789
  315SOL    HW1  961   0.175   2.661   0.798
  315SOL    HW2  962   0.052   2.768   0.810
  316SOL     OW  963   0.865   2.210   0.195
  316SOL    HW1  964   0.924   2.273   0.146
  316SOL    HW2  965   0.884   2.116   0.166
  317SOL     OW  966   1.719   2.447   1.831
  317SOL    HW1  967   1.693   2.536   1.795
  317SOL    HW2  968   1.717   2.379   1.758
  318SOL     OW  969   0.550   2.058   0.885
  318SOL    HW1  970   0.545   2.053   0.985
  318SOL    HW2  971   0.552   2.154   0.856
  319SOL     OW  972   1.458   2.597   0.728
  319SOL    HW1  973   1.453   2.532   0.803
  319SOL    HW2  974   1.538   2.656   0.741
  320SOL     OW  975   0.202   2.147   1.498
  320SOL    HW1  976   0.122   2.207   1.485
  320SOL    HW2  977   0.192   2.098   1.584
  321SOL     OW  978   1.400   1.969   0.426
  321SOL    HW1  979   1.376   1.932   0.336
  321SOL    HW2  980   1.499   1.985   0.430
  322SOL     OW  981   0.382   2.562   0.480
  322SOL    HW1  982   0.427   2.472   0.477
  322SOL    HW2  983   0.288   2.551   0.513
  323SOL     OW  984   1.547   2.084   1.729
  323SOL    HW1  985   1.542   2.121   1.821
  323SOL    HW2  986   1.475   2.015   1.717
  324SOL     OW  987   0.781   2.126   1.749
  324SOL    HW1  988   0.848   2.065   1.792
  324SOL    HW2  989   0.708   2.145   1.814
  325SOL     OW  990   1.351   2.452   1.433
  325SOL    HW1  991   1.379   2.409   1.518
  325SOL    HW2  992   1.376   2.548   1.434
  326SOL     OW  993   0.922   2.365   0.899
  326SOL    HW1  994   0.897   2.356   0.803
  326SOL    HW2  995   0.970   2.283   0.930
  327SOL     OW  996   0.539   1.926   0.512
  327SOL    HW1  997   0.458   1.927   0.570
  327SOL    HW2  998   0.542   2.009   0.457
  328SOL     OW  999   0.297   1.897   0.171
  328SOL    HW1 1000   0.346   1.981   0.150
  328SOL    HW2 1001   0.359   1.832   0.216
  329SOL     OW 1002   0.935   2.098   0.480
  329SOL    HW1 1003   0.887   2.139   0.402
  329SOL    HW2 1004   1.034   2.096   0.461
  330SOL     OW 1005   1.076   2.545   1.464
  330SOL    HW1 1006   0.996   2.484   1.467
  330SOL    HW2 1007   1.157   2.492   1.440
  331SOL     OW 1008   1.032   2.411   0.016
  331SOL    HW1 1009   0.991   2.493  -0.023
  331SOL    HW2 1010   1.096   2.437   0.089
  332SOL     OW 1011   0.078   2.418   1.386
  332SOL    HW1 1012   0.170   2.417   1.345
  332SOL    HW2 1013   0.072   2.492   1.453
  333SOL     OW 1014   0.561   2.084   1.147
  333SOL    HW1 1015   0.599   2.000   1.184
  333SOL    HW2 1016   0.473   2.103   1.191
  334SOL     OW 1017   0.866   2.316   0.642
  334SOL    HW1 1018   0.834   2.388   0.580
  334SOL    HW2 1019   0.890   2.235   0.589
  335SOL     OW 1020   1.017   1.901   0.753
  335SOL    HW1 1021   0.945   1.906   0.684
  335SOL    HW2 1022   0.993   1.832   0.822
  336SOL     OW 1023   1.466   2.452   0.992
  336SOL    HW1 1024   1.436   2.357   0.999
  336SOL    HW2 1025   1.539   2.468   1.058
  337SOL     OW 1026   1.390   2.437   0.078
  337SOL    HW1 1027   1.336   2.416   0.159
  337SOL    HW2 1028   1.481   2.396   0.087
  338SOL     OW 1029   0.527   2.118   0.328
  338SOL    HW1 1030   0.554   2.059   0.253
  338SOL    HW2 1031   0.527   2.213   0.297
  339SOL     OW 1032   0.915   1.951   1.402
  339SOL    HW1 1033   0.940   1.931   1.307
  339SOL    HW2 1034   0.987   2.007   1.444
  340SOL     OW 1035   0.705   2.912   0.368
  340SOL    HW1 1036   0.691   2.919   0.467
  340SOL    HW2 1037   0.789   2.861   0.350
  341SOL     OW 1038   0.410   2.675   1.251
  341SOL    HW1 1039   0.496   2.687   1.301
  341SOL    HW2 1040   0.368   2.588   1.278
  342SOL     OW 1041   1.274   2.248   1.262
  342SOL    HW1 1042   1.295   2.322   1.326
  342SOL    HW2 1043   1.185   2.265   1.219
  343SOL     OW 1044   0.566   2.399   0.865
  343SOL    HW1 1045   0.578   2.465   0.791
  343SOL    HW2 1046   0.612   2.433   0.948
  344SOL     OW 1047   1.582   2.501   0.472
  344SOL    HW1 1048   1.551   2.562   0.545
  344SOL    HW2 1049   1.632   2.553   0.403
  345SOL     OW 1050   1.587   2.641   1.670
  345SOL    HW1 1051   1.495   2.679   1.665
  345SOL    HW2 1052   1.647   2.688   1.605
  346SOL     OW 1053   1.013   1.967   1.770
  346SOL    HW1 1054   1.019   2.052   1.718
  346SOL    HW2 1055   1.045   1.891   1.713
  347SOL     OW 1056   0.504   1.912   1.740
  347SOL    HW1 1057   0.462   1.855   1.670
  347SOL    HW2 1058   0.438   1.981   1.772
  348SOL     OW 1059   1.360   2.724   1.045
  348SOL    HW1 1060   1.285   2.724   0.979
  348SOL    HW2 1061   1.397   2.632   1.054
  349SOL     OW 1062   1.209   2.387   0.275
  349SOL    HW1 1063   1.222   2.303   0.329
  349SOL    HW2 1064   1.180   2.461   0.335
  350SOL     OW 1065   0.307   2.075   1.231
  350SOL    HW1 1066   0.284   2.112   1.321
  350SOL    HW2 1067   0.277   1.980   1.225
  351SOL     OW 1068   0.732   2.496   1.064
  351SOL    HW1 1069   0.791   2.470   0.988
  351SOL    HW2 1070   0.704   2.592   1.053
  352SOL     OW 1071   1.728   2.797   1.854
  352SOL    HW1 1072   1.682   2.790   1.765
  352SOL    HW2 1073   1.666   2.841   1.920
  353SOL     OW 1074   0.307   1.925   0.618
  353SOL    HW1 1075   0.296   2.019   0.651
  353SOL    HW2 1076   0.302   1.862   0.695
  354SOL     OW 1077   1.622   2.229   0.374
  354SOL    HW1 1078   1.624   2.153   0.438
  354SOL    HW2 1079   1.574   2.306   0.414
  355SOL     OW 1080   1.540   2.136   0.125
  355SOL    HW1 1081   1.479   2.061   0.148
  355SOL    HW2 1082   1.562   2.188   0.208
  356SOL     OW 1083   0.319   2.672   0.949
  356SOL    HW1 1084   0.412   2.708   0.954
  356SOL    HW2 1085   0.313   2.587   1.001
  357SOL     OW 1086   0.339   2.371   1.006
  357SOL    HW1 1087   0.287   2.288   0.989
  357SOL    HW2 1088   0.416   2.376   0.942
  358SOL     OW 1089   1.138   2.242   1.678
  358SOL    HW1 1090   1.093   2.305   1.742
  358SOL    HW2 1091   1.231   2.273   1.661
  359SOL     OW 1092   1.160   2.069   1.477
  359SOL    HW1 1093   1.160   2.133   1.554
  359SOL    HW2 1094   1.188   2.117   1.394
  360SOL     OW 1095   0.040   2.406   1.114
  360SOL    HW1 1096   0.125   2.373   1.073
  360SOL    HW2 1097   0.053   2.421   1.212
  361SOL     OW 1098   0.189   2.382   1.722
  361SOL    HW1 1099   0.248   2.342   1.652
  361SOL    HW2 1100   0.131   2.453   1.681
  362SOL     OW 1101   0.815   2.434   0.325
  362SOL    HW1 1102   0.822   2.345   0.279
  362SOL    HW2 1103   0.721   2.468   0.317
  363SOL     OW 1104   1.657   2.466   1.206
  363SOL    HW1 1105   1.619   2.397   1.268
  363SOL    HW2 1106   1.739   2.430   1.162
  364SOL     OW 1107   0.671   2.326   1.269
  364SOL    HW1 1108   0.637   2.237   1.239
  364SOL    HW2 1109   0.697   2.380   1.189
  365SOL     OW 1110   0.473   2.362   0.191
  365SOL    HW1 1111   0.534   2.442   0.195
  365SOL    HW2 1112   0.378   2.393   0.198
  366SOL     OW 1113   0.903   1.948   0.133
  366SOL    HW1 1114   0.954   1.949   0.047
  366SOL    HW2 1115   0.959   1.906   0.204
  367SOL     OW 1116   1.726   1.997   0.523
  367SOL    HW1 1117   1.799   1.980   0.456
  367SOL    HW2 1118   1.695   1.910   0.561
  368SOL     OW 1119   1.280   2.789   0.672
  368SOL    HW1 1120   1.340   2.708   0.674
  368SOL    HW2 1121   1.320   2.858   0.612
  369SOL     OW 1122   1.841   2.037   0.963
  369SOL    HW1 1123   1.880   1.952   0.927
  369SOL    HW2 1124   1.743   2.039   0.944
  370SOL     OW 1125   0.263   2.188   0.720
  370SOL    HW1 1126   0.184   2.239   0.686
  370SOL    HW2 1127   0.254   2.173   0.818
  371SOL     OW 1128   1.014   2.098   0.971
  371SOL    HW1 1129   1.006   2.062   0.878
  371SOL    HW2 1130   1.012   2.022   1.036
  372SOL     OW 1131   1.709   2.247   1.381
  372SOL    HW1 1132   1.782   2.316   1.385
  372SOL    HW2 1133   1.737   2.172   1.322
  373SOL     OW 1134   0.105   2.875   1.726
  373SOL    HW1 1135   0.028   2.842   1.780
  373SOL    HW2 1136   0.190   2.845   1.768
  374SOL     OW 1137   0.672   2.065   1.489
  374SOL    HW1 1138   0.762   2.049   1.449
  374SOL    HW2 1139   0.680   2.070   1.588
  375SOL     OW 1140   0.075   2.207   0.033
  375SOL    HW1 1141  -0.017   2.179   0.004
  375SOL    HW2 1142   0.106   2.284  -0.023
  376SOL     OW 1143   0.072   2.028   0.318
  376SOL    HW1 1144   0.055   2.111   0.264
  376SOL    HW2 1145   0.162   1.991   0.296
  377SOL     OW 1146   0.716   2.427   1.708
  377SOL    HW1 1147   0.735   2.492   1.782
  377SOL    HW2 1148   0.776   2.347   1.717
  378SOL     OW 1149   1.225   2.187   0.449
  378SOL    HW1 1150   1.290   2.113   0.438
  378SOL    HW2 1151   1.245   2.237   0.533
  379SOL     OW 1152   0.594   2.607   0.652
  379SOL    HW1 1153   0.644   2.692   0.633
  379SOL    HW2 1154   0.506   2.609   0.604
  380SOL     OW 1155   1.777   2.204   1.642
  380SOL    HW1 1156   1.760   2.235   1.548
  380SOL    HW2 1157   1.693   2.167   1.680
  381SOL     OW 1158   0.859   2.818   0.861
  381SOL    HW1 1159   0.913   2.749   0.909
  381SOL    HW2 1160   0.827   2.887   0.927
  382SOL     OW 1161   1.824   2.054   1.227
  382SOL    HW1 1162   1.820   1.964   1.271
  382SOL    HW2 1163   1.827   2.043   1.128
  383SOL     OW 1164   0.428   2.286   0.520
  383SOL    HW1 1165   0.458   2.214   0.458
  383SOL    HW2 1166   0.389   2.246   0.603
  384SOL     OW 1167   0.317   2.409   1.280
  384SOL    HW1 1168   0.355   2.350   1.352
  384SOL    HW2 1169   0.357   2.383   1.192
  385SOL     OW 1170   1.424   2.076   1.112
  385SOL    HW1 1171   1.476   2.011   1.167
  385SOL    HW2 1172   1.375   2.139   1.173
  386SOL     OW 1173   1.001   1.896   1.154
  386SOL    HW1 1174   0.938   1.824   1.123
  386SOL    HW2 1175   1.094   1.860   1.154
  387SOL     OW 1176   1.352   1.914   0.168
  387SOL    HW1 1177   1.387   1.873   0.084
  387SOL    HW2 1178   1.262   1.876   0.188
  388SOL     OW 1179   1.300   2.315   0.691
  388SOL    HW1 1180   1.241   2.395   0.695
  388SOL    HW2 1181   1.315   2.280   0.784
  389SOL     OW 1182   1.593   2.083   0.882
  389SOL    HW1 1183   1.509   2.082   0.936
  389SOL    HW2 1184   1.595   2.166   0.826
  390SOL     OW 1185   0.230   2.490   1.975
  390SOL    HW1 1186   0.137   2.488   2.012
  390SOL    HW2 1187   0.231   2.451   1.883
  391SOL     OW 1188   0.019   2.230   2.509
  391SOL    HW1 1189  -0.063   2.273   2.548
  391SOL    HW2 1190  -0.009   2.157   2.446
  392SOL     OW 1191   1.755   2.469   2.093
  392SOL    HW1 1192   1.743   2.456   1.994
  392SOL    HW2 1193   1.725   2.388   2.142
  393SOL     OW 1194   0.685   2.874   2.527
  393SOL    HW1 1195   0.754   2.858   2.597
  393SOL    HW2 1196   0.612   2.931   2.565
  394SOL     OW 1197   1.603   2.309   2.599
  394SOL    HW1 1198   1.529   2.355   2.549
  394SOL    HW2 1199   1.654   2.377   2.652
  395SOL     OW 1200   0.122   2.505   2.425
  395SOL    HW1 1201   0.077   2.417   2.442
  395SOL    HW2 1202   0.121   2.559   2.509
  396SOL     OW 1203   0.809   1.866   2.364
  396SOL    HW1 1204   0.849   1.957   2.355
  396SOL    HW2 1205   0.709   1.874   2.370
  397SOL     OW 1206   0.598   2.591   2.132
  397SOL    HW1 1207   0.622   2.660   2.064
  397SOL    HW2 1208   0.520   2.624   2.186
  398SOL     OW 1209   1.281   2.207   2.806
  398SOL    HW1 1210   1.195   2.157   2.793
  398SOL    HW2 1211   1.343   2.153   2.862
  399SOL     OW 1212   1.041   2.563   2.291
  399SOL    HW1 1213   1.067   2.559   2.387
  399SOL    HW2 1214   0.956   2.512   2.277
  400SOL     OW 1215   0.076   2.673   2.651
  400SOL    HW1 1216   0.175   2.661   2.660
  400SOL    HW2 1217   0.052   2.768   2.672
  401SOL     OW 1218   0.865   2.210   2.057
  401SOL    HW1 1219   0.924   2.273   2.008
  401SOL    HW2 1220   0.884   2.116   2.028
  402SOL     OW 1221   1.400   1.969   2.288
  402SOL    HW1 1222   1.376   1.932   2.198
  402SOL    HW2 1223   1.499   1.985   2.292
  403SOL     OW 1224   0.382   2.562   2.342
  403SOL    HW1 1225   0.427   2.472   2.339
  403SOL    HW2 1226   0.288   2.551   2.375
  404SOL     OW 1227   0.614   1.984   1.979
  404SOL    HW1 1228   0.712   1.962   1.986
  404SOL    HW2 1229   0.583   1.967   1.886
  405SOL     OW 1230   0.539   1.926   2.374
  405SOL    HW1 1231   0.458   1.927   2.432
  405SOL    HW2 1232   0.542   2.009   2.319
  406SOL     OW 1233   0.297   1.897   2.033
  406SOL    HW1 1234   0.346   1.981   2.012
  406SOL    HW2 1235   0.359   1.832   2.078
  407SOL     OW 1236   0.935   2.098   2.342
  407SOL    HW1 1237   0.887   2.139   2.264
  407SOL    HW2 1238   1.034   2.096   2.323
  408SOL     OW 1239   1.032   2.411   1.878
  408SOL    HW1 1240   0.991   2.493   1.839
  408SOL    HW2 1241   1.096   2.437   1.951
  409SOL     OW 1242   0.866   2.316   2.504
  409SOL    HW1 1243   0.834   2.388   2.442
  409SOL    HW2 1244   0.890   2.235   2.451
  410SOL     OW 1245   1.390   2.437   1.940
  410SOL    HW1 1246   1.336   2.416   2.021
  410SOL    HW2 1247   1.481   2.396   1.949
  411SOL     OW 1248   0.527   2.118   2.190
  411SOL    HW1 1249   0.554   2.059   2.115
  411SOL    HW2 1250   0.527   2.213   2.159
  412SOL     OW 1251   0.705   2.912   2.230
  412SOL    HW1 1252   0.691   2.919   2.329
  412SOL    HW2 1253   0.789   2.861   2.212
  413SOL     OW 1254   1.582   2.501   2.334
  413SOL    HW1 1255   1.551   2.562   2.407
  413SOL    HW2 1256   1.632   2.553   2.265
  414SOL     OW 1257   1.209   2.387   2.137
  414SOL    HW1 1258   1.222   2.303   2.191
  414SOL    HW2 1259   1.180   2.461   2.197
  415SOL     OW 1260   0.307   1.925   2.480
  415SOL    HW1 1261   0.296   2.019   2.513
  415SOL    HW2 1262   0.302   1.862   2.557
  416SOL     OW 1263   1.622   2.229   2.236
  416SOL    HW1 1264   1.624   2.153   2.300
  416SOL    HW2 1265   1.574   2.306   2.276
  417SOL     OW 1266   1.540   2.136   1.987
  417SOL    HW1 1267   1.479   2.061   2.010
  417SOL    HW2 1268   1.562   2.188   2.070
  418SOL     OW 1269   0.040   2.406   2.976
  418SOL    HW1 1270   0.125   2.373   2.935
  418SOL    HW2 1271   0.053   2.421   3.074
  419SOL     OW 1272   0.815   2.434   2.187
  419SOL    HW1 1273   0.822   2.345   2.141
  419SOL    HW2 1274   0.721   2.468   2.179
  420SOL     OW 1275   0.473   2.362   2.053
  420SOL    HW1 1276   0.534   2.442   2.057
  420SOL    HW2 1277   0.378   2.393   2.060
  421SOL     OW 1278   1.726   1.997   2.385
  421SOL    HW1 1279   1.799   1.980   2.318
  421SOL    HW2 1280   1.695   1.910   2.423
  422SOL     OW 1281   1.280   2.789   2.534
  422SOL    HW1 1282   1.340   2.708   2.536
  422SOL    HW2 1283   1.320   2.858   2.474
  423SOL     OW 1284   1.841   2.037   2.825
  423SOL    HW1 1285   1.880   1.952   2.789
  423SOL    HW2 1286   1.743   2.039   2.806
  424SOL     OW 1287   0.263   2.188   2.582
  424SOL    HW1 1288   0.184   2.239   2.548
  424SOL    HW2 1289   0.254   2.173   2.680
  425SOL     OW 1290   0.916   2.772   2.153
  425SOL    HW1 1291   0.979   2.810   2.085
  425SOL    HW2 1292   0.956   2.689   2.192
  426SOL     OW 1293   1.039   2.960   2.558
  426SOL    HW1 1294   0.969   2.913   2.612
  426SOL    HW2 1295   1.098   2.892   2.515
  427SOL     OW 1296   0.075   2.207   1.895
  427SOL    HW1 1297  -0.017   2.179   1.866
  427SOL    HW2 1298   0.106   2.284   1.839
  428SOL     OW 1299   0.072   2.028   2.180
  428SOL    HW1 1300   0.055   2.111   2.126
  428SOL    HW2 1301   0.162   1.991   2.158
  429SOL     OW 1302   1.225   2.187   2.311
  429SOL    HW1 1303   1.290   2.113   2.300
  429SOL    HW2 1304   1.245   2.237   2.395
  430SOL     OW 1305   0.594   2.607   2.514
  430SOL    HW1 1306   0.644   2.692   2.495
  430SOL    HW2 1307   0.506   2.609   2.466
  431SOL     OW 1308   0.428   2.286   2.382
  431SOL    HW1 1309   0.458   2.214   2.320
  431SOL    HW2 1310   0.389   2.246   2.465
  432SOL     OW 1311   1.352   1.914   2.030
  432SOL    HW1 1312   1.387   1.873   1.946
  432SOL    HW2 1313   1.262   1.876   2.050
  433SOL     OW 1314   1.300   2.315   2.553
  433SOL    HW1 1315   1.241   2.395   2.557
  433SOL    HW2 1316   1.315   2.280   2.646
  434SOL     OW 1317   2.092   0.628   0.113
  434SOL    HW1 1318   1.999   0.626   0.150
  434SOL    HW2 1319   2.093   0.589   0.021
  435SOL     OW 1320   2.087   0.275   0.996
  435SOL    HW1 1321   2.122   0.258   1.088
  435SOL    HW2 1322   1.999   0.230   0.984
  436SOL     OW 1323   1.881   0.368   0.647
  436SOL    HW1 1324   1.799   0.411   0.686
  436SOL    HW2 1325   1.853   0.295   0.584
  437SOL     OW 1326   2.431   1.275   1.165
  437SOL    HW1 1327   2.338   1.268   1.128
  437SOL    HW2 1328   2.442   1.364   1.209
  438SOL     OW 1329   2.712   0.798   1.823
  438SOL    HW1 1330   2.708   0.874   1.888
  438SOL    HW2 1331   2.734   0.834   1.732
  439SOL     OW 1332   2.547   1.012   0.665
  439SOL    HW1 1333   2.616   0.996   0.735
  439SOL    HW2 1334   2.474   1.069   0.703
  440SOL     OW 1335   2.548   1.161   1.803
  440SOL    HW1 1336   2.608   1.240   1.817
  440SOL    HW2 1337   2.462   1.192   1.762
  441SOL     OW 1338   2.197   1.435   1.061
  441SOL    HW1 1339   2.119   1.404   1.008
  441SOL    HW2 1340   2.255   1.493   1.004
  442SOL     OW 1341   2.300   0.392   1.499
  442SOL    HW1 1342   2.382   0.336   1.508
  442SOL    HW2 1343   2.219   0.334   1.503
  443SOL     OW 1344   2.093   1.713   0.483
  443SOL    HW1 1345   2.127   1.790   0.537
  443SOL    HW2 1346   2.137   1.713   0.393
  444SOL     OW 1347   2.092   1.434   0.538
  444SOL    HW1 1348   2.066   1.530   0.538
  444SOL    HW2 1349   2.021   1.380   0.583
  445SOL     OW 1350   2.102   1.091   0.886
  445SOL    HW1 1351   2.116   1.007   0.938
  445SOL    HW2 1352   2.047   1.155   0.941
  446SOL     OW 1353   2.482   1.786   1.439
  446SOL    HW1 1354   2.390   1.769   1.474
  446SOL    HW2 1355   2.510   1.878   1.465
  447SOL     OW 1356   2.468   0.964   0.123
  447SOL    HW1 1357   2.475   1.048   0.069
  447SOL    HW2 1358   2.514   0.977   0.211
  448SOL     OW 1359   1.984   0.643   0.563
  448SOL    HW1 1360   1.939   0.555   0.580
  448SOL    HW2 1361   1.983   0.697   0.647
  449SOL     OW 1362   1.889   1.596   0.117
  449SOL    HW1 1363   1.870   1.500   0.138
  449SOL    HW2 1364   1.856   1.654   0.192
  450SOL     OW 1365   1.975   0.737   1.597
  450SOL    HW1 1366   2.063   0.724   1.642
  450SOL    HW2 1367   1.962   0.834   1.575
  451SOL     OW 1368   2.475   1.365   0.726
  451SOL    HW1 1369   2.426   1.278   0.735
  451SOL    HW2 1370   2.452   1.408   0.639
  452SOL     OW 1371   2.671   0.004   0.502
  452SOL    HW1 1372   2.711   0.095   0.493
  452SOL    HW2 1373   2.571   0.012   0.508
  453SOL     OW 1374   2.059   0.976   1.264
  453SOL    HW1 1375   2.148   0.931   1.250
  453SOL    HW2 1376   1.986   0.911   1.245
  454SOL     OW 1377   2.179   0.251   1.801
  454SOL    HW1 1378   2.250   0.322   1.807
  454SOL    HW2 1379   2.091   0.290   1.829
  455SOL     OW 1380   2.460   0.729   0.270
  455SOL    HW1 1381   2.484   0.798   0.202
  455SOL    HW2 1382   2.382   0.762   0.324
  456SOL     OW 1383   1.938   0.811   0.789
  456SOL    HW1 1384   2.037   0.799   0.798
  456SOL    HW2 1385   1.914   0.906   0.810
  457SOL     OW 1386   1.992   1.821   1.571
  457SOL    HW1 1387   1.982   1.806   1.670
  457SOL    HW2 1388   1.906   1.857   1.535
  458SOL     OW 1389   2.412   0.196   0.885
  458SOL    HW1 1390   2.407   0.191   0.985
  458SOL    HW2 1391   2.414   0.292   0.856
  459SOL     OW 1392   2.213   1.801   0.853
  459SOL    HW1 1393   2.263   1.715   0.859
  459SOL    HW2 1394   2.278   1.878   0.850
  460SOL     OW 1395   2.183   0.943   0.242
  460SOL    HW1 1396   2.265   0.982   0.200
  460SOL    HW2 1397   2.156   0.861   0.193
  461SOL     OW 1398   2.323   1.266   1.727
  461SOL    HW1 1399   2.273   1.267   1.641
  461SOL    HW2 1400   2.260   1.248   1.803
  462SOL     OW 1401   2.064   0.285   1.498
  462SOL    HW1 1402   1.984   0.345   1.485
  462SOL    HW2 1403   2.054   0.236   1.584
  463SOL     OW 1404   2.326   1.743   0.323
  463SOL    HW1 1405   2.359   1.782   0.409
  463SOL    HW2 1406   2.402   1.736   0.258
  464SOL     OW 1407   2.111   1.785   1.241
  464SOL    HW1 1408   2.168   1.720   1.291
  464SOL    HW2 1409   2.095   1.752   1.148
  465SOL     OW 1410   2.244   0.700   0.480
  465SOL    HW1 1411   2.289   0.610   0.477
  465SOL    HW2 1412   2.150   0.689   0.513
  466SOL     OW 1413   2.476   0.122   0.117
  466SOL    HW1 1414   2.574   0.100   0.124
  466SOL    HW2 1415   2.445   0.105   0.024
  467SOL     OW 1416   2.665   1.402   0.924
  467SOL    HW1 1417   2.755   1.416   0.882
  467SOL    HW2 1418   2.594   1.404   0.853
  468SOL     OW 1419   2.784   0.503   0.899
  468SOL    HW1 1420   2.759   0.494   0.803
  468SOL    HW2 1421   2.832   0.421   0.930
  469SOL     OW 1422   2.401   0.064   0.512
  469SOL    HW1 1423   2.320   0.065   0.570
  469SOL    HW2 1424   2.404   0.147   0.457
  470SOL     OW 1425   2.159   0.035   0.171
  470SOL    HW1 1426   2.208   0.119   0.150
  470SOL    HW2 1427   2.221  -0.030   0.216
  471SOL     OW 1428   2.321   1.152   0.741
  471SOL    HW1 1429   2.250   1.125   0.806
  471SOL    HW2 1430   2.295   1.124   0.648
  472SOL     OW 1431   1.940   0.556   1.386
  472SOL    HW1 1432   2.032   0.555   1.345
  472SOL    HW2 1433   1.934   0.630   1.453
  473SOL     OW 1434   2.423   0.222   1.147
  473SOL    HW1 1435   2.461   0.138   1.184
  473SOL    HW2 1436   2.335   0.241   1.191
  474SOL     OW 1437   2.350   1.385   0.174
  474SOL    HW1 1438   2.263   1.370   0.221
  474SOL    HW2 1439   2.333   1.411   0.079
  475SOL     OW 1440   2.389   0.256   0.328
  475SOL    HW1 1441   2.416   0.197   0.253
  475SOL    HW2 1442   2.389   0.351   0.297
  476SOL     OW 1443   2.777   0.089   1.402
  476SOL    HW1 1444   2.802   0.069   1.307
  476SOL    HW2 1445   2.849   0.145   1.444
  477SOL     OW 1446   2.272   0.813   1.251
  477SOL    HW1 1447   2.358   0.825   1.301
  477SOL    HW2 1448   2.230   0.726   1.278
  478SOL     OW 1449   1.926   1.564   1.331
  478SOL    HW1 1450   1.880   1.646   1.297
  478SOL    HW2 1451   2.024   1.583   1.340
  479SOL     OW 1452   2.229   1.100   0.501
  479SOL    HW1 1453   2.222   1.183   0.445
  479SOL    HW2 1454   2.233   1.020   0.441
  480SOL     OW 1455   2.428   0.537   0.865
  480SOL    HW1 1456   2.440   0.603   0.791
  480SOL    HW2 1457   2.474   0.571   0.948
  481SOL     OW 1458   2.216   1.510   1.329
  481SOL    HW1 1459   2.195   1.466   1.242
  481SOL    HW2 1460   2.313   1.536   1.332
  482SOL     OW 1461   2.264   0.751   1.598
  482SOL    HW1 1462   2.332   0.806   1.551
  482SOL    HW2 1463   2.304   0.663   1.625
  483SOL     OW 1464   2.366   0.050   1.740
  483SOL    HW1 1465   2.324  -0.007   1.670
  483SOL    HW2 1466   2.300   0.119   1.772
  484SOL     OW 1467   2.435   0.870   1.029
  484SOL    HW1 1468   2.479   0.959   1.020
  484SOL    HW2 1469   2.372   0.870   1.106
  485SOL     OW 1470   2.169   0.213   1.231
  485SOL    HW1 1471   2.146   0.250   1.321
  485SOL    HW2 1472   2.139   0.118   1.225
  486SOL     OW 1473   1.899   1.310   1.282
  486SOL    HW1 1474   1.952   1.261   1.350
  486SOL    HW2 1475   1.921   1.408   1.287
  487SOL     OW 1476   2.169   0.063   0.618
  487SOL    HW1 1477   2.158   0.157   0.651
  487SOL    HW2 1478   2.164   0.000   0.695
  488SOL     OW 1479   2.212   0.898   1.804
  488SOL    HW1 1480   2.288   0.942   1.852
  488SOL    HW2 1481   2.247   0.851   1.722
  489SOL     OW 1482   2.930   1.333   0.849
  489SOL    HW1 1483   2.937   1.249   0.794
  489SOL    HW2 1484   2.992   1.402   0.813
  490SOL     OW 1485   2.181   0.810   0.949
  490SOL    HW1 1486   2.274   0.846   0.954
  490SOL    HW2 1487   2.175   0.725   1.001
  491SOL     OW 1488   2.201   0.509   1.006
  491SOL    HW1 1489   2.149   0.426   0.989
  491SOL    HW2 1490   2.278   0.514   0.942
  492SOL     OW 1491   1.870   1.326   0.200
  492SOL    HW1 1492   1.777   1.347   0.169
  492SOL    HW2 1493   1.880   1.227   0.213
  493SOL     OW 1494   1.950   1.801   0.927
  493SOL    HW1 1495   1.908   1.715   0.900
  493SOL    HW2 1496   2.044   1.804   0.893
  494SOL     OW 1497   2.366   1.568   0.910
  494SOL    HW1 1498   2.432   1.642   0.919
  494SOL    HW2 1499   2.410   1.489   0.868
  495SOL     OW 1500   1.902   0.544   1.114
  495SOL    HW1 1501   1.987   0.511   1.073
  495SOL    HW2 1502   1.915   0.559   1.212
  496SOL     OW 1503   2.051   0.520   1.722
  496SOL    HW1 1504   2.110   0.480   1.652
  496SOL    HW2 1505   1.993   0.591   1.681
  497SOL     OW 1506   2.114   1.564   1.744
  497SOL    HW1 1507   2.084   1.621   1.820
  497SOL    HW2 1508   2.107   1.467   1.770
  498SOL     OW 1509   2.533   0.464   1.269
  498SOL    HW1 1510   2.499   0.375   1.239
  498SOL    HW2 1511   2.559   0.518   1.189
  499SOL     OW 1512   2.335   0.500   0.191
  499SOL    HW1 1513   2.396   0.580   0.195
  499SOL    HW2 1514   2.240   0.531   0.198
  500SOL     OW 1515   2.021   1.137   1.466
  500SOL    HW1 1516   2.043   1.076   1.542
  500SOL    HW2 1517   2.031   1.088   1.380
  501SOL     OW 1518   1.945   1.258   1.022
  501SOL    HW1 1519   1.940   1.257   1.122
  501SOL    HW2 1520   1.862   1.217   0.984
  502SOL     OW 1521   2.550   1.662   1.716
  502SOL    HW1 1522   2.494   1.743   1.725
  502SOL    HW2 1523   2.602   1.666   1.630
  503SOL     OW 1524   1.992   1.794   1.851
  503SOL    HW1 1525   1.951   1.720   1.904
  503SOL    HW2 1526   2.056   1.845   1.909
  504SOL     OW 1527   2.534   1.616   0.154
  504SOL    HW1 1528   2.543   1.626   0.055
  504SOL    HW2 1529   2.494   1.527   0.175
  505SOL     OW 1530   2.125   0.326   0.720
  505SOL    HW1 1531   2.046   0.377   0.686
  505SOL    HW2 1532   2.116   0.311   0.818
  506SOL     OW 1533   2.234   1.288   1.490
  506SOL    HW1 1534   2.221   1.381   1.456
  506SOL    HW2 1535   2.150   1.236   1.477
  507SOL     OW 1536   2.901   1.098   0.696
  507SOL    HW1 1537   2.831   1.051   0.750
  507SOL    HW2 1538   2.960   1.030   0.653
  508SOL     OW 1539   2.452   1.487   0.491
  508SOL    HW1 1540   2.494   1.429   0.421
  508SOL    HW2 1541   2.408   1.566   0.447
  509SOL     OW 1542   2.117   1.348   0.290
  509SOL    HW1 1543   2.021   1.349   0.263
  509SOL    HW2 1544   2.129   1.401   0.374
  510SOL     OW 1545   1.967   1.013   1.726
  510SOL    HW1 1546   1.890   0.980   1.780
  510SOL    HW2 1547   2.052   0.983   1.768
  511SOL     OW 1548   2.534   0.203   1.489
  511SOL    HW1 1549   2.624   0.187   1.449
  511SOL    HW2 1550   2.542   0.208   1.588
  512SOL     OW 1551   1.937   0.345   0.033
  512SOL    HW1 1552   1.845   0.317   0.004
  512SOL    HW2 1553   1.968   0.422  -0.023
  513SOL     OW 1554   1.934   0.166   0.318
  513SOL    HW1 1555   1.917   0.249   0.264
  513SOL    HW2 1556   2.024   0.129   0.296
  514SOL     OW 1557   2.475   0.842   1.431
  514SOL    HW1 1558   2.531   0.923   1.414
  514SOL    HW2 1559   2.534   0.762   1.434
  515SOL     OW 1560   2.578   0.565   1.708
  515SOL    HW1 1561   2.597   0.630   1.782
  515SOL    HW2 1562   2.638   0.485   1.717
  516SOL     OW 1563   2.252   1.741   1.560
  516SOL    HW1 1564   2.161   1.782   1.558
  516SOL    HW2 1565   2.245   1.647   1.592
  517SOL     OW 1566   2.456   0.745   0.652
  517SOL    HW1 1567   2.506   0.830   0.633
  517SOL    HW2 1568   2.368   0.747   0.604
  518SOL     OW 1569   2.083   1.314   1.844
  518SOL    HW1 1570   2.018   1.241   1.823
  518SOL    HW2 1571   2.087   1.328   1.942
  519SOL     OW 1572   1.941   1.240   0.653
  519SOL    HW1 1573   1.940   1.193   0.741
  519SOL    HW2 1574   2.023   1.212   0.602
  520SOL     OW 1575   2.534   1.391   1.624
  520SOL    HW1 1576   2.456   1.341   1.662
  520SOL    HW2 1577   2.531   1.486   1.655
  521SOL     OW 1578   2.290   0.424   0.520
  521SOL    HW1 1579   2.320   0.352   0.458
  521SOL    HW2 1580   2.251   0.384   0.603
  522SOL     OW 1581   2.179   0.547   1.280
  522SOL    HW1 1582   2.217   0.488   1.352
  522SOL    HW2 1583   2.219   0.521   1.192
  523SOL     OW 1584   2.674   1.586   0.687
  523SOL    HW1 1585   2.706   1.596   0.593
  523SOL    HW2 1586   2.595   1.524   0.689
  524SOL     OW 1587   2.480   1.567   1.284
  524SOL    HW1 1588   2.475   1.649   1.341
  524SOL    HW2 1589   2.569   1.564   1.239
  525SOL     OW 1590   1.901   1.077   0.300
  525SOL    HW1 1591   2.000   1.066   0.291
  525SOL    HW2 1592   1.861   0.991   0.332
  526SOL     OW 1593   2.092   0.628   1.975
  526SOL    HW1 1594   1.999   0.626   2.012
  526SOL    HW2 1595   2.093   0.589   1.883
  527SOL     OW 1596   1.881   0.368   2.509
  527SOL    HW1 1597   1.799   0.411   2.548
  527SOL    HW2 1598   1.853   0.295   2.446
  528SOL     OW 1599   2.547   1.012   2.527
  528SOL    HW1 1600   2.616   0.996   2.597
  528SOL    HW2 1601   2.474   1.069   2.565
  529SOL     OW 1602   2.093   1.713   2.345
  529SOL    HW1 1603   2.127   1.790   2.399
  529SOL    HW2 1604   2.137   1.713   2.255
  530SOL     OW 1605   2.092   1.434   2.400
  530SOL    HW1 1606   2.066   1.530   2.400
  530SOL    HW2 1607   2.021   1.380   2.445
  531SOL     OW 1608   2.102   1.091   2.748
  531SOL    HW1 1609   2.116   1.007   2.800
  531SOL    HW2 1610   2.047   1.155   2.803
  532SOL     OW 1611   2.468   0.964   1.985
  532SOL    HW1 1612   2.475   1.048   1.931
  532SOL    HW2 1613   2.514   0.977   2.073
  533SOL     OW 1614   1.984   0.643   2.425
  533SOL    HW1 1615   1.939   0.555   2.442
  533SOL    HW2 1616   1.983   0.697   2.509
  534SOL     OW 1617   1.889   1.596   1.979
  534SOL    HW1 1618   1.870   1.500   2.000
  534SOL    HW2 1619   1.856   1.654   2.054
  535SOL     OW 1620   2.475   1.365   2.588
  535SOL    HW1 1621   2.426   1.278   2.597
  535SOL    HW2 1622   2.452   1.408   2.501
  536SOL     OW 1623   2.671   0.004   2.364
  536SOL    HW1 1624   2.711   0.095   2.355
  536SOL    HW2 1625   2.571   0.012   2.370
  537SOL     OW 1626   2.460   0.729   2.132
  537SOL    HW1 1627   2.484   0.798   2.064
  537SOL    HW2 1628   2.382   0.762   2.186
  538SOL     OW 1629   1.938   0.811   2.651
  538SOL    HW1 1630   2.037   0.799   2.660
  538SOL    HW2 1631   1.914   0.906   2.672
  539SOL     OW 1632   2.213   1.801   2.715
  539SOL    HW1 1633   2.263   1.715   2.721
  539SOL    HW2 1634   2.278   1.878   2.712
  540SOL     OW 1635   2.183   0.943   2.104
  540SOL    HW1 1636   2.265   0.982   2.062
  540SOL    HW2 1637   2.156   0.861   2.055
  541SOL     OW 1638   2.326   1.743   2.185
  541SOL    HW1 1639   2.359   1.782   2.271
  541SOL    HW2 1640   2.402   1.736   2.120
  542SOL     OW 1641   2.244   0.700   2.342
  542SOL    HW1 1642   2.289   0.610   2.339
  542SOL    HW2 1643   2.150   0.689   2.375
  543SOL     OW 1644   2.476   0.122   1.979
  543SOL    HW1 1645   2.574   0.100   1.986
  543SOL    HW2 1646   2.445   0.105   1.886
  544SOL     OW 1647   2.401   0.064   2.374
  544SOL    HW1 1648   2.320   0.065   2.432
  544SOL    HW2 1649   2.404   0.147   2.319
  545SOL     OW 1650   2.159   0.035   2.033
  545SOL    HW1 1651   2.208   0.119   2.012
  545SOL    HW2 1652   2.221  -0.030   2.078
  546SOL     OW 1653   2.321   1.152   2.603
  546SOL    HW1 1654   2.250   1.125   2.668
  546SOL    HW2 1655   2.295   1.124   2.510
  547SOL     OW 1656   2.350   1.385   2.036
  547SOL    HW1 1657   2.263   1.370   2.083
  547SOL    HW2 1658   2.333   1.411   1.941
  548SOL     OW 1659   2.389   0.256   2.190
  548SOL    HW1 1660   2.416   0.197   2.115
  548SOL    HW2 1661   2.389   0.351   2.159
  549SOL     OW 1662   2.229   1.100   2.363
  549SOL    HW1 1663   2.222   1.183   2.307
  549SOL    HW2 1664   2.233   1.020   2.303
  550SOL     OW 1665   2.169   0.063   2.480
  550SOL    HW1 1666   2.158   0.157   2.513
  550SOL    HW2 1667   2.164   0.000   2.557
  551SOL     OW 1668   2.930   1.333   2.711
  551SOL    HW1 1669   2.937   1.249   2.656
  551SOL    HW2 1670   2.992   1.402   2.675
  552SOL     OW 1671   1.870   1.326   2.062
  552SOL    HW1 1672   1.777   1.347   2.031
  552SOL    HW2 1673   1.880   1.227   2.075
  553SOL     OW 1674   2.677   0.572   2.187
  553SOL    HW1 1675   2.684   0.483   2.141
  553SOL    HW2 1676   2.583   0.606   2.179
  554SOL     OW 1677   2.335   0.500   2.053
  554SOL    HW1 1678   2.396   0.580   2.057
  554SOL    HW2 1679   2.240   0.531   2.060
  555SOL     OW 1680   2.534   1.616   2.016
  555SOL    HW1 1681   2.543   1.626   1.917
  555SOL    HW2 1682   2.494   1.527   2.037
  556SOL     OW 1683   2.125   0.326   2.582
  556SOL    HW1 1684   2.046   0.377   2.548
  556SOL    HW2 1685   2.116   0.311   2.680
  557SOL     OW 1686   2.901   1.098   2.558
  557SOL    HW1 1687   2.831   1.051   2.612
  557SOL    HW2 1688   2.960   1.030   2.515
  558SOL     OW 1689   2.452   1.487   2.353
  558SOL    HW1 1690   2.494   1.429   2.283
  558SOL    HW2 1691   2.408   1.566   2.309
  559SOL     OW 1692   2.117   1.348   2.152
  559SOL    HW1 1693   2.021   1.349   2.125
  559SOL    HW2 1694   2.129   1.401   2.236
  560SOL     OW 1695   1.937   0.345   1.895
  560SOL    HW1 1696   1.845   0.317   1.866
  560SOL    HW2 1697   1.968   0.422   1.839
  561SOL     OW 1698   1.934   0.166   2.180
  561SOL    HW1 1699   1.917   0.249   2.126
  561SOL    HW2 1700   2.024   0.129   2.158
  562SOL     OW 1701   2.456   0.745   2.514
  562SOL    HW1 1702   2.506   0.830   2.495
  562SOL    HW2 1703   2.368   0.747   2.466
  563SOL     OW 1704   2.523   1.790   2.815
  563SOL    HW1 1705   2.477   1.878   2.802
  563SOL    HW2 1706   2.622   1.802   2.808
  564SOL     OW 1707   1.941   1.240   2.515
  564SOL    HW1 1708   1.940   1.193   2.603
  564SOL    HW2 1709   2.023   1.212   2.464
  565SOL     OW 1710   2.290   0.424   2.382
  565SOL    HW1 1711   2.320   0.352   2.320
  565SOL    HW2 1712   2.251   0.384   2.465
  566SOL     OW 1713   2.674   1.586   2.549
  566SOL    HW1 1714   2.706   1.596   2.455
  566SOL    HW2 1715   2.595   1.524   2.551
  567SOL     OW 1716   1.901   1.077   2.162
  567SOL    HW1 1717   2.000   1.066   2.153
  567SOL    HW2 1718   1.861   0.991   2.194
  568SOL     OW 1719   2.092   2.490   0.113
  568SOL    HW1 1720   1.999   2.488   0.150
  568SOL    HW2 1721   2.093   2.451   0.021
  569SOL     OW 1722   2.087   2.137   0.996
  569SOL    HW1 1723   2.122   2.120   1.088
  569SOL    HW2 1724   1.999   2.092   0.984
  570SOL     OW 1725   1.881   2.230   0.647
  570SOL    HW1 1726   1.799   2.273   0.686
  570SOL    HW2 1727   1.853   2.157   0.584
  571SOL     OW 1728   2.712   2.660   1.823
  571SOL    HW1 1729   2.708   2.736   1.888
  571SOL    HW2 1730   2.734   2.696   1.732
  572SOL     OW 1731   2.547   2.874   0.665
  572SOL    HW1 1732   2.616   2.858   0.735
  572SOL    HW2 1733   2.474   2.931   0.703
  573SOL     OW 1734   2.300   2.254   1.499
  573SOL    HW1 1735   2.382   2.198   1.508
  573SOL    HW2 1736   2.219   2.196   1.503
  574SOL     OW 1737   1.984   2.505   0.563
  574SOL    HW1 1738   1.939   2.417   0.580
  574SOL    HW2 1739   1.983   2.559   0.647
  575SOL     OW 1740   1.975   2.599   1.597
  575SOL    HW1 1741   2.063   2.586   1.642
  575SOL    HW2 1742   1.962   2.696   1.575
  576SOL     OW 1743   2.671   1.866   0.502
  576SOL    HW1 1744   2.711   1.957   0.493
  576SOL    HW2 1745   2.571   1.874   0.508
  577SOL     OW 1746   2.179   2.113   1.801
  577SOL    HW1 1747   2.250   2.184   1.807
  577SOL    HW2 1748   2.091   2.152   1.829
  578SOL     OW 1749   2.460   2.591   0.270
  578SOL    HW1 1750   2.484   2.660   0.202
  578SOL    HW2 1751   2.382   2.624   0.324
  579SOL     OW 1752   2.412   2.058   0.885
  579SOL    HW1 1753   2.407   2.053   0.985
  579SOL    HW2 1754   2.414   2.154   0.856
  580SOL     OW 1755   2.064   2.147   1.498
  580SOL    HW1 1756   1.984   2.207   1.485
  580SOL    HW2 1757   2.054   2.098   1.584
  581SOL     OW 1758   2.244   2.562   0.480
  581SOL    HW1 1759   2.289   2.472   0.477
  581SOL    HW2 1760   2.150   2.551   0.513
  582SOL     OW 1761   2.784   2.365   0.899
  582SOL    HW1 1762   2.759   2.356   0.803
  582SOL    HW2 1763   2.832   2.283   0.930
  583SOL     OW 1764   2.401   1.926   0.512
  583SOL    HW1 1765   2.320   1.927   0.570
  583SOL    HW2 1766   2.404   2.009   0.457
  584SOL     OW 1767   2.159   1.897   0.171
  584SOL    HW1 1768   2.208   1.981   0.150
  584SOL    HW2 1769   2.221   1.832   0.216
  585SOL     OW 1770   1.940   2.418   1.386
  585SOL    HW1 1771   2.032   2.417   1.345
  585SOL    HW2 1772   1.934   2.492   1.453
  586SOL     OW 1773   2.423   2.084   1.147
  586SOL    HW1 1774   2.461   2.000   1.184
  586SOL    HW2 1775   2.335   2.103   1.191
  587SOL     OW 1776   2.389   2.118   0.328
  587SOL    HW1 1777   2.416   2.059   0.253
  587SOL    HW2 1778   2.389   2.213   0.297
  588SOL     OW 1779   2.777   1.951   1.402
  588SOL    HW1 1780   2.802   1.931   1.307
  588SOL    HW2 1781   2.849   2.007   1.444
  589SOL     OW 1782   2.272   2.675   1.251
  589SOL    HW1 1783   2.358   2.687   1.301
  589SOL    HW2 1784   2.230   2.588   1.278
  590SOL     OW 1785   2.428   2.399   0.865
  590SOL    HW1 1786   2.440   2.465   0.791
  590SOL    HW2 1787   2.474   2.433   0.948
  591SOL     OW 1788   2.875   1.967   1.770
  591SOL    HW1 1789   2.881   2.052   1.718
  591SOL    HW2 1790   2.907   1.891   1.713
  592SOL     OW 1791   2.366   1.912   1.740
  592SOL    HW1 1792   2.324   1.855   1.670
  592SOL    HW2 1793   2.300   1.981   1.772
  593SOL     OW 1794   2.169   2.075   1.231
  593SOL    HW1 1795   2.146   2.112   1.321
  593SOL    HW2 1796   2.139   1.980   1.225
  594SOL     OW 1797   2.169   1.925   0.618
  594SOL    HW1 1798   2.158   2.019   0.651
  594SOL    HW2 1799   2.164   1.862   0.695
  595SOL     OW 1800   2.181   2.672   0.949
  595SOL    HW1 1801   2.274   2.708   0.954
  595SOL    HW2 1802   2.175   2.587   1.001
  596SOL     OW 1803   2.201   2.371   1.006
  596SOL    HW1 1804   2.149   2.288   0.989
  596SOL    HW2 1805   2.278   2.376   0.942
  597SOL     OW 1806   1.902   2.406   1.114
  597SOL    HW1 1807   1.987   2.373   1.073
  597SOL    HW2 1808   1.915   2.421   1.212
  598SOL     OW 1809   2.051   2.382   1.722
  598SOL    HW1 1810   2.110   2.342   1.652
  598SOL    HW2 1811   1.993   2.453   1.681
  599SOL     OW 1812   2.533   2.326   1.269
  599SOL    HW1 1813   2.499   2.237   1.239
  599SOL    HW2 1814   2.559   2.380   1.189
  600SOL     OW 1815   2.335   2.362   0.191
  600SOL    HW1 1816   2.396   2.442   0.195
  600SOL    HW2 1817   2.240   2.393   0.198
  601SOL     OW 1818   2.125   2.188   0.720
  601SOL    HW1 1819   2.046   2.239   0.686
  601SOL    HW2 1820   2.116   2.173   0.818
  602SOL     OW 1821   1.967   2.875   1.726
  602SOL    HW1 1822   1.890   2.842   1.780
  602SOL    HW2 1823   2.052   2.845   1.768
  603SOL     OW 1824   2.534   2.065   1.489
  603SOL    HW1 1825   2.624   2.049   1.449
  603SOL    HW2 1826   2.542   2.070   1.588
  604SOL     OW 1827   1.937   2.207   0.033
  604SOL    HW1 1828   1.845   2.179   0.004
  604SOL    HW2 1829   1.968   2.284  -0.023
  605SOL     OW 1830   1.934   2.028   0.318
  605SOL    HW1 1831   1.917   2.111   0.264
  605SOL    HW2 1832   2.024   1.991   0.296
  606SOL     OW 1833   2.578   2.427   1.708
  606SOL    HW1 1834   2.597   2.492   1.782
  606SOL    HW2 1835   2.638   2.347   1.717
  607SOL     OW 1836   2.456   2.607   0.652
  607SOL    HW1 1837   2.506   2.692   0.633
  607SOL    HW2 1838   2.368   2.609   0.604
  608SOL     OW 1839   2.290   2.286   0.520
  608SOL    HW1 1840   2.320   2.214   0.458
  608SOL    HW2 1841   2.251   2.246   0.603
  609SOL     OW 1842   2.179   2.409   1.280
  609SOL    HW1 1843   2.217   2.350   1.352
  609SOL    HW2 1844   2.219   2.383   1.192
  610SOL     OW 1845   2.092   2.490   1.975
  610SOL    HW1 1846   1.999   2.488   2.012
  610SOL    HW2 1847   2.093   2.451   1.883
  611SOL     OW 1848   1.881   2.230   2.509
  611SOL    HW1 1849   1.799   2.273   2.548
  611SOL    HW2 1850   1.853   2.157   2.446
  612SOL     OW 1851   2.547   2.874   2.527
  612SOL    HW1 1852   2.616   2.858   2.597
  612SOL    HW2 1853   2.474   2.931   2.565
  613SOL     OW 1854   1.984   2.505   2.425
  613SOL    HW1 1855   1.939   2.417   2.442
  613SOL    HW2 1856   1.983   2.559   2.509
  614SOL     OW 1857   2.671   1.866   2.364
  614SOL    HW1 1858   2.711   1.957   2.355
  614SOL    HW2 1859   2.571   1.874   2.370
  615SOL     OW 1860   2.460   2.591   2.132
  615SOL    HW1 1861   2.484   2.660   2.064
  615SOL    HW2 1862   2.382   2.624   2.186
  616SOL     OW 1863   2.244   2.562   2.342
  616SOL    HW1 1864   2.289   2.472   2.339
  616SOL    HW2 1865   2.150   2.551   2.375
  617SOL     OW 1866   2.476   1.984   1.979
  617SOL    HW1 1867   2.574   1.962   1.986
  617SOL    HW2 1868   2.445   1.967   1.886
  618SOL     OW 1869   2.401   1.926   2.374
  618SOL    HW1 1870   2.320   1.927   2.432
  618SOL    HW2 1871   2.404   2.009   2.319
  619SOL     OW 1872   2.159   1.897   2.033
  619SOL    HW1 1873   2.208   1.981   2.012
  619SOL    HW2 1874   2.221   1.832   2.078
  620SOL     OW 1875   2.389   2.118   2.190
  620SOL    HW1 1876   2.416   2.059   2.115
  620SOL    HW2 1877   2.389   2.213   2.159
  621SOL     OW 1878   2.169   1.925   2.480
  621SOL    HW1 1879   2.158   2.019   2.513
  621SOL    HW2 1880   2.164   1.862   2.557
  622SOL     OW 1881   2.677   2.434   2.187
  622SOL    HW1 1882   2.684   2.345   2.141
  622SOL    HW2 1883   2.583   2.468   2.179
  623SOL     OW 1884   2.335   2.362   2.053
  623SOL    HW1 1885   2.396   2.442   2.057
  623SOL    HW2 1886   2.240   2.393   2.060
  624SOL     OW 1887   2.125   2.188   2.582
  624SOL    HW1 1888   2.046   2.239   2.548
  624SOL    HW2 1889   2.116   2.173   2.680
  625SOL     OW 1890   1.937   2.207   1.895
  625SOL    HW1 1891   1.845   2.179   1.866
  625SOL    HW2 1892   1.968   2.284   1.839
  626SOL     OW 1893   1.934   2.028   2.180
  626SOL    HW1 1894   1.917   2.111   2.126
  626SOL    HW2 1895   2.024   1.991   2.158
  627SOL     OW 1896   2.456   2.607   2.514
  627SOL    HW1 1897   2.506   2.692   2.495
  627SOL    HW2 1898   2.368   2.609   2.466
  628SOL     OW 1899   2.290   2.286   2.382
  628SOL    HW1 1900   2.320   2.214   2.320
  628SOL    HW2 1901   2.251   2.246   2.465
   2.68683   2.68683   2.68683
