mobley_7463408_GMX.gro created by acpype (v: 2023.10.27) on Thu May 14 13:40:10 2026
 2764
    1MOL     C1    1   1.361   1.606   1.533
    1MOL     C2    2   1.255   1.663   1.605
    1MOL     C3    3   1.466   1.542   1.740
    1MOL     C4    4   1.467   1.545   1.600
    1MOL     C5    5   1.254   1.659   1.744
    1MOL     C6    6   1.360   1.599   1.812
    1MOL     C7    7   1.601   1.477   1.399
    1MOL     C8    8   1.760   1.394   1.220
    1MOL     C9    9   1.732   1.406   1.369
    1MOL     N1   10   1.578   1.486   1.535
    1MOL     O1   11   1.528   1.520   1.310
    1MOL    CL1   12   1.120   1.731   1.826
    1MOL    CL2   13   1.367   1.590   1.985
    1MOL     H1   14   1.357   1.611   1.425
    1MOL     H2   15   1.173   1.709   1.550
    1MOL     H3   16   1.548   1.496   1.795
    1MOL     H4   17   1.681   1.338   1.170
    1MOL     H5   18   1.854   1.342   1.203
    1MOL     H6   19   1.766   1.493   1.174
    1MOL     H7   20   1.813   1.461   1.417
    1MOL     H8   21   1.727   1.306   1.413
    1MOL     H9   22   1.648   1.446   1.595
    2SOL     OW   23   0.230   0.628   0.113
    2SOL    HW1   24   0.137   0.626   0.150
    2SOL    HW2   25   0.231   0.589   0.021
    3SOL     OW   26   0.225   0.275   0.996
    3SOL    HW1   27   0.260   0.258   1.088
    3SOL    HW2   28   0.137   0.230   0.984
    4SOL     OW   29   0.019   0.368   0.647
    4SOL    HW1   30  -0.063   0.411   0.686
    4SOL    HW2   31  -0.009   0.295   0.584
    5SOL     OW   32   0.569   1.275   1.165
    5SOL    HW1   33   0.476   1.268   1.128
    5SOL    HW2   34   0.580   1.364   1.209
    6SOL     OW   35   1.555   1.511   0.703
    6SOL    HW1   36   1.498   1.495   0.784
    6SOL    HW2   37   1.496   1.521   0.623
    7SOL     OW   38   1.135   0.703   0.717
    7SOL    HW1   39   1.192   0.781   0.692
    7SOL    HW2   40   1.075   0.729   0.793
    8SOL     OW   41   1.755   0.607   0.231
    8SOL    HW1   42   1.743   0.594   0.132
    8SOL    HW2   43   1.725   0.526   0.280
    9SOL     OW   44   0.768   1.144   1.023
    9SOL    HW1   45   0.690   1.161   1.083
    9SOL    HW2   46   0.802   1.231   0.987
   10SOL     OW   47   0.850   0.798   1.823
   10SOL    HW1   48   0.846   0.874   1.888
   10SOL    HW2   49   0.872   0.834   1.732
   11SOL     OW   50   0.685   1.012   0.665
   11SOL    HW1   51   0.754   0.996   0.735
   11SOL    HW2   52   0.612   1.069   0.703
   12SOL     OW   53   0.686   1.161   1.803
   12SOL    HW1   54   0.746   1.240   1.817
   12SOL    HW2   55   0.600   1.192   1.762
   13SOL     OW   56   0.335   1.435   1.061
   13SOL    HW1   57   0.257   1.404   1.008
   13SOL    HW2   58   0.393   1.493   1.004
   14SOL     OW   59   0.438   0.392   1.499
   14SOL    HW1   60   0.520   0.336   1.508
   14SOL    HW2   61   0.357   0.334   1.503
   15SOL     OW   62   1.603   0.447   0.737
   15SOL    HW1   63   1.529   0.493   0.687
   15SOL    HW2   64   1.654   0.515   0.790
   16SOL     OW   65   0.231   1.713   0.483
   16SOL    HW1   66   0.265   1.790   0.537
   16SOL    HW2   67   0.275   1.713   0.393
   17SOL     OW   68   1.127   1.341   1.690
   17SOL    HW1   69   1.174   1.341   1.778
   17SOL    HW2   70   1.079   1.254   1.679
   18SOL     OW   71   0.230   1.434   0.538
   18SOL    HW1   72   0.204   1.530   0.538
   18SOL    HW2   73   0.159   1.380   0.583
   19SOL     OW   74   0.240   1.091   0.886
   19SOL    HW1   75   0.254   1.007   0.938
   19SOL    HW2   76   0.185   1.155   0.941
   20SOL     OW   77   0.620   1.786   1.439
   20SOL    HW1   78   0.528   1.769   1.474
   20SOL    HW2   79   0.648   1.878   1.465
   21SOL     OW   80   0.606   0.964   0.123
   21SOL    HW1   81   0.613   1.048   0.069
   21SOL    HW2   82   0.652   0.977   0.211
   22SOL     OW   83   1.594   0.114   1.480
   22SOL    HW1   84   1.576   0.181   1.408
   22SOL    HW2   85   1.591   0.160   1.569
   23SOL     OW   86   0.122   0.643   0.563
   23SOL    HW1   87   0.077   0.555   0.580
   23SOL    HW2   88   0.121   0.697   0.647
   24SOL     OW   89   1.842   1.767   0.359
   24SOL    HW1   90   1.896   1.738   0.439
   24SOL    HW2   91   1.872   1.857   0.330
   25SOL     OW   92   0.027   1.596   0.117
   25SOL    HW1   93   0.008   1.500   0.138
   25SOL    HW2   94  -0.006   1.654   0.192
   26SOL     OW   95   1.689   0.922   0.612
   26SOL    HW1   96   1.784   0.893   0.620
   26SOL    HW2   97   1.681   0.987   0.537
   27SOL     OW   98   1.641   1.108   0.432
   27SOL    HW1   99   1.727   1.110   0.380
   27SOL    HW2  100   1.655   1.155   0.520
   28SOL     OW  101   0.113   0.737   1.597
   28SOL    HW1  102   0.201   0.724   1.642
   28SOL    HW2  103   0.100   0.834   1.575
   29SOL     OW  104   0.613   1.365   0.726
   29SOL    HW1  105   0.564   1.278   0.735
   29SOL    HW2  106   0.590   1.408   0.639
   30SOL     OW  107   1.293   1.228   1.423
   30SOL    HW1  108   1.330   1.155   1.365
   30SOL    HW2  109   1.345   1.233   1.508
   31SOL     OW  110   0.809   0.004   0.502
   31SOL    HW1  111   0.849   0.095   0.493
   31SOL    HW2  112   0.709   0.012   0.508
   32SOL     OW  113   0.197   0.976   1.264
   32SOL    HW1  114   0.286   0.931   1.250
   32SOL    HW2  115   0.124   0.911   1.245
   33SOL     OW  116   1.525   0.999   0.190
   33SOL    HW1  117   1.462   0.923   0.203
   33SOL    HW2  118   1.573   1.017   0.276
   34SOL     OW  119   0.317   0.251   1.801
   34SOL    HW1  120   0.388   0.322   1.807
   34SOL    HW2  121   0.229   0.290   1.829
   35SOL     OW  122   1.466   1.417   0.953
   35SOL    HW1  123   1.407   1.423   1.033
   35SOL    HW2  124   1.451   1.329   0.907
   36SOL     OW  125   1.667   1.714   0.572
   36SOL    HW1  126   1.626   1.691   0.484
   36SOL    HW2  127   1.649   1.640   0.637
   37SOL     OW  128   0.598   0.729   0.270
   37SOL    HW1  129   0.622   0.798   0.202
   37SOL    HW2  130   0.520   0.762   0.324
   38SOL     OW  131   1.281   0.345   0.944
   38SOL    HW1  132   1.195   0.295   0.931
   38SOL    HW2  133   1.343   0.291   1.000
   39SOL     OW  134   1.576   1.662   0.307
   39SOL    HW1  135   1.665   1.708   0.310
   39SOL    HW2  136   1.555   1.638   0.212
   40SOL     OW  137   0.807   0.605   1.465
   40SOL    HW1  138   0.760   0.602   1.554
   40SOL    HW2  139   0.756   0.550   1.399
   41SOL     OW  140   1.394   0.469   1.674
   41SOL    HW1  141   1.374   0.512   1.762
   41SOL    HW2  142   1.472   0.407   1.683
   42SOL     OW  143   0.973   0.890   1.572
   42SOL    HW1  144   1.019   0.806   1.543
   42SOL    HW2  145   0.917   0.924   1.497
   43SOL     OW  146   0.991   0.410   1.242
   43SOL    HW1  147   0.914   0.444   1.296
   43SOL    HW2  148   0.957   0.359   1.163
   44SOL     OW  149   1.041   0.701   0.429
   44SOL    HW1  150   1.067   0.697   0.525
   44SOL    HW2  151   0.956   0.650   0.415
   45SOL     OW  152   0.076   0.811   0.789
   45SOL    HW1  153   0.175   0.799   0.798
   45SOL    HW2  154   0.052   0.906   0.810
   46SOL     OW  155   0.130   1.821   1.571
   46SOL    HW1  156   0.120   1.806   1.670
   46SOL    HW2  157   0.044   1.857   1.535
   47SOL     OW  158   0.865   0.348   0.195
   47SOL    HW1  159   0.924   0.411   0.146
   47SOL    HW2  160   0.884   0.254   0.166
   48SOL     OW  161   1.719   0.585   1.831
   48SOL    HW1  162   1.693   0.674   1.795
   48SOL    HW2  163   1.717   0.517   1.758
   49SOL     OW  164   1.362   1.144   0.545
   49SOL    HW1  165   1.445   1.115   0.497
   49SOL    HW2  166   1.313   1.211   0.489
   50SOL     OW  167   0.550   0.196   0.885
   50SOL    HW1  168   0.545   0.191   0.985
   50SOL    HW2  169   0.552   0.292   0.856
   51SOL     OW  170   1.008   1.456   0.477
   51SOL    HW1  171   0.962   1.528   0.425
   51SOL    HW2  172   1.004   1.476   0.575
   52SOL     OW  173   0.351   1.801   0.853
   52SOL    HW1  174   0.401   1.715   0.859
   52SOL    HW2  175   0.416   1.878   0.850
   53SOL     OW  176   1.795   1.066   0.873
   53SOL    HW1  177   1.733   1.051   0.797
   53SOL    HW2  178   1.743   1.077   0.958
   54SOL     OW  179   0.321   0.943   0.242
   54SOL    HW1  180   0.403   0.982   0.200
   54SOL    HW2  181   0.294   0.861   0.193
   55SOL     OW  182   1.458   0.735   0.728
   55SOL    HW1  183   1.453   0.670   0.803
   55SOL    HW2  184   1.538   0.794   0.741
   56SOL     OW  185   0.461   1.266   1.727
   56SOL    HW1  186   0.411   1.267   1.641
   56SOL    HW2  187   0.398   1.248   1.803
   57SOL     OW  188   1.111   1.776   0.237
   57SOL    HW1  189   1.051   1.714   0.287
   57SOL    HW2  190   1.142   1.732   0.152
   58SOL     OW  191   0.202   0.285   1.498
   58SOL    HW1  192   0.122   0.345   1.485
   58SOL    HW2  193   0.192   0.236   1.584
   59SOL     OW  194   1.632   1.377   0.081
   59SOL    HW1  195   1.600   1.471   0.071
   59SOL    HW2  196   1.556   1.314   0.069
   60SOL     OW  197   0.464   1.743   0.323
   60SOL    HW1  198   0.497   1.782   0.409
   60SOL    HW2  199   0.540   1.736   0.258
   61SOL     OW  200   1.400   0.107   0.426
   61SOL    HW1  201   1.376   0.070   0.336
   61SOL    HW2  202   1.499   0.123   0.430
   62SOL     OW  203   0.249   1.785   1.241
   62SOL    HW1  204   0.306   1.720   1.291
   62SOL    HW2  205   0.233   1.752   1.148
   63SOL     OW  206   0.940   1.698   0.904
   63SOL    HW1  207   1.020   1.641   0.925
   63SOL    HW2  208   0.891   1.658   0.827
   64SOL     OW  209   0.382   0.700   0.480
   64SOL    HW1  210   0.427   0.610   0.477
   64SOL    HW2  211   0.288   0.689   0.513
   65SOL     OW  212   1.547   0.222   1.729
   65SOL    HW1  213   1.542   0.259   1.821
   65SOL    HW2  214   1.475   0.153   1.717
   66SOL     OW  215   0.614   0.122   0.117
   66SOL    HW1  216   0.712   0.100   0.124
   66SOL    HW2  217   0.583   0.105   0.024
   67SOL     OW  218   0.781   0.264   1.749
   67SOL    HW1  219   0.848   0.203   1.792
   67SOL    HW2  220   0.708   0.283   1.814
   68SOL     OW  221   0.888   1.514   1.195
   68SOL    HW1  222   0.865   1.489   1.101
   68SOL    HW2  223   0.949   1.445   1.234
   69SOL     OW  224   1.351   0.590   1.433
   69SOL    HW1  225   1.379   0.547   1.518
   69SOL    HW2  226   1.376   0.686   1.434
   70SOL     OW  227   0.803   1.402   0.924
   70SOL    HW1  228   0.893   1.416   0.882
   70SOL    HW2  229   0.732   1.404   0.853
   71SOL     OW  230   0.922   0.503   0.899
   71SOL    HW1  231   0.897   0.494   0.803
   71SOL    HW2  232   0.970   0.421   0.930
   72SOL     OW  233   0.539   0.064   0.512
   72SOL    HW1  234   0.458   0.065   0.570
   72SOL    HW2  235   0.542   0.147   0.457
   73SOL     OW  236   1.434   1.188   0.041
   73SOL    HW1  237   1.466   1.112   0.098
   73SOL    HW2  238   1.342   1.215   0.071
   74SOL     OW  239   0.297   0.035   0.171
   74SOL    HW1  240   0.346   0.119   0.150
   74SOL    HW2  241   0.359  -0.030   0.216
   75SOL     OW  242   0.935   0.236   0.480
   75SOL    HW1  243   0.887   0.277   0.402
   75SOL    HW2  244   1.034   0.234   0.461
   76SOL     OW  245   1.076   0.683   1.464
   76SOL    HW1  246   0.996   0.622   1.467
   76SOL    HW2  247   1.157   0.630   1.440
   77SOL     OW  248   1.227   1.570   0.793
   77SOL    HW1  249   1.248   1.644   0.728
   77SOL    HW2  250   1.295   1.570   0.866
   78SOL     OW  251   0.459   1.152   0.741
   78SOL    HW1  252   0.388   1.125   0.806
   78SOL    HW2  253   0.433   1.124   0.648
   79SOL     OW  254   1.271   1.797   0.591
   79SOL    HW1  255   1.315   1.861   0.527
   79SOL    HW2  256   1.221   1.849   0.661
   80SOL     OW  257   1.032   0.549   0.016
   80SOL    HW1  258   0.991   0.631  -0.023
   80SOL    HW2  259   1.096   0.575   0.089
   81SOL     OW  260   0.078   0.556   1.386
   81SOL    HW1  261   0.170   0.555   1.345
   81SOL    HW2  262   0.072   0.630   1.453
   82SOL     OW  263   0.561   0.222   1.147
   82SOL    HW1  264   0.599   0.138   1.184
   82SOL    HW2  265   0.473   0.241   1.191
   83SOL     OW  266   0.866   0.454   0.642
   83SOL    HW1  267   0.834   0.526   0.580
   83SOL    HW2  268   0.890   0.373   0.589
   84SOL     OW  269   1.017   0.039   0.753
   84SOL    HW1  270   0.945   0.044   0.684
   84SOL    HW2  271   0.993  -0.030   0.822
   85SOL     OW  272   1.429   1.173   0.867
   85SOL    HW1  273   1.374   1.089   0.860
   85SOL    HW2  274   1.455   1.202   0.775
   86SOL     OW  275   1.466   0.590   0.992
   86SOL    HW1  276   1.436   0.495   0.999
   86SOL    HW2  277   1.539   0.606   1.058
   87SOL     OW  278   1.857   0.833   0.377
   87SOL    HW1  279   1.899   0.769   0.441
   87SOL    HW2  280   1.819   0.782   0.299
   88SOL     OW  281   0.488   1.385   0.174
   88SOL    HW1  282   0.401   1.370   0.221
   88SOL    HW2  283   0.471   1.411   0.079
   89SOL     OW  284   1.664   1.280   0.657
   89SOL    HW1  285   1.763   1.288   0.671
   89SOL    HW2  286   1.619   1.364   0.688
   90SOL     OW  287   1.390   0.575   0.078
   90SOL    HW1  288   1.336   0.554   0.159
   90SOL    HW2  289   1.481   0.534   0.087
   91SOL     OW  290   0.527   0.256   0.328
   91SOL    HW1  291   0.554   0.197   0.253
   91SOL    HW2  292   0.527   0.351   0.297
   92SOL     OW  293   1.754   1.223   1.588
   92SOL    HW1  294   1.845   1.184   1.575
   92SOL    HW2  295   1.762   1.319   1.612
   93SOL     OW  296   1.064   1.347   1.340
   93SOL    HW1  297   0.984   1.324   1.395
   93SOL    HW2  298   1.147   1.321   1.389
   94SOL     OW  299   1.111   1.195   1.100
   94SOL    HW1  300   1.071   1.239   1.181
   94SOL    HW2  301   1.070   1.232   1.017
   95SOL     OW  302   1.638   1.099   1.079
   95SOL    HW1  303   1.643   1.180   1.138
   95SOL    HW2  304   1.552   1.101   1.028
   96SOL     OW  305   0.915   0.089   1.402
   96SOL    HW1  306   0.940   0.069   1.307
   96SOL    HW2  307   0.987   0.145   1.444
   97SOL     OW  308   0.980   1.116   1.719
   97SOL    HW1  309   0.881   1.122   1.729
   97SOL    HW2  310   1.003   1.036   1.663
   98SOL     OW  311   0.705   1.050   0.368
   98SOL    HW1  312   0.691   1.057   0.467
   98SOL    HW2  313   0.789   0.999   0.350
   99SOL     OW  314   0.410   0.813   1.251
   99SOL    HW1  315   0.496   0.825   1.301
   99SOL    HW2  316   0.368   0.726   1.278
  100SOL     OW  317   1.274   0.386   1.262
  100SOL    HW1  318   1.295   0.460   1.326
  100SOL    HW2  319   1.185   0.403   1.219
  101SOL     OW  320   0.064   1.564   1.331
  101SOL    HW1  321   0.018   1.646   1.297
  101SOL    HW2  322   0.162   1.583   1.340
  102SOL     OW  323   0.367   1.100   0.501
  102SOL    HW1  324   0.360   1.183   0.445
  102SOL    HW2  325   0.371   1.020   0.441
  103SOL     OW  326   0.566   0.537   0.865
  103SOL    HW1  327   0.578   0.603   0.791
  103SOL    HW2  328   0.612   0.571   0.948
  104SOL     OW  329   1.252   1.348   0.388
  104SOL    HW1  330   1.302   1.425   0.428
  104SOL    HW2  331   1.157   1.350   0.420
  105SOL     OW  332   1.272   1.445   1.142
  105SOL    HW1  333   1.319   1.458   1.229
  105SOL    HW2  334   1.206   1.371   1.151
  106SOL     OW  335   1.582   0.639   0.472
  106SOL    HW1  336   1.551   0.700   0.545
  106SOL    HW2  337   1.632   0.691   0.403
  107SOL     OW  338   0.354   1.510   1.329
  107SOL    HW1  339   0.333   1.466   1.242
  107SOL    HW2  340   0.451   1.536   1.332
  108SOL     OW  341   0.402   0.751   1.598
  108SOL    HW1  342   0.470   0.806   1.551
  108SOL    HW2  343   0.442   0.663   1.625
  109SOL     OW  344   1.587   0.779   1.670
  109SOL    HW1  345   1.495   0.817   1.665
  109SOL    HW2  346   1.647   0.826   1.605
  110SOL     OW  347   1.013   0.105   1.770
  110SOL    HW1  348   1.019   0.190   1.718
  110SOL    HW2  349   1.045   0.029   1.713
  111SOL     OW  350   0.504   0.050   1.740
  111SOL    HW1  351   0.462  -0.007   1.670
  111SOL    HW2  352   0.438   0.119   1.772
  112SOL     OW  353   0.573   0.870   1.029
  112SOL    HW1  354   0.617   0.959   1.020
  112SOL    HW2  355   0.510   0.870   1.106
  113SOL     OW  356   1.360   0.862   1.045
  113SOL    HW1  357   1.285   0.862   0.979
  113SOL    HW2  358   1.397   0.770   1.054
  114SOL     OW  359   1.209   0.525   0.275
  114SOL    HW1  360   1.222   0.441   0.329
  114SOL    HW2  361   1.180   0.599   0.335
  115SOL     OW  362   0.307   0.213   1.231
  115SOL    HW1  363   0.284   0.250   1.321
  115SOL    HW2  364   0.277   0.118   1.225
  116SOL     OW  365   0.037   1.310   1.282
  116SOL    HW1  366   0.090   1.261   1.350
  116SOL    HW2  367   0.059   1.408   1.287
  117SOL     OW  368   0.732   0.634   1.064
  117SOL    HW1  369   0.791   0.608   0.988
  117SOL    HW2  370   0.704   0.730   1.053
  118SOL     OW  371   1.728   0.935   1.854
  118SOL    HW1  372   1.682   0.928   1.765
  118SOL    HW2  373   1.666   0.979   1.920
  119SOL     OW  374   0.307   0.063   0.618
  119SOL    HW1  375   0.296   0.157   0.651
  119SOL    HW2  376   0.302   0.000   0.695
  120SOL     OW  377   1.622   0.367   0.374
  120SOL    HW1  378   1.624   0.291   0.438
  120SOL    HW2  379   1.574   0.444   0.414
  121SOL     OW  380   1.023   0.766   0.966
  121SOL    HW1  381   1.038   0.787   1.062
  121SOL    HW2  382   0.993   0.671   0.957
  122SOL     OW  383   0.980   1.573   1.700
  122SOL    HW1  384   0.960   1.617   1.612
  122SOL    HW2  385   1.019   1.482   1.684
  123SOL     OW  386   1.859   1.518   1.605
  123SOL    HW1  387   1.873   1.545   1.510
  123SOL    HW2  388   1.942   1.540   1.658
  124SOL     OW  389   0.350   0.898   1.804
  124SOL    HW1  390   0.426   0.942   1.852
  124SOL    HW2  391   0.385   0.851   1.722
  125SOL     OW  392   1.540   0.274   0.125
  125SOL    HW1  393   1.479   0.199   0.148
  125SOL    HW2  394   1.562   0.326   0.208
  126SOL     OW  395   1.303   0.838   0.042
  126SOL    HW1  396   1.337   0.745   0.057
  126SOL    HW2  397   1.321   0.865  -0.053
  127SOL     OW  398   1.068   1.333   0.849
  127SOL    HW1  399   1.075   1.249   0.794
  127SOL    HW2  400   1.130   1.402   0.813
  128SOL     OW  401   0.319   0.810   0.949
  128SOL    HW1  402   0.412   0.846   0.954
  128SOL    HW2  403   0.313   0.725   1.001
  129SOL     OW  404   0.339   0.509   1.006
  129SOL    HW1  405   0.287   0.426   0.989
  129SOL    HW2  406   0.416   0.514   0.942
  130SOL     OW  407   1.138   0.380   1.678
  130SOL    HW1  408   1.093   0.443   1.742
  130SOL    HW2  409   1.231   0.411   1.661
  131SOL     OW  410   1.160   0.207   1.477
  131SOL    HW1  411   1.160   0.271   1.554
  131SOL    HW2  412   1.188   0.255   1.394
  132SOL     OW  413   0.008   1.326   0.200
  132SOL    HW1  414  -0.085   1.347   0.169
  132SOL    HW2  415   0.018   1.227   0.213
  133SOL     OW  416   0.088   1.801   0.927
  133SOL    HW1  417   0.046   1.715   0.900
  133SOL    HW2  418   0.182   1.804   0.893
  134SOL     OW  419   0.504   1.568   0.910
  134SOL    HW1  420   0.570   1.642   0.919
  134SOL    HW2  421   0.548   1.489   0.868
  135SOL     OW  422   1.002   0.796   1.238
  135SOL    HW1  423   1.043   0.764   1.324
  135SOL    HW2  424   0.906   0.769   1.235
  136SOL     OW  425   0.040   0.544   1.114
  136SOL    HW1  426   0.125   0.511   1.073
  136SOL    HW2  427   0.053   0.559   1.212
  137SOL     OW  428   0.189   0.520   1.722
  137SOL    HW1  429   0.248   0.480   1.652
  137SOL    HW2  430   0.131   0.591   1.681
  138SOL     OW  431   1.369   0.950   1.660
  138SOL    HW1  432   1.408   1.039   1.680
  138SOL    HW2  433   1.379   0.930   1.563
  139SOL     OW  434   0.815   0.572   0.325
  139SOL    HW1  435   0.822   0.483   0.279
  139SOL    HW2  436   0.721   0.606   0.317
  140SOL     OW  437   1.657   0.604   1.206
  140SOL    HW1  438   1.619   0.535   1.268
  140SOL    HW2  439   1.739   0.568   1.162
  141SOL     OW  440   0.252   1.564   1.744
  141SOL    HW1  441   0.222   1.621   1.820
  141SOL    HW2  442   0.245   1.467   1.770
  142SOL     OW  443   0.671   0.464   1.269
  142SOL    HW1  444   0.637   0.375   1.239
  142SOL    HW2  445   0.697   0.518   1.189
  143SOL     OW  446   0.930   1.678   1.465
  143SOL    HW1  447   0.906   1.660   1.370
  143SOL    HW2  448   0.960   1.772   1.475
  144SOL     OW  449   0.473   0.500   0.191
  144SOL    HW1  450   0.534   0.580   0.195
  144SOL    HW2  451   0.378   0.531   0.198
  145SOL     OW  452   0.159   1.137   1.466
  145SOL    HW1  453   0.181   1.076   1.542
  145SOL    HW2  454   0.169   1.088   1.380
  146SOL     OW  455   1.347   1.059   1.234
  146SOL    HW1  456   1.371   0.996   1.160
  146SOL    HW2  457   1.257   1.099   1.216
  147SOL     OW  458   1.302   0.855   0.309
  147SOL    HW1  459   1.216   0.824   0.351
  147SOL    HW2  460   1.298   0.841   0.210
  148SOL     OW  461   1.759   1.747   1.154
  148SOL    HW1  462   1.820   1.777   1.081
  148SOL    HW2  463   1.721   1.658   1.132
  149SOL     OW  464   1.252   1.731   1.128
  149SOL    HW1  465   1.336   1.736   1.074
  149SOL    HW2  466   1.229   1.635   1.146
  150SOL     OW  467   0.083   1.258   1.022
  150SOL    HW1  468   0.078   1.257   1.122
  150SOL    HW2  469   0.000   1.217   0.984
  151SOL     OW  470   0.688   1.662   1.716
  151SOL    HW1  471   0.632   1.743   1.725
  151SOL    HW2  472   0.740   1.666   1.630
  152SOL     OW  473   0.903   0.086   0.133
  152SOL    HW1  474   0.954   0.087   0.047
  152SOL    HW2  475   0.959   0.044   0.204
  153SOL     OW  476   1.726   0.135   0.523
  153SOL    HW1  477   1.799   0.118   0.456
  153SOL    HW2  478   1.695   0.048   0.561
  154SOL     OW  479   1.388   1.573   0.477
  154SOL    HW1  480   1.455   1.585   0.403
  154SOL    HW2  481   1.348   1.662   0.500
  155SOL     OW  482   0.130   1.794   1.851
  155SOL    HW1  483   0.089   1.720   1.904
  155SOL    HW2  484   0.194   1.845   1.909
  156SOL     OW  485   1.280   0.927   0.672
  156SOL    HW1  486   1.340   0.846   0.674
  156SOL    HW2  487   1.320   0.996   0.612
  157SOL     OW  488   0.830   1.273   1.422
  157SOL    HW1  489   0.825   1.306   1.517
  157SOL    HW2  490   0.744   1.292   1.376
  158SOL     OW  491   0.672   1.616   0.154
  158SOL    HW1  492   0.681   1.626   0.055
  158SOL    HW2  493   0.632   1.527   0.175
  159SOL     OW  494   1.650   1.720   1.394
  159SOL    HW1  495   1.703   1.730   1.310
  159SOL    HW2  496   1.623   1.810   1.428
  160SOL     OW  497   1.841   0.175   0.963
  160SOL    HW1  498   1.880   0.090   0.927
  160SOL    HW2  499   1.743   0.177   0.944
  161SOL     OW  500   0.263   0.326   0.720
  161SOL    HW1  501   0.184   0.377   0.686
  161SOL    HW2  502   0.254   0.311   0.818
  162SOL     OW  503   1.194   1.612   0.031
  162SOL    HW1  504   1.200   1.519   0.068
  162SOL    HW2  505   1.135   1.612  -0.049
  163SOL     OW  506   0.822   1.002   1.372
  163SOL    HW1  507   0.862   1.001   1.280
  163SOL    HW2  508   0.832   1.094   1.412
  164SOL     OW  509   0.916   0.910   0.291
  164SOL    HW1  510   0.979   0.948   0.223
  164SOL    HW2  511   0.956   0.827   0.330
  165SOL     OW  512   1.504   1.607   0.044
  165SOL    HW1  513   1.412   1.644   0.051
  165SOL    HW2  514   1.542   1.627  -0.046
  166SOL     OW  515   0.372   1.288   1.490
  166SOL    HW1  516   0.359   1.381   1.456
  166SOL    HW2  517   0.288   1.236   1.477
  167SOL     OW  518   1.039   1.098   0.696
  167SOL    HW1  519   0.969   1.051   0.750
  167SOL    HW2  520   1.098   1.030   0.653
  168SOL     OW  521   1.014   0.236   0.971
  168SOL    HW1  522   1.006   0.200   0.878
  168SOL    HW2  523   1.012   0.160   1.036
  169SOL     OW  524   0.590   1.487   0.491
  169SOL    HW1  525   0.632   1.429   0.421
  169SOL    HW2  526   0.546   1.566   0.447
  170SOL     OW  527   1.709   0.385   1.381
  170SOL    HW1  528   1.782   0.454   1.385
  170SOL    HW2  529   1.737   0.310   1.322
  171SOL     OW  530   0.255   1.348   0.290
  171SOL    HW1  531   0.159   1.349   0.263
  171SOL    HW2  532   0.267   1.401   0.374
  172SOL     OW  533   0.105   1.013   1.726
  172SOL    HW1  534   0.028   0.980   1.780
  172SOL    HW2  535   0.190   0.983   1.768
  173SOL     OW  536   0.672   0.203   1.489
  173SOL    HW1  537   0.762   0.187   1.449
  173SOL    HW2  538   0.680   0.208   1.588
  174SOL     OW  539   0.075   0.345   0.033
  174SOL    HW1  540  -0.017   0.317   0.004
  174SOL    HW2  541   0.106   0.422  -0.023
  175SOL     OW  542   1.440   0.856   1.398
  175SOL    HW1  543   1.383   0.908   1.335
  175SOL    HW2  544   1.536   0.868   1.374
  176SOL     OW  545   0.072   0.166   0.318
  176SOL    HW1  546   0.055   0.249   0.264
  176SOL    HW2  547   0.162   0.129   0.296
  177SOL     OW  548   1.183   1.335   0.119
  177SOL    HW1  549   1.084   1.324   0.121
  177SOL    HW2  550   1.217   1.350   0.212
  178SOL     OW  551   0.613   0.842   1.431
  178SOL    HW1  552   0.669   0.923   1.414
  178SOL    HW2  553   0.672   0.762   1.434
  179SOL     OW  554   1.493   1.767   0.959
  179SOL    HW1  555   1.526   1.831   0.890
  179SOL    HW2  556   1.559   1.761   1.034
  180SOL     OW  557   0.716   0.565   1.708
  180SOL    HW1  558   0.735   0.630   1.782
  180SOL    HW2  559   0.776   0.485   1.717
  181SOL     OW  560   1.450   1.220   1.633
  181SOL    HW1  561   1.441   1.210   1.732
  181SOL    HW2  562   1.546   1.213   1.607
  182SOL     OW  563   0.390   1.741   1.560
  182SOL    HW1  564   0.299   1.782   1.558
  182SOL    HW2  565   0.383   1.647   1.592
  183SOL     OW  566   1.674   0.883   1.254
  183SOL    HW1  567   1.647   0.794   1.217
  183SOL    HW2  568   1.675   0.951   1.181
  184SOL     OW  569   1.225   0.325   0.449
  184SOL    HW1  570   1.290   0.251   0.438
  184SOL    HW2  571   1.245   0.375   0.533
  185SOL     OW  572   0.594   0.745   0.652
  185SOL    HW1  573   0.644   0.830   0.633
  185SOL    HW2  574   0.506   0.747   0.604
  186SOL     OW  575   1.777   0.342   1.642
  186SOL    HW1  576   1.760   0.373   1.548
  186SOL    HW2  577   1.693   0.305   1.680
  187SOL     OW  578   1.730   0.934   1.517
  187SOL    HW1  579   1.768   1.025   1.532
  187SOL    HW2  580   1.722   0.917   1.418
  188SOL     OW  581   0.859   1.374   0.016
  188SOL    HW1  582   0.813   1.389   0.104
  188SOL    HW2  583   0.903   1.459  -0.014
  189SOL     OW  584   0.661   1.790   0.953
  189SOL    HW1  585   0.615   1.878   0.940
  189SOL    HW2  586   0.760   1.802   0.946
  190SOL     OW  587   0.859   0.956   0.861
  190SOL    HW1  588   0.913   0.887   0.909
  190SOL    HW2  589   0.827   1.025   0.927
  191SOL     OW  590   1.083   0.984   0.087
  191SOL    HW1  591   1.060   1.037   0.005
  191SOL    HW2  592   1.164   0.928   0.068
  192SOL     OW  593   1.861   1.569   0.851
  192SOL    HW1  594   1.790   1.557   0.781
  192SOL    HW2  595   1.862   1.490   0.911
  193SOL     OW  596   0.221   1.314   1.844
  193SOL    HW1  597   0.156   1.241   1.823
  193SOL    HW2  598   0.225   1.328   1.942
  194SOL     OW  599   0.079   1.240   0.653
  194SOL    HW1  600   0.078   1.193   0.741
  194SOL    HW2  601   0.161   1.212   0.602
  195SOL     OW  602   0.672   1.391   1.624
  195SOL    HW1  603   0.594   1.341   1.662
  195SOL    HW2  604   0.669   1.486   1.655
  196SOL     OW  605   1.824   0.192   1.227
  196SOL    HW1  606   1.820   0.102   1.271
  196SOL    HW2  607   1.827   0.181   1.128
  197SOL     OW  608   0.428   0.424   0.520
  197SOL    HW1  609   0.458   0.352   0.458
  197SOL    HW2  610   0.389   0.384   0.603
  198SOL     OW  611   0.317   0.547   1.280
  198SOL    HW1  612   0.355   0.488   1.352
  198SOL    HW2  613   0.357   0.521   1.192
  199SOL     OW  614   0.812   1.586   0.687
  199SOL    HW1  615   0.844   1.596   0.593
  199SOL    HW2  616   0.733   1.524   0.689
  200SOL     OW  617   1.424   0.214   1.112
  200SOL    HW1  618   1.476   0.149   1.167
  200SOL    HW2  619   1.375   0.277   1.173
  201SOL     OW  620   1.001   0.034   1.154
  201SOL    HW1  621   0.938  -0.038   1.123
  201SOL    HW2  622   1.094  -0.002   1.154
  202SOL     OW  623   0.770   1.330   0.301
  202SOL    HW1  624   0.724   1.243   0.318
  202SOL    HW2  625   0.861   1.327   0.342
  203SOL     OW  626   0.618   1.567   1.284
  203SOL    HW1  627   0.613   1.649   1.341
  203SOL    HW2  628   0.707   1.564   1.239
  204SOL     OW  629   1.352   0.052   0.168
  204SOL    HW1  630   1.387   0.011   0.084
  204SOL    HW2  631   1.262   0.014   0.188
  205SOL     OW  632   1.300   0.453   0.691
  205SOL    HW1  633   1.241   0.533   0.695
  205SOL    HW2  634   1.315   0.418   0.784
  206SOL     OW  635   1.593   0.221   0.882
  206SOL    HW1  636   1.509   0.220   0.936
  206SOL    HW2  637   1.595   0.304   0.826
  207SOL     OW  638   0.039   1.077   0.300
  207SOL    HW1  639   0.138   1.066   0.291
  207SOL    HW2  640  -0.001   0.991   0.332
  208SOL     OW  641   0.875   1.646   0.337
  208SOL    HW1  642   0.798   1.611   0.283
  208SOL    HW2  643   0.843   1.717   0.399
  209SOL     OW  644   0.230   0.628   1.975
  209SOL    HW1  645   0.137   0.626   2.012
  209SOL    HW2  646   0.231   0.589   1.883
  210SOL     OW  647   0.225   0.275   2.858
  210SOL    HW1  648   0.260   0.258   2.950
  210SOL    HW2  649   0.137   0.230   2.846
  211SOL     OW  650   0.019   0.368   2.509
  211SOL    HW1  651  -0.063   0.411   2.548
  211SOL    HW2  652  -0.009   0.295   2.446
  212SOL     OW  653   1.555   1.511   2.565
  212SOL    HW1  654   1.498   1.495   2.646
  212SOL    HW2  655   1.496   1.521   2.485
  213SOL     OW  656   1.135   0.703   2.579
  213SOL    HW1  657   1.192   0.781   2.554
  213SOL    HW2  658   1.075   0.729   2.655
  214SOL     OW  659   1.755   0.607   2.093
  214SOL    HW1  660   1.743   0.594   1.994
  214SOL    HW2  661   1.725   0.526   2.142
  215SOL     OW  662   0.768   1.144   2.885
  215SOL    HW1  663   0.690   1.161   2.945
  215SOL    HW2  664   0.802   1.231   2.849
  216SOL     OW  665   0.685   1.012   2.527
  216SOL    HW1  666   0.754   0.996   2.597
  216SOL    HW2  667   0.612   1.069   2.565
  217SOL     OW  668   0.335   1.435   2.923
  217SOL    HW1  669   0.257   1.404   2.870
  217SOL    HW2  670   0.393   1.493   2.866
  218SOL     OW  671   1.603   0.447   2.599
  218SOL    HW1  672   1.529   0.493   2.549
  218SOL    HW2  673   1.654   0.515   2.652
  219SOL     OW  674   0.231   1.713   2.345
  219SOL    HW1  675   0.265   1.790   2.399
  219SOL    HW2  676   0.275   1.713   2.255
  220SOL     OW  677   0.230   1.434   2.400
  220SOL    HW1  678   0.204   1.530   2.400
  220SOL    HW2  679   0.159   1.380   2.445
  221SOL     OW  680   0.240   1.091   2.748
  221SOL    HW1  681   0.254   1.007   2.800
  221SOL    HW2  682   0.185   1.155   2.803
  222SOL     OW  683   0.606   0.964   1.985
  222SOL    HW1  684   0.613   1.048   1.931
  222SOL    HW2  685   0.652   0.977   2.073
  223SOL     OW  686   0.122   0.643   2.425
  223SOL    HW1  687   0.077   0.555   2.442
  223SOL    HW2  688   0.121   0.697   2.509
  224SOL     OW  689   1.842   1.767   2.221
  224SOL    HW1  690   1.896   1.738   2.301
  224SOL    HW2  691   1.872   1.857   2.192
  225SOL     OW  692   0.027   1.596   1.979
  225SOL    HW1  693   0.008   1.500   2.000
  225SOL    HW2  694  -0.006   1.654   2.054
  226SOL     OW  695   1.689   0.922   2.474
  226SOL    HW1  696   1.784   0.893   2.482
  226SOL    HW2  697   1.681   0.987   2.399
  227SOL     OW  698   1.641   1.108   2.294
  227SOL    HW1  699   1.727   1.110   2.242
  227SOL    HW2  700   1.655   1.155   2.382
  228SOL     OW  701   0.613   1.365   2.588
  228SOL    HW1  702   0.564   1.278   2.597
  228SOL    HW2  703   0.590   1.408   2.501
  229SOL     OW  704   0.809   0.004   2.364
  229SOL    HW1  705   0.849   0.095   2.355
  229SOL    HW2  706   0.709   0.012   2.370
  230SOL     OW  707   0.197   0.976   3.126
  230SOL    HW1  708   0.286   0.931   3.112
  230SOL    HW2  709   0.124   0.911   3.107
  231SOL     OW  710   1.525   0.999   2.052
  231SOL    HW1  711   1.462   0.923   2.065
  231SOL    HW2  712   1.573   1.017   2.138
  232SOL     OW  713   1.466   1.417   2.815
  232SOL    HW1  714   1.407   1.423   2.895
  232SOL    HW2  715   1.451   1.329   2.769
  233SOL     OW  716   1.667   1.714   2.434
  233SOL    HW1  717   1.626   1.691   2.346
  233SOL    HW2  718   1.649   1.640   2.499
  234SOL     OW  719   0.598   0.729   2.132
  234SOL    HW1  720   0.622   0.798   2.064
  234SOL    HW2  721   0.520   0.762   2.186
  235SOL     OW  722   1.281   0.345   2.806
  235SOL    HW1  723   1.195   0.295   2.793
  235SOL    HW2  724   1.343   0.291   2.862
  236SOL     OW  725   1.576   1.662   2.169
  236SOL    HW1  726   1.665   1.708   2.172
  236SOL    HW2  727   1.555   1.638   2.074
  237SOL     OW  728   1.041   0.701   2.291
  237SOL    HW1  729   1.067   0.697   2.387
  237SOL    HW2  730   0.956   0.650   2.277
  238SOL     OW  731   0.076   0.811   2.651
  238SOL    HW1  732   0.175   0.799   2.660
  238SOL    HW2  733   0.052   0.906   2.672
  239SOL     OW  734   0.865   0.348   2.057
  239SOL    HW1  735   0.924   0.411   2.008
  239SOL    HW2  736   0.884   0.254   2.028
  240SOL     OW  737   1.362   1.144   2.407
  240SOL    HW1  738   1.445   1.115   2.359
  240SOL    HW2  739   1.313   1.211   2.351
  241SOL     OW  740   0.550   0.196   2.747
  241SOL    HW1  741   0.545   0.191   2.847
  241SOL    HW2  742   0.552   0.292   2.718
  242SOL     OW  743   1.008   1.456   2.339
  242SOL    HW1  744   0.962   1.528   2.287
  242SOL    HW2  745   1.004   1.476   2.437
  243SOL     OW  746   0.351   1.801   2.715
  243SOL    HW1  747   0.401   1.715   2.721
  243SOL    HW2  748   0.416   1.878   2.712
  244SOL     OW  749   1.795   1.066   2.735
  244SOL    HW1  750   1.733   1.051   2.659
  244SOL    HW2  751   1.743   1.077   2.820
  245SOL     OW  752   0.321   0.943   2.104
  245SOL    HW1  753   0.403   0.982   2.062
  245SOL    HW2  754   0.294   0.861   2.055
  246SOL     OW  755   1.458   0.735   2.590
  246SOL    HW1  756   1.453   0.670   2.665
  246SOL    HW2  757   1.538   0.794   2.603
  247SOL     OW  758   1.111   1.776   2.099
  247SOL    HW1  759   1.051   1.714   2.149
  247SOL    HW2  760   1.142   1.732   2.014
  248SOL     OW  761   1.632   1.377   1.943
  248SOL    HW1  762   1.600   1.471   1.933
  248SOL    HW2  763   1.556   1.314   1.931
  249SOL     OW  764   0.464   1.743   2.185
  249SOL    HW1  765   0.497   1.782   2.271
  249SOL    HW2  766   0.540   1.736   2.120
  250SOL     OW  767   1.400   0.107   2.288
  250SOL    HW1  768   1.376   0.070   2.198
  250SOL    HW2  769   1.499   0.123   2.292
  251SOL     OW  770   0.249   1.785   3.103
  251SOL    HW1  771   0.306   1.720   3.153
  251SOL    HW2  772   0.233   1.752   3.010
  252SOL     OW  773   0.940   1.698   2.766
  252SOL    HW1  774   1.020   1.641   2.787
  252SOL    HW2  775   0.891   1.658   2.689
  253SOL     OW  776   0.382   0.700   2.342
  253SOL    HW1  777   0.427   0.610   2.339
  253SOL    HW2  778   0.288   0.689   2.375
  254SOL     OW  779   0.614   0.122   1.979
  254SOL    HW1  780   0.712   0.100   1.986
  254SOL    HW2  781   0.583   0.105   1.886
  255SOL     OW  782   0.803   1.402   2.786
  255SOL    HW1  783   0.893   1.416   2.744
  255SOL    HW2  784   0.732   1.404   2.715
  256SOL     OW  785   0.922   0.503   2.761
  256SOL    HW1  786   0.897   0.494   2.665
  256SOL    HW2  787   0.970   0.421   2.792
  257SOL     OW  788   0.539   0.064   2.374
  257SOL    HW1  789   0.458   0.065   2.432
  257SOL    HW2  790   0.542   0.147   2.319
  258SOL     OW  791   1.434   1.188   1.903
  258SOL    HW1  792   1.466   1.112   1.960
  258SOL    HW2  793   1.342   1.215   1.933
  259SOL     OW  794   0.297   0.035   2.033
  259SOL    HW1  795   0.346   0.119   2.012
  259SOL    HW2  796   0.359  -0.030   2.078
  260SOL     OW  797   0.935   0.236   2.342
  260SOL    HW1  798   0.887   0.277   2.264
  260SOL    HW2  799   1.034   0.234   2.323
  261SOL     OW  800   1.227   1.570   2.655
  261SOL    HW1  801   1.248   1.644   2.590
  261SOL    HW2  802   1.295   1.570   2.728
  262SOL     OW  803   0.459   1.152   2.603
  262SOL    HW1  804   0.388   1.125   2.668
  262SOL    HW2  805   0.433   1.124   2.510
  263SOL     OW  806   1.271   1.797   2.453
  263SOL    HW1  807   1.315   1.861   2.389
  263SOL    HW2  808   1.221   1.849   2.523
  264SOL     OW  809   1.032   0.549   1.878
  264SOL    HW1  810   0.991   0.631   1.839
  264SOL    HW2  811   1.096   0.575   1.951
  265SOL     OW  812   0.866   0.454   2.504
  265SOL    HW1  813   0.834   0.526   2.442
  265SOL    HW2  814   0.890   0.373   2.451
  266SOL     OW  815   1.017   0.039   2.615
  266SOL    HW1  816   0.945   0.044   2.546
  266SOL    HW2  817   0.993  -0.030   2.684
  267SOL     OW  818   1.429   1.173   2.729
  267SOL    HW1  819   1.374   1.089   2.722
  267SOL    HW2  820   1.455   1.202   2.637
  268SOL     OW  821   1.466   0.590   2.854
  268SOL    HW1  822   1.436   0.495   2.861
  268SOL    HW2  823   1.539   0.606   2.920
  269SOL     OW  824   1.857   0.833   2.239
  269SOL    HW1  825   1.899   0.769   2.303
  269SOL    HW2  826   1.819   0.782   2.161
  270SOL     OW  827   0.488   1.385   2.036
  270SOL    HW1  828   0.401   1.370   2.083
  270SOL    HW2  829   0.471   1.411   1.941
  271SOL     OW  830   1.664   1.280   2.519
  271SOL    HW1  831   1.763   1.288   2.533
  271SOL    HW2  832   1.619   1.364   2.550
  272SOL     OW  833   1.390   0.575   1.940
  272SOL    HW1  834   1.336   0.554   2.021
  272SOL    HW2  835   1.481   0.534   1.949
  273SOL     OW  836   0.527   0.256   2.190
  273SOL    HW1  837   0.554   0.197   2.115
  273SOL    HW2  838   0.527   0.351   2.159
  274SOL     OW  839   1.111   1.195   2.962
  274SOL    HW1  840   1.071   1.239   3.043
  274SOL    HW2  841   1.070   1.232   2.879
  275SOL     OW  842   1.638   1.099   2.941
  275SOL    HW1  843   1.643   1.180   3.000
  275SOL    HW2  844   1.552   1.101   2.890
  276SOL     OW  845   0.705   1.050   2.230
  276SOL    HW1  846   0.691   1.057   2.329
  276SOL    HW2  847   0.789   0.999   2.212
  277SOL     OW  848   0.410   0.813   3.113
  277SOL    HW1  849   0.496   0.825   3.163
  277SOL    HW2  850   0.368   0.726   3.140
  278SOL     OW  851   0.367   1.100   2.363
  278SOL    HW1  852   0.360   1.183   2.307
  278SOL    HW2  853   0.371   1.020   2.303
  279SOL     OW  854   0.566   0.537   2.727
  279SOL    HW1  855   0.578   0.603   2.653
  279SOL    HW2  856   0.612   0.571   2.810
  280SOL     OW  857   1.252   1.348   2.250
  280SOL    HW1  858   1.302   1.425   2.290
  280SOL    HW2  859   1.157   1.350   2.282
  281SOL     OW  860   1.582   0.639   2.334
  281SOL    HW1  861   1.551   0.700   2.407
  281SOL    HW2  862   1.632   0.691   2.265
  282SOL     OW  863   0.354   1.510   3.191
  282SOL    HW1  864   0.333   1.466   3.104
  282SOL    HW2  865   0.451   1.536   3.194
  283SOL     OW  866   0.573   0.870   2.891
  283SOL    HW1  867   0.617   0.959   2.882
  283SOL    HW2  868   0.510   0.870   2.968
  284SOL     OW  869   1.209   0.525   2.137
  284SOL    HW1  870   1.222   0.441   2.191
  284SOL    HW2  871   1.180   0.599   2.197
  285SOL     OW  872   0.732   0.634   2.926
  285SOL    HW1  873   0.791   0.608   2.850
  285SOL    HW2  874   0.704   0.730   2.915
  286SOL     OW  875   0.307   0.063   2.480
  286SOL    HW1  876   0.296   0.157   2.513
  286SOL    HW2  877   0.302   0.000   2.557
  287SOL     OW  878   1.622   0.367   2.236
  287SOL    HW1  879   1.624   0.291   2.300
  287SOL    HW2  880   1.574   0.444   2.276
  288SOL     OW  881   1.023   0.766   2.828
  288SOL    HW1  882   1.038   0.787   2.924
  288SOL    HW2  883   0.993   0.671   2.819
  289SOL     OW  884   1.540   0.274   1.987
  289SOL    HW1  885   1.479   0.199   2.010
  289SOL    HW2  886   1.562   0.326   2.070
  290SOL     OW  887   1.303   0.838   1.904
  290SOL    HW1  888   1.337   0.745   1.919
  290SOL    HW2  889   1.321   0.865   1.809
  291SOL     OW  890   1.068   1.333   2.711
  291SOL    HW1  891   1.075   1.249   2.656
  291SOL    HW2  892   1.130   1.402   2.675
  292SOL     OW  893   0.319   0.810   2.811
  292SOL    HW1  894   0.412   0.846   2.816
  292SOL    HW2  895   0.313   0.725   2.863
  293SOL     OW  896   0.339   0.509   2.868
  293SOL    HW1  897   0.287   0.426   2.851
  293SOL    HW2  898   0.416   0.514   2.804
  294SOL     OW  899   0.008   1.326   2.062
  294SOL    HW1  900  -0.085   1.347   2.031
  294SOL    HW2  901   0.018   1.227   2.075
  295SOL     OW  902   0.088   1.801   2.789
  295SOL    HW1  903   0.046   1.715   2.762
  295SOL    HW2  904   0.182   1.804   2.755
  296SOL     OW  905   0.504   1.568   2.772
  296SOL    HW1  906   0.570   1.642   2.781
  296SOL    HW2  907   0.548   1.489   2.730
  297SOL     OW  908   1.002   0.796   3.100
  297SOL    HW1  909   1.043   0.764   3.186
  297SOL    HW2  910   0.906   0.769   3.097
  298SOL     OW  911   0.815   0.572   2.187
  298SOL    HW1  912   0.822   0.483   2.141
  298SOL    HW2  913   0.721   0.606   2.179
  299SOL     OW  914   0.671   0.464   3.131
  299SOL    HW1  915   0.637   0.375   3.101
  299SOL    HW2  916   0.697   0.518   3.051
  300SOL     OW  917   0.473   0.500   2.053
  300SOL    HW1  918   0.534   0.580   2.057
  300SOL    HW2  919   0.378   0.531   2.060
  301SOL     OW  920   1.302   0.855   2.171
  301SOL    HW1  921   1.216   0.824   2.213
  301SOL    HW2  922   1.298   0.841   2.072
  302SOL     OW  923   1.759   1.747   3.016
  302SOL    HW1  924   1.820   1.777   2.943
  302SOL    HW2  925   1.721   1.658   2.994
  303SOL     OW  926   0.083   1.258   2.884
  303SOL    HW1  927   0.078   1.257   2.984
  303SOL    HW2  928   0.000   1.217   2.846
  304SOL     OW  929   1.726   0.135   2.385
  304SOL    HW1  930   1.799   0.118   2.318
  304SOL    HW2  931   1.695   0.048   2.423
  305SOL     OW  932   1.388   1.573   2.339
  305SOL    HW1  933   1.455   1.585   2.265
  305SOL    HW2  934   1.348   1.662   2.362
  306SOL     OW  935   1.280   0.927   2.534
  306SOL    HW1  936   1.340   0.846   2.536
  306SOL    HW2  937   1.320   0.996   2.474
  307SOL     OW  938   0.672   1.616   2.016
  307SOL    HW1  939   0.681   1.626   1.917
  307SOL    HW2  940   0.632   1.527   2.037
  308SOL     OW  941   1.841   0.175   2.825
  308SOL    HW1  942   1.880   0.090   2.789
  308SOL    HW2  943   1.743   0.177   2.806
  309SOL     OW  944   0.263   0.326   2.582
  309SOL    HW1  945   0.184   0.377   2.548
  309SOL    HW2  946   0.254   0.311   2.680
  310SOL     OW  947   0.916   0.910   2.153
  310SOL    HW1  948   0.979   0.948   2.085
  310SOL    HW2  949   0.956   0.827   2.192
  311SOL     OW  950   1.039   1.098   2.558
  311SOL    HW1  951   0.969   1.051   2.612
  311SOL    HW2  952   1.098   1.030   2.515
  312SOL     OW  953   1.014   0.236   2.833
  312SOL    HW1  954   1.006   0.200   2.740
  312SOL    HW2  955   1.012   0.160   2.898
  313SOL     OW  956   0.590   1.487   2.353
  313SOL    HW1  957   0.632   1.429   2.283
  313SOL    HW2  958   0.546   1.566   2.309
  314SOL     OW  959   0.255   1.348   2.152
  314SOL    HW1  960   0.159   1.349   2.125
  314SOL    HW2  961   0.267   1.401   2.236
  315SOL     OW  962   0.075   0.345   1.895
  315SOL    HW1  963  -0.017   0.317   1.866
  315SOL    HW2  964   0.106   0.422   1.839
  316SOL     OW  965   0.072   0.166   2.180
  316SOL    HW1  966   0.055   0.249   2.126
  316SOL    HW2  967   0.162   0.129   2.158
  317SOL     OW  968   1.183   1.335   1.981
  317SOL    HW1  969   1.084   1.324   1.983
  317SOL    HW2  970   1.217   1.350   2.074
  318SOL     OW  971   1.493   1.767   2.821
  318SOL    HW1  972   1.526   1.831   2.752
  318SOL    HW2  973   1.559   1.761   2.896
  319SOL     OW  974   1.674   0.883   3.116
  319SOL    HW1  975   1.647   0.794   3.079
  319SOL    HW2  976   1.675   0.951   3.043
  320SOL     OW  977   1.225   0.325   2.311
  320SOL    HW1  978   1.290   0.251   2.300
  320SOL    HW2  979   1.245   0.375   2.395
  321SOL     OW  980   0.594   0.745   2.514
  321SOL    HW1  981   0.644   0.830   2.495
  321SOL    HW2  982   0.506   0.747   2.466
  322SOL     OW  983   0.859   1.374   1.878
  322SOL    HW1  984   0.813   1.389   1.966
  322SOL    HW2  985   0.903   1.459   1.848
  323SOL     OW  986   0.661   1.790   2.815
  323SOL    HW1  987   0.615   1.878   2.802
  323SOL    HW2  988   0.760   1.802   2.808
  324SOL     OW  989   0.859   0.956   2.723
  324SOL    HW1  990   0.913   0.887   2.771
  324SOL    HW2  991   0.827   1.025   2.789
  325SOL     OW  992   1.083   0.984   1.949
  325SOL    HW1  993   1.060   1.037   1.867
  325SOL    HW2  994   1.164   0.928   1.930
  326SOL     OW  995   1.861   1.569   2.713
  326SOL    HW1  996   1.790   1.557   2.643
  326SOL    HW2  997   1.862   1.490   2.773
  327SOL     OW  998   0.079   1.240   2.515
  327SOL    HW1  999   0.078   1.193   2.603
  327SOL    HW2 1000   0.161   1.212   2.464
  328SOL     OW 1001   1.824   0.192   3.089
  328SOL    HW1 1002   1.820   0.102   3.133
  328SOL    HW2 1003   1.827   0.181   2.990
  329SOL     OW 1004   0.428   0.424   2.382
  329SOL    HW1 1005   0.458   0.352   2.320
  329SOL    HW2 1006   0.389   0.384   2.465
  330SOL     OW 1007   0.812   1.586   2.549
  330SOL    HW1 1008   0.844   1.596   2.455
  330SOL    HW2 1009   0.733   1.524   2.551
  331SOL     OW 1010   1.424   0.214   2.974
  331SOL    HW1 1011   1.476   0.149   3.029
  331SOL    HW2 1012   1.375   0.277   3.035
  332SOL     OW 1013   0.770   1.330   2.163
  332SOL    HW1 1014   0.724   1.243   2.180
  332SOL    HW2 1015   0.861   1.327   2.204
  333SOL     OW 1016   1.352   0.052   2.030
  333SOL    HW1 1017   1.387   0.011   1.946
  333SOL    HW2 1018   1.262   0.014   2.050
  334SOL     OW 1019   1.300   0.453   2.553
  334SOL    HW1 1020   1.241   0.533   2.557
  334SOL    HW2 1021   1.315   0.418   2.646
  335SOL     OW 1022   1.593   0.221   2.744
  335SOL    HW1 1023   1.509   0.220   2.798
  335SOL    HW2 1024   1.595   0.304   2.688
  336SOL     OW 1025   0.039   1.077   2.162
  336SOL    HW1 1026   0.138   1.066   2.153
  336SOL    HW2 1027  -0.001   0.991   2.194
  337SOL     OW 1028   0.875   1.646   2.199
  337SOL    HW1 1029   0.798   1.611   2.145
  337SOL    HW2 1030   0.843   1.717   2.261
  338SOL     OW 1031   0.230   2.490   0.113
  338SOL    HW1 1032   0.137   2.488   0.150
  338SOL    HW2 1033   0.231   2.451   0.021
  339SOL     OW 1034   0.225   2.137   0.996
  339SOL    HW1 1035   0.260   2.120   1.088
  339SOL    HW2 1036   0.137   2.092   0.984
  340SOL     OW 1037   0.019   2.230   0.647
  340SOL    HW1 1038  -0.063   2.273   0.686
  340SOL    HW2 1039  -0.009   2.157   0.584
  341SOL     OW 1040   1.135   2.565   0.717
  341SOL    HW1 1041   1.192   2.643   0.692
  341SOL    HW2 1042   1.075   2.591   0.793
  342SOL     OW 1043   1.755   2.469   0.231
  342SOL    HW1 1044   1.743   2.456   0.132
  342SOL    HW2 1045   1.725   2.388   0.280
  343SOL     OW 1046   0.768   3.006   1.023
  343SOL    HW1 1047   0.690   3.023   1.083
  343SOL    HW2 1048   0.802   3.093   0.987
  344SOL     OW 1049   0.850   2.660   1.823
  344SOL    HW1 1050   0.846   2.736   1.888
  344SOL    HW2 1051   0.872   2.696   1.732
  345SOL     OW 1052   0.685   2.874   0.665
  345SOL    HW1 1053   0.754   2.858   0.735
  345SOL    HW2 1054   0.612   2.931   0.703
  346SOL     OW 1055   0.438   2.254   1.499
  346SOL    HW1 1056   0.520   2.198   1.508
  346SOL    HW2 1057   0.357   2.196   1.503
  347SOL     OW 1058   1.603   2.309   0.737
  347SOL    HW1 1059   1.529   2.355   0.687
  347SOL    HW2 1060   1.654   2.377   0.790
  348SOL     OW 1061   0.230   3.296   0.538
  348SOL    HW1 1062   0.204   3.392   0.538
  348SOL    HW2 1063   0.159   3.242   0.583
  349SOL     OW 1064   0.240   2.953   0.886
  349SOL    HW1 1065   0.254   2.869   0.938
  349SOL    HW2 1066   0.185   3.017   0.941
  350SOL     OW 1067   0.606   2.826   0.123
  350SOL    HW1 1068   0.613   2.910   0.069
  350SOL    HW2 1069   0.652   2.839   0.211
  351SOL     OW 1070   1.594   1.976   1.480
  351SOL    HW1 1071   1.576   2.043   1.408
  351SOL    HW2 1072   1.591   2.022   1.569
  352SOL     OW 1073   0.122   2.505   0.563
  352SOL    HW1 1074   0.077   2.417   0.580
  352SOL    HW2 1075   0.121   2.559   0.647
  353SOL     OW 1076   1.689   2.784   0.612
  353SOL    HW1 1077   1.784   2.755   0.620
  353SOL    HW2 1078   1.681   2.849   0.537
  354SOL     OW 1079   0.113   2.599   1.597
  354SOL    HW1 1080   0.201   2.586   1.642
  354SOL    HW2 1081   0.100   2.696   1.575
  355SOL     OW 1082   1.293   3.090   1.423
  355SOL    HW1 1083   1.330   3.017   1.365
  355SOL    HW2 1084   1.345   3.095   1.508
  356SOL     OW 1085   0.809   1.866   0.502
  356SOL    HW1 1086   0.849   1.957   0.493
  356SOL    HW2 1087   0.709   1.874   0.508
  357SOL     OW 1088   0.197   2.838   1.264
  357SOL    HW1 1089   0.286   2.793   1.250
  357SOL    HW2 1090   0.124   2.773   1.245
  358SOL     OW 1091   1.525   2.861   0.190
  358SOL    HW1 1092   1.462   2.785   0.203
  358SOL    HW2 1093   1.573   2.879   0.276
  359SOL     OW 1094   0.317   2.113   1.801
  359SOL    HW1 1095   0.388   2.184   1.807
  359SOL    HW2 1096   0.229   2.152   1.829
  360SOL     OW 1097   0.598   2.591   0.270
  360SOL    HW1 1098   0.622   2.660   0.202
  360SOL    HW2 1099   0.520   2.624   0.324
  361SOL     OW 1100   1.281   2.207   0.944
  361SOL    HW1 1101   1.195   2.157   0.931
  361SOL    HW2 1102   1.343   2.153   1.000
  362SOL     OW 1103   0.807   2.467   1.465
  362SOL    HW1 1104   0.760   2.464   1.554
  362SOL    HW2 1105   0.756   2.412   1.399
  363SOL     OW 1106   1.394   2.331   1.674
  363SOL    HW1 1107   1.374   2.374   1.762
  363SOL    HW2 1108   1.472   2.269   1.683
  364SOL     OW 1109   0.973   2.752   1.572
  364SOL    HW1 1110   1.019   2.668   1.543
  364SOL    HW2 1111   0.917   2.786   1.497
  365SOL     OW 1112   0.991   2.272   1.242
  365SOL    HW1 1113   0.914   2.306   1.296
  365SOL    HW2 1114   0.957   2.221   1.163
  366SOL     OW 1115   1.041   2.563   0.429
  366SOL    HW1 1116   1.067   2.559   0.525
  366SOL    HW2 1117   0.956   2.512   0.415
  367SOL     OW 1118   0.076   2.673   0.789
  367SOL    HW1 1119   0.175   2.661   0.798
  367SOL    HW2 1120   0.052   2.768   0.810
  368SOL     OW 1121   0.865   2.210   0.195
  368SOL    HW1 1122   0.924   2.273   0.146
  368SOL    HW2 1123   0.884   2.116   0.166
  369SOL     OW 1124   1.719   2.447   1.831
  369SOL    HW1 1125   1.693   2.536   1.795
  369SOL    HW2 1126   1.717   2.379   1.758
  370SOL     OW 1127   0.550   2.058   0.885
  370SOL    HW1 1128   0.545   2.053   0.985
  370SOL    HW2 1129   0.552   2.154   0.856
  371SOL     OW 1130   1.795   2.928   0.873
  371SOL    HW1 1131   1.733   2.913   0.797
  371SOL    HW2 1132   1.743   2.939   0.958
  372SOL     OW 1133   0.321   2.805   0.242
  372SOL    HW1 1134   0.403   2.844   0.200
  372SOL    HW2 1135   0.294   2.723   0.193
  373SOL     OW 1136   1.458   2.597   0.728
  373SOL    HW1 1137   1.453   2.532   0.803
  373SOL    HW2 1138   1.538   2.656   0.741
  374SOL     OW 1139   0.202   2.147   1.498
  374SOL    HW1 1140   0.122   2.207   1.485
  374SOL    HW2 1141   0.192   2.098   1.584
  375SOL     OW 1142   1.400   1.969   0.426
  375SOL    HW1 1143   1.376   1.932   0.336
  375SOL    HW2 1144   1.499   1.985   0.430
  376SOL     OW 1145   0.382   2.562   0.480
  376SOL    HW1 1146   0.427   2.472   0.477
  376SOL    HW2 1147   0.288   2.551   0.513
  377SOL     OW 1148   1.547   2.084   1.729
  377SOL    HW1 1149   1.542   2.121   1.821
  377SOL    HW2 1150   1.475   2.015   1.717
  378SOL     OW 1151   0.614   1.984   0.117
  378SOL    HW1 1152   0.712   1.962   0.124
  378SOL    HW2 1153   0.583   1.967   0.024
  379SOL     OW 1154   0.781   2.126   1.749
  379SOL    HW1 1155   0.848   2.065   1.792
  379SOL    HW2 1156   0.708   2.145   1.814
  380SOL     OW 1157   1.351   2.452   1.433
  380SOL    HW1 1158   1.379   2.409   1.518
  380SOL    HW2 1159   1.376   2.548   1.434
  381SOL     OW 1160   0.922   2.365   0.899
  381SOL    HW1 1161   0.897   2.356   0.803
  381SOL    HW2 1162   0.970   2.283   0.930
  382SOL     OW 1163   0.539   1.926   0.512
  382SOL    HW1 1164   0.458   1.927   0.570
  382SOL    HW2 1165   0.542   2.009   0.457
  383SOL     OW 1166   0.935   2.098   0.480
  383SOL    HW1 1167   0.887   2.139   0.402
  383SOL    HW2 1168   1.034   2.096   0.461
  384SOL     OW 1169   1.076   2.545   1.464
  384SOL    HW1 1170   0.996   2.484   1.467
  384SOL    HW2 1171   1.157   2.492   1.440
  385SOL     OW 1172   0.459   3.014   0.741
  385SOL    HW1 1173   0.388   2.987   0.806
  385SOL    HW2 1174   0.433   2.986   0.648
  386SOL     OW 1175   1.032   2.411   0.016
  386SOL    HW1 1176   0.991   2.493  -0.023
  386SOL    HW2 1177   1.096   2.437   0.089
  387SOL     OW 1178   0.078   2.418   1.386
  387SOL    HW1 1179   0.170   2.417   1.345
  387SOL    HW2 1180   0.072   2.492   1.453
  388SOL     OW 1181   0.561   2.084   1.147
  388SOL    HW1 1182   0.599   2.000   1.184
  388SOL    HW2 1183   0.473   2.103   1.191
  389SOL     OW 1184   0.866   2.316   0.642
  389SOL    HW1 1185   0.834   2.388   0.580
  389SOL    HW2 1186   0.890   2.235   0.589
  390SOL     OW 1187   1.017   1.901   0.753
  390SOL    HW1 1188   0.945   1.906   0.684
  390SOL    HW2 1189   0.993   1.832   0.822
  391SOL     OW 1190   1.429   3.035   0.867
  391SOL    HW1 1191   1.374   2.951   0.860
  391SOL    HW2 1192   1.455   3.064   0.775
  392SOL     OW 1193   1.466   2.452   0.992
  392SOL    HW1 1194   1.436   2.357   0.999
  392SOL    HW2 1195   1.539   2.468   1.058
  393SOL     OW 1196   1.857   2.695   0.377
  393SOL    HW1 1197   1.899   2.631   0.441
  393SOL    HW2 1198   1.819   2.644   0.299
  394SOL     OW 1199   1.390   2.437   0.078
  394SOL    HW1 1200   1.336   2.416   0.159
  394SOL    HW2 1201   1.481   2.396   0.087
  395SOL     OW 1202   0.527   2.118   0.328
  395SOL    HW1 1203   0.554   2.059   0.253
  395SOL    HW2 1204   0.527   2.213   0.297
  396SOL     OW 1205   1.754   3.085   1.588
  396SOL    HW1 1206   1.845   3.046   1.575
  396SOL    HW2 1207   1.762   3.181   1.612
  397SOL     OW 1208   1.638   2.961   1.079
  397SOL    HW1 1209   1.643   3.042   1.138
  397SOL    HW2 1210   1.552   2.963   1.028
  398SOL     OW 1211   0.915   1.951   1.402
  398SOL    HW1 1212   0.940   1.931   1.307
  398SOL    HW2 1213   0.987   2.007   1.444
  399SOL     OW 1214   0.705   2.912   0.368
  399SOL    HW1 1215   0.691   2.919   0.467
  399SOL    HW2 1216   0.789   2.861   0.350
  400SOL     OW 1217   0.410   2.675   1.251
  400SOL    HW1 1218   0.496   2.687   1.301
  400SOL    HW2 1219   0.368   2.588   1.278
  401SOL     OW 1220   1.274   2.248   1.262
  401SOL    HW1 1221   1.295   2.322   1.326
  401SOL    HW2 1222   1.185   2.265   1.219
  402SOL     OW 1223   0.367   2.962   0.501
  402SOL    HW1 1224   0.360   3.045   0.445
  402SOL    HW2 1225   0.371   2.882   0.441
  403SOL     OW 1226   0.566   2.399   0.865
  403SOL    HW1 1227   0.578   2.465   0.791
  403SOL    HW2 1228   0.612   2.433   0.948
  404SOL     OW 1229   1.582   2.501   0.472
  404SOL    HW1 1230   1.551   2.562   0.545
  404SOL    HW2 1231   1.632   2.553   0.403
  405SOL     OW 1232   0.402   2.613   1.598
  405SOL    HW1 1233   0.470   2.668   1.551
  405SOL    HW2 1234   0.442   2.525   1.625
  406SOL     OW 1235   1.587   2.641   1.670
  406SOL    HW1 1236   1.495   2.679   1.665
  406SOL    HW2 1237   1.647   2.688   1.605
  407SOL     OW 1238   1.013   1.967   1.770
  407SOL    HW1 1239   1.019   2.052   1.718
  407SOL    HW2 1240   1.045   1.891   1.713
  408SOL     OW 1241   0.504   1.912   1.740
  408SOL    HW1 1242   0.462   1.855   1.670
  408SOL    HW2 1243   0.438   1.981   1.772
  409SOL     OW 1244   0.573   2.732   1.029
  409SOL    HW1 1245   0.617   2.821   1.020
  409SOL    HW2 1246   0.510   2.732   1.106
  410SOL     OW 1247   1.360   2.724   1.045
  410SOL    HW1 1248   1.285   2.724   0.979
  410SOL    HW2 1249   1.397   2.632   1.054
  411SOL     OW 1250   1.209   2.387   0.275
  411SOL    HW1 1251   1.222   2.303   0.329
  411SOL    HW2 1252   1.180   2.461   0.335
  412SOL     OW 1253   0.307   2.075   1.231
  412SOL    HW1 1254   0.284   2.112   1.321
  412SOL    HW2 1255   0.277   1.980   1.225
  413SOL     OW 1256   0.037   3.172   1.282
  413SOL    HW1 1257   0.090   3.123   1.350
  413SOL    HW2 1258   0.059   3.270   1.287
  414SOL     OW 1259   0.732   2.496   1.064
  414SOL    HW1 1260   0.791   2.470   0.988
  414SOL    HW2 1261   0.704   2.592   1.053
  415SOL     OW 1262   1.728   2.797   1.854
  415SOL    HW1 1263   1.682   2.790   1.765
  415SOL    HW2 1264   1.666   2.841   1.920
  416SOL     OW 1265   0.307   1.925   0.618
  416SOL    HW1 1266   0.296   2.019   0.651
  416SOL    HW2 1267   0.302   1.862   0.695
  417SOL     OW 1268   1.622   2.229   0.374
  417SOL    HW1 1269   1.624   2.153   0.438
  417SOL    HW2 1270   1.574   2.306   0.414
  418SOL     OW 1271   1.023   2.628   0.966
  418SOL    HW1 1272   1.038   2.649   1.062
  418SOL    HW2 1273   0.993   2.533   0.957
  419SOL     OW 1274   0.350   2.760   1.804
  419SOL    HW1 1275   0.426   2.804   1.852
  419SOL    HW2 1276   0.385   2.713   1.722
  420SOL     OW 1277   1.540   2.136   0.125
  420SOL    HW1 1278   1.479   2.061   0.148
  420SOL    HW2 1279   1.562   2.188   0.208
  421SOL     OW 1280   1.303   2.700   0.042
  421SOL    HW1 1281   1.337   2.607   0.057
  421SOL    HW2 1282   1.321   2.727  -0.053
  422SOL     OW 1283   0.319   2.672   0.949
  422SOL    HW1 1284   0.412   2.708   0.954
  422SOL    HW2 1285   0.313   2.587   1.001
  423SOL     OW 1286   0.339   2.371   1.006
  423SOL    HW1 1287   0.287   2.288   0.989
  423SOL    HW2 1288   0.416   2.376   0.942
  424SOL     OW 1289   1.138   2.242   1.678
  424SOL    HW1 1290   1.093   2.305   1.742
  424SOL    HW2 1291   1.231   2.273   1.661
  425SOL     OW 1292   1.160   2.069   1.477
  425SOL    HW1 1293   1.160   2.133   1.554
  425SOL    HW2 1294   1.188   2.117   1.394
  426SOL     OW 1295   1.002   2.658   1.238
  426SOL    HW1 1296   1.043   2.626   1.324
  426SOL    HW2 1297   0.906   2.631   1.235
  427SOL     OW 1298   0.040   2.406   1.114
  427SOL    HW1 1299   0.125   2.373   1.073
  427SOL    HW2 1300   0.053   2.421   1.212
  428SOL     OW 1301   0.189   2.382   1.722
  428SOL    HW1 1302   0.248   2.342   1.652
  428SOL    HW2 1303   0.131   2.453   1.681
  429SOL     OW 1304   1.369   2.812   1.660
  429SOL    HW1 1305   1.408   2.901   1.680
  429SOL    HW2 1306   1.379   2.792   1.563
  430SOL     OW 1307   0.815   2.434   0.325
  430SOL    HW1 1308   0.822   2.345   0.279
  430SOL    HW2 1309   0.721   2.468   0.317
  431SOL     OW 1310   1.657   2.466   1.206
  431SOL    HW1 1311   1.619   2.397   1.268
  431SOL    HW2 1312   1.739   2.430   1.162
  432SOL     OW 1313   0.671   2.326   1.269
  432SOL    HW1 1314   0.637   2.237   1.239
  432SOL    HW2 1315   0.697   2.380   1.189
  433SOL     OW 1316   0.473   2.362   0.191
  433SOL    HW1 1317   0.534   2.442   0.195
  433SOL    HW2 1318   0.378   2.393   0.198
  434SOL     OW 1319   0.159   2.999   1.466
  434SOL    HW1 1320   0.181   2.938   1.542
  434SOL    HW2 1321   0.169   2.950   1.380
  435SOL     OW 1322   1.347   2.921   1.234
  435SOL    HW1 1323   1.371   2.858   1.160
  435SOL    HW2 1324   1.257   2.961   1.216
  436SOL     OW 1325   1.302   2.717   0.309
  436SOL    HW1 1326   1.216   2.686   0.351
  436SOL    HW2 1327   1.298   2.703   0.210
  437SOL     OW 1328   0.083   3.120   1.022
  437SOL    HW1 1329   0.078   3.119   1.122
  437SOL    HW2 1330   0.000   3.079   0.984
  438SOL     OW 1331   0.903   1.948   0.133
  438SOL    HW1 1332   0.954   1.949   0.047
  438SOL    HW2 1333   0.959   1.906   0.204
  439SOL     OW 1334   1.726   1.997   0.523
  439SOL    HW1 1335   1.799   1.980   0.456
  439SOL    HW2 1336   1.695   1.910   0.561
  440SOL     OW 1337   1.280   2.789   0.672
  440SOL    HW1 1338   1.340   2.708   0.674
  440SOL    HW2 1339   1.320   2.858   0.612
  441SOL     OW 1340   1.841   2.037   0.963
  441SOL    HW1 1341   1.880   1.952   0.927
  441SOL    HW2 1342   1.743   2.039   0.944
  442SOL     OW 1343   0.263   2.188   0.720
  442SOL    HW1 1344   0.184   2.239   0.686
  442SOL    HW2 1345   0.254   2.173   0.818
  443SOL     OW 1346   0.822   2.864   1.372
  443SOL    HW1 1347   0.862   2.863   1.280
  443SOL    HW2 1348   0.832   2.956   1.412
  444SOL     OW 1349   0.916   2.772   0.291
  444SOL    HW1 1350   0.979   2.810   0.223
  444SOL    HW2 1351   0.956   2.689   0.330
  445SOL     OW 1352   0.372   3.150   1.490
  445SOL    HW1 1353   0.359   3.243   1.456
  445SOL    HW2 1354   0.288   3.098   1.477
  446SOL     OW 1355   1.014   2.098   0.971
  446SOL    HW1 1356   1.006   2.062   0.878
  446SOL    HW2 1357   1.012   2.022   1.036
  447SOL     OW 1358   1.709   2.247   1.381
  447SOL    HW1 1359   1.782   2.316   1.385
  447SOL    HW2 1360   1.737   2.172   1.322
  448SOL     OW 1361   0.105   2.875   1.726
  448SOL    HW1 1362   0.028   2.842   1.780
  448SOL    HW2 1363   0.190   2.845   1.768
  449SOL     OW 1364   0.672   2.065   1.489
  449SOL    HW1 1365   0.762   2.049   1.449
  449SOL    HW2 1366   0.680   2.070   1.588
  450SOL     OW 1367   0.075   2.207   0.033
  450SOL    HW1 1368  -0.017   2.179   0.004
  450SOL    HW2 1369   0.106   2.284  -0.023
  451SOL     OW 1370   1.440   2.718   1.398
  451SOL    HW1 1371   1.383   2.770   1.335
  451SOL    HW2 1372   1.536   2.730   1.374
  452SOL     OW 1373   0.072   2.028   0.318
  452SOL    HW1 1374   0.055   2.111   0.264
  452SOL    HW2 1375   0.162   1.991   0.296
  453SOL     OW 1376   1.183   3.197   0.119
  453SOL    HW1 1377   1.084   3.186   0.121
  453SOL    HW2 1378   1.217   3.212   0.212
  454SOL     OW 1379   0.613   2.704   1.431
  454SOL    HW1 1380   0.669   2.785   1.414
  454SOL    HW2 1381   0.672   2.624   1.434
  455SOL     OW 1382   0.716   2.427   1.708
  455SOL    HW1 1383   0.735   2.492   1.782
  455SOL    HW2 1384   0.776   2.347   1.717
  456SOL     OW 1385   1.674   2.745   1.254
  456SOL    HW1 1386   1.647   2.656   1.217
  456SOL    HW2 1387   1.675   2.813   1.181
  457SOL     OW 1388   1.225   2.187   0.449
  457SOL    HW1 1389   1.290   2.113   0.438
  457SOL    HW2 1390   1.245   2.237   0.533
  458SOL     OW 1391   0.594   2.607   0.652
  458SOL    HW1 1392   0.644   2.692   0.633
  458SOL    HW2 1393   0.506   2.609   0.604
  459SOL     OW 1394   1.777   2.204   1.642
  459SOL    HW1 1395   1.760   2.235   1.548
  459SOL    HW2 1396   1.693   2.167   1.680
  460SOL     OW 1397   1.730   2.796   1.517
  460SOL    HW1 1398   1.768   2.887   1.532
  460SOL    HW2 1399   1.722   2.779   1.418
  461SOL     OW 1400   0.859   2.818   0.861
  461SOL    HW1 1401   0.913   2.749   0.909
  461SOL    HW2 1402   0.827   2.887   0.927
  462SOL     OW 1403   1.083   2.846   0.087
  462SOL    HW1 1404   1.060   2.899   0.005
  462SOL    HW2 1405   1.164   2.790   0.068
  463SOL     OW 1406   1.824   2.054   1.227
  463SOL    HW1 1407   1.820   1.964   1.271
  463SOL    HW2 1408   1.827   2.043   1.128
  464SOL     OW 1409   0.428   2.286   0.520
  464SOL    HW1 1410   0.458   2.214   0.458
  464SOL    HW2 1411   0.389   2.246   0.603
  465SOL     OW 1412   0.317   2.409   1.280
  465SOL    HW1 1413   0.355   2.350   1.352
  465SOL    HW2 1414   0.357   2.383   1.192
  466SOL     OW 1415   1.424   2.076   1.112
  466SOL    HW1 1416   1.476   2.011   1.167
  466SOL    HW2 1417   1.375   2.139   1.173
  467SOL     OW 1418   1.001   1.896   1.154
  467SOL    HW1 1419   0.938   1.824   1.123
  467SOL    HW2 1420   1.094   1.860   1.154
  468SOL     OW 1421   0.770   3.192   0.301
  468SOL    HW1 1422   0.724   3.105   0.318
  468SOL    HW2 1423   0.861   3.189   0.342
  469SOL     OW 1424   1.352   1.914   0.168
  469SOL    HW1 1425   1.387   1.873   0.084
  469SOL    HW2 1426   1.262   1.876   0.188
  470SOL     OW 1427   1.300   2.315   0.691
  470SOL    HW1 1428   1.241   2.395   0.695
  470SOL    HW2 1429   1.315   2.280   0.784
  471SOL     OW 1430   1.593   2.083   0.882
  471SOL    HW1 1431   1.509   2.082   0.936
  471SOL    HW2 1432   1.595   2.166   0.826
  472SOL     OW 1433   0.039   2.939   0.300
  472SOL    HW1 1434   0.138   2.928   0.291
  472SOL    HW2 1435  -0.001   2.853   0.332
  473SOL     OW 1436   0.230   2.490   1.975
  473SOL    HW1 1437   0.137   2.488   2.012
  473SOL    HW2 1438   0.231   2.451   1.883
  474SOL     OW 1439   0.225   2.137   2.858
  474SOL    HW1 1440   0.260   2.120   2.950
  474SOL    HW2 1441   0.137   2.092   2.846
  475SOL     OW 1442   0.019   2.230   2.509
  475SOL    HW1 1443  -0.063   2.273   2.548
  475SOL    HW2 1444  -0.009   2.157   2.446
  476SOL     OW 1445   1.135   2.565   2.579
  476SOL    HW1 1446   1.192   2.643   2.554
  476SOL    HW2 1447   1.075   2.591   2.655
  477SOL     OW 1448   1.755   2.469   2.093
  477SOL    HW1 1449   1.743   2.456   1.994
  477SOL    HW2 1450   1.725   2.388   2.142
  478SOL     OW 1451   0.768   3.006   2.885
  478SOL    HW1 1452   0.690   3.023   2.945
  478SOL    HW2 1453   0.802   3.093   2.849
  479SOL     OW 1454   0.685   2.874   2.527
  479SOL    HW1 1455   0.754   2.858   2.597
  479SOL    HW2 1456   0.612   2.931   2.565
  480SOL     OW 1457   1.603   2.309   2.599
  480SOL    HW1 1458   1.529   2.355   2.549
  480SOL    HW2 1459   1.654   2.377   2.652
  481SOL     OW 1460   0.230   3.296   2.400
  481SOL    HW1 1461   0.204   3.392   2.400
  481SOL    HW2 1462   0.159   3.242   2.445
  482SOL     OW 1463   0.240   2.953   2.748
  482SOL    HW1 1464   0.254   2.869   2.800
  482SOL    HW2 1465   0.185   3.017   2.803
  483SOL     OW 1466   0.606   2.826   1.985
  483SOL    HW1 1467   0.613   2.910   1.931
  483SOL    HW2 1468   0.652   2.839   2.073
  484SOL     OW 1469   0.122   2.505   2.425
  484SOL    HW1 1470   0.077   2.417   2.442
  484SOL    HW2 1471   0.121   2.559   2.509
  485SOL     OW 1472   1.689   2.784   2.474
  485SOL    HW1 1473   1.784   2.755   2.482
  485SOL    HW2 1474   1.681   2.849   2.399
  486SOL     OW 1475   0.809   1.866   2.364
  486SOL    HW1 1476   0.849   1.957   2.355
  486SOL    HW2 1477   0.709   1.874   2.370
  487SOL     OW 1478   0.197   2.838   3.126
  487SOL    HW1 1479   0.286   2.793   3.112
  487SOL    HW2 1480   0.124   2.773   3.107
  488SOL     OW 1481   1.525   2.861   2.052
  488SOL    HW1 1482   1.462   2.785   2.065
  488SOL    HW2 1483   1.573   2.879   2.138
  489SOL     OW 1484   0.598   2.591   2.132
  489SOL    HW1 1485   0.622   2.660   2.064
  489SOL    HW2 1486   0.520   2.624   2.186
  490SOL     OW 1487   1.281   2.207   2.806
  490SOL    HW1 1488   1.195   2.157   2.793
  490SOL    HW2 1489   1.343   2.153   2.862
  491SOL     OW 1490   1.041   2.563   2.291
  491SOL    HW1 1491   1.067   2.559   2.387
  491SOL    HW2 1492   0.956   2.512   2.277
  492SOL     OW 1493   0.076   2.673   2.651
  492SOL    HW1 1494   0.175   2.661   2.660
  492SOL    HW2 1495   0.052   2.768   2.672
  493SOL     OW 1496   0.865   2.210   2.057
  493SOL    HW1 1497   0.924   2.273   2.008
  493SOL    HW2 1498   0.884   2.116   2.028
  494SOL     OW 1499   0.550   2.058   2.747
  494SOL    HW1 1500   0.545   2.053   2.847
  494SOL    HW2 1501   0.552   2.154   2.718
  495SOL     OW 1502   1.795   2.928   2.735
  495SOL    HW1 1503   1.733   2.913   2.659
  495SOL    HW2 1504   1.743   2.939   2.820
  496SOL     OW 1505   0.321   2.805   2.104
  496SOL    HW1 1506   0.403   2.844   2.062
  496SOL    HW2 1507   0.294   2.723   2.055
  497SOL     OW 1508   1.458   2.597   2.590
  497SOL    HW1 1509   1.453   2.532   2.665
  497SOL    HW2 1510   1.538   2.656   2.603
  498SOL     OW 1511   1.400   1.969   2.288
  498SOL    HW1 1512   1.376   1.932   2.198
  498SOL    HW2 1513   1.499   1.985   2.292
  499SOL     OW 1514   0.382   2.562   2.342
  499SOL    HW1 1515   0.427   2.472   2.339
  499SOL    HW2 1516   0.288   2.551   2.375
  500SOL     OW 1517   0.614   1.984   1.979
  500SOL    HW1 1518   0.712   1.962   1.986
  500SOL    HW2 1519   0.583   1.967   1.886
  501SOL     OW 1520   0.922   2.365   2.761
  501SOL    HW1 1521   0.897   2.356   2.665
  501SOL    HW2 1522   0.970   2.283   2.792
  502SOL     OW 1523   0.539   1.926   2.374
  502SOL    HW1 1524   0.458   1.927   2.432
  502SOL    HW2 1525   0.542   2.009   2.319
  503SOL     OW 1526   0.297   1.897   2.033
  503SOL    HW1 1527   0.346   1.981   2.012
  503SOL    HW2 1528   0.359   1.832   2.078
  504SOL     OW 1529   0.935   2.098   2.342
  504SOL    HW1 1530   0.887   2.139   2.264
  504SOL    HW2 1531   1.034   2.096   2.323
  505SOL     OW 1532   0.459   3.014   2.603
  505SOL    HW1 1533   0.388   2.987   2.668
  505SOL    HW2 1534   0.433   2.986   2.510
  506SOL     OW 1535   1.032   2.411   1.878
  506SOL    HW1 1536   0.991   2.493   1.839
  506SOL    HW2 1537   1.096   2.437   1.951
  507SOL     OW 1538   0.866   2.316   2.504
  507SOL    HW1 1539   0.834   2.388   2.442
  507SOL    HW2 1540   0.890   2.235   2.451
  508SOL     OW 1541   1.017   1.901   2.615
  508SOL    HW1 1542   0.945   1.906   2.546
  508SOL    HW2 1543   0.993   1.832   2.684
  509SOL     OW 1544   1.429   3.035   2.729
  509SOL    HW1 1545   1.374   2.951   2.722
  509SOL    HW2 1546   1.455   3.064   2.637
  510SOL     OW 1547   1.466   2.452   2.854
  510SOL    HW1 1548   1.436   2.357   2.861
  510SOL    HW2 1549   1.539   2.468   2.920
  511SOL     OW 1550   1.857   2.695   2.239
  511SOL    HW1 1551   1.899   2.631   2.303
  511SOL    HW2 1552   1.819   2.644   2.161
  512SOL     OW 1553   1.390   2.437   1.940
  512SOL    HW1 1554   1.336   2.416   2.021
  512SOL    HW2 1555   1.481   2.396   1.949
  513SOL     OW 1556   0.527   2.118   2.190
  513SOL    HW1 1557   0.554   2.059   2.115
  513SOL    HW2 1558   0.527   2.213   2.159
  514SOL     OW 1559   1.638   2.961   2.941
  514SOL    HW1 1560   1.643   3.042   3.000
  514SOL    HW2 1561   1.552   2.963   2.890
  515SOL     OW 1562   0.705   2.912   2.230
  515SOL    HW1 1563   0.691   2.919   2.329
  515SOL    HW2 1564   0.789   2.861   2.212
  516SOL     OW 1565   0.410   2.675   3.113
  516SOL    HW1 1566   0.496   2.687   3.163
  516SOL    HW2 1567   0.368   2.588   3.140
  517SOL     OW 1568   0.367   2.962   2.363
  517SOL    HW1 1569   0.360   3.045   2.307
  517SOL    HW2 1570   0.371   2.882   2.303
  518SOL     OW 1571   0.566   2.399   2.727
  518SOL    HW1 1572   0.578   2.465   2.653
  518SOL    HW2 1573   0.612   2.433   2.810
  519SOL     OW 1574   1.582   2.501   2.334
  519SOL    HW1 1575   1.551   2.562   2.407
  519SOL    HW2 1576   1.632   2.553   2.265
  520SOL     OW 1577   0.573   2.732   2.891
  520SOL    HW1 1578   0.617   2.821   2.882
  520SOL    HW2 1579   0.510   2.732   2.968
  521SOL     OW 1580   1.209   2.387   2.137
  521SOL    HW1 1581   1.222   2.303   2.191
  521SOL    HW2 1582   1.180   2.461   2.197
  522SOL     OW 1583   0.307   2.075   3.093
  522SOL    HW1 1584   0.284   2.112   3.183
  522SOL    HW2 1585   0.277   1.980   3.087
  523SOL     OW 1586   0.732   2.496   2.926
  523SOL    HW1 1587   0.791   2.470   2.850
  523SOL    HW2 1588   0.704   2.592   2.915
  524SOL     OW 1589   0.307   1.925   2.480
  524SOL    HW1 1590   0.296   2.019   2.513
  524SOL    HW2 1591   0.302   1.862   2.557
  525SOL     OW 1592   1.622   2.229   2.236
  525SOL    HW1 1593   1.624   2.153   2.300
  525SOL    HW2 1594   1.574   2.306   2.276
  526SOL     OW 1595   1.023   2.628   2.828
  526SOL    HW1 1596   1.038   2.649   2.924
  526SOL    HW2 1597   0.993   2.533   2.819
  527SOL     OW 1598   1.540   2.136   1.987
  527SOL    HW1 1599   1.479   2.061   2.010
  527SOL    HW2 1600   1.562   2.188   2.070
  528SOL     OW 1601   1.303   2.700   1.904
  528SOL    HW1 1602   1.337   2.607   1.919
  528SOL    HW2 1603   1.321   2.727   1.809
  529SOL     OW 1604   0.319   2.672   2.811
  529SOL    HW1 1605   0.412   2.708   2.816
  529SOL    HW2 1606   0.313   2.587   2.863
  530SOL     OW 1607   0.339   2.371   2.868
  530SOL    HW1 1608   0.287   2.288   2.851
  530SOL    HW2 1609   0.416   2.376   2.804
  531SOL     OW 1610   1.002   2.658   3.100
  531SOL    HW1 1611   1.043   2.626   3.186
  531SOL    HW2 1612   0.906   2.631   3.097
  532SOL     OW 1613   0.815   2.434   2.187
  532SOL    HW1 1614   0.822   2.345   2.141
  532SOL    HW2 1615   0.721   2.468   2.179
  533SOL     OW 1616   0.671   2.326   3.131
  533SOL    HW1 1617   0.637   2.237   3.101
  533SOL    HW2 1618   0.697   2.380   3.051
  534SOL     OW 1619   0.473   2.362   2.053
  534SOL    HW1 1620   0.534   2.442   2.057
  534SOL    HW2 1621   0.378   2.393   2.060
  535SOL     OW 1622   1.302   2.717   2.171
  535SOL    HW1 1623   1.216   2.686   2.213
  535SOL    HW2 1624   1.298   2.703   2.072
  536SOL     OW 1625   0.083   3.120   2.884
  536SOL    HW1 1626   0.078   3.119   2.984
  536SOL    HW2 1627   0.000   3.079   2.846
  537SOL     OW 1628   1.726   1.997   2.385
  537SOL    HW1 1629   1.799   1.980   2.318
  537SOL    HW2 1630   1.695   1.910   2.423
  538SOL     OW 1631   1.280   2.789   2.534
  538SOL    HW1 1632   1.340   2.708   2.536
  538SOL    HW2 1633   1.320   2.858   2.474
  539SOL     OW 1634   1.841   2.037   2.825
  539SOL    HW1 1635   1.880   1.952   2.789
  539SOL    HW2 1636   1.743   2.039   2.806
  540SOL     OW 1637   0.263   2.188   2.582
  540SOL    HW1 1638   0.184   2.239   2.548
  540SOL    HW2 1639   0.254   2.173   2.680
  541SOL     OW 1640   0.916   2.772   2.153
  541SOL    HW1 1641   0.979   2.810   2.085
  541SOL    HW2 1642   0.956   2.689   2.192
  542SOL     OW 1643   1.014   2.098   2.833
  542SOL    HW1 1644   1.006   2.062   2.740
  542SOL    HW2 1645   1.012   2.022   2.898
  543SOL     OW 1646   0.075   2.207   1.895
  543SOL    HW1 1647  -0.017   2.179   1.866
  543SOL    HW2 1648   0.106   2.284   1.839
  544SOL     OW 1649   0.072   2.028   2.180
  544SOL    HW1 1650   0.055   2.111   2.126
  544SOL    HW2 1651   0.162   1.991   2.158
  545SOL     OW 1652   1.183   3.197   1.981
  545SOL    HW1 1653   1.084   3.186   1.983
  545SOL    HW2 1654   1.217   3.212   2.074
  546SOL     OW 1655   1.674   2.745   3.116
  546SOL    HW1 1656   1.647   2.656   3.079
  546SOL    HW2 1657   1.675   2.813   3.043
  547SOL     OW 1658   1.225   2.187   2.311
  547SOL    HW1 1659   1.290   2.113   2.300
  547SOL    HW2 1660   1.245   2.237   2.395
  548SOL     OW 1661   0.594   2.607   2.514
  548SOL    HW1 1662   0.644   2.692   2.495
  548SOL    HW2 1663   0.506   2.609   2.466
  549SOL     OW 1664   0.859   2.818   2.723
  549SOL    HW1 1665   0.913   2.749   2.771
  549SOL    HW2 1666   0.827   2.887   2.789
  550SOL     OW 1667   1.083   2.846   1.949
  550SOL    HW1 1668   1.060   2.899   1.867
  550SOL    HW2 1669   1.164   2.790   1.930
  551SOL     OW 1670   1.824   2.054   3.089
  551SOL    HW1 1671   1.820   1.964   3.133
  551SOL    HW2 1672   1.827   2.043   2.990
  552SOL     OW 1673   0.428   2.286   2.382
  552SOL    HW1 1674   0.458   2.214   2.320
  552SOL    HW2 1675   0.389   2.246   2.465
  553SOL     OW 1676   1.424   2.076   2.974
  553SOL    HW1 1677   1.476   2.011   3.029
  553SOL    HW2 1678   1.375   2.139   3.035
  554SOL     OW 1679   0.770   3.192   2.163
  554SOL    HW1 1680   0.724   3.105   2.180
  554SOL    HW2 1681   0.861   3.189   2.204
  555SOL     OW 1682   1.352   1.914   2.030
  555SOL    HW1 1683   1.387   1.873   1.946
  555SOL    HW2 1684   1.262   1.876   2.050
  556SOL     OW 1685   1.300   2.315   2.553
  556SOL    HW1 1686   1.241   2.395   2.557
  556SOL    HW2 1687   1.315   2.280   2.646
  557SOL     OW 1688   1.593   2.083   2.744
  557SOL    HW1 1689   1.509   2.082   2.798
  557SOL    HW2 1690   1.595   2.166   2.688
  558SOL     OW 1691   0.039   2.939   2.162
  558SOL    HW1 1692   0.138   2.928   2.153
  558SOL    HW2 1693  -0.001   2.853   2.194
  559SOL     OW 1694   2.092   0.628   0.113
  559SOL    HW1 1695   1.999   0.626   0.150
  559SOL    HW2 1696   2.093   0.589   0.021
  560SOL     OW 1697   2.087   0.275   0.996
  560SOL    HW1 1698   2.122   0.258   1.088
  560SOL    HW2 1699   1.999   0.230   0.984
  561SOL     OW 1700   1.881   0.368   0.647
  561SOL    HW1 1701   1.799   0.411   0.686
  561SOL    HW2 1702   1.853   0.295   0.584
  562SOL     OW 1703   2.431   1.275   1.165
  562SOL    HW1 1704   2.338   1.268   1.128
  562SOL    HW2 1705   2.442   1.364   1.209
  563SOL     OW 1706   2.630   1.144   1.023
  563SOL    HW1 1707   2.552   1.161   1.083
  563SOL    HW2 1708   2.664   1.231   0.987
  564SOL     OW 1709   2.712   0.798   1.823
  564SOL    HW1 1710   2.708   0.874   1.888
  564SOL    HW2 1711   2.734   0.834   1.732
  565SOL     OW 1712   2.547   1.012   0.665
  565SOL    HW1 1713   2.616   0.996   0.735
  565SOL    HW2 1714   2.474   1.069   0.703
  566SOL     OW 1715   2.548   1.161   1.803
  566SOL    HW1 1716   2.608   1.240   1.817
  566SOL    HW2 1717   2.462   1.192   1.762
  567SOL     OW 1718   2.197   1.435   1.061
  567SOL    HW1 1719   2.119   1.404   1.008
  567SOL    HW2 1720   2.255   1.493   1.004
  568SOL     OW 1721   2.300   0.392   1.499
  568SOL    HW1 1722   2.382   0.336   1.508
  568SOL    HW2 1723   2.219   0.334   1.503
  569SOL     OW 1724   2.093   1.713   0.483
  569SOL    HW1 1725   2.127   1.790   0.537
  569SOL    HW2 1726   2.137   1.713   0.393
  570SOL     OW 1727   2.989   1.341   1.690
  570SOL    HW1 1728   3.036   1.341   1.778
  570SOL    HW2 1729   2.941   1.254   1.679
  571SOL     OW 1730   2.092   1.434   0.538
  571SOL    HW1 1731   2.066   1.530   0.538
  571SOL    HW2 1732   2.021   1.380   0.583
  572SOL     OW 1733   2.102   1.091   0.886
  572SOL    HW1 1734   2.116   1.007   0.938
  572SOL    HW2 1735   2.047   1.155   0.941
  573SOL     OW 1736   2.482   1.786   1.439
  573SOL    HW1 1737   2.390   1.769   1.474
  573SOL    HW2 1738   2.510   1.878   1.465
  574SOL     OW 1739   2.468   0.964   0.123
  574SOL    HW1 1740   2.475   1.048   0.069
  574SOL    HW2 1741   2.514   0.977   0.211
  575SOL     OW 1742   1.984   0.643   0.563
  575SOL    HW1 1743   1.939   0.555   0.580
  575SOL    HW2 1744   1.983   0.697   0.647
  576SOL     OW 1745   1.889   1.596   0.117
  576SOL    HW1 1746   1.870   1.500   0.138
  576SOL    HW2 1747   1.856   1.654   0.192
  577SOL     OW 1748   1.975   0.737   1.597
  577SOL    HW1 1749   2.063   0.724   1.642
  577SOL    HW2 1750   1.962   0.834   1.575
  578SOL     OW 1751   2.475   1.365   0.726
  578SOL    HW1 1752   2.426   1.278   0.735
  578SOL    HW2 1753   2.452   1.408   0.639
  579SOL     OW 1754   2.671   0.004   0.502
  579SOL    HW1 1755   2.711   0.095   0.493
  579SOL    HW2 1756   2.571   0.012   0.508
  580SOL     OW 1757   2.059   0.976   1.264
  580SOL    HW1 1758   2.148   0.931   1.250
  580SOL    HW2 1759   1.986   0.911   1.245
  581SOL     OW 1760   2.179   0.251   1.801
  581SOL    HW1 1761   2.250   0.322   1.807
  581SOL    HW2 1762   2.091   0.290   1.829
  582SOL     OW 1763   2.460   0.729   0.270
  582SOL    HW1 1764   2.484   0.798   0.202
  582SOL    HW2 1765   2.382   0.762   0.324
  583SOL     OW 1766   2.669   0.605   1.465
  583SOL    HW1 1767   2.622   0.602   1.554
  583SOL    HW2 1768   2.618   0.550   1.399
  584SOL     OW 1769   2.835   0.890   1.572
  584SOL    HW1 1770   2.881   0.806   1.543
  584SOL    HW2 1771   2.779   0.924   1.497
  585SOL     OW 1772   2.853   0.410   1.242
  585SOL    HW1 1773   2.776   0.444   1.296
  585SOL    HW2 1774   2.819   0.359   1.163
  586SOL     OW 1775   2.903   0.701   0.429
  586SOL    HW1 1776   2.929   0.697   0.525
  586SOL    HW2 1777   2.818   0.650   0.415
  587SOL     OW 1778   1.938   0.811   0.789
  587SOL    HW1 1779   2.037   0.799   0.798
  587SOL    HW2 1780   1.914   0.906   0.810
  588SOL     OW 1781   1.992   1.821   1.571
  588SOL    HW1 1782   1.982   1.806   1.670
  588SOL    HW2 1783   1.906   1.857   1.535
  589SOL     OW 1784   2.727   0.348   0.195
  589SOL    HW1 1785   2.786   0.411   0.146
  589SOL    HW2 1786   2.746   0.254   0.166
  590SOL     OW 1787   2.412   0.196   0.885
  590SOL    HW1 1788   2.407   0.191   0.985
  590SOL    HW2 1789   2.414   0.292   0.856
  591SOL     OW 1790   2.870   1.456   0.477
  591SOL    HW1 1791   2.824   1.528   0.425
  591SOL    HW2 1792   2.866   1.476   0.575
  592SOL     OW 1793   2.213   1.801   0.853
  592SOL    HW1 1794   2.263   1.715   0.859
  592SOL    HW2 1795   2.278   1.878   0.850
  593SOL     OW 1796   2.183   0.943   0.242
  593SOL    HW1 1797   2.265   0.982   0.200
  593SOL    HW2 1798   2.156   0.861   0.193
  594SOL     OW 1799   2.323   1.266   1.727
  594SOL    HW1 1800   2.273   1.267   1.641
  594SOL    HW2 1801   2.260   1.248   1.803
  595SOL     OW 1802   2.064   0.285   1.498
  595SOL    HW1 1803   1.984   0.345   1.485
  595SOL    HW2 1804   2.054   0.236   1.584
  596SOL     OW 1805   2.326   1.743   0.323
  596SOL    HW1 1806   2.359   1.782   0.409
  596SOL    HW2 1807   2.402   1.736   0.258
  597SOL     OW 1808   2.111   1.785   1.241
  597SOL    HW1 1809   2.168   1.720   1.291
  597SOL    HW2 1810   2.095   1.752   1.148
  598SOL     OW 1811   2.802   1.698   0.904
  598SOL    HW1 1812   2.882   1.641   0.925
  598SOL    HW2 1813   2.753   1.658   0.827
  599SOL     OW 1814   2.244   0.700   0.480
  599SOL    HW1 1815   2.289   0.610   0.477
  599SOL    HW2 1816   2.150   0.689   0.513
  600SOL     OW 1817   2.476   0.122   0.117
  600SOL    HW1 1818   2.574   0.100   0.124
  600SOL    HW2 1819   2.445   0.105   0.024
  601SOL     OW 1820   2.643   0.264   1.749
  601SOL    HW1 1821   2.710   0.203   1.792
  601SOL    HW2 1822   2.570   0.283   1.814
  602SOL     OW 1823   2.750   1.514   1.195
  602SOL    HW1 1824   2.727   1.489   1.101
  602SOL    HW2 1825   2.811   1.445   1.234
  603SOL     OW 1826   2.665   1.402   0.924
  603SOL    HW1 1827   2.755   1.416   0.882
  603SOL    HW2 1828   2.594   1.404   0.853
  604SOL     OW 1829   2.784   0.503   0.899
  604SOL    HW1 1830   2.759   0.494   0.803
  604SOL    HW2 1831   2.832   0.421   0.930
  605SOL     OW 1832   2.401   0.064   0.512
  605SOL    HW1 1833   2.320   0.065   0.570
  605SOL    HW2 1834   2.404   0.147   0.457
  606SOL     OW 1835   3.296   1.188   0.041
  606SOL    HW1 1836   3.328   1.112   0.098
  606SOL    HW2 1837   3.204   1.215   0.071
  607SOL     OW 1838   2.159   0.035   0.171
  607SOL    HW1 1839   2.208   0.119   0.150
  607SOL    HW2 1840   2.221  -0.030   0.216
  608SOL     OW 1841   2.797   0.236   0.480
  608SOL    HW1 1842   2.749   0.277   0.402
  608SOL    HW2 1843   2.896   0.234   0.461
  609SOL     OW 1844   3.089   1.570   0.793
  609SOL    HW1 1845   3.110   1.644   0.728
  609SOL    HW2 1846   3.157   1.570   0.866
  610SOL     OW 1847   2.321   1.152   0.741
  610SOL    HW1 1848   2.250   1.125   0.806
  610SOL    HW2 1849   2.295   1.124   0.648
  611SOL     OW 1850   3.133   1.797   0.591
  611SOL    HW1 1851   3.177   1.861   0.527
  611SOL    HW2 1852   3.083   1.849   0.661
  612SOL     OW 1853   2.894   0.549   0.016
  612SOL    HW1 1854   2.853   0.631  -0.023
  612SOL    HW2 1855   2.958   0.575   0.089
  613SOL     OW 1856   1.940   0.556   1.386
  613SOL    HW1 1857   2.032   0.555   1.345
  613SOL    HW2 1858   1.934   0.630   1.453
  614SOL     OW 1859   2.423   0.222   1.147
  614SOL    HW1 1860   2.461   0.138   1.184
  614SOL    HW2 1861   2.335   0.241   1.191
  615SOL     OW 1862   2.728   0.454   0.642
  615SOL    HW1 1863   2.696   0.526   0.580
  615SOL    HW2 1864   2.752   0.373   0.589
  616SOL     OW 1865   2.879   0.039   0.753
  616SOL    HW1 1866   2.807   0.044   0.684
  616SOL    HW2 1867   2.855  -0.030   0.822
  617SOL     OW 1868   2.350   1.385   0.174
  617SOL    HW1 1869   2.263   1.370   0.221
  617SOL    HW2 1870   2.333   1.411   0.079
  618SOL     OW 1871   2.389   0.256   0.328
  618SOL    HW1 1872   2.416   0.197   0.253
  618SOL    HW2 1873   2.389   0.351   0.297
  619SOL     OW 1874   2.777   0.089   1.402
  619SOL    HW1 1875   2.802   0.069   1.307
  619SOL    HW2 1876   2.849   0.145   1.444
  620SOL     OW 1877   2.842   1.116   1.719
  620SOL    HW1 1878   2.743   1.122   1.729
  620SOL    HW2 1879   2.865   1.036   1.663
  621SOL     OW 1880   2.567   1.050   0.368
  621SOL    HW1 1881   2.553   1.057   0.467
  621SOL    HW2 1882   2.651   0.999   0.350
  622SOL     OW 1883   2.272   0.813   1.251
  622SOL    HW1 1884   2.358   0.825   1.301
  622SOL    HW2 1885   2.230   0.726   1.278
  623SOL     OW 1886   1.926   1.564   1.331
  623SOL    HW1 1887   1.880   1.646   1.297
  623SOL    HW2 1888   2.024   1.583   1.340
  624SOL     OW 1889   2.229   1.100   0.501
  624SOL    HW1 1890   2.222   1.183   0.445
  624SOL    HW2 1891   2.233   1.020   0.441
  625SOL     OW 1892   2.428   0.537   0.865
  625SOL    HW1 1893   2.440   0.603   0.791
  625SOL    HW2 1894   2.474   0.571   0.948
  626SOL     OW 1895   2.216   1.510   1.329
  626SOL    HW1 1896   2.195   1.466   1.242
  626SOL    HW2 1897   2.313   1.536   1.332
  627SOL     OW 1898   2.264   0.751   1.598
  627SOL    HW1 1899   2.332   0.806   1.551
  627SOL    HW2 1900   2.304   0.663   1.625
  628SOL     OW 1901   2.875   0.105   1.770
  628SOL    HW1 1902   2.881   0.190   1.718
  628SOL    HW2 1903   2.907   0.029   1.713
  629SOL     OW 1904   2.366   0.050   1.740
  629SOL    HW1 1905   2.324  -0.007   1.670
  629SOL    HW2 1906   2.300   0.119   1.772
  630SOL     OW 1907   2.435   0.870   1.029
  630SOL    HW1 1908   2.479   0.959   1.020
  630SOL    HW2 1909   2.372   0.870   1.106
  631SOL     OW 1910   3.071   0.525   0.275
  631SOL    HW1 1911   3.084   0.441   0.329
  631SOL    HW2 1912   3.042   0.599   0.335
  632SOL     OW 1913   2.169   0.213   1.231
  632SOL    HW1 1914   2.146   0.250   1.321
  632SOL    HW2 1915   2.139   0.118   1.225
  633SOL     OW 1916   2.594   0.634   1.064
  633SOL    HW1 1917   2.653   0.608   0.988
  633SOL    HW2 1918   2.566   0.730   1.053
  634SOL     OW 1919   2.169   0.063   0.618
  634SOL    HW1 1920   2.158   0.157   0.651
  634SOL    HW2 1921   2.164   0.000   0.695
  635SOL     OW 1922   2.885   0.766   0.966
  635SOL    HW1 1923   2.900   0.787   1.062
  635SOL    HW2 1924   2.855   0.671   0.957
  636SOL     OW 1925   2.842   1.573   1.700
  636SOL    HW1 1926   2.822   1.617   1.612
  636SOL    HW2 1927   2.881   1.482   1.684
  637SOL     OW 1928   2.212   0.898   1.804
  637SOL    HW1 1929   2.288   0.942   1.852
  637SOL    HW2 1930   2.247   0.851   1.722
  638SOL     OW 1931   2.930   1.333   0.849
  638SOL    HW1 1932   2.937   1.249   0.794
  638SOL    HW2 1933   2.992   1.402   0.813
  639SOL     OW 1934   2.181   0.810   0.949
  639SOL    HW1 1935   2.274   0.846   0.954
  639SOL    HW2 1936   2.175   0.725   1.001
  640SOL     OW 1937   2.201   0.509   1.006
  640SOL    HW1 1938   2.149   0.426   0.989
  640SOL    HW2 1939   2.278   0.514   0.942
  641SOL     OW 1940   3.000   0.380   1.678
  641SOL    HW1 1941   2.955   0.443   1.742
  641SOL    HW2 1942   3.093   0.411   1.661
  642SOL     OW 1943   1.870   1.326   0.200
  642SOL    HW1 1944   1.777   1.347   0.169
  642SOL    HW2 1945   1.880   1.227   0.213
  643SOL     OW 1946   1.950   1.801   0.927
  643SOL    HW1 1947   1.908   1.715   0.900
  643SOL    HW2 1948   2.044   1.804   0.893
  644SOL     OW 1949   2.366   1.568   0.910
  644SOL    HW1 1950   2.432   1.642   0.919
  644SOL    HW2 1951   2.410   1.489   0.868
  645SOL     OW 1952   2.864   0.796   1.238
  645SOL    HW1 1953   2.905   0.764   1.324
  645SOL    HW2 1954   2.768   0.769   1.235
  646SOL     OW 1955   1.902   0.544   1.114
  646SOL    HW1 1956   1.987   0.511   1.073
  646SOL    HW2 1957   1.915   0.559   1.212
  647SOL     OW 1958   2.051   0.520   1.722
  647SOL    HW1 1959   2.110   0.480   1.652
  647SOL    HW2 1960   1.993   0.591   1.681
  648SOL     OW 1961   2.677   0.572   0.325
  648SOL    HW1 1962   2.684   0.483   0.279
  648SOL    HW2 1963   2.583   0.606   0.317
  649SOL     OW 1964   2.114   1.564   1.744
  649SOL    HW1 1965   2.084   1.621   1.820
  649SOL    HW2 1966   2.107   1.467   1.770
  650SOL     OW 1967   2.533   0.464   1.269
  650SOL    HW1 1968   2.499   0.375   1.239
  650SOL    HW2 1969   2.559   0.518   1.189
  651SOL     OW 1970   2.792   1.678   1.465
  651SOL    HW1 1971   2.768   1.660   1.370
  651SOL    HW2 1972   2.822   1.772   1.475
  652SOL     OW 1973   2.335   0.500   0.191
  652SOL    HW1 1974   2.396   0.580   0.195
  652SOL    HW2 1975   2.240   0.531   0.198
  653SOL     OW 1976   2.021   1.137   1.466
  653SOL    HW1 1977   2.043   1.076   1.542
  653SOL    HW2 1978   2.031   1.088   1.380
  654SOL     OW 1979   3.164   0.855   0.309
  654SOL    HW1 1980   3.078   0.824   0.351
  654SOL    HW2 1981   3.160   0.841   0.210
  655SOL     OW 1982   1.945   1.258   1.022
  655SOL    HW1 1983   1.940   1.257   1.122
  655SOL    HW2 1984   1.862   1.217   0.984
  656SOL     OW 1985   2.550   1.662   1.716
  656SOL    HW1 1986   2.494   1.743   1.725
  656SOL    HW2 1987   2.602   1.666   1.630
  657SOL     OW 1988   2.765   0.086   0.133
  657SOL    HW1 1989   2.816   0.087   0.047
  657SOL    HW2 1990   2.821   0.044   0.204
  658SOL     OW 1991   1.992   1.794   1.851
  658SOL    HW1 1992   1.951   1.720   1.904
  658SOL    HW2 1993   2.056   1.845   1.909
  659SOL     OW 1994   2.692   1.273   1.422
  659SOL    HW1 1995   2.687   1.306   1.517
  659SOL    HW2 1996   2.606   1.292   1.376
  660SOL     OW 1997   2.534   1.616   0.154
  660SOL    HW1 1998   2.543   1.626   0.055
  660SOL    HW2 1999   2.494   1.527   0.175
  661SOL     OW 2000   2.125   0.326   0.720
  661SOL    HW1 2001   2.046   0.377   0.686
  661SOL    HW2 2002   2.116   0.311   0.818
  662SOL     OW 2003   2.684   1.002   1.372
  662SOL    HW1 2004   2.724   1.001   1.280
  662SOL    HW2 2005   2.694   1.094   1.412
  663SOL     OW 2006   2.778   0.910   0.291
  663SOL    HW1 2007   2.841   0.948   0.223
  663SOL    HW2 2008   2.818   0.827   0.330
  664SOL     OW 2009   2.234   1.288   1.490
  664SOL    HW1 2010   2.221   1.381   1.456
  664SOL    HW2 2011   2.150   1.236   1.477
  665SOL     OW 2012   2.901   1.098   0.696
  665SOL    HW1 2013   2.831   1.051   0.750
  665SOL    HW2 2014   2.960   1.030   0.653
  666SOL     OW 2015   2.876   0.236   0.971
  666SOL    HW1 2016   2.868   0.200   0.878
  666SOL    HW2 2017   2.874   0.160   1.036
  667SOL     OW 2018   2.452   1.487   0.491
  667SOL    HW1 2019   2.494   1.429   0.421
  667SOL    HW2 2020   2.408   1.566   0.447
  668SOL     OW 2021   2.117   1.348   0.290
  668SOL    HW1 2022   2.021   1.349   0.263
  668SOL    HW2 2023   2.129   1.401   0.374
  669SOL     OW 2024   1.967   1.013   1.726
  669SOL    HW1 2025   1.890   0.980   1.780
  669SOL    HW2 2026   2.052   0.983   1.768
  670SOL     OW 2027   2.534   0.203   1.489
  670SOL    HW1 2028   2.624   0.187   1.449
  670SOL    HW2 2029   2.542   0.208   1.588
  671SOL     OW 2030   1.934   0.166   0.318
  671SOL    HW1 2031   1.917   0.249   0.264
  671SOL    HW2 2032   2.024   0.129   0.296
  672SOL     OW 2033   2.475   0.842   1.431
  672SOL    HW1 2034   2.531   0.923   1.414
  672SOL    HW2 2035   2.534   0.762   1.434
  673SOL     OW 2036   2.578   0.565   1.708
  673SOL    HW1 2037   2.597   0.630   1.782
  673SOL    HW2 2038   2.638   0.485   1.717
  674SOL     OW 2039   2.252   1.741   1.560
  674SOL    HW1 2040   2.161   1.782   1.558
  674SOL    HW2 2041   2.245   1.647   1.592
  675SOL     OW 2042   2.456   0.745   0.652
  675SOL    HW1 2043   2.506   0.830   0.633
  675SOL    HW2 2044   2.368   0.747   0.604
  676SOL     OW 2045   2.721   1.374   0.016
  676SOL    HW1 2046   2.675   1.389   0.104
  676SOL    HW2 2047   2.765   1.459  -0.014
  677SOL     OW 2048   2.523   1.790   0.953
  677SOL    HW1 2049   2.477   1.878   0.940
  677SOL    HW2 2050   2.622   1.802   0.946
  678SOL     OW 2051   2.721   0.956   0.861
  678SOL    HW1 2052   2.775   0.887   0.909
  678SOL    HW2 2053   2.689   1.025   0.927
  679SOL     OW 2054   2.945   0.984   0.087
  679SOL    HW1 2055   2.922   1.037   0.005
  679SOL    HW2 2056   3.026   0.928   0.068
  680SOL     OW 2057   2.083   1.314   1.844
  680SOL    HW1 2058   2.018   1.241   1.823
  680SOL    HW2 2059   2.087   1.328   1.942
  681SOL     OW 2060   1.941   1.240   0.653
  681SOL    HW1 2061   1.940   1.193   0.741
  681SOL    HW2 2062   2.023   1.212   0.602
  682SOL     OW 2063   2.534   1.391   1.624
  682SOL    HW1 2064   2.456   1.341   1.662
  682SOL    HW2 2065   2.531   1.486   1.655
  683SOL     OW 2066   2.290   0.424   0.520
  683SOL    HW1 2067   2.320   0.352   0.458
  683SOL    HW2 2068   2.251   0.384   0.603
  684SOL     OW 2069   2.179   0.547   1.280
  684SOL    HW1 2070   2.217   0.488   1.352
  684SOL    HW2 2071   2.219   0.521   1.192
  685SOL     OW 2072   2.674   1.586   0.687
  685SOL    HW1 2073   2.706   1.596   0.593
  685SOL    HW2 2074   2.595   1.524   0.689
  686SOL     OW 2075   2.863   0.034   1.154
  686SOL    HW1 2076   2.800  -0.038   1.123
  686SOL    HW2 2077   2.956  -0.002   1.154
  687SOL     OW 2078   2.632   1.330   0.301
  687SOL    HW1 2079   2.586   1.243   0.318
  687SOL    HW2 2080   2.723   1.327   0.342
  688SOL     OW 2081   2.480   1.567   1.284
  688SOL    HW1 2082   2.475   1.649   1.341
  688SOL    HW2 2083   2.569   1.564   1.239
  689SOL     OW 2084   1.901   1.077   0.300
  689SOL    HW1 2085   2.000   1.066   0.291
  689SOL    HW2 2086   1.861   0.991   0.332
  690SOL     OW 2087   2.737   1.646   0.337
  690SOL    HW1 2088   2.660   1.611   0.283
  690SOL    HW2 2089   2.705   1.717   0.399
  691SOL     OW 2090   2.092   0.628   1.975
  691SOL    HW1 2091   1.999   0.626   2.012
  691SOL    HW2 2092   2.093   0.589   1.883
  692SOL     OW 2093   2.087   0.275   2.858
  692SOL    HW1 2094   2.122   0.258   2.950
  692SOL    HW2 2095   1.999   0.230   2.846
  693SOL     OW 2096   1.881   0.368   2.509
  693SOL    HW1 2097   1.799   0.411   2.548
  693SOL    HW2 2098   1.853   0.295   2.446
  694SOL     OW 2099   2.630   1.144   2.885
  694SOL    HW1 2100   2.552   1.161   2.945
  694SOL    HW2 2101   2.664   1.231   2.849
  695SOL     OW 2102   2.547   1.012   2.527
  695SOL    HW1 2103   2.616   0.996   2.597
  695SOL    HW2 2104   2.474   1.069   2.565
  696SOL     OW 2105   2.197   1.435   2.923
  696SOL    HW1 2106   2.119   1.404   2.870
  696SOL    HW2 2107   2.255   1.493   2.866
  697SOL     OW 2108   2.093   1.713   2.345
  697SOL    HW1 2109   2.127   1.790   2.399
  697SOL    HW2 2110   2.137   1.713   2.255
  698SOL     OW 2111   2.092   1.434   2.400
  698SOL    HW1 2112   2.066   1.530   2.400
  698SOL    HW2 2113   2.021   1.380   2.445
  699SOL     OW 2114   2.102   1.091   2.748
  699SOL    HW1 2115   2.116   1.007   2.800
  699SOL    HW2 2116   2.047   1.155   2.803
  700SOL     OW 2117   2.468   0.964   1.985
  700SOL    HW1 2118   2.475   1.048   1.931
  700SOL    HW2 2119   2.514   0.977   2.073
  701SOL     OW 2120   1.984   0.643   2.425
  701SOL    HW1 2121   1.939   0.555   2.442
  701SOL    HW2 2122   1.983   0.697   2.509
  702SOL     OW 2123   1.889   1.596   1.979
  702SOL    HW1 2124   1.870   1.500   2.000
  702SOL    HW2 2125   1.856   1.654   2.054
  703SOL     OW 2126   2.475   1.365   2.588
  703SOL    HW1 2127   2.426   1.278   2.597
  703SOL    HW2 2128   2.452   1.408   2.501
  704SOL     OW 2129   2.671   0.004   2.364
  704SOL    HW1 2130   2.711   0.095   2.355
  704SOL    HW2 2131   2.571   0.012   2.370
  705SOL     OW 2132   2.059   0.976   3.126
  705SOL    HW1 2133   2.148   0.931   3.112
  705SOL    HW2 2134   1.986   0.911   3.107
  706SOL     OW 2135   2.460   0.729   2.132
  706SOL    HW1 2136   2.484   0.798   2.064
  706SOL    HW2 2137   2.382   0.762   2.186
  707SOL     OW 2138   2.903   0.701   2.291
  707SOL    HW1 2139   2.929   0.697   2.387
  707SOL    HW2 2140   2.818   0.650   2.277
  708SOL     OW 2141   1.938   0.811   2.651
  708SOL    HW1 2142   2.037   0.799   2.660
  708SOL    HW2 2143   1.914   0.906   2.672
  709SOL     OW 2144   2.727   0.348   2.057
  709SOL    HW1 2145   2.786   0.411   2.008
  709SOL    HW2 2146   2.746   0.254   2.028
  710SOL     OW 2147   2.412   0.196   2.747
  710SOL    HW1 2148   2.407   0.191   2.847
  710SOL    HW2 2149   2.414   0.292   2.718
  711SOL     OW 2150   2.870   1.456   2.339
  711SOL    HW1 2151   2.824   1.528   2.287
  711SOL    HW2 2152   2.866   1.476   2.437
  712SOL     OW 2153   2.213   1.801   2.715
  712SOL    HW1 2154   2.263   1.715   2.721
  712SOL    HW2 2155   2.278   1.878   2.712
  713SOL     OW 2156   2.183   0.943   2.104
  713SOL    HW1 2157   2.265   0.982   2.062
  713SOL    HW2 2158   2.156   0.861   2.055
  714SOL     OW 2159   2.326   1.743   2.185
  714SOL    HW1 2160   2.359   1.782   2.271
  714SOL    HW2 2161   2.402   1.736   2.120
  715SOL     OW 2162   2.111   1.785   3.103
  715SOL    HW1 2163   2.168   1.720   3.153
  715SOL    HW2 2164   2.095   1.752   3.010
  716SOL     OW 2165   2.802   1.698   2.766
  716SOL    HW1 2166   2.882   1.641   2.787
  716SOL    HW2 2167   2.753   1.658   2.689
  717SOL     OW 2168   2.244   0.700   2.342
  717SOL    HW1 2169   2.289   0.610   2.339
  717SOL    HW2 2170   2.150   0.689   2.375
  718SOL     OW 2171   2.476   0.122   1.979
  718SOL    HW1 2172   2.574   0.100   1.986
  718SOL    HW2 2173   2.445   0.105   1.886
  719SOL     OW 2174   2.665   1.402   2.786
  719SOL    HW1 2175   2.755   1.416   2.744
  719SOL    HW2 2176   2.594   1.404   2.715
  720SOL     OW 2177   2.784   0.503   2.761
  720SOL    HW1 2178   2.759   0.494   2.665
  720SOL    HW2 2179   2.832   0.421   2.792
  721SOL     OW 2180   2.401   0.064   2.374
  721SOL    HW1 2181   2.320   0.065   2.432
  721SOL    HW2 2182   2.404   0.147   2.319
  722SOL     OW 2183   2.159   0.035   2.033
  722SOL    HW1 2184   2.208   0.119   2.012
  722SOL    HW2 2185   2.221  -0.030   2.078
  723SOL     OW 2186   2.797   0.236   2.342
  723SOL    HW1 2187   2.749   0.277   2.264
  723SOL    HW2 2188   2.896   0.234   2.323
  724SOL     OW 2189   3.089   1.570   2.655
  724SOL    HW1 2190   3.110   1.644   2.590
  724SOL    HW2 2191   3.157   1.570   2.728
  725SOL     OW 2192   2.321   1.152   2.603
  725SOL    HW1 2193   2.250   1.125   2.668
  725SOL    HW2 2194   2.295   1.124   2.510
  726SOL     OW 2195   3.133   1.797   2.453
  726SOL    HW1 2196   3.177   1.861   2.389
  726SOL    HW2 2197   3.083   1.849   2.523
  727SOL     OW 2198   2.894   0.549   1.878
  727SOL    HW1 2199   2.853   0.631   1.839
  727SOL    HW2 2200   2.958   0.575   1.951
  728SOL     OW 2201   2.728   0.454   2.504
  728SOL    HW1 2202   2.696   0.526   2.442
  728SOL    HW2 2203   2.752   0.373   2.451
  729SOL     OW 2204   2.879   0.039   2.615
  729SOL    HW1 2205   2.807   0.044   2.546
  729SOL    HW2 2206   2.855  -0.030   2.684
  730SOL     OW 2207   2.350   1.385   2.036
  730SOL    HW1 2208   2.263   1.370   2.083
  730SOL    HW2 2209   2.333   1.411   1.941
  731SOL     OW 2210   2.389   0.256   2.190
  731SOL    HW1 2211   2.416   0.197   2.115
  731SOL    HW2 2212   2.389   0.351   2.159
  732SOL     OW 2213   2.567   1.050   2.230
  732SOL    HW1 2214   2.553   1.057   2.329
  732SOL    HW2 2215   2.651   0.999   2.212
  733SOL     OW 2216   2.272   0.813   3.113
  733SOL    HW1 2217   2.358   0.825   3.163
  733SOL    HW2 2218   2.230   0.726   3.140
  734SOL     OW 2219   2.229   1.100   2.363
  734SOL    HW1 2220   2.222   1.183   2.307
  734SOL    HW2 2221   2.233   1.020   2.303
  735SOL     OW 2222   2.428   0.537   2.727
  735SOL    HW1 2223   2.440   0.603   2.653
  735SOL    HW2 2224   2.474   0.571   2.810
  736SOL     OW 2225   2.216   1.510   3.191
  736SOL    HW1 2226   2.195   1.466   3.104
  736SOL    HW2 2227   2.313   1.536   3.194
  737SOL     OW 2228   2.435   0.870   2.891
  737SOL    HW1 2229   2.479   0.959   2.882
  737SOL    HW2 2230   2.372   0.870   2.968
  738SOL     OW 2231   3.071   0.525   2.137
  738SOL    HW1 2232   3.084   0.441   2.191
  738SOL    HW2 2233   3.042   0.599   2.197
  739SOL     OW 2234   2.594   0.634   2.926
  739SOL    HW1 2235   2.653   0.608   2.850
  739SOL    HW2 2236   2.566   0.730   2.915
  740SOL     OW 2237   2.169   0.063   2.480
  740SOL    HW1 2238   2.158   0.157   2.513
  740SOL    HW2 2239   2.164   0.000   2.557
  741SOL     OW 2240   2.885   0.766   2.828
  741SOL    HW1 2241   2.900   0.787   2.924
  741SOL    HW2 2242   2.855   0.671   2.819
  742SOL     OW 2243   2.930   1.333   2.711
  742SOL    HW1 2244   2.937   1.249   2.656
  742SOL    HW2 2245   2.992   1.402   2.675
  743SOL     OW 2246   2.181   0.810   2.811
  743SOL    HW1 2247   2.274   0.846   2.816
  743SOL    HW2 2248   2.175   0.725   2.863
  744SOL     OW 2249   2.201   0.509   2.868
  744SOL    HW1 2250   2.149   0.426   2.851
  744SOL    HW2 2251   2.278   0.514   2.804
  745SOL     OW 2252   1.870   1.326   2.062
  745SOL    HW1 2253   1.777   1.347   2.031
  745SOL    HW2 2254   1.880   1.227   2.075
  746SOL     OW 2255   1.950   1.801   2.789
  746SOL    HW1 2256   1.908   1.715   2.762
  746SOL    HW2 2257   2.044   1.804   2.755
  747SOL     OW 2258   2.366   1.568   2.772
  747SOL    HW1 2259   2.432   1.642   2.781
  747SOL    HW2 2260   2.410   1.489   2.730
  748SOL     OW 2261   2.864   0.796   3.100
  748SOL    HW1 2262   2.905   0.764   3.186
  748SOL    HW2 2263   2.768   0.769   3.097
  749SOL     OW 2264   1.902   0.544   2.976
  749SOL    HW1 2265   1.987   0.511   2.935
  749SOL    HW2 2266   1.915   0.559   3.074
  750SOL     OW 2267   2.677   0.572   2.187
  750SOL    HW1 2268   2.684   0.483   2.141
  750SOL    HW2 2269   2.583   0.606   2.179
  751SOL     OW 2270   2.533   0.464   3.131
  751SOL    HW1 2271   2.499   0.375   3.101
  751SOL    HW2 2272   2.559   0.518   3.051
  752SOL     OW 2273   2.335   0.500   2.053
  752SOL    HW1 2274   2.396   0.580   2.057
  752SOL    HW2 2275   2.240   0.531   2.060
  753SOL     OW 2276   3.164   0.855   2.171
  753SOL    HW1 2277   3.078   0.824   2.213
  753SOL    HW2 2278   3.160   0.841   2.072
  754SOL     OW 2279   1.945   1.258   2.884
  754SOL    HW1 2280   1.940   1.257   2.984
  754SOL    HW2 2281   1.862   1.217   2.846
  755SOL     OW 2282   2.534   1.616   2.016
  755SOL    HW1 2283   2.543   1.626   1.917
  755SOL    HW2 2284   2.494   1.527   2.037
  756SOL     OW 2285   2.125   0.326   2.582
  756SOL    HW1 2286   2.046   0.377   2.548
  756SOL    HW2 2287   2.116   0.311   2.680
  757SOL     OW 2288   2.778   0.910   2.153
  757SOL    HW1 2289   2.841   0.948   2.085
  757SOL    HW2 2290   2.818   0.827   2.192
  758SOL     OW 2291   2.901   1.098   2.558
  758SOL    HW1 2292   2.831   1.051   2.612
  758SOL    HW2 2293   2.960   1.030   2.515
  759SOL     OW 2294   2.876   0.236   2.833
  759SOL    HW1 2295   2.868   0.200   2.740
  759SOL    HW2 2296   2.874   0.160   2.898
  760SOL     OW 2297   2.452   1.487   2.353
  760SOL    HW1 2298   2.494   1.429   2.283
  760SOL    HW2 2299   2.408   1.566   2.309
  761SOL     OW 2300   2.117   1.348   2.152
  761SOL    HW1 2301   2.021   1.349   2.125
  761SOL    HW2 2302   2.129   1.401   2.236
  762SOL     OW 2303   1.937   0.345   1.895
  762SOL    HW1 2304   1.845   0.317   1.866
  762SOL    HW2 2305   1.968   0.422   1.839
  763SOL     OW 2306   1.934   0.166   2.180
  763SOL    HW1 2307   1.917   0.249   2.126
  763SOL    HW2 2308   2.024   0.129   2.158
  764SOL     OW 2309   2.456   0.745   2.514
  764SOL    HW1 2310   2.506   0.830   2.495
  764SOL    HW2 2311   2.368   0.747   2.466
  765SOL     OW 2312   2.721   1.374   1.878
  765SOL    HW1 2313   2.675   1.389   1.966
  765SOL    HW2 2314   2.765   1.459   1.848
  766SOL     OW 2315   2.523   1.790   2.815
  766SOL    HW1 2316   2.477   1.878   2.802
  766SOL    HW2 2317   2.622   1.802   2.808
  767SOL     OW 2318   2.721   0.956   2.723
  767SOL    HW1 2319   2.775   0.887   2.771
  767SOL    HW2 2320   2.689   1.025   2.789
  768SOL     OW 2321   2.945   0.984   1.949
  768SOL    HW1 2322   2.922   1.037   1.867
  768SOL    HW2 2323   3.026   0.928   1.930
  769SOL     OW 2324   1.941   1.240   2.515
  769SOL    HW1 2325   1.940   1.193   2.603
  769SOL    HW2 2326   2.023   1.212   2.464
  770SOL     OW 2327   2.290   0.424   2.382
  770SOL    HW1 2328   2.320   0.352   2.320
  770SOL    HW2 2329   2.251   0.384   2.465
  771SOL     OW 2330   2.674   1.586   2.549
  771SOL    HW1 2331   2.706   1.596   2.455
  771SOL    HW2 2332   2.595   1.524   2.551
  772SOL     OW 2333   2.632   1.330   2.163
  772SOL    HW1 2334   2.586   1.243   2.180
  772SOL    HW2 2335   2.723   1.327   2.204
  773SOL     OW 2336   1.901   1.077   2.162
  773SOL    HW1 2337   2.000   1.066   2.153
  773SOL    HW2 2338   1.861   0.991   2.194
  774SOL     OW 2339   2.737   1.646   2.199
  774SOL    HW1 2340   2.660   1.611   2.145
  774SOL    HW2 2341   2.705   1.717   2.261
  775SOL     OW 2342   2.092   2.490   0.113
  775SOL    HW1 2343   1.999   2.488   0.150
  775SOL    HW2 2344   2.093   2.451   0.021
  776SOL     OW 2345   2.087   2.137   0.996
  776SOL    HW1 2346   2.122   2.120   1.088
  776SOL    HW2 2347   1.999   2.092   0.984
  777SOL     OW 2348   1.881   2.230   0.647
  777SOL    HW1 2349   1.799   2.273   0.686
  777SOL    HW2 2350   1.853   2.157   0.584
  778SOL     OW 2351   2.630   3.006   1.023
  778SOL    HW1 2352   2.552   3.023   1.083
  778SOL    HW2 2353   2.664   3.093   0.987
  779SOL     OW 2354   2.712   2.660   1.823
  779SOL    HW1 2355   2.708   2.736   1.888
  779SOL    HW2 2356   2.734   2.696   1.732
  780SOL     OW 2357   2.547   2.874   0.665
  780SOL    HW1 2358   2.616   2.858   0.735
  780SOL    HW2 2359   2.474   2.931   0.703
  781SOL     OW 2360   2.300   2.254   1.499
  781SOL    HW1 2361   2.382   2.198   1.508
  781SOL    HW2 2362   2.219   2.196   1.503
  782SOL     OW 2363   2.092   3.296   0.538
  782SOL    HW1 2364   2.066   3.392   0.538
  782SOL    HW2 2365   2.021   3.242   0.583
  783SOL     OW 2366   2.102   2.953   0.886
  783SOL    HW1 2367   2.116   2.869   0.938
  783SOL    HW2 2368   2.047   3.017   0.941
  784SOL     OW 2369   2.468   2.826   0.123
  784SOL    HW1 2370   2.475   2.910   0.069
  784SOL    HW2 2371   2.514   2.839   0.211
  785SOL     OW 2372   1.984   2.505   0.563
  785SOL    HW1 2373   1.939   2.417   0.580
  785SOL    HW2 2374   1.983   2.559   0.647
  786SOL     OW 2375   1.975   2.599   1.597
  786SOL    HW1 2376   2.063   2.586   1.642
  786SOL    HW2 2377   1.962   2.696   1.575
  787SOL     OW 2378   2.671   1.866   0.502
  787SOL    HW1 2379   2.711   1.957   0.493
  787SOL    HW2 2380   2.571   1.874   0.508
  788SOL     OW 2381   2.059   2.838   1.264
  788SOL    HW1 2382   2.148   2.793   1.250
  788SOL    HW2 2383   1.986   2.773   1.245
  789SOL     OW 2384   2.179   2.113   1.801
  789SOL    HW1 2385   2.250   2.184   1.807
  789SOL    HW2 2386   2.091   2.152   1.829
  790SOL     OW 2387   2.460   2.591   0.270
  790SOL    HW1 2388   2.484   2.660   0.202
  790SOL    HW2 2389   2.382   2.624   0.324
  791SOL     OW 2390   2.669   2.467   1.465
  791SOL    HW1 2391   2.622   2.464   1.554
  791SOL    HW2 2392   2.618   2.412   1.399
  792SOL     OW 2393   2.835   2.752   1.572
  792SOL    HW1 2394   2.881   2.668   1.543
  792SOL    HW2 2395   2.779   2.786   1.497
  793SOL     OW 2396   2.853   2.272   1.242
  793SOL    HW1 2397   2.776   2.306   1.296
  793SOL    HW2 2398   2.819   2.221   1.163
  794SOL     OW 2399   2.903   2.563   0.429
  794SOL    HW1 2400   2.929   2.559   0.525
  794SOL    HW2 2401   2.818   2.512   0.415
  795SOL     OW 2402   1.938   2.673   0.789
  795SOL    HW1 2403   2.037   2.661   0.798
  795SOL    HW2 2404   1.914   2.768   0.810
  796SOL     OW 2405   2.727   2.210   0.195
  796SOL    HW1 2406   2.786   2.273   0.146
  796SOL    HW2 2407   2.746   2.116   0.166
  797SOL     OW 2408   2.412   2.058   0.885
  797SOL    HW1 2409   2.407   2.053   0.985
  797SOL    HW2 2410   2.414   2.154   0.856
  798SOL     OW 2411   2.183   2.805   0.242
  798SOL    HW1 2412   2.265   2.844   0.200
  798SOL    HW2 2413   2.156   2.723   0.193
  799SOL     OW 2414   2.064   2.147   1.498
  799SOL    HW1 2415   1.984   2.207   1.485
  799SOL    HW2 2416   2.054   2.098   1.584
  800SOL     OW 2417   2.244   2.562   0.480
  800SOL    HW1 2418   2.289   2.472   0.477
  800SOL    HW2 2419   2.150   2.551   0.513
  801SOL     OW 2420   2.476   1.984   0.117
  801SOL    HW1 2421   2.574   1.962   0.124
  801SOL    HW2 2422   2.445   1.967   0.024
  802SOL     OW 2423   2.643   2.126   1.749
  802SOL    HW1 2424   2.710   2.065   1.792
  802SOL    HW2 2425   2.570   2.145   1.814
  803SOL     OW 2426   2.784   2.365   0.899
  803SOL    HW1 2427   2.759   2.356   0.803
  803SOL    HW2 2428   2.832   2.283   0.930
  804SOL     OW 2429   2.401   1.926   0.512
  804SOL    HW1 2430   2.320   1.927   0.570
  804SOL    HW2 2431   2.404   2.009   0.457
  805SOL     OW 2432   2.797   2.098   0.480
  805SOL    HW1 2433   2.749   2.139   0.402
  805SOL    HW2 2434   2.896   2.096   0.461
  806SOL     OW 2435   2.321   3.014   0.741
  806SOL    HW1 2436   2.250   2.987   0.806
  806SOL    HW2 2437   2.295   2.986   0.648
  807SOL     OW 2438   2.894   2.411   0.016
  807SOL    HW1 2439   2.853   2.493  -0.023
  807SOL    HW2 2440   2.958   2.437   0.089
  808SOL     OW 2441   1.940   2.418   1.386
  808SOL    HW1 2442   2.032   2.417   1.345
  808SOL    HW2 2443   1.934   2.492   1.453
  809SOL     OW 2444   2.423   2.084   1.147
  809SOL    HW1 2445   2.461   2.000   1.184
  809SOL    HW2 2446   2.335   2.103   1.191
  810SOL     OW 2447   2.728   2.316   0.642
  810SOL    HW1 2448   2.696   2.388   0.580
  810SOL    HW2 2449   2.752   2.235   0.589
  811SOL     OW 2450   2.879   1.901   0.753
  811SOL    HW1 2451   2.807   1.906   0.684
  811SOL    HW2 2452   2.855   1.832   0.822
  812SOL     OW 2453   2.389   2.118   0.328
  812SOL    HW1 2454   2.416   2.059   0.253
  812SOL    HW2 2455   2.389   2.213   0.297
  813SOL     OW 2456   2.777   1.951   1.402
  813SOL    HW1 2457   2.802   1.931   1.307
  813SOL    HW2 2458   2.849   2.007   1.444
  814SOL     OW 2459   2.567   2.912   0.368
  814SOL    HW1 2460   2.553   2.919   0.467
  814SOL    HW2 2461   2.651   2.861   0.350
  815SOL     OW 2462   2.272   2.675   1.251
  815SOL    HW1 2463   2.358   2.687   1.301
  815SOL    HW2 2464   2.230   2.588   1.278
  816SOL     OW 2465   2.229   2.962   0.501
  816SOL    HW1 2466   2.222   3.045   0.445
  816SOL    HW2 2467   2.233   2.882   0.441
  817SOL     OW 2468   2.428   2.399   0.865
  817SOL    HW1 2469   2.440   2.465   0.791
  817SOL    HW2 2470   2.474   2.433   0.948
  818SOL     OW 2471   2.264   2.613   1.598
  818SOL    HW1 2472   2.332   2.668   1.551
  818SOL    HW2 2473   2.304   2.525   1.625
  819SOL     OW 2474   2.875   1.967   1.770
  819SOL    HW1 2475   2.881   2.052   1.718
  819SOL    HW2 2476   2.907   1.891   1.713
  820SOL     OW 2477   2.366   1.912   1.740
  820SOL    HW1 2478   2.324   1.855   1.670
  820SOL    HW2 2479   2.300   1.981   1.772
  821SOL     OW 2480   2.435   2.732   1.029
  821SOL    HW1 2481   2.479   2.821   1.020
  821SOL    HW2 2482   2.372   2.732   1.106
  822SOL     OW 2483   3.071   2.387   0.275
  822SOL    HW1 2484   3.084   2.303   0.329
  822SOL    HW2 2485   3.042   2.461   0.335
  823SOL     OW 2486   2.169   2.075   1.231
  823SOL    HW1 2487   2.146   2.112   1.321
  823SOL    HW2 2488   2.139   1.980   1.225
  824SOL     OW 2489   2.594   2.496   1.064
  824SOL    HW1 2490   2.653   2.470   0.988
  824SOL    HW2 2491   2.566   2.592   1.053
  825SOL     OW 2492   2.169   1.925   0.618
  825SOL    HW1 2493   2.158   2.019   0.651
  825SOL    HW2 2494   2.164   1.862   0.695
  826SOL     OW 2495   2.885   2.628   0.966
  826SOL    HW1 2496   2.900   2.649   1.062
  826SOL    HW2 2497   2.855   2.533   0.957
  827SOL     OW 2498   2.212   2.760   1.804
  827SOL    HW1 2499   2.288   2.804   1.852
  827SOL    HW2 2500   2.247   2.713   1.722
  828SOL     OW 2501   2.181   2.672   0.949
  828SOL    HW1 2502   2.274   2.708   0.954
  828SOL    HW2 2503   2.175   2.587   1.001
  829SOL     OW 2504   2.201   2.371   1.006
  829SOL    HW1 2505   2.149   2.288   0.989
  829SOL    HW2 2506   2.278   2.376   0.942
  830SOL     OW 2507   3.000   2.242   1.678
  830SOL    HW1 2508   2.955   2.305   1.742
  830SOL    HW2 2509   3.093   2.273   1.661
  831SOL     OW 2510   3.022   2.069   1.477
  831SOL    HW1 2511   3.022   2.133   1.554
  831SOL    HW2 2512   3.050   2.117   1.394
  832SOL     OW 2513   2.864   2.658   1.238
  832SOL    HW1 2514   2.905   2.626   1.324
  832SOL    HW2 2515   2.768   2.631   1.235
  833SOL     OW 2516   1.902   2.406   1.114
  833SOL    HW1 2517   1.987   2.373   1.073
  833SOL    HW2 2518   1.915   2.421   1.212
  834SOL     OW 2519   2.051   2.382   1.722
  834SOL    HW1 2520   2.110   2.342   1.652
  834SOL    HW2 2521   1.993   2.453   1.681
  835SOL     OW 2522   2.677   2.434   0.325
  835SOL    HW1 2523   2.684   2.345   0.279
  835SOL    HW2 2524   2.583   2.468   0.317
  836SOL     OW 2525   2.533   2.326   1.269
  836SOL    HW1 2526   2.499   2.237   1.239
  836SOL    HW2 2527   2.559   2.380   1.189
  837SOL     OW 2528   2.335   2.362   0.191
  837SOL    HW1 2529   2.396   2.442   0.195
  837SOL    HW2 2530   2.240   2.393   0.198
  838SOL     OW 2531   2.021   2.999   1.466
  838SOL    HW1 2532   2.043   2.938   1.542
  838SOL    HW2 2533   2.031   2.950   1.380
  839SOL     OW 2534   3.164   2.717   0.309
  839SOL    HW1 2535   3.078   2.686   0.351
  839SOL    HW2 2536   3.160   2.703   0.210
  840SOL     OW 2537   2.765   1.948   0.133
  840SOL    HW1 2538   2.816   1.949   0.047
  840SOL    HW2 2539   2.821   1.906   0.204
  841SOL     OW 2540   2.125   2.188   0.720
  841SOL    HW1 2541   2.046   2.239   0.686
  841SOL    HW2 2542   2.116   2.173   0.818
  842SOL     OW 2543   2.684   2.864   1.372
  842SOL    HW1 2544   2.724   2.863   1.280
  842SOL    HW2 2545   2.694   2.956   1.412
  843SOL     OW 2546   2.778   2.772   0.291
  843SOL    HW1 2547   2.841   2.810   0.223
  843SOL    HW2 2548   2.818   2.689   0.330
  844SOL     OW 2549   2.234   3.150   1.490
  844SOL    HW1 2550   2.221   3.243   1.456
  844SOL    HW2 2551   2.150   3.098   1.477
  845SOL     OW 2552   2.876   2.098   0.971
  845SOL    HW1 2553   2.868   2.062   0.878
  845SOL    HW2 2554   2.874   2.022   1.036
  846SOL     OW 2555   1.967   2.875   1.726
  846SOL    HW1 2556   1.890   2.842   1.780
  846SOL    HW2 2557   2.052   2.845   1.768
  847SOL     OW 2558   2.534   2.065   1.489
  847SOL    HW1 2559   2.624   2.049   1.449
  847SOL    HW2 2560   2.542   2.070   1.588
  848SOL     OW 2561   1.934   2.028   0.318
  848SOL    HW1 2562   1.917   2.111   0.264
  848SOL    HW2 2563   2.024   1.991   0.296
  849SOL     OW 2564   2.475   2.704   1.431
  849SOL    HW1 2565   2.531   2.785   1.414
  849SOL    HW2 2566   2.534   2.624   1.434
  850SOL     OW 2567   2.578   2.427   1.708
  850SOL    HW1 2568   2.597   2.492   1.782
  850SOL    HW2 2569   2.638   2.347   1.717
  851SOL     OW 2570   2.456   2.607   0.652
  851SOL    HW1 2571   2.506   2.692   0.633
  851SOL    HW2 2572   2.368   2.609   0.604
  852SOL     OW 2573   2.721   2.818   0.861
  852SOL    HW1 2574   2.775   2.749   0.909
  852SOL    HW2 2575   2.689   2.887   0.927
  853SOL     OW 2576   2.945   2.846   0.087
  853SOL    HW1 2577   2.922   2.899   0.005
  853SOL    HW2 2578   3.026   2.790   0.068
  854SOL     OW 2579   2.290   2.286   0.520
  854SOL    HW1 2580   2.320   2.214   0.458
  854SOL    HW2 2581   2.251   2.246   0.603
  855SOL     OW 2582   2.179   2.409   1.280
  855SOL    HW1 2583   2.217   2.350   1.352
  855SOL    HW2 2584   2.219   2.383   1.192
  856SOL     OW 2585   2.863   1.896   1.154
  856SOL    HW1 2586   2.800   1.824   1.123
  856SOL    HW2 2587   2.956   1.860   1.154
  857SOL     OW 2588   2.632   3.192   0.301
  857SOL    HW1 2589   2.586   3.105   0.318
  857SOL    HW2 2590   2.723   3.189   0.342
  858SOL     OW 2591   1.901   2.939   0.300
  858SOL    HW1 2592   2.000   2.928   0.291
  858SOL    HW2 2593   1.861   2.853   0.332
  859SOL     OW 2594   2.092   2.490   1.975
  859SOL    HW1 2595   1.999   2.488   2.012
  859SOL    HW2 2596   2.093   2.451   1.883
  860SOL     OW 2597   2.087   2.137   2.858
  860SOL    HW1 2598   2.122   2.120   2.950
  860SOL    HW2 2599   1.999   2.092   2.846
  861SOL     OW 2600   1.881   2.230   2.509
  861SOL    HW1 2601   1.799   2.273   2.548
  861SOL    HW2 2602   1.853   2.157   2.446
  862SOL     OW 2603   2.630   3.006   2.885
  862SOL    HW1 2604   2.552   3.023   2.945
  862SOL    HW2 2605   2.664   3.093   2.849
  863SOL     OW 2606   2.547   2.874   2.527
  863SOL    HW1 2607   2.616   2.858   2.597
  863SOL    HW2 2608   2.474   2.931   2.565
  864SOL     OW 2609   2.092   3.296   2.400
  864SOL    HW1 2610   2.066   3.392   2.400
  864SOL    HW2 2611   2.021   3.242   2.445
  865SOL     OW 2612   2.102   2.953   2.748
  865SOL    HW1 2613   2.116   2.869   2.800
  865SOL    HW2 2614   2.047   3.017   2.803
  866SOL     OW 2615   2.468   2.826   1.985
  866SOL    HW1 2616   2.475   2.910   1.931
  866SOL    HW2 2617   2.514   2.839   2.073
  867SOL     OW 2618   1.984   2.505   2.425
  867SOL    HW1 2619   1.939   2.417   2.442
  867SOL    HW2 2620   1.983   2.559   2.509
  868SOL     OW 2621   2.671   1.866   2.364
  868SOL    HW1 2622   2.711   1.957   2.355
  868SOL    HW2 2623   2.571   1.874   2.370
  869SOL     OW 2624   2.059   2.838   3.126
  869SOL    HW1 2625   2.148   2.793   3.112
  869SOL    HW2 2626   1.986   2.773   3.107
  870SOL     OW 2627   2.460   2.591   2.132
  870SOL    HW1 2628   2.484   2.660   2.064
  870SOL    HW2 2629   2.382   2.624   2.186
  871SOL     OW 2630   2.903   2.563   2.291
  871SOL    HW1 2631   2.929   2.559   2.387
  871SOL    HW2 2632   2.818   2.512   2.277
  872SOL     OW 2633   1.938   2.673   2.651
  872SOL    HW1 2634   2.037   2.661   2.660
  872SOL    HW2 2635   1.914   2.768   2.672
  873SOL     OW 2636   2.727   2.210   2.057
  873SOL    HW1 2637   2.786   2.273   2.008
  873SOL    HW2 2638   2.746   2.116   2.028
  874SOL     OW 2639   2.412   2.058   2.747
  874SOL    HW1 2640   2.407   2.053   2.847
  874SOL    HW2 2641   2.414   2.154   2.718
  875SOL     OW 2642   2.183   2.805   2.104
  875SOL    HW1 2643   2.265   2.844   2.062
  875SOL    HW2 2644   2.156   2.723   2.055
  876SOL     OW 2645   2.244   2.562   2.342
  876SOL    HW1 2646   2.289   2.472   2.339
  876SOL    HW2 2647   2.150   2.551   2.375
  877SOL     OW 2648   2.476   1.984   1.979
  877SOL    HW1 2649   2.574   1.962   1.986
  877SOL    HW2 2650   2.445   1.967   1.886
  878SOL     OW 2651   2.784   2.365   2.761
  878SOL    HW1 2652   2.759   2.356   2.665
  878SOL    HW2 2653   2.832   2.283   2.792
  879SOL     OW 2654   2.401   1.926   2.374
  879SOL    HW1 2655   2.320   1.927   2.432
  879SOL    HW2 2656   2.404   2.009   2.319
  880SOL     OW 2657   2.159   1.897   2.033
  880SOL    HW1 2658   2.208   1.981   2.012
  880SOL    HW2 2659   2.221   1.832   2.078
  881SOL     OW 2660   2.797   2.098   2.342
  881SOL    HW1 2661   2.749   2.139   2.264
  881SOL    HW2 2662   2.896   2.096   2.323
  882SOL     OW 2663   2.321   3.014   2.603
  882SOL    HW1 2664   2.250   2.987   2.668
  882SOL    HW2 2665   2.295   2.986   2.510
  883SOL     OW 2666   2.894   2.411   1.878
  883SOL    HW1 2667   2.853   2.493   1.839
  883SOL    HW2 2668   2.958   2.437   1.951
  884SOL     OW 2669   2.728   2.316   2.504
  884SOL    HW1 2670   2.696   2.388   2.442
  884SOL    HW2 2671   2.752   2.235   2.451
  885SOL     OW 2672   2.879   1.901   2.615
  885SOL    HW1 2673   2.807   1.906   2.546
  885SOL    HW2 2674   2.855   1.832   2.684
  886SOL     OW 2675   2.389   2.118   2.190
  886SOL    HW1 2676   2.416   2.059   2.115
  886SOL    HW2 2677   2.389   2.213   2.159
  887SOL     OW 2678   2.567   2.912   2.230
  887SOL    HW1 2679   2.553   2.919   2.329
  887SOL    HW2 2680   2.651   2.861   2.212
  888SOL     OW 2681   2.272   2.675   3.113
  888SOL    HW1 2682   2.358   2.687   3.163
  888SOL    HW2 2683   2.230   2.588   3.140
  889SOL     OW 2684   2.229   2.962   2.363
  889SOL    HW1 2685   2.222   3.045   2.307
  889SOL    HW2 2686   2.233   2.882   2.303
  890SOL     OW 2687   2.428   2.399   2.727
  890SOL    HW1 2688   2.440   2.465   2.653
  890SOL    HW2 2689   2.474   2.433   2.810
  891SOL     OW 2690   2.435   2.732   2.891
  891SOL    HW1 2691   2.479   2.821   2.882
  891SOL    HW2 2692   2.372   2.732   2.968
  892SOL     OW 2693   3.071   2.387   2.137
  892SOL    HW1 2694   3.084   2.303   2.191
  892SOL    HW2 2695   3.042   2.461   2.197
  893SOL     OW 2696   2.169   2.075   3.093
  893SOL    HW1 2697   2.146   2.112   3.183
  893SOL    HW2 2698   2.139   1.980   3.087
  894SOL     OW 2699   2.594   2.496   2.926
  894SOL    HW1 2700   2.653   2.470   2.850
  894SOL    HW2 2701   2.566   2.592   2.915
  895SOL     OW 2702   2.169   1.925   2.480
  895SOL    HW1 2703   2.158   2.019   2.513
  895SOL    HW2 2704   2.164   1.862   2.557
  896SOL     OW 2705   2.885   2.628   2.828
  896SOL    HW1 2706   2.900   2.649   2.924
  896SOL    HW2 2707   2.855   2.533   2.819
  897SOL     OW 2708   2.181   2.672   2.811
  897SOL    HW1 2709   2.274   2.708   2.816
  897SOL    HW2 2710   2.175   2.587   2.863
  898SOL     OW 2711   2.201   2.371   2.868
  898SOL    HW1 2712   2.149   2.288   2.851
  898SOL    HW2 2713   2.278   2.376   2.804
  899SOL     OW 2714   2.864   2.658   3.100
  899SOL    HW1 2715   2.905   2.626   3.186
  899SOL    HW2 2716   2.768   2.631   3.097
  900SOL     OW 2717   1.902   2.406   2.976
  900SOL    HW1 2718   1.987   2.373   2.935
  900SOL    HW2 2719   1.915   2.421   3.074
  901SOL     OW 2720   2.677   2.434   2.187
  901SOL    HW1 2721   2.684   2.345   2.141
  901SOL    HW2 2722   2.583   2.468   2.179
  902SOL     OW 2723   2.533   2.326   3.131
  902SOL    HW1 2724   2.499   2.237   3.101
  902SOL    HW2 2725   2.559   2.380   3.051
  903SOL     OW 2726   2.335   2.362   2.053
  903SOL    HW1 2727   2.396   2.442   2.057
  903SOL    HW2 2728   2.240   2.393   2.060
  904SOL     OW 2729   3.164   2.717   2.171
  904SOL    HW1 2730   3.078   2.686   2.213
  904SOL    HW2 2731   3.160   2.703   2.072
  905SOL     OW 2732   2.125   2.188   2.582
  905SOL    HW1 2733   2.046   2.239   2.548
  905SOL    HW2 2734   2.116   2.173   2.680
  906SOL     OW 2735   2.778   2.772   2.153
  906SOL    HW1 2736   2.841   2.810   2.085
  906SOL    HW2 2737   2.818   2.689   2.192
  907SOL     OW 2738   2.876   2.098   2.833
  907SOL    HW1 2739   2.868   2.062   2.740
  907SOL    HW2 2740   2.874   2.022   2.898
  908SOL     OW 2741   1.937   2.207   1.895
  908SOL    HW1 2742   1.845   2.179   1.866
  908SOL    HW2 2743   1.968   2.284   1.839
  909SOL     OW 2744   1.934   2.028   2.180
  909SOL    HW1 2745   1.917   2.111   2.126
  909SOL    HW2 2746   2.024   1.991   2.158
  910SOL     OW 2747   2.456   2.607   2.514
  910SOL    HW1 2748   2.506   2.692   2.495
  910SOL    HW2 2749   2.368   2.609   2.466
  911SOL     OW 2750   2.721   2.818   2.723
  911SOL    HW1 2751   2.775   2.749   2.771
  911SOL    HW2 2752   2.689   2.887   2.789
  912SOL     OW 2753   2.945   2.846   1.949
  912SOL    HW1 2754   2.922   2.899   1.867
  912SOL    HW2 2755   3.026   2.790   1.930
  913SOL     OW 2756   2.290   2.286   2.382
  913SOL    HW1 2757   2.320   2.214   2.320
  913SOL    HW2 2758   2.251   2.246   2.465
  914SOL     OW 2759   2.632   3.192   2.163
  914SOL    HW1 2760   2.586   3.105   2.180
  914SOL    HW2 2761   2.723   3.189   2.204
  915SOL     OW 2762   1.901   2.939   2.162
  915SOL    HW1 2763   2.000   2.928   2.153
  915SOL    HW2 2764   1.861   2.853   2.194
   3.03837   3.03837   3.03837
