; mobley_7176290_GMX.itp created by acpype (v: 2023.10.27) on Thu May 14 13:48:59 2026

[ atomtypes ]
;name   bond_type     mass     charge   ptype   sigma         epsilon       Amb
 ca       ca          0.00000  0.00000   A     3.31521e-01   4.13379e-01 ; 1.86  0.0988
 no       no          0.00000  0.00000   A     3.36510e-01   3.58987e-01 ; 1.89  0.0858
 o        o           0.00000  0.00000   A     3.04812e-01   6.12119e-01 ; 1.71  0.1463
 oh       oh          0.00000  0.00000   A     3.24287e-01   3.89112e-01 ; 1.82  0.0930
 ha       ha          0.00000  0.00000   A     2.62548e-01   6.73624e-02 ; 1.47  0.0161
 ho       ho          0.00000  0.00000   A     5.37925e-02   1.96648e-02 ; 0.30  0.0047

[ moleculetype ]
;name            nrexcl
 mobley_7176290   3

[ atoms ]
;   nr  type  resi  res  atom  cgnr     charge      mass       ; qtot   bond_type
     1   ca     1   MOL    C1    1    -0.100000     12.01000 ; qtot -0.100
     2   ca     1   MOL    C2    2    -0.106000     12.01000 ; qtot -0.206
     3   ca     1   MOL    C3    3    -0.175000     12.01000 ; qtot -0.381
     4   ca     1   MOL    C4    4    -0.099000     12.01000 ; qtot -0.480
     5   ca     1   MOL    C5    5    -0.140200     12.01000 ; qtot -0.620
     6   ca     1   MOL    C6    6     0.119100     12.01000 ; qtot -0.501
     7   no     1   MOL    N1    7     0.311200     14.01000 ; qtot -0.190
     8    o     1   MOL    O1    8    -0.204000     16.00000 ; qtot -0.394
     9    o     1   MOL    O2    9    -0.204000     16.00000 ; qtot -0.598
    10   oh     1   MOL    O3   10    -0.484100     16.00000 ; qtot -1.082
    11   ha     1   MOL    H1   11     0.150000      1.00800 ; qtot -0.932
    12   ha     1   MOL    H2   12     0.173000      1.00800 ; qtot -0.759
    13   ha     1   MOL    H3   13     0.145000      1.00800 ; qtot -0.614
    14   ha     1   MOL    H4   14     0.188000      1.00800 ; qtot -0.426
    15   ho     1   MOL    H5   15     0.426000      1.00800 ; qtot 0.000

[ bonds ]
;   ai     aj funct   r             k
     1      2   1    1.3986e-01    2.9644e+05 ;     C1 - C2    
     1      3   1    1.3986e-01    2.9644e+05 ;     C1 - C3    
     1     11   1    1.0860e-01    3.0183e+05 ;     C1 - H1    
     2      5   1    1.3986e-01    2.9644e+05 ;     C2 - C5    
     2     12   1    1.0860e-01    3.0183e+05 ;     C2 - H2    
     3      6   1    1.3986e-01    2.9644e+05 ;     C3 - C6    
     3     13   1    1.0860e-01    3.0183e+05 ;     C3 - H3    
     4      5   1    1.3986e-01    2.9644e+05 ;     C4 - C5    
     4      6   1    1.3986e-01    2.9644e+05 ;     C4 - C6    
     4     14   1    1.0860e-01    3.0183e+05 ;     C4 - H4    
     5      7   1    1.4696e-01    2.0937e+05 ;     C5 - N1    
     6     10   1    1.3644e-01    2.9167e+05 ;     C6 - O3    
     7      8   1    1.2311e-01    3.0270e+05 ;     N1 - O1    
     7      9   1    1.2311e-01    3.0270e+05 ;     N1 - O2    
    10     15   1    9.7250e-02    4.4811e+05 ;     O3 - H5    

[ pairs ]
;   ai     aj    funct
     1      4      1 ;     C1 - C4    
     1      7      1 ;     C1 - N1    
     1     10      1 ;     C1 - O3    
     2      6      1 ;     C2 - C6    
     2      8      1 ;     C2 - O1    
     2      9      1 ;     C2 - O2    
     2     13      1 ;     C2 - H3    
     2     14      1 ;     C2 - H4    
     3      5      1 ;     C3 - C5    
     3     12      1 ;     C3 - H2    
     3     14      1 ;     C3 - H4    
     3     15      1 ;     C3 - H5    
     4      8      1 ;     C4 - O1    
     4      9      1 ;     C4 - O2    
     4     12      1 ;     C4 - H2    
     4     13      1 ;     C4 - H3    
     4     15      1 ;     C4 - H5    
     5     10      1 ;     C5 - O3    
     6      7      1 ;     C6 - N1    
     7     12      1 ;     N1 - H2    
     7     14      1 ;     N1 - H4    
    10     13      1 ;     O3 - H3    
    10     14      1 ;     O3 - H4    
    11      5      1 ;     H1 - C5    
    11      6      1 ;     H1 - C6    
    11     12      1 ;     H1 - H2    
    11     13      1 ;     H1 - H3    

[ angles ]
;   ai     aj     ak    funct   theta         cth
     1      2      5      1    1.2002e+02    5.3279e+02 ;     C1 - C2     - C5    
     1      2     12      1    1.1988e+02    3.7572e+02 ;     C1 - C2     - H2    
     1      3      6      1    1.2002e+02    5.3279e+02 ;     C1 - C3     - C6    
     1      3     13      1    1.1988e+02    3.7572e+02 ;     C1 - C3     - H3    
     2      1      3      1    1.2002e+02    5.3279e+02 ;     C2 - C1     - C3    
     2      1     11      1    1.1988e+02    3.7572e+02 ;     C2 - C1     - H1    
     2      5      4      1    1.2002e+02    5.3279e+02 ;     C2 - C5     - C4    
     2      5      7      1    1.1900e+02    5.5329e+02 ;     C2 - C5     - N1    
     3      1     11      1    1.1988e+02    3.7572e+02 ;     C3 - C1     - H1    
     3      6      4      1    1.2002e+02    5.3279e+02 ;     C3 - C6     - C4    
     3      6     10      1    1.1990e+02    6.5990e+02 ;     C3 - C6     - O3    
     4      5      7      1    1.1900e+02    5.5329e+02 ;     C4 - C5     - N1    
     4      6     10      1    1.1990e+02    6.5990e+02 ;     C4 - C6     - O3    
     5      2     12      1    1.1988e+02    3.7572e+02 ;     C5 - C2     - H2    
     5      4      6      1    1.2002e+02    5.3279e+02 ;     C5 - C4     - C6    
     5      4     14      1    1.1988e+02    3.7572e+02 ;     C5 - C4     - H4    
     5      7      8      1    1.1776e+02    8.2910e+02 ;     C5 - N1     - O1    
     5      7      9      1    1.1776e+02    8.2910e+02 ;     C5 - N1     - O2    
     6      3     13      1    1.1988e+02    3.7572e+02 ;     C6 - C3     - H3    
     6      4     14      1    1.1988e+02    3.7572e+02 ;     C6 - C4     - H4    
     6     10     15      1    1.0858e+02    5.6409e+02 ;     C6 - O3     - H5    
     8      7      9      1    1.2505e+02    1.0964e+03 ;     O1 - N1     - O2    

[ dihedrals ] ; propers
; for gromacs 4.5 or higher, using funct 9
;    i      j      k      l   func   phase     kd      pn
     1      2      5      4      9   180.00  15.16700   2 ;     C1-    C2-    C5-    C4
     1      2      5      7      9   180.00  15.16700   2 ;     C1-    C2-    C5-    N1
     1      3      6      4      9   180.00  15.16700   2 ;     C1-    C3-    C6-    C4
     1      3      6     10      9   180.00  15.16700   2 ;     C1-    C3-    C6-    O3
     2      1      3      6      9   180.00  15.16700   2 ;     C2-    C1-    C3-    C6
     2      1      3     13      9   180.00  15.16700   2 ;     C2-    C1-    C3-    H3
     2      5      4      6      9   180.00  15.16700   2 ;     C2-    C5-    C4-    C6
     2      5      4     14      9   180.00  15.16700   2 ;     C2-    C5-    C4-    H4
     2      5      7      8      9   180.00   3.01248   2 ;     C2-    C5-    N1-    O1
     2      5      7      9      9   180.00   3.01248   2 ;     C2-    C5-    N1-    O2
     3      1      2      5      9   180.00  15.16700   2 ;     C3-    C1-    C2-    C5
     3      1      2     12      9   180.00  15.16700   2 ;     C3-    C1-    C2-    H2
     3      6      4      5      9   180.00  15.16700   2 ;     C3-    C6-    C4-    C5
     3      6      4     14      9   180.00  15.16700   2 ;     C3-    C6-    C4-    H4
     3      6     10     15      9   180.00   3.57732   2 ;     C3-    C6-    O3-    H5
     4      5      2     12      9   180.00  15.16700   2 ;     C4-    C5-    C2-    H2
     4      5      7      8      9   180.00   3.01248   2 ;     C4-    C5-    N1-    O1
     4      5      7      9      9   180.00   3.01248   2 ;     C4-    C5-    N1-    O2
     4      6      3     13      9   180.00  15.16700   2 ;     C4-    C6-    C3-    H3
     4      6     10     15      9   180.00   3.57732   2 ;     C4-    C6-    O3-    H5
     5      4      6     10      9   180.00  15.16700   2 ;     C5-    C4-    C6-    O3
     6      4      5      7      9   180.00  15.16700   2 ;     C6-    C4-    C5-    N1
     7      5      2     12      9   180.00  15.16700   2 ;     N1-    C5-    C2-    H2
     7      5      4     14      9   180.00  15.16700   2 ;     N1-    C5-    C4-    H4
    10      6      3     13      9   180.00  15.16700   2 ;     O3-    C6-    C3-    H3
    10      6      4     14      9   180.00  15.16700   2 ;     O3-    C6-    C4-    H4
    11      1      2      5      9   180.00  15.16700   2 ;     H1-    C1-    C2-    C5
    11      1      2     12      9   180.00  15.16700   2 ;     H1-    C1-    C2-    H2
    11      1      3      6      9   180.00  15.16700   2 ;     H1-    C1-    C3-    C6
    11      1      3     13      9   180.00  15.16700   2 ;     H1-    C1-    C3-    H3

[ dihedrals ] ; impropers
; treated as propers in GROMACS to use correct AMBER analytical function
;    i      j      k      l   func   phase     kd      pn
     1      5      2     12      4   180.00   4.60240   2 ;     C1-    C5-    C2-    H2
     1      6      3     13      4   180.00   4.60240   2 ;     C1-    C6-    C3-    H3
     2      4      5      7      4   180.00   4.60240   2 ;     C2-    C4-    C5-    N1
     3      4      6     10      4   180.00   4.60240   2 ;     C3-    C4-    C6-    O3
     5      6      4     14      4   180.00   4.60240   2 ;     C5-    C6-    C4-    H4
     5      8      7      9      4   180.00   4.60240   2 ;     C5-    O1-    N1-    O2
    11      1      3      2      4   180.00   4.60240   2 ;     H1-    C1-    C3-    C2
