mobley_6309289_GMX.gro created by acpype (v: 2023.10.27) on Thu May 14 13:55:24 2026
 1511
    1MOL     C1    1   1.305   1.249   1.120
    1MOL     C2    2   1.311   1.124   1.207
    1MOL     C3    3   1.295   1.374   1.207
    1MOL     C4    4   1.197   1.121   1.308
    1MOL     C5    5   1.181   1.363   1.308
    1MOL     N1    6   1.195   1.242   1.390
    1MOL     H1    7   1.394   1.255   1.056
    1MOL     H2    8   1.218   1.244   1.054
    1MOL     H3    9   1.307   1.035   1.143
    1MOL     H4   10   1.407   1.121   1.260
    1MOL     H5   11   1.390   1.389   1.261
    1MOL     H6   12   1.280   1.462   1.144
    1MOL     H7   13   1.101   1.109   1.256
    1MOL     H8   14   1.208   1.034   1.373
    1MOL     H9   15   1.182   1.450   1.374
    1MOL    H10   16   1.085   1.362   1.256
    1MOL    H11   17   1.117   1.237   1.456
    2SOL     OW   18   0.230   0.628   0.113
    2SOL    HW1   19   0.137   0.626   0.150
    2SOL    HW2   20   0.231   0.589   0.021
    3SOL     OW   21   0.225   0.275   0.996
    3SOL    HW1   22   0.260   0.258   1.088
    3SOL    HW2   23   0.137   0.230   0.984
    4SOL     OW   24   0.019   0.368   0.647
    4SOL    HW1   25  -0.063   0.411   0.686
    4SOL    HW2   26  -0.009   0.295   0.584
    5SOL     OW   27   0.569   1.275   1.165
    5SOL    HW1   28   0.476   1.268   1.128
    5SOL    HW2   29   0.580   1.364   1.209
    6SOL     OW   30   1.555   1.511   0.703
    6SOL    HW1   31   1.498   1.495   0.784
    6SOL    HW2   32   1.496   1.521   0.623
    7SOL     OW   33   1.135   0.703   0.717
    7SOL    HW1   34   1.192   0.781   0.692
    7SOL    HW2   35   1.075   0.729   0.793
    8SOL     OW   36   1.755   0.607   0.231
    8SOL    HW1   37   1.743   0.594   0.132
    8SOL    HW2   38   1.725   0.526   0.280
    9SOL     OW   39   0.768   1.144   1.023
    9SOL    HW1   40   0.690   1.161   1.083
    9SOL    HW2   41   0.802   1.231   0.987
   10SOL     OW   42   0.850   0.798   1.823
   10SOL    HW1   43   0.846   0.874   1.888
   10SOL    HW2   44   0.872   0.834   1.732
   11SOL     OW   45   0.685   1.012   0.665
   11SOL    HW1   46   0.754   0.996   0.735
   11SOL    HW2   47   0.612   1.069   0.703
   12SOL     OW   48   0.686   1.161   1.803
   12SOL    HW1   49   0.746   1.240   1.817
   12SOL    HW2   50   0.600   1.192   1.762
   13SOL     OW   51   0.335   1.435   1.061
   13SOL    HW1   52   0.257   1.404   1.008
   13SOL    HW2   53   0.393   1.493   1.004
   14SOL     OW   54   1.460   1.505   1.339
   14SOL    HW1   55   1.484   1.599   1.365
   14SOL    HW2   56   1.444   1.451   1.421
   15SOL     OW   57   0.438   0.392   1.499
   15SOL    HW1   58   0.520   0.336   1.508
   15SOL    HW2   59   0.357   0.334   1.503
   16SOL     OW   60   1.603   0.447   0.737
   16SOL    HW1   61   1.529   0.493   0.687
   16SOL    HW2   62   1.654   0.515   0.790
   17SOL     OW   63   0.231   1.713   0.483
   17SOL    HW1   64   0.265   1.790   0.537
   17SOL    HW2   65   0.275   1.713   0.393
   18SOL     OW   66   1.127   1.341   1.690
   18SOL    HW1   67   1.174   1.341   1.778
   18SOL    HW2   68   1.079   1.254   1.679
   19SOL     OW   69   0.230   1.434   0.538
   19SOL    HW1   70   0.204   1.530   0.538
   19SOL    HW2   71   0.159   1.380   0.583
   20SOL     OW   72   0.240   1.091   0.886
   20SOL    HW1   73   0.254   1.007   0.938
   20SOL    HW2   74   0.185   1.155   0.941
   21SOL     OW   75   0.620   1.786   1.439
   21SOL    HW1   76   0.528   1.769   1.474
   21SOL    HW2   77   0.648   1.878   1.465
   22SOL     OW   78   0.606   0.964   0.123
   22SOL    HW1   79   0.613   1.048   0.069
   22SOL    HW2   80   0.652   0.977   0.211
   23SOL     OW   81   1.594   0.114   1.480
   23SOL    HW1   82   1.576   0.181   1.408
   23SOL    HW2   83   1.591   0.160   1.569
   24SOL     OW   84   0.122   0.643   0.563
   24SOL    HW1   85   0.077   0.555   0.580
   24SOL    HW2   86   0.121   0.697   0.647
   25SOL     OW   87   1.842   1.767   0.359
   25SOL    HW1   88   1.896   1.738   0.439
   25SOL    HW2   89   1.872   1.857   0.330
   26SOL     OW   90   0.027   1.596   0.117
   26SOL    HW1   91   0.008   1.500   0.138
   26SOL    HW2   92  -0.006   1.654   0.192
   27SOL     OW   93   1.689   0.922   0.612
   27SOL    HW1   94   1.784   0.893   0.620
   27SOL    HW2   95   1.681   0.987   0.537
   28SOL     OW   96   1.641   1.108   0.432
   28SOL    HW1   97   1.727   1.110   0.380
   28SOL    HW2   98   1.655   1.155   0.520
   29SOL     OW   99   0.113   0.737   1.597
   29SOL    HW1  100   0.201   0.724   1.642
   29SOL    HW2  101   0.100   0.834   1.575
   30SOL     OW  102   0.613   1.365   0.726
   30SOL    HW1  103   0.564   1.278   0.735
   30SOL    HW2  104   0.590   1.408   0.639
   31SOL     OW  105   0.809   0.004   0.502
   31SOL    HW1  106   0.849   0.095   0.493
   31SOL    HW2  107   0.709   0.012   0.508
   32SOL     OW  108   0.197   0.976   1.264
   32SOL    HW1  109   0.286   0.931   1.250
   32SOL    HW2  110   0.124   0.911   1.245
   33SOL     OW  111   1.525   0.999   0.190
   33SOL    HW1  112   1.462   0.923   0.203
   33SOL    HW2  113   1.573   1.017   0.276
   34SOL     OW  114   1.187   1.792   1.616
   34SOL    HW1  115   1.211   1.852   1.540
   34SOL    HW2  116   1.194   1.697   1.586
   35SOL     OW  117   0.317   0.251   1.801
   35SOL    HW1  118   0.388   0.322   1.807
   35SOL    HW2  119   0.229   0.290   1.829
   36SOL     OW  120   1.466   1.417   0.953
   36SOL    HW1  121   1.407   1.423   1.033
   36SOL    HW2  122   1.451   1.329   0.907
   37SOL     OW  123   1.667   1.714   0.572
   37SOL    HW1  124   1.626   1.691   0.484
   37SOL    HW2  125   1.649   1.640   0.637
   38SOL     OW  126   0.598   0.729   0.270
   38SOL    HW1  127   0.622   0.798   0.202
   38SOL    HW2  128   0.520   0.762   0.324
   39SOL     OW  129   1.281   0.345   0.944
   39SOL    HW1  130   1.195   0.295   0.931
   39SOL    HW2  131   1.343   0.291   1.000
   40SOL     OW  132   1.576   1.662   0.307
   40SOL    HW1  133   1.665   1.708   0.310
   40SOL    HW2  134   1.555   1.638   0.212
   41SOL     OW  135   0.807   0.605   1.465
   41SOL    HW1  136   0.760   0.602   1.554
   41SOL    HW2  137   0.756   0.550   1.399
   42SOL     OW  138   1.394   0.469   1.674
   42SOL    HW1  139   1.374   0.512   1.762
   42SOL    HW2  140   1.472   0.407   1.683
   43SOL     OW  141   0.973   0.890   1.572
   43SOL    HW1  142   1.019   0.806   1.543
   43SOL    HW2  143   0.917   0.924   1.497
   44SOL     OW  144   0.991   0.410   1.242
   44SOL    HW1  145   0.914   0.444   1.296
   44SOL    HW2  146   0.957   0.359   1.163
   45SOL     OW  147   1.041   0.701   0.429
   45SOL    HW1  148   1.067   0.697   0.525
   45SOL    HW2  149   0.956   0.650   0.415
   46SOL     OW  150   0.076   0.811   0.789
   46SOL    HW1  151   0.175   0.799   0.798
   46SOL    HW2  152   0.052   0.906   0.810
   47SOL     OW  153   0.130   1.821   1.571
   47SOL    HW1  154   0.120   1.806   1.670
   47SOL    HW2  155   0.044   1.857   1.535
   48SOL     OW  156   0.865   0.348   0.195
   48SOL    HW1  157   0.924   0.411   0.146
   48SOL    HW2  158   0.884   0.254   0.166
   49SOL     OW  159   1.719   0.585   1.831
   49SOL    HW1  160   1.693   0.674   1.795
   49SOL    HW2  161   1.717   0.517   1.758
   50SOL     OW  162   1.362   1.144   0.545
   50SOL    HW1  163   1.445   1.115   0.497
   50SOL    HW2  164   1.313   1.211   0.489
   51SOL     OW  165   0.550   0.196   0.885
   51SOL    HW1  166   0.545   0.191   0.985
   51SOL    HW2  167   0.552   0.292   0.856
   52SOL     OW  168   1.008   1.456   0.477
   52SOL    HW1  169   0.962   1.528   0.425
   52SOL    HW2  170   1.004   1.476   0.575
   53SOL     OW  171   0.351   1.801   0.853
   53SOL    HW1  172   0.401   1.715   0.859
   53SOL    HW2  173   0.416   1.878   0.850
   54SOL     OW  174   1.795   1.066   0.873
   54SOL    HW1  175   1.733   1.051   0.797
   54SOL    HW2  176   1.743   1.077   0.958
   55SOL     OW  177   0.321   0.943   0.242
   55SOL    HW1  178   0.403   0.982   0.200
   55SOL    HW2  179   0.294   0.861   0.193
   56SOL     OW  180   1.458   0.735   0.728
   56SOL    HW1  181   1.453   0.670   0.803
   56SOL    HW2  182   1.538   0.794   0.741
   57SOL     OW  183   0.461   1.266   1.727
   57SOL    HW1  184   0.411   1.267   1.641
   57SOL    HW2  185   0.398   1.248   1.803
   58SOL     OW  186   1.111   1.776   0.237
   58SOL    HW1  187   1.051   1.714   0.287
   58SOL    HW2  188   1.142   1.732   0.152
   59SOL     OW  189   0.202   0.285   1.498
   59SOL    HW1  190   0.122   0.345   1.485
   59SOL    HW2  191   0.192   0.236   1.584
   60SOL     OW  192   1.632   1.377   0.081
   60SOL    HW1  193   1.600   1.471   0.071
   60SOL    HW2  194   1.556   1.314   0.069
   61SOL     OW  195   0.464   1.743   0.323
   61SOL    HW1  196   0.497   1.782   0.409
   61SOL    HW2  197   0.540   1.736   0.258
   62SOL     OW  198   1.400   0.107   0.426
   62SOL    HW1  199   1.376   0.070   0.336
   62SOL    HW2  200   1.499   0.123   0.430
   63SOL     OW  201   0.249   1.785   1.241
   63SOL    HW1  202   0.306   1.720   1.291
   63SOL    HW2  203   0.233   1.752   1.148
   64SOL     OW  204   0.940   1.698   0.904
   64SOL    HW1  205   1.020   1.641   0.925
   64SOL    HW2  206   0.891   1.658   0.827
   65SOL     OW  207   0.382   0.700   0.480
   65SOL    HW1  208   0.427   0.610   0.477
   65SOL    HW2  209   0.288   0.689   0.513
   66SOL     OW  210   1.547   0.222   1.729
   66SOL    HW1  211   1.542   0.259   1.821
   66SOL    HW2  212   1.475   0.153   1.717
   67SOL     OW  213   0.614   0.122   0.117
   67SOL    HW1  214   0.712   0.100   0.124
   67SOL    HW2  215   0.583   0.105   0.024
   68SOL     OW  216   0.781   0.264   1.749
   68SOL    HW1  217   0.848   0.203   1.792
   68SOL    HW2  218   0.708   0.283   1.814
   69SOL     OW  219   0.888   1.514   1.195
   69SOL    HW1  220   0.865   1.489   1.101
   69SOL    HW2  221   0.949   1.445   1.234
   70SOL     OW  222   1.351   0.590   1.433
   70SOL    HW1  223   1.379   0.547   1.518
   70SOL    HW2  224   1.376   0.686   1.434
   71SOL     OW  225   0.803   1.402   0.924
   71SOL    HW1  226   0.893   1.416   0.882
   71SOL    HW2  227   0.732   1.404   0.853
   72SOL     OW  228   0.922   0.503   0.899
   72SOL    HW1  229   0.897   0.494   0.803
   72SOL    HW2  230   0.970   0.421   0.930
   73SOL     OW  231   0.539   0.064   0.512
   73SOL    HW1  232   0.458   0.065   0.570
   73SOL    HW2  233   0.542   0.147   0.457
   74SOL     OW  234   1.434   1.188   0.041
   74SOL    HW1  235   1.466   1.112   0.098
   74SOL    HW2  236   1.342   1.215   0.071
   75SOL     OW  237   0.297   0.035   0.171
   75SOL    HW1  238   0.346   0.119   0.150
   75SOL    HW2  239   0.359  -0.030   0.216
   76SOL     OW  240   0.935   0.236   0.480
   76SOL    HW1  241   0.887   0.277   0.402
   76SOL    HW2  242   1.034   0.234   0.461
   77SOL     OW  243   1.076   0.683   1.464
   77SOL    HW1  244   0.996   0.622   1.467
   77SOL    HW2  245   1.157   0.630   1.440
   78SOL     OW  246   1.227   1.570   0.793
   78SOL    HW1  247   1.248   1.644   0.728
   78SOL    HW2  248   1.295   1.570   0.866
   79SOL     OW  249   0.459   1.152   0.741
   79SOL    HW1  250   0.388   1.125   0.806
   79SOL    HW2  251   0.433   1.124   0.648
   80SOL     OW  252   1.271   1.797   0.591
   80SOL    HW1  253   1.315   1.861   0.527
   80SOL    HW2  254   1.221   1.849   0.661
   81SOL     OW  255   1.032   0.549   0.016
   81SOL    HW1  256   0.991   0.631  -0.023
   81SOL    HW2  257   1.096   0.575   0.089
   82SOL     OW  258   0.078   0.556   1.386
   82SOL    HW1  259   0.170   0.555   1.345
   82SOL    HW2  260   0.072   0.630   1.453
   83SOL     OW  261   0.561   0.222   1.147
   83SOL    HW1  262   0.599   0.138   1.184
   83SOL    HW2  263   0.473   0.241   1.191
   84SOL     OW  264   0.866   0.454   0.642
   84SOL    HW1  265   0.834   0.526   0.580
   84SOL    HW2  266   0.890   0.373   0.589
   85SOL     OW  267   1.017   0.039   0.753
   85SOL    HW1  268   0.945   0.044   0.684
   85SOL    HW2  269   0.993  -0.030   0.822
   86SOL     OW  270   1.429   1.173   0.867
   86SOL    HW1  271   1.374   1.089   0.860
   86SOL    HW2  272   1.455   1.202   0.775
   87SOL     OW  273   1.466   0.590   0.992
   87SOL    HW1  274   1.436   0.495   0.999
   87SOL    HW2  275   1.539   0.606   1.058
   88SOL     OW  276   1.857   0.833   0.377
   88SOL    HW1  277   1.899   0.769   0.441
   88SOL    HW2  278   1.819   0.782   0.299
   89SOL     OW  279   0.488   1.385   0.174
   89SOL    HW1  280   0.401   1.370   0.221
   89SOL    HW2  281   0.471   1.411   0.079
   90SOL     OW  282   1.664   1.280   0.657
   90SOL    HW1  283   1.763   1.288   0.671
   90SOL    HW2  284   1.619   1.364   0.688
   91SOL     OW  285   1.390   0.575   0.078
   91SOL    HW1  286   1.336   0.554   0.159
   91SOL    HW2  287   1.481   0.534   0.087
   92SOL     OW  288   0.527   0.256   0.328
   92SOL    HW1  289   0.554   0.197   0.253
   92SOL    HW2  290   0.527   0.351   0.297
   93SOL     OW  291   1.754   1.223   1.588
   93SOL    HW1  292   1.845   1.184   1.575
   93SOL    HW2  293   1.762   1.319   1.612
   94SOL     OW  294   1.592   1.629   1.625
   94SOL    HW1  295   1.619   1.663   1.535
   94SOL    HW2  296   1.671   1.591   1.671
   95SOL     OW  297   1.638   1.099   1.079
   95SOL    HW1  298   1.643   1.180   1.138
   95SOL    HW2  299   1.552   1.101   1.028
   96SOL     OW  300   0.915   0.089   1.402
   96SOL    HW1  301   0.940   0.069   1.307
   96SOL    HW2  302   0.987   0.145   1.444
   97SOL     OW  303   0.980   1.116   1.719
   97SOL    HW1  304   0.881   1.122   1.729
   97SOL    HW2  305   1.003   1.036   1.663
   98SOL     OW  306   0.705   1.050   0.368
   98SOL    HW1  307   0.691   1.057   0.467
   98SOL    HW2  308   0.789   0.999   0.350
   99SOL     OW  309   0.410   0.813   1.251
   99SOL    HW1  310   0.496   0.825   1.301
   99SOL    HW2  311   0.368   0.726   1.278
  100SOL     OW  312   1.274   0.386   1.262
  100SOL    HW1  313   1.295   0.460   1.326
  100SOL    HW2  314   1.185   0.403   1.219
  101SOL     OW  315   0.064   1.564   1.331
  101SOL    HW1  316   0.018   1.646   1.297
  101SOL    HW2  317   0.162   1.583   1.340
  102SOL     OW  318   0.367   1.100   0.501
  102SOL    HW1  319   0.360   1.183   0.445
  102SOL    HW2  320   0.371   1.020   0.441
  103SOL     OW  321   0.566   0.537   0.865
  103SOL    HW1  322   0.578   0.603   0.791
  103SOL    HW2  323   0.612   0.571   0.948
  104SOL     OW  324   1.252   1.348   0.388
  104SOL    HW1  325   1.302   1.425   0.428
  104SOL    HW2  326   1.157   1.350   0.420
  105SOL     OW  327   1.582   0.639   0.472
  105SOL    HW1  328   1.551   0.700   0.545
  105SOL    HW2  329   1.632   0.691   0.403
  106SOL     OW  330   0.354   1.510   1.329
  106SOL    HW1  331   0.333   1.466   1.242
  106SOL    HW2  332   0.451   1.536   1.332
  107SOL     OW  333   0.402   0.751   1.598
  107SOL    HW1  334   0.470   0.806   1.551
  107SOL    HW2  335   0.442   0.663   1.625
  108SOL     OW  336   1.587   0.779   1.670
  108SOL    HW1  337   1.495   0.817   1.665
  108SOL    HW2  338   1.647   0.826   1.605
  109SOL     OW  339   1.013   0.105   1.770
  109SOL    HW1  340   1.019   0.190   1.718
  109SOL    HW2  341   1.045   0.029   1.713
  110SOL     OW  342   0.504   0.050   1.740
  110SOL    HW1  343   0.462  -0.007   1.670
  110SOL    HW2  344   0.438   0.119   1.772
  111SOL     OW  345   0.573   0.870   1.029
  111SOL    HW1  346   0.617   0.959   1.020
  111SOL    HW2  347   0.510   0.870   1.106
  112SOL     OW  348   1.360   0.862   1.045
  112SOL    HW1  349   1.285   0.862   0.979
  112SOL    HW2  350   1.397   0.770   1.054
  113SOL     OW  351   1.209   0.525   0.275
  113SOL    HW1  352   1.222   0.441   0.329
  113SOL    HW2  353   1.180   0.599   0.335
  114SOL     OW  354   0.307   0.213   1.231
  114SOL    HW1  355   0.284   0.250   1.321
  114SOL    HW2  356   0.277   0.118   1.225
  115SOL     OW  357   0.037   1.310   1.282
  115SOL    HW1  358   0.090   1.261   1.350
  115SOL    HW2  359   0.059   1.408   1.287
  116SOL     OW  360   0.732   0.634   1.064
  116SOL    HW1  361   0.791   0.608   0.988
  116SOL    HW2  362   0.704   0.730   1.053
  117SOL     OW  363   1.728   0.935   1.854
  117SOL    HW1  364   1.682   0.928   1.765
  117SOL    HW2  365   1.666   0.979   1.920
  118SOL     OW  366   0.307   0.063   0.618
  118SOL    HW1  367   0.296   0.157   0.651
  118SOL    HW2  368   0.302   0.000   0.695
  119SOL     OW  369   1.622   0.367   0.374
  119SOL    HW1  370   1.624   0.291   0.438
  119SOL    HW2  371   1.574   0.444   0.414
  120SOL     OW  372   1.023   0.766   0.966
  120SOL    HW1  373   1.038   0.787   1.062
  120SOL    HW2  374   0.993   0.671   0.957
  121SOL     OW  375   0.980   1.573   1.700
  121SOL    HW1  376   0.960   1.617   1.612
  121SOL    HW2  377   1.019   1.482   1.684
  122SOL     OW  378   1.859   1.518   1.605
  122SOL    HW1  379   1.873   1.545   1.510
  122SOL    HW2  380   1.942   1.540   1.658
  123SOL     OW  381   0.350   0.898   1.804
  123SOL    HW1  382   0.426   0.942   1.852
  123SOL    HW2  383   0.385   0.851   1.722
  124SOL     OW  384   1.540   0.274   0.125
  124SOL    HW1  385   1.479   0.199   0.148
  124SOL    HW2  386   1.562   0.326   0.208
  125SOL     OW  387   1.303   0.838   0.042
  125SOL    HW1  388   1.337   0.745   0.057
  125SOL    HW2  389   1.321   0.865  -0.053
  126SOL     OW  390   1.068   1.333   0.849
  126SOL    HW1  391   1.075   1.249   0.794
  126SOL    HW2  392   1.130   1.402   0.813
  127SOL     OW  393   0.319   0.810   0.949
  127SOL    HW1  394   0.412   0.846   0.954
  127SOL    HW2  395   0.313   0.725   1.001
  128SOL     OW  396   0.339   0.509   1.006
  128SOL    HW1  397   0.287   0.426   0.989
  128SOL    HW2  398   0.416   0.514   0.942
  129SOL     OW  399   1.138   0.380   1.678
  129SOL    HW1  400   1.093   0.443   1.742
  129SOL    HW2  401   1.231   0.411   1.661
  130SOL     OW  402   1.160   0.207   1.477
  130SOL    HW1  403   1.160   0.271   1.554
  130SOL    HW2  404   1.188   0.255   1.394
  131SOL     OW  405   0.008   1.326   0.200
  131SOL    HW1  406  -0.085   1.347   0.169
  131SOL    HW2  407   0.018   1.227   0.213
  132SOL     OW  408   0.088   1.801   0.927
  132SOL    HW1  409   0.046   1.715   0.900
  132SOL    HW2  410   0.182   1.804   0.893
  133SOL     OW  411   0.504   1.568   0.910
  133SOL    HW1  412   0.570   1.642   0.919
  133SOL    HW2  413   0.548   1.489   0.868
  134SOL     OW  414   1.002   0.796   1.238
  134SOL    HW1  415   1.043   0.764   1.324
  134SOL    HW2  416   0.906   0.769   1.235
  135SOL     OW  417   0.040   0.544   1.114
  135SOL    HW1  418   0.125   0.511   1.073
  135SOL    HW2  419   0.053   0.559   1.212
  136SOL     OW  420   0.189   0.520   1.722
  136SOL    HW1  421   0.248   0.480   1.652
  136SOL    HW2  422   0.131   0.591   1.681
  137SOL     OW  423   1.369   0.950   1.660
  137SOL    HW1  424   1.408   1.039   1.680
  137SOL    HW2  425   1.379   0.930   1.563
  138SOL     OW  426   0.815   0.572   0.325
  138SOL    HW1  427   0.822   0.483   0.279
  138SOL    HW2  428   0.721   0.606   0.317
  139SOL     OW  429   1.657   0.604   1.206
  139SOL    HW1  430   1.619   0.535   1.268
  139SOL    HW2  431   1.739   0.568   1.162
  140SOL     OW  432   0.252   1.564   1.744
  140SOL    HW1  433   0.222   1.621   1.820
  140SOL    HW2  434   0.245   1.467   1.770
  141SOL     OW  435   0.671   0.464   1.269
  141SOL    HW1  436   0.637   0.375   1.239
  141SOL    HW2  437   0.697   0.518   1.189
  142SOL     OW  438   0.930   1.678   1.465
  142SOL    HW1  439   0.906   1.660   1.370
  142SOL    HW2  440   0.960   1.772   1.475
  143SOL     OW  441   0.473   0.500   0.191
  143SOL    HW1  442   0.534   0.580   0.195
  143SOL    HW2  443   0.378   0.531   0.198
  144SOL     OW  444   0.159   1.137   1.466
  144SOL    HW1  445   0.181   1.076   1.542
  144SOL    HW2  446   0.169   1.088   1.380
  145SOL     OW  447   1.302   0.855   0.309
  145SOL    HW1  448   1.216   0.824   0.351
  145SOL    HW2  449   1.298   0.841   0.210
  146SOL     OW  450   1.759   1.747   1.154
  146SOL    HW1  451   1.820   1.777   1.081
  146SOL    HW2  452   1.721   1.658   1.132
  147SOL     OW  453   1.252   1.731   1.128
  147SOL    HW1  454   1.336   1.736   1.074
  147SOL    HW2  455   1.229   1.635   1.146
  148SOL     OW  456   0.083   1.258   1.022
  148SOL    HW1  457   0.078   1.257   1.122
  148SOL    HW2  458   0.000   1.217   0.984
  149SOL     OW  459   0.688   1.662   1.716
  149SOL    HW1  460   0.632   1.743   1.725
  149SOL    HW2  461   0.740   1.666   1.630
  150SOL     OW  462   0.903   0.086   0.133
  150SOL    HW1  463   0.954   0.087   0.047
  150SOL    HW2  464   0.959   0.044   0.204
  151SOL     OW  465   1.726   0.135   0.523
  151SOL    HW1  466   1.799   0.118   0.456
  151SOL    HW2  467   1.695   0.048   0.561
  152SOL     OW  468   1.388   1.573   0.477
  152SOL    HW1  469   1.455   1.585   0.403
  152SOL    HW2  470   1.348   1.662   0.500
  153SOL     OW  471   0.130   1.794   1.851
  153SOL    HW1  472   0.089   1.720   1.904
  153SOL    HW2  473   0.194   1.845   1.909
  154SOL     OW  474   1.280   0.927   0.672
  154SOL    HW1  475   1.340   0.846   0.674
  154SOL    HW2  476   1.320   0.996   0.612
  155SOL     OW  477   0.830   1.273   1.422
  155SOL    HW1  478   0.825   1.306   1.517
  155SOL    HW2  479   0.744   1.292   1.376
  156SOL     OW  480   0.672   1.616   0.154
  156SOL    HW1  481   0.681   1.626   0.055
  156SOL    HW2  482   0.632   1.527   0.175
  157SOL     OW  483   1.650   1.720   1.394
  157SOL    HW1  484   1.703   1.730   1.310
  157SOL    HW2  485   1.623   1.810   1.428
  158SOL     OW  486   1.841   0.175   0.963
  158SOL    HW1  487   1.880   0.090   0.927
  158SOL    HW2  488   1.743   0.177   0.944
  159SOL     OW  489   0.263   0.326   0.720
  159SOL    HW1  490   0.184   0.377   0.686
  159SOL    HW2  491   0.254   0.311   0.818
  160SOL     OW  492   1.194   1.612   0.031
  160SOL    HW1  493   1.200   1.519   0.068
  160SOL    HW2  494   1.135   1.612  -0.049
  161SOL     OW  495   0.822   1.002   1.372
  161SOL    HW1  496   0.862   1.001   1.280
  161SOL    HW2  497   0.832   1.094   1.412
  162SOL     OW  498   0.916   0.910   0.291
  162SOL    HW1  499   0.979   0.948   0.223
  162SOL    HW2  500   0.956   0.827   0.330
  163SOL     OW  501   1.504   1.607   0.044
  163SOL    HW1  502   1.412   1.644   0.051
  163SOL    HW2  503   1.542   1.627  -0.046
  164SOL     OW  504   0.372   1.288   1.490
  164SOL    HW1  505   0.359   1.381   1.456
  164SOL    HW2  506   0.288   1.236   1.477
  165SOL     OW  507   1.614   1.292   1.289
  165SOL    HW1  508   1.674   1.295   1.369
  165SOL    HW2  509   1.539   1.356   1.302
  166SOL     OW  510   1.039   1.098   0.696
  166SOL    HW1  511   0.969   1.051   0.750
  166SOL    HW2  512   1.098   1.030   0.653
  167SOL     OW  513   1.014   0.236   0.971
  167SOL    HW1  514   1.006   0.200   0.878
  167SOL    HW2  515   1.012   0.160   1.036
  168SOL     OW  516   0.590   1.487   0.491
  168SOL    HW1  517   0.632   1.429   0.421
  168SOL    HW2  518   0.546   1.566   0.447
  169SOL     OW  519   1.709   0.385   1.381
  169SOL    HW1  520   1.782   0.454   1.385
  169SOL    HW2  521   1.737   0.310   1.322
  170SOL     OW  522   0.255   1.348   0.290
  170SOL    HW1  523   0.159   1.349   0.263
  170SOL    HW2  524   0.267   1.401   0.374
  171SOL     OW  525   0.105   1.013   1.726
  171SOL    HW1  526   0.028   0.980   1.780
  171SOL    HW2  527   0.190   0.983   1.768
  172SOL     OW  528   0.672   0.203   1.489
  172SOL    HW1  529   0.762   0.187   1.449
  172SOL    HW2  530   0.680   0.208   1.588
  173SOL     OW  531   0.075   0.345   0.033
  173SOL    HW1  532  -0.017   0.317   0.004
  173SOL    HW2  533   0.106   0.422  -0.023
  174SOL     OW  534   1.440   0.856   1.398
  174SOL    HW1  535   1.383   0.908   1.335
  174SOL    HW2  536   1.536   0.868   1.374
  175SOL     OW  537   0.072   0.166   0.318
  175SOL    HW1  538   0.055   0.249   0.264
  175SOL    HW2  539   0.162   0.129   0.296
  176SOL     OW  540   1.183   1.335   0.119
  176SOL    HW1  541   1.084   1.324   0.121
  176SOL    HW2  542   1.217   1.350   0.212
  177SOL     OW  543   0.613   0.842   1.431
  177SOL    HW1  544   0.669   0.923   1.414
  177SOL    HW2  545   0.672   0.762   1.434
  178SOL     OW  546   1.493   1.767   0.959
  178SOL    HW1  547   1.526   1.831   0.890
  178SOL    HW2  548   1.559   1.761   1.034
  179SOL     OW  549   0.716   0.565   1.708
  179SOL    HW1  550   0.735   0.630   1.782
  179SOL    HW2  551   0.776   0.485   1.717
  180SOL     OW  552   1.450   1.220   1.633
  180SOL    HW1  553   1.441   1.210   1.732
  180SOL    HW2  554   1.546   1.213   1.607
  181SOL     OW  555   0.390   1.741   1.560
  181SOL    HW1  556   0.299   1.782   1.558
  181SOL    HW2  557   0.383   1.647   1.592
  182SOL     OW  558   1.674   0.883   1.254
  182SOL    HW1  559   1.647   0.794   1.217
  182SOL    HW2  560   1.675   0.951   1.181
  183SOL     OW  561   1.225   0.325   0.449
  183SOL    HW1  562   1.290   0.251   0.438
  183SOL    HW2  563   1.245   0.375   0.533
  184SOL     OW  564   0.594   0.745   0.652
  184SOL    HW1  565   0.644   0.830   0.633
  184SOL    HW2  566   0.506   0.747   0.604
  185SOL     OW  567   1.777   0.342   1.642
  185SOL    HW1  568   1.760   0.373   1.548
  185SOL    HW2  569   1.693   0.305   1.680
  186SOL     OW  570   1.730   0.934   1.517
  186SOL    HW1  571   1.768   1.025   1.532
  186SOL    HW2  572   1.722   0.917   1.418
  187SOL     OW  573   0.859   1.374   0.016
  187SOL    HW1  574   0.813   1.389   0.104
  187SOL    HW2  575   0.903   1.459  -0.014
  188SOL     OW  576   0.661   1.790   0.953
  188SOL    HW1  577   0.615   1.878   0.940
  188SOL    HW2  578   0.760   1.802   0.946
  189SOL     OW  579   0.859   0.956   0.861
  189SOL    HW1  580   0.913   0.887   0.909
  189SOL    HW2  581   0.827   1.025   0.927
  190SOL     OW  582   1.083   0.984   0.087
  190SOL    HW1  583   1.060   1.037   0.005
  190SOL    HW2  584   1.164   0.928   0.068
  191SOL     OW  585   1.861   1.569   0.851
  191SOL    HW1  586   1.790   1.557   0.781
  191SOL    HW2  587   1.862   1.490   0.911
  192SOL     OW  588   0.221   1.314   1.844
  192SOL    HW1  589   0.156   1.241   1.823
  192SOL    HW2  590   0.225   1.328   1.942
  193SOL     OW  591   0.079   1.240   0.653
  193SOL    HW1  592   0.078   1.193   0.741
  193SOL    HW2  593   0.161   1.212   0.602
  194SOL     OW  594   0.672   1.391   1.624
  194SOL    HW1  595   0.594   1.341   1.662
  194SOL    HW2  596   0.669   1.486   1.655
  195SOL     OW  597   1.824   0.192   1.227
  195SOL    HW1  598   1.820   0.102   1.271
  195SOL    HW2  599   1.827   0.181   1.128
  196SOL     OW  600   0.428   0.424   0.520
  196SOL    HW1  601   0.458   0.352   0.458
  196SOL    HW2  602   0.389   0.384   0.603
  197SOL     OW  603   1.705   1.487   1.104
  197SOL    HW1  604   1.612   1.462   1.077
  197SOL    HW2  605   1.731   1.437   1.186
  198SOL     OW  606   0.317   0.547   1.280
  198SOL    HW1  607   0.355   0.488   1.352
  198SOL    HW2  608   0.357   0.521   1.192
  199SOL     OW  609   0.812   1.586   0.687
  199SOL    HW1  610   0.844   1.596   0.593
  199SOL    HW2  611   0.733   1.524   0.689
  200SOL     OW  612   1.424   0.214   1.112
  200SOL    HW1  613   1.476   0.149   1.167
  200SOL    HW2  614   1.375   0.277   1.173
  201SOL     OW  615   1.001   0.034   1.154
  201SOL    HW1  616   0.938  -0.038   1.123
  201SOL    HW2  617   1.094  -0.002   1.154
  202SOL     OW  618   0.770   1.330   0.301
  202SOL    HW1  619   0.724   1.243   0.318
  202SOL    HW2  620   0.861   1.327   0.342
  203SOL     OW  621   0.618   1.567   1.284
  203SOL    HW1  622   0.613   1.649   1.341
  203SOL    HW2  623   0.707   1.564   1.239
  204SOL     OW  624   1.352   0.052   0.168
  204SOL    HW1  625   1.387   0.011   0.084
  204SOL    HW2  626   1.262   0.014   0.188
  205SOL     OW  627   1.300   0.453   0.691
  205SOL    HW1  628   1.241   0.533   0.695
  205SOL    HW2  629   1.315   0.418   0.784
  206SOL     OW  630   1.593   0.221   0.882
  206SOL    HW1  631   1.509   0.220   0.936
  206SOL    HW2  632   1.595   0.304   0.826
  207SOL     OW  633   0.039   1.077   0.300
  207SOL    HW1  634   0.138   1.066   0.291
  207SOL    HW2  635  -0.001   0.991   0.332
  208SOL     OW  636   0.875   1.646   0.337
  208SOL    HW1  637   0.798   1.611   0.283
  208SOL    HW2  638   0.843   1.717   0.399
  209SOL     OW  639   0.230   0.628   1.975
  209SOL    HW1  640   0.137   0.626   2.012
  209SOL    HW2  641   0.231   0.589   1.883
  210SOL     OW  642   1.755   0.607   2.093
  210SOL    HW1  643   1.743   0.594   1.994
  210SOL    HW2  644   1.725   0.526   2.142
  211SOL     OW  645   0.231   1.713   2.345
  211SOL    HW1  646   0.265   1.790   2.399
  211SOL    HW2  647   0.275   1.713   2.255
  212SOL     OW  648   0.230   1.434   2.400
  212SOL    HW1  649   0.204   1.530   2.400
  212SOL    HW2  650   0.159   1.380   2.445
  213SOL     OW  651   0.606   0.964   1.985
  213SOL    HW1  652   0.613   1.048   1.931
  213SOL    HW2  653   0.652   0.977   2.073
  214SOL     OW  654   1.842   1.767   2.221
  214SOL    HW1  655   1.896   1.738   2.301
  214SOL    HW2  656   1.872   1.857   2.192
  215SOL     OW  657   0.027   1.596   1.979
  215SOL    HW1  658   0.008   1.500   2.000
  215SOL    HW2  659  -0.006   1.654   2.054
  216SOL     OW  660   1.689   0.922   2.474
  216SOL    HW1  661   1.784   0.893   2.482
  216SOL    HW2  662   1.681   0.987   2.399
  217SOL     OW  663   1.641   1.108   2.294
  217SOL    HW1  664   1.727   1.110   2.242
  217SOL    HW2  665   1.655   1.155   2.382
  218SOL     OW  666   0.809   0.004   2.364
  218SOL    HW1  667   0.849   0.095   2.355
  218SOL    HW2  668   0.709   0.012   2.370
  219SOL     OW  669   1.525   0.999   2.052
  219SOL    HW1  670   1.462   0.923   2.065
  219SOL    HW2  671   1.573   1.017   2.138
  220SOL     OW  672   0.598   0.729   2.132
  220SOL    HW1  673   0.622   0.798   2.064
  220SOL    HW2  674   0.520   0.762   2.186
  221SOL     OW  675   1.576   1.662   2.169
  221SOL    HW1  676   1.665   1.708   2.172
  221SOL    HW2  677   1.555   1.638   2.074
  222SOL     OW  678   0.865   0.348   2.057
  222SOL    HW1  679   0.924   0.411   2.008
  222SOL    HW2  680   0.884   0.254   2.028
  223SOL     OW  681   0.321   0.943   2.104
  223SOL    HW1  682   0.403   0.982   2.062
  223SOL    HW2  683   0.294   0.861   2.055
  224SOL     OW  684   1.111   1.776   2.099
  224SOL    HW1  685   1.051   1.714   2.149
  224SOL    HW2  686   1.142   1.732   2.014
  225SOL     OW  687   1.632   1.377   1.943
  225SOL    HW1  688   1.600   1.471   1.933
  225SOL    HW2  689   1.556   1.314   1.931
  226SOL     OW  690   0.464   1.743   2.185
  226SOL    HW1  691   0.497   1.782   2.271
  226SOL    HW2  692   0.540   1.736   2.120
  227SOL     OW  693   1.400   0.107   2.288
  227SOL    HW1  694   1.376   0.070   2.198
  227SOL    HW2  695   1.499   0.123   2.292
  228SOL     OW  696   0.382   0.700   2.342
  228SOL    HW1  697   0.427   0.610   2.339
  228SOL    HW2  698   0.288   0.689   2.375
  229SOL     OW  699   0.614   0.122   1.979
  229SOL    HW1  700   0.712   0.100   1.986
  229SOL    HW2  701   0.583   0.105   1.886
  230SOL     OW  702   1.434   1.188   1.903
  230SOL    HW1  703   1.466   1.112   1.960
  230SOL    HW2  704   1.342   1.215   1.933
  231SOL     OW  705   0.297   0.035   2.033
  231SOL    HW1  706   0.346   0.119   2.012
  231SOL    HW2  707   0.359  -0.030   2.078
  232SOL     OW  708   0.935   0.236   2.342
  232SOL    HW1  709   0.887   0.277   2.264
  232SOL    HW2  710   1.034   0.234   2.323
  233SOL     OW  711   0.459   1.152   2.603
  233SOL    HW1  712   0.388   1.125   2.668
  233SOL    HW2  713   0.433   1.124   2.510
  234SOL     OW  714   1.271   1.797   2.453
  234SOL    HW1  715   1.315   1.861   2.389
  234SOL    HW2  716   1.221   1.849   2.523
  235SOL     OW  717   1.032   0.549   1.878
  235SOL    HW1  718   0.991   0.631   1.839
  235SOL    HW2  719   1.096   0.575   1.951
  236SOL     OW  720   1.857   0.833   2.239
  236SOL    HW1  721   1.899   0.769   2.303
  236SOL    HW2  722   1.819   0.782   2.161
  237SOL     OW  723   0.488   1.385   2.036
  237SOL    HW1  724   0.401   1.370   2.083
  237SOL    HW2  725   0.471   1.411   1.941
  238SOL     OW  726   1.390   0.575   1.940
  238SOL    HW1  727   1.336   0.554   2.021
  238SOL    HW2  728   1.481   0.534   1.949
  239SOL     OW  729   0.527   0.256   2.190
  239SOL    HW1  730   0.554   0.197   2.115
  239SOL    HW2  731   0.527   0.351   2.159
  240SOL     OW  732   0.705   1.050   2.230
  240SOL    HW1  733   0.691   1.057   2.329
  240SOL    HW2  734   0.789   0.999   2.212
  241SOL     OW  735   0.367   1.100   2.363
  241SOL    HW1  736   0.360   1.183   2.307
  241SOL    HW2  737   0.371   1.020   2.303
  242SOL     OW  738   1.252   1.348   2.250
  242SOL    HW1  739   1.302   1.425   2.290
  242SOL    HW2  740   1.157   1.350   2.282
  243SOL     OW  741   1.582   0.639   2.334
  243SOL    HW1  742   1.551   0.700   2.407
  243SOL    HW2  743   1.632   0.691   2.265
  244SOL     OW  744   1.209   0.525   2.137
  244SOL    HW1  745   1.222   0.441   2.191
  244SOL    HW2  746   1.180   0.599   2.197
  245SOL     OW  747   1.622   0.367   2.236
  245SOL    HW1  748   1.624   0.291   2.300
  245SOL    HW2  749   1.574   0.444   2.276
  246SOL     OW  750   1.540   0.274   1.987
  246SOL    HW1  751   1.479   0.199   2.010
  246SOL    HW2  752   1.562   0.326   2.070
  247SOL     OW  753   1.303   0.838   1.904
  247SOL    HW1  754   1.337   0.745   1.919
  247SOL    HW2  755   1.321   0.865   1.809
  248SOL     OW  756   0.008   1.326   2.062
  248SOL    HW1  757  -0.085   1.347   2.031
  248SOL    HW2  758   0.018   1.227   2.075
  249SOL     OW  759   0.815   0.572   2.187
  249SOL    HW1  760   0.822   0.483   2.141
  249SOL    HW2  761   0.721   0.606   2.179
  250SOL     OW  762   0.473   0.500   2.053
  250SOL    HW1  763   0.534   0.580   2.057
  250SOL    HW2  764   0.378   0.531   2.060
  251SOL     OW  765   1.302   0.855   2.171
  251SOL    HW1  766   1.216   0.824   2.213
  251SOL    HW2  767   1.298   0.841   2.072
  252SOL     OW  768   1.726   0.135   2.385
  252SOL    HW1  769   1.799   0.118   2.318
  252SOL    HW2  770   1.695   0.048   2.423
  253SOL     OW  771   1.388   1.573   2.339
  253SOL    HW1  772   1.455   1.585   2.265
  253SOL    HW2  773   1.348   1.662   2.362
  254SOL     OW  774   0.672   1.616   2.016
  254SOL    HW1  775   0.681   1.626   1.917
  254SOL    HW2  776   0.632   1.527   2.037
  255SOL     OW  777   1.194   1.612   1.893
  255SOL    HW1  778   1.200   1.519   1.930
  255SOL    HW2  779   1.135   1.612   1.813
  256SOL     OW  780   0.916   0.910   2.153
  256SOL    HW1  781   0.979   0.948   2.085
  256SOL    HW2  782   0.956   0.827   2.192
  257SOL     OW  783   1.504   1.607   1.906
  257SOL    HW1  784   1.412   1.644   1.913
  257SOL    HW2  785   1.542   1.627   1.816
  258SOL     OW  786   0.590   1.487   2.353
  258SOL    HW1  787   0.632   1.429   2.283
  258SOL    HW2  788   0.546   1.566   2.309
  259SOL     OW  789   0.255   1.348   2.152
  259SOL    HW1  790   0.159   1.349   2.125
  259SOL    HW2  791   0.267   1.401   2.236
  260SOL     OW  792   0.075   0.345   1.895
  260SOL    HW1  793  -0.017   0.317   1.866
  260SOL    HW2  794   0.106   0.422   1.839
  261SOL     OW  795   0.072   0.166   2.180
  261SOL    HW1  796   0.055   0.249   2.126
  261SOL    HW2  797   0.162   0.129   2.158
  262SOL     OW  798   1.183   1.335   1.981
  262SOL    HW1  799   1.084   1.324   1.983
  262SOL    HW2  800   1.217   1.350   2.074
  263SOL     OW  801   1.225   0.325   2.311
  263SOL    HW1  802   1.290   0.251   2.300
  263SOL    HW2  803   1.245   0.375   2.395
  264SOL     OW  804   0.594   0.745   2.514
  264SOL    HW1  805   0.644   0.830   2.495
  264SOL    HW2  806   0.506   0.747   2.466
  265SOL     OW  807   0.859   1.374   1.878
  265SOL    HW1  808   0.813   1.389   1.966
  265SOL    HW2  809   0.903   1.459   1.848
  266SOL     OW  810   1.083   0.984   1.949
  266SOL    HW1  811   1.060   1.037   1.867
  266SOL    HW2  812   1.164   0.928   1.930
  267SOL     OW  813   0.428   0.424   2.382
  267SOL    HW1  814   0.458   0.352   2.320
  267SOL    HW2  815   0.389   0.384   2.465
  268SOL     OW  816   0.770   1.330   2.163
  268SOL    HW1  817   0.724   1.243   2.180
  268SOL    HW2  818   0.861   1.327   2.204
  269SOL     OW  819   1.352   0.052   2.030
  269SOL    HW1  820   1.387   0.011   1.946
  269SOL    HW2  821   1.262   0.014   2.050
  270SOL     OW  822   0.039   1.077   2.162
  270SOL    HW1  823   0.138   1.066   2.153
  270SOL    HW2  824  -0.001   0.991   2.194
  271SOL     OW  825   0.875   1.646   2.199
  271SOL    HW1  826   0.798   1.611   2.145
  271SOL    HW2  827   0.843   1.717   2.261
  272SOL     OW  828   0.225   2.137   0.996
  272SOL    HW1  829   0.260   2.120   1.088
  272SOL    HW2  830   0.137   2.092   0.984
  273SOL     OW  831   0.019   2.230   0.647
  273SOL    HW1  832  -0.063   2.273   0.686
  273SOL    HW2  833  -0.009   2.157   0.584
  274SOL     OW  834   1.755   2.469   0.231
  274SOL    HW1  835   1.743   2.456   0.132
  274SOL    HW2  836   1.725   2.388   0.280
  275SOL     OW  837   0.438   2.254   1.499
  275SOL    HW1  838   0.520   2.198   1.508
  275SOL    HW2  839   0.357   2.196   1.503
  276SOL     OW  840   1.603   2.309   0.737
  276SOL    HW1  841   1.529   2.355   0.687
  276SOL    HW2  842   1.654   2.377   0.790
  277SOL     OW  843   1.594   1.976   1.480
  277SOL    HW1  844   1.576   2.043   1.408
  277SOL    HW2  845   1.591   2.022   1.569
  278SOL     OW  846   0.122   2.505   0.563
  278SOL    HW1  847   0.077   2.417   0.580
  278SOL    HW2  848   0.121   2.559   0.647
  279SOL     OW  849   0.809   1.866   0.502
  279SOL    HW1  850   0.849   1.957   0.493
  279SOL    HW2  851   0.709   1.874   0.508
  280SOL     OW  852   0.317   2.113   1.801
  280SOL    HW1  853   0.388   2.184   1.807
  280SOL    HW2  854   0.229   2.152   1.829
  281SOL     OW  855   1.281   2.207   0.944
  281SOL    HW1  856   1.195   2.157   0.931
  281SOL    HW2  857   1.343   2.153   1.000
  282SOL     OW  858   1.394   2.331   1.674
  282SOL    HW1  859   1.374   2.374   1.762
  282SOL    HW2  860   1.472   2.269   1.683
  283SOL     OW  861   0.991   2.272   1.242
  283SOL    HW1  862   0.914   2.306   1.296
  283SOL    HW2  863   0.957   2.221   1.163
  284SOL     OW  864   1.041   2.563   0.429
  284SOL    HW1  865   1.067   2.559   0.525
  284SOL    HW2  866   0.956   2.512   0.415
  285SOL     OW  867   0.076   2.673   0.789
  285SOL    HW1  868   0.175   2.661   0.798
  285SOL    HW2  869   0.052   2.768   0.810
  286SOL     OW  870   0.865   2.210   0.195
  286SOL    HW1  871   0.924   2.273   0.146
  286SOL    HW2  872   0.884   2.116   0.166
  287SOL     OW  873   1.719   2.447   1.831
  287SOL    HW1  874   1.693   2.536   1.795
  287SOL    HW2  875   1.717   2.379   1.758
  288SOL     OW  876   0.550   2.058   0.885
  288SOL    HW1  877   0.545   2.053   0.985
  288SOL    HW2  878   0.552   2.154   0.856
  289SOL     OW  879   1.458   2.597   0.728
  289SOL    HW1  880   1.453   2.532   0.803
  289SOL    HW2  881   1.538   2.656   0.741
  290SOL     OW  882   0.202   2.147   1.498
  290SOL    HW1  883   0.122   2.207   1.485
  290SOL    HW2  884   0.192   2.098   1.584
  291SOL     OW  885   1.400   1.969   0.426
  291SOL    HW1  886   1.376   1.932   0.336
  291SOL    HW2  887   1.499   1.985   0.430
  292SOL     OW  888   1.547   2.084   1.729
  292SOL    HW1  889   1.542   2.121   1.821
  292SOL    HW2  890   1.475   2.015   1.717
  293SOL     OW  891   0.614   1.984   0.117
  293SOL    HW1  892   0.712   1.962   0.124
  293SOL    HW2  893   0.583   1.967   0.024
  294SOL     OW  894   0.781   2.126   1.749
  294SOL    HW1  895   0.848   2.065   1.792
  294SOL    HW2  896   0.708   2.145   1.814
  295SOL     OW  897   1.351   2.452   1.433
  295SOL    HW1  898   1.379   2.409   1.518
  295SOL    HW2  899   1.376   2.548   1.434
  296SOL     OW  900   0.539   1.926   0.512
  296SOL    HW1  901   0.458   1.927   0.570
  296SOL    HW2  902   0.542   2.009   0.457
  297SOL     OW  903   0.297   1.897   0.171
  297SOL    HW1  904   0.346   1.981   0.150
  297SOL    HW2  905   0.359   1.832   0.216
  298SOL     OW  906   0.935   2.098   0.480
  298SOL    HW1  907   0.887   2.139   0.402
  298SOL    HW2  908   1.034   2.096   0.461
  299SOL     OW  909   0.078   2.418   1.386
  299SOL    HW1  910   0.170   2.417   1.345
  299SOL    HW2  911   0.072   2.492   1.453
  300SOL     OW  912   0.561   2.084   1.147
  300SOL    HW1  913   0.599   2.000   1.184
  300SOL    HW2  914   0.473   2.103   1.191
  301SOL     OW  915   1.017   1.901   0.753
  301SOL    HW1  916   0.945   1.906   0.684
  301SOL    HW2  917   0.993   1.832   0.822
  302SOL     OW  918   1.466   2.452   0.992
  302SOL    HW1  919   1.436   2.357   0.999
  302SOL    HW2  920   1.539   2.468   1.058
  303SOL     OW  921   0.527   2.118   0.328
  303SOL    HW1  922   0.554   2.059   0.253
  303SOL    HW2  923   0.527   2.213   0.297
  304SOL     OW  924   0.915   1.951   1.402
  304SOL    HW1  925   0.940   1.931   1.307
  304SOL    HW2  926   0.987   2.007   1.444
  305SOL     OW  927   1.274   2.248   1.262
  305SOL    HW1  928   1.295   2.322   1.326
  305SOL    HW2  929   1.185   2.265   1.219
  306SOL     OW  930   0.566   2.399   0.865
  306SOL    HW1  931   0.578   2.465   0.791
  306SOL    HW2  932   0.612   2.433   0.948
  307SOL     OW  933   1.013   1.967   1.770
  307SOL    HW1  934   1.019   2.052   1.718
  307SOL    HW2  935   1.045   1.891   1.713
  308SOL     OW  936   0.504   1.912   1.740
  308SOL    HW1  937   0.462   1.855   1.670
  308SOL    HW2  938   0.438   1.981   1.772
  309SOL     OW  939   1.209   2.387   0.275
  309SOL    HW1  940   1.222   2.303   0.329
  309SOL    HW2  941   1.180   2.461   0.335
  310SOL     OW  942   0.307   2.075   1.231
  310SOL    HW1  943   0.284   2.112   1.321
  310SOL    HW2  944   0.277   1.980   1.225
  311SOL     OW  945   0.732   2.496   1.064
  311SOL    HW1  946   0.791   2.470   0.988
  311SOL    HW2  947   0.704   2.592   1.053
  312SOL     OW  948   0.307   1.925   0.618
  312SOL    HW1  949   0.296   2.019   0.651
  312SOL    HW2  950   0.302   1.862   0.695
  313SOL     OW  951   1.622   2.229   0.374
  313SOL    HW1  952   1.624   2.153   0.438
  313SOL    HW2  953   1.574   2.306   0.414
  314SOL     OW  954   1.540   2.136   0.125
  314SOL    HW1  955   1.479   2.061   0.148
  314SOL    HW2  956   1.562   2.188   0.208
  315SOL     OW  957   0.339   2.371   1.006
  315SOL    HW1  958   0.287   2.288   0.989
  315SOL    HW2  959   0.416   2.376   0.942
  316SOL     OW  960   1.138   2.242   1.678
  316SOL    HW1  961   1.093   2.305   1.742
  316SOL    HW2  962   1.231   2.273   1.661
  317SOL     OW  963   1.160   2.069   1.477
  317SOL    HW1  964   1.160   2.133   1.554
  317SOL    HW2  965   1.188   2.117   1.394
  318SOL     OW  966   0.040   2.406   1.114
  318SOL    HW1  967   0.125   2.373   1.073
  318SOL    HW2  968   0.053   2.421   1.212
  319SOL     OW  969   0.189   2.382   1.722
  319SOL    HW1  970   0.248   2.342   1.652
  319SOL    HW2  971   0.131   2.453   1.681
  320SOL     OW  972   0.815   2.434   0.325
  320SOL    HW1  973   0.822   2.345   0.279
  320SOL    HW2  974   0.721   2.468   0.317
  321SOL     OW  975   1.657   2.466   1.206
  321SOL    HW1  976   1.619   2.397   1.268
  321SOL    HW2  977   1.739   2.430   1.162
  322SOL     OW  978   0.671   2.326   1.269
  322SOL    HW1  979   0.637   2.237   1.239
  322SOL    HW2  980   0.697   2.380   1.189
  323SOL     OW  981   0.903   1.948   0.133
  323SOL    HW1  982   0.954   1.949   0.047
  323SOL    HW2  983   0.959   1.906   0.204
  324SOL     OW  984   1.726   1.997   0.523
  324SOL    HW1  985   1.799   1.980   0.456
  324SOL    HW2  986   1.695   1.910   0.561
  325SOL     OW  987   1.841   2.037   0.963
  325SOL    HW1  988   1.880   1.952   0.927
  325SOL    HW2  989   1.743   2.039   0.944
  326SOL     OW  990   0.263   2.188   0.720
  326SOL    HW1  991   0.184   2.239   0.686
  326SOL    HW2  992   0.254   2.173   0.818
  327SOL     OW  993   1.014   2.098   0.971
  327SOL    HW1  994   1.006   2.062   0.878
  327SOL    HW2  995   1.012   2.022   1.036
  328SOL     OW  996   1.709   2.247   1.381
  328SOL    HW1  997   1.782   2.316   1.385
  328SOL    HW2  998   1.737   2.172   1.322
  329SOL     OW  999   0.672   2.065   1.489
  329SOL    HW1 1000   0.762   2.049   1.449
  329SOL    HW2 1001   0.680   2.070   1.588
  330SOL     OW 1002   0.075   2.207   0.033
  330SOL    HW1 1003  -0.017   2.179   0.004
  330SOL    HW2 1004   0.106   2.284  -0.023
  331SOL     OW 1005   0.072   2.028   0.318
  331SOL    HW1 1006   0.055   2.111   0.264
  331SOL    HW2 1007   0.162   1.991   0.296
  332SOL     OW 1008   0.716   2.427   1.708
  332SOL    HW1 1009   0.735   2.492   1.782
  332SOL    HW2 1010   0.776   2.347   1.717
  333SOL     OW 1011   1.225   2.187   0.449
  333SOL    HW1 1012   1.290   2.113   0.438
  333SOL    HW2 1013   1.245   2.237   0.533
  334SOL     OW 1014   1.777   2.204   1.642
  334SOL    HW1 1015   1.760   2.235   1.548
  334SOL    HW2 1016   1.693   2.167   1.680
  335SOL     OW 1017   1.824   2.054   1.227
  335SOL    HW1 1018   1.820   1.964   1.271
  335SOL    HW2 1019   1.827   2.043   1.128
  336SOL     OW 1020   0.428   2.286   0.520
  336SOL    HW1 1021   0.458   2.214   0.458
  336SOL    HW2 1022   0.389   2.246   0.603
  337SOL     OW 1023   0.317   2.409   1.280
  337SOL    HW1 1024   0.355   2.350   1.352
  337SOL    HW2 1025   0.357   2.383   1.192
  338SOL     OW 1026   1.424   2.076   1.112
  338SOL    HW1 1027   1.476   2.011   1.167
  338SOL    HW2 1028   1.375   2.139   1.173
  339SOL     OW 1029   1.001   1.896   1.154
  339SOL    HW1 1030   0.938   1.824   1.123
  339SOL    HW2 1031   1.094   1.860   1.154
  340SOL     OW 1032   1.352   1.914   0.168
  340SOL    HW1 1033   1.387   1.873   0.084
  340SOL    HW2 1034   1.262   1.876   0.188
  341SOL     OW 1035   1.300   2.315   0.691
  341SOL    HW1 1036   1.241   2.395   0.695
  341SOL    HW2 1037   1.315   2.280   0.784
  342SOL     OW 1038   1.593   2.083   0.882
  342SOL    HW1 1039   1.509   2.082   0.936
  342SOL    HW2 1040   1.595   2.166   0.826
  343SOL     OW 1041   1.755   2.469   2.093
  343SOL    HW1 1042   1.743   2.456   1.994
  343SOL    HW2 1043   1.725   2.388   2.142
  344SOL     OW 1044   0.122   2.505   2.425
  344SOL    HW1 1045   0.077   2.417   2.442
  344SOL    HW2 1046   0.121   2.559   2.509
  345SOL     OW 1047   0.809   1.866   2.364
  345SOL    HW1 1048   0.849   1.957   2.355
  345SOL    HW2 1049   0.709   1.874   2.370
  346SOL     OW 1050   1.041   2.563   2.291
  346SOL    HW1 1051   1.067   2.559   2.387
  346SOL    HW2 1052   0.956   2.512   2.277
  347SOL     OW 1053   0.865   2.210   2.057
  347SOL    HW1 1054   0.924   2.273   2.008
  347SOL    HW2 1055   0.884   2.116   2.028
  348SOL     OW 1056   1.400   1.969   2.288
  348SOL    HW1 1057   1.376   1.932   2.198
  348SOL    HW2 1058   1.499   1.985   2.292
  349SOL     OW 1059   0.382   2.562   2.342
  349SOL    HW1 1060   0.427   2.472   2.339
  349SOL    HW2 1061   0.288   2.551   2.375
  350SOL     OW 1062   0.614   1.984   1.979
  350SOL    HW1 1063   0.712   1.962   1.986
  350SOL    HW2 1064   0.583   1.967   1.886
  351SOL     OW 1065   0.297   1.897   2.033
  351SOL    HW1 1066   0.346   1.981   2.012
  351SOL    HW2 1067   0.359   1.832   2.078
  352SOL     OW 1068   0.935   2.098   2.342
  352SOL    HW1 1069   0.887   2.139   2.264
  352SOL    HW2 1070   1.034   2.096   2.323
  353SOL     OW 1071   0.527   2.118   2.190
  353SOL    HW1 1072   0.554   2.059   2.115
  353SOL    HW2 1073   0.527   2.213   2.159
  354SOL     OW 1074   1.209   2.387   2.137
  354SOL    HW1 1075   1.222   2.303   2.191
  354SOL    HW2 1076   1.180   2.461   2.197
  355SOL     OW 1077   1.622   2.229   2.236
  355SOL    HW1 1078   1.624   2.153   2.300
  355SOL    HW2 1079   1.574   2.306   2.276
  356SOL     OW 1080   1.540   2.136   1.987
  356SOL    HW1 1081   1.479   2.061   2.010
  356SOL    HW2 1082   1.562   2.188   2.070
  357SOL     OW 1083   0.815   2.434   2.187
  357SOL    HW1 1084   0.822   2.345   2.141
  357SOL    HW2 1085   0.721   2.468   2.179
  358SOL     OW 1086   1.726   1.997   2.385
  358SOL    HW1 1087   1.799   1.980   2.318
  358SOL    HW2 1088   1.695   1.910   2.423
  359SOL     OW 1089   0.075   2.207   1.895
  359SOL    HW1 1090  -0.017   2.179   1.866
  359SOL    HW2 1091   0.106   2.284   1.839
  360SOL     OW 1092   0.072   2.028   2.180
  360SOL    HW1 1093   0.055   2.111   2.126
  360SOL    HW2 1094   0.162   1.991   2.158
  361SOL     OW 1095   1.225   2.187   2.311
  361SOL    HW1 1096   1.290   2.113   2.300
  361SOL    HW2 1097   1.245   2.237   2.395
  362SOL     OW 1098   0.428   2.286   2.382
  362SOL    HW1 1099   0.458   2.214   2.320
  362SOL    HW2 1100   0.389   2.246   2.465
  363SOL     OW 1101   1.352   1.914   2.030
  363SOL    HW1 1102   1.387   1.873   1.946
  363SOL    HW2 1103   1.262   1.876   2.050
  364SOL     OW 1104   1.300   2.315   2.553
  364SOL    HW1 1105   1.241   2.395   2.557
  364SOL    HW2 1106   1.315   2.280   2.646
  365SOL     OW 1107   2.092   0.628   0.113
  365SOL    HW1 1108   1.999   0.626   0.150
  365SOL    HW2 1109   2.093   0.589   0.021
  366SOL     OW 1110   2.087   0.275   0.996
  366SOL    HW1 1111   2.122   0.258   1.088
  366SOL    HW2 1112   1.999   0.230   0.984
  367SOL     OW 1113   1.881   0.368   0.647
  367SOL    HW1 1114   1.799   0.411   0.686
  367SOL    HW2 1115   1.853   0.295   0.584
  368SOL     OW 1116   2.547   1.012   0.665
  368SOL    HW1 1117   2.616   0.996   0.735
  368SOL    HW2 1118   2.474   1.069   0.703
  369SOL     OW 1119   2.197   1.435   1.061
  369SOL    HW1 1120   2.119   1.404   1.008
  369SOL    HW2 1121   2.255   1.493   1.004
  370SOL     OW 1122   2.300   0.392   1.499
  370SOL    HW1 1123   2.382   0.336   1.508
  370SOL    HW2 1124   2.219   0.334   1.503
  371SOL     OW 1125   2.093   1.713   0.483
  371SOL    HW1 1126   2.127   1.790   0.537
  371SOL    HW2 1127   2.137   1.713   0.393
  372SOL     OW 1128   2.092   1.434   0.538
  372SOL    HW1 1129   2.066   1.530   0.538
  372SOL    HW2 1130   2.021   1.380   0.583
  373SOL     OW 1131   2.102   1.091   0.886
  373SOL    HW1 1132   2.116   1.007   0.938
  373SOL    HW2 1133   2.047   1.155   0.941
  374SOL     OW 1134   1.984   0.643   0.563
  374SOL    HW1 1135   1.939   0.555   0.580
  374SOL    HW2 1136   1.983   0.697   0.647
  375SOL     OW 1137   1.889   1.596   0.117
  375SOL    HW1 1138   1.870   1.500   0.138
  375SOL    HW2 1139   1.856   1.654   0.192
  376SOL     OW 1140   1.975   0.737   1.597
  376SOL    HW1 1141   2.063   0.724   1.642
  376SOL    HW2 1142   1.962   0.834   1.575
  377SOL     OW 1143   2.059   0.976   1.264
  377SOL    HW1 1144   2.148   0.931   1.250
  377SOL    HW2 1145   1.986   0.911   1.245
  378SOL     OW 1146   2.179   0.251   1.801
  378SOL    HW1 1147   2.250   0.322   1.807
  378SOL    HW2 1148   2.091   0.290   1.829
  379SOL     OW 1149   2.460   0.729   0.270
  379SOL    HW1 1150   2.484   0.798   0.202
  379SOL    HW2 1151   2.382   0.762   0.324
  380SOL     OW 1152   1.938   0.811   0.789
  380SOL    HW1 1153   2.037   0.799   0.798
  380SOL    HW2 1154   1.914   0.906   0.810
  381SOL     OW 1155   1.992   1.821   1.571
  381SOL    HW1 1156   1.982   1.806   1.670
  381SOL    HW2 1157   1.906   1.857   1.535
  382SOL     OW 1158   2.727   0.348   0.195
  382SOL    HW1 1159   2.786   0.411   0.146
  382SOL    HW2 1160   2.746   0.254   0.166
  383SOL     OW 1161   2.412   0.196   0.885
  383SOL    HW1 1162   2.407   0.191   0.985
  383SOL    HW2 1163   2.414   0.292   0.856
  384SOL     OW 1164   2.213   1.801   0.853
  384SOL    HW1 1165   2.263   1.715   0.859
  384SOL    HW2 1166   2.278   1.878   0.850
  385SOL     OW 1167   2.183   0.943   0.242
  385SOL    HW1 1168   2.265   0.982   0.200
  385SOL    HW2 1169   2.156   0.861   0.193
  386SOL     OW 1170   2.323   1.266   1.727
  386SOL    HW1 1171   2.273   1.267   1.641
  386SOL    HW2 1172   2.260   1.248   1.803
  387SOL     OW 1173   2.064   0.285   1.498
  387SOL    HW1 1174   1.984   0.345   1.485
  387SOL    HW2 1175   2.054   0.236   1.584
  388SOL     OW 1176   2.111   1.785   1.241
  388SOL    HW1 1177   2.168   1.720   1.291
  388SOL    HW2 1178   2.095   1.752   1.148
  389SOL     OW 1179   2.244   0.700   0.480
  389SOL    HW1 1180   2.289   0.610   0.477
  389SOL    HW2 1181   2.150   0.689   0.513
  390SOL     OW 1182   2.401   0.064   0.512
  390SOL    HW1 1183   2.320   0.065   0.570
  390SOL    HW2 1184   2.404   0.147   0.457
  391SOL     OW 1185   2.159   0.035   0.171
  391SOL    HW1 1186   2.208   0.119   0.150
  391SOL    HW2 1187   2.221  -0.030   0.216
  392SOL     OW 1188   2.321   1.152   0.741
  392SOL    HW1 1189   2.250   1.125   0.806
  392SOL    HW2 1190   2.295   1.124   0.648
  393SOL     OW 1191   1.940   0.556   1.386
  393SOL    HW1 1192   2.032   0.555   1.345
  393SOL    HW2 1193   1.934   0.630   1.453
  394SOL     OW 1194   2.423   0.222   1.147
  394SOL    HW1 1195   2.461   0.138   1.184
  394SOL    HW2 1196   2.335   0.241   1.191
  395SOL     OW 1197   2.389   0.256   0.328
  395SOL    HW1 1198   2.416   0.197   0.253
  395SOL    HW2 1199   2.389   0.351   0.297
  396SOL     OW 1200   2.842   1.116   1.719
  396SOL    HW1 1201   2.743   1.122   1.729
  396SOL    HW2 1202   2.865   1.036   1.663
  397SOL     OW 1203   2.272   0.813   1.251
  397SOL    HW1 1204   2.358   0.825   1.301
  397SOL    HW2 1205   2.230   0.726   1.278
  398SOL     OW 1206   1.926   1.564   1.331
  398SOL    HW1 1207   1.880   1.646   1.297
  398SOL    HW2 1208   2.024   1.583   1.340
  399SOL     OW 1209   2.229   1.100   0.501
  399SOL    HW1 1210   2.222   1.183   0.445
  399SOL    HW2 1211   2.233   1.020   0.441
  400SOL     OW 1212   2.428   0.537   0.865
  400SOL    HW1 1213   2.440   0.603   0.791
  400SOL    HW2 1214   2.474   0.571   0.948
  401SOL     OW 1215   2.216   1.510   1.329
  401SOL    HW1 1216   2.195   1.466   1.242
  401SOL    HW2 1217   2.313   1.536   1.332
  402SOL     OW 1218   2.264   0.751   1.598
  402SOL    HW1 1219   2.332   0.806   1.551
  402SOL    HW2 1220   2.304   0.663   1.625
  403SOL     OW 1221   2.366   0.050   1.740
  403SOL    HW1 1222   2.324  -0.007   1.670
  403SOL    HW2 1223   2.300   0.119   1.772
  404SOL     OW 1224   2.435   0.870   1.029
  404SOL    HW1 1225   2.479   0.959   1.020
  404SOL    HW2 1226   2.372   0.870   1.106
  405SOL     OW 1227   2.169   0.213   1.231
  405SOL    HW1 1228   2.146   0.250   1.321
  405SOL    HW2 1229   2.139   0.118   1.225
  406SOL     OW 1230   1.899   1.310   1.282
  406SOL    HW1 1231   1.952   1.261   1.350
  406SOL    HW2 1232   1.921   1.408   1.287
  407SOL     OW 1233   2.169   0.063   0.618
  407SOL    HW1 1234   2.158   0.157   0.651
  407SOL    HW2 1235   2.164   0.000   0.695
  408SOL     OW 1236   2.212   0.898   1.804
  408SOL    HW1 1237   2.288   0.942   1.852
  408SOL    HW2 1238   2.247   0.851   1.722
  409SOL     OW 1239   2.181   0.810   0.949
  409SOL    HW1 1240   2.274   0.846   0.954
  409SOL    HW2 1241   2.175   0.725   1.001
  410SOL     OW 1242   2.201   0.509   1.006
  410SOL    HW1 1243   2.149   0.426   0.989
  410SOL    HW2 1244   2.278   0.514   0.942
  411SOL     OW 1245   1.870   1.326   0.200
  411SOL    HW1 1246   1.777   1.347   0.169
  411SOL    HW2 1247   1.880   1.227   0.213
  412SOL     OW 1248   1.950   1.801   0.927
  412SOL    HW1 1249   1.908   1.715   0.900
  412SOL    HW2 1250   2.044   1.804   0.893
  413SOL     OW 1251   1.902   0.544   1.114
  413SOL    HW1 1252   1.987   0.511   1.073
  413SOL    HW2 1253   1.915   0.559   1.212
  414SOL     OW 1254   2.051   0.520   1.722
  414SOL    HW1 1255   2.110   0.480   1.652
  414SOL    HW2 1256   1.993   0.591   1.681
  415SOL     OW 1257   2.677   0.572   0.325
  415SOL    HW1 1258   2.684   0.483   0.279
  415SOL    HW2 1259   2.583   0.606   0.317
  416SOL     OW 1260   2.114   1.564   1.744
  416SOL    HW1 1261   2.084   1.621   1.820
  416SOL    HW2 1262   2.107   1.467   1.770
  417SOL     OW 1263   2.335   0.500   0.191
  417SOL    HW1 1264   2.396   0.580   0.195
  417SOL    HW2 1265   2.240   0.531   0.198
  418SOL     OW 1266   2.021   1.137   1.466
  418SOL    HW1 1267   2.043   1.076   1.542
  418SOL    HW2 1268   2.031   1.088   1.380
  419SOL     OW 1269   1.945   1.258   1.022
  419SOL    HW1 1270   1.940   1.257   1.122
  419SOL    HW2 1271   1.862   1.217   0.984
  420SOL     OW 1272   2.550   1.662   1.716
  420SOL    HW1 1273   2.494   1.743   1.725
  420SOL    HW2 1274   2.602   1.666   1.630
  421SOL     OW 1275   1.992   1.794   1.851
  421SOL    HW1 1276   1.951   1.720   1.904
  421SOL    HW2 1277   2.056   1.845   1.909
  422SOL     OW 1278   2.125   0.326   0.720
  422SOL    HW1 1279   2.046   0.377   0.686
  422SOL    HW2 1280   2.116   0.311   0.818
  423SOL     OW 1281   2.234   1.288   1.490
  423SOL    HW1 1282   2.221   1.381   1.456
  423SOL    HW2 1283   2.150   1.236   1.477
  424SOL     OW 1284   2.452   1.487   0.491
  424SOL    HW1 1285   2.494   1.429   0.421
  424SOL    HW2 1286   2.408   1.566   0.447
  425SOL     OW 1287   2.117   1.348   0.290
  425SOL    HW1 1288   2.021   1.349   0.263
  425SOL    HW2 1289   2.129   1.401   0.374
  426SOL     OW 1290   1.967   1.013   1.726
  426SOL    HW1 1291   1.890   0.980   1.780
  426SOL    HW2 1292   2.052   0.983   1.768
  427SOL     OW 1293   1.937   0.345   0.033
  427SOL    HW1 1294   1.845   0.317   0.004
  427SOL    HW2 1295   1.968   0.422  -0.023
  428SOL     OW 1296   1.934   0.166   0.318
  428SOL    HW1 1297   1.917   0.249   0.264
  428SOL    HW2 1298   2.024   0.129   0.296
  429SOL     OW 1299   2.252   1.741   1.560
  429SOL    HW1 1300   2.161   1.782   1.558
  429SOL    HW2 1301   2.245   1.647   1.592
  430SOL     OW 1302   2.456   0.745   0.652
  430SOL    HW1 1303   2.506   0.830   0.633
  430SOL    HW2 1304   2.368   0.747   0.604
  431SOL     OW 1305   2.083   1.314   1.844
  431SOL    HW1 1306   2.018   1.241   1.823
  431SOL    HW2 1307   2.087   1.328   1.942
  432SOL     OW 1308   1.941   1.240   0.653
  432SOL    HW1 1309   1.940   1.193   0.741
  432SOL    HW2 1310   2.023   1.212   0.602
  433SOL     OW 1311   2.534   1.391   1.624
  433SOL    HW1 1312   2.456   1.341   1.662
  433SOL    HW2 1313   2.531   1.486   1.655
  434SOL     OW 1314   2.290   0.424   0.520
  434SOL    HW1 1315   2.320   0.352   0.458
  434SOL    HW2 1316   2.251   0.384   0.603
  435SOL     OW 1317   2.179   0.547   1.280
  435SOL    HW1 1318   2.217   0.488   1.352
  435SOL    HW2 1319   2.219   0.521   1.192
  436SOL     OW 1320   1.901   1.077   0.300
  436SOL    HW1 1321   2.000   1.066   0.291
  436SOL    HW2 1322   1.861   0.991   0.332
  437SOL     OW 1323   2.092   0.628   1.975
  437SOL    HW1 1324   1.999   0.626   2.012
  437SOL    HW2 1325   2.093   0.589   1.883
  438SOL     OW 1326   2.547   1.012   2.527
  438SOL    HW1 1327   2.616   0.996   2.597
  438SOL    HW2 1328   2.474   1.069   2.565
  439SOL     OW 1329   2.093   1.713   2.345
  439SOL    HW1 1330   2.127   1.790   2.399
  439SOL    HW2 1331   2.137   1.713   2.255
  440SOL     OW 1332   2.092   1.434   2.400
  440SOL    HW1 1333   2.066   1.530   2.400
  440SOL    HW2 1334   2.021   1.380   2.445
  441SOL     OW 1335   1.889   1.596   1.979
  441SOL    HW1 1336   1.870   1.500   2.000
  441SOL    HW2 1337   1.856   1.654   2.054
  442SOL     OW 1338   2.460   0.729   2.132
  442SOL    HW1 1339   2.484   0.798   2.064
  442SOL    HW2 1340   2.382   0.762   2.186
  443SOL     OW 1341   2.727   0.348   2.057
  443SOL    HW1 1342   2.786   0.411   2.008
  443SOL    HW2 1343   2.746   0.254   2.028
  444SOL     OW 1344   2.213   1.801   2.715
  444SOL    HW1 1345   2.263   1.715   2.721
  444SOL    HW2 1346   2.278   1.878   2.712
  445SOL     OW 1347   2.183   0.943   2.104
  445SOL    HW1 1348   2.265   0.982   2.062
  445SOL    HW2 1349   2.156   0.861   2.055
  446SOL     OW 1350   2.244   0.700   2.342
  446SOL    HW1 1351   2.289   0.610   2.339
  446SOL    HW2 1352   2.150   0.689   2.375
  447SOL     OW 1353   2.476   0.122   1.979
  447SOL    HW1 1354   2.574   0.100   1.986
  447SOL    HW2 1355   2.445   0.105   1.886
  448SOL     OW 1356   2.401   0.064   2.374
  448SOL    HW1 1357   2.320   0.065   2.432
  448SOL    HW2 1358   2.404   0.147   2.319
  449SOL     OW 1359   2.159   0.035   2.033
  449SOL    HW1 1360   2.208   0.119   2.012
  449SOL    HW2 1361   2.221  -0.030   2.078
  450SOL     OW 1362   2.321   1.152   2.603
  450SOL    HW1 1363   2.250   1.125   2.668
  450SOL    HW2 1364   2.295   1.124   2.510
  451SOL     OW 1365   2.389   0.256   2.190
  451SOL    HW1 1366   2.416   0.197   2.115
  451SOL    HW2 1367   2.389   0.351   2.159
  452SOL     OW 1368   2.229   1.100   2.363
  452SOL    HW1 1369   2.222   1.183   2.307
  452SOL    HW2 1370   2.233   1.020   2.303
  453SOL     OW 1371   1.870   1.326   2.062
  453SOL    HW1 1372   1.777   1.347   2.031
  453SOL    HW2 1373   1.880   1.227   2.075
  454SOL     OW 1374   2.677   0.572   2.187
  454SOL    HW1 1375   2.684   0.483   2.141
  454SOL    HW2 1376   2.583   0.606   2.179
  455SOL     OW 1377   2.335   0.500   2.053
  455SOL    HW1 1378   2.396   0.580   2.057
  455SOL    HW2 1379   2.240   0.531   2.060
  456SOL     OW 1380   2.452   1.487   2.353
  456SOL    HW1 1381   2.494   1.429   2.283
  456SOL    HW2 1382   2.408   1.566   2.309
  457SOL     OW 1383   2.117   1.348   2.152
  457SOL    HW1 1384   2.021   1.349   2.125
  457SOL    HW2 1385   2.129   1.401   2.236
  458SOL     OW 1386   1.937   0.345   1.895
  458SOL    HW1 1387   1.845   0.317   1.866
  458SOL    HW2 1388   1.968   0.422   1.839
  459SOL     OW 1389   1.934   0.166   2.180
  459SOL    HW1 1390   1.917   0.249   2.126
  459SOL    HW2 1391   2.024   0.129   2.158
  460SOL     OW 1392   2.456   0.745   2.514
  460SOL    HW1 1393   2.506   0.830   2.495
  460SOL    HW2 1394   2.368   0.747   2.466
  461SOL     OW 1395   2.290   0.424   2.382
  461SOL    HW1 1396   2.320   0.352   2.320
  461SOL    HW2 1397   2.251   0.384   2.465
  462SOL     OW 1398   1.901   1.077   2.162
  462SOL    HW1 1399   2.000   1.066   2.153
  462SOL    HW2 1400   1.861   0.991   2.194
  463SOL     OW 1401   2.087   2.137   0.996
  463SOL    HW1 1402   2.122   2.120   1.088
  463SOL    HW2 1403   1.999   2.092   0.984
  464SOL     OW 1404   1.881   2.230   0.647
  464SOL    HW1 1405   1.799   2.273   0.686
  464SOL    HW2 1406   1.853   2.157   0.584
  465SOL     OW 1407   2.300   2.254   1.499
  465SOL    HW1 1408   2.382   2.198   1.508
  465SOL    HW2 1409   2.219   2.196   1.503
  466SOL     OW 1410   1.984   2.505   0.563
  466SOL    HW1 1411   1.939   2.417   0.580
  466SOL    HW2 1412   1.983   2.559   0.647
  467SOL     OW 1413   2.179   2.113   1.801
  467SOL    HW1 1414   2.250   2.184   1.807
  467SOL    HW2 1415   2.091   2.152   1.829
  468SOL     OW 1416   1.938   2.673   0.789
  468SOL    HW1 1417   2.037   2.661   0.798
  468SOL    HW2 1418   1.914   2.768   0.810
  469SOL     OW 1419   2.727   2.210   0.195
  469SOL    HW1 1420   2.786   2.273   0.146
  469SOL    HW2 1421   2.746   2.116   0.166
  470SOL     OW 1422   2.412   2.058   0.885
  470SOL    HW1 1423   2.407   2.053   0.985
  470SOL    HW2 1424   2.414   2.154   0.856
  471SOL     OW 1425   2.064   2.147   1.498
  471SOL    HW1 1426   1.984   2.207   1.485
  471SOL    HW2 1427   2.054   2.098   1.584
  472SOL     OW 1428   2.476   1.984   0.117
  472SOL    HW1 1429   2.574   1.962   0.124
  472SOL    HW2 1430   2.445   1.967   0.024
  473SOL     OW 1431   2.401   1.926   0.512
  473SOL    HW1 1432   2.320   1.927   0.570
  473SOL    HW2 1433   2.404   2.009   0.457
  474SOL     OW 1434   1.940   2.418   1.386
  474SOL    HW1 1435   2.032   2.417   1.345
  474SOL    HW2 1436   1.934   2.492   1.453
  475SOL     OW 1437   2.423   2.084   1.147
  475SOL    HW1 1438   2.461   2.000   1.184
  475SOL    HW2 1439   2.335   2.103   1.191
  476SOL     OW 1440   2.389   2.118   0.328
  476SOL    HW1 1441   2.416   2.059   0.253
  476SOL    HW2 1442   2.389   2.213   0.297
  477SOL     OW 1443   2.428   2.399   0.865
  477SOL    HW1 1444   2.440   2.465   0.791
  477SOL    HW2 1445   2.474   2.433   0.948
  478SOL     OW 1446   2.366   1.912   1.740
  478SOL    HW1 1447   2.324   1.855   1.670
  478SOL    HW2 1448   2.300   1.981   1.772
  479SOL     OW 1449   2.169   2.075   1.231
  479SOL    HW1 1450   2.146   2.112   1.321
  479SOL    HW2 1451   2.139   1.980   1.225
  480SOL     OW 1452   2.169   1.925   0.618
  480SOL    HW1 1453   2.158   2.019   0.651
  480SOL    HW2 1454   2.164   1.862   0.695
  481SOL     OW 1455   2.201   2.371   1.006
  481SOL    HW1 1456   2.149   2.288   0.989
  481SOL    HW2 1457   2.278   2.376   0.942
  482SOL     OW 1458   1.902   2.406   1.114
  482SOL    HW1 1459   1.987   2.373   1.073
  482SOL    HW2 1460   1.915   2.421   1.212
  483SOL     OW 1461   2.051   2.382   1.722
  483SOL    HW1 1462   2.110   2.342   1.652
  483SOL    HW2 1463   1.993   2.453   1.681
  484SOL     OW 1464   2.677   2.434   0.325
  484SOL    HW1 1465   2.684   2.345   0.279
  484SOL    HW2 1466   2.583   2.468   0.317
  485SOL     OW 1467   2.125   2.188   0.720
  485SOL    HW1 1468   2.046   2.239   0.686
  485SOL    HW2 1469   2.116   2.173   0.818
  486SOL     OW 1470   1.937   2.207   0.033
  486SOL    HW1 1471   1.845   2.179   0.004
  486SOL    HW2 1472   1.968   2.284  -0.023
  487SOL     OW 1473   1.934   2.028   0.318
  487SOL    HW1 1474   1.917   2.111   0.264
  487SOL    HW2 1475   2.024   1.991   0.296
  488SOL     OW 1476   2.290   2.286   0.520
  488SOL    HW1 1477   2.320   2.214   0.458
  488SOL    HW2 1478   2.251   2.246   0.603
  489SOL     OW 1479   2.179   2.409   1.280
  489SOL    HW1 1480   2.217   2.350   1.352
  489SOL    HW2 1481   2.219   2.383   1.192
  490SOL     OW 1482   1.984   2.505   2.425
  490SOL    HW1 1483   1.939   2.417   2.442
  490SOL    HW2 1484   1.983   2.559   2.509
  491SOL     OW 1485   2.727   2.210   2.057
  491SOL    HW1 1486   2.786   2.273   2.008
  491SOL    HW2 1487   2.746   2.116   2.028
  492SOL     OW 1488   2.476   1.984   1.979
  492SOL    HW1 1489   2.574   1.962   1.986
  492SOL    HW2 1490   2.445   1.967   1.886
  493SOL     OW 1491   2.159   1.897   2.033
  493SOL    HW1 1492   2.208   1.981   2.012
  493SOL    HW2 1493   2.221   1.832   2.078
  494SOL     OW 1494   2.389   2.118   2.190
  494SOL    HW1 1495   2.416   2.059   2.115
  494SOL    HW2 1496   2.389   2.213   2.159
  495SOL     OW 1497   2.169   1.925   2.480
  495SOL    HW1 1498   2.158   2.019   2.513
  495SOL    HW2 1499   2.164   1.862   2.557
  496SOL     OW 1500   2.677   2.434   2.187
  496SOL    HW1 1501   2.684   2.345   2.141
  496SOL    HW2 1502   2.583   2.468   2.179
  497SOL     OW 1503   1.937   2.207   1.895
  497SOL    HW1 1504   1.845   2.179   1.866
  497SOL    HW2 1505   1.968   2.284   1.839
  498SOL     OW 1506   1.934   2.028   2.180
  498SOL    HW1 1507   1.917   2.111   2.126
  498SOL    HW2 1508   2.024   1.991   2.158
  499SOL     OW 1509   2.290   2.286   2.382
  499SOL    HW1 1510   2.320   2.214   2.320
  499SOL    HW2 1511   2.251   2.246   2.465
   2.49113   2.49113   2.49113
