; mobley_2410897_GMX.itp created by acpype (v: 2023.10.27) on Thu May 14 14:00:58 2026

[ atomtypes ]
;name   bond_type     mass     charge   ptype   sigma         epsilon       Amb
 c3       c3          0.00000  0.00000   A     3.39771e-01   4.51035e-01 ; 1.91  0.1078
 n8       n8          0.00000  0.00000   A     3.65019e-01   1.35143e-01 ; 2.05  0.0323
 hc       hc          0.00000  0.00000   A     2.60018e-01   8.70272e-02 ; 1.46  0.0208
 h1       h1          0.00000  0.00000   A     2.42200e-01   8.70272e-02 ; 1.36  0.0208
 hn       hn          0.00000  0.00000   A     1.10650e-01   4.18400e-02 ; 0.62  0.0100

[ moleculetype ]
;name            nrexcl
 mobley_2410897   3

[ atoms ]
;   nr  type  resi  res  atom  cgnr     charge      mass       ; qtot   bond_type
     1   c3     1   MOL    C1    1    -0.137100     12.01000 ; qtot -0.137
     2   c3     1   MOL    C2    2     0.148800     12.01000 ; qtot 0.012
     3   n8     1   MOL    N1    3    -0.908799     14.01000 ; qtot -0.897
     4   hc     1   MOL    H1    4     0.036033      1.00800 ; qtot -0.861
     5   hc     1   MOL    H2    5     0.036033      1.00800 ; qtot -0.825
     6   hc     1   MOL    H3    6     0.036033      1.00800 ; qtot -0.789
     7   h1     1   MOL    H4    7     0.050700      1.00800 ; qtot -0.738
     8   h1     1   MOL    H5    8     0.050700      1.00800 ; qtot -0.688
     9   hn     1   MOL    H6    9     0.343800      1.00800 ; qtot -0.344
    10   hn     1   MOL    H7   10     0.343800      1.00800 ; qtot -0.000

[ bonds ]
;   ai     aj funct   r             k
     1      2   1    1.5354e-01    1.9154e+05 ;     C1 - C2    
     1      4   1    1.0962e-01    2.8891e+05 ;     C1 - H1    
     1      5   1    1.0962e-01    2.8891e+05 ;     C1 - H2    
     1      6   1    1.0962e-01    2.8891e+05 ;     C1 - H3    
     2      3   1    1.4651e-01    2.1239e+05 ;     C2 - N1    
     2      7   1    1.0969e-01    2.8804e+05 ;     C2 - H4    
     2      8   1    1.0969e-01    2.8804e+05 ;     C2 - H5    
     3      9   1    1.0192e-01    3.8550e+05 ;     N1 - H6    
     3     10   1    1.0192e-01    3.8550e+05 ;     N1 - H7    

[ pairs ]
;   ai     aj    funct
     1      9      1 ;     C1 - H6    
     1     10      1 ;     C1 - H7    
     4      3      1 ;     H1 - N1    
     4      7      1 ;     H1 - H4    
     4      8      1 ;     H1 - H5    
     5      3      1 ;     H2 - N1    
     5      7      1 ;     H2 - H4    
     5      8      1 ;     H2 - H5    
     6      3      1 ;     H3 - N1    
     6      7      1 ;     H3 - H4    
     6      8      1 ;     H3 - H5    
     7      9      1 ;     H4 - H6    
     7     10      1 ;     H4 - H7    
     8      9      1 ;     H5 - H6    
     8     10      1 ;     H5 - H7    

[ angles ]
;   ai     aj     ak    funct   theta         cth
     1      2      3      1    1.1091e+02    5.4794e+02 ;     C1 - C2     - N1    
     1      2      7      1    1.0959e+02    3.6217e+02 ;     C1 - C2     - H4    
     1      2      8      1    1.0959e+02    3.6217e+02 ;     C1 - C2     - H5    
     2      1      4      1    1.0968e+02    3.6208e+02 ;     C2 - C1     - H1    
     2      1      5      1    1.0968e+02    3.6208e+02 ;     C2 - C1     - H2    
     2      1      6      1    1.0968e+02    3.6208e+02 ;     C2 - C1     - H3    
     2      3      9      1    1.0961e+02    4.7003e+02 ;     C2 - N1     - H6    
     2      3     10      1    1.0961e+02    4.7003e+02 ;     C2 - N1     - H7    
     3      2      7      1    1.0812e+02    4.0342e+02 ;     N1 - C2     - H4    
     3      2      8      1    1.0812e+02    4.0342e+02 ;     N1 - C2     - H5    
     4      1      5      1    1.0773e+02    2.9957e+02 ;     H1 - C1     - H2    
     4      1      6      1    1.0773e+02    2.9957e+02 ;     H1 - C1     - H3    
     5      1      6      1    1.0773e+02    2.9957e+02 ;     H2 - C1     - H3    
     7      2      8      1    1.0855e+02    2.9824e+02 ;     H4 - C2     - H5    
     9      3     10      1    1.0638e+02    4.0074e+02 ;     H6 - N1     - H7    

[ dihedrals ] ; propers
; for gromacs 4.5 or higher, using funct 9
;    i      j      k      l   func   phase     kd      pn
     1      2      3      9      9   180.00   0.12552   3 ;     C1-    C2-    N1-    H6
     1      2      3     10      9   180.00   0.12552   3 ;     C1-    C2-    N1-    H7
     4      1      2      3      9     0.00   0.20920   3 ;     H1-    C1-    C2-    N1
     4      1      2      7      9     0.00   0.65084   3 ;     H1-    C1-    C2-    H4
     4      1      2      8      9     0.00   0.65084   3 ;     H1-    C1-    C2-    H5
     5      1      2      3      9     0.00   0.20920   3 ;     H2-    C1-    C2-    N1
     5      1      2      7      9     0.00   0.65084   3 ;     H2-    C1-    C2-    H4
     5      1      2      8      9     0.00   0.65084   3 ;     H2-    C1-    C2-    H5
     6      1      2      3      9     0.00   0.20920   3 ;     H3-    C1-    C2-    N1
     6      1      2      7      9     0.00   0.65084   3 ;     H3-    C1-    C2-    H4
     6      1      2      8      9     0.00   0.65084   3 ;     H3-    C1-    C2-    H5
     7      2      3      9      9     0.00   1.25520   3 ;     H4-    C2-    N1-    H6
     7      2      3     10      9     0.00   1.25520   3 ;     H4-    C2-    N1-    H7
     8      2      3      9      9     0.00   1.25520   3 ;     H5-    C2-    N1-    H6
     8      2      3     10      9     0.00   1.25520   3 ;     H5-    C2-    N1-    H7
