; mobley_1858644_GMX.itp created by acpype (v: 2023.10.27) on Thu May 14 13:57:19 2026

[ atomtypes ]
;name   bond_type     mass     charge   ptype   sigma         epsilon       Amb
 ca       ca          0.00000  0.00000   A     3.31521e-01   4.13379e-01 ; 1.86  0.0988
 c3       c3          0.00000  0.00000   A     3.39771e-01   4.51035e-01 ; 1.91  0.1078
 oh       oh          0.00000  0.00000   A     3.24287e-01   3.89112e-01 ; 1.82  0.0930
 ha       ha          0.00000  0.00000   A     2.62548e-01   6.73624e-02 ; 1.47  0.0161
 hc       hc          0.00000  0.00000   A     2.60018e-01   8.70272e-02 ; 1.46  0.0208
 h1       h1          0.00000  0.00000   A     2.42200e-01   8.70272e-02 ; 1.36  0.0208
 ho       ho          0.00000  0.00000   A     5.37925e-02   1.96648e-02 ; 0.30  0.0047

[ moleculetype ]
;name            nrexcl
 mobley_1858644   3

[ atoms ]
;   nr  type  resi  res  atom  cgnr     charge      mass       ; qtot   bond_type
     1   ca     1   MOL    C1    1    -0.130000     12.01000 ; qtot -0.130
     2   ca     1   MOL    C2    2    -0.127500     12.01000 ; qtot -0.257
     3   ca     1   MOL    C3    3    -0.127500     12.01000 ; qtot -0.385
     4   ca     1   MOL    C4    4    -0.126500     12.01000 ; qtot -0.511
     5   ca     1   MOL    C5    5    -0.126500     12.01000 ; qtot -0.638
     6   ca     1   MOL    C6    6    -0.079300     12.01000 ; qtot -0.717
     7   c3     1   MOL    C7    7    -0.077100     12.01000 ; qtot -0.794
     8   c3     1   MOL    C8    8     0.130400     12.01000 ; qtot -0.664
     9   oh     1   MOL    O1    9    -0.597800     16.00000 ; qtot -1.262
    10   ha     1   MOL    H1   10     0.132000      1.00800 ; qtot -1.130
    11   ha     1   MOL    H2   11     0.131500      1.00800 ; qtot -0.998
    12   ha     1   MOL    H3   12     0.131500      1.00800 ; qtot -0.867
    13   ha     1   MOL    H4   13     0.131500      1.00800 ; qtot -0.735
    14   ha     1   MOL    H5   14     0.131500      1.00800 ; qtot -0.604
    15   hc     1   MOL    H6   15     0.054700      1.00800 ; qtot -0.549
    16   hc     1   MOL    H7   16     0.054700      1.00800 ; qtot -0.494
    17   h1     1   MOL    H8   17     0.049200      1.00800 ; qtot -0.445
    18   h1     1   MOL    H9   18     0.049200      1.00800 ; qtot -0.396
    19   ho     1   MOL   H10   19     0.396000      1.00800 ; qtot -0.000

[ bonds ]
;   ai     aj funct   r             k
     1      2   1    1.3986e-01    2.9644e+05 ;     C1 - C2    
     1      3   1    1.3986e-01    2.9644e+05 ;     C1 - C3    
     1     10   1    1.0860e-01    3.0183e+05 ;     C1 - H1    
     2      4   1    1.3986e-01    2.9644e+05 ;     C2 - C4    
     2     11   1    1.0860e-01    3.0183e+05 ;     C2 - H2    
     3      5   1    1.3986e-01    2.9644e+05 ;     C3 - C5    
     3     12   1    1.0860e-01    3.0183e+05 ;     C3 - H3    
     4      6   1    1.3986e-01    2.9644e+05 ;     C4 - C6    
     4     13   1    1.0860e-01    3.0183e+05 ;     C4 - H4    
     5      6   1    1.3986e-01    2.9644e+05 ;     C5 - C6    
     5     14   1    1.0860e-01    3.0183e+05 ;     C5 - H5    
     6      7   1    1.5147e-01    2.0410e+05 ;     C6 - C7    
     7      8   1    1.5354e-01    1.9154e+05 ;     C7 - C8    
     7     15   1    1.0962e-01    2.8891e+05 ;     C7 - H6    
     7     16   1    1.0962e-01    2.8891e+05 ;     C7 - H7    
     8      9   1    1.4242e-01    2.3861e+05 ;     C8 - O1    
     8     17   1    1.0969e-01    2.8804e+05 ;     C8 - H8    
     8     18   1    1.0969e-01    2.8804e+05 ;     C8 - H9    
     9     19   1    9.7250e-02    4.4811e+05 ;     O1 - H10   

[ pairs ]
;   ai     aj    funct
     1      6      1 ;     C1 - C6    
     1     13      1 ;     C1 - H4    
     1     14      1 ;     C1 - H5    
     2      5      1 ;     C2 - C5    
     2      7      1 ;     C2 - C7    
     2     12      1 ;     C2 - H3    
     3      4      1 ;     C3 - C4    
     3      7      1 ;     C3 - C7    
     3     11      1 ;     C3 - H2    
     4      8      1 ;     C4 - C8    
     4     14      1 ;     C4 - H5    
     4     15      1 ;     C4 - H6    
     4     16      1 ;     C4 - H7    
     5      8      1 ;     C5 - C8    
     5     13      1 ;     C5 - H4    
     5     15      1 ;     C5 - H6    
     5     16      1 ;     C5 - H7    
     6      9      1 ;     C6 - O1    
     6     11      1 ;     C6 - H2    
     6     12      1 ;     C6 - H3    
     6     17      1 ;     C6 - H8    
     6     18      1 ;     C6 - H9    
     7     13      1 ;     C7 - H4    
     7     14      1 ;     C7 - H5    
     7     19      1 ;     C7 - H10   
     9     15      1 ;     O1 - H6    
     9     16      1 ;     O1 - H7    
    10      4      1 ;     H1 - C4    
    10      5      1 ;     H1 - C5    
    10     11      1 ;     H1 - H2    
    10     12      1 ;     H1 - H3    
    11     13      1 ;     H2 - H4    
    12     14      1 ;     H3 - H5    
    15     17      1 ;     H6 - H8    
    15     18      1 ;     H6 - H9    
    16     17      1 ;     H7 - H8    
    16     18      1 ;     H7 - H9    
    17     19      1 ;     H8 - H10   
    18     19      1 ;     H9 - H10   

[ angles ]
;   ai     aj     ak    funct   theta         cth
     1      2      4      1    1.2002e+02    5.3279e+02 ;     C1 - C2     - C4    
     1      2     11      1    1.1988e+02    3.7572e+02 ;     C1 - C2     - H2    
     1      3      5      1    1.2002e+02    5.3279e+02 ;     C1 - C3     - C5    
     1      3     12      1    1.1988e+02    3.7572e+02 ;     C1 - C3     - H3    
     2      1      3      1    1.2002e+02    5.3279e+02 ;     C2 - C1     - C3    
     2      1     10      1    1.1988e+02    3.7572e+02 ;     C2 - C1     - H1    
     2      4      6      1    1.2002e+02    5.3279e+02 ;     C2 - C4     - C6    
     2      4     13      1    1.1988e+02    3.7572e+02 ;     C2 - C4     - H4    
     3      1     10      1    1.1988e+02    3.7572e+02 ;     C3 - C1     - H1    
     3      5      6      1    1.2002e+02    5.3279e+02 ;     C3 - C5     - C6    
     3      5     14      1    1.1988e+02    3.7572e+02 ;     C3 - C5     - H5    
     4      2     11      1    1.1988e+02    3.7572e+02 ;     C4 - C2     - H2    
     4      6      5      1    1.2002e+02    5.3279e+02 ;     C4 - C6     - C5    
     4      6      7      1    1.2083e+02    5.0827e+02 ;     C4 - C6     - C7    
     5      3     12      1    1.1988e+02    3.7572e+02 ;     C5 - C3     - H3    
     5      6      7      1    1.2083e+02    5.0827e+02 ;     C5 - C6     - C7    
     6      4     13      1    1.1988e+02    3.7572e+02 ;     C6 - C4     - H4    
     6      5     14      1    1.1988e+02    3.7572e+02 ;     C6 - C5     - H5    
     6      7      8      1    1.1242e+02    5.0484e+02 ;     C6 - C7     - C8    
     6      7     15      1    1.1063e+02    3.6493e+02 ;     C6 - C7     - H6    
     6      7     16      1    1.1063e+02    3.6493e+02 ;     C6 - C7     - H7    
     7      8      9      1    1.0966e+02    6.4258e+02 ;     C7 - C8     - O1    
     7      8     17      1    1.0959e+02    3.6217e+02 ;     C7 - C8     - H8    
     7      8     18      1    1.0959e+02    3.6217e+02 ;     C7 - C8     - H9    
     8      7     15      1    1.0968e+02    3.6208e+02 ;     C8 - C7     - H6    
     8      7     16      1    1.0968e+02    3.6208e+02 ;     C8 - C7     - H7    
     8      9     19      1    1.0739e+02    5.4501e+02 ;     C8 - O1     - H10   
     9      8     17      1    1.1038e+02    4.7103e+02 ;     O1 - C8     - H8    
     9      8     18      1    1.1038e+02    4.7103e+02 ;     O1 - C8     - H9    
    15      7     16      1    1.0773e+02    2.9957e+02 ;     H6 - C7     - H7    
    17      8     18      1    1.0855e+02    2.9824e+02 ;     H8 - C8     - H9    

[ dihedrals ] ; propers
; for gromacs 4.5 or higher, using funct 9
;    i      j      k      l   func   phase     kd      pn
     1      2      4      6      9   180.00  15.16700   2 ;     C1-    C2-    C4-    C6
     1      2      4     13      9   180.00  15.16700   2 ;     C1-    C2-    C4-    H4
     1      3      5      6      9   180.00  15.16700   2 ;     C1-    C3-    C5-    C6
     1      3      5     14      9   180.00  15.16700   2 ;     C1-    C3-    C5-    H5
     2      1      3      5      9   180.00  15.16700   2 ;     C2-    C1-    C3-    C5
     2      1      3     12      9   180.00  15.16700   2 ;     C2-    C1-    C3-    H3
     2      4      6      5      9   180.00  15.16700   2 ;     C2-    C4-    C6-    C5
     2      4      6      7      9   180.00  15.16700   2 ;     C2-    C4-    C6-    C7
     3      1      2      4      9   180.00  15.16700   2 ;     C3-    C1-    C2-    C4
     3      1      2     11      9   180.00  15.16700   2 ;     C3-    C1-    C2-    H2
     3      5      6      4      9   180.00  15.16700   2 ;     C3-    C5-    C6-    C4
     3      5      6      7      9   180.00  15.16700   2 ;     C3-    C5-    C6-    C7
     4      6      5     14      9   180.00  15.16700   2 ;     C4-    C6-    C5-    H5
     4      6      7      8      9   180.00   1.00416   2 ;     C4-    C6-    C7-    C8
     4      6      7     15      9     0.00   0.00000   0 ;     C4-    C6-    C7-    H6
     4      6      7     16      9     0.00   0.00000   0 ;     C4-    C6-    C7-    H7
     5      6      4     13      9   180.00  15.16700   2 ;     C5-    C6-    C4-    H4
     5      6      7      8      9   180.00   1.00416   2 ;     C5-    C6-    C7-    C8
     5      6      7     15      9     0.00   0.00000   0 ;     C5-    C6-    C7-    H6
     5      6      7     16      9     0.00   0.00000   0 ;     C5-    C6-    C7-    H7
     6      4      2     11      9   180.00  15.16700   2 ;     C6-    C4-    C2-    H2
     6      5      3     12      9   180.00  15.16700   2 ;     C6-    C5-    C3-    H3
     6      7      8      9      9     0.00   0.65084   3 ;     C6-    C7-    C8-    O1
     6      7      8     17      9     0.00   0.65084   3 ;     C6-    C7-    C8-    H8
     6      7      8     18      9     0.00   0.65084   3 ;     C6-    C7-    C8-    H9
     7      6      4     13      9   180.00  15.16700   2 ;     C7-    C6-    C4-    H4
     7      6      5     14      9   180.00  15.16700   2 ;     C7-    C6-    C5-    H5
     7      8      9     19      9     0.00   0.25104   3 ;     C7-    C8-    O1-   H10
     9      8      7     15      9     0.00   0.37656   3 ;     O1-    C8-    C7-    H6
     9      8      7     16      9     0.00   0.37656   3 ;     O1-    C8-    C7-    H7
    10      1      2      4      9   180.00  15.16700   2 ;     H1-    C1-    C2-    C4
    10      1      2     11      9   180.00  15.16700   2 ;     H1-    C1-    C2-    H2
    10      1      3      5      9   180.00  15.16700   2 ;     H1-    C1-    C3-    C5
    10      1      3     12      9   180.00  15.16700   2 ;     H1-    C1-    C3-    H3
    11      2      4     13      9   180.00  15.16700   2 ;     H2-    C2-    C4-    H4
    12      3      5     14      9   180.00  15.16700   2 ;     H3-    C3-    C5-    H5
    15      7      8     17      9     0.00   0.65084   3 ;     H6-    C7-    C8-    H8
    15      7      8     18      9     0.00   0.65084   3 ;     H6-    C7-    C8-    H9
    16      7      8     17      9     0.00   0.65084   3 ;     H7-    C7-    C8-    H8
    16      7      8     18      9     0.00   0.65084   3 ;     H7-    C7-    C8-    H9
    17      8      9     19      9     0.00   0.51463   3 ;     H8-    C8-    O1-   H10
    18      8      9     19      9     0.00   0.51463   3 ;     H9-    C8-    O1-   H10

[ dihedrals ] ; impropers
; treated as propers in GROMACS to use correct AMBER analytical function
;    i      j      k      l   func   phase     kd      pn
     1      4      2     11      4   180.00   4.60240   2 ;     C1-    C4-    C2-    H2
     1      5      3     12      4   180.00   4.60240   2 ;     C1-    C5-    C3-    H3
     2      6      4     13      4   180.00   4.60240   2 ;     C2-    C6-    C4-    H4
     3      6      5     14      4   180.00   4.60240   2 ;     C3-    C6-    C5-    H5
     4      5      6      7      4   180.00   4.60240   2 ;     C4-    C5-    C6-    C7
    10      1      3      2      4   180.00   4.60240   2 ;     H1-    C1-    C3-    C2
