; mobley_7393673_GMX.itp created by acpype (v: 2023.10.27) on Thu May 14 13:45:51 2026

[ atomtypes ]
;name   bond_type     mass     charge   ptype   sigma         epsilon       Amb
 ca       ca          0.00000  0.00000   A     3.31521e-01   4.13379e-01 ; 1.86  0.0988
 c        c           0.00000  0.00000   A     3.31521e-01   4.13379e-01 ; 1.86  0.0988
 c3       c3          0.00000  0.00000   A     3.39771e-01   4.51035e-01 ; 1.91  0.1078
 o        o           0.00000  0.00000   A     3.04812e-01   6.12119e-01 ; 1.71  0.1463
 os       os          0.00000  0.00000   A     3.15610e-01   3.03758e-01 ; 1.77  0.0726
 ha       ha          0.00000  0.00000   A     2.62548e-01   6.73624e-02 ; 1.47  0.0161
 h1       h1          0.00000  0.00000   A     2.42200e-01   8.70272e-02 ; 1.36  0.0208

[ moleculetype ]
;name            nrexcl
 mobley_7393673   3

[ atoms ]
;   nr  type  resi  res  atom  cgnr     charge      mass       ; qtot   bond_type
     1   ca     1   MOL    C1    1    -0.036500     12.01000 ; qtot -0.036
     2   ca     1   MOL    C2    2    -0.036500     12.01000 ; qtot -0.073
     3   ca     1   MOL    C3    3    -0.200500     12.01000 ; qtot -0.273
     4   ca     1   MOL    C4    4    -0.200500     12.01000 ; qtot -0.474
     5   ca     1   MOL    C5    5    -0.173600     12.01000 ; qtot -0.648
     6   ca     1   MOL    C6    6     0.159100     12.01000 ; qtot -0.488
     7    c     1   MOL    C7    7     0.648700     12.01000 ; qtot 0.160
     8   c3     1   MOL    C8    8     0.111700     12.01000 ; qtot 0.272
     9   c3     1   MOL    C9    9     0.128700     12.01000 ; qtot 0.401
    10    o     1   MOL    O1   10    -0.550000     16.00000 ; qtot -0.149
    11   os     1   MOL    O2   11    -0.322900     16.00000 ; qtot -0.472
    12   os     1   MOL    O3   12    -0.440900     16.00000 ; qtot -0.913
    13   ha     1   MOL    H1   13     0.157500      1.00800 ; qtot -0.756
    14   ha     1   MOL    H2   14     0.157500      1.00800 ; qtot -0.598
    15   ha     1   MOL    H3   15     0.150000      1.00800 ; qtot -0.448
    16   ha     1   MOL    H4   16     0.150000      1.00800 ; qtot -0.298
    17   h1     1   MOL    H5   17     0.048700      1.00800 ; qtot -0.250
    18   h1     1   MOL    H6   18     0.048700      1.00800 ; qtot -0.201
    19   h1     1   MOL    H7   19     0.048700      1.00800 ; qtot -0.152
    20   h1     1   MOL    H8   20     0.050700      1.00800 ; qtot -0.101
    21   h1     1   MOL    H9   21     0.050700      1.00800 ; qtot -0.051
    22   h1     1   MOL   H10   22     0.050700      1.00800 ; qtot -0.000

[ bonds ]
;   ai     aj funct   r             k
     1      3   1    1.3986e-01    2.9644e+05 ;     C1 - C3    
     1      5   1    1.3986e-01    2.9644e+05 ;     C1 - C5    
     1     13   1    1.0860e-01    3.0183e+05 ;     C1 - H1    
     2      4   1    1.3986e-01    2.9644e+05 ;     C2 - C4    
     2      5   1    1.3986e-01    2.9644e+05 ;     C2 - C5    
     2     14   1    1.0860e-01    3.0183e+05 ;     C2 - H2    
     3      6   1    1.3986e-01    2.9644e+05 ;     C3 - C6    
     3     15   1    1.0860e-01    3.0183e+05 ;     C3 - H3    
     4      6   1    1.3986e-01    2.9644e+05 ;     C4 - C6    
     4     16   1    1.0860e-01    3.0183e+05 ;     C4 - H4    
     5      7   1    1.4907e-01    2.1994e+05 ;     C5 - C7    
     6     11   1    1.3688e-01    2.8731e+05 ;     C6 - O2    
     7     10   1    1.2190e-01    4.9421e+05 ;     C7 - O1    
     7     12   1    1.3621e-01    2.9398e+05 ;     C7 - O3    
     8     11   1    1.4273e-01    2.3620e+05 ;     C8 - O2    
     8     17   1    1.0969e-01    2.8804e+05 ;     C8 - H5    
     8     18   1    1.0969e-01    2.8804e+05 ;     C8 - H6    
     8     19   1    1.0969e-01    2.8804e+05 ;     C8 - H7    
     9     12   1    1.4273e-01    2.3620e+05 ;     C9 - O3    
     9     20   1    1.0969e-01    2.8804e+05 ;     C9 - H8    
     9     21   1    1.0969e-01    2.8804e+05 ;     C9 - H9    
     9     22   1    1.0969e-01    2.8804e+05 ;     C9 - H10   

[ pairs ]
;   ai     aj    funct
     1      4      1 ;     C1 - C4    
     1     10      1 ;     C1 - O1    
     1     11      1 ;     C1 - O2    
     1     12      1 ;     C1 - O3    
     1     14      1 ;     C1 - H2    
     2      3      1 ;     C2 - C3    
     2     10      1 ;     C2 - O1    
     2     11      1 ;     C2 - O2    
     2     12      1 ;     C2 - O3    
     3      7      1 ;     C3 - C7    
     3      8      1 ;     C3 - C8    
     3     16      1 ;     C3 - H4    
     4      7      1 ;     C4 - C7    
     4      8      1 ;     C4 - C8    
     4     15      1 ;     C4 - H3    
     5      6      1 ;     C5 - C6    
     5      9      1 ;     C5 - C9    
     5     15      1 ;     C5 - H3    
     5     16      1 ;     C5 - H4    
     6     14      1 ;     C6 - H2    
     6     17      1 ;     C6 - H5    
     6     18      1 ;     C6 - H6    
     6     19      1 ;     C6 - H7    
     7     14      1 ;     C7 - H2    
     7     20      1 ;     C7 - H8    
     7     21      1 ;     C7 - H9    
     7     22      1 ;     C7 - H10   
     9     10      1 ;     C9 - O1    
    11     15      1 ;     O2 - H3    
    11     16      1 ;     O2 - H4    
    13      2      1 ;     H1 - C2    
    13      6      1 ;     H1 - C6    
    13      7      1 ;     H1 - C7    
    13     15      1 ;     H1 - H3    
    14     16      1 ;     H2 - H4    

[ angles ]
;   ai     aj     ak    funct   theta         cth
     1      3      6      1    1.2002e+02    5.3279e+02 ;     C1 - C3     - C6    
     1      3     15      1    1.1988e+02    3.7572e+02 ;     C1 - C3     - H3    
     1      5      2      1    1.2002e+02    5.3279e+02 ;     C1 - C5     - C2    
     1      5      7      1    1.2033e+02    5.1413e+02 ;     C1 - C5     - C7    
     2      4      6      1    1.2002e+02    5.3279e+02 ;     C2 - C4     - C6    
     2      4     16      1    1.1988e+02    3.7572e+02 ;     C2 - C4     - H4    
     2      5      7      1    1.2033e+02    5.1413e+02 ;     C2 - C5     - C7    
     3      1      5      1    1.2002e+02    5.3279e+02 ;     C3 - C1     - C5    
     3      1     13      1    1.1988e+02    3.7572e+02 ;     C3 - C1     - H1    
     3      6      4      1    1.2002e+02    5.3279e+02 ;     C3 - C6     - C4    
     3      6     11      1    1.1911e+02    6.6107e+02 ;     C3 - C6     - O2    
     4      2      5      1    1.2002e+02    5.3279e+02 ;     C4 - C2     - C5    
     4      2     14      1    1.1988e+02    3.7572e+02 ;     C4 - C2     - H2    
     4      6     11      1    1.1911e+02    6.6107e+02 ;     C4 - C6     - O2    
     5      1     13      1    1.1988e+02    3.7572e+02 ;     C5 - C1     - H1    
     5      2     14      1    1.1988e+02    3.7572e+02 ;     C5 - C2     - H2    
     5      7     10      1    1.2260e+02    6.5237e+02 ;     C5 - C7     - O1    
     5      7     12      1    1.1241e+02    6.5756e+02 ;     C5 - C7     - O3    
     6      3     15      1    1.1988e+02    3.7572e+02 ;     C6 - C3     - H3    
     6      4     16      1    1.1988e+02    3.7572e+02 ;     C6 - C4     - H4    
     6     11      8      1    1.1839e+02    7.3856e+02 ;     C6 - O2     - C8    
     7     12      9      1    1.1582e+02    7.4835e+02 ;     C7 - O3     - C9    
    10      7     12      1    1.2320e+02    8.4734e+02 ;     O1 - C7     - O3    
    11      8     17      1    1.1034e+02    4.7028e+02 ;     O2 - C8     - H5    
    11      8     18      1    1.1034e+02    4.7028e+02 ;     O2 - C8     - H6    
    11      8     19      1    1.1034e+02    4.7028e+02 ;     O2 - C8     - H7    
    12      9     20      1    1.1034e+02    4.7028e+02 ;     O3 - C9     - H8    
    12      9     21      1    1.1034e+02    4.7028e+02 ;     O3 - C9     - H9    
    12      9     22      1    1.1034e+02    4.7028e+02 ;     O3 - C9     - H10   
    17      8     18      1    1.0855e+02    2.9824e+02 ;     H5 - C8     - H6    
    17      8     19      1    1.0855e+02    2.9824e+02 ;     H5 - C8     - H7    
    18      8     19      1    1.0855e+02    2.9824e+02 ;     H6 - C8     - H7    
    20      9     21      1    1.0855e+02    2.9824e+02 ;     H8 - C9     - H9    
    20      9     22      1    1.0855e+02    2.9824e+02 ;     H8 - C9     - H10   
    21      9     22      1    1.0855e+02    2.9824e+02 ;     H9 - C9     - H10   

[ dihedrals ] ; propers
; for gromacs 4.5 or higher, using funct 9
;    i      j      k      l   func   phase     kd      pn
     1      3      6      4      9   180.00  15.16700   2 ;     C1-    C3-    C6-    C4
     1      3      6     11      9   180.00  15.16700   2 ;     C1-    C3-    C6-    O2
     1      5      2      4      9   180.00  15.16700   2 ;     C1-    C5-    C2-    C4
     1      5      2     14      9   180.00  15.16700   2 ;     C1-    C5-    C2-    H2
     1      5      7     10      9   180.00   2.42672   2 ;     C1-    C5-    C7-    O1
     1      5      7     12      9   180.00   4.18400   2 ;     C1-    C5-    C7-    O3
     2      4      6      3      9   180.00  15.16700   2 ;     C2-    C4-    C6-    C3
     2      4      6     11      9   180.00  15.16700   2 ;     C2-    C4-    C6-    O2
     2      5      7     10      9   180.00   2.42672   2 ;     C2-    C5-    C7-    O1
     2      5      7     12      9   180.00   4.18400   2 ;     C2-    C5-    C7-    O3
     3      1      5      2      9   180.00  15.16700   2 ;     C3-    C1-    C5-    C2
     3      1      5      7      9   180.00  15.16700   2 ;     C3-    C1-    C5-    C7
     3      6      4     16      9   180.00  15.16700   2 ;     C3-    C6-    C4-    H4
     3      6     11      8      9   180.00   6.94544   2 ;     C3-    C6-    O2-    C8
     4      2      5      7      9   180.00  15.16700   2 ;     C4-    C2-    C5-    C7
     4      6      3     15      9   180.00  15.16700   2 ;     C4-    C6-    C3-    H3
     4      6     11      8      9   180.00   6.94544   2 ;     C4-    C6-    O2-    C8
     5      1      3      6      9   180.00  15.16700   2 ;     C5-    C1-    C3-    C6
     5      1      3     15      9   180.00  15.16700   2 ;     C5-    C1-    C3-    H3
     5      2      4      6      9   180.00  15.16700   2 ;     C5-    C2-    C4-    C6
     5      2      4     16      9   180.00  15.16700   2 ;     C5-    C2-    C4-    H4
     5      7     12      9      9     0.00   1.29704   3 ;     C5-    C7-    O3-    C9
     5      7     12      9      9   180.00   6.69440   1 ;     C5-    C7-    O3-    C9
     5      7     12      9      9   180.00  15.35528   2 ;     C5-    C7-    O3-    C9
     6      4      2     14      9   180.00  15.16700   2 ;     C6-    C4-    C2-    H2
     6     11      8     17      9     0.00   1.60387   3 ;     C6-    O2-    C8-    H5
     6     11      8     18      9     0.00   1.60387   3 ;     C6-    O2-    C8-    H6
     6     11      8     19      9     0.00   1.60387   3 ;     C6-    O2-    C8-    H7
     7      5      2     14      9   180.00  15.16700   2 ;     C7-    C5-    C2-    H2
     7     12      9     20      9     0.00   1.60387   3 ;     C7-    O3-    C9-    H8
     7     12      9     21      9     0.00   1.60387   3 ;     C7-    O3-    C9-    H9
     7     12      9     22      9     0.00   1.60387   3 ;     C7-    O3-    C9-   H10
     9     12      7     10      9   180.00   5.85760   1 ;     C9-    O3-    C7-    O1
     9     12      7     10      9   180.00  11.29680   2 ;     C9-    O3-    C7-    O1
    11      6      3     15      9   180.00  15.16700   2 ;     O2-    C6-    C3-    H3
    11      6      4     16      9   180.00  15.16700   2 ;     O2-    C6-    C4-    H4
    13      1      3      6      9   180.00  15.16700   2 ;     H1-    C1-    C3-    C6
    13      1      3     15      9   180.00  15.16700   2 ;     H1-    C1-    C3-    H3
    13      1      5      2      9   180.00  15.16700   2 ;     H1-    C1-    C5-    C2
    13      1      5      7      9   180.00  15.16700   2 ;     H1-    C1-    C5-    C7
    14      2      4     16      9   180.00  15.16700   2 ;     H2-    C2-    C4-    H4

[ dihedrals ] ; impropers
; treated as propers in GROMACS to use correct AMBER analytical function
;    i      j      k      l   func   phase     kd      pn
     1      6      3     15      4   180.00   4.60240   2 ;     C1-    C6-    C3-    H3
     2      6      4     16      4   180.00   4.60240   2 ;     C2-    C6-    C4-    H4
     3      4      6     11      4   180.00   4.60240   2 ;     C3-    C4-    C6-    O2
     4      5      2     14      4   180.00   4.60240   2 ;     C4-    C5-    C2-    H2
     5     10      7     12      4   180.00   4.60240   2 ;     C5-    O1-    C7-    O3
     7      1      5      2      4   180.00   4.60240   2 ;     C7-    C1-    C5-    C2
    13      1      5      3      4   180.00   4.60240   2 ;     H1-    C1-    C5-    C3
