mobley_9821936_GMX.gro created by acpype (v: 2023.10.27) on Thu May 14 13:47:37 2026
 2836
    1MOL     C1    1   1.572   1.661   1.538
    1MOL     C2    2   1.657   1.561   1.491
    1MOL     C3    3   1.406   1.502   1.573
    1MOL     C4    4   1.491   1.403   1.526
    1MOL     C5    5   1.615   1.794   1.544
    1MOL     C6    6   1.786   1.594   1.449
    1MOL     C7    7   1.277   1.470   1.615
    1MOL     C8    8   1.448   1.270   1.520
    1MOL     C9    9   1.744   1.826   1.502
    1MOL    C10   10   1.830   1.726   1.455
    1MOL    C11   11   1.234   1.337   1.610
    1MOL    C12   12   1.319   1.238   1.562
    1MOL     O1   13   1.444   1.634   1.581
    1MOL     O2   14   1.619   1.430   1.484
    1MOL    CL1   15   1.506   1.915   1.604
    1MOL    CL2   16   1.890   1.467   1.390
    1MOL    CL3   17   1.174   1.597   1.674
    1MOL    CL4   18   1.558   1.149   1.461
    1MOL    CL5   19   1.798   1.992   1.509
    1MOL    CL6   20   1.991   1.767   1.402
    1MOL    CL7   21   1.073   1.297   1.662
    1MOL    CL8   22   1.265   1.072   1.555
    2SOL     OW   23   0.230   0.628   0.113
    2SOL    HW1   24   0.137   0.626   0.150
    2SOL    HW2   25   0.231   0.589   0.021
    3SOL     OW   26   0.225   0.275   0.996
    3SOL    HW1   27   0.260   0.258   1.088
    3SOL    HW2   28   0.137   0.230   0.984
    4SOL     OW   29   0.019   0.368   0.647
    4SOL    HW1   30  -0.063   0.411   0.686
    4SOL    HW2   31  -0.009   0.295   0.584
    5SOL     OW   32   0.569   1.275   1.165
    5SOL    HW1   33   0.476   1.268   1.128
    5SOL    HW2   34   0.580   1.364   1.209
    6SOL     OW   35   1.555   1.511   0.703
    6SOL    HW1   36   1.498   1.495   0.784
    6SOL    HW2   37   1.496   1.521   0.623
    7SOL     OW   38   1.135   0.703   0.717
    7SOL    HW1   39   1.192   0.781   0.692
    7SOL    HW2   40   1.075   0.729   0.793
    8SOL     OW   41   1.755   0.607   0.231
    8SOL    HW1   42   1.743   0.594   0.132
    8SOL    HW2   43   1.725   0.526   0.280
    9SOL     OW   44   0.768   1.144   1.023
    9SOL    HW1   45   0.690   1.161   1.083
    9SOL    HW2   46   0.802   1.231   0.987
   10SOL     OW   47   0.850   0.798   1.823
   10SOL    HW1   48   0.846   0.874   1.888
   10SOL    HW2   49   0.872   0.834   1.732
   11SOL     OW   50   0.685   1.012   0.665
   11SOL    HW1   51   0.754   0.996   0.735
   11SOL    HW2   52   0.612   1.069   0.703
   12SOL     OW   53   0.686   1.161   1.803
   12SOL    HW1   54   0.746   1.240   1.817
   12SOL    HW2   55   0.600   1.192   1.762
   13SOL     OW   56   0.335   1.435   1.061
   13SOL    HW1   57   0.257   1.404   1.008
   13SOL    HW2   58   0.393   1.493   1.004
   14SOL     OW   59   0.438   0.392   1.499
   14SOL    HW1   60   0.520   0.336   1.508
   14SOL    HW2   61   0.357   0.334   1.503
   15SOL     OW   62   1.603   0.447   0.737
   15SOL    HW1   63   1.529   0.493   0.687
   15SOL    HW2   64   1.654   0.515   0.790
   16SOL     OW   65   0.231   1.713   0.483
   16SOL    HW1   66   0.265   1.790   0.537
   16SOL    HW2   67   0.275   1.713   0.393
   17SOL     OW   68   0.230   1.434   0.538
   17SOL    HW1   69   0.204   1.530   0.538
   17SOL    HW2   70   0.159   1.380   0.583
   18SOL     OW   71   0.240   1.091   0.886
   18SOL    HW1   72   0.254   1.007   0.938
   18SOL    HW2   73   0.185   1.155   0.941
   19SOL     OW   74   0.620   1.786   1.439
   19SOL    HW1   75   0.528   1.769   1.474
   19SOL    HW2   76   0.648   1.878   1.465
   20SOL     OW   77   0.606   0.964   0.123
   20SOL    HW1   78   0.613   1.048   0.069
   20SOL    HW2   79   0.652   0.977   0.211
   21SOL     OW   80   1.594   0.114   1.480
   21SOL    HW1   81   1.576   0.181   1.408
   21SOL    HW2   82   1.591   0.160   1.569
   22SOL     OW   83   0.122   0.643   0.563
   22SOL    HW1   84   0.077   0.555   0.580
   22SOL    HW2   85   0.121   0.697   0.647
   23SOL     OW   86   1.842   1.767   0.359
   23SOL    HW1   87   1.896   1.738   0.439
   23SOL    HW2   88   1.872   1.857   0.330
   24SOL     OW   89   0.027   1.596   0.117
   24SOL    HW1   90   0.008   1.500   0.138
   24SOL    HW2   91  -0.006   1.654   0.192
   25SOL     OW   92   1.689   0.922   0.612
   25SOL    HW1   93   1.784   0.893   0.620
   25SOL    HW2   94   1.681   0.987   0.537
   26SOL     OW   95   1.641   1.108   0.432
   26SOL    HW1   96   1.727   1.110   0.380
   26SOL    HW2   97   1.655   1.155   0.520
   27SOL     OW   98   0.113   0.737   1.597
   27SOL    HW1   99   0.201   0.724   1.642
   27SOL    HW2  100   0.100   0.834   1.575
   28SOL     OW  101   0.613   1.365   0.726
   28SOL    HW1  102   0.564   1.278   0.735
   28SOL    HW2  103   0.590   1.408   0.639
   29SOL     OW  104   0.809   0.004   0.502
   29SOL    HW1  105   0.849   0.095   0.493
   29SOL    HW2  106   0.709   0.012   0.508
   30SOL     OW  107   0.197   0.976   1.264
   30SOL    HW1  108   0.286   0.931   1.250
   30SOL    HW2  109   0.124   0.911   1.245
   31SOL     OW  110   1.525   0.999   0.190
   31SOL    HW1  111   1.462   0.923   0.203
   31SOL    HW2  112   1.573   1.017   0.276
   32SOL     OW  113   0.317   0.251   1.801
   32SOL    HW1  114   0.388   0.322   1.807
   32SOL    HW2  115   0.229   0.290   1.829
   33SOL     OW  116   1.466   1.417   0.953
   33SOL    HW1  117   1.407   1.423   1.033
   33SOL    HW2  118   1.451   1.329   0.907
   34SOL     OW  119   1.667   1.714   0.572
   34SOL    HW1  120   1.626   1.691   0.484
   34SOL    HW2  121   1.649   1.640   0.637
   35SOL     OW  122   0.598   0.729   0.270
   35SOL    HW1  123   0.622   0.798   0.202
   35SOL    HW2  124   0.520   0.762   0.324
   36SOL     OW  125   1.281   0.345   0.944
   36SOL    HW1  126   1.195   0.295   0.931
   36SOL    HW2  127   1.343   0.291   1.000
   37SOL     OW  128   1.576   1.662   0.307
   37SOL    HW1  129   1.665   1.708   0.310
   37SOL    HW2  130   1.555   1.638   0.212
   38SOL     OW  131   0.807   0.605   1.465
   38SOL    HW1  132   0.760   0.602   1.554
   38SOL    HW2  133   0.756   0.550   1.399
   39SOL     OW  134   1.394   0.469   1.674
   39SOL    HW1  135   1.374   0.512   1.762
   39SOL    HW2  136   1.472   0.407   1.683
   40SOL     OW  137   0.973   0.890   1.572
   40SOL    HW1  138   1.019   0.806   1.543
   40SOL    HW2  139   0.917   0.924   1.497
   41SOL     OW  140   0.991   0.410   1.242
   41SOL    HW1  141   0.914   0.444   1.296
   41SOL    HW2  142   0.957   0.359   1.163
   42SOL     OW  143   1.041   0.701   0.429
   42SOL    HW1  144   1.067   0.697   0.525
   42SOL    HW2  145   0.956   0.650   0.415
   43SOL     OW  146   0.076   0.811   0.789
   43SOL    HW1  147   0.175   0.799   0.798
   43SOL    HW2  148   0.052   0.906   0.810
   44SOL     OW  149   0.130   1.821   1.571
   44SOL    HW1  150   0.120   1.806   1.670
   44SOL    HW2  151   0.044   1.857   1.535
   45SOL     OW  152   0.865   0.348   0.195
   45SOL    HW1  153   0.924   0.411   0.146
   45SOL    HW2  154   0.884   0.254   0.166
   46SOL     OW  155   1.719   0.585   1.831
   46SOL    HW1  156   1.693   0.674   1.795
   46SOL    HW2  157   1.717   0.517   1.758
   47SOL     OW  158   1.362   1.144   0.545
   47SOL    HW1  159   1.445   1.115   0.497
   47SOL    HW2  160   1.313   1.211   0.489
   48SOL     OW  161   0.550   0.196   0.885
   48SOL    HW1  162   0.545   0.191   0.985
   48SOL    HW2  163   0.552   0.292   0.856
   49SOL     OW  164   1.008   1.456   0.477
   49SOL    HW1  165   0.962   1.528   0.425
   49SOL    HW2  166   1.004   1.476   0.575
   50SOL     OW  167   0.351   1.801   0.853
   50SOL    HW1  168   0.401   1.715   0.859
   50SOL    HW2  169   0.416   1.878   0.850
   51SOL     OW  170   1.795   1.066   0.873
   51SOL    HW1  171   1.733   1.051   0.797
   51SOL    HW2  172   1.743   1.077   0.958
   52SOL     OW  173   0.321   0.943   0.242
   52SOL    HW1  174   0.403   0.982   0.200
   52SOL    HW2  175   0.294   0.861   0.193
   53SOL     OW  176   1.458   0.735   0.728
   53SOL    HW1  177   1.453   0.670   0.803
   53SOL    HW2  178   1.538   0.794   0.741
   54SOL     OW  179   0.461   1.266   1.727
   54SOL    HW1  180   0.411   1.267   1.641
   54SOL    HW2  181   0.398   1.248   1.803
   55SOL     OW  182   1.111   1.776   0.237
   55SOL    HW1  183   1.051   1.714   0.287
   55SOL    HW2  184   1.142   1.732   0.152
   56SOL     OW  185   0.202   0.285   1.498
   56SOL    HW1  186   0.122   0.345   1.485
   56SOL    HW2  187   0.192   0.236   1.584
   57SOL     OW  188   1.632   1.377   0.081
   57SOL    HW1  189   1.600   1.471   0.071
   57SOL    HW2  190   1.556   1.314   0.069
   58SOL     OW  191   0.464   1.743   0.323
   58SOL    HW1  192   0.497   1.782   0.409
   58SOL    HW2  193   0.540   1.736   0.258
   59SOL     OW  194   1.400   0.107   0.426
   59SOL    HW1  195   1.376   0.070   0.336
   59SOL    HW2  196   1.499   0.123   0.430
   60SOL     OW  197   0.249   1.785   1.241
   60SOL    HW1  198   0.306   1.720   1.291
   60SOL    HW2  199   0.233   1.752   1.148
   61SOL     OW  200   0.940   1.698   0.904
   61SOL    HW1  201   1.020   1.641   0.925
   61SOL    HW2  202   0.891   1.658   0.827
   62SOL     OW  203   0.382   0.700   0.480
   62SOL    HW1  204   0.427   0.610   0.477
   62SOL    HW2  205   0.288   0.689   0.513
   63SOL     OW  206   1.547   0.222   1.729
   63SOL    HW1  207   1.542   0.259   1.821
   63SOL    HW2  208   1.475   0.153   1.717
   64SOL     OW  209   0.614   0.122   0.117
   64SOL    HW1  210   0.712   0.100   0.124
   64SOL    HW2  211   0.583   0.105   0.024
   65SOL     OW  212   0.781   0.264   1.749
   65SOL    HW1  213   0.848   0.203   1.792
   65SOL    HW2  214   0.708   0.283   1.814
   66SOL     OW  215   0.888   1.514   1.195
   66SOL    HW1  216   0.865   1.489   1.101
   66SOL    HW2  217   0.949   1.445   1.234
   67SOL     OW  218   1.351   0.590   1.433
   67SOL    HW1  219   1.379   0.547   1.518
   67SOL    HW2  220   1.376   0.686   1.434
   68SOL     OW  221   0.803   1.402   0.924
   68SOL    HW1  222   0.893   1.416   0.882
   68SOL    HW2  223   0.732   1.404   0.853
   69SOL     OW  224   0.922   0.503   0.899
   69SOL    HW1  225   0.897   0.494   0.803
   69SOL    HW2  226   0.970   0.421   0.930
   70SOL     OW  227   0.539   0.064   0.512
   70SOL    HW1  228   0.458   0.065   0.570
   70SOL    HW2  229   0.542   0.147   0.457
   71SOL     OW  230   1.434   1.188   0.041
   71SOL    HW1  231   1.466   1.112   0.098
   71SOL    HW2  232   1.342   1.215   0.071
   72SOL     OW  233   0.297   0.035   0.171
   72SOL    HW1  234   0.346   0.119   0.150
   72SOL    HW2  235   0.359  -0.030   0.216
   73SOL     OW  236   0.935   0.236   0.480
   73SOL    HW1  237   0.887   0.277   0.402
   73SOL    HW2  238   1.034   0.234   0.461
   74SOL     OW  239   1.076   0.683   1.464
   74SOL    HW1  240   0.996   0.622   1.467
   74SOL    HW2  241   1.157   0.630   1.440
   75SOL     OW  242   1.227   1.570   0.793
   75SOL    HW1  243   1.248   1.644   0.728
   75SOL    HW2  244   1.295   1.570   0.866
   76SOL     OW  245   0.459   1.152   0.741
   76SOL    HW1  246   0.388   1.125   0.806
   76SOL    HW2  247   0.433   1.124   0.648
   77SOL     OW  248   1.271   1.797   0.591
   77SOL    HW1  249   1.315   1.861   0.527
   77SOL    HW2  250   1.221   1.849   0.661
   78SOL     OW  251   1.032   0.549   0.016
   78SOL    HW1  252   0.991   0.631  -0.023
   78SOL    HW2  253   1.096   0.575   0.089
   79SOL     OW  254   0.078   0.556   1.386
   79SOL    HW1  255   0.170   0.555   1.345
   79SOL    HW2  256   0.072   0.630   1.453
   80SOL     OW  257   0.561   0.222   1.147
   80SOL    HW1  258   0.599   0.138   1.184
   80SOL    HW2  259   0.473   0.241   1.191
   81SOL     OW  260   0.866   0.454   0.642
   81SOL    HW1  261   0.834   0.526   0.580
   81SOL    HW2  262   0.890   0.373   0.589
   82SOL     OW  263   1.017   0.039   0.753
   82SOL    HW1  264   0.945   0.044   0.684
   82SOL    HW2  265   0.993  -0.030   0.822
   83SOL     OW  266   1.429   1.173   0.867
   83SOL    HW1  267   1.374   1.089   0.860
   83SOL    HW2  268   1.455   1.202   0.775
   84SOL     OW  269   1.466   0.590   0.992
   84SOL    HW1  270   1.436   0.495   0.999
   84SOL    HW2  271   1.539   0.606   1.058
   85SOL     OW  272   1.857   0.833   0.377
   85SOL    HW1  273   1.899   0.769   0.441
   85SOL    HW2  274   1.819   0.782   0.299
   86SOL     OW  275   0.488   1.385   0.174
   86SOL    HW1  276   0.401   1.370   0.221
   86SOL    HW2  277   0.471   1.411   0.079
   87SOL     OW  278   1.664   1.280   0.657
   87SOL    HW1  279   1.763   1.288   0.671
   87SOL    HW2  280   1.619   1.364   0.688
   88SOL     OW  281   1.390   0.575   0.078
   88SOL    HW1  282   1.336   0.554   0.159
   88SOL    HW2  283   1.481   0.534   0.087
   89SOL     OW  284   0.527   0.256   0.328
   89SOL    HW1  285   0.554   0.197   0.253
   89SOL    HW2  286   0.527   0.351   0.297
   90SOL     OW  287   1.754   1.223   1.588
   90SOL    HW1  288   1.845   1.184   1.575
   90SOL    HW2  289   1.762   1.319   1.612
   91SOL     OW  290   1.064   1.347   1.340
   91SOL    HW1  291   0.984   1.324   1.395
   91SOL    HW2  292   1.147   1.321   1.389
   92SOL     OW  293   1.111   1.195   1.100
   92SOL    HW1  294   1.071   1.239   1.181
   92SOL    HW2  295   1.070   1.232   1.017
   93SOL     OW  296   1.638   1.099   1.079
   93SOL    HW1  297   1.643   1.180   1.138
   93SOL    HW2  298   1.552   1.101   1.028
   94SOL     OW  299   0.915   0.089   1.402
   94SOL    HW1  300   0.940   0.069   1.307
   94SOL    HW2  301   0.987   0.145   1.444
   95SOL     OW  302   0.980   1.116   1.719
   95SOL    HW1  303   0.881   1.122   1.729
   95SOL    HW2  304   1.003   1.036   1.663
   96SOL     OW  305   0.705   1.050   0.368
   96SOL    HW1  306   0.691   1.057   0.467
   96SOL    HW2  307   0.789   0.999   0.350
   97SOL     OW  308   0.410   0.813   1.251
   97SOL    HW1  309   0.496   0.825   1.301
   97SOL    HW2  310   0.368   0.726   1.278
   98SOL     OW  311   1.274   0.386   1.262
   98SOL    HW1  312   1.295   0.460   1.326
   98SOL    HW2  313   1.185   0.403   1.219
   99SOL     OW  314   0.064   1.564   1.331
   99SOL    HW1  315   0.018   1.646   1.297
   99SOL    HW2  316   0.162   1.583   1.340
  100SOL     OW  317   0.367   1.100   0.501
  100SOL    HW1  318   0.360   1.183   0.445
  100SOL    HW2  319   0.371   1.020   0.441
  101SOL     OW  320   0.566   0.537   0.865
  101SOL    HW1  321   0.578   0.603   0.791
  101SOL    HW2  322   0.612   0.571   0.948
  102SOL     OW  323   1.252   1.348   0.388
  102SOL    HW1  324   1.302   1.425   0.428
  102SOL    HW2  325   1.157   1.350   0.420
  103SOL     OW  326   1.272   1.445   1.142
  103SOL    HW1  327   1.319   1.458   1.229
  103SOL    HW2  328   1.206   1.371   1.151
  104SOL     OW  329   1.582   0.639   0.472
  104SOL    HW1  330   1.551   0.700   0.545
  104SOL    HW2  331   1.632   0.691   0.403
  105SOL     OW  332   0.354   1.510   1.329
  105SOL    HW1  333   0.333   1.466   1.242
  105SOL    HW2  334   0.451   1.536   1.332
  106SOL     OW  335   0.402   0.751   1.598
  106SOL    HW1  336   0.470   0.806   1.551
  106SOL    HW2  337   0.442   0.663   1.625
  107SOL     OW  338   1.587   0.779   1.670
  107SOL    HW1  339   1.495   0.817   1.665
  107SOL    HW2  340   1.647   0.826   1.605
  108SOL     OW  341   1.013   0.105   1.770
  108SOL    HW1  342   1.019   0.190   1.718
  108SOL    HW2  343   1.045   0.029   1.713
  109SOL     OW  344   0.504   0.050   1.740
  109SOL    HW1  345   0.462  -0.007   1.670
  109SOL    HW2  346   0.438   0.119   1.772
  110SOL     OW  347   0.573   0.870   1.029
  110SOL    HW1  348   0.617   0.959   1.020
  110SOL    HW2  349   0.510   0.870   1.106
  111SOL     OW  350   1.360   0.862   1.045
  111SOL    HW1  351   1.285   0.862   0.979
  111SOL    HW2  352   1.397   0.770   1.054
  112SOL     OW  353   1.209   0.525   0.275
  112SOL    HW1  354   1.222   0.441   0.329
  112SOL    HW2  355   1.180   0.599   0.335
  113SOL     OW  356   0.307   0.213   1.231
  113SOL    HW1  357   0.284   0.250   1.321
  113SOL    HW2  358   0.277   0.118   1.225
  114SOL     OW  359   0.037   1.310   1.282
  114SOL    HW1  360   0.090   1.261   1.350
  114SOL    HW2  361   0.059   1.408   1.287
  115SOL     OW  362   0.732   0.634   1.064
  115SOL    HW1  363   0.791   0.608   0.988
  115SOL    HW2  364   0.704   0.730   1.053
  116SOL     OW  365   1.728   0.935   1.854
  116SOL    HW1  366   1.682   0.928   1.765
  116SOL    HW2  367   1.666   0.979   1.920
  117SOL     OW  368   0.307   0.063   0.618
  117SOL    HW1  369   0.296   0.157   0.651
  117SOL    HW2  370   0.302   0.000   0.695
  118SOL     OW  371   1.622   0.367   0.374
  118SOL    HW1  372   1.624   0.291   0.438
  118SOL    HW2  373   1.574   0.444   0.414
  119SOL     OW  374   1.023   0.766   0.966
  119SOL    HW1  375   1.038   0.787   1.062
  119SOL    HW2  376   0.993   0.671   0.957
  120SOL     OW  377   0.980   1.573   1.700
  120SOL    HW1  378   0.960   1.617   1.612
  120SOL    HW2  379   1.019   1.482   1.684
  121SOL     OW  380   0.350   0.898   1.804
  121SOL    HW1  381   0.426   0.942   1.852
  121SOL    HW2  382   0.385   0.851   1.722
  122SOL     OW  383   1.540   0.274   0.125
  122SOL    HW1  384   1.479   0.199   0.148
  122SOL    HW2  385   1.562   0.326   0.208
  123SOL     OW  386   1.303   0.838   0.042
  123SOL    HW1  387   1.337   0.745   0.057
  123SOL    HW2  388   1.321   0.865  -0.053
  124SOL     OW  389   1.068   1.333   0.849
  124SOL    HW1  390   1.075   1.249   0.794
  124SOL    HW2  391   1.130   1.402   0.813
  125SOL     OW  392   0.319   0.810   0.949
  125SOL    HW1  393   0.412   0.846   0.954
  125SOL    HW2  394   0.313   0.725   1.001
  126SOL     OW  395   0.339   0.509   1.006
  126SOL    HW1  396   0.287   0.426   0.989
  126SOL    HW2  397   0.416   0.514   0.942
  127SOL     OW  398   1.138   0.380   1.678
  127SOL    HW1  399   1.093   0.443   1.742
  127SOL    HW2  400   1.231   0.411   1.661
  128SOL     OW  401   1.160   0.207   1.477
  128SOL    HW1  402   1.160   0.271   1.554
  128SOL    HW2  403   1.188   0.255   1.394
  129SOL     OW  404   0.008   1.326   0.200
  129SOL    HW1  405  -0.085   1.347   0.169
  129SOL    HW2  406   0.018   1.227   0.213
  130SOL     OW  407   0.088   1.801   0.927
  130SOL    HW1  408   0.046   1.715   0.900
  130SOL    HW2  409   0.182   1.804   0.893
  131SOL     OW  410   0.504   1.568   0.910
  131SOL    HW1  411   0.570   1.642   0.919
  131SOL    HW2  412   0.548   1.489   0.868
  132SOL     OW  413   1.002   0.796   1.238
  132SOL    HW1  414   1.043   0.764   1.324
  132SOL    HW2  415   0.906   0.769   1.235
  133SOL     OW  416   0.040   0.544   1.114
  133SOL    HW1  417   0.125   0.511   1.073
  133SOL    HW2  418   0.053   0.559   1.212
  134SOL     OW  419   0.189   0.520   1.722
  134SOL    HW1  420   0.248   0.480   1.652
  134SOL    HW2  421   0.131   0.591   1.681
  135SOL     OW  422   1.369   0.950   1.660
  135SOL    HW1  423   1.408   1.039   1.680
  135SOL    HW2  424   1.379   0.930   1.563
  136SOL     OW  425   0.815   0.572   0.325
  136SOL    HW1  426   0.822   0.483   0.279
  136SOL    HW2  427   0.721   0.606   0.317
  137SOL     OW  428   1.657   0.604   1.206
  137SOL    HW1  429   1.619   0.535   1.268
  137SOL    HW2  430   1.739   0.568   1.162
  138SOL     OW  431   0.252   1.564   1.744
  138SOL    HW1  432   0.222   1.621   1.820
  138SOL    HW2  433   0.245   1.467   1.770
  139SOL     OW  434   0.671   0.464   1.269
  139SOL    HW1  435   0.637   0.375   1.239
  139SOL    HW2  436   0.697   0.518   1.189
  140SOL     OW  437   0.930   1.678   1.465
  140SOL    HW1  438   0.906   1.660   1.370
  140SOL    HW2  439   0.960   1.772   1.475
  141SOL     OW  440   0.473   0.500   0.191
  141SOL    HW1  441   0.534   0.580   0.195
  141SOL    HW2  442   0.378   0.531   0.198
  142SOL     OW  443   0.159   1.137   1.466
  142SOL    HW1  444   0.181   1.076   1.542
  142SOL    HW2  445   0.169   1.088   1.380
  143SOL     OW  446   1.347   1.059   1.234
  143SOL    HW1  447   1.371   0.996   1.160
  143SOL    HW2  448   1.257   1.099   1.216
  144SOL     OW  449   1.302   0.855   0.309
  144SOL    HW1  450   1.216   0.824   0.351
  144SOL    HW2  451   1.298   0.841   0.210
  145SOL     OW  452   1.759   1.747   1.154
  145SOL    HW1  453   1.820   1.777   1.081
  145SOL    HW2  454   1.721   1.658   1.132
  146SOL     OW  455   1.252   1.731   1.128
  146SOL    HW1  456   1.336   1.736   1.074
  146SOL    HW2  457   1.229   1.635   1.146
  147SOL     OW  458   0.083   1.258   1.022
  147SOL    HW1  459   0.078   1.257   1.122
  147SOL    HW2  460   0.000   1.217   0.984
  148SOL     OW  461   0.688   1.662   1.716
  148SOL    HW1  462   0.632   1.743   1.725
  148SOL    HW2  463   0.740   1.666   1.630
  149SOL     OW  464   0.903   0.086   0.133
  149SOL    HW1  465   0.954   0.087   0.047
  149SOL    HW2  466   0.959   0.044   0.204
  150SOL     OW  467   1.726   0.135   0.523
  150SOL    HW1  468   1.799   0.118   0.456
  150SOL    HW2  469   1.695   0.048   0.561
  151SOL     OW  470   1.388   1.573   0.477
  151SOL    HW1  471   1.455   1.585   0.403
  151SOL    HW2  472   1.348   1.662   0.500
  152SOL     OW  473   0.130   1.794   1.851
  152SOL    HW1  474   0.089   1.720   1.904
  152SOL    HW2  475   0.194   1.845   1.909
  153SOL     OW  476   1.280   0.927   0.672
  153SOL    HW1  477   1.340   0.846   0.674
  153SOL    HW2  478   1.320   0.996   0.612
  154SOL     OW  479   0.830   1.273   1.422
  154SOL    HW1  480   0.825   1.306   1.517
  154SOL    HW2  481   0.744   1.292   1.376
  155SOL     OW  482   0.672   1.616   0.154
  155SOL    HW1  483   0.681   1.626   0.055
  155SOL    HW2  484   0.632   1.527   0.175
  156SOL     OW  485   1.841   0.175   0.963
  156SOL    HW1  486   1.880   0.090   0.927
  156SOL    HW2  487   1.743   0.177   0.944
  157SOL     OW  488   0.263   0.326   0.720
  157SOL    HW1  489   0.184   0.377   0.686
  157SOL    HW2  490   0.254   0.311   0.818
  158SOL     OW  491   1.194   1.612   0.031
  158SOL    HW1  492   1.200   1.519   0.068
  158SOL    HW2  493   1.135   1.612  -0.049
  159SOL     OW  494   0.822   1.002   1.372
  159SOL    HW1  495   0.862   1.001   1.280
  159SOL    HW2  496   0.832   1.094   1.412
  160SOL     OW  497   0.916   0.910   0.291
  160SOL    HW1  498   0.979   0.948   0.223
  160SOL    HW2  499   0.956   0.827   0.330
  161SOL     OW  500   1.504   1.607   0.044
  161SOL    HW1  501   1.412   1.644   0.051
  161SOL    HW2  502   1.542   1.627  -0.046
  162SOL     OW  503   0.372   1.288   1.490
  162SOL    HW1  504   0.359   1.381   1.456
  162SOL    HW2  505   0.288   1.236   1.477
  163SOL     OW  506   1.614   1.292   1.289
  163SOL    HW1  507   1.674   1.295   1.369
  163SOL    HW2  508   1.539   1.356   1.302
  164SOL     OW  509   1.039   1.098   0.696
  164SOL    HW1  510   0.969   1.051   0.750
  164SOL    HW2  511   1.098   1.030   0.653
  165SOL     OW  512   1.014   0.236   0.971
  165SOL    HW1  513   1.006   0.200   0.878
  165SOL    HW2  514   1.012   0.160   1.036
  166SOL     OW  515   0.590   1.487   0.491
  166SOL    HW1  516   0.632   1.429   0.421
  166SOL    HW2  517   0.546   1.566   0.447
  167SOL     OW  518   1.709   0.385   1.381
  167SOL    HW1  519   1.782   0.454   1.385
  167SOL    HW2  520   1.737   0.310   1.322
  168SOL     OW  521   0.255   1.348   0.290
  168SOL    HW1  522   0.159   1.349   0.263
  168SOL    HW2  523   0.267   1.401   0.374
  169SOL     OW  524   0.105   1.013   1.726
  169SOL    HW1  525   0.028   0.980   1.780
  169SOL    HW2  526   0.190   0.983   1.768
  170SOL     OW  527   0.672   0.203   1.489
  170SOL    HW1  528   0.762   0.187   1.449
  170SOL    HW2  529   0.680   0.208   1.588
  171SOL     OW  530   0.075   0.345   0.033
  171SOL    HW1  531  -0.017   0.317   0.004
  171SOL    HW2  532   0.106   0.422  -0.023
  172SOL     OW  533   1.440   0.856   1.398
  172SOL    HW1  534   1.383   0.908   1.335
  172SOL    HW2  535   1.536   0.868   1.374
  173SOL     OW  536   0.072   0.166   0.318
  173SOL    HW1  537   0.055   0.249   0.264
  173SOL    HW2  538   0.162   0.129   0.296
  174SOL     OW  539   1.183   1.335   0.119
  174SOL    HW1  540   1.084   1.324   0.121
  174SOL    HW2  541   1.217   1.350   0.212
  175SOL     OW  542   0.613   0.842   1.431
  175SOL    HW1  543   0.669   0.923   1.414
  175SOL    HW2  544   0.672   0.762   1.434
  176SOL     OW  545   1.493   1.767   0.959
  176SOL    HW1  546   1.526   1.831   0.890
  176SOL    HW2  547   1.559   1.761   1.034
  177SOL     OW  548   0.716   0.565   1.708
  177SOL    HW1  549   0.735   0.630   1.782
  177SOL    HW2  550   0.776   0.485   1.717
  178SOL     OW  551   0.390   1.741   1.560
  178SOL    HW1  552   0.299   1.782   1.558
  178SOL    HW2  553   0.383   1.647   1.592
  179SOL     OW  554   1.674   0.883   1.254
  179SOL    HW1  555   1.647   0.794   1.217
  179SOL    HW2  556   1.675   0.951   1.181
  180SOL     OW  557   1.225   0.325   0.449
  180SOL    HW1  558   1.290   0.251   0.438
  180SOL    HW2  559   1.245   0.375   0.533
  181SOL     OW  560   0.594   0.745   0.652
  181SOL    HW1  561   0.644   0.830   0.633
  181SOL    HW2  562   0.506   0.747   0.604
  182SOL     OW  563   1.777   0.342   1.642
  182SOL    HW1  564   1.760   0.373   1.548
  182SOL    HW2  565   1.693   0.305   1.680
  183SOL     OW  566   1.730   0.934   1.517
  183SOL    HW1  567   1.768   1.025   1.532
  183SOL    HW2  568   1.722   0.917   1.418
  184SOL     OW  569   0.859   1.374   0.016
  184SOL    HW1  570   0.813   1.389   0.104
  184SOL    HW2  571   0.903   1.459  -0.014
  185SOL     OW  572   0.661   1.790   0.953
  185SOL    HW1  573   0.615   1.878   0.940
  185SOL    HW2  574   0.760   1.802   0.946
  186SOL     OW  575   0.859   0.956   0.861
  186SOL    HW1  576   0.913   0.887   0.909
  186SOL    HW2  577   0.827   1.025   0.927
  187SOL     OW  578   1.083   0.984   0.087
  187SOL    HW1  579   1.060   1.037   0.005
  187SOL    HW2  580   1.164   0.928   0.068
  188SOL     OW  581   1.861   1.569   0.851
  188SOL    HW1  582   1.790   1.557   0.781
  188SOL    HW2  583   1.862   1.490   0.911
  189SOL     OW  584   0.221   1.314   1.844
  189SOL    HW1  585   0.156   1.241   1.823
  189SOL    HW2  586   0.225   1.328   1.942
  190SOL     OW  587   0.079   1.240   0.653
  190SOL    HW1  588   0.078   1.193   0.741
  190SOL    HW2  589   0.161   1.212   0.602
  191SOL     OW  590   0.672   1.391   1.624
  191SOL    HW1  591   0.594   1.341   1.662
  191SOL    HW2  592   0.669   1.486   1.655
  192SOL     OW  593   1.824   0.192   1.227
  192SOL    HW1  594   1.820   0.102   1.271
  192SOL    HW2  595   1.827   0.181   1.128
  193SOL     OW  596   0.428   0.424   0.520
  193SOL    HW1  597   0.458   0.352   0.458
  193SOL    HW2  598   0.389   0.384   0.603
  194SOL     OW  599   1.705   1.487   1.104
  194SOL    HW1  600   1.612   1.462   1.077
  194SOL    HW2  601   1.731   1.437   1.186
  195SOL     OW  602   0.317   0.547   1.280
  195SOL    HW1  603   0.355   0.488   1.352
  195SOL    HW2  604   0.357   0.521   1.192
  196SOL     OW  605   0.812   1.586   0.687
  196SOL    HW1  606   0.844   1.596   0.593
  196SOL    HW2  607   0.733   1.524   0.689
  197SOL     OW  608   1.424   0.214   1.112
  197SOL    HW1  609   1.476   0.149   1.167
  197SOL    HW2  610   1.375   0.277   1.173
  198SOL     OW  611   1.001   0.034   1.154
  198SOL    HW1  612   0.938  -0.038   1.123
  198SOL    HW2  613   1.094  -0.002   1.154
  199SOL     OW  614   0.770   1.330   0.301
  199SOL    HW1  615   0.724   1.243   0.318
  199SOL    HW2  616   0.861   1.327   0.342
  200SOL     OW  617   0.618   1.567   1.284
  200SOL    HW1  618   0.613   1.649   1.341
  200SOL    HW2  619   0.707   1.564   1.239
  201SOL     OW  620   1.352   0.052   0.168
  201SOL    HW1  621   1.387   0.011   0.084
  201SOL    HW2  622   1.262   0.014   0.188
  202SOL     OW  623   1.300   0.453   0.691
  202SOL    HW1  624   1.241   0.533   0.695
  202SOL    HW2  625   1.315   0.418   0.784
  203SOL     OW  626   1.593   0.221   0.882
  203SOL    HW1  627   1.509   0.220   0.936
  203SOL    HW2  628   1.595   0.304   0.826
  204SOL     OW  629   0.039   1.077   0.300
  204SOL    HW1  630   0.138   1.066   0.291
  204SOL    HW2  631  -0.001   0.991   0.332
  205SOL     OW  632   0.875   1.646   0.337
  205SOL    HW1  633   0.798   1.611   0.283
  205SOL    HW2  634   0.843   1.717   0.399
  206SOL     OW  635   0.230   0.628   1.975
  206SOL    HW1  636   0.137   0.626   2.012
  206SOL    HW2  637   0.231   0.589   1.883
  207SOL     OW  638   0.225   0.275   2.858
  207SOL    HW1  639   0.260   0.258   2.950
  207SOL    HW2  640   0.137   0.230   2.846
  208SOL     OW  641   0.019   0.368   2.509
  208SOL    HW1  642  -0.063   0.411   2.548
  208SOL    HW2  643  -0.009   0.295   2.446
  209SOL     OW  644   0.569   1.275   3.027
  209SOL    HW1  645   0.476   1.268   2.990
  209SOL    HW2  646   0.580   1.364   3.071
  210SOL     OW  647   1.555   1.511   2.565
  210SOL    HW1  648   1.498   1.495   2.646
  210SOL    HW2  649   1.496   1.521   2.485
  211SOL     OW  650   1.135   0.703   2.579
  211SOL    HW1  651   1.192   0.781   2.554
  211SOL    HW2  652   1.075   0.729   2.655
  212SOL     OW  653   1.755   0.607   2.093
  212SOL    HW1  654   1.743   0.594   1.994
  212SOL    HW2  655   1.725   0.526   2.142
  213SOL     OW  656   0.768   1.144   2.885
  213SOL    HW1  657   0.690   1.161   2.945
  213SOL    HW2  658   0.802   1.231   2.849
  214SOL     OW  659   0.685   1.012   2.527
  214SOL    HW1  660   0.754   0.996   2.597
  214SOL    HW2  661   0.612   1.069   2.565
  215SOL     OW  662   0.335   1.435   2.923
  215SOL    HW1  663   0.257   1.404   2.870
  215SOL    HW2  664   0.393   1.493   2.866
  216SOL     OW  665   1.603   0.447   2.599
  216SOL    HW1  666   1.529   0.493   2.549
  216SOL    HW2  667   1.654   0.515   2.652
  217SOL     OW  668   0.231   1.713   2.345
  217SOL    HW1  669   0.265   1.790   2.399
  217SOL    HW2  670   0.275   1.713   2.255
  218SOL     OW  671   0.230   1.434   2.400
  218SOL    HW1  672   0.204   1.530   2.400
  218SOL    HW2  673   0.159   1.380   2.445
  219SOL     OW  674   0.240   1.091   2.748
  219SOL    HW1  675   0.254   1.007   2.800
  219SOL    HW2  676   0.185   1.155   2.803
  220SOL     OW  677   0.606   0.964   1.985
  220SOL    HW1  678   0.613   1.048   1.931
  220SOL    HW2  679   0.652   0.977   2.073
  221SOL     OW  680   0.122   0.643   2.425
  221SOL    HW1  681   0.077   0.555   2.442
  221SOL    HW2  682   0.121   0.697   2.509
  222SOL     OW  683   1.842   1.767   2.221
  222SOL    HW1  684   1.896   1.738   2.301
  222SOL    HW2  685   1.872   1.857   2.192
  223SOL     OW  686   0.027   1.596   1.979
  223SOL    HW1  687   0.008   1.500   2.000
  223SOL    HW2  688  -0.006   1.654   2.054
  224SOL     OW  689   1.689   0.922   2.474
  224SOL    HW1  690   1.784   0.893   2.482
  224SOL    HW2  691   1.681   0.987   2.399
  225SOL     OW  692   1.641   1.108   2.294
  225SOL    HW1  693   1.727   1.110   2.242
  225SOL    HW2  694   1.655   1.155   2.382
  226SOL     OW  695   0.613   1.365   2.588
  226SOL    HW1  696   0.564   1.278   2.597
  226SOL    HW2  697   0.590   1.408   2.501
  227SOL     OW  698   0.809   0.004   2.364
  227SOL    HW1  699   0.849   0.095   2.355
  227SOL    HW2  700   0.709   0.012   2.370
  228SOL     OW  701   0.197   0.976   3.126
  228SOL    HW1  702   0.286   0.931   3.112
  228SOL    HW2  703   0.124   0.911   3.107
  229SOL     OW  704   1.525   0.999   2.052
  229SOL    HW1  705   1.462   0.923   2.065
  229SOL    HW2  706   1.573   1.017   2.138
  230SOL     OW  707   1.466   1.417   2.815
  230SOL    HW1  708   1.407   1.423   2.895
  230SOL    HW2  709   1.451   1.329   2.769
  231SOL     OW  710   1.667   1.714   2.434
  231SOL    HW1  711   1.626   1.691   2.346
  231SOL    HW2  712   1.649   1.640   2.499
  232SOL     OW  713   0.598   0.729   2.132
  232SOL    HW1  714   0.622   0.798   2.064
  232SOL    HW2  715   0.520   0.762   2.186
  233SOL     OW  716   1.281   0.345   2.806
  233SOL    HW1  717   1.195   0.295   2.793
  233SOL    HW2  718   1.343   0.291   2.862
  234SOL     OW  719   1.576   1.662   2.169
  234SOL    HW1  720   1.665   1.708   2.172
  234SOL    HW2  721   1.555   1.638   2.074
  235SOL     OW  722   1.041   0.701   2.291
  235SOL    HW1  723   1.067   0.697   2.387
  235SOL    HW2  724   0.956   0.650   2.277
  236SOL     OW  725   0.076   0.811   2.651
  236SOL    HW1  726   0.175   0.799   2.660
  236SOL    HW2  727   0.052   0.906   2.672
  237SOL     OW  728   0.865   0.348   2.057
  237SOL    HW1  729   0.924   0.411   2.008
  237SOL    HW2  730   0.884   0.254   2.028
  238SOL     OW  731   1.362   1.144   2.407
  238SOL    HW1  732   1.445   1.115   2.359
  238SOL    HW2  733   1.313   1.211   2.351
  239SOL     OW  734   0.550   0.196   2.747
  239SOL    HW1  735   0.545   0.191   2.847
  239SOL    HW2  736   0.552   0.292   2.718
  240SOL     OW  737   1.008   1.456   2.339
  240SOL    HW1  738   0.962   1.528   2.287
  240SOL    HW2  739   1.004   1.476   2.437
  241SOL     OW  740   0.351   1.801   2.715
  241SOL    HW1  741   0.401   1.715   2.721
  241SOL    HW2  742   0.416   1.878   2.712
  242SOL     OW  743   1.795   1.066   2.735
  242SOL    HW1  744   1.733   1.051   2.659
  242SOL    HW2  745   1.743   1.077   2.820
  243SOL     OW  746   0.321   0.943   2.104
  243SOL    HW1  747   0.403   0.982   2.062
  243SOL    HW2  748   0.294   0.861   2.055
  244SOL     OW  749   1.458   0.735   2.590
  244SOL    HW1  750   1.453   0.670   2.665
  244SOL    HW2  751   1.538   0.794   2.603
  245SOL     OW  752   1.111   1.776   2.099
  245SOL    HW1  753   1.051   1.714   2.149
  245SOL    HW2  754   1.142   1.732   2.014
  246SOL     OW  755   1.632   1.377   1.943
  246SOL    HW1  756   1.600   1.471   1.933
  246SOL    HW2  757   1.556   1.314   1.931
  247SOL     OW  758   0.464   1.743   2.185
  247SOL    HW1  759   0.497   1.782   2.271
  247SOL    HW2  760   0.540   1.736   2.120
  248SOL     OW  761   1.400   0.107   2.288
  248SOL    HW1  762   1.376   0.070   2.198
  248SOL    HW2  763   1.499   0.123   2.292
  249SOL     OW  764   0.249   1.785   3.103
  249SOL    HW1  765   0.306   1.720   3.153
  249SOL    HW2  766   0.233   1.752   3.010
  250SOL     OW  767   0.940   1.698   2.766
  250SOL    HW1  768   1.020   1.641   2.787
  250SOL    HW2  769   0.891   1.658   2.689
  251SOL     OW  770   0.382   0.700   2.342
  251SOL    HW1  771   0.427   0.610   2.339
  251SOL    HW2  772   0.288   0.689   2.375
  252SOL     OW  773   0.614   0.122   1.979
  252SOL    HW1  774   0.712   0.100   1.986
  252SOL    HW2  775   0.583   0.105   1.886
  253SOL     OW  776   0.803   1.402   2.786
  253SOL    HW1  777   0.893   1.416   2.744
  253SOL    HW2  778   0.732   1.404   2.715
  254SOL     OW  779   0.922   0.503   2.761
  254SOL    HW1  780   0.897   0.494   2.665
  254SOL    HW2  781   0.970   0.421   2.792
  255SOL     OW  782   0.539   0.064   2.374
  255SOL    HW1  783   0.458   0.065   2.432
  255SOL    HW2  784   0.542   0.147   2.319
  256SOL     OW  785   1.434   1.188   1.903
  256SOL    HW1  786   1.466   1.112   1.960
  256SOL    HW2  787   1.342   1.215   1.933
  257SOL     OW  788   0.297   0.035   2.033
  257SOL    HW1  789   0.346   0.119   2.012
  257SOL    HW2  790   0.359  -0.030   2.078
  258SOL     OW  791   0.935   0.236   2.342
  258SOL    HW1  792   0.887   0.277   2.264
  258SOL    HW2  793   1.034   0.234   2.323
  259SOL     OW  794   1.227   1.570   2.655
  259SOL    HW1  795   1.248   1.644   2.590
  259SOL    HW2  796   1.295   1.570   2.728
  260SOL     OW  797   0.459   1.152   2.603
  260SOL    HW1  798   0.388   1.125   2.668
  260SOL    HW2  799   0.433   1.124   2.510
  261SOL     OW  800   1.271   1.797   2.453
  261SOL    HW1  801   1.315   1.861   2.389
  261SOL    HW2  802   1.221   1.849   2.523
  262SOL     OW  803   1.032   0.549   1.878
  262SOL    HW1  804   0.991   0.631   1.839
  262SOL    HW2  805   1.096   0.575   1.951
  263SOL     OW  806   0.866   0.454   2.504
  263SOL    HW1  807   0.834   0.526   2.442
  263SOL    HW2  808   0.890   0.373   2.451
  264SOL     OW  809   1.017   0.039   2.615
  264SOL    HW1  810   0.945   0.044   2.546
  264SOL    HW2  811   0.993  -0.030   2.684
  265SOL     OW  812   1.429   1.173   2.729
  265SOL    HW1  813   1.374   1.089   2.722
  265SOL    HW2  814   1.455   1.202   2.637
  266SOL     OW  815   1.466   0.590   2.854
  266SOL    HW1  816   1.436   0.495   2.861
  266SOL    HW2  817   1.539   0.606   2.920
  267SOL     OW  818   1.857   0.833   2.239
  267SOL    HW1  819   1.899   0.769   2.303
  267SOL    HW2  820   1.819   0.782   2.161
  268SOL     OW  821   0.488   1.385   2.036
  268SOL    HW1  822   0.401   1.370   2.083
  268SOL    HW2  823   0.471   1.411   1.941
  269SOL     OW  824   1.664   1.280   2.519
  269SOL    HW1  825   1.763   1.288   2.533
  269SOL    HW2  826   1.619   1.364   2.550
  270SOL     OW  827   1.390   0.575   1.940
  270SOL    HW1  828   1.336   0.554   2.021
  270SOL    HW2  829   1.481   0.534   1.949
  271SOL     OW  830   0.527   0.256   2.190
  271SOL    HW1  831   0.554   0.197   2.115
  271SOL    HW2  832   0.527   0.351   2.159
  272SOL     OW  833   1.111   1.195   2.962
  272SOL    HW1  834   1.071   1.239   3.043
  272SOL    HW2  835   1.070   1.232   2.879
  273SOL     OW  836   1.638   1.099   2.941
  273SOL    HW1  837   1.643   1.180   3.000
  273SOL    HW2  838   1.552   1.101   2.890
  274SOL     OW  839   0.705   1.050   2.230
  274SOL    HW1  840   0.691   1.057   2.329
  274SOL    HW2  841   0.789   0.999   2.212
  275SOL     OW  842   0.410   0.813   3.113
  275SOL    HW1  843   0.496   0.825   3.163
  275SOL    HW2  844   0.368   0.726   3.140
  276SOL     OW  845   0.367   1.100   2.363
  276SOL    HW1  846   0.360   1.183   2.307
  276SOL    HW2  847   0.371   1.020   2.303
  277SOL     OW  848   0.566   0.537   2.727
  277SOL    HW1  849   0.578   0.603   2.653
  277SOL    HW2  850   0.612   0.571   2.810
  278SOL     OW  851   1.252   1.348   2.250
  278SOL    HW1  852   1.302   1.425   2.290
  278SOL    HW2  853   1.157   1.350   2.282
  279SOL     OW  854   1.272   1.445   3.004
  279SOL    HW1  855   1.319   1.458   3.091
  279SOL    HW2  856   1.206   1.371   3.013
  280SOL     OW  857   1.582   0.639   2.334
  280SOL    HW1  858   1.551   0.700   2.407
  280SOL    HW2  859   1.632   0.691   2.265
  281SOL     OW  860   0.573   0.870   2.891
  281SOL    HW1  861   0.617   0.959   2.882
  281SOL    HW2  862   0.510   0.870   2.968
  282SOL     OW  863   1.209   0.525   2.137
  282SOL    HW1  864   1.222   0.441   2.191
  282SOL    HW2  865   1.180   0.599   2.197
  283SOL     OW  866   0.307   0.213   3.093
  283SOL    HW1  867   0.284   0.250   3.183
  283SOL    HW2  868   0.277   0.118   3.087
  284SOL     OW  869   0.732   0.634   2.926
  284SOL    HW1  870   0.791   0.608   2.850
  284SOL    HW2  871   0.704   0.730   2.915
  285SOL     OW  872   0.307   0.063   2.480
  285SOL    HW1  873   0.296   0.157   2.513
  285SOL    HW2  874   0.302   0.000   2.557
  286SOL     OW  875   1.622   0.367   2.236
  286SOL    HW1  876   1.624   0.291   2.300
  286SOL    HW2  877   1.574   0.444   2.276
  287SOL     OW  878   1.023   0.766   2.828
  287SOL    HW1  879   1.038   0.787   2.924
  287SOL    HW2  880   0.993   0.671   2.819
  288SOL     OW  881   1.540   0.274   1.987
  288SOL    HW1  882   1.479   0.199   2.010
  288SOL    HW2  883   1.562   0.326   2.070
  289SOL     OW  884   1.303   0.838   1.904
  289SOL    HW1  885   1.337   0.745   1.919
  289SOL    HW2  886   1.321   0.865   1.809
  290SOL     OW  887   1.068   1.333   2.711
  290SOL    HW1  888   1.075   1.249   2.656
  290SOL    HW2  889   1.130   1.402   2.675
  291SOL     OW  890   0.319   0.810   2.811
  291SOL    HW1  891   0.412   0.846   2.816
  291SOL    HW2  892   0.313   0.725   2.863
  292SOL     OW  893   0.339   0.509   2.868
  292SOL    HW1  894   0.287   0.426   2.851
  292SOL    HW2  895   0.416   0.514   2.804
  293SOL     OW  896   0.008   1.326   2.062
  293SOL    HW1  897  -0.085   1.347   2.031
  293SOL    HW2  898   0.018   1.227   2.075
  294SOL     OW  899   0.088   1.801   2.789
  294SOL    HW1  900   0.046   1.715   2.762
  294SOL    HW2  901   0.182   1.804   2.755
  295SOL     OW  902   0.504   1.568   2.772
  295SOL    HW1  903   0.570   1.642   2.781
  295SOL    HW2  904   0.548   1.489   2.730
  296SOL     OW  905   1.002   0.796   3.100
  296SOL    HW1  906   1.043   0.764   3.186
  296SOL    HW2  907   0.906   0.769   3.097
  297SOL     OW  908   0.815   0.572   2.187
  297SOL    HW1  909   0.822   0.483   2.141
  297SOL    HW2  910   0.721   0.606   2.179
  298SOL     OW  911   0.671   0.464   3.131
  298SOL    HW1  912   0.637   0.375   3.101
  298SOL    HW2  913   0.697   0.518   3.051
  299SOL     OW  914   0.473   0.500   2.053
  299SOL    HW1  915   0.534   0.580   2.057
  299SOL    HW2  916   0.378   0.531   2.060
  300SOL     OW  917   1.302   0.855   2.171
  300SOL    HW1  918   1.216   0.824   2.213
  300SOL    HW2  919   1.298   0.841   2.072
  301SOL     OW  920   1.759   1.747   3.016
  301SOL    HW1  921   1.820   1.777   2.943
  301SOL    HW2  922   1.721   1.658   2.994
  302SOL     OW  923   0.083   1.258   2.884
  302SOL    HW1  924   0.078   1.257   2.984
  302SOL    HW2  925   0.000   1.217   2.846
  303SOL     OW  926   1.726   0.135   2.385
  303SOL    HW1  927   1.799   0.118   2.318
  303SOL    HW2  928   1.695   0.048   2.423
  304SOL     OW  929   1.388   1.573   2.339
  304SOL    HW1  930   1.455   1.585   2.265
  304SOL    HW2  931   1.348   1.662   2.362
  305SOL     OW  932   1.280   0.927   2.534
  305SOL    HW1  933   1.340   0.846   2.536
  305SOL    HW2  934   1.320   0.996   2.474
  306SOL     OW  935   0.672   1.616   2.016
  306SOL    HW1  936   0.681   1.626   1.917
  306SOL    HW2  937   0.632   1.527   2.037
  307SOL     OW  938   1.841   0.175   2.825
  307SOL    HW1  939   1.880   0.090   2.789
  307SOL    HW2  940   1.743   0.177   2.806
  308SOL     OW  941   0.263   0.326   2.582
  308SOL    HW1  942   0.184   0.377   2.548
  308SOL    HW2  943   0.254   0.311   2.680
  309SOL     OW  944   0.822   1.002   3.234
  309SOL    HW1  945   0.862   1.001   3.142
  309SOL    HW2  946   0.832   1.094   3.274
  310SOL     OW  947   0.916   0.910   2.153
  310SOL    HW1  948   0.979   0.948   2.085
  310SOL    HW2  949   0.956   0.827   2.192
  311SOL     OW  950   1.504   1.607   1.906
  311SOL    HW1  951   1.412   1.644   1.913
  311SOL    HW2  952   1.542   1.627   1.816
  312SOL     OW  953   1.039   1.098   2.558
  312SOL    HW1  954   0.969   1.051   2.612
  312SOL    HW2  955   1.098   1.030   2.515
  313SOL     OW  956   1.014   0.236   2.833
  313SOL    HW1  957   1.006   0.200   2.740
  313SOL    HW2  958   1.012   0.160   2.898
  314SOL     OW  959   0.590   1.487   2.353
  314SOL    HW1  960   0.632   1.429   2.283
  314SOL    HW2  961   0.546   1.566   2.309
  315SOL     OW  962   0.255   1.348   2.152
  315SOL    HW1  963   0.159   1.349   2.125
  315SOL    HW2  964   0.267   1.401   2.236
  316SOL     OW  965   0.075   0.345   1.895
  316SOL    HW1  966  -0.017   0.317   1.866
  316SOL    HW2  967   0.106   0.422   1.839
  317SOL     OW  968   0.072   0.166   2.180
  317SOL    HW1  969   0.055   0.249   2.126
  317SOL    HW2  970   0.162   0.129   2.158
  318SOL     OW  971   1.183   1.335   1.981
  318SOL    HW1  972   1.084   1.324   1.983
  318SOL    HW2  973   1.217   1.350   2.074
  319SOL     OW  974   1.493   1.767   2.821
  319SOL    HW1  975   1.526   1.831   2.752
  319SOL    HW2  976   1.559   1.761   2.896
  320SOL     OW  977   1.674   0.883   3.116
  320SOL    HW1  978   1.647   0.794   3.079
  320SOL    HW2  979   1.675   0.951   3.043
  321SOL     OW  980   1.225   0.325   2.311
  321SOL    HW1  981   1.290   0.251   2.300
  321SOL    HW2  982   1.245   0.375   2.395
  322SOL     OW  983   0.594   0.745   2.514
  322SOL    HW1  984   0.644   0.830   2.495
  322SOL    HW2  985   0.506   0.747   2.466
  323SOL     OW  986   0.859   1.374   1.878
  323SOL    HW1  987   0.813   1.389   1.966
  323SOL    HW2  988   0.903   1.459   1.848
  324SOL     OW  989   0.661   1.790   2.815
  324SOL    HW1  990   0.615   1.878   2.802
  324SOL    HW2  991   0.760   1.802   2.808
  325SOL     OW  992   0.859   0.956   2.723
  325SOL    HW1  993   0.913   0.887   2.771
  325SOL    HW2  994   0.827   1.025   2.789
  326SOL     OW  995   1.083   0.984   1.949
  326SOL    HW1  996   1.060   1.037   1.867
  326SOL    HW2  997   1.164   0.928   1.930
  327SOL     OW  998   1.861   1.569   2.713
  327SOL    HW1  999   1.790   1.557   2.643
  327SOL    HW2 1000   1.862   1.490   2.773
  328SOL     OW 1001   0.079   1.240   2.515
  328SOL    HW1 1002   0.078   1.193   2.603
  328SOL    HW2 1003   0.161   1.212   2.464
  329SOL     OW 1004   1.824   0.192   3.089
  329SOL    HW1 1005   1.820   0.102   3.133
  329SOL    HW2 1006   1.827   0.181   2.990
  330SOL     OW 1007   0.428   0.424   2.382
  330SOL    HW1 1008   0.458   0.352   2.320
  330SOL    HW2 1009   0.389   0.384   2.465
  331SOL     OW 1010   0.812   1.586   2.549
  331SOL    HW1 1011   0.844   1.596   2.455
  331SOL    HW2 1012   0.733   1.524   2.551
  332SOL     OW 1013   1.424   0.214   2.974
  332SOL    HW1 1014   1.476   0.149   3.029
  332SOL    HW2 1015   1.375   0.277   3.035
  333SOL     OW 1016   0.770   1.330   2.163
  333SOL    HW1 1017   0.724   1.243   2.180
  333SOL    HW2 1018   0.861   1.327   2.204
  334SOL     OW 1019   1.352   0.052   2.030
  334SOL    HW1 1020   1.387   0.011   1.946
  334SOL    HW2 1021   1.262   0.014   2.050
  335SOL     OW 1022   1.300   0.453   2.553
  335SOL    HW1 1023   1.241   0.533   2.557
  335SOL    HW2 1024   1.315   0.418   2.646
  336SOL     OW 1025   1.593   0.221   2.744
  336SOL    HW1 1026   1.509   0.220   2.798
  336SOL    HW2 1027   1.595   0.304   2.688
  337SOL     OW 1028   0.039   1.077   2.162
  337SOL    HW1 1029   0.138   1.066   2.153
  337SOL    HW2 1030  -0.001   0.991   2.194
  338SOL     OW 1031   0.875   1.646   2.199
  338SOL    HW1 1032   0.798   1.611   2.145
  338SOL    HW2 1033   0.843   1.717   2.261
  339SOL     OW 1034   0.230   2.490   0.113
  339SOL    HW1 1035   0.137   2.488   0.150
  339SOL    HW2 1036   0.231   2.451   0.021
  340SOL     OW 1037   0.225   2.137   0.996
  340SOL    HW1 1038   0.260   2.120   1.088
  340SOL    HW2 1039   0.137   2.092   0.984
  341SOL     OW 1040   0.019   2.230   0.647
  341SOL    HW1 1041  -0.063   2.273   0.686
  341SOL    HW2 1042  -0.009   2.157   0.584
  342SOL     OW 1043   1.135   2.565   0.717
  342SOL    HW1 1044   1.192   2.643   0.692
  342SOL    HW2 1045   1.075   2.591   0.793
  343SOL     OW 1046   1.755   2.469   0.231
  343SOL    HW1 1047   1.743   2.456   0.132
  343SOL    HW2 1048   1.725   2.388   0.280
  344SOL     OW 1049   0.768   3.006   1.023
  344SOL    HW1 1050   0.690   3.023   1.083
  344SOL    HW2 1051   0.802   3.093   0.987
  345SOL     OW 1052   0.850   2.660   1.823
  345SOL    HW1 1053   0.846   2.736   1.888
  345SOL    HW2 1054   0.872   2.696   1.732
  346SOL     OW 1055   0.685   2.874   0.665
  346SOL    HW1 1056   0.754   2.858   0.735
  346SOL    HW2 1057   0.612   2.931   0.703
  347SOL     OW 1058   1.460   3.367   1.339
  347SOL    HW1 1059   1.484   3.461   1.365
  347SOL    HW2 1060   1.444   3.313   1.421
  348SOL     OW 1061   0.438   2.254   1.499
  348SOL    HW1 1062   0.520   2.198   1.508
  348SOL    HW2 1063   0.357   2.196   1.503
  349SOL     OW 1064   1.603   2.309   0.737
  349SOL    HW1 1065   1.529   2.355   0.687
  349SOL    HW2 1066   1.654   2.377   0.790
  350SOL     OW 1067   0.240   2.953   0.886
  350SOL    HW1 1068   0.254   2.869   0.938
  350SOL    HW2 1069   0.185   3.017   0.941
  351SOL     OW 1070   0.606   2.826   0.123
  351SOL    HW1 1071   0.613   2.910   0.069
  351SOL    HW2 1072   0.652   2.839   0.211
  352SOL     OW 1073   0.122   2.505   0.563
  352SOL    HW1 1074   0.077   2.417   0.580
  352SOL    HW2 1075   0.121   2.559   0.647
  353SOL     OW 1076   1.689   2.784   0.612
  353SOL    HW1 1077   1.784   2.755   0.620
  353SOL    HW2 1078   1.681   2.849   0.537
  354SOL     OW 1079   0.113   2.599   1.597
  354SOL    HW1 1080   0.201   2.586   1.642
  354SOL    HW2 1081   0.100   2.696   1.575
  355SOL     OW 1082   0.613   3.227   0.726
  355SOL    HW1 1083   0.564   3.140   0.735
  355SOL    HW2 1084   0.590   3.270   0.639
  356SOL     OW 1085   1.293   3.090   1.423
  356SOL    HW1 1086   1.330   3.017   1.365
  356SOL    HW2 1087   1.345   3.095   1.508
  357SOL     OW 1088   0.809   1.866   0.502
  357SOL    HW1 1089   0.849   1.957   0.493
  357SOL    HW2 1090   0.709   1.874   0.508
  358SOL     OW 1091   0.197   2.838   1.264
  358SOL    HW1 1092   0.286   2.793   1.250
  358SOL    HW2 1093   0.124   2.773   1.245
  359SOL     OW 1094   1.525   2.861   0.190
  359SOL    HW1 1095   1.462   2.785   0.203
  359SOL    HW2 1096   1.573   2.879   0.276
  360SOL     OW 1097   0.317   2.113   1.801
  360SOL    HW1 1098   0.388   2.184   1.807
  360SOL    HW2 1099   0.229   2.152   1.829
  361SOL     OW 1100   0.598   2.591   0.270
  361SOL    HW1 1101   0.622   2.660   0.202
  361SOL    HW2 1102   0.520   2.624   0.324
  362SOL     OW 1103   1.281   2.207   0.944
  362SOL    HW1 1104   1.195   2.157   0.931
  362SOL    HW2 1105   1.343   2.153   1.000
  363SOL     OW 1106   0.807   2.467   1.465
  363SOL    HW1 1107   0.760   2.464   1.554
  363SOL    HW2 1108   0.756   2.412   1.399
  364SOL     OW 1109   1.394   2.331   1.674
  364SOL    HW1 1110   1.374   2.374   1.762
  364SOL    HW2 1111   1.472   2.269   1.683
  365SOL     OW 1112   0.973   2.752   1.572
  365SOL    HW1 1113   1.019   2.668   1.543
  365SOL    HW2 1114   0.917   2.786   1.497
  366SOL     OW 1115   0.991   2.272   1.242
  366SOL    HW1 1116   0.914   2.306   1.296
  366SOL    HW2 1117   0.957   2.221   1.163
  367SOL     OW 1118   1.041   2.563   0.429
  367SOL    HW1 1119   1.067   2.559   0.525
  367SOL    HW2 1120   0.956   2.512   0.415
  368SOL     OW 1121   0.076   2.673   0.789
  368SOL    HW1 1122   0.175   2.661   0.798
  368SOL    HW2 1123   0.052   2.768   0.810
  369SOL     OW 1124   0.865   2.210   0.195
  369SOL    HW1 1125   0.924   2.273   0.146
  369SOL    HW2 1126   0.884   2.116   0.166
  370SOL     OW 1127   1.719   2.447   1.831
  370SOL    HW1 1128   1.693   2.536   1.795
  370SOL    HW2 1129   1.717   2.379   1.758
  371SOL     OW 1130   0.550   2.058   0.885
  371SOL    HW1 1131   0.545   2.053   0.985
  371SOL    HW2 1132   0.552   2.154   0.856
  372SOL     OW 1133   1.795   2.928   0.873
  372SOL    HW1 1134   1.733   2.913   0.797
  372SOL    HW2 1135   1.743   2.939   0.958
  373SOL     OW 1136   0.321   2.805   0.242
  373SOL    HW1 1137   0.403   2.844   0.200
  373SOL    HW2 1138   0.294   2.723   0.193
  374SOL     OW 1139   1.458   2.597   0.728
  374SOL    HW1 1140   1.453   2.532   0.803
  374SOL    HW2 1141   1.538   2.656   0.741
  375SOL     OW 1142   0.202   2.147   1.498
  375SOL    HW1 1143   0.122   2.207   1.485
  375SOL    HW2 1144   0.192   2.098   1.584
  376SOL     OW 1145   1.400   1.969   0.426
  376SOL    HW1 1146   1.376   1.932   0.336
  376SOL    HW2 1147   1.499   1.985   0.430
  377SOL     OW 1148   0.382   2.562   0.480
  377SOL    HW1 1149   0.427   2.472   0.477
  377SOL    HW2 1150   0.288   2.551   0.513
  378SOL     OW 1151   0.614   1.984   0.117
  378SOL    HW1 1152   0.712   1.962   0.124
  378SOL    HW2 1153   0.583   1.967   0.024
  379SOL     OW 1154   0.781   2.126   1.749
  379SOL    HW1 1155   0.848   2.065   1.792
  379SOL    HW2 1156   0.708   2.145   1.814
  380SOL     OW 1157   1.351   2.452   1.433
  380SOL    HW1 1158   1.379   2.409   1.518
  380SOL    HW2 1159   1.376   2.548   1.434
  381SOL     OW 1160   0.922   2.365   0.899
  381SOL    HW1 1161   0.897   2.356   0.803
  381SOL    HW2 1162   0.970   2.283   0.930
  382SOL     OW 1163   0.539   1.926   0.512
  382SOL    HW1 1164   0.458   1.927   0.570
  382SOL    HW2 1165   0.542   2.009   0.457
  383SOL     OW 1166   0.297   1.897   0.171
  383SOL    HW1 1167   0.346   1.981   0.150
  383SOL    HW2 1168   0.359   1.832   0.216
  384SOL     OW 1169   0.935   2.098   0.480
  384SOL    HW1 1170   0.887   2.139   0.402
  384SOL    HW2 1171   1.034   2.096   0.461
  385SOL     OW 1172   1.076   2.545   1.464
  385SOL    HW1 1173   0.996   2.484   1.467
  385SOL    HW2 1174   1.157   2.492   1.440
  386SOL     OW 1175   0.459   3.014   0.741
  386SOL    HW1 1176   0.388   2.987   0.806
  386SOL    HW2 1177   0.433   2.986   0.648
  387SOL     OW 1178   1.032   2.411   0.016
  387SOL    HW1 1179   0.991   2.493  -0.023
  387SOL    HW2 1180   1.096   2.437   0.089
  388SOL     OW 1181   0.078   2.418   1.386
  388SOL    HW1 1182   0.170   2.417   1.345
  388SOL    HW2 1183   0.072   2.492   1.453
  389SOL     OW 1184   0.561   2.084   1.147
  389SOL    HW1 1185   0.599   2.000   1.184
  389SOL    HW2 1186   0.473   2.103   1.191
  390SOL     OW 1187   0.866   2.316   0.642
  390SOL    HW1 1188   0.834   2.388   0.580
  390SOL    HW2 1189   0.890   2.235   0.589
  391SOL     OW 1190   1.017   1.901   0.753
  391SOL    HW1 1191   0.945   1.906   0.684
  391SOL    HW2 1192   0.993   1.832   0.822
  392SOL     OW 1193   1.429   3.035   0.867
  392SOL    HW1 1194   1.374   2.951   0.860
  392SOL    HW2 1195   1.455   3.064   0.775
  393SOL     OW 1196   1.466   2.452   0.992
  393SOL    HW1 1197   1.436   2.357   0.999
  393SOL    HW2 1198   1.539   2.468   1.058
  394SOL     OW 1199   1.857   2.695   0.377
  394SOL    HW1 1200   1.899   2.631   0.441
  394SOL    HW2 1201   1.819   2.644   0.299
  395SOL     OW 1202   1.390   2.437   0.078
  395SOL    HW1 1203   1.336   2.416   0.159
  395SOL    HW2 1204   1.481   2.396   0.087
  396SOL     OW 1205   0.527   2.118   0.328
  396SOL    HW1 1206   0.554   2.059   0.253
  396SOL    HW2 1207   0.527   2.213   0.297
  397SOL     OW 1208   1.754   3.085   1.588
  397SOL    HW1 1209   1.845   3.046   1.575
  397SOL    HW2 1210   1.762   3.181   1.612
  398SOL     OW 1211   1.638   2.961   1.079
  398SOL    HW1 1212   1.643   3.042   1.138
  398SOL    HW2 1213   1.552   2.963   1.028
  399SOL     OW 1214   0.915   1.951   1.402
  399SOL    HW1 1215   0.940   1.931   1.307
  399SOL    HW2 1216   0.987   2.007   1.444
  400SOL     OW 1217   0.705   2.912   0.368
  400SOL    HW1 1218   0.691   2.919   0.467
  400SOL    HW2 1219   0.789   2.861   0.350
  401SOL     OW 1220   0.410   2.675   1.251
  401SOL    HW1 1221   0.496   2.687   1.301
  401SOL    HW2 1222   0.368   2.588   1.278
  402SOL     OW 1223   1.274   2.248   1.262
  402SOL    HW1 1224   1.295   2.322   1.326
  402SOL    HW2 1225   1.185   2.265   1.219
  403SOL     OW 1226   0.367   2.962   0.501
  403SOL    HW1 1227   0.360   3.045   0.445
  403SOL    HW2 1228   0.371   2.882   0.441
  404SOL     OW 1229   0.566   2.399   0.865
  404SOL    HW1 1230   0.578   2.465   0.791
  404SOL    HW2 1231   0.612   2.433   0.948
  405SOL     OW 1232   1.582   2.501   0.472
  405SOL    HW1 1233   1.551   2.562   0.545
  405SOL    HW2 1234   1.632   2.553   0.403
  406SOL     OW 1235   0.402   2.613   1.598
  406SOL    HW1 1236   0.470   2.668   1.551
  406SOL    HW2 1237   0.442   2.525   1.625
  407SOL     OW 1238   1.587   2.641   1.670
  407SOL    HW1 1239   1.495   2.679   1.665
  407SOL    HW2 1240   1.647   2.688   1.605
  408SOL     OW 1241   1.013   1.967   1.770
  408SOL    HW1 1242   1.019   2.052   1.718
  408SOL    HW2 1243   1.045   1.891   1.713
  409SOL     OW 1244   0.504   1.912   1.740
  409SOL    HW1 1245   0.462   1.855   1.670
  409SOL    HW2 1246   0.438   1.981   1.772
  410SOL     OW 1247   0.573   2.732   1.029
  410SOL    HW1 1248   0.617   2.821   1.020
  410SOL    HW2 1249   0.510   2.732   1.106
  411SOL     OW 1250   1.360   2.724   1.045
  411SOL    HW1 1251   1.285   2.724   0.979
  411SOL    HW2 1252   1.397   2.632   1.054
  412SOL     OW 1253   1.209   2.387   0.275
  412SOL    HW1 1254   1.222   2.303   0.329
  412SOL    HW2 1255   1.180   2.461   0.335
  413SOL     OW 1256   0.307   2.075   1.231
  413SOL    HW1 1257   0.284   2.112   1.321
  413SOL    HW2 1258   0.277   1.980   1.225
  414SOL     OW 1259   0.037   3.172   1.282
  414SOL    HW1 1260   0.090   3.123   1.350
  414SOL    HW2 1261   0.059   3.270   1.287
  415SOL     OW 1262   0.732   2.496   1.064
  415SOL    HW1 1263   0.791   2.470   0.988
  415SOL    HW2 1264   0.704   2.592   1.053
  416SOL     OW 1265   1.728   2.797   1.854
  416SOL    HW1 1266   1.682   2.790   1.765
  416SOL    HW2 1267   1.666   2.841   1.920
  417SOL     OW 1268   0.307   1.925   0.618
  417SOL    HW1 1269   0.296   2.019   0.651
  417SOL    HW2 1270   0.302   1.862   0.695
  418SOL     OW 1271   1.622   2.229   0.374
  418SOL    HW1 1272   1.624   2.153   0.438
  418SOL    HW2 1273   1.574   2.306   0.414
  419SOL     OW 1274   1.023   2.628   0.966
  419SOL    HW1 1275   1.038   2.649   1.062
  419SOL    HW2 1276   0.993   2.533   0.957
  420SOL     OW 1277   0.350   2.760   1.804
  420SOL    HW1 1278   0.426   2.804   1.852
  420SOL    HW2 1279   0.385   2.713   1.722
  421SOL     OW 1280   1.540   2.136   0.125
  421SOL    HW1 1281   1.479   2.061   0.148
  421SOL    HW2 1282   1.562   2.188   0.208
  422SOL     OW 1283   1.303   2.700   0.042
  422SOL    HW1 1284   1.337   2.607   0.057
  422SOL    HW2 1285   1.321   2.727  -0.053
  423SOL     OW 1286   0.319   2.672   0.949
  423SOL    HW1 1287   0.412   2.708   0.954
  423SOL    HW2 1288   0.313   2.587   1.001
  424SOL     OW 1289   0.339   2.371   1.006
  424SOL    HW1 1290   0.287   2.288   0.989
  424SOL    HW2 1291   0.416   2.376   0.942
  425SOL     OW 1292   1.138   2.242   1.678
  425SOL    HW1 1293   1.093   2.305   1.742
  425SOL    HW2 1294   1.231   2.273   1.661
  426SOL     OW 1295   1.160   2.069   1.477
  426SOL    HW1 1296   1.160   2.133   1.554
  426SOL    HW2 1297   1.188   2.117   1.394
  427SOL     OW 1298   1.002   2.658   1.238
  427SOL    HW1 1299   1.043   2.626   1.324
  427SOL    HW2 1300   0.906   2.631   1.235
  428SOL     OW 1301   0.040   2.406   1.114
  428SOL    HW1 1302   0.125   2.373   1.073
  428SOL    HW2 1303   0.053   2.421   1.212
  429SOL     OW 1304   0.189   2.382   1.722
  429SOL    HW1 1305   0.248   2.342   1.652
  429SOL    HW2 1306   0.131   2.453   1.681
  430SOL     OW 1307   1.369   2.812   1.660
  430SOL    HW1 1308   1.408   2.901   1.680
  430SOL    HW2 1309   1.379   2.792   1.563
  431SOL     OW 1310   0.815   2.434   0.325
  431SOL    HW1 1311   0.822   2.345   0.279
  431SOL    HW2 1312   0.721   2.468   0.317
  432SOL     OW 1313   1.657   2.466   1.206
  432SOL    HW1 1314   1.619   2.397   1.268
  432SOL    HW2 1315   1.739   2.430   1.162
  433SOL     OW 1316   0.671   2.326   1.269
  433SOL    HW1 1317   0.637   2.237   1.239
  433SOL    HW2 1318   0.697   2.380   1.189
  434SOL     OW 1319   0.473   2.362   0.191
  434SOL    HW1 1320   0.534   2.442   0.195
  434SOL    HW2 1321   0.378   2.393   0.198
  435SOL     OW 1322   0.159   2.999   1.466
  435SOL    HW1 1323   0.181   2.938   1.542
  435SOL    HW2 1324   0.169   2.950   1.380
  436SOL     OW 1325   1.347   2.921   1.234
  436SOL    HW1 1326   1.371   2.858   1.160
  436SOL    HW2 1327   1.257   2.961   1.216
  437SOL     OW 1328   1.302   2.717   0.309
  437SOL    HW1 1329   1.216   2.686   0.351
  437SOL    HW2 1330   1.298   2.703   0.210
  438SOL     OW 1331   0.083   3.120   1.022
  438SOL    HW1 1332   0.078   3.119   1.122
  438SOL    HW2 1333   0.000   3.079   0.984
  439SOL     OW 1334   0.903   1.948   0.133
  439SOL    HW1 1335   0.954   1.949   0.047
  439SOL    HW2 1336   0.959   1.906   0.204
  440SOL     OW 1337   1.726   1.997   0.523
  440SOL    HW1 1338   1.799   1.980   0.456
  440SOL    HW2 1339   1.695   1.910   0.561
  441SOL     OW 1340   1.280   2.789   0.672
  441SOL    HW1 1341   1.340   2.708   0.674
  441SOL    HW2 1342   1.320   2.858   0.612
  442SOL     OW 1343   1.841   2.037   0.963
  442SOL    HW1 1344   1.880   1.952   0.927
  442SOL    HW2 1345   1.743   2.039   0.944
  443SOL     OW 1346   0.263   2.188   0.720
  443SOL    HW1 1347   0.184   2.239   0.686
  443SOL    HW2 1348   0.254   2.173   0.818
  444SOL     OW 1349   0.822   2.864   1.372
  444SOL    HW1 1350   0.862   2.863   1.280
  444SOL    HW2 1351   0.832   2.956   1.412
  445SOL     OW 1352   0.916   2.772   0.291
  445SOL    HW1 1353   0.979   2.810   0.223
  445SOL    HW2 1354   0.956   2.689   0.330
  446SOL     OW 1355   0.372   3.150   1.490
  446SOL    HW1 1356   0.359   3.243   1.456
  446SOL    HW2 1357   0.288   3.098   1.477
  447SOL     OW 1358   1.014   2.098   0.971
  447SOL    HW1 1359   1.006   2.062   0.878
  447SOL    HW2 1360   1.012   2.022   1.036
  448SOL     OW 1361   1.709   2.247   1.381
  448SOL    HW1 1362   1.782   2.316   1.385
  448SOL    HW2 1363   1.737   2.172   1.322
  449SOL     OW 1364   0.105   2.875   1.726
  449SOL    HW1 1365   0.028   2.842   1.780
  449SOL    HW2 1366   0.190   2.845   1.768
  450SOL     OW 1367   0.672   2.065   1.489
  450SOL    HW1 1368   0.762   2.049   1.449
  450SOL    HW2 1369   0.680   2.070   1.588
  451SOL     OW 1370   0.075   2.207   0.033
  451SOL    HW1 1371  -0.017   2.179   0.004
  451SOL    HW2 1372   0.106   2.284  -0.023
  452SOL     OW 1373   1.440   2.718   1.398
  452SOL    HW1 1374   1.383   2.770   1.335
  452SOL    HW2 1375   1.536   2.730   1.374
  453SOL     OW 1376   0.072   2.028   0.318
  453SOL    HW1 1377   0.055   2.111   0.264
  453SOL    HW2 1378   0.162   1.991   0.296
  454SOL     OW 1379   1.183   3.197   0.119
  454SOL    HW1 1380   1.084   3.186   0.121
  454SOL    HW2 1381   1.217   3.212   0.212
  455SOL     OW 1382   0.613   2.704   1.431
  455SOL    HW1 1383   0.669   2.785   1.414
  455SOL    HW2 1384   0.672   2.624   1.434
  456SOL     OW 1385   0.716   2.427   1.708
  456SOL    HW1 1386   0.735   2.492   1.782
  456SOL    HW2 1387   0.776   2.347   1.717
  457SOL     OW 1388   1.450   3.082   1.633
  457SOL    HW1 1389   1.441   3.072   1.732
  457SOL    HW2 1390   1.546   3.075   1.607
  458SOL     OW 1391   1.674   2.745   1.254
  458SOL    HW1 1392   1.647   2.656   1.217
  458SOL    HW2 1393   1.675   2.813   1.181
  459SOL     OW 1394   1.225   2.187   0.449
  459SOL    HW1 1395   1.290   2.113   0.438
  459SOL    HW2 1396   1.245   2.237   0.533
  460SOL     OW 1397   0.594   2.607   0.652
  460SOL    HW1 1398   0.644   2.692   0.633
  460SOL    HW2 1399   0.506   2.609   0.604
  461SOL     OW 1400   1.777   2.204   1.642
  461SOL    HW1 1401   1.760   2.235   1.548
  461SOL    HW2 1402   1.693   2.167   1.680
  462SOL     OW 1403   1.730   2.796   1.517
  462SOL    HW1 1404   1.768   2.887   1.532
  462SOL    HW2 1405   1.722   2.779   1.418
  463SOL     OW 1406   0.859   2.818   0.861
  463SOL    HW1 1407   0.913   2.749   0.909
  463SOL    HW2 1408   0.827   2.887   0.927
  464SOL     OW 1409   1.083   2.846   0.087
  464SOL    HW1 1410   1.060   2.899   0.005
  464SOL    HW2 1411   1.164   2.790   0.068
  465SOL     OW 1412   0.079   3.102   0.653
  465SOL    HW1 1413   0.078   3.055   0.741
  465SOL    HW2 1414   0.161   3.074   0.602
  466SOL     OW 1415   1.824   2.054   1.227
  466SOL    HW1 1416   1.820   1.964   1.271
  466SOL    HW2 1417   1.827   2.043   1.128
  467SOL     OW 1418   0.428   2.286   0.520
  467SOL    HW1 1419   0.458   2.214   0.458
  467SOL    HW2 1420   0.389   2.246   0.603
  468SOL     OW 1421   0.317   2.409   1.280
  468SOL    HW1 1422   0.355   2.350   1.352
  468SOL    HW2 1423   0.357   2.383   1.192
  469SOL     OW 1424   1.424   2.076   1.112
  469SOL    HW1 1425   1.476   2.011   1.167
  469SOL    HW2 1426   1.375   2.139   1.173
  470SOL     OW 1427   1.001   1.896   1.154
  470SOL    HW1 1428   0.938   1.824   1.123
  470SOL    HW2 1429   1.094   1.860   1.154
  471SOL     OW 1430   0.770   3.192   0.301
  471SOL    HW1 1431   0.724   3.105   0.318
  471SOL    HW2 1432   0.861   3.189   0.342
  472SOL     OW 1433   1.352   1.914   0.168
  472SOL    HW1 1434   1.387   1.873   0.084
  472SOL    HW2 1435   1.262   1.876   0.188
  473SOL     OW 1436   1.300   2.315   0.691
  473SOL    HW1 1437   1.241   2.395   0.695
  473SOL    HW2 1438   1.315   2.280   0.784
  474SOL     OW 1439   1.593   2.083   0.882
  474SOL    HW1 1440   1.509   2.082   0.936
  474SOL    HW2 1441   1.595   2.166   0.826
  475SOL     OW 1442   0.039   2.939   0.300
  475SOL    HW1 1443   0.138   2.928   0.291
  475SOL    HW2 1444  -0.001   2.853   0.332
  476SOL     OW 1445   0.230   2.490   1.975
  476SOL    HW1 1446   0.137   2.488   2.012
  476SOL    HW2 1447   0.231   2.451   1.883
  477SOL     OW 1448   0.225   2.137   2.858
  477SOL    HW1 1449   0.260   2.120   2.950
  477SOL    HW2 1450   0.137   2.092   2.846
  478SOL     OW 1451   0.019   2.230   2.509
  478SOL    HW1 1452  -0.063   2.273   2.548
  478SOL    HW2 1453  -0.009   2.157   2.446
  479SOL     OW 1454   1.135   2.565   2.579
  479SOL    HW1 1455   1.192   2.643   2.554
  479SOL    HW2 1456   1.075   2.591   2.655
  480SOL     OW 1457   1.755   2.469   2.093
  480SOL    HW1 1458   1.743   2.456   1.994
  480SOL    HW2 1459   1.725   2.388   2.142
  481SOL     OW 1460   0.768   3.006   2.885
  481SOL    HW1 1461   0.690   3.023   2.945
  481SOL    HW2 1462   0.802   3.093   2.849
  482SOL     OW 1463   0.685   2.874   2.527
  482SOL    HW1 1464   0.754   2.858   2.597
  482SOL    HW2 1465   0.612   2.931   2.565
  483SOL     OW 1466   1.603   2.309   2.599
  483SOL    HW1 1467   1.529   2.355   2.549
  483SOL    HW2 1468   1.654   2.377   2.652
  484SOL     OW 1469   0.240   2.953   2.748
  484SOL    HW1 1470   0.254   2.869   2.800
  484SOL    HW2 1471   0.185   3.017   2.803
  485SOL     OW 1472   0.606   2.826   1.985
  485SOL    HW1 1473   0.613   2.910   1.931
  485SOL    HW2 1474   0.652   2.839   2.073
  486SOL     OW 1475   0.122   2.505   2.425
  486SOL    HW1 1476   0.077   2.417   2.442
  486SOL    HW2 1477   0.121   2.559   2.509
  487SOL     OW 1478   1.689   2.784   2.474
  487SOL    HW1 1479   1.784   2.755   2.482
  487SOL    HW2 1480   1.681   2.849   2.399
  488SOL     OW 1481   0.613   3.227   2.588
  488SOL    HW1 1482   0.564   3.140   2.597
  488SOL    HW2 1483   0.590   3.270   2.501
  489SOL     OW 1484   0.809   1.866   2.364
  489SOL    HW1 1485   0.849   1.957   2.355
  489SOL    HW2 1486   0.709   1.874   2.370
  490SOL     OW 1487   0.197   2.838   3.126
  490SOL    HW1 1488   0.286   2.793   3.112
  490SOL    HW2 1489   0.124   2.773   3.107
  491SOL     OW 1490   1.525   2.861   2.052
  491SOL    HW1 1491   1.462   2.785   2.065
  491SOL    HW2 1492   1.573   2.879   2.138
  492SOL     OW 1493   0.598   2.591   2.132
  492SOL    HW1 1494   0.622   2.660   2.064
  492SOL    HW2 1495   0.520   2.624   2.186
  493SOL     OW 1496   1.281   2.207   2.806
  493SOL    HW1 1497   1.195   2.157   2.793
  493SOL    HW2 1498   1.343   2.153   2.862
  494SOL     OW 1499   1.041   2.563   2.291
  494SOL    HW1 1500   1.067   2.559   2.387
  494SOL    HW2 1501   0.956   2.512   2.277
  495SOL     OW 1502   0.076   2.673   2.651
  495SOL    HW1 1503   0.175   2.661   2.660
  495SOL    HW2 1504   0.052   2.768   2.672
  496SOL     OW 1505   0.865   2.210   2.057
  496SOL    HW1 1506   0.924   2.273   2.008
  496SOL    HW2 1507   0.884   2.116   2.028
  497SOL     OW 1508   0.550   2.058   2.747
  497SOL    HW1 1509   0.545   2.053   2.847
  497SOL    HW2 1510   0.552   2.154   2.718
  498SOL     OW 1511   1.795   2.928   2.735
  498SOL    HW1 1512   1.733   2.913   2.659
  498SOL    HW2 1513   1.743   2.939   2.820
  499SOL     OW 1514   0.321   2.805   2.104
  499SOL    HW1 1515   0.403   2.844   2.062
  499SOL    HW2 1516   0.294   2.723   2.055
  500SOL     OW 1517   1.458   2.597   2.590
  500SOL    HW1 1518   1.453   2.532   2.665
  500SOL    HW2 1519   1.538   2.656   2.603
  501SOL     OW 1520   1.400   1.969   2.288
  501SOL    HW1 1521   1.376   1.932   2.198
  501SOL    HW2 1522   1.499   1.985   2.292
  502SOL     OW 1523   0.382   2.562   2.342
  502SOL    HW1 1524   0.427   2.472   2.339
  502SOL    HW2 1525   0.288   2.551   2.375
  503SOL     OW 1526   0.614   1.984   1.979
  503SOL    HW1 1527   0.712   1.962   1.986
  503SOL    HW2 1528   0.583   1.967   1.886
  504SOL     OW 1529   0.888   3.376   3.057
  504SOL    HW1 1530   0.865   3.351   2.963
  504SOL    HW2 1531   0.949   3.307   3.096
  505SOL     OW 1532   0.922   2.365   2.761
  505SOL    HW1 1533   0.897   2.356   2.665
  505SOL    HW2 1534   0.970   2.283   2.792
  506SOL     OW 1535   0.539   1.926   2.374
  506SOL    HW1 1536   0.458   1.927   2.432
  506SOL    HW2 1537   0.542   2.009   2.319
  507SOL     OW 1538   0.297   1.897   2.033
  507SOL    HW1 1539   0.346   1.981   2.012
  507SOL    HW2 1540   0.359   1.832   2.078
  508SOL     OW 1541   0.935   2.098   2.342
  508SOL    HW1 1542   0.887   2.139   2.264
  508SOL    HW2 1543   1.034   2.096   2.323
  509SOL     OW 1544   0.459   3.014   2.603
  509SOL    HW1 1545   0.388   2.987   2.668
  509SOL    HW2 1546   0.433   2.986   2.510
  510SOL     OW 1547   1.032   2.411   1.878
  510SOL    HW1 1548   0.991   2.493   1.839
  510SOL    HW2 1549   1.096   2.437   1.951
  511SOL     OW 1550   0.866   2.316   2.504
  511SOL    HW1 1551   0.834   2.388   2.442
  511SOL    HW2 1552   0.890   2.235   2.451
  512SOL     OW 1553   1.017   1.901   2.615
  512SOL    HW1 1554   0.945   1.906   2.546
  512SOL    HW2 1555   0.993   1.832   2.684
  513SOL     OW 1556   1.429   3.035   2.729
  513SOL    HW1 1557   1.374   2.951   2.722
  513SOL    HW2 1558   1.455   3.064   2.637
  514SOL     OW 1559   1.466   2.452   2.854
  514SOL    HW1 1560   1.436   2.357   2.861
  514SOL    HW2 1561   1.539   2.468   2.920
  515SOL     OW 1562   1.857   2.695   2.239
  515SOL    HW1 1563   1.899   2.631   2.303
  515SOL    HW2 1564   1.819   2.644   2.161
  516SOL     OW 1565   1.390   2.437   1.940
  516SOL    HW1 1566   1.336   2.416   2.021
  516SOL    HW2 1567   1.481   2.396   1.949
  517SOL     OW 1568   0.527   2.118   2.190
  517SOL    HW1 1569   0.554   2.059   2.115
  517SOL    HW2 1570   0.527   2.213   2.159
  518SOL     OW 1571   1.111   3.057   2.962
  518SOL    HW1 1572   1.071   3.101   3.043
  518SOL    HW2 1573   1.070   3.094   2.879
  519SOL     OW 1574   1.638   2.961   2.941
  519SOL    HW1 1575   1.643   3.042   3.000
  519SOL    HW2 1576   1.552   2.963   2.890
  520SOL     OW 1577   0.705   2.912   2.230
  520SOL    HW1 1578   0.691   2.919   2.329
  520SOL    HW2 1579   0.789   2.861   2.212
  521SOL     OW 1580   0.410   2.675   3.113
  521SOL    HW1 1581   0.496   2.687   3.163
  521SOL    HW2 1582   0.368   2.588   3.140
  522SOL     OW 1583   0.367   2.962   2.363
  522SOL    HW1 1584   0.360   3.045   2.307
  522SOL    HW2 1585   0.371   2.882   2.303
  523SOL     OW 1586   0.566   2.399   2.727
  523SOL    HW1 1587   0.578   2.465   2.653
  523SOL    HW2 1588   0.612   2.433   2.810
  524SOL     OW 1589   1.582   2.501   2.334
  524SOL    HW1 1590   1.551   2.562   2.407
  524SOL    HW2 1591   1.632   2.553   2.265
  525SOL     OW 1592   0.573   2.732   2.891
  525SOL    HW1 1593   0.617   2.821   2.882
  525SOL    HW2 1594   0.510   2.732   2.968
  526SOL     OW 1595   1.209   2.387   2.137
  526SOL    HW1 1596   1.222   2.303   2.191
  526SOL    HW2 1597   1.180   2.461   2.197
  527SOL     OW 1598   0.307   2.075   3.093
  527SOL    HW1 1599   0.284   2.112   3.183
  527SOL    HW2 1600   0.277   1.980   3.087
  528SOL     OW 1601   0.732   2.496   2.926
  528SOL    HW1 1602   0.791   2.470   2.850
  528SOL    HW2 1603   0.704   2.592   2.915
  529SOL     OW 1604   0.307   1.925   2.480
  529SOL    HW1 1605   0.296   2.019   2.513
  529SOL    HW2 1606   0.302   1.862   2.557
  530SOL     OW 1607   1.622   2.229   2.236
  530SOL    HW1 1608   1.624   2.153   2.300
  530SOL    HW2 1609   1.574   2.306   2.276
  531SOL     OW 1610   1.023   2.628   2.828
  531SOL    HW1 1611   1.038   2.649   2.924
  531SOL    HW2 1612   0.993   2.533   2.819
  532SOL     OW 1613   1.540   2.136   1.987
  532SOL    HW1 1614   1.479   2.061   2.010
  532SOL    HW2 1615   1.562   2.188   2.070
  533SOL     OW 1616   1.303   2.700   1.904
  533SOL    HW1 1617   1.337   2.607   1.919
  533SOL    HW2 1618   1.321   2.727   1.809
  534SOL     OW 1619   0.319   2.672   2.811
  534SOL    HW1 1620   0.412   2.708   2.816
  534SOL    HW2 1621   0.313   2.587   2.863
  535SOL     OW 1622   0.339   2.371   2.868
  535SOL    HW1 1623   0.287   2.288   2.851
  535SOL    HW2 1624   0.416   2.376   2.804
  536SOL     OW 1625   1.002   2.658   3.100
  536SOL    HW1 1626   1.043   2.626   3.186
  536SOL    HW2 1627   0.906   2.631   3.097
  537SOL     OW 1628   0.815   2.434   2.187
  537SOL    HW1 1629   0.822   2.345   2.141
  537SOL    HW2 1630   0.721   2.468   2.179
  538SOL     OW 1631   0.671   2.326   3.131
  538SOL    HW1 1632   0.637   2.237   3.101
  538SOL    HW2 1633   0.697   2.380   3.051
  539SOL     OW 1634   0.473   2.362   2.053
  539SOL    HW1 1635   0.534   2.442   2.057
  539SOL    HW2 1636   0.378   2.393   2.060
  540SOL     OW 1637   1.347   2.921   3.096
  540SOL    HW1 1638   1.371   2.858   3.022
  540SOL    HW2 1639   1.257   2.961   3.078
  541SOL     OW 1640   1.302   2.717   2.171
  541SOL    HW1 1641   1.216   2.686   2.213
  541SOL    HW2 1642   1.298   2.703   2.072
  542SOL     OW 1643   0.083   3.120   2.884
  542SOL    HW1 1644   0.078   3.119   2.984
  542SOL    HW2 1645   0.000   3.079   2.846
  543SOL     OW 1646   1.726   1.997   2.385
  543SOL    HW1 1647   1.799   1.980   2.318
  543SOL    HW2 1648   1.695   1.910   2.423
  544SOL     OW 1649   1.280   2.789   2.534
  544SOL    HW1 1650   1.340   2.708   2.536
  544SOL    HW2 1651   1.320   2.858   2.474
  545SOL     OW 1652   1.841   2.037   2.825
  545SOL    HW1 1653   1.880   1.952   2.789
  545SOL    HW2 1654   1.743   2.039   2.806
  546SOL     OW 1655   0.263   2.188   2.582
  546SOL    HW1 1656   0.184   2.239   2.548
  546SOL    HW2 1657   0.254   2.173   2.680
  547SOL     OW 1658   0.822   2.864   3.234
  547SOL    HW1 1659   0.862   2.863   3.142
  547SOL    HW2 1660   0.832   2.956   3.274
  548SOL     OW 1661   0.916   2.772   2.153
  548SOL    HW1 1662   0.979   2.810   2.085
  548SOL    HW2 1663   0.956   2.689   2.192
  549SOL     OW 1664   1.014   2.098   2.833
  549SOL    HW1 1665   1.006   2.062   2.740
  549SOL    HW2 1666   1.012   2.022   2.898
  550SOL     OW 1667   0.075   2.207   1.895
  550SOL    HW1 1668  -0.017   2.179   1.866
  550SOL    HW2 1669   0.106   2.284   1.839
  551SOL     OW 1670   0.072   2.028   2.180
  551SOL    HW1 1671   0.055   2.111   2.126
  551SOL    HW2 1672   0.162   1.991   2.158
  552SOL     OW 1673   1.183   3.197   1.981
  552SOL    HW1 1674   1.084   3.186   1.983
  552SOL    HW2 1675   1.217   3.212   2.074
  553SOL     OW 1676   1.674   2.745   3.116
  553SOL    HW1 1677   1.647   2.656   3.079
  553SOL    HW2 1678   1.675   2.813   3.043
  554SOL     OW 1679   1.225   2.187   2.311
  554SOL    HW1 1680   1.290   2.113   2.300
  554SOL    HW2 1681   1.245   2.237   2.395
  555SOL     OW 1682   0.594   2.607   2.514
  555SOL    HW1 1683   0.644   2.692   2.495
  555SOL    HW2 1684   0.506   2.609   2.466
  556SOL     OW 1685   1.730   2.796   3.379
  556SOL    HW1 1686   1.768   2.887   3.394
  556SOL    HW2 1687   1.722   2.779   3.280
  557SOL     OW 1688   0.859   2.818   2.723
  557SOL    HW1 1689   0.913   2.749   2.771
  557SOL    HW2 1690   0.827   2.887   2.789
  558SOL     OW 1691   1.083   2.846   1.949
  558SOL    HW1 1692   1.060   2.899   1.867
  558SOL    HW2 1693   1.164   2.790   1.930
  559SOL     OW 1694   0.079   3.102   2.515
  559SOL    HW1 1695   0.078   3.055   2.603
  559SOL    HW2 1696   0.161   3.074   2.464
  560SOL     OW 1697   1.824   2.054   3.089
  560SOL    HW1 1698   1.820   1.964   3.133
  560SOL    HW2 1699   1.827   2.043   2.990
  561SOL     OW 1700   0.428   2.286   2.382
  561SOL    HW1 1701   0.458   2.214   2.320
  561SOL    HW2 1702   0.389   2.246   2.465
  562SOL     OW 1703   1.424   2.076   2.974
  562SOL    HW1 1704   1.476   2.011   3.029
  562SOL    HW2 1705   1.375   2.139   3.035
  563SOL     OW 1706   0.770   3.192   2.163
  563SOL    HW1 1707   0.724   3.105   2.180
  563SOL    HW2 1708   0.861   3.189   2.204
  564SOL     OW 1709   1.352   1.914   2.030
  564SOL    HW1 1710   1.387   1.873   1.946
  564SOL    HW2 1711   1.262   1.876   2.050
  565SOL     OW 1712   1.300   2.315   2.553
  565SOL    HW1 1713   1.241   2.395   2.557
  565SOL    HW2 1714   1.315   2.280   2.646
  566SOL     OW 1715   1.593   2.083   2.744
  566SOL    HW1 1716   1.509   2.082   2.798
  566SOL    HW2 1717   1.595   2.166   2.688
  567SOL     OW 1718   0.039   2.939   2.162
  567SOL    HW1 1719   0.138   2.928   2.153
  567SOL    HW2 1720  -0.001   2.853   2.194
  568SOL     OW 1721   2.092   0.628   0.113
  568SOL    HW1 1722   1.999   0.626   0.150
  568SOL    HW2 1723   2.093   0.589   0.021
  569SOL     OW 1724   2.087   0.275   0.996
  569SOL    HW1 1725   2.122   0.258   1.088
  569SOL    HW2 1726   1.999   0.230   0.984
  570SOL     OW 1727   1.881   0.368   0.647
  570SOL    HW1 1728   1.799   0.411   0.686
  570SOL    HW2 1729   1.853   0.295   0.584
  571SOL     OW 1730   2.431   1.275   1.165
  571SOL    HW1 1731   2.338   1.268   1.128
  571SOL    HW2 1732   2.442   1.364   1.209
  572SOL     OW 1733   2.630   1.144   1.023
  572SOL    HW1 1734   2.552   1.161   1.083
  572SOL    HW2 1735   2.664   1.231   0.987
  573SOL     OW 1736   2.712   0.798   1.823
  573SOL    HW1 1737   2.708   0.874   1.888
  573SOL    HW2 1738   2.734   0.834   1.732
  574SOL     OW 1739   2.547   1.012   0.665
  574SOL    HW1 1740   2.616   0.996   0.735
  574SOL    HW2 1741   2.474   1.069   0.703
  575SOL     OW 1742   2.548   1.161   1.803
  575SOL    HW1 1743   2.608   1.240   1.817
  575SOL    HW2 1744   2.462   1.192   1.762
  576SOL     OW 1745   2.197   1.435   1.061
  576SOL    HW1 1746   2.119   1.404   1.008
  576SOL    HW2 1747   2.255   1.493   1.004
  577SOL     OW 1748   2.300   0.392   1.499
  577SOL    HW1 1749   2.382   0.336   1.508
  577SOL    HW2 1750   2.219   0.334   1.503
  578SOL     OW 1751   2.093   1.713   0.483
  578SOL    HW1 1752   2.127   1.790   0.537
  578SOL    HW2 1753   2.137   1.713   0.393
  579SOL     OW 1754   2.989   1.341   1.690
  579SOL    HW1 1755   3.036   1.341   1.778
  579SOL    HW2 1756   2.941   1.254   1.679
  580SOL     OW 1757   2.092   1.434   0.538
  580SOL    HW1 1758   2.066   1.530   0.538
  580SOL    HW2 1759   2.021   1.380   0.583
  581SOL     OW 1760   2.102   1.091   0.886
  581SOL    HW1 1761   2.116   1.007   0.938
  581SOL    HW2 1762   2.047   1.155   0.941
  582SOL     OW 1763   2.482   1.786   1.439
  582SOL    HW1 1764   2.390   1.769   1.474
  582SOL    HW2 1765   2.510   1.878   1.465
  583SOL     OW 1766   2.468   0.964   0.123
  583SOL    HW1 1767   2.475   1.048   0.069
  583SOL    HW2 1768   2.514   0.977   0.211
  584SOL     OW 1769   1.984   0.643   0.563
  584SOL    HW1 1770   1.939   0.555   0.580
  584SOL    HW2 1771   1.983   0.697   0.647
  585SOL     OW 1772   1.889   1.596   0.117
  585SOL    HW1 1773   1.870   1.500   0.138
  585SOL    HW2 1774   1.856   1.654   0.192
  586SOL     OW 1775   1.975   0.737   1.597
  586SOL    HW1 1776   2.063   0.724   1.642
  586SOL    HW2 1777   1.962   0.834   1.575
  587SOL     OW 1778   2.475   1.365   0.726
  587SOL    HW1 1779   2.426   1.278   0.735
  587SOL    HW2 1780   2.452   1.408   0.639
  588SOL     OW 1781   2.671   0.004   0.502
  588SOL    HW1 1782   2.711   0.095   0.493
  588SOL    HW2 1783   2.571   0.012   0.508
  589SOL     OW 1784   2.059   0.976   1.264
  589SOL    HW1 1785   2.148   0.931   1.250
  589SOL    HW2 1786   1.986   0.911   1.245
  590SOL     OW 1787   2.179   0.251   1.801
  590SOL    HW1 1788   2.250   0.322   1.807
  590SOL    HW2 1789   2.091   0.290   1.829
  591SOL     OW 1790   2.460   0.729   0.270
  591SOL    HW1 1791   2.484   0.798   0.202
  591SOL    HW2 1792   2.382   0.762   0.324
  592SOL     OW 1793   2.669   0.605   1.465
  592SOL    HW1 1794   2.622   0.602   1.554
  592SOL    HW2 1795   2.618   0.550   1.399
  593SOL     OW 1796   2.835   0.890   1.572
  593SOL    HW1 1797   2.881   0.806   1.543
  593SOL    HW2 1798   2.779   0.924   1.497
  594SOL     OW 1799   2.853   0.410   1.242
  594SOL    HW1 1800   2.776   0.444   1.296
  594SOL    HW2 1801   2.819   0.359   1.163
  595SOL     OW 1802   2.903   0.701   0.429
  595SOL    HW1 1803   2.929   0.697   0.525
  595SOL    HW2 1804   2.818   0.650   0.415
  596SOL     OW 1805   1.938   0.811   0.789
  596SOL    HW1 1806   2.037   0.799   0.798
  596SOL    HW2 1807   1.914   0.906   0.810
  597SOL     OW 1808   2.727   0.348   0.195
  597SOL    HW1 1809   2.786   0.411   0.146
  597SOL    HW2 1810   2.746   0.254   0.166
  598SOL     OW 1811   2.412   0.196   0.885
  598SOL    HW1 1812   2.407   0.191   0.985
  598SOL    HW2 1813   2.414   0.292   0.856
  599SOL     OW 1814   2.870   1.456   0.477
  599SOL    HW1 1815   2.824   1.528   0.425
  599SOL    HW2 1816   2.866   1.476   0.575
  600SOL     OW 1817   2.213   1.801   0.853
  600SOL    HW1 1818   2.263   1.715   0.859
  600SOL    HW2 1819   2.278   1.878   0.850
  601SOL     OW 1820   2.183   0.943   0.242
  601SOL    HW1 1821   2.265   0.982   0.200
  601SOL    HW2 1822   2.156   0.861   0.193
  602SOL     OW 1823   2.323   1.266   1.727
  602SOL    HW1 1824   2.273   1.267   1.641
  602SOL    HW2 1825   2.260   1.248   1.803
  603SOL     OW 1826   2.064   0.285   1.498
  603SOL    HW1 1827   1.984   0.345   1.485
  603SOL    HW2 1828   2.054   0.236   1.584
  604SOL     OW 1829   2.326   1.743   0.323
  604SOL    HW1 1830   2.359   1.782   0.409
  604SOL    HW2 1831   2.402   1.736   0.258
  605SOL     OW 1832   2.111   1.785   1.241
  605SOL    HW1 1833   2.168   1.720   1.291
  605SOL    HW2 1834   2.095   1.752   1.148
  606SOL     OW 1835   2.802   1.698   0.904
  606SOL    HW1 1836   2.882   1.641   0.925
  606SOL    HW2 1837   2.753   1.658   0.827
  607SOL     OW 1838   2.244   0.700   0.480
  607SOL    HW1 1839   2.289   0.610   0.477
  607SOL    HW2 1840   2.150   0.689   0.513
  608SOL     OW 1841   2.476   0.122   0.117
  608SOL    HW1 1842   2.574   0.100   0.124
  608SOL    HW2 1843   2.445   0.105   0.024
  609SOL     OW 1844   2.643   0.264   1.749
  609SOL    HW1 1845   2.710   0.203   1.792
  609SOL    HW2 1846   2.570   0.283   1.814
  610SOL     OW 1847   2.750   1.514   1.195
  610SOL    HW1 1848   2.727   1.489   1.101
  610SOL    HW2 1849   2.811   1.445   1.234
  611SOL     OW 1850   2.665   1.402   0.924
  611SOL    HW1 1851   2.755   1.416   0.882
  611SOL    HW2 1852   2.594   1.404   0.853
  612SOL     OW 1853   2.784   0.503   0.899
  612SOL    HW1 1854   2.759   0.494   0.803
  612SOL    HW2 1855   2.832   0.421   0.930
  613SOL     OW 1856   2.401   0.064   0.512
  613SOL    HW1 1857   2.320   0.065   0.570
  613SOL    HW2 1858   2.404   0.147   0.457
  614SOL     OW 1859   3.296   1.188   0.041
  614SOL    HW1 1860   3.328   1.112   0.098
  614SOL    HW2 1861   3.204   1.215   0.071
  615SOL     OW 1862   2.159   0.035   0.171
  615SOL    HW1 1863   2.208   0.119   0.150
  615SOL    HW2 1864   2.221  -0.030   0.216
  616SOL     OW 1865   2.797   0.236   0.480
  616SOL    HW1 1866   2.749   0.277   0.402
  616SOL    HW2 1867   2.896   0.234   0.461
  617SOL     OW 1868   3.089   1.570   0.793
  617SOL    HW1 1869   3.110   1.644   0.728
  617SOL    HW2 1870   3.157   1.570   0.866
  618SOL     OW 1871   2.321   1.152   0.741
  618SOL    HW1 1872   2.250   1.125   0.806
  618SOL    HW2 1873   2.295   1.124   0.648
  619SOL     OW 1874   3.133   1.797   0.591
  619SOL    HW1 1875   3.177   1.861   0.527
  619SOL    HW2 1876   3.083   1.849   0.661
  620SOL     OW 1877   2.894   0.549   0.016
  620SOL    HW1 1878   2.853   0.631  -0.023
  620SOL    HW2 1879   2.958   0.575   0.089
  621SOL     OW 1880   1.940   0.556   1.386
  621SOL    HW1 1881   2.032   0.555   1.345
  621SOL    HW2 1882   1.934   0.630   1.453
  622SOL     OW 1883   2.423   0.222   1.147
  622SOL    HW1 1884   2.461   0.138   1.184
  622SOL    HW2 1885   2.335   0.241   1.191
  623SOL     OW 1886   2.728   0.454   0.642
  623SOL    HW1 1887   2.696   0.526   0.580
  623SOL    HW2 1888   2.752   0.373   0.589
  624SOL     OW 1889   2.879   0.039   0.753
  624SOL    HW1 1890   2.807   0.044   0.684
  624SOL    HW2 1891   2.855  -0.030   0.822
  625SOL     OW 1892   2.350   1.385   0.174
  625SOL    HW1 1893   2.263   1.370   0.221
  625SOL    HW2 1894   2.333   1.411   0.079
  626SOL     OW 1895   2.389   0.256   0.328
  626SOL    HW1 1896   2.416   0.197   0.253
  626SOL    HW2 1897   2.389   0.351   0.297
  627SOL     OW 1898   2.777   0.089   1.402
  627SOL    HW1 1899   2.802   0.069   1.307
  627SOL    HW2 1900   2.849   0.145   1.444
  628SOL     OW 1901   2.842   1.116   1.719
  628SOL    HW1 1902   2.743   1.122   1.729
  628SOL    HW2 1903   2.865   1.036   1.663
  629SOL     OW 1904   2.567   1.050   0.368
  629SOL    HW1 1905   2.553   1.057   0.467
  629SOL    HW2 1906   2.651   0.999   0.350
  630SOL     OW 1907   2.272   0.813   1.251
  630SOL    HW1 1908   2.358   0.825   1.301
  630SOL    HW2 1909   2.230   0.726   1.278
  631SOL     OW 1910   2.229   1.100   0.501
  631SOL    HW1 1911   2.222   1.183   0.445
  631SOL    HW2 1912   2.233   1.020   0.441
  632SOL     OW 1913   2.428   0.537   0.865
  632SOL    HW1 1914   2.440   0.603   0.791
  632SOL    HW2 1915   2.474   0.571   0.948
  633SOL     OW 1916   3.114   1.348   0.388
  633SOL    HW1 1917   3.164   1.425   0.428
  633SOL    HW2 1918   3.019   1.350   0.420
  634SOL     OW 1919   2.216   1.510   1.329
  634SOL    HW1 1920   2.195   1.466   1.242
  634SOL    HW2 1921   2.313   1.536   1.332
  635SOL     OW 1922   2.264   0.751   1.598
  635SOL    HW1 1923   2.332   0.806   1.551
  635SOL    HW2 1924   2.304   0.663   1.625
  636SOL     OW 1925   2.875   0.105   1.770
  636SOL    HW1 1926   2.881   0.190   1.718
  636SOL    HW2 1927   2.907   0.029   1.713
  637SOL     OW 1928   2.366   0.050   1.740
  637SOL    HW1 1929   2.324  -0.007   1.670
  637SOL    HW2 1930   2.300   0.119   1.772
  638SOL     OW 1931   2.435   0.870   1.029
  638SOL    HW1 1932   2.479   0.959   1.020
  638SOL    HW2 1933   2.372   0.870   1.106
  639SOL     OW 1934   3.222   0.862   1.045
  639SOL    HW1 1935   3.147   0.862   0.979
  639SOL    HW2 1936   3.259   0.770   1.054
  640SOL     OW 1937   3.071   0.525   0.275
  640SOL    HW1 1938   3.084   0.441   0.329
  640SOL    HW2 1939   3.042   0.599   0.335
  641SOL     OW 1940   2.169   0.213   1.231
  641SOL    HW1 1941   2.146   0.250   1.321
  641SOL    HW2 1942   2.139   0.118   1.225
  642SOL     OW 1943   2.594   0.634   1.064
  642SOL    HW1 1944   2.653   0.608   0.988
  642SOL    HW2 1945   2.566   0.730   1.053
  643SOL     OW 1946   2.169   0.063   0.618
  643SOL    HW1 1947   2.158   0.157   0.651
  643SOL    HW2 1948   2.164   0.000   0.695
  644SOL     OW 1949   2.885   0.766   0.966
  644SOL    HW1 1950   2.900   0.787   1.062
  644SOL    HW2 1951   2.855   0.671   0.957
  645SOL     OW 1952   2.842   1.573   1.700
  645SOL    HW1 1953   2.822   1.617   1.612
  645SOL    HW2 1954   2.881   1.482   1.684
  646SOL     OW 1955   2.212   0.898   1.804
  646SOL    HW1 1956   2.288   0.942   1.852
  646SOL    HW2 1957   2.247   0.851   1.722
  647SOL     OW 1958   2.930   1.333   0.849
  647SOL    HW1 1959   2.937   1.249   0.794
  647SOL    HW2 1960   2.992   1.402   0.813
  648SOL     OW 1961   2.181   0.810   0.949
  648SOL    HW1 1962   2.274   0.846   0.954
  648SOL    HW2 1963   2.175   0.725   1.001
  649SOL     OW 1964   2.201   0.509   1.006
  649SOL    HW1 1965   2.149   0.426   0.989
  649SOL    HW2 1966   2.278   0.514   0.942
  650SOL     OW 1967   3.000   0.380   1.678
  650SOL    HW1 1968   2.955   0.443   1.742
  650SOL    HW2 1969   3.093   0.411   1.661
  651SOL     OW 1970   3.022   0.207   1.477
  651SOL    HW1 1971   3.022   0.271   1.554
  651SOL    HW2 1972   3.050   0.255   1.394
  652SOL     OW 1973   1.870   1.326   0.200
  652SOL    HW1 1974   1.777   1.347   0.169
  652SOL    HW2 1975   1.880   1.227   0.213
  653SOL     OW 1976   1.950   1.801   0.927
  653SOL    HW1 1977   1.908   1.715   0.900
  653SOL    HW2 1978   2.044   1.804   0.893
  654SOL     OW 1979   2.366   1.568   0.910
  654SOL    HW1 1980   2.432   1.642   0.919
  654SOL    HW2 1981   2.410   1.489   0.868
  655SOL     OW 1982   2.864   0.796   1.238
  655SOL    HW1 1983   2.905   0.764   1.324
  655SOL    HW2 1984   2.768   0.769   1.235
  656SOL     OW 1985   1.902   0.544   1.114
  656SOL    HW1 1986   1.987   0.511   1.073
  656SOL    HW2 1987   1.915   0.559   1.212
  657SOL     OW 1988   2.051   0.520   1.722
  657SOL    HW1 1989   2.110   0.480   1.652
  657SOL    HW2 1990   1.993   0.591   1.681
  658SOL     OW 1991   2.677   0.572   0.325
  658SOL    HW1 1992   2.684   0.483   0.279
  658SOL    HW2 1993   2.583   0.606   0.317
  659SOL     OW 1994   2.114   1.564   1.744
  659SOL    HW1 1995   2.084   1.621   1.820
  659SOL    HW2 1996   2.107   1.467   1.770
  660SOL     OW 1997   2.533   0.464   1.269
  660SOL    HW1 1998   2.499   0.375   1.239
  660SOL    HW2 1999   2.559   0.518   1.189
  661SOL     OW 2000   2.792   1.678   1.465
  661SOL    HW1 2001   2.768   1.660   1.370
  661SOL    HW2 2002   2.822   1.772   1.475
  662SOL     OW 2003   2.335   0.500   0.191
  662SOL    HW1 2004   2.396   0.580   0.195
  662SOL    HW2 2005   2.240   0.531   0.198
  663SOL     OW 2006   2.021   1.137   1.466
  663SOL    HW1 2007   2.043   1.076   1.542
  663SOL    HW2 2008   2.031   1.088   1.380
  664SOL     OW 2009   3.164   0.855   0.309
  664SOL    HW1 2010   3.078   0.824   0.351
  664SOL    HW2 2011   3.160   0.841   0.210
  665SOL     OW 2012   1.945   1.258   1.022
  665SOL    HW1 2013   1.940   1.257   1.122
  665SOL    HW2 2014   1.862   1.217   0.984
  666SOL     OW 2015   2.550   1.662   1.716
  666SOL    HW1 2016   2.494   1.743   1.725
  666SOL    HW2 2017   2.602   1.666   1.630
  667SOL     OW 2018   2.765   0.086   0.133
  667SOL    HW1 2019   2.816   0.087   0.047
  667SOL    HW2 2020   2.821   0.044   0.204
  668SOL     OW 2021   1.992   1.794   1.851
  668SOL    HW1 2022   1.951   1.720   1.904
  668SOL    HW2 2023   2.056   1.845   1.909
  669SOL     OW 2024   2.692   1.273   1.422
  669SOL    HW1 2025   2.687   1.306   1.517
  669SOL    HW2 2026   2.606   1.292   1.376
  670SOL     OW 2027   2.534   1.616   0.154
  670SOL    HW1 2028   2.543   1.626   0.055
  670SOL    HW2 2029   2.494   1.527   0.175
  671SOL     OW 2030   2.125   0.326   0.720
  671SOL    HW1 2031   2.046   0.377   0.686
  671SOL    HW2 2032   2.116   0.311   0.818
  672SOL     OW 2033   2.684   1.002   1.372
  672SOL    HW1 2034   2.724   1.001   1.280
  672SOL    HW2 2035   2.694   1.094   1.412
  673SOL     OW 2036   2.778   0.910   0.291
  673SOL    HW1 2037   2.841   0.948   0.223
  673SOL    HW2 2038   2.818   0.827   0.330
  674SOL     OW 2039   2.234   1.288   1.490
  674SOL    HW1 2040   2.221   1.381   1.456
  674SOL    HW2 2041   2.150   1.236   1.477
  675SOL     OW 2042   2.901   1.098   0.696
  675SOL    HW1 2043   2.831   1.051   0.750
  675SOL    HW2 2044   2.960   1.030   0.653
  676SOL     OW 2045   2.876   0.236   0.971
  676SOL    HW1 2046   2.868   0.200   0.878
  676SOL    HW2 2047   2.874   0.160   1.036
  677SOL     OW 2048   2.452   1.487   0.491
  677SOL    HW1 2049   2.494   1.429   0.421
  677SOL    HW2 2050   2.408   1.566   0.447
  678SOL     OW 2051   2.117   1.348   0.290
  678SOL    HW1 2052   2.021   1.349   0.263
  678SOL    HW2 2053   2.129   1.401   0.374
  679SOL     OW 2054   1.967   1.013   1.726
  679SOL    HW1 2055   1.890   0.980   1.780
  679SOL    HW2 2056   2.052   0.983   1.768
  680SOL     OW 2057   2.534   0.203   1.489
  680SOL    HW1 2058   2.624   0.187   1.449
  680SOL    HW2 2059   2.542   0.208   1.588
  681SOL     OW 2060   1.934   0.166   0.318
  681SOL    HW1 2061   1.917   0.249   0.264
  681SOL    HW2 2062   2.024   0.129   0.296
  682SOL     OW 2063   2.475   0.842   1.431
  682SOL    HW1 2064   2.531   0.923   1.414
  682SOL    HW2 2065   2.534   0.762   1.434
  683SOL     OW 2066   2.578   0.565   1.708
  683SOL    HW1 2067   2.597   0.630   1.782
  683SOL    HW2 2068   2.638   0.485   1.717
  684SOL     OW 2069   2.252   1.741   1.560
  684SOL    HW1 2070   2.161   1.782   1.558
  684SOL    HW2 2071   2.245   1.647   1.592
  685SOL     OW 2072   2.456   0.745   0.652
  685SOL    HW1 2073   2.506   0.830   0.633
  685SOL    HW2 2074   2.368   0.747   0.604
  686SOL     OW 2075   2.721   1.374   0.016
  686SOL    HW1 2076   2.675   1.389   0.104
  686SOL    HW2 2077   2.765   1.459  -0.014
  687SOL     OW 2078   2.523   1.790   0.953
  687SOL    HW1 2079   2.477   1.878   0.940
  687SOL    HW2 2080   2.622   1.802   0.946
  688SOL     OW 2081   2.721   0.956   0.861
  688SOL    HW1 2082   2.775   0.887   0.909
  688SOL    HW2 2083   2.689   1.025   0.927
  689SOL     OW 2084   2.945   0.984   0.087
  689SOL    HW1 2085   2.922   1.037   0.005
  689SOL    HW2 2086   3.026   0.928   0.068
  690SOL     OW 2087   2.083   1.314   1.844
  690SOL    HW1 2088   2.018   1.241   1.823
  690SOL    HW2 2089   2.087   1.328   1.942
  691SOL     OW 2090   1.941   1.240   0.653
  691SOL    HW1 2091   1.940   1.193   0.741
  691SOL    HW2 2092   2.023   1.212   0.602
  692SOL     OW 2093   2.534   1.391   1.624
  692SOL    HW1 2094   2.456   1.341   1.662
  692SOL    HW2 2095   2.531   1.486   1.655
  693SOL     OW 2096   2.290   0.424   0.520
  693SOL    HW1 2097   2.320   0.352   0.458
  693SOL    HW2 2098   2.251   0.384   0.603
  694SOL     OW 2099   2.179   0.547   1.280
  694SOL    HW1 2100   2.217   0.488   1.352
  694SOL    HW2 2101   2.219   0.521   1.192
  695SOL     OW 2102   2.674   1.586   0.687
  695SOL    HW1 2103   2.706   1.596   0.593
  695SOL    HW2 2104   2.595   1.524   0.689
  696SOL     OW 2105   2.863   0.034   1.154
  696SOL    HW1 2106   2.800  -0.038   1.123
  696SOL    HW2 2107   2.956  -0.002   1.154
  697SOL     OW 2108   2.632   1.330   0.301
  697SOL    HW1 2109   2.586   1.243   0.318
  697SOL    HW2 2110   2.723   1.327   0.342
  698SOL     OW 2111   2.480   1.567   1.284
  698SOL    HW1 2112   2.475   1.649   1.341
  698SOL    HW2 2113   2.569   1.564   1.239
  699SOL     OW 2114   1.901   1.077   0.300
  699SOL    HW1 2115   2.000   1.066   0.291
  699SOL    HW2 2116   1.861   0.991   0.332
  700SOL     OW 2117   2.737   1.646   0.337
  700SOL    HW1 2118   2.660   1.611   0.283
  700SOL    HW2 2119   2.705   1.717   0.399
  701SOL     OW 2120   2.092   0.628   1.975
  701SOL    HW1 2121   1.999   0.626   2.012
  701SOL    HW2 2122   2.093   0.589   1.883
  702SOL     OW 2123   2.087   0.275   2.858
  702SOL    HW1 2124   2.122   0.258   2.950
  702SOL    HW2 2125   1.999   0.230   2.846
  703SOL     OW 2126   1.881   0.368   2.509
  703SOL    HW1 2127   1.799   0.411   2.548
  703SOL    HW2 2128   1.853   0.295   2.446
  704SOL     OW 2129   2.431   1.275   3.027
  704SOL    HW1 2130   2.338   1.268   2.990
  704SOL    HW2 2131   2.442   1.364   3.071
  705SOL     OW 2132   2.630   1.144   2.885
  705SOL    HW1 2133   2.552   1.161   2.945
  705SOL    HW2 2134   2.664   1.231   2.849
  706SOL     OW 2135   2.547   1.012   2.527
  706SOL    HW1 2136   2.616   0.996   2.597
  706SOL    HW2 2137   2.474   1.069   2.565
  707SOL     OW 2138   2.197   1.435   2.923
  707SOL    HW1 2139   2.119   1.404   2.870
  707SOL    HW2 2140   2.255   1.493   2.866
  708SOL     OW 2141   2.093   1.713   2.345
  708SOL    HW1 2142   2.127   1.790   2.399
  708SOL    HW2 2143   2.137   1.713   2.255
  709SOL     OW 2144   2.092   1.434   2.400
  709SOL    HW1 2145   2.066   1.530   2.400
  709SOL    HW2 2146   2.021   1.380   2.445
  710SOL     OW 2147   2.102   1.091   2.748
  710SOL    HW1 2148   2.116   1.007   2.800
  710SOL    HW2 2149   2.047   1.155   2.803
  711SOL     OW 2150   2.468   0.964   1.985
  711SOL    HW1 2151   2.475   1.048   1.931
  711SOL    HW2 2152   2.514   0.977   2.073
  712SOL     OW 2153   1.984   0.643   2.425
  712SOL    HW1 2154   1.939   0.555   2.442
  712SOL    HW2 2155   1.983   0.697   2.509
  713SOL     OW 2156   1.889   1.596   1.979
  713SOL    HW1 2157   1.870   1.500   2.000
  713SOL    HW2 2158   1.856   1.654   2.054
  714SOL     OW 2159   2.475   1.365   2.588
  714SOL    HW1 2160   2.426   1.278   2.597
  714SOL    HW2 2161   2.452   1.408   2.501
  715SOL     OW 2162   2.671   0.004   2.364
  715SOL    HW1 2163   2.711   0.095   2.355
  715SOL    HW2 2164   2.571   0.012   2.370
  716SOL     OW 2165   2.059   0.976   3.126
  716SOL    HW1 2166   2.148   0.931   3.112
  716SOL    HW2 2167   1.986   0.911   3.107
  717SOL     OW 2168   2.460   0.729   2.132
  717SOL    HW1 2169   2.484   0.798   2.064
  717SOL    HW2 2170   2.382   0.762   2.186
  718SOL     OW 2171   2.903   0.701   2.291
  718SOL    HW1 2172   2.929   0.697   2.387
  718SOL    HW2 2173   2.818   0.650   2.277
  719SOL     OW 2174   1.938   0.811   2.651
  719SOL    HW1 2175   2.037   0.799   2.660
  719SOL    HW2 2176   1.914   0.906   2.672
  720SOL     OW 2177   2.727   0.348   2.057
  720SOL    HW1 2178   2.786   0.411   2.008
  720SOL    HW2 2179   2.746   0.254   2.028
  721SOL     OW 2180   2.412   0.196   2.747
  721SOL    HW1 2181   2.407   0.191   2.847
  721SOL    HW2 2182   2.414   0.292   2.718
  722SOL     OW 2183   2.870   1.456   2.339
  722SOL    HW1 2184   2.824   1.528   2.287
  722SOL    HW2 2185   2.866   1.476   2.437
  723SOL     OW 2186   2.213   1.801   2.715
  723SOL    HW1 2187   2.263   1.715   2.721
  723SOL    HW2 2188   2.278   1.878   2.712
  724SOL     OW 2189   2.183   0.943   2.104
  724SOL    HW1 2190   2.265   0.982   2.062
  724SOL    HW2 2191   2.156   0.861   2.055
  725SOL     OW 2192   2.326   1.743   2.185
  725SOL    HW1 2193   2.359   1.782   2.271
  725SOL    HW2 2194   2.402   1.736   2.120
  726SOL     OW 2195   2.111   1.785   3.103
  726SOL    HW1 2196   2.168   1.720   3.153
  726SOL    HW2 2197   2.095   1.752   3.010
  727SOL     OW 2198   2.802   1.698   2.766
  727SOL    HW1 2199   2.882   1.641   2.787
  727SOL    HW2 2200   2.753   1.658   2.689
  728SOL     OW 2201   2.244   0.700   2.342
  728SOL    HW1 2202   2.289   0.610   2.339
  728SOL    HW2 2203   2.150   0.689   2.375
  729SOL     OW 2204   2.476   0.122   1.979
  729SOL    HW1 2205   2.574   0.100   1.986
  729SOL    HW2 2206   2.445   0.105   1.886
  730SOL     OW 2207   2.665   1.402   2.786
  730SOL    HW1 2208   2.755   1.416   2.744
  730SOL    HW2 2209   2.594   1.404   2.715
  731SOL     OW 2210   2.784   0.503   2.761
  731SOL    HW1 2211   2.759   0.494   2.665
  731SOL    HW2 2212   2.832   0.421   2.792
  732SOL     OW 2213   2.401   0.064   2.374
  732SOL    HW1 2214   2.320   0.065   2.432
  732SOL    HW2 2215   2.404   0.147   2.319
  733SOL     OW 2216   2.159   0.035   2.033
  733SOL    HW1 2217   2.208   0.119   2.012
  733SOL    HW2 2218   2.221  -0.030   2.078
  734SOL     OW 2219   2.797   0.236   2.342
  734SOL    HW1 2220   2.749   0.277   2.264
  734SOL    HW2 2221   2.896   0.234   2.323
  735SOL     OW 2222   3.089   1.570   2.655
  735SOL    HW1 2223   3.110   1.644   2.590
  735SOL    HW2 2224   3.157   1.570   2.728
  736SOL     OW 2225   2.321   1.152   2.603
  736SOL    HW1 2226   2.250   1.125   2.668
  736SOL    HW2 2227   2.295   1.124   2.510
  737SOL     OW 2228   3.133   1.797   2.453
  737SOL    HW1 2229   3.177   1.861   2.389
  737SOL    HW2 2230   3.083   1.849   2.523
  738SOL     OW 2231   2.894   0.549   1.878
  738SOL    HW1 2232   2.853   0.631   1.839
  738SOL    HW2 2233   2.958   0.575   1.951
  739SOL     OW 2234   2.728   0.454   2.504
  739SOL    HW1 2235   2.696   0.526   2.442
  739SOL    HW2 2236   2.752   0.373   2.451
  740SOL     OW 2237   2.879   0.039   2.615
  740SOL    HW1 2238   2.807   0.044   2.546
  740SOL    HW2 2239   2.855  -0.030   2.684
  741SOL     OW 2240   2.350   1.385   2.036
  741SOL    HW1 2241   2.263   1.370   2.083
  741SOL    HW2 2242   2.333   1.411   1.941
  742SOL     OW 2243   2.389   0.256   2.190
  742SOL    HW1 2244   2.416   0.197   2.115
  742SOL    HW2 2245   2.389   0.351   2.159
  743SOL     OW 2246   2.567   1.050   2.230
  743SOL    HW1 2247   2.553   1.057   2.329
  743SOL    HW2 2248   2.651   0.999   2.212
  744SOL     OW 2249   2.272   0.813   3.113
  744SOL    HW1 2250   2.358   0.825   3.163
  744SOL    HW2 2251   2.230   0.726   3.140
  745SOL     OW 2252   2.229   1.100   2.363
  745SOL    HW1 2253   2.222   1.183   2.307
  745SOL    HW2 2254   2.233   1.020   2.303
  746SOL     OW 2255   2.428   0.537   2.727
  746SOL    HW1 2256   2.440   0.603   2.653
  746SOL    HW2 2257   2.474   0.571   2.810
  747SOL     OW 2258   3.114   1.348   2.250
  747SOL    HW1 2259   3.164   1.425   2.290
  747SOL    HW2 2260   3.019   1.350   2.282
  748SOL     OW 2261   3.134   1.445   3.004
  748SOL    HW1 2262   3.181   1.458   3.091
  748SOL    HW2 2263   3.068   1.371   3.013
  749SOL     OW 2264   2.435   0.870   2.891
  749SOL    HW1 2265   2.479   0.959   2.882
  749SOL    HW2 2266   2.372   0.870   2.968
  750SOL     OW 2267   3.222   0.862   2.907
  750SOL    HW1 2268   3.147   0.862   2.841
  750SOL    HW2 2269   3.259   0.770   2.916
  751SOL     OW 2270   3.071   0.525   2.137
  751SOL    HW1 2271   3.084   0.441   2.191
  751SOL    HW2 2272   3.042   0.599   2.197
  752SOL     OW 2273   2.169   0.213   3.093
  752SOL    HW1 2274   2.146   0.250   3.183
  752SOL    HW2 2275   2.139   0.118   3.087
  753SOL     OW 2276   2.594   0.634   2.926
  753SOL    HW1 2277   2.653   0.608   2.850
  753SOL    HW2 2278   2.566   0.730   2.915
  754SOL     OW 2279   2.169   0.063   2.480
  754SOL    HW1 2280   2.158   0.157   2.513
  754SOL    HW2 2281   2.164   0.000   2.557
  755SOL     OW 2282   2.885   0.766   2.828
  755SOL    HW1 2283   2.900   0.787   2.924
  755SOL    HW2 2284   2.855   0.671   2.819
  756SOL     OW 2285   3.165   0.838   1.904
  756SOL    HW1 2286   3.199   0.745   1.919
  756SOL    HW2 2287   3.183   0.865   1.809
  757SOL     OW 2288   2.930   1.333   2.711
  757SOL    HW1 2289   2.937   1.249   2.656
  757SOL    HW2 2290   2.992   1.402   2.675
  758SOL     OW 2291   2.181   0.810   2.811
  758SOL    HW1 2292   2.274   0.846   2.816
  758SOL    HW2 2293   2.175   0.725   2.863
  759SOL     OW 2294   2.201   0.509   2.868
  759SOL    HW1 2295   2.149   0.426   2.851
  759SOL    HW2 2296   2.278   0.514   2.804
  760SOL     OW 2297   1.870   1.326   2.062
  760SOL    HW1 2298   1.777   1.347   2.031
  760SOL    HW2 2299   1.880   1.227   2.075
  761SOL     OW 2300   1.950   1.801   2.789
  761SOL    HW1 2301   1.908   1.715   2.762
  761SOL    HW2 2302   2.044   1.804   2.755
  762SOL     OW 2303   2.366   1.568   2.772
  762SOL    HW1 2304   2.432   1.642   2.781
  762SOL    HW2 2305   2.410   1.489   2.730
  763SOL     OW 2306   2.864   0.796   3.100
  763SOL    HW1 2307   2.905   0.764   3.186
  763SOL    HW2 2308   2.768   0.769   3.097
  764SOL     OW 2309   1.902   0.544   2.976
  764SOL    HW1 2310   1.987   0.511   2.935
  764SOL    HW2 2311   1.915   0.559   3.074
  765SOL     OW 2312   2.677   0.572   2.187
  765SOL    HW1 2313   2.684   0.483   2.141
  765SOL    HW2 2314   2.583   0.606   2.179
  766SOL     OW 2315   2.533   0.464   3.131
  766SOL    HW1 2316   2.499   0.375   3.101
  766SOL    HW2 2317   2.559   0.518   3.051
  767SOL     OW 2318   2.335   0.500   2.053
  767SOL    HW1 2319   2.396   0.580   2.057
  767SOL    HW2 2320   2.240   0.531   2.060
  768SOL     OW 2321   3.164   0.855   2.171
  768SOL    HW1 2322   3.078   0.824   2.213
  768SOL    HW2 2323   3.160   0.841   2.072
  769SOL     OW 2324   1.945   1.258   2.884
  769SOL    HW1 2325   1.940   1.257   2.984
  769SOL    HW2 2326   1.862   1.217   2.846
  770SOL     OW 2327   2.534   1.616   2.016
  770SOL    HW1 2328   2.543   1.626   1.917
  770SOL    HW2 2329   2.494   1.527   2.037
  771SOL     OW 2330   2.125   0.326   2.582
  771SOL    HW1 2331   2.046   0.377   2.548
  771SOL    HW2 2332   2.116   0.311   2.680
  772SOL     OW 2333   2.684   1.002   3.234
  772SOL    HW1 2334   2.724   1.001   3.142
  772SOL    HW2 2335   2.694   1.094   3.274
  773SOL     OW 2336   2.778   0.910   2.153
  773SOL    HW1 2337   2.841   0.948   2.085
  773SOL    HW2 2338   2.818   0.827   2.192
  774SOL     OW 2339   2.901   1.098   2.558
  774SOL    HW1 2340   2.831   1.051   2.612
  774SOL    HW2 2341   2.960   1.030   2.515
  775SOL     OW 2342   2.876   0.236   2.833
  775SOL    HW1 2343   2.868   0.200   2.740
  775SOL    HW2 2344   2.874   0.160   2.898
  776SOL     OW 2345   2.452   1.487   2.353
  776SOL    HW1 2346   2.494   1.429   2.283
  776SOL    HW2 2347   2.408   1.566   2.309
  777SOL     OW 2348   2.117   1.348   2.152
  777SOL    HW1 2349   2.021   1.349   2.125
  777SOL    HW2 2350   2.129   1.401   2.236
  778SOL     OW 2351   1.937   0.345   1.895
  778SOL    HW1 2352   1.845   0.317   1.866
  778SOL    HW2 2353   1.968   0.422   1.839
  779SOL     OW 2354   1.934   0.166   2.180
  779SOL    HW1 2355   1.917   0.249   2.126
  779SOL    HW2 2356   2.024   0.129   2.158
  780SOL     OW 2357   2.456   0.745   2.514
  780SOL    HW1 2358   2.506   0.830   2.495
  780SOL    HW2 2359   2.368   0.747   2.466
  781SOL     OW 2360   2.721   1.374   1.878
  781SOL    HW1 2361   2.675   1.389   1.966
  781SOL    HW2 2362   2.765   1.459   1.848
  782SOL     OW 2363   2.523   1.790   2.815
  782SOL    HW1 2364   2.477   1.878   2.802
  782SOL    HW2 2365   2.622   1.802   2.808
  783SOL     OW 2366   2.721   0.956   2.723
  783SOL    HW1 2367   2.775   0.887   2.771
  783SOL    HW2 2368   2.689   1.025   2.789
  784SOL     OW 2369   2.945   0.984   1.949
  784SOL    HW1 2370   2.922   1.037   1.867
  784SOL    HW2 2371   3.026   0.928   1.930
  785SOL     OW 2372   1.941   1.240   2.515
  785SOL    HW1 2373   1.940   1.193   2.603
  785SOL    HW2 2374   2.023   1.212   2.464
  786SOL     OW 2375   2.290   0.424   2.382
  786SOL    HW1 2376   2.320   0.352   2.320
  786SOL    HW2 2377   2.251   0.384   2.465
  787SOL     OW 2378   2.674   1.586   2.549
  787SOL    HW1 2379   2.706   1.596   2.455
  787SOL    HW2 2380   2.595   1.524   2.551
  788SOL     OW 2381   2.632   1.330   2.163
  788SOL    HW1 2382   2.586   1.243   2.180
  788SOL    HW2 2383   2.723   1.327   2.204
  789SOL     OW 2384   1.901   1.077   2.162
  789SOL    HW1 2385   2.000   1.066   2.153
  789SOL    HW2 2386   1.861   0.991   2.194
  790SOL     OW 2387   2.737   1.646   2.199
  790SOL    HW1 2388   2.660   1.611   2.145
  790SOL    HW2 2389   2.705   1.717   2.261
  791SOL     OW 2390   2.092   2.490   0.113
  791SOL    HW1 2391   1.999   2.488   0.150
  791SOL    HW2 2392   2.093   2.451   0.021
  792SOL     OW 2393   2.087   2.137   0.996
  792SOL    HW1 2394   2.122   2.120   1.088
  792SOL    HW2 2395   1.999   2.092   0.984
  793SOL     OW 2396   1.881   2.230   0.647
  793SOL    HW1 2397   1.799   2.273   0.686
  793SOL    HW2 2398   1.853   2.157   0.584
  794SOL     OW 2399   2.630   3.006   1.023
  794SOL    HW1 2400   2.552   3.023   1.083
  794SOL    HW2 2401   2.664   3.093   0.987
  795SOL     OW 2402   2.712   2.660   1.823
  795SOL    HW1 2403   2.708   2.736   1.888
  795SOL    HW2 2404   2.734   2.696   1.732
  796SOL     OW 2405   2.547   2.874   0.665
  796SOL    HW1 2406   2.616   2.858   0.735
  796SOL    HW2 2407   2.474   2.931   0.703
  797SOL     OW 2408   2.300   2.254   1.499
  797SOL    HW1 2409   2.382   2.198   1.508
  797SOL    HW2 2410   2.219   2.196   1.503
  798SOL     OW 2411   2.102   2.953   0.886
  798SOL    HW1 2412   2.116   2.869   0.938
  798SOL    HW2 2413   2.047   3.017   0.941
  799SOL     OW 2414   2.468   2.826   0.123
  799SOL    HW1 2415   2.475   2.910   0.069
  799SOL    HW2 2416   2.514   2.839   0.211
  800SOL     OW 2417   1.984   2.505   0.563
  800SOL    HW1 2418   1.939   2.417   0.580
  800SOL    HW2 2419   1.983   2.559   0.647
  801SOL     OW 2420   1.975   2.599   1.597
  801SOL    HW1 2421   2.063   2.586   1.642
  801SOL    HW2 2422   1.962   2.696   1.575
  802SOL     OW 2423   2.475   3.227   0.726
  802SOL    HW1 2424   2.426   3.140   0.735
  802SOL    HW2 2425   2.452   3.270   0.639
  803SOL     OW 2426   2.671   1.866   0.502
  803SOL    HW1 2427   2.711   1.957   0.493
  803SOL    HW2 2428   2.571   1.874   0.508
  804SOL     OW 2429   2.059   2.838   1.264
  804SOL    HW1 2430   2.148   2.793   1.250
  804SOL    HW2 2431   1.986   2.773   1.245
  805SOL     OW 2432   2.179   2.113   1.801
  805SOL    HW1 2433   2.250   2.184   1.807
  805SOL    HW2 2434   2.091   2.152   1.829
  806SOL     OW 2435   2.460   2.591   0.270
  806SOL    HW1 2436   2.484   2.660   0.202
  806SOL    HW2 2437   2.382   2.624   0.324
  807SOL     OW 2438   2.669   2.467   1.465
  807SOL    HW1 2439   2.622   2.464   1.554
  807SOL    HW2 2440   2.618   2.412   1.399
  808SOL     OW 2441   2.835   2.752   1.572
  808SOL    HW1 2442   2.881   2.668   1.543
  808SOL    HW2 2443   2.779   2.786   1.497
  809SOL     OW 2444   2.853   2.272   1.242
  809SOL    HW1 2445   2.776   2.306   1.296
  809SOL    HW2 2446   2.819   2.221   1.163
  810SOL     OW 2447   2.903   2.563   0.429
  810SOL    HW1 2448   2.929   2.559   0.525
  810SOL    HW2 2449   2.818   2.512   0.415
  811SOL     OW 2450   1.938   2.673   0.789
  811SOL    HW1 2451   2.037   2.661   0.798
  811SOL    HW2 2452   1.914   2.768   0.810
  812SOL     OW 2453   2.727   2.210   0.195
  812SOL    HW1 2454   2.786   2.273   0.146
  812SOL    HW2 2455   2.746   2.116   0.166
  813SOL     OW 2456   2.412   2.058   0.885
  813SOL    HW1 2457   2.407   2.053   0.985
  813SOL    HW2 2458   2.414   2.154   0.856
  814SOL     OW 2459   2.183   2.805   0.242
  814SOL    HW1 2460   2.265   2.844   0.200
  814SOL    HW2 2461   2.156   2.723   0.193
  815SOL     OW 2462   2.064   2.147   1.498
  815SOL    HW1 2463   1.984   2.207   1.485
  815SOL    HW2 2464   2.054   2.098   1.584
  816SOL     OW 2465   2.244   2.562   0.480
  816SOL    HW1 2466   2.289   2.472   0.477
  816SOL    HW2 2467   2.150   2.551   0.513
  817SOL     OW 2468   2.476   1.984   0.117
  817SOL    HW1 2469   2.574   1.962   0.124
  817SOL    HW2 2470   2.445   1.967   0.024
  818SOL     OW 2471   2.643   2.126   1.749
  818SOL    HW1 2472   2.710   2.065   1.792
  818SOL    HW2 2473   2.570   2.145   1.814
  819SOL     OW 2474   2.784   2.365   0.899
  819SOL    HW1 2475   2.759   2.356   0.803
  819SOL    HW2 2476   2.832   2.283   0.930
  820SOL     OW 2477   2.401   1.926   0.512
  820SOL    HW1 2478   2.320   1.927   0.570
  820SOL    HW2 2479   2.404   2.009   0.457
  821SOL     OW 2480   2.159   1.897   0.171
  821SOL    HW1 2481   2.208   1.981   0.150
  821SOL    HW2 2482   2.221   1.832   0.216
  822SOL     OW 2483   2.797   2.098   0.480
  822SOL    HW1 2484   2.749   2.139   0.402
  822SOL    HW2 2485   2.896   2.096   0.461
  823SOL     OW 2486   2.321   3.014   0.741
  823SOL    HW1 2487   2.250   2.987   0.806
  823SOL    HW2 2488   2.295   2.986   0.648
  824SOL     OW 2489   2.894   2.411   0.016
  824SOL    HW1 2490   2.853   2.493  -0.023
  824SOL    HW2 2491   2.958   2.437   0.089
  825SOL     OW 2492   1.940   2.418   1.386
  825SOL    HW1 2493   2.032   2.417   1.345
  825SOL    HW2 2494   1.934   2.492   1.453
  826SOL     OW 2495   2.423   2.084   1.147
  826SOL    HW1 2496   2.461   2.000   1.184
  826SOL    HW2 2497   2.335   2.103   1.191
  827SOL     OW 2498   2.728   2.316   0.642
  827SOL    HW1 2499   2.696   2.388   0.580
  827SOL    HW2 2500   2.752   2.235   0.589
  828SOL     OW 2501   2.879   1.901   0.753
  828SOL    HW1 2502   2.807   1.906   0.684
  828SOL    HW2 2503   2.855   1.832   0.822
  829SOL     OW 2504   2.389   2.118   0.328
  829SOL    HW1 2505   2.416   2.059   0.253
  829SOL    HW2 2506   2.389   2.213   0.297
  830SOL     OW 2507   2.777   1.951   1.402
  830SOL    HW1 2508   2.802   1.931   1.307
  830SOL    HW2 2509   2.849   2.007   1.444
  831SOL     OW 2510   2.567   2.912   0.368
  831SOL    HW1 2511   2.553   2.919   0.467
  831SOL    HW2 2512   2.651   2.861   0.350
  832SOL     OW 2513   2.272   2.675   1.251
  832SOL    HW1 2514   2.358   2.687   1.301
  832SOL    HW2 2515   2.230   2.588   1.278
  833SOL     OW 2516   2.229   2.962   0.501
  833SOL    HW1 2517   2.222   3.045   0.445
  833SOL    HW2 2518   2.233   2.882   0.441
  834SOL     OW 2519   2.428   2.399   0.865
  834SOL    HW1 2520   2.440   2.465   0.791
  834SOL    HW2 2521   2.474   2.433   0.948
  835SOL     OW 2522   2.264   2.613   1.598
  835SOL    HW1 2523   2.332   2.668   1.551
  835SOL    HW2 2524   2.304   2.525   1.625
  836SOL     OW 2525   2.875   1.967   1.770
  836SOL    HW1 2526   2.881   2.052   1.718
  836SOL    HW2 2527   2.907   1.891   1.713
  837SOL     OW 2528   2.366   1.912   1.740
  837SOL    HW1 2529   2.324   1.855   1.670
  837SOL    HW2 2530   2.300   1.981   1.772
  838SOL     OW 2531   2.435   2.732   1.029
  838SOL    HW1 2532   2.479   2.821   1.020
  838SOL    HW2 2533   2.372   2.732   1.106
  839SOL     OW 2534   3.222   2.724   1.045
  839SOL    HW1 2535   3.147   2.724   0.979
  839SOL    HW2 2536   3.259   2.632   1.054
  840SOL     OW 2537   3.071   2.387   0.275
  840SOL    HW1 2538   3.084   2.303   0.329
  840SOL    HW2 2539   3.042   2.461   0.335
  841SOL     OW 2540   2.169   2.075   1.231
  841SOL    HW1 2541   2.146   2.112   1.321
  841SOL    HW2 2542   2.139   1.980   1.225
  842SOL     OW 2543   2.594   2.496   1.064
  842SOL    HW1 2544   2.653   2.470   0.988
  842SOL    HW2 2545   2.566   2.592   1.053
  843SOL     OW 2546   2.169   1.925   0.618
  843SOL    HW1 2547   2.158   2.019   0.651
  843SOL    HW2 2548   2.164   1.862   0.695
  844SOL     OW 2549   2.885   2.628   0.966
  844SOL    HW1 2550   2.900   2.649   1.062
  844SOL    HW2 2551   2.855   2.533   0.957
  845SOL     OW 2552   2.212   2.760   1.804
  845SOL    HW1 2553   2.288   2.804   1.852
  845SOL    HW2 2554   2.247   2.713   1.722
  846SOL     OW 2555   2.181   2.672   0.949
  846SOL    HW1 2556   2.274   2.708   0.954
  846SOL    HW2 2557   2.175   2.587   1.001
  847SOL     OW 2558   2.201   2.371   1.006
  847SOL    HW1 2559   2.149   2.288   0.989
  847SOL    HW2 2560   2.278   2.376   0.942
  848SOL     OW 2561   3.000   2.242   1.678
  848SOL    HW1 2562   2.955   2.305   1.742
  848SOL    HW2 2563   3.093   2.273   1.661
  849SOL     OW 2564   3.022   2.069   1.477
  849SOL    HW1 2565   3.022   2.133   1.554
  849SOL    HW2 2566   3.050   2.117   1.394
  850SOL     OW 2567   2.864   2.658   1.238
  850SOL    HW1 2568   2.905   2.626   1.324
  850SOL    HW2 2569   2.768   2.631   1.235
  851SOL     OW 2570   1.902   2.406   1.114
  851SOL    HW1 2571   1.987   2.373   1.073
  851SOL    HW2 2572   1.915   2.421   1.212
  852SOL     OW 2573   2.051   2.382   1.722
  852SOL    HW1 2574   2.110   2.342   1.652
  852SOL    HW2 2575   1.993   2.453   1.681
  853SOL     OW 2576   2.677   2.434   0.325
  853SOL    HW1 2577   2.684   2.345   0.279
  853SOL    HW2 2578   2.583   2.468   0.317
  854SOL     OW 2579   2.533   2.326   1.269
  854SOL    HW1 2580   2.499   2.237   1.239
  854SOL    HW2 2581   2.559   2.380   1.189
  855SOL     OW 2582   2.335   2.362   0.191
  855SOL    HW1 2583   2.396   2.442   0.195
  855SOL    HW2 2584   2.240   2.393   0.198
  856SOL     OW 2585   2.021   2.999   1.466
  856SOL    HW1 2586   2.043   2.938   1.542
  856SOL    HW2 2587   2.031   2.950   1.380
  857SOL     OW 2588   3.164   2.717   0.309
  857SOL    HW1 2589   3.078   2.686   0.351
  857SOL    HW2 2590   3.160   2.703   0.210
  858SOL     OW 2591   2.765   1.948   0.133
  858SOL    HW1 2592   2.816   1.949   0.047
  858SOL    HW2 2593   2.821   1.906   0.204
  859SOL     OW 2594   2.125   2.188   0.720
  859SOL    HW1 2595   2.046   2.239   0.686
  859SOL    HW2 2596   2.116   2.173   0.818
  860SOL     OW 2597   2.684   2.864   1.372
  860SOL    HW1 2598   2.724   2.863   1.280
  860SOL    HW2 2599   2.694   2.956   1.412
  861SOL     OW 2600   2.778   2.772   0.291
  861SOL    HW1 2601   2.841   2.810   0.223
  861SOL    HW2 2602   2.818   2.689   0.330
  862SOL     OW 2603   2.234   3.150   1.490
  862SOL    HW1 2604   2.221   3.243   1.456
  862SOL    HW2 2605   2.150   3.098   1.477
  863SOL     OW 2606   2.876   2.098   0.971
  863SOL    HW1 2607   2.868   2.062   0.878
  863SOL    HW2 2608   2.874   2.022   1.036
  864SOL     OW 2609   1.967   2.875   1.726
  864SOL    HW1 2610   1.890   2.842   1.780
  864SOL    HW2 2611   2.052   2.845   1.768
  865SOL     OW 2612   2.534   2.065   1.489
  865SOL    HW1 2613   2.624   2.049   1.449
  865SOL    HW2 2614   2.542   2.070   1.588
  866SOL     OW 2615   1.934   2.028   0.318
  866SOL    HW1 2616   1.917   2.111   0.264
  866SOL    HW2 2617   2.024   1.991   0.296
  867SOL     OW 2618   2.475   2.704   1.431
  867SOL    HW1 2619   2.531   2.785   1.414
  867SOL    HW2 2620   2.534   2.624   1.434
  868SOL     OW 2621   2.578   2.427   1.708
  868SOL    HW1 2622   2.597   2.492   1.782
  868SOL    HW2 2623   2.638   2.347   1.717
  869SOL     OW 2624   2.456   2.607   0.652
  869SOL    HW1 2625   2.506   2.692   0.633
  869SOL    HW2 2626   2.368   2.609   0.604
  870SOL     OW 2627   2.721   2.818   0.861
  870SOL    HW1 2628   2.775   2.749   0.909
  870SOL    HW2 2629   2.689   2.887   0.927
  871SOL     OW 2630   2.945   2.846   0.087
  871SOL    HW1 2631   2.922   2.899   0.005
  871SOL    HW2 2632   3.026   2.790   0.068
  872SOL     OW 2633   1.941   3.102   0.653
  872SOL    HW1 2634   1.940   3.055   0.741
  872SOL    HW2 2635   2.023   3.074   0.602
  873SOL     OW 2636   2.290   2.286   0.520
  873SOL    HW1 2637   2.320   2.214   0.458
  873SOL    HW2 2638   2.251   2.246   0.603
  874SOL     OW 2639   2.179   2.409   1.280
  874SOL    HW1 2640   2.217   2.350   1.352
  874SOL    HW2 2641   2.219   2.383   1.192
  875SOL     OW 2642   2.863   1.896   1.154
  875SOL    HW1 2643   2.800   1.824   1.123
  875SOL    HW2 2644   2.956   1.860   1.154
  876SOL     OW 2645   2.632   3.192   0.301
  876SOL    HW1 2646   2.586   3.105   0.318
  876SOL    HW2 2647   2.723   3.189   0.342
  877SOL     OW 2648   2.092   2.490   1.975
  877SOL    HW1 2649   1.999   2.488   2.012
  877SOL    HW2 2650   2.093   2.451   1.883
  878SOL     OW 2651   2.087   2.137   2.858
  878SOL    HW1 2652   2.122   2.120   2.950
  878SOL    HW2 2653   1.999   2.092   2.846
  879SOL     OW 2654   1.881   2.230   2.509
  879SOL    HW1 2655   1.799   2.273   2.548
  879SOL    HW2 2656   1.853   2.157   2.446
  880SOL     OW 2657   2.630   3.006   2.885
  880SOL    HW1 2658   2.552   3.023   2.945
  880SOL    HW2 2659   2.664   3.093   2.849
  881SOL     OW 2660   2.547   2.874   2.527
  881SOL    HW1 2661   2.616   2.858   2.597
  881SOL    HW2 2662   2.474   2.931   2.565
  882SOL     OW 2663   2.102   2.953   2.748
  882SOL    HW1 2664   2.116   2.869   2.800
  882SOL    HW2 2665   2.047   3.017   2.803
  883SOL     OW 2666   2.468   2.826   1.985
  883SOL    HW1 2667   2.475   2.910   1.931
  883SOL    HW2 2668   2.514   2.839   2.073
  884SOL     OW 2669   1.984   2.505   2.425
  884SOL    HW1 2670   1.939   2.417   2.442
  884SOL    HW2 2671   1.983   2.559   2.509
  885SOL     OW 2672   2.475   3.227   2.588
  885SOL    HW1 2673   2.426   3.140   2.597
  885SOL    HW2 2674   2.452   3.270   2.501
  886SOL     OW 2675   2.671   1.866   2.364
  886SOL    HW1 2676   2.711   1.957   2.355
  886SOL    HW2 2677   2.571   1.874   2.370
  887SOL     OW 2678   2.059   2.838   3.126
  887SOL    HW1 2679   2.148   2.793   3.112
  887SOL    HW2 2680   1.986   2.773   3.107
  888SOL     OW 2681   2.460   2.591   2.132
  888SOL    HW1 2682   2.484   2.660   2.064
  888SOL    HW2 2683   2.382   2.624   2.186
  889SOL     OW 2684   2.903   2.563   2.291
  889SOL    HW1 2685   2.929   2.559   2.387
  889SOL    HW2 2686   2.818   2.512   2.277
  890SOL     OW 2687   1.938   2.673   2.651
  890SOL    HW1 2688   2.037   2.661   2.660
  890SOL    HW2 2689   1.914   2.768   2.672
  891SOL     OW 2690   2.727   2.210   2.057
  891SOL    HW1 2691   2.786   2.273   2.008
  891SOL    HW2 2692   2.746   2.116   2.028
  892SOL     OW 2693   2.412   2.058   2.747
  892SOL    HW1 2694   2.407   2.053   2.847
  892SOL    HW2 2695   2.414   2.154   2.718
  893SOL     OW 2696   2.183   2.805   2.104
  893SOL    HW1 2697   2.265   2.844   2.062
  893SOL    HW2 2698   2.156   2.723   2.055
  894SOL     OW 2699   2.244   2.562   2.342
  894SOL    HW1 2700   2.289   2.472   2.339
  894SOL    HW2 2701   2.150   2.551   2.375
  895SOL     OW 2702   2.476   1.984   1.979
  895SOL    HW1 2703   2.574   1.962   1.986
  895SOL    HW2 2704   2.445   1.967   1.886
  896SOL     OW 2705   2.750   3.376   3.057
  896SOL    HW1 2706   2.727   3.351   2.963
  896SOL    HW2 2707   2.811   3.307   3.096
  897SOL     OW 2708   2.784   2.365   2.761
  897SOL    HW1 2709   2.759   2.356   2.665
  897SOL    HW2 2710   2.832   2.283   2.792
  898SOL     OW 2711   2.401   1.926   2.374
  898SOL    HW1 2712   2.320   1.927   2.432
  898SOL    HW2 2713   2.404   2.009   2.319
  899SOL     OW 2714   2.159   1.897   2.033
  899SOL    HW1 2715   2.208   1.981   2.012
  899SOL    HW2 2716   2.221   1.832   2.078
  900SOL     OW 2717   2.797   2.098   2.342
  900SOL    HW1 2718   2.749   2.139   2.264
  900SOL    HW2 2719   2.896   2.096   2.323
  901SOL     OW 2720   2.321   3.014   2.603
  901SOL    HW1 2721   2.250   2.987   2.668
  901SOL    HW2 2722   2.295   2.986   2.510
  902SOL     OW 2723   2.894   2.411   1.878
  902SOL    HW1 2724   2.853   2.493   1.839
  902SOL    HW2 2725   2.958   2.437   1.951
  903SOL     OW 2726   2.728   2.316   2.504
  903SOL    HW1 2727   2.696   2.388   2.442
  903SOL    HW2 2728   2.752   2.235   2.451
  904SOL     OW 2729   2.879   1.901   2.615
  904SOL    HW1 2730   2.807   1.906   2.546
  904SOL    HW2 2731   2.855   1.832   2.684
  905SOL     OW 2732   2.389   2.118   2.190
  905SOL    HW1 2733   2.416   2.059   2.115
  905SOL    HW2 2734   2.389   2.213   2.159
  906SOL     OW 2735   2.567   2.912   2.230
  906SOL    HW1 2736   2.553   2.919   2.329
  906SOL    HW2 2737   2.651   2.861   2.212
  907SOL     OW 2738   2.272   2.675   3.113
  907SOL    HW1 2739   2.358   2.687   3.163
  907SOL    HW2 2740   2.230   2.588   3.140
  908SOL     OW 2741   2.229   2.962   2.363
  908SOL    HW1 2742   2.222   3.045   2.307
  908SOL    HW2 2743   2.233   2.882   2.303
  909SOL     OW 2744   2.428   2.399   2.727
  909SOL    HW1 2745   2.440   2.465   2.653
  909SOL    HW2 2746   2.474   2.433   2.810
  910SOL     OW 2747   2.435   2.732   2.891
  910SOL    HW1 2748   2.479   2.821   2.882
  910SOL    HW2 2749   2.372   2.732   2.968
  911SOL     OW 2750   3.222   2.724   2.907
  911SOL    HW1 2751   3.147   2.724   2.841
  911SOL    HW2 2752   3.259   2.632   2.916
  912SOL     OW 2753   3.071   2.387   2.137
  912SOL    HW1 2754   3.084   2.303   2.191
  912SOL    HW2 2755   3.042   2.461   2.197
  913SOL     OW 2756   2.169   2.075   3.093
  913SOL    HW1 2757   2.146   2.112   3.183
  913SOL    HW2 2758   2.139   1.980   3.087
  914SOL     OW 2759   2.594   2.496   2.926
  914SOL    HW1 2760   2.653   2.470   2.850
  914SOL    HW2 2761   2.566   2.592   2.915
  915SOL     OW 2762   2.169   1.925   2.480
  915SOL    HW1 2763   2.158   2.019   2.513
  915SOL    HW2 2764   2.164   1.862   2.557
  916SOL     OW 2765   2.885   2.628   2.828
  916SOL    HW1 2766   2.900   2.649   2.924
  916SOL    HW2 2767   2.855   2.533   2.819
  917SOL     OW 2768   3.165   2.700   1.904
  917SOL    HW1 2769   3.199   2.607   1.919
  917SOL    HW2 2770   3.183   2.727   1.809
  918SOL     OW 2771   2.181   2.672   2.811
  918SOL    HW1 2772   2.274   2.708   2.816
  918SOL    HW2 2773   2.175   2.587   2.863
  919SOL     OW 2774   2.201   2.371   2.868
  919SOL    HW1 2775   2.149   2.288   2.851
  919SOL    HW2 2776   2.278   2.376   2.804
  920SOL     OW 2777   2.864   2.658   3.100
  920SOL    HW1 2778   2.905   2.626   3.186
  920SOL    HW2 2779   2.768   2.631   3.097
  921SOL     OW 2780   1.902   2.406   2.976
  921SOL    HW1 2781   1.987   2.373   2.935
  921SOL    HW2 2782   1.915   2.421   3.074
  922SOL     OW 2783   2.677   2.434   2.187
  922SOL    HW1 2784   2.684   2.345   2.141
  922SOL    HW2 2785   2.583   2.468   2.179
  923SOL     OW 2786   2.533   2.326   3.131
  923SOL    HW1 2787   2.499   2.237   3.101
  923SOL    HW2 2788   2.559   2.380   3.051
  924SOL     OW 2789   2.335   2.362   2.053
  924SOL    HW1 2790   2.396   2.442   2.057
  924SOL    HW2 2791   2.240   2.393   2.060
  925SOL     OW 2792   2.021   2.999   3.328
  925SOL    HW1 2793   2.043   2.938   3.404
  925SOL    HW2 2794   2.031   2.950   3.242
  926SOL     OW 2795   3.164   2.717   2.171
  926SOL    HW1 2796   3.078   2.686   2.213
  926SOL    HW2 2797   3.160   2.703   2.072
  927SOL     OW 2798   2.125   2.188   2.582
  927SOL    HW1 2799   2.046   2.239   2.548
  927SOL    HW2 2800   2.116   2.173   2.680
  928SOL     OW 2801   2.684   2.864   3.234
  928SOL    HW1 2802   2.724   2.863   3.142
  928SOL    HW2 2803   2.694   2.956   3.274
  929SOL     OW 2804   2.778   2.772   2.153
  929SOL    HW1 2805   2.841   2.810   2.085
  929SOL    HW2 2806   2.818   2.689   2.192
  930SOL     OW 2807   2.876   2.098   2.833
  930SOL    HW1 2808   2.868   2.062   2.740
  930SOL    HW2 2809   2.874   2.022   2.898
  931SOL     OW 2810   1.937   2.207   1.895
  931SOL    HW1 2811   1.845   2.179   1.866
  931SOL    HW2 2812   1.968   2.284   1.839
  932SOL     OW 2813   1.934   2.028   2.180
  932SOL    HW1 2814   1.917   2.111   2.126
  932SOL    HW2 2815   2.024   1.991   2.158
  933SOL     OW 2816   2.456   2.607   2.514
  933SOL    HW1 2817   2.506   2.692   2.495
  933SOL    HW2 2818   2.368   2.609   2.466
  934SOL     OW 2819   2.721   2.818   2.723
  934SOL    HW1 2820   2.775   2.749   2.771
  934SOL    HW2 2821   2.689   2.887   2.789
  935SOL     OW 2822   2.945   2.846   1.949
  935SOL    HW1 2823   2.922   2.899   1.867
  935SOL    HW2 2824   3.026   2.790   1.930
  936SOL     OW 2825   1.941   3.102   2.515
  936SOL    HW1 2826   1.940   3.055   2.603
  936SOL    HW2 2827   2.023   3.074   2.464
  937SOL     OW 2828   2.290   2.286   2.382
  937SOL    HW1 2829   2.320   2.214   2.320
  937SOL    HW2 2830   2.251   2.246   2.465
  938SOL     OW 2831   2.632   3.192   2.163
  938SOL    HW1 2832   2.586   3.105   2.180
  938SOL    HW2 2833   2.723   3.189   2.204
  939SOL     OW 2834   1.901   2.939   2.162
  939SOL    HW1 2835   2.000   2.928   2.153
  939SOL    HW2 2836   1.861   2.853   2.194
   3.06424   3.06424   3.06424
