mobley_2402487_GMX.gro created by acpype (v: 2023.10.27) on Thu May 14 13:55:26 2026
 2984
    1MOL     C1    1   1.696   1.632   1.552
    1MOL     C2    2   1.485   1.514   1.467
    1MOL     C3    3   1.929   1.781   1.793
    1MOL     C4    4   1.159   1.348   1.480
    1MOL     C5    5   1.564   1.566   1.584
    1MOL     C6    6   1.880   1.740   1.655
    1MOL     C7    7   1.282   1.404   1.413
    1MOL     O1    8   1.744   1.645   1.441
    1MOL     O2    9   1.520   1.519   1.350
    1MOL     O3   10   1.753   1.675   1.669
    1MOL     O4   11   1.369   1.459   1.513
    1MOL     H1   12   2.026   1.831   1.786
    1MOL     H2   13   1.858   1.849   1.841
    1MOL     H3   14   1.939   1.693   1.858
    1MOL     H4   15   1.091   1.305   1.406
    1MOL     H5   16   1.186   1.270   1.552
    1MOL     H6   17   1.106   1.426   1.536
    1MOL     H7   18   1.584   1.482   1.651
    1MOL     H8   19   1.502   1.641   1.636
    1MOL     H9   20   1.950   1.670   1.608
    1MOL    H10   21   1.868   1.828   1.591
    1MOL    H11   22   1.255   1.483   1.343
    1MOL    H12   23   1.336   1.325   1.360
    2SOL     OW   24   0.230   0.628   0.113
    2SOL    HW1   25   0.137   0.626   0.150
    2SOL    HW2   26   0.231   0.589   0.021
    3SOL     OW   27   0.225   0.275   0.996
    3SOL    HW1   28   0.260   0.258   1.088
    3SOL    HW2   29   0.137   0.230   0.984
    4SOL     OW   30   0.019   0.368   0.647
    4SOL    HW1   31  -0.063   0.411   0.686
    4SOL    HW2   32  -0.009   0.295   0.584
    5SOL     OW   33   0.569   1.275   1.165
    5SOL    HW1   34   0.476   1.268   1.128
    5SOL    HW2   35   0.580   1.364   1.209
    6SOL     OW   36   1.555   1.511   0.703
    6SOL    HW1   37   1.498   1.495   0.784
    6SOL    HW2   38   1.496   1.521   0.623
    7SOL     OW   39   1.135   0.703   0.717
    7SOL    HW1   40   1.192   0.781   0.692
    7SOL    HW2   41   1.075   0.729   0.793
    8SOL     OW   42   1.755   0.607   0.231
    8SOL    HW1   43   1.743   0.594   0.132
    8SOL    HW2   44   1.725   0.526   0.280
    9SOL     OW   45   0.768   1.144   1.023
    9SOL    HW1   46   0.690   1.161   1.083
    9SOL    HW2   47   0.802   1.231   0.987
   10SOL     OW   48   0.850   0.798   1.823
   10SOL    HW1   49   0.846   0.874   1.888
   10SOL    HW2   50   0.872   0.834   1.732
   11SOL     OW   51   0.685   1.012   0.665
   11SOL    HW1   52   0.754   0.996   0.735
   11SOL    HW2   53   0.612   1.069   0.703
   12SOL     OW   54   0.686   1.161   1.803
   12SOL    HW1   55   0.746   1.240   1.817
   12SOL    HW2   56   0.600   1.192   1.762
   13SOL     OW   57   0.335   1.435   1.061
   13SOL    HW1   58   0.257   1.404   1.008
   13SOL    HW2   59   0.393   1.493   1.004
   14SOL     OW   60   0.438   0.392   1.499
   14SOL    HW1   61   0.520   0.336   1.508
   14SOL    HW2   62   0.357   0.334   1.503
   15SOL     OW   63   1.603   0.447   0.737
   15SOL    HW1   64   1.529   0.493   0.687
   15SOL    HW2   65   1.654   0.515   0.790
   16SOL     OW   66   0.231   1.713   0.483
   16SOL    HW1   67   0.265   1.790   0.537
   16SOL    HW2   68   0.275   1.713   0.393
   17SOL     OW   69   1.127   1.341   1.690
   17SOL    HW1   70   1.174   1.341   1.778
   17SOL    HW2   71   1.079   1.254   1.679
   18SOL     OW   72   0.230   1.434   0.538
   18SOL    HW1   73   0.204   1.530   0.538
   18SOL    HW2   74   0.159   1.380   0.583
   19SOL     OW   75   0.240   1.091   0.886
   19SOL    HW1   76   0.254   1.007   0.938
   19SOL    HW2   77   0.185   1.155   0.941
   20SOL     OW   78   0.620   1.786   1.439
   20SOL    HW1   79   0.528   1.769   1.474
   20SOL    HW2   80   0.648   1.878   1.465
   21SOL     OW   81   0.606   0.964   0.123
   21SOL    HW1   82   0.613   1.048   0.069
   21SOL    HW2   83   0.652   0.977   0.211
   22SOL     OW   84   1.594   0.114   1.480
   22SOL    HW1   85   1.576   0.181   1.408
   22SOL    HW2   86   1.591   0.160   1.569
   23SOL     OW   87   0.122   0.643   0.563
   23SOL    HW1   88   0.077   0.555   0.580
   23SOL    HW2   89   0.121   0.697   0.647
   24SOL     OW   90   1.842   1.767   0.359
   24SOL    HW1   91   1.896   1.738   0.439
   24SOL    HW2   92   1.872   1.857   0.330
   25SOL     OW   93   0.027   1.596   0.117
   25SOL    HW1   94   0.008   1.500   0.138
   25SOL    HW2   95  -0.006   1.654   0.192
   26SOL     OW   96   1.689   0.922   0.612
   26SOL    HW1   97   1.784   0.893   0.620
   26SOL    HW2   98   1.681   0.987   0.537
   27SOL     OW   99   1.641   1.108   0.432
   27SOL    HW1  100   1.727   1.110   0.380
   27SOL    HW2  101   1.655   1.155   0.520
   28SOL     OW  102   0.113   0.737   1.597
   28SOL    HW1  103   0.201   0.724   1.642
   28SOL    HW2  104   0.100   0.834   1.575
   29SOL     OW  105   0.613   1.365   0.726
   29SOL    HW1  106   0.564   1.278   0.735
   29SOL    HW2  107   0.590   1.408   0.639
   30SOL     OW  108   0.809   0.004   0.502
   30SOL    HW1  109   0.849   0.095   0.493
   30SOL    HW2  110   0.709   0.012   0.508
   31SOL     OW  111   0.197   0.976   1.264
   31SOL    HW1  112   0.286   0.931   1.250
   31SOL    HW2  113   0.124   0.911   1.245
   32SOL     OW  114   1.525   0.999   0.190
   32SOL    HW1  115   1.462   0.923   0.203
   32SOL    HW2  116   1.573   1.017   0.276
   33SOL     OW  117   1.187   1.792   1.616
   33SOL    HW1  118   1.211   1.852   1.540
   33SOL    HW2  119   1.194   1.697   1.586
   34SOL     OW  120   0.317   0.251   1.801
   34SOL    HW1  121   0.388   0.322   1.807
   34SOL    HW2  122   0.229   0.290   1.829
   35SOL     OW  123   1.466   1.417   0.953
   35SOL    HW1  124   1.407   1.423   1.033
   35SOL    HW2  125   1.451   1.329   0.907
   36SOL     OW  126   1.667   1.714   0.572
   36SOL    HW1  127   1.626   1.691   0.484
   36SOL    HW2  128   1.649   1.640   0.637
   37SOL     OW  129   0.598   0.729   0.270
   37SOL    HW1  130   0.622   0.798   0.202
   37SOL    HW2  131   0.520   0.762   0.324
   38SOL     OW  132   1.281   0.345   0.944
   38SOL    HW1  133   1.195   0.295   0.931
   38SOL    HW2  134   1.343   0.291   1.000
   39SOL     OW  135   1.576   1.662   0.307
   39SOL    HW1  136   1.665   1.708   0.310
   39SOL    HW2  137   1.555   1.638   0.212
   40SOL     OW  138   0.807   0.605   1.465
   40SOL    HW1  139   0.760   0.602   1.554
   40SOL    HW2  140   0.756   0.550   1.399
   41SOL     OW  141   1.394   0.469   1.674
   41SOL    HW1  142   1.374   0.512   1.762
   41SOL    HW2  143   1.472   0.407   1.683
   42SOL     OW  144   0.973   0.890   1.572
   42SOL    HW1  145   1.019   0.806   1.543
   42SOL    HW2  146   0.917   0.924   1.497
   43SOL     OW  147   0.991   0.410   1.242
   43SOL    HW1  148   0.914   0.444   1.296
   43SOL    HW2  149   0.957   0.359   1.163
   44SOL     OW  150   1.041   0.701   0.429
   44SOL    HW1  151   1.067   0.697   0.525
   44SOL    HW2  152   0.956   0.650   0.415
   45SOL     OW  153   0.076   0.811   0.789
   45SOL    HW1  154   0.175   0.799   0.798
   45SOL    HW2  155   0.052   0.906   0.810
   46SOL     OW  156   0.130   1.821   1.571
   46SOL    HW1  157   0.120   1.806   1.670
   46SOL    HW2  158   0.044   1.857   1.535
   47SOL     OW  159   0.865   0.348   0.195
   47SOL    HW1  160   0.924   0.411   0.146
   47SOL    HW2  161   0.884   0.254   0.166
   48SOL     OW  162   1.719   0.585   1.831
   48SOL    HW1  163   1.693   0.674   1.795
   48SOL    HW2  164   1.717   0.517   1.758
   49SOL     OW  165   1.362   1.144   0.545
   49SOL    HW1  166   1.445   1.115   0.497
   49SOL    HW2  167   1.313   1.211   0.489
   50SOL     OW  168   0.550   0.196   0.885
   50SOL    HW1  169   0.545   0.191   0.985
   50SOL    HW2  170   0.552   0.292   0.856
   51SOL     OW  171   1.008   1.456   0.477
   51SOL    HW1  172   0.962   1.528   0.425
   51SOL    HW2  173   1.004   1.476   0.575
   52SOL     OW  174   0.351   1.801   0.853
   52SOL    HW1  175   0.401   1.715   0.859
   52SOL    HW2  176   0.416   1.878   0.850
   53SOL     OW  177   1.795   1.066   0.873
   53SOL    HW1  178   1.733   1.051   0.797
   53SOL    HW2  179   1.743   1.077   0.958
   54SOL     OW  180   0.321   0.943   0.242
   54SOL    HW1  181   0.403   0.982   0.200
   54SOL    HW2  182   0.294   0.861   0.193
   55SOL     OW  183   1.458   0.735   0.728
   55SOL    HW1  184   1.453   0.670   0.803
   55SOL    HW2  185   1.538   0.794   0.741
   56SOL     OW  186   0.461   1.266   1.727
   56SOL    HW1  187   0.411   1.267   1.641
   56SOL    HW2  188   0.398   1.248   1.803
   57SOL     OW  189   1.111   1.776   0.237
   57SOL    HW1  190   1.051   1.714   0.287
   57SOL    HW2  191   1.142   1.732   0.152
   58SOL     OW  192   0.202   0.285   1.498
   58SOL    HW1  193   0.122   0.345   1.485
   58SOL    HW2  194   0.192   0.236   1.584
   59SOL     OW  195   1.632   1.377   0.081
   59SOL    HW1  196   1.600   1.471   0.071
   59SOL    HW2  197   1.556   1.314   0.069
   60SOL     OW  198   0.464   1.743   0.323
   60SOL    HW1  199   0.497   1.782   0.409
   60SOL    HW2  200   0.540   1.736   0.258
   61SOL     OW  201   1.400   0.107   0.426
   61SOL    HW1  202   1.376   0.070   0.336
   61SOL    HW2  203   1.499   0.123   0.430
   62SOL     OW  204   0.249   1.785   1.241
   62SOL    HW1  205   0.306   1.720   1.291
   62SOL    HW2  206   0.233   1.752   1.148
   63SOL     OW  207   0.940   1.698   0.904
   63SOL    HW1  208   1.020   1.641   0.925
   63SOL    HW2  209   0.891   1.658   0.827
   64SOL     OW  210   0.382   0.700   0.480
   64SOL    HW1  211   0.427   0.610   0.477
   64SOL    HW2  212   0.288   0.689   0.513
   65SOL     OW  213   1.547   0.222   1.729
   65SOL    HW1  214   1.542   0.259   1.821
   65SOL    HW2  215   1.475   0.153   1.717
   66SOL     OW  216   0.614   0.122   0.117
   66SOL    HW1  217   0.712   0.100   0.124
   66SOL    HW2  218   0.583   0.105   0.024
   67SOL     OW  219   0.781   0.264   1.749
   67SOL    HW1  220   0.848   0.203   1.792
   67SOL    HW2  221   0.708   0.283   1.814
   68SOL     OW  222   0.888   1.514   1.195
   68SOL    HW1  223   0.865   1.489   1.101
   68SOL    HW2  224   0.949   1.445   1.234
   69SOL     OW  225   1.351   0.590   1.433
   69SOL    HW1  226   1.379   0.547   1.518
   69SOL    HW2  227   1.376   0.686   1.434
   70SOL     OW  228   0.803   1.402   0.924
   70SOL    HW1  229   0.893   1.416   0.882
   70SOL    HW2  230   0.732   1.404   0.853
   71SOL     OW  231   0.922   0.503   0.899
   71SOL    HW1  232   0.897   0.494   0.803
   71SOL    HW2  233   0.970   0.421   0.930
   72SOL     OW  234   0.539   0.064   0.512
   72SOL    HW1  235   0.458   0.065   0.570
   72SOL    HW2  236   0.542   0.147   0.457
   73SOL     OW  237   1.434   1.188   0.041
   73SOL    HW1  238   1.466   1.112   0.098
   73SOL    HW2  239   1.342   1.215   0.071
   74SOL     OW  240   0.297   0.035   0.171
   74SOL    HW1  241   0.346   0.119   0.150
   74SOL    HW2  242   0.359  -0.030   0.216
   75SOL     OW  243   0.935   0.236   0.480
   75SOL    HW1  244   0.887   0.277   0.402
   75SOL    HW2  245   1.034   0.234   0.461
   76SOL     OW  246   1.076   0.683   1.464
   76SOL    HW1  247   0.996   0.622   1.467
   76SOL    HW2  248   1.157   0.630   1.440
   77SOL     OW  249   1.227   1.570   0.793
   77SOL    HW1  250   1.248   1.644   0.728
   77SOL    HW2  251   1.295   1.570   0.866
   78SOL     OW  252   0.459   1.152   0.741
   78SOL    HW1  253   0.388   1.125   0.806
   78SOL    HW2  254   0.433   1.124   0.648
   79SOL     OW  255   1.271   1.797   0.591
   79SOL    HW1  256   1.315   1.861   0.527
   79SOL    HW2  257   1.221   1.849   0.661
   80SOL     OW  258   1.032   0.549   0.016
   80SOL    HW1  259   0.991   0.631  -0.023
   80SOL    HW2  260   1.096   0.575   0.089
   81SOL     OW  261   0.078   0.556   1.386
   81SOL    HW1  262   0.170   0.555   1.345
   81SOL    HW2  263   0.072   0.630   1.453
   82SOL     OW  264   0.561   0.222   1.147
   82SOL    HW1  265   0.599   0.138   1.184
   82SOL    HW2  266   0.473   0.241   1.191
   83SOL     OW  267   0.866   0.454   0.642
   83SOL    HW1  268   0.834   0.526   0.580
   83SOL    HW2  269   0.890   0.373   0.589
   84SOL     OW  270   1.017   0.039   0.753
   84SOL    HW1  271   0.945   0.044   0.684
   84SOL    HW2  272   0.993  -0.030   0.822
   85SOL     OW  273   1.429   1.173   0.867
   85SOL    HW1  274   1.374   1.089   0.860
   85SOL    HW2  275   1.455   1.202   0.775
   86SOL     OW  276   1.466   0.590   0.992
   86SOL    HW1  277   1.436   0.495   0.999
   86SOL    HW2  278   1.539   0.606   1.058
   87SOL     OW  279   1.857   0.833   0.377
   87SOL    HW1  280   1.899   0.769   0.441
   87SOL    HW2  281   1.819   0.782   0.299
   88SOL     OW  282   0.488   1.385   0.174
   88SOL    HW1  283   0.401   1.370   0.221
   88SOL    HW2  284   0.471   1.411   0.079
   89SOL     OW  285   1.664   1.280   0.657
   89SOL    HW1  286   1.763   1.288   0.671
   89SOL    HW2  287   1.619   1.364   0.688
   90SOL     OW  288   1.390   0.575   0.078
   90SOL    HW1  289   1.336   0.554   0.159
   90SOL    HW2  290   1.481   0.534   0.087
   91SOL     OW  291   0.527   0.256   0.328
   91SOL    HW1  292   0.554   0.197   0.253
   91SOL    HW2  293   0.527   0.351   0.297
   92SOL     OW  294   1.754   1.223   1.588
   92SOL    HW1  295   1.845   1.184   1.575
   92SOL    HW2  296   1.762   1.319   1.612
   93SOL     OW  297   1.111   1.195   1.100
   93SOL    HW1  298   1.071   1.239   1.181
   93SOL    HW2  299   1.070   1.232   1.017
   94SOL     OW  300   1.638   1.099   1.079
   94SOL    HW1  301   1.643   1.180   1.138
   94SOL    HW2  302   1.552   1.101   1.028
   95SOL     OW  303   0.915   0.089   1.402
   95SOL    HW1  304   0.940   0.069   1.307
   95SOL    HW2  305   0.987   0.145   1.444
   96SOL     OW  306   0.980   1.116   1.719
   96SOL    HW1  307   0.881   1.122   1.729
   96SOL    HW2  308   1.003   1.036   1.663
   97SOL     OW  309   0.705   1.050   0.368
   97SOL    HW1  310   0.691   1.057   0.467
   97SOL    HW2  311   0.789   0.999   0.350
   98SOL     OW  312   0.410   0.813   1.251
   98SOL    HW1  313   0.496   0.825   1.301
   98SOL    HW2  314   0.368   0.726   1.278
   99SOL     OW  315   1.274   0.386   1.262
   99SOL    HW1  316   1.295   0.460   1.326
   99SOL    HW2  317   1.185   0.403   1.219
  100SOL     OW  318   0.064   1.564   1.331
  100SOL    HW1  319   0.018   1.646   1.297
  100SOL    HW2  320   0.162   1.583   1.340
  101SOL     OW  321   0.367   1.100   0.501
  101SOL    HW1  322   0.360   1.183   0.445
  101SOL    HW2  323   0.371   1.020   0.441
  102SOL     OW  324   0.566   0.537   0.865
  102SOL    HW1  325   0.578   0.603   0.791
  102SOL    HW2  326   0.612   0.571   0.948
  103SOL     OW  327   1.252   1.348   0.388
  103SOL    HW1  328   1.302   1.425   0.428
  103SOL    HW2  329   1.157   1.350   0.420
  104SOL     OW  330   1.582   0.639   0.472
  104SOL    HW1  331   1.551   0.700   0.545
  104SOL    HW2  332   1.632   0.691   0.403
  105SOL     OW  333   0.354   1.510   1.329
  105SOL    HW1  334   0.333   1.466   1.242
  105SOL    HW2  335   0.451   1.536   1.332
  106SOL     OW  336   0.402   0.751   1.598
  106SOL    HW1  337   0.470   0.806   1.551
  106SOL    HW2  338   0.442   0.663   1.625
  107SOL     OW  339   1.587   0.779   1.670
  107SOL    HW1  340   1.495   0.817   1.665
  107SOL    HW2  341   1.647   0.826   1.605
  108SOL     OW  342   1.013   0.105   1.770
  108SOL    HW1  343   1.019   0.190   1.718
  108SOL    HW2  344   1.045   0.029   1.713
  109SOL     OW  345   0.504   0.050   1.740
  109SOL    HW1  346   0.462  -0.007   1.670
  109SOL    HW2  347   0.438   0.119   1.772
  110SOL     OW  348   0.573   0.870   1.029
  110SOL    HW1  349   0.617   0.959   1.020
  110SOL    HW2  350   0.510   0.870   1.106
  111SOL     OW  351   1.360   0.862   1.045
  111SOL    HW1  352   1.285   0.862   0.979
  111SOL    HW2  353   1.397   0.770   1.054
  112SOL     OW  354   1.209   0.525   0.275
  112SOL    HW1  355   1.222   0.441   0.329
  112SOL    HW2  356   1.180   0.599   0.335
  113SOL     OW  357   0.307   0.213   1.231
  113SOL    HW1  358   0.284   0.250   1.321
  113SOL    HW2  359   0.277   0.118   1.225
  114SOL     OW  360   0.037   1.310   1.282
  114SOL    HW1  361   0.090   1.261   1.350
  114SOL    HW2  362   0.059   1.408   1.287
  115SOL     OW  363   0.732   0.634   1.064
  115SOL    HW1  364   0.791   0.608   0.988
  115SOL    HW2  365   0.704   0.730   1.053
  116SOL     OW  366   1.728   0.935   1.854
  116SOL    HW1  367   1.682   0.928   1.765
  116SOL    HW2  368   1.666   0.979   1.920
  117SOL     OW  369   0.307   0.063   0.618
  117SOL    HW1  370   0.296   0.157   0.651
  117SOL    HW2  371   0.302   0.000   0.695
  118SOL     OW  372   1.622   0.367   0.374
  118SOL    HW1  373   1.624   0.291   0.438
  118SOL    HW2  374   1.574   0.444   0.414
  119SOL     OW  375   1.023   0.766   0.966
  119SOL    HW1  376   1.038   0.787   1.062
  119SOL    HW2  377   0.993   0.671   0.957
  120SOL     OW  378   0.980   1.573   1.700
  120SOL    HW1  379   0.960   1.617   1.612
  120SOL    HW2  380   1.019   1.482   1.684
  121SOL     OW  381   1.859   1.518   1.605
  121SOL    HW1  382   1.873   1.545   1.510
  121SOL    HW2  383   1.942   1.540   1.658
  122SOL     OW  384   0.350   0.898   1.804
  122SOL    HW1  385   0.426   0.942   1.852
  122SOL    HW2  386   0.385   0.851   1.722
  123SOL     OW  387   1.540   0.274   0.125
  123SOL    HW1  388   1.479   0.199   0.148
  123SOL    HW2  389   1.562   0.326   0.208
  124SOL     OW  390   1.303   0.838   0.042
  124SOL    HW1  391   1.337   0.745   0.057
  124SOL    HW2  392   1.321   0.865  -0.053
  125SOL     OW  393   1.068   1.333   0.849
  125SOL    HW1  394   1.075   1.249   0.794
  125SOL    HW2  395   1.130   1.402   0.813
  126SOL     OW  396   0.319   0.810   0.949
  126SOL    HW1  397   0.412   0.846   0.954
  126SOL    HW2  398   0.313   0.725   1.001
  127SOL     OW  399   0.339   0.509   1.006
  127SOL    HW1  400   0.287   0.426   0.989
  127SOL    HW2  401   0.416   0.514   0.942
  128SOL     OW  402   1.138   0.380   1.678
  128SOL    HW1  403   1.093   0.443   1.742
  128SOL    HW2  404   1.231   0.411   1.661
  129SOL     OW  405   1.160   0.207   1.477
  129SOL    HW1  406   1.160   0.271   1.554
  129SOL    HW2  407   1.188   0.255   1.394
  130SOL     OW  408   0.008   1.326   0.200
  130SOL    HW1  409  -0.085   1.347   0.169
  130SOL    HW2  410   0.018   1.227   0.213
  131SOL     OW  411   0.088   1.801   0.927
  131SOL    HW1  412   0.046   1.715   0.900
  131SOL    HW2  413   0.182   1.804   0.893
  132SOL     OW  414   0.504   1.568   0.910
  132SOL    HW1  415   0.570   1.642   0.919
  132SOL    HW2  416   0.548   1.489   0.868
  133SOL     OW  417   1.002   0.796   1.238
  133SOL    HW1  418   1.043   0.764   1.324
  133SOL    HW2  419   0.906   0.769   1.235
  134SOL     OW  420   0.040   0.544   1.114
  134SOL    HW1  421   0.125   0.511   1.073
  134SOL    HW2  422   0.053   0.559   1.212
  135SOL     OW  423   0.189   0.520   1.722
  135SOL    HW1  424   0.248   0.480   1.652
  135SOL    HW2  425   0.131   0.591   1.681
  136SOL     OW  426   1.369   0.950   1.660
  136SOL    HW1  427   1.408   1.039   1.680
  136SOL    HW2  428   1.379   0.930   1.563
  137SOL     OW  429   0.815   0.572   0.325
  137SOL    HW1  430   0.822   0.483   0.279
  137SOL    HW2  431   0.721   0.606   0.317
  138SOL     OW  432   1.657   0.604   1.206
  138SOL    HW1  433   1.619   0.535   1.268
  138SOL    HW2  434   1.739   0.568   1.162
  139SOL     OW  435   0.252   1.564   1.744
  139SOL    HW1  436   0.222   1.621   1.820
  139SOL    HW2  437   0.245   1.467   1.770
  140SOL     OW  438   0.671   0.464   1.269
  140SOL    HW1  439   0.637   0.375   1.239
  140SOL    HW2  440   0.697   0.518   1.189
  141SOL     OW  441   0.930   1.678   1.465
  141SOL    HW1  442   0.906   1.660   1.370
  141SOL    HW2  443   0.960   1.772   1.475
  142SOL     OW  444   0.473   0.500   0.191
  142SOL    HW1  445   0.534   0.580   0.195
  142SOL    HW2  446   0.378   0.531   0.198
  143SOL     OW  447   0.159   1.137   1.466
  143SOL    HW1  448   0.181   1.076   1.542
  143SOL    HW2  449   0.169   1.088   1.380
  144SOL     OW  450   1.347   1.059   1.234
  144SOL    HW1  451   1.371   0.996   1.160
  144SOL    HW2  452   1.257   1.099   1.216
  145SOL     OW  453   1.302   0.855   0.309
  145SOL    HW1  454   1.216   0.824   0.351
  145SOL    HW2  455   1.298   0.841   0.210
  146SOL     OW  456   1.759   1.747   1.154
  146SOL    HW1  457   1.820   1.777   1.081
  146SOL    HW2  458   1.721   1.658   1.132
  147SOL     OW  459   1.252   1.731   1.128
  147SOL    HW1  460   1.336   1.736   1.074
  147SOL    HW2  461   1.229   1.635   1.146
  148SOL     OW  462   0.083   1.258   1.022
  148SOL    HW1  463   0.078   1.257   1.122
  148SOL    HW2  464   0.000   1.217   0.984
  149SOL     OW  465   0.688   1.662   1.716
  149SOL    HW1  466   0.632   1.743   1.725
  149SOL    HW2  467   0.740   1.666   1.630
  150SOL     OW  468   0.903   0.086   0.133
  150SOL    HW1  469   0.954   0.087   0.047
  150SOL    HW2  470   0.959   0.044   0.204
  151SOL     OW  471   1.726   0.135   0.523
  151SOL    HW1  472   1.799   0.118   0.456
  151SOL    HW2  473   1.695   0.048   0.561
  152SOL     OW  474   1.388   1.573   0.477
  152SOL    HW1  475   1.455   1.585   0.403
  152SOL    HW2  476   1.348   1.662   0.500
  153SOL     OW  477   0.130   1.794   1.851
  153SOL    HW1  478   0.089   1.720   1.904
  153SOL    HW2  479   0.194   1.845   1.909
  154SOL     OW  480   1.280   0.927   0.672
  154SOL    HW1  481   1.340   0.846   0.674
  154SOL    HW2  482   1.320   0.996   0.612
  155SOL     OW  483   0.830   1.273   1.422
  155SOL    HW1  484   0.825   1.306   1.517
  155SOL    HW2  485   0.744   1.292   1.376
  156SOL     OW  486   0.672   1.616   0.154
  156SOL    HW1  487   0.681   1.626   0.055
  156SOL    HW2  488   0.632   1.527   0.175
  157SOL     OW  489   1.841   0.175   0.963
  157SOL    HW1  490   1.880   0.090   0.927
  157SOL    HW2  491   1.743   0.177   0.944
  158SOL     OW  492   0.263   0.326   0.720
  158SOL    HW1  493   0.184   0.377   0.686
  158SOL    HW2  494   0.254   0.311   0.818
  159SOL     OW  495   1.194   1.612   0.031
  159SOL    HW1  496   1.200   1.519   0.068
  159SOL    HW2  497   1.135   1.612  -0.049
  160SOL     OW  498   0.822   1.002   1.372
  160SOL    HW1  499   0.862   1.001   1.280
  160SOL    HW2  500   0.832   1.094   1.412
  161SOL     OW  501   0.916   0.910   0.291
  161SOL    HW1  502   0.979   0.948   0.223
  161SOL    HW2  503   0.956   0.827   0.330
  162SOL     OW  504   1.504   1.607   0.044
  162SOL    HW1  505   1.412   1.644   0.051
  162SOL    HW2  506   1.542   1.627  -0.046
  163SOL     OW  507   0.372   1.288   1.490
  163SOL    HW1  508   0.359   1.381   1.456
  163SOL    HW2  509   0.288   1.236   1.477
  164SOL     OW  510   1.614   1.292   1.289
  164SOL    HW1  511   1.674   1.295   1.369
  164SOL    HW2  512   1.539   1.356   1.302
  165SOL     OW  513   1.039   1.098   0.696
  165SOL    HW1  514   0.969   1.051   0.750
  165SOL    HW2  515   1.098   1.030   0.653
  166SOL     OW  516   1.014   0.236   0.971
  166SOL    HW1  517   1.006   0.200   0.878
  166SOL    HW2  518   1.012   0.160   1.036
  167SOL     OW  519   0.590   1.487   0.491
  167SOL    HW1  520   0.632   1.429   0.421
  167SOL    HW2  521   0.546   1.566   0.447
  168SOL     OW  522   1.709   0.385   1.381
  168SOL    HW1  523   1.782   0.454   1.385
  168SOL    HW2  524   1.737   0.310   1.322
  169SOL     OW  525   0.255   1.348   0.290
  169SOL    HW1  526   0.159   1.349   0.263
  169SOL    HW2  527   0.267   1.401   0.374
  170SOL     OW  528   0.105   1.013   1.726
  170SOL    HW1  529   0.028   0.980   1.780
  170SOL    HW2  530   0.190   0.983   1.768
  171SOL     OW  531   0.672   0.203   1.489
  171SOL    HW1  532   0.762   0.187   1.449
  171SOL    HW2  533   0.680   0.208   1.588
  172SOL     OW  534   0.075   0.345   0.033
  172SOL    HW1  535  -0.017   0.317   0.004
  172SOL    HW2  536   0.106   0.422  -0.023
  173SOL     OW  537   1.440   0.856   1.398
  173SOL    HW1  538   1.383   0.908   1.335
  173SOL    HW2  539   1.536   0.868   1.374
  174SOL     OW  540   0.072   0.166   0.318
  174SOL    HW1  541   0.055   0.249   0.264
  174SOL    HW2  542   0.162   0.129   0.296
  175SOL     OW  543   1.183   1.335   0.119
  175SOL    HW1  544   1.084   1.324   0.121
  175SOL    HW2  545   1.217   1.350   0.212
  176SOL     OW  546   0.613   0.842   1.431
  176SOL    HW1  547   0.669   0.923   1.414
  176SOL    HW2  548   0.672   0.762   1.434
  177SOL     OW  549   1.493   1.767   0.959
  177SOL    HW1  550   1.526   1.831   0.890
  177SOL    HW2  551   1.559   1.761   1.034
  178SOL     OW  552   0.716   0.565   1.708
  178SOL    HW1  553   0.735   0.630   1.782
  178SOL    HW2  554   0.776   0.485   1.717
  179SOL     OW  555   1.450   1.220   1.633
  179SOL    HW1  556   1.441   1.210   1.732
  179SOL    HW2  557   1.546   1.213   1.607
  180SOL     OW  558   0.390   1.741   1.560
  180SOL    HW1  559   0.299   1.782   1.558
  180SOL    HW2  560   0.383   1.647   1.592
  181SOL     OW  561   1.674   0.883   1.254
  181SOL    HW1  562   1.647   0.794   1.217
  181SOL    HW2  563   1.675   0.951   1.181
  182SOL     OW  564   1.225   0.325   0.449
  182SOL    HW1  565   1.290   0.251   0.438
  182SOL    HW2  566   1.245   0.375   0.533
  183SOL     OW  567   0.594   0.745   0.652
  183SOL    HW1  568   0.644   0.830   0.633
  183SOL    HW2  569   0.506   0.747   0.604
  184SOL     OW  570   1.777   0.342   1.642
  184SOL    HW1  571   1.760   0.373   1.548
  184SOL    HW2  572   1.693   0.305   1.680
  185SOL     OW  573   1.730   0.934   1.517
  185SOL    HW1  574   1.768   1.025   1.532
  185SOL    HW2  575   1.722   0.917   1.418
  186SOL     OW  576   0.859   1.374   0.016
  186SOL    HW1  577   0.813   1.389   0.104
  186SOL    HW2  578   0.903   1.459  -0.014
  187SOL     OW  579   0.661   1.790   0.953
  187SOL    HW1  580   0.615   1.878   0.940
  187SOL    HW2  581   0.760   1.802   0.946
  188SOL     OW  582   0.859   0.956   0.861
  188SOL    HW1  583   0.913   0.887   0.909
  188SOL    HW2  584   0.827   1.025   0.927
  189SOL     OW  585   1.083   0.984   0.087
  189SOL    HW1  586   1.060   1.037   0.005
  189SOL    HW2  587   1.164   0.928   0.068
  190SOL     OW  588   1.861   1.569   0.851
  190SOL    HW1  589   1.790   1.557   0.781
  190SOL    HW2  590   1.862   1.490   0.911
  191SOL     OW  591   0.221   1.314   1.844
  191SOL    HW1  592   0.156   1.241   1.823
  191SOL    HW2  593   0.225   1.328   1.942
  192SOL     OW  594   0.079   1.240   0.653
  192SOL    HW1  595   0.078   1.193   0.741
  192SOL    HW2  596   0.161   1.212   0.602
  193SOL     OW  597   0.672   1.391   1.624
  193SOL    HW1  598   0.594   1.341   1.662
  193SOL    HW2  599   0.669   1.486   1.655
  194SOL     OW  600   1.824   0.192   1.227
  194SOL    HW1  601   1.820   0.102   1.271
  194SOL    HW2  602   1.827   0.181   1.128
  195SOL     OW  603   0.428   0.424   0.520
  195SOL    HW1  604   0.458   0.352   0.458
  195SOL    HW2  605   0.389   0.384   0.603
  196SOL     OW  606   1.705   1.487   1.104
  196SOL    HW1  607   1.612   1.462   1.077
  196SOL    HW2  608   1.731   1.437   1.186
  197SOL     OW  609   0.317   0.547   1.280
  197SOL    HW1  610   0.355   0.488   1.352
  197SOL    HW2  611   0.357   0.521   1.192
  198SOL     OW  612   0.812   1.586   0.687
  198SOL    HW1  613   0.844   1.596   0.593
  198SOL    HW2  614   0.733   1.524   0.689
  199SOL     OW  615   1.424   0.214   1.112
  199SOL    HW1  616   1.476   0.149   1.167
  199SOL    HW2  617   1.375   0.277   1.173
  200SOL     OW  618   1.001   0.034   1.154
  200SOL    HW1  619   0.938  -0.038   1.123
  200SOL    HW2  620   1.094  -0.002   1.154
  201SOL     OW  621   0.770   1.330   0.301
  201SOL    HW1  622   0.724   1.243   0.318
  201SOL    HW2  623   0.861   1.327   0.342
  202SOL     OW  624   0.618   1.567   1.284
  202SOL    HW1  625   0.613   1.649   1.341
  202SOL    HW2  626   0.707   1.564   1.239
  203SOL     OW  627   1.352   0.052   0.168
  203SOL    HW1  628   1.387   0.011   0.084
  203SOL    HW2  629   1.262   0.014   0.188
  204SOL     OW  630   1.300   0.453   0.691
  204SOL    HW1  631   1.241   0.533   0.695
  204SOL    HW2  632   1.315   0.418   0.784
  205SOL     OW  633   1.593   0.221   0.882
  205SOL    HW1  634   1.509   0.220   0.936
  205SOL    HW2  635   1.595   0.304   0.826
  206SOL     OW  636   0.039   1.077   0.300
  206SOL    HW1  637   0.138   1.066   0.291
  206SOL    HW2  638  -0.001   0.991   0.332
  207SOL     OW  639   0.875   1.646   0.337
  207SOL    HW1  640   0.798   1.611   0.283
  207SOL    HW2  641   0.843   1.717   0.399
  208SOL     OW  642   0.230   0.628   1.975
  208SOL    HW1  643   0.137   0.626   2.012
  208SOL    HW2  644   0.231   0.589   1.883
  209SOL     OW  645   0.225   0.275   2.858
  209SOL    HW1  646   0.260   0.258   2.950
  209SOL    HW2  647   0.137   0.230   2.846
  210SOL     OW  648   0.019   0.368   2.509
  210SOL    HW1  649  -0.063   0.411   2.548
  210SOL    HW2  650  -0.009   0.295   2.446
  211SOL     OW  651   0.569   1.275   3.027
  211SOL    HW1  652   0.476   1.268   2.990
  211SOL    HW2  653   0.580   1.364   3.071
  212SOL     OW  654   1.555   1.511   2.565
  212SOL    HW1  655   1.498   1.495   2.646
  212SOL    HW2  656   1.496   1.521   2.485
  213SOL     OW  657   1.135   0.703   2.579
  213SOL    HW1  658   1.192   0.781   2.554
  213SOL    HW2  659   1.075   0.729   2.655
  214SOL     OW  660   1.755   0.607   2.093
  214SOL    HW1  661   1.743   0.594   1.994
  214SOL    HW2  662   1.725   0.526   2.142
  215SOL     OW  663   0.768   1.144   2.885
  215SOL    HW1  664   0.690   1.161   2.945
  215SOL    HW2  665   0.802   1.231   2.849
  216SOL     OW  666   0.685   1.012   2.527
  216SOL    HW1  667   0.754   0.996   2.597
  216SOL    HW2  668   0.612   1.069   2.565
  217SOL     OW  669   0.335   1.435   2.923
  217SOL    HW1  670   0.257   1.404   2.870
  217SOL    HW2  671   0.393   1.493   2.866
  218SOL     OW  672   1.603   0.447   2.599
  218SOL    HW1  673   1.529   0.493   2.549
  218SOL    HW2  674   1.654   0.515   2.652
  219SOL     OW  675   0.231   1.713   2.345
  219SOL    HW1  676   0.265   1.790   2.399
  219SOL    HW2  677   0.275   1.713   2.255
  220SOL     OW  678   0.230   1.434   2.400
  220SOL    HW1  679   0.204   1.530   2.400
  220SOL    HW2  680   0.159   1.380   2.445
  221SOL     OW  681   0.240   1.091   2.748
  221SOL    HW1  682   0.254   1.007   2.800
  221SOL    HW2  683   0.185   1.155   2.803
  222SOL     OW  684   0.606   0.964   1.985
  222SOL    HW1  685   0.613   1.048   1.931
  222SOL    HW2  686   0.652   0.977   2.073
  223SOL     OW  687   0.122   0.643   2.425
  223SOL    HW1  688   0.077   0.555   2.442
  223SOL    HW2  689   0.121   0.697   2.509
  224SOL     OW  690   1.842   1.767   2.221
  224SOL    HW1  691   1.896   1.738   2.301
  224SOL    HW2  692   1.872   1.857   2.192
  225SOL     OW  693   0.027   1.596   1.979
  225SOL    HW1  694   0.008   1.500   2.000
  225SOL    HW2  695  -0.006   1.654   2.054
  226SOL     OW  696   1.689   0.922   2.474
  226SOL    HW1  697   1.784   0.893   2.482
  226SOL    HW2  698   1.681   0.987   2.399
  227SOL     OW  699   1.641   1.108   2.294
  227SOL    HW1  700   1.727   1.110   2.242
  227SOL    HW2  701   1.655   1.155   2.382
  228SOL     OW  702   0.613   1.365   2.588
  228SOL    HW1  703   0.564   1.278   2.597
  228SOL    HW2  704   0.590   1.408   2.501
  229SOL     OW  705   0.809   0.004   2.364
  229SOL    HW1  706   0.849   0.095   2.355
  229SOL    HW2  707   0.709   0.012   2.370
  230SOL     OW  708   0.197   0.976   3.126
  230SOL    HW1  709   0.286   0.931   3.112
  230SOL    HW2  710   0.124   0.911   3.107
  231SOL     OW  711   1.525   0.999   2.052
  231SOL    HW1  712   1.462   0.923   2.065
  231SOL    HW2  713   1.573   1.017   2.138
  232SOL     OW  714   1.466   1.417   2.815
  232SOL    HW1  715   1.407   1.423   2.895
  232SOL    HW2  716   1.451   1.329   2.769
  233SOL     OW  717   1.667   1.714   2.434
  233SOL    HW1  718   1.626   1.691   2.346
  233SOL    HW2  719   1.649   1.640   2.499
  234SOL     OW  720   0.598   0.729   2.132
  234SOL    HW1  721   0.622   0.798   2.064
  234SOL    HW2  722   0.520   0.762   2.186
  235SOL     OW  723   1.281   0.345   2.806
  235SOL    HW1  724   1.195   0.295   2.793
  235SOL    HW2  725   1.343   0.291   2.862
  236SOL     OW  726   1.576   1.662   2.169
  236SOL    HW1  727   1.665   1.708   2.172
  236SOL    HW2  728   1.555   1.638   2.074
  237SOL     OW  729   1.041   0.701   2.291
  237SOL    HW1  730   1.067   0.697   2.387
  237SOL    HW2  731   0.956   0.650   2.277
  238SOL     OW  732   0.076   0.811   2.651
  238SOL    HW1  733   0.175   0.799   2.660
  238SOL    HW2  734   0.052   0.906   2.672
  239SOL     OW  735   0.130   1.821   3.433
  239SOL    HW1  736   0.120   1.806   3.532
  239SOL    HW2  737   0.044   1.857   3.397
  240SOL     OW  738   0.865   0.348   2.057
  240SOL    HW1  739   0.924   0.411   2.008
  240SOL    HW2  740   0.884   0.254   2.028
  241SOL     OW  741   1.362   1.144   2.407
  241SOL    HW1  742   1.445   1.115   2.359
  241SOL    HW2  743   1.313   1.211   2.351
  242SOL     OW  744   0.550   0.196   2.747
  242SOL    HW1  745   0.545   0.191   2.847
  242SOL    HW2  746   0.552   0.292   2.718
  243SOL     OW  747   1.008   1.456   2.339
  243SOL    HW1  748   0.962   1.528   2.287
  243SOL    HW2  749   1.004   1.476   2.437
  244SOL     OW  750   0.351   1.801   2.715
  244SOL    HW1  751   0.401   1.715   2.721
  244SOL    HW2  752   0.416   1.878   2.712
  245SOL     OW  753   1.795   1.066   2.735
  245SOL    HW1  754   1.733   1.051   2.659
  245SOL    HW2  755   1.743   1.077   2.820
  246SOL     OW  756   0.321   0.943   2.104
  246SOL    HW1  757   0.403   0.982   2.062
  246SOL    HW2  758   0.294   0.861   2.055
  247SOL     OW  759   1.458   0.735   2.590
  247SOL    HW1  760   1.453   0.670   2.665
  247SOL    HW2  761   1.538   0.794   2.603
  248SOL     OW  762   1.111   1.776   2.099
  248SOL    HW1  763   1.051   1.714   2.149
  248SOL    HW2  764   1.142   1.732   2.014
  249SOL     OW  765   1.632   1.377   1.943
  249SOL    HW1  766   1.600   1.471   1.933
  249SOL    HW2  767   1.556   1.314   1.931
  250SOL     OW  768   0.464   1.743   2.185
  250SOL    HW1  769   0.497   1.782   2.271
  250SOL    HW2  770   0.540   1.736   2.120
  251SOL     OW  771   1.400   0.107   2.288
  251SOL    HW1  772   1.376   0.070   2.198
  251SOL    HW2  773   1.499   0.123   2.292
  252SOL     OW  774   0.249   1.785   3.103
  252SOL    HW1  775   0.306   1.720   3.153
  252SOL    HW2  776   0.233   1.752   3.010
  253SOL     OW  777   0.940   1.698   2.766
  253SOL    HW1  778   1.020   1.641   2.787
  253SOL    HW2  779   0.891   1.658   2.689
  254SOL     OW  780   0.382   0.700   2.342
  254SOL    HW1  781   0.427   0.610   2.339
  254SOL    HW2  782   0.288   0.689   2.375
  255SOL     OW  783   0.614   0.122   1.979
  255SOL    HW1  784   0.712   0.100   1.986
  255SOL    HW2  785   0.583   0.105   1.886
  256SOL     OW  786   0.803   1.402   2.786
  256SOL    HW1  787   0.893   1.416   2.744
  256SOL    HW2  788   0.732   1.404   2.715
  257SOL     OW  789   0.922   0.503   2.761
  257SOL    HW1  790   0.897   0.494   2.665
  257SOL    HW2  791   0.970   0.421   2.792
  258SOL     OW  792   0.539   0.064   2.374
  258SOL    HW1  793   0.458   0.065   2.432
  258SOL    HW2  794   0.542   0.147   2.319
  259SOL     OW  795   1.434   1.188   1.903
  259SOL    HW1  796   1.466   1.112   1.960
  259SOL    HW2  797   1.342   1.215   1.933
  260SOL     OW  798   0.297   0.035   2.033
  260SOL    HW1  799   0.346   0.119   2.012
  260SOL    HW2  800   0.359  -0.030   2.078
  261SOL     OW  801   0.935   0.236   2.342
  261SOL    HW1  802   0.887   0.277   2.264
  261SOL    HW2  803   1.034   0.234   2.323
  262SOL     OW  804   1.227   1.570   2.655
  262SOL    HW1  805   1.248   1.644   2.590
  262SOL    HW2  806   1.295   1.570   2.728
  263SOL     OW  807   0.459   1.152   2.603
  263SOL    HW1  808   0.388   1.125   2.668
  263SOL    HW2  809   0.433   1.124   2.510
  264SOL     OW  810   1.271   1.797   2.453
  264SOL    HW1  811   1.315   1.861   2.389
  264SOL    HW2  812   1.221   1.849   2.523
  265SOL     OW  813   1.032   0.549   1.878
  265SOL    HW1  814   0.991   0.631   1.839
  265SOL    HW2  815   1.096   0.575   1.951
  266SOL     OW  816   0.866   0.454   2.504
  266SOL    HW1  817   0.834   0.526   2.442
  266SOL    HW2  818   0.890   0.373   2.451
  267SOL     OW  819   1.017   0.039   2.615
  267SOL    HW1  820   0.945   0.044   2.546
  267SOL    HW2  821   0.993  -0.030   2.684
  268SOL     OW  822   1.429   1.173   2.729
  268SOL    HW1  823   1.374   1.089   2.722
  268SOL    HW2  824   1.455   1.202   2.637
  269SOL     OW  825   1.466   0.590   2.854
  269SOL    HW1  826   1.436   0.495   2.861
  269SOL    HW2  827   1.539   0.606   2.920
  270SOL     OW  828   1.857   0.833   2.239
  270SOL    HW1  829   1.899   0.769   2.303
  270SOL    HW2  830   1.819   0.782   2.161
  271SOL     OW  831   0.488   1.385   2.036
  271SOL    HW1  832   0.401   1.370   2.083
  271SOL    HW2  833   0.471   1.411   1.941
  272SOL     OW  834   1.664   1.280   2.519
  272SOL    HW1  835   1.763   1.288   2.533
  272SOL    HW2  836   1.619   1.364   2.550
  273SOL     OW  837   1.390   0.575   1.940
  273SOL    HW1  838   1.336   0.554   2.021
  273SOL    HW2  839   1.481   0.534   1.949
  274SOL     OW  840   0.527   0.256   2.190
  274SOL    HW1  841   0.554   0.197   2.115
  274SOL    HW2  842   0.527   0.351   2.159
  275SOL     OW  843   1.111   1.195   2.962
  275SOL    HW1  844   1.071   1.239   3.043
  275SOL    HW2  845   1.070   1.232   2.879
  276SOL     OW  846   1.638   1.099   2.941
  276SOL    HW1  847   1.643   1.180   3.000
  276SOL    HW2  848   1.552   1.101   2.890
  277SOL     OW  849   0.705   1.050   2.230
  277SOL    HW1  850   0.691   1.057   2.329
  277SOL    HW2  851   0.789   0.999   2.212
  278SOL     OW  852   0.410   0.813   3.113
  278SOL    HW1  853   0.496   0.825   3.163
  278SOL    HW2  854   0.368   0.726   3.140
  279SOL     OW  855   0.367   1.100   2.363
  279SOL    HW1  856   0.360   1.183   2.307
  279SOL    HW2  857   0.371   1.020   2.303
  280SOL     OW  858   0.566   0.537   2.727
  280SOL    HW1  859   0.578   0.603   2.653
  280SOL    HW2  860   0.612   0.571   2.810
  281SOL     OW  861   1.252   1.348   2.250
  281SOL    HW1  862   1.302   1.425   2.290
  281SOL    HW2  863   1.157   1.350   2.282
  282SOL     OW  864   1.272   1.445   3.004
  282SOL    HW1  865   1.319   1.458   3.091
  282SOL    HW2  866   1.206   1.371   3.013
  283SOL     OW  867   1.582   0.639   2.334
  283SOL    HW1  868   1.551   0.700   2.407
  283SOL    HW2  869   1.632   0.691   2.265
  284SOL     OW  870   0.573   0.870   2.891
  284SOL    HW1  871   0.617   0.959   2.882
  284SOL    HW2  872   0.510   0.870   2.968
  285SOL     OW  873   1.360   0.862   2.907
  285SOL    HW1  874   1.285   0.862   2.841
  285SOL    HW2  875   1.397   0.770   2.916
  286SOL     OW  876   1.209   0.525   2.137
  286SOL    HW1  877   1.222   0.441   2.191
  286SOL    HW2  878   1.180   0.599   2.197
  287SOL     OW  879   0.307   0.213   3.093
  287SOL    HW1  880   0.284   0.250   3.183
  287SOL    HW2  881   0.277   0.118   3.087
  288SOL     OW  882   0.037   1.310   3.144
  288SOL    HW1  883   0.090   1.261   3.212
  288SOL    HW2  884   0.059   1.408   3.149
  289SOL     OW  885   0.732   0.634   2.926
  289SOL    HW1  886   0.791   0.608   2.850
  289SOL    HW2  887   0.704   0.730   2.915
  290SOL     OW  888   0.307   0.063   2.480
  290SOL    HW1  889   0.296   0.157   2.513
  290SOL    HW2  890   0.302   0.000   2.557
  291SOL     OW  891   1.622   0.367   2.236
  291SOL    HW1  892   1.624   0.291   2.300
  291SOL    HW2  893   1.574   0.444   2.276
  292SOL     OW  894   1.023   0.766   2.828
  292SOL    HW1  895   1.038   0.787   2.924
  292SOL    HW2  896   0.993   0.671   2.819
  293SOL     OW  897   1.540   0.274   1.987
  293SOL    HW1  898   1.479   0.199   2.010
  293SOL    HW2  899   1.562   0.326   2.070
  294SOL     OW  900   1.303   0.838   1.904
  294SOL    HW1  901   1.337   0.745   1.919
  294SOL    HW2  902   1.321   0.865   1.809
  295SOL     OW  903   1.068   1.333   2.711
  295SOL    HW1  904   1.075   1.249   2.656
  295SOL    HW2  905   1.130   1.402   2.675
  296SOL     OW  906   0.319   0.810   2.811
  296SOL    HW1  907   0.412   0.846   2.816
  296SOL    HW2  908   0.313   0.725   2.863
  297SOL     OW  909   0.339   0.509   2.868
  297SOL    HW1  910   0.287   0.426   2.851
  297SOL    HW2  911   0.416   0.514   2.804
  298SOL     OW  912   1.160   0.207   3.339
  298SOL    HW1  913   1.160   0.271   3.416
  298SOL    HW2  914   1.188   0.255   3.256
  299SOL     OW  915   0.008   1.326   2.062
  299SOL    HW1  916  -0.085   1.347   2.031
  299SOL    HW2  917   0.018   1.227   2.075
  300SOL     OW  918   0.088   1.801   2.789
  300SOL    HW1  919   0.046   1.715   2.762
  300SOL    HW2  920   0.182   1.804   2.755
  301SOL     OW  921   0.504   1.568   2.772
  301SOL    HW1  922   0.570   1.642   2.781
  301SOL    HW2  923   0.548   1.489   2.730
  302SOL     OW  924   1.002   0.796   3.100
  302SOL    HW1  925   1.043   0.764   3.186
  302SOL    HW2  926   0.906   0.769   3.097
  303SOL     OW  927   0.040   0.544   2.976
  303SOL    HW1  928   0.125   0.511   2.935
  303SOL    HW2  929   0.053   0.559   3.074
  304SOL     OW  930   0.815   0.572   2.187
  304SOL    HW1  931   0.822   0.483   2.141
  304SOL    HW2  932   0.721   0.606   2.179
  305SOL     OW  933   1.657   0.604   3.068
  305SOL    HW1  934   1.619   0.535   3.130
  305SOL    HW2  935   1.739   0.568   3.024
  306SOL     OW  936   0.671   0.464   3.131
  306SOL    HW1  937   0.637   0.375   3.101
  306SOL    HW2  938   0.697   0.518   3.051
  307SOL     OW  939   0.473   0.500   2.053
  307SOL    HW1  940   0.534   0.580   2.057
  307SOL    HW2  941   0.378   0.531   2.060
  308SOL     OW  942   1.347   1.059   3.096
  308SOL    HW1  943   1.371   0.996   3.022
  308SOL    HW2  944   1.257   1.099   3.078
  309SOL     OW  945   1.302   0.855   2.171
  309SOL    HW1  946   1.216   0.824   2.213
  309SOL    HW2  947   1.298   0.841   2.072
  310SOL     OW  948   1.759   1.747   3.016
  310SOL    HW1  949   1.820   1.777   2.943
  310SOL    HW2  950   1.721   1.658   2.994
  311SOL     OW  951   0.083   1.258   2.884
  311SOL    HW1  952   0.078   1.257   2.984
  311SOL    HW2  953   0.000   1.217   2.846
  312SOL     OW  954   1.726   0.135   2.385
  312SOL    HW1  955   1.799   0.118   2.318
  312SOL    HW2  956   1.695   0.048   2.423
  313SOL     OW  957   1.388   1.573   2.339
  313SOL    HW1  958   1.455   1.585   2.265
  313SOL    HW2  959   1.348   1.662   2.362
  314SOL     OW  960   1.280   0.927   2.534
  314SOL    HW1  961   1.340   0.846   2.536
  314SOL    HW2  962   1.320   0.996   2.474
  315SOL     OW  963   0.672   1.616   2.016
  315SOL    HW1  964   0.681   1.626   1.917
  315SOL    HW2  965   0.632   1.527   2.037
  316SOL     OW  966   1.650   1.720   3.256
  316SOL    HW1  967   1.703   1.730   3.172
  316SOL    HW2  968   1.623   1.810   3.290
  317SOL     OW  969   1.841   0.175   2.825
  317SOL    HW1  970   1.880   0.090   2.789
  317SOL    HW2  971   1.743   0.177   2.806
  318SOL     OW  972   0.263   0.326   2.582
  318SOL    HW1  973   0.184   0.377   2.548
  318SOL    HW2  974   0.254   0.311   2.680
  319SOL     OW  975   1.194   1.612   1.893
  319SOL    HW1  976   1.200   1.519   1.930
  319SOL    HW2  977   1.135   1.612   1.813
  320SOL     OW  978   0.822   1.002   3.234
  320SOL    HW1  979   0.862   1.001   3.142
  320SOL    HW2  980   0.832   1.094   3.274
  321SOL     OW  981   0.916   0.910   2.153
  321SOL    HW1  982   0.979   0.948   2.085
  321SOL    HW2  983   0.956   0.827   2.192
  322SOL     OW  984   1.504   1.607   1.906
  322SOL    HW1  985   1.412   1.644   1.913
  322SOL    HW2  986   1.542   1.627   1.816
  323SOL     OW  987   1.039   1.098   2.558
  323SOL    HW1  988   0.969   1.051   2.612
  323SOL    HW2  989   1.098   1.030   2.515
  324SOL     OW  990   1.014   0.236   2.833
  324SOL    HW1  991   1.006   0.200   2.740
  324SOL    HW2  992   1.012   0.160   2.898
  325SOL     OW  993   0.590   1.487   2.353
  325SOL    HW1  994   0.632   1.429   2.283
  325SOL    HW2  995   0.546   1.566   2.309
  326SOL     OW  996   1.709   0.385   3.243
  326SOL    HW1  997   1.782   0.454   3.247
  326SOL    HW2  998   1.737   0.310   3.184
  327SOL     OW  999   0.255   1.348   2.152
  327SOL    HW1 1000   0.159   1.349   2.125
  327SOL    HW2 1001   0.267   1.401   2.236
  328SOL     OW 1002   0.075   0.345   1.895
  328SOL    HW1 1003  -0.017   0.317   1.866
  328SOL    HW2 1004   0.106   0.422   1.839
  329SOL     OW 1005   0.072   0.166   2.180
  329SOL    HW1 1006   0.055   0.249   2.126
  329SOL    HW2 1007   0.162   0.129   2.158
  330SOL     OW 1008   1.183   1.335   1.981
  330SOL    HW1 1009   1.084   1.324   1.983
  330SOL    HW2 1010   1.217   1.350   2.074
  331SOL     OW 1011   1.493   1.767   2.821
  331SOL    HW1 1012   1.526   1.831   2.752
  331SOL    HW2 1013   1.559   1.761   2.896
  332SOL     OW 1014   1.674   0.883   3.116
  332SOL    HW1 1015   1.647   0.794   3.079
  332SOL    HW2 1016   1.675   0.951   3.043
  333SOL     OW 1017   1.225   0.325   2.311
  333SOL    HW1 1018   1.290   0.251   2.300
  333SOL    HW2 1019   1.245   0.375   2.395
  334SOL     OW 1020   0.594   0.745   2.514
  334SOL    HW1 1021   0.644   0.830   2.495
  334SOL    HW2 1022   0.506   0.747   2.466
  335SOL     OW 1023   1.730   0.934   3.379
  335SOL    HW1 1024   1.768   1.025   3.394
  335SOL    HW2 1025   1.722   0.917   3.280
  336SOL     OW 1026   0.859   1.374   1.878
  336SOL    HW1 1027   0.813   1.389   1.966
  336SOL    HW2 1028   0.903   1.459   1.848
  337SOL     OW 1029   0.661   1.790   2.815
  337SOL    HW1 1030   0.615   1.878   2.802
  337SOL    HW2 1031   0.760   1.802   2.808
  338SOL     OW 1032   0.859   0.956   2.723
  338SOL    HW1 1033   0.913   0.887   2.771
  338SOL    HW2 1034   0.827   1.025   2.789
  339SOL     OW 1035   1.083   0.984   1.949
  339SOL    HW1 1036   1.060   1.037   1.867
  339SOL    HW2 1037   1.164   0.928   1.930
  340SOL     OW 1038   1.861   1.569   2.713
  340SOL    HW1 1039   1.790   1.557   2.643
  340SOL    HW2 1040   1.862   1.490   2.773
  341SOL     OW 1041   0.079   1.240   2.515
  341SOL    HW1 1042   0.078   1.193   2.603
  341SOL    HW2 1043   0.161   1.212   2.464
  342SOL     OW 1044   1.824   0.192   3.089
  342SOL    HW1 1045   1.820   0.102   3.133
  342SOL    HW2 1046   1.827   0.181   2.990
  343SOL     OW 1047   0.428   0.424   2.382
  343SOL    HW1 1048   0.458   0.352   2.320
  343SOL    HW2 1049   0.389   0.384   2.465
  344SOL     OW 1050   1.705   1.487   2.966
  344SOL    HW1 1051   1.612   1.462   2.939
  344SOL    HW2 1052   1.731   1.437   3.048
  345SOL     OW 1053   0.812   1.586   2.549
  345SOL    HW1 1054   0.844   1.596   2.455
  345SOL    HW2 1055   0.733   1.524   2.551
  346SOL     OW 1056   1.424   0.214   2.974
  346SOL    HW1 1057   1.476   0.149   3.029
  346SOL    HW2 1058   1.375   0.277   3.035
  347SOL     OW 1059   1.001   0.034   3.016
  347SOL    HW1 1060   0.938  -0.038   2.985
  347SOL    HW2 1061   1.094  -0.002   3.016
  348SOL     OW 1062   0.770   1.330   2.163
  348SOL    HW1 1063   0.724   1.243   2.180
  348SOL    HW2 1064   0.861   1.327   2.204
  349SOL     OW 1065   1.352   0.052   2.030
  349SOL    HW1 1066   1.387   0.011   1.946
  349SOL    HW2 1067   1.262   0.014   2.050
  350SOL     OW 1068   1.300   0.453   2.553
  350SOL    HW1 1069   1.241   0.533   2.557
  350SOL    HW2 1070   1.315   0.418   2.646
  351SOL     OW 1071   1.593   0.221   2.744
  351SOL    HW1 1072   1.509   0.220   2.798
  351SOL    HW2 1073   1.595   0.304   2.688
  352SOL     OW 1074   0.039   1.077   2.162
  352SOL    HW1 1075   0.138   1.066   2.153
  352SOL    HW2 1076  -0.001   0.991   2.194
  353SOL     OW 1077   0.875   1.646   2.199
  353SOL    HW1 1078   0.798   1.611   2.145
  353SOL    HW2 1079   0.843   1.717   2.261
  354SOL     OW 1080   0.230   2.490   0.113
  354SOL    HW1 1081   0.137   2.488   0.150
  354SOL    HW2 1082   0.231   2.451   0.021
  355SOL     OW 1083   0.225   2.137   0.996
  355SOL    HW1 1084   0.260   2.120   1.088
  355SOL    HW2 1085   0.137   2.092   0.984
  356SOL     OW 1086   0.019   2.230   0.647
  356SOL    HW1 1087  -0.063   2.273   0.686
  356SOL    HW2 1088  -0.009   2.157   0.584
  357SOL     OW 1089   1.135   2.565   0.717
  357SOL    HW1 1090   1.192   2.643   0.692
  357SOL    HW2 1091   1.075   2.591   0.793
  358SOL     OW 1092   1.755   2.469   0.231
  358SOL    HW1 1093   1.743   2.456   0.132
  358SOL    HW2 1094   1.725   2.388   0.280
  359SOL     OW 1095   0.768   3.006   1.023
  359SOL    HW1 1096   0.690   3.023   1.083
  359SOL    HW2 1097   0.802   3.093   0.987
  360SOL     OW 1098   0.850   2.660   1.823
  360SOL    HW1 1099   0.846   2.736   1.888
  360SOL    HW2 1100   0.872   2.696   1.732
  361SOL     OW 1101   0.685   2.874   0.665
  361SOL    HW1 1102   0.754   2.858   0.735
  361SOL    HW2 1103   0.612   2.931   0.703
  362SOL     OW 1104   0.686   3.023   1.803
  362SOL    HW1 1105   0.746   3.102   1.817
  362SOL    HW2 1106   0.600   3.054   1.762
  363SOL     OW 1107   0.438   2.254   1.499
  363SOL    HW1 1108   0.520   2.198   1.508
  363SOL    HW2 1109   0.357   2.196   1.503
  364SOL     OW 1110   1.603   2.309   0.737
  364SOL    HW1 1111   1.529   2.355   0.687
  364SOL    HW2 1112   1.654   2.377   0.790
  365SOL     OW 1113   0.240   2.953   0.886
  365SOL    HW1 1114   0.254   2.869   0.938
  365SOL    HW2 1115   0.185   3.017   0.941
  366SOL     OW 1116   0.606   2.826   0.123
  366SOL    HW1 1117   0.613   2.910   0.069
  366SOL    HW2 1118   0.652   2.839   0.211
  367SOL     OW 1119   1.594   1.976   1.480
  367SOL    HW1 1120   1.576   2.043   1.408
  367SOL    HW2 1121   1.591   2.022   1.569
  368SOL     OW 1122   0.122   2.505   0.563
  368SOL    HW1 1123   0.077   2.417   0.580
  368SOL    HW2 1124   0.121   2.559   0.647
  369SOL     OW 1125   1.689   2.784   0.612
  369SOL    HW1 1126   1.784   2.755   0.620
  369SOL    HW2 1127   1.681   2.849   0.537
  370SOL     OW 1128   1.641   2.970   0.432
  370SOL    HW1 1129   1.727   2.972   0.380
  370SOL    HW2 1130   1.655   3.017   0.520
  371SOL     OW 1131   0.113   2.599   1.597
  371SOL    HW1 1132   0.201   2.586   1.642
  371SOL    HW2 1133   0.100   2.696   1.575
  372SOL     OW 1134   1.293   3.090   1.423
  372SOL    HW1 1135   1.330   3.017   1.365
  372SOL    HW2 1136   1.345   3.095   1.508
  373SOL     OW 1137   0.809   1.866   0.502
  373SOL    HW1 1138   0.849   1.957   0.493
  373SOL    HW2 1139   0.709   1.874   0.508
  374SOL     OW 1140   0.197   2.838   1.264
  374SOL    HW1 1141   0.286   2.793   1.250
  374SOL    HW2 1142   0.124   2.773   1.245
  375SOL     OW 1143   1.525   2.861   0.190
  375SOL    HW1 1144   1.462   2.785   0.203
  375SOL    HW2 1145   1.573   2.879   0.276
  376SOL     OW 1146   0.317   2.113   1.801
  376SOL    HW1 1147   0.388   2.184   1.807
  376SOL    HW2 1148   0.229   2.152   1.829
  377SOL     OW 1149   0.598   2.591   0.270
  377SOL    HW1 1150   0.622   2.660   0.202
  377SOL    HW2 1151   0.520   2.624   0.324
  378SOL     OW 1152   1.281   2.207   0.944
  378SOL    HW1 1153   1.195   2.157   0.931
  378SOL    HW2 1154   1.343   2.153   1.000
  379SOL     OW 1155   0.807   2.467   1.465
  379SOL    HW1 1156   0.760   2.464   1.554
  379SOL    HW2 1157   0.756   2.412   1.399
  380SOL     OW 1158   1.394   2.331   1.674
  380SOL    HW1 1159   1.374   2.374   1.762
  380SOL    HW2 1160   1.472   2.269   1.683
  381SOL     OW 1161   0.973   2.752   1.572
  381SOL    HW1 1162   1.019   2.668   1.543
  381SOL    HW2 1163   0.917   2.786   1.497
  382SOL     OW 1164   0.991   2.272   1.242
  382SOL    HW1 1165   0.914   2.306   1.296
  382SOL    HW2 1166   0.957   2.221   1.163
  383SOL     OW 1167   1.041   2.563   0.429
  383SOL    HW1 1168   1.067   2.559   0.525
  383SOL    HW2 1169   0.956   2.512   0.415
  384SOL     OW 1170   0.076   2.673   0.789
  384SOL    HW1 1171   0.175   2.661   0.798
  384SOL    HW2 1172   0.052   2.768   0.810
  385SOL     OW 1173   0.865   2.210   0.195
  385SOL    HW1 1174   0.924   2.273   0.146
  385SOL    HW2 1175   0.884   2.116   0.166
  386SOL     OW 1176   1.719   2.447   1.831
  386SOL    HW1 1177   1.693   2.536   1.795
  386SOL    HW2 1178   1.717   2.379   1.758
  387SOL     OW 1179   1.362   3.006   0.545
  387SOL    HW1 1180   1.445   2.977   0.497
  387SOL    HW2 1181   1.313   3.073   0.489
  388SOL     OW 1182   0.550   2.058   0.885
  388SOL    HW1 1183   0.545   2.053   0.985
  388SOL    HW2 1184   0.552   2.154   0.856
  389SOL     OW 1185   1.795   2.928   0.873
  389SOL    HW1 1186   1.733   2.913   0.797
  389SOL    HW2 1187   1.743   2.939   0.958
  390SOL     OW 1188   0.321   2.805   0.242
  390SOL    HW1 1189   0.403   2.844   0.200
  390SOL    HW2 1190   0.294   2.723   0.193
  391SOL     OW 1191   1.458   2.597   0.728
  391SOL    HW1 1192   1.453   2.532   0.803
  391SOL    HW2 1193   1.538   2.656   0.741
  392SOL     OW 1194   0.202   2.147   1.498
  392SOL    HW1 1195   0.122   2.207   1.485
  392SOL    HW2 1196   0.192   2.098   1.584
  393SOL     OW 1197   1.400   1.969   0.426
  393SOL    HW1 1198   1.376   1.932   0.336
  393SOL    HW2 1199   1.499   1.985   0.430
  394SOL     OW 1200   0.382   2.562   0.480
  394SOL    HW1 1201   0.427   2.472   0.477
  394SOL    HW2 1202   0.288   2.551   0.513
  395SOL     OW 1203   1.547   2.084   1.729
  395SOL    HW1 1204   1.542   2.121   1.821
  395SOL    HW2 1205   1.475   2.015   1.717
  396SOL     OW 1206   0.614   1.984   0.117
  396SOL    HW1 1207   0.712   1.962   0.124
  396SOL    HW2 1208   0.583   1.967   0.024
  397SOL     OW 1209   0.781   2.126   1.749
  397SOL    HW1 1210   0.848   2.065   1.792
  397SOL    HW2 1211   0.708   2.145   1.814
  398SOL     OW 1212   1.351   2.452   1.433
  398SOL    HW1 1213   1.379   2.409   1.518
  398SOL    HW2 1214   1.376   2.548   1.434
  399SOL     OW 1215   0.922   2.365   0.899
  399SOL    HW1 1216   0.897   2.356   0.803
  399SOL    HW2 1217   0.970   2.283   0.930
  400SOL     OW 1218   0.539   1.926   0.512
  400SOL    HW1 1219   0.458   1.927   0.570
  400SOL    HW2 1220   0.542   2.009   0.457
  401SOL     OW 1221   0.297   1.897   0.171
  401SOL    HW1 1222   0.346   1.981   0.150
  401SOL    HW2 1223   0.359   1.832   0.216
  402SOL     OW 1224   0.935   2.098   0.480
  402SOL    HW1 1225   0.887   2.139   0.402
  402SOL    HW2 1226   1.034   2.096   0.461
  403SOL     OW 1227   1.076   2.545   1.464
  403SOL    HW1 1228   0.996   2.484   1.467
  403SOL    HW2 1229   1.157   2.492   1.440
  404SOL     OW 1230   0.459   3.014   0.741
  404SOL    HW1 1231   0.388   2.987   0.806
  404SOL    HW2 1232   0.433   2.986   0.648
  405SOL     OW 1233   1.032   2.411   0.016
  405SOL    HW1 1234   0.991   2.493  -0.023
  405SOL    HW2 1235   1.096   2.437   0.089
  406SOL     OW 1236   0.078   2.418   1.386
  406SOL    HW1 1237   0.170   2.417   1.345
  406SOL    HW2 1238   0.072   2.492   1.453
  407SOL     OW 1239   0.561   2.084   1.147
  407SOL    HW1 1240   0.599   2.000   1.184
  407SOL    HW2 1241   0.473   2.103   1.191
  408SOL     OW 1242   0.866   2.316   0.642
  408SOL    HW1 1243   0.834   2.388   0.580
  408SOL    HW2 1244   0.890   2.235   0.589
  409SOL     OW 1245   1.017   1.901   0.753
  409SOL    HW1 1246   0.945   1.906   0.684
  409SOL    HW2 1247   0.993   1.832   0.822
  410SOL     OW 1248   1.429   3.035   0.867
  410SOL    HW1 1249   1.374   2.951   0.860
  410SOL    HW2 1250   1.455   3.064   0.775
  411SOL     OW 1251   1.466   2.452   0.992
  411SOL    HW1 1252   1.436   2.357   0.999
  411SOL    HW2 1253   1.539   2.468   1.058
  412SOL     OW 1254   1.857   2.695   0.377
  412SOL    HW1 1255   1.899   2.631   0.441
  412SOL    HW2 1256   1.819   2.644   0.299
  413SOL     OW 1257   1.390   2.437   0.078
  413SOL    HW1 1258   1.336   2.416   0.159
  413SOL    HW2 1259   1.481   2.396   0.087
  414SOL     OW 1260   0.527   2.118   0.328
  414SOL    HW1 1261   0.554   2.059   0.253
  414SOL    HW2 1262   0.527   2.213   0.297
  415SOL     OW 1263   1.754   3.085   1.588
  415SOL    HW1 1264   1.845   3.046   1.575
  415SOL    HW2 1265   1.762   3.181   1.612
  416SOL     OW 1266   1.638   2.961   1.079
  416SOL    HW1 1267   1.643   3.042   1.138
  416SOL    HW2 1268   1.552   2.963   1.028
  417SOL     OW 1269   0.915   1.951   1.402
  417SOL    HW1 1270   0.940   1.931   1.307
  417SOL    HW2 1271   0.987   2.007   1.444
  418SOL     OW 1272   0.980   2.978   1.719
  418SOL    HW1 1273   0.881   2.984   1.729
  418SOL    HW2 1274   1.003   2.898   1.663
  419SOL     OW 1275   0.705   2.912   0.368
  419SOL    HW1 1276   0.691   2.919   0.467
  419SOL    HW2 1277   0.789   2.861   0.350
  420SOL     OW 1278   0.410   2.675   1.251
  420SOL    HW1 1279   0.496   2.687   1.301
  420SOL    HW2 1280   0.368   2.588   1.278
  421SOL     OW 1281   1.274   2.248   1.262
  421SOL    HW1 1282   1.295   2.322   1.326
  421SOL    HW2 1283   1.185   2.265   1.219
  422SOL     OW 1284   0.367   2.962   0.501
  422SOL    HW1 1285   0.360   3.045   0.445
  422SOL    HW2 1286   0.371   2.882   0.441
  423SOL     OW 1287   0.566   2.399   0.865
  423SOL    HW1 1288   0.578   2.465   0.791
  423SOL    HW2 1289   0.612   2.433   0.948
  424SOL     OW 1290   1.582   2.501   0.472
  424SOL    HW1 1291   1.551   2.562   0.545
  424SOL    HW2 1292   1.632   2.553   0.403
  425SOL     OW 1293   0.402   2.613   1.598
  425SOL    HW1 1294   0.470   2.668   1.551
  425SOL    HW2 1295   0.442   2.525   1.625
  426SOL     OW 1296   1.587   2.641   1.670
  426SOL    HW1 1297   1.495   2.679   1.665
  426SOL    HW2 1298   1.647   2.688   1.605
  427SOL     OW 1299   1.013   1.967   1.770
  427SOL    HW1 1300   1.019   2.052   1.718
  427SOL    HW2 1301   1.045   1.891   1.713
  428SOL     OW 1302   0.504   1.912   1.740
  428SOL    HW1 1303   0.462   1.855   1.670
  428SOL    HW2 1304   0.438   1.981   1.772
  429SOL     OW 1305   0.573   2.732   1.029
  429SOL    HW1 1306   0.617   2.821   1.020
  429SOL    HW2 1307   0.510   2.732   1.106
  430SOL     OW 1308   1.360   2.724   1.045
  430SOL    HW1 1309   1.285   2.724   0.979
  430SOL    HW2 1310   1.397   2.632   1.054
  431SOL     OW 1311   1.209   2.387   0.275
  431SOL    HW1 1312   1.222   2.303   0.329
  431SOL    HW2 1313   1.180   2.461   0.335
  432SOL     OW 1314   0.307   2.075   1.231
  432SOL    HW1 1315   0.284   2.112   1.321
  432SOL    HW2 1316   0.277   1.980   1.225
  433SOL     OW 1317   0.037   3.172   1.282
  433SOL    HW1 1318   0.090   3.123   1.350
  433SOL    HW2 1319   0.059   3.270   1.287
  434SOL     OW 1320   0.732   2.496   1.064
  434SOL    HW1 1321   0.791   2.470   0.988
  434SOL    HW2 1322   0.704   2.592   1.053
  435SOL     OW 1323   1.728   2.797   1.854
  435SOL    HW1 1324   1.682   2.790   1.765
  435SOL    HW2 1325   1.666   2.841   1.920
  436SOL     OW 1326   0.307   1.925   0.618
  436SOL    HW1 1327   0.296   2.019   0.651
  436SOL    HW2 1328   0.302   1.862   0.695
  437SOL     OW 1329   1.622   2.229   0.374
  437SOL    HW1 1330   1.624   2.153   0.438
  437SOL    HW2 1331   1.574   2.306   0.414
  438SOL     OW 1332   1.023   2.628   0.966
  438SOL    HW1 1333   1.038   2.649   1.062
  438SOL    HW2 1334   0.993   2.533   0.957
  439SOL     OW 1335   0.350   2.760   1.804
  439SOL    HW1 1336   0.426   2.804   1.852
  439SOL    HW2 1337   0.385   2.713   1.722
  440SOL     OW 1338   1.540   2.136   0.125
  440SOL    HW1 1339   1.479   2.061   0.148
  440SOL    HW2 1340   1.562   2.188   0.208
  441SOL     OW 1341   1.303   2.700   0.042
  441SOL    HW1 1342   1.337   2.607   0.057
  441SOL    HW2 1343   1.321   2.727  -0.053
  442SOL     OW 1344   0.319   2.672   0.949
  442SOL    HW1 1345   0.412   2.708   0.954
  442SOL    HW2 1346   0.313   2.587   1.001
  443SOL     OW 1347   0.339   2.371   1.006
  443SOL    HW1 1348   0.287   2.288   0.989
  443SOL    HW2 1349   0.416   2.376   0.942
  444SOL     OW 1350   1.138   2.242   1.678
  444SOL    HW1 1351   1.093   2.305   1.742
  444SOL    HW2 1352   1.231   2.273   1.661
  445SOL     OW 1353   1.160   2.069   1.477
  445SOL    HW1 1354   1.160   2.133   1.554
  445SOL    HW2 1355   1.188   2.117   1.394
  446SOL     OW 1356   0.008   3.188   0.200
  446SOL    HW1 1357  -0.085   3.209   0.169
  446SOL    HW2 1358   0.018   3.089   0.213
  447SOL     OW 1359   1.002   2.658   1.238
  447SOL    HW1 1360   1.043   2.626   1.324
  447SOL    HW2 1361   0.906   2.631   1.235
  448SOL     OW 1362   0.040   2.406   1.114
  448SOL    HW1 1363   0.125   2.373   1.073
  448SOL    HW2 1364   0.053   2.421   1.212
  449SOL     OW 1365   0.189   2.382   1.722
  449SOL    HW1 1366   0.248   2.342   1.652
  449SOL    HW2 1367   0.131   2.453   1.681
  450SOL     OW 1368   1.369   2.812   1.660
  450SOL    HW1 1369   1.408   2.901   1.680
  450SOL    HW2 1370   1.379   2.792   1.563
  451SOL     OW 1371   0.815   2.434   0.325
  451SOL    HW1 1372   0.822   2.345   0.279
  451SOL    HW2 1373   0.721   2.468   0.317
  452SOL     OW 1374   1.657   2.466   1.206
  452SOL    HW1 1375   1.619   2.397   1.268
  452SOL    HW2 1376   1.739   2.430   1.162
  453SOL     OW 1377   0.671   2.326   1.269
  453SOL    HW1 1378   0.637   2.237   1.239
  453SOL    HW2 1379   0.697   2.380   1.189
  454SOL     OW 1380   0.473   2.362   0.191
  454SOL    HW1 1381   0.534   2.442   0.195
  454SOL    HW2 1382   0.378   2.393   0.198
  455SOL     OW 1383   0.159   2.999   1.466
  455SOL    HW1 1384   0.181   2.938   1.542
  455SOL    HW2 1385   0.169   2.950   1.380
  456SOL     OW 1386   1.347   2.921   1.234
  456SOL    HW1 1387   1.371   2.858   1.160
  456SOL    HW2 1388   1.257   2.961   1.216
  457SOL     OW 1389   1.302   2.717   0.309
  457SOL    HW1 1390   1.216   2.686   0.351
  457SOL    HW2 1391   1.298   2.703   0.210
  458SOL     OW 1392   0.083   3.120   1.022
  458SOL    HW1 1393   0.078   3.119   1.122
  458SOL    HW2 1394   0.000   3.079   0.984
  459SOL     OW 1395   0.903   1.948   0.133
  459SOL    HW1 1396   0.954   1.949   0.047
  459SOL    HW2 1397   0.959   1.906   0.204
  460SOL     OW 1398   1.726   1.997   0.523
  460SOL    HW1 1399   1.799   1.980   0.456
  460SOL    HW2 1400   1.695   1.910   0.561
  461SOL     OW 1401   1.280   2.789   0.672
  461SOL    HW1 1402   1.340   2.708   0.674
  461SOL    HW2 1403   1.320   2.858   0.612
  462SOL     OW 1404   1.841   2.037   0.963
  462SOL    HW1 1405   1.880   1.952   0.927
  462SOL    HW2 1406   1.743   2.039   0.944
  463SOL     OW 1407   0.263   2.188   0.720
  463SOL    HW1 1408   0.184   2.239   0.686
  463SOL    HW2 1409   0.254   2.173   0.818
  464SOL     OW 1410   0.822   2.864   1.372
  464SOL    HW1 1411   0.862   2.863   1.280
  464SOL    HW2 1412   0.832   2.956   1.412
  465SOL     OW 1413   0.916   2.772   0.291
  465SOL    HW1 1414   0.979   2.810   0.223
  465SOL    HW2 1415   0.956   2.689   0.330
  466SOL     OW 1416   0.372   3.150   1.490
  466SOL    HW1 1417   0.359   3.243   1.456
  466SOL    HW2 1418   0.288   3.098   1.477
  467SOL     OW 1419   1.614   3.154   1.289
  467SOL    HW1 1420   1.674   3.157   1.369
  467SOL    HW2 1421   1.539   3.218   1.302
  468SOL     OW 1422   1.039   2.960   0.696
  468SOL    HW1 1423   0.969   2.913   0.750
  468SOL    HW2 1424   1.098   2.892   0.653
  469SOL     OW 1425   1.014   2.098   0.971
  469SOL    HW1 1426   1.006   2.062   0.878
  469SOL    HW2 1427   1.012   2.022   1.036
  470SOL     OW 1428   1.709   2.247   1.381
  470SOL    HW1 1429   1.782   2.316   1.385
  470SOL    HW2 1430   1.737   2.172   1.322
  471SOL     OW 1431   0.105   2.875   1.726
  471SOL    HW1 1432   0.028   2.842   1.780
  471SOL    HW2 1433   0.190   2.845   1.768
  472SOL     OW 1434   0.672   2.065   1.489
  472SOL    HW1 1435   0.762   2.049   1.449
  472SOL    HW2 1436   0.680   2.070   1.588
  473SOL     OW 1437   0.075   2.207   0.033
  473SOL    HW1 1438  -0.017   2.179   0.004
  473SOL    HW2 1439   0.106   2.284  -0.023
  474SOL     OW 1440   1.440   2.718   1.398
  474SOL    HW1 1441   1.383   2.770   1.335
  474SOL    HW2 1442   1.536   2.730   1.374
  475SOL     OW 1443   0.072   2.028   0.318
  475SOL    HW1 1444   0.055   2.111   0.264
  475SOL    HW2 1445   0.162   1.991   0.296
  476SOL     OW 1446   0.613   2.704   1.431
  476SOL    HW1 1447   0.669   2.785   1.414
  476SOL    HW2 1448   0.672   2.624   1.434
  477SOL     OW 1449   0.716   2.427   1.708
  477SOL    HW1 1450   0.735   2.492   1.782
  477SOL    HW2 1451   0.776   2.347   1.717
  478SOL     OW 1452   1.450   3.082   1.633
  478SOL    HW1 1453   1.441   3.072   1.732
  478SOL    HW2 1454   1.546   3.075   1.607
  479SOL     OW 1455   1.674   2.745   1.254
  479SOL    HW1 1456   1.647   2.656   1.217
  479SOL    HW2 1457   1.675   2.813   1.181
  480SOL     OW 1458   1.225   2.187   0.449
  480SOL    HW1 1459   1.290   2.113   0.438
  480SOL    HW2 1460   1.245   2.237   0.533
  481SOL     OW 1461   0.594   2.607   0.652
  481SOL    HW1 1462   0.644   2.692   0.633
  481SOL    HW2 1463   0.506   2.609   0.604
  482SOL     OW 1464   1.777   2.204   1.642
  482SOL    HW1 1465   1.760   2.235   1.548
  482SOL    HW2 1466   1.693   2.167   1.680
  483SOL     OW 1467   1.730   2.796   1.517
  483SOL    HW1 1468   1.768   2.887   1.532
  483SOL    HW2 1469   1.722   2.779   1.418
  484SOL     OW 1470   0.859   2.818   0.861
  484SOL    HW1 1471   0.913   2.749   0.909
  484SOL    HW2 1472   0.827   2.887   0.927
  485SOL     OW 1473   1.083   2.846   0.087
  485SOL    HW1 1474   1.060   2.899   0.005
  485SOL    HW2 1475   1.164   2.790   0.068
  486SOL     OW 1476   0.079   3.102   0.653
  486SOL    HW1 1477   0.078   3.055   0.741
  486SOL    HW2 1478   0.161   3.074   0.602
  487SOL     OW 1479   1.824   2.054   1.227
  487SOL    HW1 1480   1.820   1.964   1.271
  487SOL    HW2 1481   1.827   2.043   1.128
  488SOL     OW 1482   0.428   2.286   0.520
  488SOL    HW1 1483   0.458   2.214   0.458
  488SOL    HW2 1484   0.389   2.246   0.603
  489SOL     OW 1485   0.317   2.409   1.280
  489SOL    HW1 1486   0.355   2.350   1.352
  489SOL    HW2 1487   0.357   2.383   1.192
  490SOL     OW 1488   1.424   2.076   1.112
  490SOL    HW1 1489   1.476   2.011   1.167
  490SOL    HW2 1490   1.375   2.139   1.173
  491SOL     OW 1491   1.001   1.896   1.154
  491SOL    HW1 1492   0.938   1.824   1.123
  491SOL    HW2 1493   1.094   1.860   1.154
  492SOL     OW 1494   0.770   3.192   0.301
  492SOL    HW1 1495   0.724   3.105   0.318
  492SOL    HW2 1496   0.861   3.189   0.342
  493SOL     OW 1497   1.352   1.914   0.168
  493SOL    HW1 1498   1.387   1.873   0.084
  493SOL    HW2 1499   1.262   1.876   0.188
  494SOL     OW 1500   1.300   2.315   0.691
  494SOL    HW1 1501   1.241   2.395   0.695
  494SOL    HW2 1502   1.315   2.280   0.784
  495SOL     OW 1503   1.593   2.083   0.882
  495SOL    HW1 1504   1.509   2.082   0.936
  495SOL    HW2 1505   1.595   2.166   0.826
  496SOL     OW 1506   0.039   2.939   0.300
  496SOL    HW1 1507   0.138   2.928   0.291
  496SOL    HW2 1508  -0.001   2.853   0.332
  497SOL     OW 1509   0.230   2.490   1.975
  497SOL    HW1 1510   0.137   2.488   2.012
  497SOL    HW2 1511   0.231   2.451   1.883
  498SOL     OW 1512   0.225   2.137   2.858
  498SOL    HW1 1513   0.260   2.120   2.950
  498SOL    HW2 1514   0.137   2.092   2.846
  499SOL     OW 1515   0.019   2.230   2.509
  499SOL    HW1 1516  -0.063   2.273   2.548
  499SOL    HW2 1517  -0.009   2.157   2.446
  500SOL     OW 1518   1.135   2.565   2.579
  500SOL    HW1 1519   1.192   2.643   2.554
  500SOL    HW2 1520   1.075   2.591   2.655
  501SOL     OW 1521   1.755   2.469   2.093
  501SOL    HW1 1522   1.743   2.456   1.994
  501SOL    HW2 1523   1.725   2.388   2.142
  502SOL     OW 1524   0.768   3.006   2.885
  502SOL    HW1 1525   0.690   3.023   2.945
  502SOL    HW2 1526   0.802   3.093   2.849
  503SOL     OW 1527   0.685   2.874   2.527
  503SOL    HW1 1528   0.754   2.858   2.597
  503SOL    HW2 1529   0.612   2.931   2.565
  504SOL     OW 1530   1.603   2.309   2.599
  504SOL    HW1 1531   1.529   2.355   2.549
  504SOL    HW2 1532   1.654   2.377   2.652
  505SOL     OW 1533   0.240   2.953   2.748
  505SOL    HW1 1534   0.254   2.869   2.800
  505SOL    HW2 1535   0.185   3.017   2.803
  506SOL     OW 1536   0.606   2.826   1.985
  506SOL    HW1 1537   0.613   2.910   1.931
  506SOL    HW2 1538   0.652   2.839   2.073
  507SOL     OW 1539   0.122   2.505   2.425
  507SOL    HW1 1540   0.077   2.417   2.442
  507SOL    HW2 1541   0.121   2.559   2.509
  508SOL     OW 1542   1.689   2.784   2.474
  508SOL    HW1 1543   1.784   2.755   2.482
  508SOL    HW2 1544   1.681   2.849   2.399
  509SOL     OW 1545   1.641   2.970   2.294
  509SOL    HW1 1546   1.727   2.972   2.242
  509SOL    HW2 1547   1.655   3.017   2.382
  510SOL     OW 1548   0.809   1.866   2.364
  510SOL    HW1 1549   0.849   1.957   2.355
  510SOL    HW2 1550   0.709   1.874   2.370
  511SOL     OW 1551   0.197   2.838   3.126
  511SOL    HW1 1552   0.286   2.793   3.112
  511SOL    HW2 1553   0.124   2.773   3.107
  512SOL     OW 1554   1.525   2.861   2.052
  512SOL    HW1 1555   1.462   2.785   2.065
  512SOL    HW2 1556   1.573   2.879   2.138
  513SOL     OW 1557   0.598   2.591   2.132
  513SOL    HW1 1558   0.622   2.660   2.064
  513SOL    HW2 1559   0.520   2.624   2.186
  514SOL     OW 1560   1.281   2.207   2.806
  514SOL    HW1 1561   1.195   2.157   2.793
  514SOL    HW2 1562   1.343   2.153   2.862
  515SOL     OW 1563   1.041   2.563   2.291
  515SOL    HW1 1564   1.067   2.559   2.387
  515SOL    HW2 1565   0.956   2.512   2.277
  516SOL     OW 1566   0.076   2.673   2.651
  516SOL    HW1 1567   0.175   2.661   2.660
  516SOL    HW2 1568   0.052   2.768   2.672
  517SOL     OW 1569   0.865   2.210   2.057
  517SOL    HW1 1570   0.924   2.273   2.008
  517SOL    HW2 1571   0.884   2.116   2.028
  518SOL     OW 1572   1.362   3.006   2.407
  518SOL    HW1 1573   1.445   2.977   2.359
  518SOL    HW2 1574   1.313   3.073   2.351
  519SOL     OW 1575   0.550   2.058   2.747
  519SOL    HW1 1576   0.545   2.053   2.847
  519SOL    HW2 1577   0.552   2.154   2.718
  520SOL     OW 1578   1.795   2.928   2.735
  520SOL    HW1 1579   1.733   2.913   2.659
  520SOL    HW2 1580   1.743   2.939   2.820
  521SOL     OW 1581   0.321   2.805   2.104
  521SOL    HW1 1582   0.403   2.844   2.062
  521SOL    HW2 1583   0.294   2.723   2.055
  522SOL     OW 1584   1.458   2.597   2.590
  522SOL    HW1 1585   1.453   2.532   2.665
  522SOL    HW2 1586   1.538   2.656   2.603
  523SOL     OW 1587   1.400   1.969   2.288
  523SOL    HW1 1588   1.376   1.932   2.198
  523SOL    HW2 1589   1.499   1.985   2.292
  524SOL     OW 1590   0.382   2.562   2.342
  524SOL    HW1 1591   0.427   2.472   2.339
  524SOL    HW2 1592   0.288   2.551   2.375
  525SOL     OW 1593   0.614   1.984   1.979
  525SOL    HW1 1594   0.712   1.962   1.986
  525SOL    HW2 1595   0.583   1.967   1.886
  526SOL     OW 1596   0.922   2.365   2.761
  526SOL    HW1 1597   0.897   2.356   2.665
  526SOL    HW2 1598   0.970   2.283   2.792
  527SOL     OW 1599   0.539   1.926   2.374
  527SOL    HW1 1600   0.458   1.927   2.432
  527SOL    HW2 1601   0.542   2.009   2.319
  528SOL     OW 1602   0.297   1.897   2.033
  528SOL    HW1 1603   0.346   1.981   2.012
  528SOL    HW2 1604   0.359   1.832   2.078
  529SOL     OW 1605   0.935   2.098   2.342
  529SOL    HW1 1606   0.887   2.139   2.264
  529SOL    HW2 1607   1.034   2.096   2.323
  530SOL     OW 1608   0.459   3.014   2.603
  530SOL    HW1 1609   0.388   2.987   2.668
  530SOL    HW2 1610   0.433   2.986   2.510
  531SOL     OW 1611   1.032   2.411   1.878
  531SOL    HW1 1612   0.991   2.493   1.839
  531SOL    HW2 1613   1.096   2.437   1.951
  532SOL     OW 1614   0.866   2.316   2.504
  532SOL    HW1 1615   0.834   2.388   2.442
  532SOL    HW2 1616   0.890   2.235   2.451
  533SOL     OW 1617   1.017   1.901   2.615
  533SOL    HW1 1618   0.945   1.906   2.546
  533SOL    HW2 1619   0.993   1.832   2.684
  534SOL     OW 1620   1.429   3.035   2.729
  534SOL    HW1 1621   1.374   2.951   2.722
  534SOL    HW2 1622   1.455   3.064   2.637
  535SOL     OW 1623   1.466   2.452   2.854
  535SOL    HW1 1624   1.436   2.357   2.861
  535SOL    HW2 1625   1.539   2.468   2.920
  536SOL     OW 1626   1.857   2.695   2.239
  536SOL    HW1 1627   1.899   2.631   2.303
  536SOL    HW2 1628   1.819   2.644   2.161
  537SOL     OW 1629   1.390   2.437   1.940
  537SOL    HW1 1630   1.336   2.416   2.021
  537SOL    HW2 1631   1.481   2.396   1.949
  538SOL     OW 1632   0.527   2.118   2.190
  538SOL    HW1 1633   0.554   2.059   2.115
  538SOL    HW2 1634   0.527   2.213   2.159
  539SOL     OW 1635   1.638   2.961   2.941
  539SOL    HW1 1636   1.643   3.042   3.000
  539SOL    HW2 1637   1.552   2.963   2.890
  540SOL     OW 1638   0.705   2.912   2.230
  540SOL    HW1 1639   0.691   2.919   2.329
  540SOL    HW2 1640   0.789   2.861   2.212
  541SOL     OW 1641   0.410   2.675   3.113
  541SOL    HW1 1642   0.496   2.687   3.163
  541SOL    HW2 1643   0.368   2.588   3.140
  542SOL     OW 1644   0.367   2.962   2.363
  542SOL    HW1 1645   0.360   3.045   2.307
  542SOL    HW2 1646   0.371   2.882   2.303
  543SOL     OW 1647   0.566   2.399   2.727
  543SOL    HW1 1648   0.578   2.465   2.653
  543SOL    HW2 1649   0.612   2.433   2.810
  544SOL     OW 1650   1.582   2.501   2.334
  544SOL    HW1 1651   1.551   2.562   2.407
  544SOL    HW2 1652   1.632   2.553   2.265
  545SOL     OW 1653   0.573   2.732   2.891
  545SOL    HW1 1654   0.617   2.821   2.882
  545SOL    HW2 1655   0.510   2.732   2.968
  546SOL     OW 1656   1.360   2.724   2.907
  546SOL    HW1 1657   1.285   2.724   2.841
  546SOL    HW2 1658   1.397   2.632   2.916
  547SOL     OW 1659   1.209   2.387   2.137
  547SOL    HW1 1660   1.222   2.303   2.191
  547SOL    HW2 1661   1.180   2.461   2.197
  548SOL     OW 1662   0.307   2.075   3.093
  548SOL    HW1 1663   0.284   2.112   3.183
  548SOL    HW2 1664   0.277   1.980   3.087
  549SOL     OW 1665   0.037   3.172   3.144
  549SOL    HW1 1666   0.090   3.123   3.212
  549SOL    HW2 1667   0.059   3.270   3.149
  550SOL     OW 1668   0.732   2.496   2.926
  550SOL    HW1 1669   0.791   2.470   2.850
  550SOL    HW2 1670   0.704   2.592   2.915
  551SOL     OW 1671   0.307   1.925   2.480
  551SOL    HW1 1672   0.296   2.019   2.513
  551SOL    HW2 1673   0.302   1.862   2.557
  552SOL     OW 1674   1.622   2.229   2.236
  552SOL    HW1 1675   1.624   2.153   2.300
  552SOL    HW2 1676   1.574   2.306   2.276
  553SOL     OW 1677   1.023   2.628   2.828
  553SOL    HW1 1678   1.038   2.649   2.924
  553SOL    HW2 1679   0.993   2.533   2.819
  554SOL     OW 1680   1.540   2.136   1.987
  554SOL    HW1 1681   1.479   2.061   2.010
  554SOL    HW2 1682   1.562   2.188   2.070
  555SOL     OW 1683   1.303   2.700   1.904
  555SOL    HW1 1684   1.337   2.607   1.919
  555SOL    HW2 1685   1.321   2.727   1.809
  556SOL     OW 1686   0.319   2.672   2.811
  556SOL    HW1 1687   0.412   2.708   2.816
  556SOL    HW2 1688   0.313   2.587   2.863
  557SOL     OW 1689   0.339   2.371   2.868
  557SOL    HW1 1690   0.287   2.288   2.851
  557SOL    HW2 1691   0.416   2.376   2.804
  558SOL     OW 1692   1.160   2.069   3.339
  558SOL    HW1 1693   1.160   2.133   3.416
  558SOL    HW2 1694   1.188   2.117   3.256
  559SOL     OW 1695   0.008   3.188   2.062
  559SOL    HW1 1696  -0.085   3.209   2.031
  559SOL    HW2 1697   0.018   3.089   2.075
  560SOL     OW 1698   1.002   2.658   3.100
  560SOL    HW1 1699   1.043   2.626   3.186
  560SOL    HW2 1700   0.906   2.631   3.097
  561SOL     OW 1701   0.040   2.406   2.976
  561SOL    HW1 1702   0.125   2.373   2.935
  561SOL    HW2 1703   0.053   2.421   3.074
  562SOL     OW 1704   0.815   2.434   2.187
  562SOL    HW1 1705   0.822   2.345   2.141
  562SOL    HW2 1706   0.721   2.468   2.179
  563SOL     OW 1707   1.657   2.466   3.068
  563SOL    HW1 1708   1.619   2.397   3.130
  563SOL    HW2 1709   1.739   2.430   3.024
  564SOL     OW 1710   0.671   2.326   3.131
  564SOL    HW1 1711   0.637   2.237   3.101
  564SOL    HW2 1712   0.697   2.380   3.051
  565SOL     OW 1713   0.473   2.362   2.053
  565SOL    HW1 1714   0.534   2.442   2.057
  565SOL    HW2 1715   0.378   2.393   2.060
  566SOL     OW 1716   1.347   2.921   3.096
  566SOL    HW1 1717   1.371   2.858   3.022
  566SOL    HW2 1718   1.257   2.961   3.078
  567SOL     OW 1719   1.302   2.717   2.171
  567SOL    HW1 1720   1.216   2.686   2.213
  567SOL    HW2 1721   1.298   2.703   2.072
  568SOL     OW 1722   0.083   3.120   2.884
  568SOL    HW1 1723   0.078   3.119   2.984
  568SOL    HW2 1724   0.000   3.079   2.846
  569SOL     OW 1725   1.726   1.997   2.385
  569SOL    HW1 1726   1.799   1.980   2.318
  569SOL    HW2 1727   1.695   1.910   2.423
  570SOL     OW 1728   1.280   2.789   2.534
  570SOL    HW1 1729   1.340   2.708   2.536
  570SOL    HW2 1730   1.320   2.858   2.474
  571SOL     OW 1731   1.841   2.037   2.825
  571SOL    HW1 1732   1.880   1.952   2.789
  571SOL    HW2 1733   1.743   2.039   2.806
  572SOL     OW 1734   0.263   2.188   2.582
  572SOL    HW1 1735   0.184   2.239   2.548
  572SOL    HW2 1736   0.254   2.173   2.680
  573SOL     OW 1737   0.822   2.864   3.234
  573SOL    HW1 1738   0.862   2.863   3.142
  573SOL    HW2 1739   0.832   2.956   3.274
  574SOL     OW 1740   0.916   2.772   2.153
  574SOL    HW1 1741   0.979   2.810   2.085
  574SOL    HW2 1742   0.956   2.689   2.192
  575SOL     OW 1743   1.614   3.154   3.151
  575SOL    HW1 1744   1.674   3.157   3.231
  575SOL    HW2 1745   1.539   3.218   3.164
  576SOL     OW 1746   1.039   2.960   2.558
  576SOL    HW1 1747   0.969   2.913   2.612
  576SOL    HW2 1748   1.098   2.892   2.515
  577SOL     OW 1749   1.014   2.098   2.833
  577SOL    HW1 1750   1.006   2.062   2.740
  577SOL    HW2 1751   1.012   2.022   2.898
  578SOL     OW 1752   1.709   2.247   3.243
  578SOL    HW1 1753   1.782   2.316   3.247
  578SOL    HW2 1754   1.737   2.172   3.184
  579SOL     OW 1755   0.075   2.207   1.895
  579SOL    HW1 1756  -0.017   2.179   1.866
  579SOL    HW2 1757   0.106   2.284   1.839
  580SOL     OW 1758   0.072   2.028   2.180
  580SOL    HW1 1759   0.055   2.111   2.126
  580SOL    HW2 1760   0.162   1.991   2.158
  581SOL     OW 1761   1.674   2.745   3.116
  581SOL    HW1 1762   1.647   2.656   3.079
  581SOL    HW2 1763   1.675   2.813   3.043
  582SOL     OW 1764   1.225   2.187   2.311
  582SOL    HW1 1765   1.290   2.113   2.300
  582SOL    HW2 1766   1.245   2.237   2.395
  583SOL     OW 1767   0.594   2.607   2.514
  583SOL    HW1 1768   0.644   2.692   2.495
  583SOL    HW2 1769   0.506   2.609   2.466
  584SOL     OW 1770   1.730   2.796   3.379
  584SOL    HW1 1771   1.768   2.887   3.394
  584SOL    HW2 1772   1.722   2.779   3.280
  585SOL     OW 1773   0.859   2.818   2.723
  585SOL    HW1 1774   0.913   2.749   2.771
  585SOL    HW2 1775   0.827   2.887   2.789
  586SOL     OW 1776   1.083   2.846   1.949
  586SOL    HW1 1777   1.060   2.899   1.867
  586SOL    HW2 1778   1.164   2.790   1.930
  587SOL     OW 1779   0.079   3.102   2.515
  587SOL    HW1 1780   0.078   3.055   2.603
  587SOL    HW2 1781   0.161   3.074   2.464
  588SOL     OW 1782   1.824   2.054   3.089
  588SOL    HW1 1783   1.820   1.964   3.133
  588SOL    HW2 1784   1.827   2.043   2.990
  589SOL     OW 1785   0.428   2.286   2.382
  589SOL    HW1 1786   0.458   2.214   2.320
  589SOL    HW2 1787   0.389   2.246   2.465
  590SOL     OW 1788   1.424   2.076   2.974
  590SOL    HW1 1789   1.476   2.011   3.029
  590SOL    HW2 1790   1.375   2.139   3.035
  591SOL     OW 1791   1.001   1.896   3.016
  591SOL    HW1 1792   0.938   1.824   2.985
  591SOL    HW2 1793   1.094   1.860   3.016
  592SOL     OW 1794   0.770   3.192   2.163
  592SOL    HW1 1795   0.724   3.105   2.180
  592SOL    HW2 1796   0.861   3.189   2.204
  593SOL     OW 1797   1.352   1.914   2.030
  593SOL    HW1 1798   1.387   1.873   1.946
  593SOL    HW2 1799   1.262   1.876   2.050
  594SOL     OW 1800   1.300   2.315   2.553
  594SOL    HW1 1801   1.241   2.395   2.557
  594SOL    HW2 1802   1.315   2.280   2.646
  595SOL     OW 1803   1.593   2.083   2.744
  595SOL    HW1 1804   1.509   2.082   2.798
  595SOL    HW2 1805   1.595   2.166   2.688
  596SOL     OW 1806   0.039   2.939   2.162
  596SOL    HW1 1807   0.138   2.928   2.153
  596SOL    HW2 1808  -0.001   2.853   2.194
  597SOL     OW 1809   2.092   0.628   0.113
  597SOL    HW1 1810   1.999   0.626   0.150
  597SOL    HW2 1811   2.093   0.589   0.021
  598SOL     OW 1812   2.087   0.275   0.996
  598SOL    HW1 1813   2.122   0.258   1.088
  598SOL    HW2 1814   1.999   0.230   0.984
  599SOL     OW 1815   1.881   0.368   0.647
  599SOL    HW1 1816   1.799   0.411   0.686
  599SOL    HW2 1817   1.853   0.295   0.584
  600SOL     OW 1818   2.431   1.275   1.165
  600SOL    HW1 1819   2.338   1.268   1.128
  600SOL    HW2 1820   2.442   1.364   1.209
  601SOL     OW 1821   2.997   0.703   0.717
  601SOL    HW1 1822   3.054   0.781   0.692
  601SOL    HW2 1823   2.937   0.729   0.793
  602SOL     OW 1824   2.630   1.144   1.023
  602SOL    HW1 1825   2.552   1.161   1.083
  602SOL    HW2 1826   2.664   1.231   0.987
  603SOL     OW 1827   2.712   0.798   1.823
  603SOL    HW1 1828   2.708   0.874   1.888
  603SOL    HW2 1829   2.734   0.834   1.732
  604SOL     OW 1830   2.547   1.012   0.665
  604SOL    HW1 1831   2.616   0.996   0.735
  604SOL    HW2 1832   2.474   1.069   0.703
  605SOL     OW 1833   2.548   1.161   1.803
  605SOL    HW1 1834   2.608   1.240   1.817
  605SOL    HW2 1835   2.462   1.192   1.762
  606SOL     OW 1836   2.197   1.435   1.061
  606SOL    HW1 1837   2.119   1.404   1.008
  606SOL    HW2 1838   2.255   1.493   1.004
  607SOL     OW 1839   2.300   0.392   1.499
  607SOL    HW1 1840   2.382   0.336   1.508
  607SOL    HW2 1841   2.219   0.334   1.503
  608SOL     OW 1842   2.093   1.713   0.483
  608SOL    HW1 1843   2.127   1.790   0.537
  608SOL    HW2 1844   2.137   1.713   0.393
  609SOL     OW 1845   2.989   1.341   1.690
  609SOL    HW1 1846   3.036   1.341   1.778
  609SOL    HW2 1847   2.941   1.254   1.679
  610SOL     OW 1848   2.092   1.434   0.538
  610SOL    HW1 1849   2.066   1.530   0.538
  610SOL    HW2 1850   2.021   1.380   0.583
  611SOL     OW 1851   2.102   1.091   0.886
  611SOL    HW1 1852   2.116   1.007   0.938
  611SOL    HW2 1853   2.047   1.155   0.941
  612SOL     OW 1854   2.482   1.786   1.439
  612SOL    HW1 1855   2.390   1.769   1.474
  612SOL    HW2 1856   2.510   1.878   1.465
  613SOL     OW 1857   2.468   0.964   0.123
  613SOL    HW1 1858   2.475   1.048   0.069
  613SOL    HW2 1859   2.514   0.977   0.211
  614SOL     OW 1860   1.984   0.643   0.563
  614SOL    HW1 1861   1.939   0.555   0.580
  614SOL    HW2 1862   1.983   0.697   0.647
  615SOL     OW 1863   1.889   1.596   0.117
  615SOL    HW1 1864   1.870   1.500   0.138
  615SOL    HW2 1865   1.856   1.654   0.192
  616SOL     OW 1866   1.975   0.737   1.597
  616SOL    HW1 1867   2.063   0.724   1.642
  616SOL    HW2 1868   1.962   0.834   1.575
  617SOL     OW 1869   2.475   1.365   0.726
  617SOL    HW1 1870   2.426   1.278   0.735
  617SOL    HW2 1871   2.452   1.408   0.639
  618SOL     OW 1872   2.671   0.004   0.502
  618SOL    HW1 1873   2.711   0.095   0.493
  618SOL    HW2 1874   2.571   0.012   0.508
  619SOL     OW 1875   2.059   0.976   1.264
  619SOL    HW1 1876   2.148   0.931   1.250
  619SOL    HW2 1877   1.986   0.911   1.245
  620SOL     OW 1878   2.179   0.251   1.801
  620SOL    HW1 1879   2.250   0.322   1.807
  620SOL    HW2 1880   2.091   0.290   1.829
  621SOL     OW 1881   2.460   0.729   0.270
  621SOL    HW1 1882   2.484   0.798   0.202
  621SOL    HW2 1883   2.382   0.762   0.324
  622SOL     OW 1884   2.669   0.605   1.465
  622SOL    HW1 1885   2.622   0.602   1.554
  622SOL    HW2 1886   2.618   0.550   1.399
  623SOL     OW 1887   2.835   0.890   1.572
  623SOL    HW1 1888   2.881   0.806   1.543
  623SOL    HW2 1889   2.779   0.924   1.497
  624SOL     OW 1890   2.853   0.410   1.242
  624SOL    HW1 1891   2.776   0.444   1.296
  624SOL    HW2 1892   2.819   0.359   1.163
  625SOL     OW 1893   2.903   0.701   0.429
  625SOL    HW1 1894   2.929   0.697   0.525
  625SOL    HW2 1895   2.818   0.650   0.415
  626SOL     OW 1896   1.938   0.811   0.789
  626SOL    HW1 1897   2.037   0.799   0.798
  626SOL    HW2 1898   1.914   0.906   0.810
  627SOL     OW 1899   2.727   0.348   0.195
  627SOL    HW1 1900   2.786   0.411   0.146
  627SOL    HW2 1901   2.746   0.254   0.166
  628SOL     OW 1902   2.412   0.196   0.885
  628SOL    HW1 1903   2.407   0.191   0.985
  628SOL    HW2 1904   2.414   0.292   0.856
  629SOL     OW 1905   2.870   1.456   0.477
  629SOL    HW1 1906   2.824   1.528   0.425
  629SOL    HW2 1907   2.866   1.476   0.575
  630SOL     OW 1908   2.213   1.801   0.853
  630SOL    HW1 1909   2.263   1.715   0.859
  630SOL    HW2 1910   2.278   1.878   0.850
  631SOL     OW 1911   3.089   1.550   1.506
  631SOL    HW1 1912   3.095   1.473   1.570
  631SOL    HW2 1913   3.037   1.524   1.426
  632SOL     OW 1914   2.183   0.943   0.242
  632SOL    HW1 1915   2.265   0.982   0.200
  632SOL    HW2 1916   2.156   0.861   0.193
  633SOL     OW 1917   2.323   1.266   1.727
  633SOL    HW1 1918   2.273   1.267   1.641
  633SOL    HW2 1919   2.260   1.248   1.803
  634SOL     OW 1920   2.973   1.776   0.237
  634SOL    HW1 1921   2.913   1.714   0.287
  634SOL    HW2 1922   3.004   1.732   0.152
  635SOL     OW 1923   2.064   0.285   1.498
  635SOL    HW1 1924   1.984   0.345   1.485
  635SOL    HW2 1925   2.054   0.236   1.584
  636SOL     OW 1926   2.326   1.743   0.323
  636SOL    HW1 1927   2.359   1.782   0.409
  636SOL    HW2 1928   2.402   1.736   0.258
  637SOL     OW 1929   2.111   1.785   1.241
  637SOL    HW1 1930   2.168   1.720   1.291
  637SOL    HW2 1931   2.095   1.752   1.148
  638SOL     OW 1932   2.802   1.698   0.904
  638SOL    HW1 1933   2.882   1.641   0.925
  638SOL    HW2 1934   2.753   1.658   0.827
  639SOL     OW 1935   2.244   0.700   0.480
  639SOL    HW1 1936   2.289   0.610   0.477
  639SOL    HW2 1937   2.150   0.689   0.513
  640SOL     OW 1938   2.476   0.122   0.117
  640SOL    HW1 1939   2.574   0.100   0.124
  640SOL    HW2 1940   2.445   0.105   0.024
  641SOL     OW 1941   2.643   0.264   1.749
  641SOL    HW1 1942   2.710   0.203   1.792
  641SOL    HW2 1943   2.570   0.283   1.814
  642SOL     OW 1944   2.750   1.514   1.195
  642SOL    HW1 1945   2.727   1.489   1.101
  642SOL    HW2 1946   2.811   1.445   1.234
  643SOL     OW 1947   2.665   1.402   0.924
  643SOL    HW1 1948   2.755   1.416   0.882
  643SOL    HW2 1949   2.594   1.404   0.853
  644SOL     OW 1950   2.784   0.503   0.899
  644SOL    HW1 1951   2.759   0.494   0.803
  644SOL    HW2 1952   2.832   0.421   0.930
  645SOL     OW 1953   2.401   0.064   0.512
  645SOL    HW1 1954   2.320   0.065   0.570
  645SOL    HW2 1955   2.404   0.147   0.457
  646SOL     OW 1956   2.159   0.035   0.171
  646SOL    HW1 1957   2.208   0.119   0.150
  646SOL    HW2 1958   2.221  -0.030   0.216
  647SOL     OW 1959   2.797   0.236   0.480
  647SOL    HW1 1960   2.749   0.277   0.402
  647SOL    HW2 1961   2.896   0.234   0.461
  648SOL     OW 1962   2.938   0.683   1.464
  648SOL    HW1 1963   2.858   0.622   1.467
  648SOL    HW2 1964   3.019   0.630   1.440
  649SOL     OW 1965   3.089   1.570   0.793
  649SOL    HW1 1966   3.110   1.644   0.728
  649SOL    HW2 1967   3.157   1.570   0.866
  650SOL     OW 1968   2.321   1.152   0.741
  650SOL    HW1 1969   2.250   1.125   0.806
  650SOL    HW2 1970   2.295   1.124   0.648
  651SOL     OW 1971   3.133   1.797   0.591
  651SOL    HW1 1972   3.177   1.861   0.527
  651SOL    HW2 1973   3.083   1.849   0.661
  652SOL     OW 1974   2.894   0.549   0.016
  652SOL    HW1 1975   2.853   0.631  -0.023
  652SOL    HW2 1976   2.958   0.575   0.089
  653SOL     OW 1977   1.940   0.556   1.386
  653SOL    HW1 1978   2.032   0.555   1.345
  653SOL    HW2 1979   1.934   0.630   1.453
  654SOL     OW 1980   2.423   0.222   1.147
  654SOL    HW1 1981   2.461   0.138   1.184
  654SOL    HW2 1982   2.335   0.241   1.191
  655SOL     OW 1983   2.728   0.454   0.642
  655SOL    HW1 1984   2.696   0.526   0.580
  655SOL    HW2 1985   2.752   0.373   0.589
  656SOL     OW 1986   2.879   0.039   0.753
  656SOL    HW1 1987   2.807   0.044   0.684
  656SOL    HW2 1988   2.855  -0.030   0.822
  657SOL     OW 1989   2.350   1.385   0.174
  657SOL    HW1 1990   2.263   1.370   0.221
  657SOL    HW2 1991   2.333   1.411   0.079
  658SOL     OW 1992   2.389   0.256   0.328
  658SOL    HW1 1993   2.416   0.197   0.253
  658SOL    HW2 1994   2.389   0.351   0.297
  659SOL     OW 1995   2.926   1.347   1.340
  659SOL    HW1 1996   2.846   1.324   1.395
  659SOL    HW2 1997   3.009   1.321   1.389
  660SOL     OW 1998   2.973   1.195   1.100
  660SOL    HW1 1999   2.933   1.239   1.181
  660SOL    HW2 2000   2.932   1.232   1.017
  661SOL     OW 2001   2.777   0.089   1.402
  661SOL    HW1 2002   2.802   0.069   1.307
  661SOL    HW2 2003   2.849   0.145   1.444
  662SOL     OW 2004   2.842   1.116   1.719
  662SOL    HW1 2005   2.743   1.122   1.729
  662SOL    HW2 2006   2.865   1.036   1.663
  663SOL     OW 2007   2.567   1.050   0.368
  663SOL    HW1 2008   2.553   1.057   0.467
  663SOL    HW2 2009   2.651   0.999   0.350
  664SOL     OW 2010   2.272   0.813   1.251
  664SOL    HW1 2011   2.358   0.825   1.301
  664SOL    HW2 2012   2.230   0.726   1.278
  665SOL     OW 2013   1.926   1.564   1.331
  665SOL    HW1 2014   1.880   1.646   1.297
  665SOL    HW2 2015   2.024   1.583   1.340
  666SOL     OW 2016   2.229   1.100   0.501
  666SOL    HW1 2017   2.222   1.183   0.445
  666SOL    HW2 2018   2.233   1.020   0.441
  667SOL     OW 2019   2.428   0.537   0.865
  667SOL    HW1 2020   2.440   0.603   0.791
  667SOL    HW2 2021   2.474   0.571   0.948
  668SOL     OW 2022   3.114   1.348   0.388
  668SOL    HW1 2023   3.164   1.425   0.428
  668SOL    HW2 2024   3.019   1.350   0.420
  669SOL     OW 2025   2.216   1.510   1.329
  669SOL    HW1 2026   2.195   1.466   1.242
  669SOL    HW2 2027   2.313   1.536   1.332
  670SOL     OW 2028   2.264   0.751   1.598
  670SOL    HW1 2029   2.332   0.806   1.551
  670SOL    HW2 2030   2.304   0.663   1.625
  671SOL     OW 2031   2.875   0.105   1.770
  671SOL    HW1 2032   2.881   0.190   1.718
  671SOL    HW2 2033   2.907   0.029   1.713
  672SOL     OW 2034   2.366   0.050   1.740
  672SOL    HW1 2035   2.324  -0.007   1.670
  672SOL    HW2 2036   2.300   0.119   1.772
  673SOL     OW 2037   2.435   0.870   1.029
  673SOL    HW1 2038   2.479   0.959   1.020
  673SOL    HW2 2039   2.372   0.870   1.106
  674SOL     OW 2040   3.222   0.862   1.045
  674SOL    HW1 2041   3.147   0.862   0.979
  674SOL    HW2 2042   3.259   0.770   1.054
  675SOL     OW 2043   3.071   0.525   0.275
  675SOL    HW1 2044   3.084   0.441   0.329
  675SOL    HW2 2045   3.042   0.599   0.335
  676SOL     OW 2046   2.169   0.213   1.231
  676SOL    HW1 2047   2.146   0.250   1.321
  676SOL    HW2 2048   2.139   0.118   1.225
  677SOL     OW 2049   1.899   1.310   1.282
  677SOL    HW1 2050   1.952   1.261   1.350
  677SOL    HW2 2051   1.921   1.408   1.287
  678SOL     OW 2052   2.594   0.634   1.064
  678SOL    HW1 2053   2.653   0.608   0.988
  678SOL    HW2 2054   2.566   0.730   1.053
  679SOL     OW 2055   2.169   0.063   0.618
  679SOL    HW1 2056   2.158   0.157   0.651
  679SOL    HW2 2057   2.164   0.000   0.695
  680SOL     OW 2058   2.885   0.766   0.966
  680SOL    HW1 2059   2.900   0.787   1.062
  680SOL    HW2 2060   2.855   0.671   0.957
  681SOL     OW 2061   2.842   1.573   1.700
  681SOL    HW1 2062   2.822   1.617   1.612
  681SOL    HW2 2063   2.881   1.482   1.684
  682SOL     OW 2064   2.212   0.898   1.804
  682SOL    HW1 2065   2.288   0.942   1.852
  682SOL    HW2 2066   2.247   0.851   1.722
  683SOL     OW 2067   2.930   1.333   0.849
  683SOL    HW1 2068   2.937   1.249   0.794
  683SOL    HW2 2069   2.992   1.402   0.813
  684SOL     OW 2070   2.181   0.810   0.949
  684SOL    HW1 2071   2.274   0.846   0.954
  684SOL    HW2 2072   2.175   0.725   1.001
  685SOL     OW 2073   2.201   0.509   1.006
  685SOL    HW1 2074   2.149   0.426   0.989
  685SOL    HW2 2075   2.278   0.514   0.942
  686SOL     OW 2076   3.000   0.380   1.678
  686SOL    HW1 2077   2.955   0.443   1.742
  686SOL    HW2 2078   3.093   0.411   1.661
  687SOL     OW 2079   3.022   0.207   1.477
  687SOL    HW1 2080   3.022   0.271   1.554
  687SOL    HW2 2081   3.050   0.255   1.394
  688SOL     OW 2082   1.870   1.326   0.200
  688SOL    HW1 2083   1.777   1.347   0.169
  688SOL    HW2 2084   1.880   1.227   0.213
  689SOL     OW 2085   1.950   1.801   0.927
  689SOL    HW1 2086   1.908   1.715   0.900
  689SOL    HW2 2087   2.044   1.804   0.893
  690SOL     OW 2088   2.366   1.568   0.910
  690SOL    HW1 2089   2.432   1.642   0.919
  690SOL    HW2 2090   2.410   1.489   0.868
  691SOL     OW 2091   2.864   0.796   1.238
  691SOL    HW1 2092   2.905   0.764   1.324
  691SOL    HW2 2093   2.768   0.769   1.235
  692SOL     OW 2094   1.902   0.544   1.114
  692SOL    HW1 2095   1.987   0.511   1.073
  692SOL    HW2 2096   1.915   0.559   1.212
  693SOL     OW 2097   2.051   0.520   1.722
  693SOL    HW1 2098   2.110   0.480   1.652
  693SOL    HW2 2099   1.993   0.591   1.681
  694SOL     OW 2100   2.677   0.572   0.325
  694SOL    HW1 2101   2.684   0.483   0.279
  694SOL    HW2 2102   2.583   0.606   0.317
  695SOL     OW 2103   2.114   1.564   1.744
  695SOL    HW1 2104   2.084   1.621   1.820
  695SOL    HW2 2105   2.107   1.467   1.770
  696SOL     OW 2106   2.533   0.464   1.269
  696SOL    HW1 2107   2.499   0.375   1.239
  696SOL    HW2 2108   2.559   0.518   1.189
  697SOL     OW 2109   2.792   1.678   1.465
  697SOL    HW1 2110   2.768   1.660   1.370
  697SOL    HW2 2111   2.822   1.772   1.475
  698SOL     OW 2112   2.335   0.500   0.191
  698SOL    HW1 2113   2.396   0.580   0.195
  698SOL    HW2 2114   2.240   0.531   0.198
  699SOL     OW 2115   2.021   1.137   1.466
  699SOL    HW1 2116   2.043   1.076   1.542
  699SOL    HW2 2117   2.031   1.088   1.380
  700SOL     OW 2118   3.114   1.731   1.128
  700SOL    HW1 2119   3.198   1.736   1.074
  700SOL    HW2 2120   3.091   1.635   1.146
  701SOL     OW 2121   1.945   1.258   1.022
  701SOL    HW1 2122   1.940   1.257   1.122
  701SOL    HW2 2123   1.862   1.217   0.984
  702SOL     OW 2124   2.550   1.662   1.716
  702SOL    HW1 2125   2.494   1.743   1.725
  702SOL    HW2 2126   2.602   1.666   1.630
  703SOL     OW 2127   2.765   0.086   0.133
  703SOL    HW1 2128   2.816   0.087   0.047
  703SOL    HW2 2129   2.821   0.044   0.204
  704SOL     OW 2130   2.692   1.273   1.422
  704SOL    HW1 2131   2.687   1.306   1.517
  704SOL    HW2 2132   2.606   1.292   1.376
  705SOL     OW 2133   2.534   1.616   0.154
  705SOL    HW1 2134   2.543   1.626   0.055
  705SOL    HW2 2135   2.494   1.527   0.175
  706SOL     OW 2136   2.125   0.326   0.720
  706SOL    HW1 2137   2.046   0.377   0.686
  706SOL    HW2 2138   2.116   0.311   0.818
  707SOL     OW 2139   2.684   1.002   1.372
  707SOL    HW1 2140   2.724   1.001   1.280
  707SOL    HW2 2141   2.694   1.094   1.412
  708SOL     OW 2142   2.778   0.910   0.291
  708SOL    HW1 2143   2.841   0.948   0.223
  708SOL    HW2 2144   2.818   0.827   0.330
  709SOL     OW 2145   2.234   1.288   1.490
  709SOL    HW1 2146   2.221   1.381   1.456
  709SOL    HW2 2147   2.150   1.236   1.477
  710SOL     OW 2148   2.901   1.098   0.696
  710SOL    HW1 2149   2.831   1.051   0.750
  710SOL    HW2 2150   2.960   1.030   0.653
  711SOL     OW 2151   2.876   0.236   0.971
  711SOL    HW1 2152   2.868   0.200   0.878
  711SOL    HW2 2153   2.874   0.160   1.036
  712SOL     OW 2154   2.452   1.487   0.491
  712SOL    HW1 2155   2.494   1.429   0.421
  712SOL    HW2 2156   2.408   1.566   0.447
  713SOL     OW 2157   2.117   1.348   0.290
  713SOL    HW1 2158   2.021   1.349   0.263
  713SOL    HW2 2159   2.129   1.401   0.374
  714SOL     OW 2160   1.967   1.013   1.726
  714SOL    HW1 2161   1.890   0.980   1.780
  714SOL    HW2 2162   2.052   0.983   1.768
  715SOL     OW 2163   2.534   0.203   1.489
  715SOL    HW1 2164   2.624   0.187   1.449
  715SOL    HW2 2165   2.542   0.208   1.588
  716SOL     OW 2166   1.934   0.166   0.318
  716SOL    HW1 2167   1.917   0.249   0.264
  716SOL    HW2 2168   2.024   0.129   0.296
  717SOL     OW 2169   2.475   0.842   1.431
  717SOL    HW1 2170   2.531   0.923   1.414
  717SOL    HW2 2171   2.534   0.762   1.434
  718SOL     OW 2172   2.578   0.565   1.708
  718SOL    HW1 2173   2.597   0.630   1.782
  718SOL    HW2 2174   2.638   0.485   1.717
  719SOL     OW 2175   2.252   1.741   1.560
  719SOL    HW1 2176   2.161   1.782   1.558
  719SOL    HW2 2177   2.245   1.647   1.592
  720SOL     OW 2178   2.456   0.745   0.652
  720SOL    HW1 2179   2.506   0.830   0.633
  720SOL    HW2 2180   2.368   0.747   0.604
  721SOL     OW 2181   2.721   1.374   0.016
  721SOL    HW1 2182   2.675   1.389   0.104
  721SOL    HW2 2183   2.765   1.459  -0.014
  722SOL     OW 2184   2.523   1.790   0.953
  722SOL    HW1 2185   2.477   1.878   0.940
  722SOL    HW2 2186   2.622   1.802   0.946
  723SOL     OW 2187   2.721   0.956   0.861
  723SOL    HW1 2188   2.775   0.887   0.909
  723SOL    HW2 2189   2.689   1.025   0.927
  724SOL     OW 2190   2.945   0.984   0.087
  724SOL    HW1 2191   2.922   1.037   0.005
  724SOL    HW2 2192   3.026   0.928   0.068
  725SOL     OW 2193   2.083   1.314   1.844
  725SOL    HW1 2194   2.018   1.241   1.823
  725SOL    HW2 2195   2.087   1.328   1.942
  726SOL     OW 2196   1.941   1.240   0.653
  726SOL    HW1 2197   1.940   1.193   0.741
  726SOL    HW2 2198   2.023   1.212   0.602
  727SOL     OW 2199   2.534   1.391   1.624
  727SOL    HW1 2200   2.456   1.341   1.662
  727SOL    HW2 2201   2.531   1.486   1.655
  728SOL     OW 2202   2.290   0.424   0.520
  728SOL    HW1 2203   2.320   0.352   0.458
  728SOL    HW2 2204   2.251   0.384   0.603
  729SOL     OW 2205   2.179   0.547   1.280
  729SOL    HW1 2206   2.217   0.488   1.352
  729SOL    HW2 2207   2.219   0.521   1.192
  730SOL     OW 2208   2.674   1.586   0.687
  730SOL    HW1 2209   2.706   1.596   0.593
  730SOL    HW2 2210   2.595   1.524   0.689
  731SOL     OW 2211   2.863   0.034   1.154
  731SOL    HW1 2212   2.800  -0.038   1.123
  731SOL    HW2 2213   2.956  -0.002   1.154
  732SOL     OW 2214   2.632   1.330   0.301
  732SOL    HW1 2215   2.586   1.243   0.318
  732SOL    HW2 2216   2.723   1.327   0.342
  733SOL     OW 2217   2.480   1.567   1.284
  733SOL    HW1 2218   2.475   1.649   1.341
  733SOL    HW2 2219   2.569   1.564   1.239
  734SOL     OW 2220   2.737   1.646   0.337
  734SOL    HW1 2221   2.660   1.611   0.283
  734SOL    HW2 2222   2.705   1.717   0.399
  735SOL     OW 2223   2.092   0.628   1.975
  735SOL    HW1 2224   1.999   0.626   2.012
  735SOL    HW2 2225   2.093   0.589   1.883
  736SOL     OW 2226   2.087   0.275   2.858
  736SOL    HW1 2227   2.122   0.258   2.950
  736SOL    HW2 2228   1.999   0.230   2.846
  737SOL     OW 2229   1.881   0.368   2.509
  737SOL    HW1 2230   1.799   0.411   2.548
  737SOL    HW2 2231   1.853   0.295   2.446
  738SOL     OW 2232   2.431   1.275   3.027
  738SOL    HW1 2233   2.338   1.268   2.990
  738SOL    HW2 2234   2.442   1.364   3.071
  739SOL     OW 2235   2.997   0.703   2.579
  739SOL    HW1 2236   3.054   0.781   2.554
  739SOL    HW2 2237   2.937   0.729   2.655
  740SOL     OW 2238   2.630   1.144   2.885
  740SOL    HW1 2239   2.552   1.161   2.945
  740SOL    HW2 2240   2.664   1.231   2.849
  741SOL     OW 2241   2.547   1.012   2.527
  741SOL    HW1 2242   2.616   0.996   2.597
  741SOL    HW2 2243   2.474   1.069   2.565
  742SOL     OW 2244   2.197   1.435   2.923
  742SOL    HW1 2245   2.119   1.404   2.870
  742SOL    HW2 2246   2.255   1.493   2.866
  743SOL     OW 2247   3.322   1.505   3.201
  743SOL    HW1 2248   3.346   1.599   3.227
  743SOL    HW2 2249   3.306   1.451   3.283
  744SOL     OW 2250   2.093   1.713   2.345
  744SOL    HW1 2251   2.127   1.790   2.399
  744SOL    HW2 2252   2.137   1.713   2.255
  745SOL     OW 2253   2.092   1.434   2.400
  745SOL    HW1 2254   2.066   1.530   2.400
  745SOL    HW2 2255   2.021   1.380   2.445
  746SOL     OW 2256   2.102   1.091   2.748
  746SOL    HW1 2257   2.116   1.007   2.800
  746SOL    HW2 2258   2.047   1.155   2.803
  747SOL     OW 2259   2.468   0.964   1.985
  747SOL    HW1 2260   2.475   1.048   1.931
  747SOL    HW2 2261   2.514   0.977   2.073
  748SOL     OW 2262   1.984   0.643   2.425
  748SOL    HW1 2263   1.939   0.555   2.442
  748SOL    HW2 2264   1.983   0.697   2.509
  749SOL     OW 2265   1.889   1.596   1.979
  749SOL    HW1 2266   1.870   1.500   2.000
  749SOL    HW2 2267   1.856   1.654   2.054
  750SOL     OW 2268   2.475   1.365   2.588
  750SOL    HW1 2269   2.426   1.278   2.597
  750SOL    HW2 2270   2.452   1.408   2.501
  751SOL     OW 2271   2.671   0.004   2.364
  751SOL    HW1 2272   2.711   0.095   2.355
  751SOL    HW2 2273   2.571   0.012   2.370
  752SOL     OW 2274   2.059   0.976   3.126
  752SOL    HW1 2275   2.148   0.931   3.112
  752SOL    HW2 2276   1.986   0.911   3.107
  753SOL     OW 2277   2.460   0.729   2.132
  753SOL    HW1 2278   2.484   0.798   2.064
  753SOL    HW2 2279   2.382   0.762   2.186
  754SOL     OW 2280   2.903   0.701   2.291
  754SOL    HW1 2281   2.929   0.697   2.387
  754SOL    HW2 2282   2.818   0.650   2.277
  755SOL     OW 2283   1.938   0.811   2.651
  755SOL    HW1 2284   2.037   0.799   2.660
  755SOL    HW2 2285   1.914   0.906   2.672
  756SOL     OW 2286   2.727   0.348   2.057
  756SOL    HW1 2287   2.786   0.411   2.008
  756SOL    HW2 2288   2.746   0.254   2.028
  757SOL     OW 2289   2.412   0.196   2.747
  757SOL    HW1 2290   2.407   0.191   2.847
  757SOL    HW2 2291   2.414   0.292   2.718
  758SOL     OW 2292   2.870   1.456   2.339
  758SOL    HW1 2293   2.824   1.528   2.287
  758SOL    HW2 2294   2.866   1.476   2.437
  759SOL     OW 2295   2.213   1.801   2.715
  759SOL    HW1 2296   2.263   1.715   2.721
  759SOL    HW2 2297   2.278   1.878   2.712
  760SOL     OW 2298   2.183   0.943   2.104
  760SOL    HW1 2299   2.265   0.982   2.062
  760SOL    HW2 2300   2.156   0.861   2.055
  761SOL     OW 2301   2.973   1.776   2.099
  761SOL    HW1 2302   2.913   1.714   2.149
  761SOL    HW2 2303   3.004   1.732   2.014
  762SOL     OW 2304   2.326   1.743   2.185
  762SOL    HW1 2305   2.359   1.782   2.271
  762SOL    HW2 2306   2.402   1.736   2.120
  763SOL     OW 2307   2.111   1.785   3.103
  763SOL    HW1 2308   2.168   1.720   3.153
  763SOL    HW2 2309   2.095   1.752   3.010
  764SOL     OW 2310   2.802   1.698   2.766
  764SOL    HW1 2311   2.882   1.641   2.787
  764SOL    HW2 2312   2.753   1.658   2.689
  765SOL     OW 2313   2.244   0.700   2.342
  765SOL    HW1 2314   2.289   0.610   2.339
  765SOL    HW2 2315   2.150   0.689   2.375
  766SOL     OW 2316   2.476   0.122   1.979
  766SOL    HW1 2317   2.574   0.100   1.986
  766SOL    HW2 2318   2.445   0.105   1.886
  767SOL     OW 2319   2.665   1.402   2.786
  767SOL    HW1 2320   2.755   1.416   2.744
  767SOL    HW2 2321   2.594   1.404   2.715
  768SOL     OW 2322   2.784   0.503   2.761
  768SOL    HW1 2323   2.759   0.494   2.665
  768SOL    HW2 2324   2.832   0.421   2.792
  769SOL     OW 2325   2.401   0.064   2.374
  769SOL    HW1 2326   2.320   0.065   2.432
  769SOL    HW2 2327   2.404   0.147   2.319
  770SOL     OW 2328   2.159   0.035   2.033
  770SOL    HW1 2329   2.208   0.119   2.012
  770SOL    HW2 2330   2.221  -0.030   2.078
  771SOL     OW 2331   2.797   0.236   2.342
  771SOL    HW1 2332   2.749   0.277   2.264
  771SOL    HW2 2333   2.896   0.234   2.323
  772SOL     OW 2334   3.089   1.570   2.655
  772SOL    HW1 2335   3.110   1.644   2.590
  772SOL    HW2 2336   3.157   1.570   2.728
  773SOL     OW 2337   2.321   1.152   2.603
  773SOL    HW1 2338   2.250   1.125   2.668
  773SOL    HW2 2339   2.295   1.124   2.510
  774SOL     OW 2340   3.133   1.797   2.453
  774SOL    HW1 2341   3.177   1.861   2.389
  774SOL    HW2 2342   3.083   1.849   2.523
  775SOL     OW 2343   2.894   0.549   1.878
  775SOL    HW1 2344   2.853   0.631   1.839
  775SOL    HW2 2345   2.958   0.575   1.951
  776SOL     OW 2346   2.728   0.454   2.504
  776SOL    HW1 2347   2.696   0.526   2.442
  776SOL    HW2 2348   2.752   0.373   2.451
  777SOL     OW 2349   2.879   0.039   2.615
  777SOL    HW1 2350   2.807   0.044   2.546
  777SOL    HW2 2351   2.855  -0.030   2.684
  778SOL     OW 2352   2.350   1.385   2.036
  778SOL    HW1 2353   2.263   1.370   2.083
  778SOL    HW2 2354   2.333   1.411   1.941
  779SOL     OW 2355   2.389   0.256   2.190
  779SOL    HW1 2356   2.416   0.197   2.115
  779SOL    HW2 2357   2.389   0.351   2.159
  780SOL     OW 2358   2.973   1.195   2.962
  780SOL    HW1 2359   2.933   1.239   3.043
  780SOL    HW2 2360   2.932   1.232   2.879
  781SOL     OW 2361   2.567   1.050   2.230
  781SOL    HW1 2362   2.553   1.057   2.329
  781SOL    HW2 2363   2.651   0.999   2.212
  782SOL     OW 2364   2.272   0.813   3.113
  782SOL    HW1 2365   2.358   0.825   3.163
  782SOL    HW2 2366   2.230   0.726   3.140
  783SOL     OW 2367   2.229   1.100   2.363
  783SOL    HW1 2368   2.222   1.183   2.307
  783SOL    HW2 2369   2.233   1.020   2.303
  784SOL     OW 2370   2.428   0.537   2.727
  784SOL    HW1 2371   2.440   0.603   2.653
  784SOL    HW2 2372   2.474   0.571   2.810
  785SOL     OW 2373   3.114   1.348   2.250
  785SOL    HW1 2374   3.164   1.425   2.290
  785SOL    HW2 2375   3.019   1.350   2.282
  786SOL     OW 2376   2.435   0.870   2.891
  786SOL    HW1 2377   2.479   0.959   2.882
  786SOL    HW2 2378   2.372   0.870   2.968
  787SOL     OW 2379   3.222   0.862   2.907
  787SOL    HW1 2380   3.147   0.862   2.841
  787SOL    HW2 2381   3.259   0.770   2.916
  788SOL     OW 2382   3.071   0.525   2.137
  788SOL    HW1 2383   3.084   0.441   2.191
  788SOL    HW2 2384   3.042   0.599   2.197
  789SOL     OW 2385   2.169   0.213   3.093
  789SOL    HW1 2386   2.146   0.250   3.183
  789SOL    HW2 2387   2.139   0.118   3.087
  790SOL     OW 2388   1.899   1.310   3.144
  790SOL    HW1 2389   1.952   1.261   3.212
  790SOL    HW2 2390   1.921   1.408   3.149
  791SOL     OW 2391   2.594   0.634   2.926
  791SOL    HW1 2392   2.653   0.608   2.850
  791SOL    HW2 2393   2.566   0.730   2.915
  792SOL     OW 2394   2.169   0.063   2.480
  792SOL    HW1 2395   2.158   0.157   2.513
  792SOL    HW2 2396   2.164   0.000   2.557
  793SOL     OW 2397   2.885   0.766   2.828
  793SOL    HW1 2398   2.900   0.787   2.924
  793SOL    HW2 2399   2.855   0.671   2.819
  794SOL     OW 2400   3.402   0.274   1.987
  794SOL    HW1 2401   3.341   0.199   2.010
  794SOL    HW2 2402   3.424   0.326   2.070
  795SOL     OW 2403   2.930   1.333   2.711
  795SOL    HW1 2404   2.937   1.249   2.656
  795SOL    HW2 2405   2.992   1.402   2.675
  796SOL     OW 2406   2.181   0.810   2.811
  796SOL    HW1 2407   2.274   0.846   2.816
  796SOL    HW2 2408   2.175   0.725   2.863
  797SOL     OW 2409   2.201   0.509   2.868
  797SOL    HW1 2410   2.149   0.426   2.851
  797SOL    HW2 2411   2.278   0.514   2.804
  798SOL     OW 2412   1.870   1.326   2.062
  798SOL    HW1 2413   1.777   1.347   2.031
  798SOL    HW2 2414   1.880   1.227   2.075
  799SOL     OW 2415   1.950   1.801   2.789
  799SOL    HW1 2416   1.908   1.715   2.762
  799SOL    HW2 2417   2.044   1.804   2.755
  800SOL     OW 2418   2.366   1.568   2.772
  800SOL    HW1 2419   2.432   1.642   2.781
  800SOL    HW2 2420   2.410   1.489   2.730
  801SOL     OW 2421   2.864   0.796   3.100
  801SOL    HW1 2422   2.905   0.764   3.186
  801SOL    HW2 2423   2.768   0.769   3.097
  802SOL     OW 2424   1.902   0.544   2.976
  802SOL    HW1 2425   1.987   0.511   2.935
  802SOL    HW2 2426   1.915   0.559   3.074
  803SOL     OW 2427   2.677   0.572   2.187
  803SOL    HW1 2428   2.684   0.483   2.141
  803SOL    HW2 2429   2.583   0.606   2.179
  804SOL     OW 2430   2.533   0.464   3.131
  804SOL    HW1 2431   2.499   0.375   3.101
  804SOL    HW2 2432   2.559   0.518   3.051
  805SOL     OW 2433   2.335   0.500   2.053
  805SOL    HW1 2434   2.396   0.580   2.057
  805SOL    HW2 2435   2.240   0.531   2.060
  806SOL     OW 2436   2.021   1.137   3.328
  806SOL    HW1 2437   2.043   1.076   3.404
  806SOL    HW2 2438   2.031   1.088   3.242
  807SOL     OW 2439   3.114   1.731   2.990
  807SOL    HW1 2440   3.198   1.736   2.936
  807SOL    HW2 2441   3.091   1.635   3.008
  808SOL     OW 2442   1.945   1.258   2.884
  808SOL    HW1 2443   1.940   1.257   2.984
  808SOL    HW2 2444   1.862   1.217   2.846
  809SOL     OW 2445   2.534   1.616   2.016
  809SOL    HW1 2446   2.543   1.626   1.917
  809SOL    HW2 2447   2.494   1.527   2.037
  810SOL     OW 2448   2.125   0.326   2.582
  810SOL    HW1 2449   2.046   0.377   2.548
  810SOL    HW2 2450   2.116   0.311   2.680
  811SOL     OW 2451   2.684   1.002   3.234
  811SOL    HW1 2452   2.724   1.001   3.142
  811SOL    HW2 2453   2.694   1.094   3.274
  812SOL     OW 2454   2.778   0.910   2.153
  812SOL    HW1 2455   2.841   0.948   2.085
  812SOL    HW2 2456   2.818   0.827   2.192
  813SOL     OW 2457   2.901   1.098   2.558
  813SOL    HW1 2458   2.831   1.051   2.612
  813SOL    HW2 2459   2.960   1.030   2.515
  814SOL     OW 2460   2.876   0.236   2.833
  814SOL    HW1 2461   2.868   0.200   2.740
  814SOL    HW2 2462   2.874   0.160   2.898
  815SOL     OW 2463   2.452   1.487   2.353
  815SOL    HW1 2464   2.494   1.429   2.283
  815SOL    HW2 2465   2.408   1.566   2.309
  816SOL     OW 2466   2.117   1.348   2.152
  816SOL    HW1 2467   2.021   1.349   2.125
  816SOL    HW2 2468   2.129   1.401   2.236
  817SOL     OW 2469   1.937   0.345   1.895
  817SOL    HW1 2470   1.845   0.317   1.866
  817SOL    HW2 2471   1.968   0.422   1.839
  818SOL     OW 2472   1.934   0.166   2.180
  818SOL    HW1 2473   1.917   0.249   2.126
  818SOL    HW2 2474   2.024   0.129   2.158
  819SOL     OW 2475   2.456   0.745   2.514
  819SOL    HW1 2476   2.506   0.830   2.495
  819SOL    HW2 2477   2.368   0.747   2.466
  820SOL     OW 2478   2.721   1.374   1.878
  820SOL    HW1 2479   2.675   1.389   1.966
  820SOL    HW2 2480   2.765   1.459   1.848
  821SOL     OW 2481   2.523   1.790   2.815
  821SOL    HW1 2482   2.477   1.878   2.802
  821SOL    HW2 2483   2.622   1.802   2.808
  822SOL     OW 2484   2.721   0.956   2.723
  822SOL    HW1 2485   2.775   0.887   2.771
  822SOL    HW2 2486   2.689   1.025   2.789
  823SOL     OW 2487   2.945   0.984   1.949
  823SOL    HW1 2488   2.922   1.037   1.867
  823SOL    HW2 2489   3.026   0.928   1.930
  824SOL     OW 2490   1.941   1.240   2.515
  824SOL    HW1 2491   1.940   1.193   2.603
  824SOL    HW2 2492   2.023   1.212   2.464
  825SOL     OW 2493   2.290   0.424   2.382
  825SOL    HW1 2494   2.320   0.352   2.320
  825SOL    HW2 2495   2.251   0.384   2.465
  826SOL     OW 2496   2.674   1.586   2.549
  826SOL    HW1 2497   2.706   1.596   2.455
  826SOL    HW2 2498   2.595   1.524   2.551
  827SOL     OW 2499   2.863   0.034   3.016
  827SOL    HW1 2500   2.800  -0.038   2.985
  827SOL    HW2 2501   2.956  -0.002   3.016
  828SOL     OW 2502   2.632   1.330   2.163
  828SOL    HW1 2503   2.586   1.243   2.180
  828SOL    HW2 2504   2.723   1.327   2.204
  829SOL     OW 2505   1.901   1.077   2.162
  829SOL    HW1 2506   2.000   1.066   2.153
  829SOL    HW2 2507   1.861   0.991   2.194
  830SOL     OW 2508   2.737   1.646   2.199
  830SOL    HW1 2509   2.660   1.611   2.145
  830SOL    HW2 2510   2.705   1.717   2.261
  831SOL     OW 2511   2.092   2.490   0.113
  831SOL    HW1 2512   1.999   2.488   0.150
  831SOL    HW2 2513   2.093   2.451   0.021
  832SOL     OW 2514   2.087   2.137   0.996
  832SOL    HW1 2515   2.122   2.120   1.088
  832SOL    HW2 2516   1.999   2.092   0.984
  833SOL     OW 2517   1.881   2.230   0.647
  833SOL    HW1 2518   1.799   2.273   0.686
  833SOL    HW2 2519   1.853   2.157   0.584
  834SOL     OW 2520   2.997   2.565   0.717
  834SOL    HW1 2521   3.054   2.643   0.692
  834SOL    HW2 2522   2.937   2.591   0.793
  835SOL     OW 2523   2.630   3.006   1.023
  835SOL    HW1 2524   2.552   3.023   1.083
  835SOL    HW2 2525   2.664   3.093   0.987
  836SOL     OW 2526   2.712   2.660   1.823
  836SOL    HW1 2527   2.708   2.736   1.888
  836SOL    HW2 2528   2.734   2.696   1.732
  837SOL     OW 2529   2.547   2.874   0.665
  837SOL    HW1 2530   2.616   2.858   0.735
  837SOL    HW2 2531   2.474   2.931   0.703
  838SOL     OW 2532   2.548   3.023   1.803
  838SOL    HW1 2533   2.608   3.102   1.817
  838SOL    HW2 2534   2.462   3.054   1.762
  839SOL     OW 2535   2.300   2.254   1.499
  839SOL    HW1 2536   2.382   2.198   1.508
  839SOL    HW2 2537   2.219   2.196   1.503
  840SOL     OW 2538   2.102   2.953   0.886
  840SOL    HW1 2539   2.116   2.869   0.938
  840SOL    HW2 2540   2.047   3.017   0.941
  841SOL     OW 2541   2.468   2.826   0.123
  841SOL    HW1 2542   2.475   2.910   0.069
  841SOL    HW2 2543   2.514   2.839   0.211
  842SOL     OW 2544   1.984   2.505   0.563
  842SOL    HW1 2545   1.939   2.417   0.580
  842SOL    HW2 2546   1.983   2.559   0.647
  843SOL     OW 2547   1.975   2.599   1.597
  843SOL    HW1 2548   2.063   2.586   1.642
  843SOL    HW2 2549   1.962   2.696   1.575
  844SOL     OW 2550   2.671   1.866   0.502
  844SOL    HW1 2551   2.711   1.957   0.493
  844SOL    HW2 2552   2.571   1.874   0.508
  845SOL     OW 2553   2.059   2.838   1.264
  845SOL    HW1 2554   2.148   2.793   1.250
  845SOL    HW2 2555   1.986   2.773   1.245
  846SOL     OW 2556   2.179   2.113   1.801
  846SOL    HW1 2557   2.250   2.184   1.807
  846SOL    HW2 2558   2.091   2.152   1.829
  847SOL     OW 2559   2.460   2.591   0.270
  847SOL    HW1 2560   2.484   2.660   0.202
  847SOL    HW2 2561   2.382   2.624   0.324
  848SOL     OW 2562   2.669   2.467   1.465
  848SOL    HW1 2563   2.622   2.464   1.554
  848SOL    HW2 2564   2.618   2.412   1.399
  849SOL     OW 2565   2.835   2.752   1.572
  849SOL    HW1 2566   2.881   2.668   1.543
  849SOL    HW2 2567   2.779   2.786   1.497
  850SOL     OW 2568   2.853   2.272   1.242
  850SOL    HW1 2569   2.776   2.306   1.296
  850SOL    HW2 2570   2.819   2.221   1.163
  851SOL     OW 2571   2.903   2.563   0.429
  851SOL    HW1 2572   2.929   2.559   0.525
  851SOL    HW2 2573   2.818   2.512   0.415
  852SOL     OW 2574   1.938   2.673   0.789
  852SOL    HW1 2575   2.037   2.661   0.798
  852SOL    HW2 2576   1.914   2.768   0.810
  853SOL     OW 2577   2.727   2.210   0.195
  853SOL    HW1 2578   2.786   2.273   0.146
  853SOL    HW2 2579   2.746   2.116   0.166
  854SOL     OW 2580   2.412   2.058   0.885
  854SOL    HW1 2581   2.407   2.053   0.985
  854SOL    HW2 2582   2.414   2.154   0.856
  855SOL     OW 2583   2.183   2.805   0.242
  855SOL    HW1 2584   2.265   2.844   0.200
  855SOL    HW2 2585   2.156   2.723   0.193
  856SOL     OW 2586   2.064   2.147   1.498
  856SOL    HW1 2587   1.984   2.207   1.485
  856SOL    HW2 2588   2.054   2.098   1.584
  857SOL     OW 2589   2.244   2.562   0.480
  857SOL    HW1 2590   2.289   2.472   0.477
  857SOL    HW2 2591   2.150   2.551   0.513
  858SOL     OW 2592   2.476   1.984   0.117
  858SOL    HW1 2593   2.574   1.962   0.124
  858SOL    HW2 2594   2.445   1.967   0.024
  859SOL     OW 2595   2.643   2.126   1.749
  859SOL    HW1 2596   2.710   2.065   1.792
  859SOL    HW2 2597   2.570   2.145   1.814
  860SOL     OW 2598   2.784   2.365   0.899
  860SOL    HW1 2599   2.759   2.356   0.803
  860SOL    HW2 2600   2.832   2.283   0.930
  861SOL     OW 2601   2.401   1.926   0.512
  861SOL    HW1 2602   2.320   1.927   0.570
  861SOL    HW2 2603   2.404   2.009   0.457
  862SOL     OW 2604   2.159   1.897   0.171
  862SOL    HW1 2605   2.208   1.981   0.150
  862SOL    HW2 2606   2.221   1.832   0.216
  863SOL     OW 2607   2.797   2.098   0.480
  863SOL    HW1 2608   2.749   2.139   0.402
  863SOL    HW2 2609   2.896   2.096   0.461
  864SOL     OW 2610   2.938   2.545   1.464
  864SOL    HW1 2611   2.858   2.484   1.467
  864SOL    HW2 2612   3.019   2.492   1.440
  865SOL     OW 2613   2.321   3.014   0.741
  865SOL    HW1 2614   2.250   2.987   0.806
  865SOL    HW2 2615   2.295   2.986   0.648
  866SOL     OW 2616   2.894   2.411   0.016
  866SOL    HW1 2617   2.853   2.493  -0.023
  866SOL    HW2 2618   2.958   2.437   0.089
  867SOL     OW 2619   1.940   2.418   1.386
  867SOL    HW1 2620   2.032   2.417   1.345
  867SOL    HW2 2621   1.934   2.492   1.453
  868SOL     OW 2622   2.423   2.084   1.147
  868SOL    HW1 2623   2.461   2.000   1.184
  868SOL    HW2 2624   2.335   2.103   1.191
  869SOL     OW 2625   2.728   2.316   0.642
  869SOL    HW1 2626   2.696   2.388   0.580
  869SOL    HW2 2627   2.752   2.235   0.589
  870SOL     OW 2628   2.879   1.901   0.753
  870SOL    HW1 2629   2.807   1.906   0.684
  870SOL    HW2 2630   2.855   1.832   0.822
  871SOL     OW 2631   2.389   2.118   0.328
  871SOL    HW1 2632   2.416   2.059   0.253
  871SOL    HW2 2633   2.389   2.213   0.297
  872SOL     OW 2634   2.777   1.951   1.402
  872SOL    HW1 2635   2.802   1.931   1.307
  872SOL    HW2 2636   2.849   2.007   1.444
  873SOL     OW 2637   2.842   2.978   1.719
  873SOL    HW1 2638   2.743   2.984   1.729
  873SOL    HW2 2639   2.865   2.898   1.663
  874SOL     OW 2640   2.567   2.912   0.368
  874SOL    HW1 2641   2.553   2.919   0.467
  874SOL    HW2 2642   2.651   2.861   0.350
  875SOL     OW 2643   2.272   2.675   1.251
  875SOL    HW1 2644   2.358   2.687   1.301
  875SOL    HW2 2645   2.230   2.588   1.278
  876SOL     OW 2646   2.229   2.962   0.501
  876SOL    HW1 2647   2.222   3.045   0.445
  876SOL    HW2 2648   2.233   2.882   0.441
  877SOL     OW 2649   2.428   2.399   0.865
  877SOL    HW1 2650   2.440   2.465   0.791
  877SOL    HW2 2651   2.474   2.433   0.948
  878SOL     OW 2652   2.264   2.613   1.598
  878SOL    HW1 2653   2.332   2.668   1.551
  878SOL    HW2 2654   2.304   2.525   1.625
  879SOL     OW 2655   2.875   1.967   1.770
  879SOL    HW1 2656   2.881   2.052   1.718
  879SOL    HW2 2657   2.907   1.891   1.713
  880SOL     OW 2658   2.366   1.912   1.740
  880SOL    HW1 2659   2.324   1.855   1.670
  880SOL    HW2 2660   2.300   1.981   1.772
  881SOL     OW 2661   2.435   2.732   1.029
  881SOL    HW1 2662   2.479   2.821   1.020
  881SOL    HW2 2663   2.372   2.732   1.106
  882SOL     OW 2664   3.222   2.724   1.045
  882SOL    HW1 2665   3.147   2.724   0.979
  882SOL    HW2 2666   3.259   2.632   1.054
  883SOL     OW 2667   3.071   2.387   0.275
  883SOL    HW1 2668   3.084   2.303   0.329
  883SOL    HW2 2669   3.042   2.461   0.335
  884SOL     OW 2670   2.169   2.075   1.231
  884SOL    HW1 2671   2.146   2.112   1.321
  884SOL    HW2 2672   2.139   1.980   1.225
  885SOL     OW 2673   2.594   2.496   1.064
  885SOL    HW1 2674   2.653   2.470   0.988
  885SOL    HW2 2675   2.566   2.592   1.053
  886SOL     OW 2676   2.169   1.925   0.618
  886SOL    HW1 2677   2.158   2.019   0.651
  886SOL    HW2 2678   2.164   1.862   0.695
  887SOL     OW 2679   2.885   2.628   0.966
  887SOL    HW1 2680   2.900   2.649   1.062
  887SOL    HW2 2681   2.855   2.533   0.957
  888SOL     OW 2682   2.212   2.760   1.804
  888SOL    HW1 2683   2.288   2.804   1.852
  888SOL    HW2 2684   2.247   2.713   1.722
  889SOL     OW 2685   2.181   2.672   0.949
  889SOL    HW1 2686   2.274   2.708   0.954
  889SOL    HW2 2687   2.175   2.587   1.001
  890SOL     OW 2688   2.201   2.371   1.006
  890SOL    HW1 2689   2.149   2.288   0.989
  890SOL    HW2 2690   2.278   2.376   0.942
  891SOL     OW 2691   3.000   2.242   1.678
  891SOL    HW1 2692   2.955   2.305   1.742
  891SOL    HW2 2693   3.093   2.273   1.661
  892SOL     OW 2694   3.022   2.069   1.477
  892SOL    HW1 2695   3.022   2.133   1.554
  892SOL    HW2 2696   3.050   2.117   1.394
  893SOL     OW 2697   1.870   3.188   0.200
  893SOL    HW1 2698   1.777   3.209   0.169
  893SOL    HW2 2699   1.880   3.089   0.213
  894SOL     OW 2700   2.864   2.658   1.238
  894SOL    HW1 2701   2.905   2.626   1.324
  894SOL    HW2 2702   2.768   2.631   1.235
  895SOL     OW 2703   1.902   2.406   1.114
  895SOL    HW1 2704   1.987   2.373   1.073
  895SOL    HW2 2705   1.915   2.421   1.212
  896SOL     OW 2706   2.051   2.382   1.722
  896SOL    HW1 2707   2.110   2.342   1.652
  896SOL    HW2 2708   1.993   2.453   1.681
  897SOL     OW 2709   2.677   2.434   0.325
  897SOL    HW1 2710   2.684   2.345   0.279
  897SOL    HW2 2711   2.583   2.468   0.317
  898SOL     OW 2712   2.533   2.326   1.269
  898SOL    HW1 2713   2.499   2.237   1.239
  898SOL    HW2 2714   2.559   2.380   1.189
  899SOL     OW 2715   2.335   2.362   0.191
  899SOL    HW1 2716   2.396   2.442   0.195
  899SOL    HW2 2717   2.240   2.393   0.198
  900SOL     OW 2718   2.021   2.999   1.466
  900SOL    HW1 2719   2.043   2.938   1.542
  900SOL    HW2 2720   2.031   2.950   1.380
  901SOL     OW 2721   1.945   3.120   1.022
  901SOL    HW1 2722   1.940   3.119   1.122
  901SOL    HW2 2723   1.862   3.079   0.984
  902SOL     OW 2724   2.765   1.948   0.133
  902SOL    HW1 2725   2.816   1.949   0.047
  902SOL    HW2 2726   2.821   1.906   0.204
  903SOL     OW 2727   2.125   2.188   0.720
  903SOL    HW1 2728   2.046   2.239   0.686
  903SOL    HW2 2729   2.116   2.173   0.818
  904SOL     OW 2730   2.684   2.864   1.372
  904SOL    HW1 2731   2.724   2.863   1.280
  904SOL    HW2 2732   2.694   2.956   1.412
  905SOL     OW 2733   2.778   2.772   0.291
  905SOL    HW1 2734   2.841   2.810   0.223
  905SOL    HW2 2735   2.818   2.689   0.330
  906SOL     OW 2736   2.234   3.150   1.490
  906SOL    HW1 2737   2.221   3.243   1.456
  906SOL    HW2 2738   2.150   3.098   1.477
  907SOL     OW 2739   2.901   2.960   0.696
  907SOL    HW1 2740   2.831   2.913   0.750
  907SOL    HW2 2741   2.960   2.892   0.653
  908SOL     OW 2742   2.876   2.098   0.971
  908SOL    HW1 2743   2.868   2.062   0.878
  908SOL    HW2 2744   2.874   2.022   1.036
  909SOL     OW 2745   1.967   2.875   1.726
  909SOL    HW1 2746   1.890   2.842   1.780
  909SOL    HW2 2747   2.052   2.845   1.768
  910SOL     OW 2748   2.534   2.065   1.489
  910SOL    HW1 2749   2.624   2.049   1.449
  910SOL    HW2 2750   2.542   2.070   1.588
  911SOL     OW 2751   1.934   2.028   0.318
  911SOL    HW1 2752   1.917   2.111   0.264
  911SOL    HW2 2753   2.024   1.991   0.296
  912SOL     OW 2754   2.475   2.704   1.431
  912SOL    HW1 2755   2.531   2.785   1.414
  912SOL    HW2 2756   2.534   2.624   1.434
  913SOL     OW 2757   2.578   2.427   1.708
  913SOL    HW1 2758   2.597   2.492   1.782
  913SOL    HW2 2759   2.638   2.347   1.717
  914SOL     OW 2760   2.456   2.607   0.652
  914SOL    HW1 2761   2.506   2.692   0.633
  914SOL    HW2 2762   2.368   2.609   0.604
  915SOL     OW 2763   2.721   2.818   0.861
  915SOL    HW1 2764   2.775   2.749   0.909
  915SOL    HW2 2765   2.689   2.887   0.927
  916SOL     OW 2766   2.945   2.846   0.087
  916SOL    HW1 2767   2.922   2.899   0.005
  916SOL    HW2 2768   3.026   2.790   0.068
  917SOL     OW 2769   1.941   3.102   0.653
  917SOL    HW1 2770   1.940   3.055   0.741
  917SOL    HW2 2771   2.023   3.074   0.602
  918SOL     OW 2772   2.290   2.286   0.520
  918SOL    HW1 2773   2.320   2.214   0.458
  918SOL    HW2 2774   2.251   2.246   0.603
  919SOL     OW 2775   2.179   2.409   1.280
  919SOL    HW1 2776   2.217   2.350   1.352
  919SOL    HW2 2777   2.219   2.383   1.192
  920SOL     OW 2778   2.863   1.896   1.154
  920SOL    HW1 2779   2.800   1.824   1.123
  920SOL    HW2 2780   2.956   1.860   1.154
  921SOL     OW 2781   2.632   3.192   0.301
  921SOL    HW1 2782   2.586   3.105   0.318
  921SOL    HW2 2783   2.723   3.189   0.342
  922SOL     OW 2784   2.092   2.490   1.975
  922SOL    HW1 2785   1.999   2.488   2.012
  922SOL    HW2 2786   2.093   2.451   1.883
  923SOL     OW 2787   2.087   2.137   2.858
  923SOL    HW1 2788   2.122   2.120   2.950
  923SOL    HW2 2789   1.999   2.092   2.846
  924SOL     OW 2790   1.881   2.230   2.509
  924SOL    HW1 2791   1.799   2.273   2.548
  924SOL    HW2 2792   1.853   2.157   2.446
  925SOL     OW 2793   2.997   2.565   2.579
  925SOL    HW1 2794   3.054   2.643   2.554
  925SOL    HW2 2795   2.937   2.591   2.655
  926SOL     OW 2796   2.630   3.006   2.885
  926SOL    HW1 2797   2.552   3.023   2.945
  926SOL    HW2 2798   2.664   3.093   2.849
  927SOL     OW 2799   2.547   2.874   2.527
  927SOL    HW1 2800   2.616   2.858   2.597
  927SOL    HW2 2801   2.474   2.931   2.565
  928SOL     OW 2802   2.102   2.953   2.748
  928SOL    HW1 2803   2.116   2.869   2.800
  928SOL    HW2 2804   2.047   3.017   2.803
  929SOL     OW 2805   2.468   2.826   1.985
  929SOL    HW1 2806   2.475   2.910   1.931
  929SOL    HW2 2807   2.514   2.839   2.073
  930SOL     OW 2808   1.984   2.505   2.425
  930SOL    HW1 2809   1.939   2.417   2.442
  930SOL    HW2 2810   1.983   2.559   2.509
  931SOL     OW 2811   2.671   1.866   2.364
  931SOL    HW1 2812   2.711   1.957   2.355
  931SOL    HW2 2813   2.571   1.874   2.370
  932SOL     OW 2814   2.059   2.838   3.126
  932SOL    HW1 2815   2.148   2.793   3.112
  932SOL    HW2 2816   1.986   2.773   3.107
  933SOL     OW 2817   2.460   2.591   2.132
  933SOL    HW1 2818   2.484   2.660   2.064
  933SOL    HW2 2819   2.382   2.624   2.186
  934SOL     OW 2820   2.903   2.563   2.291
  934SOL    HW1 2821   2.929   2.559   2.387
  934SOL    HW2 2822   2.818   2.512   2.277
  935SOL     OW 2823   1.938   2.673   2.651
  935SOL    HW1 2824   2.037   2.661   2.660
  935SOL    HW2 2825   1.914   2.768   2.672
  936SOL     OW 2826   2.727   2.210   2.057
  936SOL    HW1 2827   2.786   2.273   2.008
  936SOL    HW2 2828   2.746   2.116   2.028
  937SOL     OW 2829   2.412   2.058   2.747
  937SOL    HW1 2830   2.407   2.053   2.847
  937SOL    HW2 2831   2.414   2.154   2.718
  938SOL     OW 2832   2.183   2.805   2.104
  938SOL    HW1 2833   2.265   2.844   2.062
  938SOL    HW2 2834   2.156   2.723   2.055
  939SOL     OW 2835   2.244   2.562   2.342
  939SOL    HW1 2836   2.289   2.472   2.339
  939SOL    HW2 2837   2.150   2.551   2.375
  940SOL     OW 2838   2.476   1.984   1.979
  940SOL    HW1 2839   2.574   1.962   1.986
  940SOL    HW2 2840   2.445   1.967   1.886
  941SOL     OW 2841   2.784   2.365   2.761
  941SOL    HW1 2842   2.759   2.356   2.665
  941SOL    HW2 2843   2.832   2.283   2.792
  942SOL     OW 2844   2.401   1.926   2.374
  942SOL    HW1 2845   2.320   1.927   2.432
  942SOL    HW2 2846   2.404   2.009   2.319
  943SOL     OW 2847   3.296   3.050   1.903
  943SOL    HW1 2848   3.328   2.974   1.960
  943SOL    HW2 2849   3.204   3.077   1.933
  944SOL     OW 2850   2.159   1.897   2.033
  944SOL    HW1 2851   2.208   1.981   2.012
  944SOL    HW2 2852   2.221   1.832   2.078
  945SOL     OW 2853   2.797   2.098   2.342
  945SOL    HW1 2854   2.749   2.139   2.264
  945SOL    HW2 2855   2.896   2.096   2.323
  946SOL     OW 2856   2.321   3.014   2.603
  946SOL    HW1 2857   2.250   2.987   2.668
  946SOL    HW2 2858   2.295   2.986   2.510
  947SOL     OW 2859   2.894   2.411   1.878
  947SOL    HW1 2860   2.853   2.493   1.839
  947SOL    HW2 2861   2.958   2.437   1.951
  948SOL     OW 2862   2.728   2.316   2.504
  948SOL    HW1 2863   2.696   2.388   2.442
  948SOL    HW2 2864   2.752   2.235   2.451
  949SOL     OW 2865   2.879   1.901   2.615
  949SOL    HW1 2866   2.807   1.906   2.546
  949SOL    HW2 2867   2.855   1.832   2.684
  950SOL     OW 2868   2.389   2.118   2.190
  950SOL    HW1 2869   2.416   2.059   2.115
  950SOL    HW2 2870   2.389   2.213   2.159
  951SOL     OW 2871   2.567   2.912   2.230
  951SOL    HW1 2872   2.553   2.919   2.329
  951SOL    HW2 2873   2.651   2.861   2.212
  952SOL     OW 2874   2.272   2.675   3.113
  952SOL    HW1 2875   2.358   2.687   3.163
  952SOL    HW2 2876   2.230   2.588   3.140
  953SOL     OW 2877   2.229   2.962   2.363
  953SOL    HW1 2878   2.222   3.045   2.307
  953SOL    HW2 2879   2.233   2.882   2.303
  954SOL     OW 2880   2.428   2.399   2.727
  954SOL    HW1 2881   2.440   2.465   2.653
  954SOL    HW2 2882   2.474   2.433   2.810
  955SOL     OW 2883   2.435   2.732   2.891
  955SOL    HW1 2884   2.479   2.821   2.882
  955SOL    HW2 2885   2.372   2.732   2.968
  956SOL     OW 2886   3.222   2.724   2.907
  956SOL    HW1 2887   3.147   2.724   2.841
  956SOL    HW2 2888   3.259   2.632   2.916
  957SOL     OW 2889   3.071   2.387   2.137
  957SOL    HW1 2890   3.084   2.303   2.191
  957SOL    HW2 2891   3.042   2.461   2.197
  958SOL     OW 2892   2.169   2.075   3.093
  958SOL    HW1 2893   2.146   2.112   3.183
  958SOL    HW2 2894   2.139   1.980   3.087
  959SOL     OW 2895   2.594   2.496   2.926
  959SOL    HW1 2896   2.653   2.470   2.850
  959SOL    HW2 2897   2.566   2.592   2.915
  960SOL     OW 2898   2.169   1.925   2.480
  960SOL    HW1 2899   2.158   2.019   2.513
  960SOL    HW2 2900   2.164   1.862   2.557
  961SOL     OW 2901   2.885   2.628   2.828
  961SOL    HW1 2902   2.900   2.649   2.924
  961SOL    HW2 2903   2.855   2.533   2.819
  962SOL     OW 2904   3.402   2.136   1.987
  962SOL    HW1 2905   3.341   2.061   2.010
  962SOL    HW2 2906   3.424   2.188   2.070
  963SOL     OW 2907   2.181   2.672   2.811
  963SOL    HW1 2908   2.274   2.708   2.816
  963SOL    HW2 2909   2.175   2.587   2.863
  964SOL     OW 2910   2.201   2.371   2.868
  964SOL    HW1 2911   2.149   2.288   2.851
  964SOL    HW2 2912   2.278   2.376   2.804
  965SOL     OW 2913   3.022   2.069   3.339
  965SOL    HW1 2914   3.022   2.133   3.416
  965SOL    HW2 2915   3.050   2.117   3.256
  966SOL     OW 2916   1.870   3.188   2.062
  966SOL    HW1 2917   1.777   3.209   2.031
  966SOL    HW2 2918   1.880   3.089   2.075
  967SOL     OW 2919   2.864   2.658   3.100
  967SOL    HW1 2920   2.905   2.626   3.186
  967SOL    HW2 2921   2.768   2.631   3.097
  968SOL     OW 2922   1.902   2.406   2.976
  968SOL    HW1 2923   1.987   2.373   2.935
  968SOL    HW2 2924   1.915   2.421   3.074
  969SOL     OW 2925   2.677   2.434   2.187
  969SOL    HW1 2926   2.684   2.345   2.141
  969SOL    HW2 2927   2.583   2.468   2.179
  970SOL     OW 2928   2.533   2.326   3.131
  970SOL    HW1 2929   2.499   2.237   3.101
  970SOL    HW2 2930   2.559   2.380   3.051
  971SOL     OW 2931   2.335   2.362   2.053
  971SOL    HW1 2932   2.396   2.442   2.057
  971SOL    HW2 2933   2.240   2.393   2.060
  972SOL     OW 2934   2.021   2.999   3.328
  972SOL    HW1 2935   2.043   2.938   3.404
  972SOL    HW2 2936   2.031   2.950   3.242
  973SOL     OW 2937   1.945   3.120   2.884
  973SOL    HW1 2938   1.940   3.119   2.984
  973SOL    HW2 2939   1.862   3.079   2.846
  974SOL     OW 2940   2.125   2.188   2.582
  974SOL    HW1 2941   2.046   2.239   2.548
  974SOL    HW2 2942   2.116   2.173   2.680
  975SOL     OW 2943   2.684   2.864   3.234
  975SOL    HW1 2944   2.724   2.863   3.142
  975SOL    HW2 2945   2.694   2.956   3.274
  976SOL     OW 2946   2.778   2.772   2.153
  976SOL    HW1 2947   2.841   2.810   2.085
  976SOL    HW2 2948   2.818   2.689   2.192
  977SOL     OW 2949   2.901   2.960   2.558
  977SOL    HW1 2950   2.831   2.913   2.612
  977SOL    HW2 2951   2.960   2.892   2.515
  978SOL     OW 2952   2.876   2.098   2.833
  978SOL    HW1 2953   2.868   2.062   2.740
  978SOL    HW2 2954   2.874   2.022   2.898
  979SOL     OW 2955   1.937   2.207   1.895
  979SOL    HW1 2956   1.845   2.179   1.866
  979SOL    HW2 2957   1.968   2.284   1.839
  980SOL     OW 2958   1.934   2.028   2.180
  980SOL    HW1 2959   1.917   2.111   2.126
  980SOL    HW2 2960   2.024   1.991   2.158
  981SOL     OW 2961   2.456   2.607   2.514
  981SOL    HW1 2962   2.506   2.692   2.495
  981SOL    HW2 2963   2.368   2.609   2.466
  982SOL     OW 2964   2.721   2.818   2.723
  982SOL    HW1 2965   2.775   2.749   2.771
  982SOL    HW2 2966   2.689   2.887   2.789
  983SOL     OW 2967   2.945   2.846   1.949
  983SOL    HW1 2968   2.922   2.899   1.867
  983SOL    HW2 2969   3.026   2.790   1.930
  984SOL     OW 2970   1.941   3.102   2.515
  984SOL    HW1 2971   1.940   3.055   2.603
  984SOL    HW2 2972   2.023   3.074   2.464
  985SOL     OW 2973   2.290   2.286   2.382
  985SOL    HW1 2974   2.320   2.214   2.320
  985SOL    HW2 2975   2.251   2.246   2.465
  986SOL     OW 2976   2.863   1.896   3.016
  986SOL    HW1 2977   2.800   1.824   2.985
  986SOL    HW2 2978   2.956   1.860   3.016
  987SOL     OW 2979   2.632   3.192   2.163
  987SOL    HW1 2980   2.586   3.105   2.180
  987SOL    HW2 2981   2.723   3.189   2.204
  988SOL     OW 2982   1.901   2.939   2.162
  988SOL    HW1 2983   2.000   2.928   2.153
  988SOL    HW2 2984   1.861   2.853   2.194
   3.13811   3.13811   3.13811
