; mobley_1849020_GMX.itp created by acpype (v: 2023.10.27) on Thu May 14 13:50:46 2026

[ atomtypes ]
;name   bond_type     mass     charge   ptype   sigma         epsilon       Amb
 ca       ca          0.00000  0.00000   A     3.31521e-01   4.13379e-01 ; 1.86  0.0988
 c3       c3          0.00000  0.00000   A     3.39771e-01   4.51035e-01 ; 1.91  0.1078
 os       os          0.00000  0.00000   A     3.15610e-01   3.03758e-01 ; 1.77  0.0726
 p5       p5          0.00000  0.00000   A     3.69402e-01   9.60228e-01 ; 2.07  0.2295
 s        s           0.00000  0.00000   A     3.53241e-01   1.18156e+00 ; 1.98  0.2824
 ss       ss          0.00000  0.00000   A     3.53241e-01   1.18156e+00 ; 1.98  0.2824
 cl       cl          0.00000  0.00000   A     3.46595e-01   1.10374e+00 ; 1.95  0.2638
 ha       ha          0.00000  0.00000   A     2.62548e-01   6.73624e-02 ; 1.47  0.0161
 hc       hc          0.00000  0.00000   A     2.60018e-01   8.70272e-02 ; 1.46  0.0208
 h1       h1          0.00000  0.00000   A     2.42200e-01   8.70272e-02 ; 1.36  0.0208
 h2       h2          0.00000  0.00000   A     2.24382e-01   8.70272e-02 ; 1.26  0.0208

[ moleculetype ]
;name            nrexcl
 mobley_1849020   3

[ atoms ]
;   nr  type  resi  res  atom  cgnr     charge      mass       ; qtot   bond_type
     1   ca     1   MOL    C1    1    -0.087500     12.01000 ; qtot -0.088
     2   ca     1   MOL    C2    2    -0.087500     12.01000 ; qtot -0.175
     3   ca     1   MOL    C3    3    -0.121000     12.01000 ; qtot -0.296
     4   ca     1   MOL    C4    4    -0.121000     12.01000 ; qtot -0.417
     5   ca     1   MOL    C5    5    -0.076100     12.01000 ; qtot -0.493
     6   ca     1   MOL    C6    6     0.032400     12.01000 ; qtot -0.461
     7   c3     1   MOL    C7    7    -0.116100     12.01000 ; qtot -0.577
     8   c3     1   MOL    C8    8    -0.116100     12.01000 ; qtot -0.693
     9   c3     1   MOL    C9    9     0.130900     12.01000 ; qtot -0.562
    10   c3     1   MOL   C10   10     0.130900     12.01000 ; qtot -0.431
    11   c3     1   MOL   C11   11     0.123800     12.01000 ; qtot -0.307
    12   os     1   MOL    O1   12    -0.465200     16.00000 ; qtot -0.772
    13   os     1   MOL    O2   13    -0.465200     16.00000 ; qtot -1.238
    14   p5     1   MOL    P1   14     0.703202     30.97000 ; qtot -0.534
    15    s     1   MOL    S1   15    -0.558000     32.06000 ; qtot -1.092
    16   ss     1   MOL    S2   16     0.089000     32.06000 ; qtot -1.003
    17   ss     1   MOL    S3   17    -0.370500     32.06000 ; qtot -1.374
    18   cl     1   MOL   CL1   18    -0.079400     35.45000 ; qtot -1.453
    19   ha     1   MOL    H1   19     0.147000      1.00800 ; qtot -1.306
    20   ha     1   MOL    H2   20     0.147000      1.00800 ; qtot -1.159
    21   ha     1   MOL    H3   21     0.155000      1.00800 ; qtot -1.004
    22   ha     1   MOL    H4   22     0.155000      1.00800 ; qtot -0.849
    23   hc     1   MOL    H5   23     0.050533      1.00800 ; qtot -0.799
    24   hc     1   MOL    H6   24     0.050533      1.00800 ; qtot -0.748
    25   hc     1   MOL    H7   25     0.050533      1.00800 ; qtot -0.698
    26   hc     1   MOL    H8   26     0.050533      1.00800 ; qtot -0.647
    27   hc     1   MOL    H9   27     0.050533      1.00800 ; qtot -0.597
    28   hc     1   MOL   H10   28     0.050533      1.00800 ; qtot -0.546
    29   h1     1   MOL   H11   29     0.075450      1.00800 ; qtot -0.471
    30   h1     1   MOL   H12   30     0.075450      1.00800 ; qtot -0.395
    31   h1     1   MOL   H13   31     0.075450      1.00800 ; qtot -0.320
    32   h1     1   MOL   H14   32     0.075450      1.00800 ; qtot -0.244
    33   h2     1   MOL   H15   33     0.122200      1.00800 ; qtot -0.122
    34   h2     1   MOL   H16   34     0.122200      1.00800 ; qtot -0.000

[ bonds ]
;   ai     aj funct   r             k
     1      3   1    1.3986e-01    2.9644e+05 ;     C1 - C3    
     1      5   1    1.3986e-01    2.9644e+05 ;     C1 - C5    
     1     19   1    1.0860e-01    3.0183e+05 ;     C1 - H1    
     2      4   1    1.3986e-01    2.9644e+05 ;     C2 - C4    
     2      5   1    1.3986e-01    2.9644e+05 ;     C2 - C5    
     2     20   1    1.0860e-01    3.0183e+05 ;     C2 - H2    
     3      6   1    1.3986e-01    2.9644e+05 ;     C3 - C6    
     3     21   1    1.0860e-01    3.0183e+05 ;     C3 - H3    
     4      6   1    1.3986e-01    2.9644e+05 ;     C4 - C6    
     4     22   1    1.0860e-01    3.0183e+05 ;     C4 - H4    
     5     16   1    1.7847e-01    1.7864e+05 ;     C5 - S2    
     6     18   1    1.7572e-01    1.5730e+05 ;     C6 - CL1   
     7      9   1    1.5354e-01    1.9154e+05 ;     C7 - C9    
     7     23   1    1.0962e-01    2.8891e+05 ;     C7 - H5    
     7     24   1    1.0962e-01    2.8891e+05 ;     C7 - H6    
     7     25   1    1.0962e-01    2.8891e+05 ;     C7 - H7    
     8     10   1    1.5354e-01    1.9154e+05 ;     C8 - C10   
     8     26   1    1.0962e-01    2.8891e+05 ;     C8 - H8    
     8     27   1    1.0962e-01    2.8891e+05 ;     C8 - H9    
     8     28   1    1.0962e-01    2.8891e+05 ;     C8 - H10   
     9     12   1    1.4273e-01    2.3620e+05 ;     C9 - O1    
     9     29   1    1.0969e-01    2.8804e+05 ;     C9 - H11   
     9     30   1    1.0969e-01    2.8804e+05 ;     C9 - H12   
    10     13   1    1.4273e-01    2.3620e+05 ;    C10 - O2    
    10     31   1    1.0969e-01    2.8804e+05 ;    C10 - H13   
    10     32   1    1.0969e-01    2.8804e+05 ;    C10 - H14   
    11     16   1    1.8407e-01    1.5459e+05 ;    C11 - S2    
    11     17   1    1.8407e-01    1.5459e+05 ;    C11 - S3    
    11     33   1    1.0950e-01    2.9039e+05 ;    C11 - H15   
    11     34   1    1.0950e-01    2.9039e+05 ;    C11 - H16   
    12     14   1    1.6182e-01    3.2434e+05 ;     O1 - P1    
    13     14   1    1.6182e-01    3.2434e+05 ;     O2 - P1    
    14     15   1    1.9473e-01    2.2085e+05 ;     P1 - S1    
    14     17   1    2.1159e-01    1.4974e+05 ;     P1 - S3    

[ pairs ]
;   ai     aj    funct
     1      4      1 ;     C1 - C4    
     1     11      1 ;     C1 - C11   
     1     18      1 ;     C1 - CL1   
     1     20      1 ;     C1 - H2    
     2      3      1 ;     C2 - C3    
     2     11      1 ;     C2 - C11   
     2     18      1 ;     C2 - CL1   
     3     16      1 ;     C3 - S2    
     3     22      1 ;     C3 - H4    
     4     16      1 ;     C4 - S2    
     4     21      1 ;     C4 - H3    
     5      6      1 ;     C5 - C6    
     5     17      1 ;     C5 - S3    
     5     21      1 ;     C5 - H3    
     5     22      1 ;     C5 - H4    
     5     33      1 ;     C5 - H15   
     5     34      1 ;     C5 - H16   
     6     20      1 ;     C6 - H2    
     7     14      1 ;     C7 - P1    
     8     14      1 ;     C8 - P1    
     9     13      1 ;     C9 - O2    
     9     15      1 ;     C9 - S1    
     9     17      1 ;     C9 - S3    
    10     12      1 ;    C10 - O1    
    10     15      1 ;    C10 - S1    
    10     17      1 ;    C10 - S3    
    11     12      1 ;    C11 - O1    
    11     13      1 ;    C11 - O2    
    11     15      1 ;    C11 - S1    
    12     23      1 ;     O1 - H5    
    12     24      1 ;     O1 - H6    
    12     25      1 ;     O1 - H7    
    13     26      1 ;     O2 - H8    
    13     27      1 ;     O2 - H9    
    13     28      1 ;     O2 - H10   
    14     16      1 ;     P1 - S2    
    14     29      1 ;     P1 - H11   
    14     30      1 ;     P1 - H12   
    14     31      1 ;     P1 - H13   
    14     32      1 ;     P1 - H14   
    14     33      1 ;     P1 - H15   
    14     34      1 ;     P1 - H16   
    16     20      1 ;     S2 - H2    
    18     21      1 ;    CL1 - H3    
    18     22      1 ;    CL1 - H4    
    19      2      1 ;     H1 - C2    
    19      6      1 ;     H1 - C6    
    19     16      1 ;     H1 - S2    
    19     21      1 ;     H1 - H3    
    20     22      1 ;     H2 - H4    
    23     29      1 ;     H5 - H11   
    23     30      1 ;     H5 - H12   
    24     29      1 ;     H6 - H11   
    24     30      1 ;     H6 - H12   
    25     29      1 ;     H7 - H11   
    25     30      1 ;     H7 - H12   
    26     31      1 ;     H8 - H13   
    26     32      1 ;     H8 - H14   
    27     31      1 ;     H9 - H13   
    27     32      1 ;     H9 - H14   
    28     31      1 ;    H10 - H13   
    28     32      1 ;    H10 - H14   

[ angles ]
;   ai     aj     ak    funct   theta         cth
     1      3      6      1    1.2002e+02    5.3279e+02 ;     C1 - C3     - C6    
     1      3     21      1    1.1988e+02    3.7572e+02 ;     C1 - C3     - H3    
     1      5      2      1    1.2002e+02    5.3279e+02 ;     C1 - C5     - C2    
     1      5     16      1    1.2006e+02    5.2794e+02 ;     C1 - C5     - S2    
     2      4      6      1    1.2002e+02    5.3279e+02 ;     C2 - C4     - C6    
     2      4     22      1    1.1988e+02    3.7572e+02 ;     C2 - C4     - H4    
     2      5     16      1    1.2006e+02    5.2794e+02 ;     C2 - C5     - S2    
     3      1      5      1    1.2002e+02    5.3279e+02 ;     C3 - C1     - C5    
     3      1     19      1    1.1988e+02    3.7572e+02 ;     C3 - C1     - H1    
     3      6      4      1    1.2002e+02    5.3279e+02 ;     C3 - C6     - C4    
     3      6     18      1    1.1938e+02    5.3605e+02 ;     C3 - C6     - CL1   
     4      2      5      1    1.2002e+02    5.3279e+02 ;     C4 - C2     - C5    
     4      2     20      1    1.1988e+02    3.7572e+02 ;     C4 - C2     - H2    
     4      6     18      1    1.1938e+02    5.3605e+02 ;     C4 - C6     - CL1   
     5      1     19      1    1.1988e+02    3.7572e+02 ;     C5 - C1     - H1    
     5      2     20      1    1.1988e+02    3.7572e+02 ;     C5 - C2     - H2    
     5     16     11      1    1.0253e+02    7.7588e+02 ;     C5 - S2     - C11   
     6      3     21      1    1.1988e+02    3.7572e+02 ;     C6 - C3     - H3    
     6      4     22      1    1.1988e+02    3.7572e+02 ;     C6 - C4     - H4    
     7      9     12      1    1.0762e+02    6.4802e+02 ;     C7 - C9     - O1    
     7      9     29      1    1.0959e+02    3.6217e+02 ;     C7 - C9     - H11   
     7      9     30      1    1.0959e+02    3.6217e+02 ;     C7 - C9     - H12   
     8     10     13      1    1.0762e+02    6.4802e+02 ;     C8 - C10    - O2    
     8     10     31      1    1.0959e+02    3.6217e+02 ;     C8 - C10    - H13   
     8     10     32      1    1.0959e+02    3.6217e+02 ;     C8 - C10    - H14   
     9      7     23      1    1.0968e+02    3.6208e+02 ;     C9 - C7     - H5    
     9      7     24      1    1.0968e+02    3.6208e+02 ;     C9 - C7     - H6    
     9      7     25      1    1.0968e+02    3.6208e+02 ;     C9 - C7     - H7    
     9     12     14      1    1.1970e+02    4.7396e+02 ;     C9 - O1     - P1    
    10      8     26      1    1.0968e+02    3.6208e+02 ;    C10 - C8     - H8    
    10      8     27      1    1.0968e+02    3.6208e+02 ;    C10 - C8     - H9    
    10      8     28      1    1.0968e+02    3.6208e+02 ;    C10 - C8     - H10   
    10     13     14      1    1.1970e+02    4.7396e+02 ;    C10 - O2     - P1    
    11     17     14      1    9.9760e+01    5.0543e+02 ;    C11 - S3     - P1    
    12      9     29      1    1.1034e+02    4.7028e+02 ;     O1 - C9     - H11   
    12      9     30      1    1.1034e+02    4.7028e+02 ;     O1 - C9     - H12   
    12     14     13      1    1.0172e+02    8.6123e+02 ;     O1 - P1     - O2    
    12     14     15      1    1.1704e+02    6.8040e+02 ;     O1 - P1     - S1    
    12     14     17      1    1.0238e+02    6.8199e+02 ;     O1 - P1     - S3    
    13     10     31      1    1.1034e+02    4.7028e+02 ;     O2 - C10    - H13   
    13     10     32      1    1.1034e+02    4.7028e+02 ;     O2 - C10    - H14   
    13     14     15      1    1.1704e+02    6.8040e+02 ;     O2 - P1     - S1    
    13     14     17      1    1.0238e+02    6.8199e+02 ;     O2 - P1     - S3    
    15     14     17      1    1.1546e+02    5.7873e+02 ;     S1 - P1     - S3    
    16     11     17      1    1.1142e+02    5.6693e+02 ;     S2 - C11    - S3    
    16     11     33      1    1.0882e+02    3.5171e+02 ;     S2 - C11    - H15   
    16     11     34      1    1.0882e+02    3.5171e+02 ;     S2 - C11    - H16   
    17     11     33      1    1.0882e+02    3.5171e+02 ;     S3 - C11    - H15   
    17     11     34      1    1.0882e+02    3.5171e+02 ;     S3 - C11    - H16   
    23      7     24      1    1.0773e+02    2.9957e+02 ;     H5 - C7     - H6    
    23      7     25      1    1.0773e+02    2.9957e+02 ;     H5 - C7     - H7    
    24      7     25      1    1.0773e+02    2.9957e+02 ;     H6 - C7     - H7    
    26      8     27      1    1.0773e+02    2.9957e+02 ;     H8 - C8     - H9    
    26      8     28      1    1.0773e+02    2.9957e+02 ;     H8 - C8     - H10   
    27      8     28      1    1.0773e+02    2.9957e+02 ;     H9 - C8     - H10   
    29      9     30      1    1.0855e+02    2.9824e+02 ;    H11 - C9     - H12   
    31     10     32      1    1.0855e+02    2.9824e+02 ;    H13 - C10    - H14   
    33     11     34      1    1.0951e+02    2.9748e+02 ;    H15 - C11    - H16   

[ dihedrals ] ; propers
; for gromacs 4.5 or higher, using funct 9
;    i      j      k      l   func   phase     kd      pn
     1      3      6      4      9   180.00  15.16700   2 ;     C1-    C3-    C6-    C4
     1      3      6     18      9   180.00  15.16700   2 ;     C1-    C3-    C6-   CL1
     1      5      2      4      9   180.00  15.16700   2 ;     C1-    C5-    C2-    C4
     1      5      2     20      9   180.00  15.16700   2 ;     C1-    C5-    C2-    H2
     1      5     16     11      9   180.00   3.22168   2 ;     C1-    C5-    S2-   C11
     2      4      6      3      9   180.00  15.16700   2 ;     C2-    C4-    C6-    C3
     2      4      6     18      9   180.00  15.16700   2 ;     C2-    C4-    C6-   CL1
     2      5     16     11      9   180.00   3.22168   2 ;     C2-    C5-    S2-   C11
     3      1      5      2      9   180.00  15.16700   2 ;     C3-    C1-    C5-    C2
     3      1      5     16      9   180.00  15.16700   2 ;     C3-    C1-    C5-    S2
     3      6      4     22      9   180.00  15.16700   2 ;     C3-    C6-    C4-    H4
     4      2      5     16      9   180.00  15.16700   2 ;     C4-    C2-    C5-    S2
     4      6      3     21      9   180.00  15.16700   2 ;     C4-    C6-    C3-    H3
     5      1      3      6      9   180.00  15.16700   2 ;     C5-    C1-    C3-    C6
     5      1      3     21      9   180.00  15.16700   2 ;     C5-    C1-    C3-    H3
     5      2      4      6      9   180.00  15.16700   2 ;     C5-    C2-    C4-    C6
     5      2      4     22      9   180.00  15.16700   2 ;     C5-    C2-    C4-    H4
     5     16     11     17      9     0.00   1.39467   3 ;     C5-    S2-   C11-    S3
     5     16     11     33      9     0.00   1.39467   3 ;     C5-    S2-   C11-   H15
     5     16     11     34      9     0.00   1.39467   3 ;     C5-    S2-   C11-   H16
     6      4      2     20      9   180.00  15.16700   2 ;     C6-    C4-    C2-    H2
     7      9     12     14      9     0.00   1.60247   3 ;     C7-    C9-    O1-    P1
     7      9     12     14      9   180.00  16.52680   1 ;     C7-    C9-    O1-    P1
     8     10     13     14      9     0.00   1.60247   3 ;     C8-   C10-    O2-    P1
     8     10     13     14      9   180.00  16.52680   1 ;     C8-   C10-    O2-    P1
     9     12     14     13      9     0.00  14.72768   2 ;     C9-    O1-    P1-    O2
     9     12     14     15      9     0.00   3.34720   2 ;     C9-    O1-    P1-    S1
     9     12     14     17      9     0.00   3.34720   2 ;     C9-    O1-    P1-    S3
    10     13     14     12      9     0.00  14.72768   2 ;    C10-    O2-    P1-    O1
    10     13     14     15      9     0.00   3.34720   2 ;    C10-    O2-    P1-    S1
    10     13     14     17      9     0.00   3.34720   2 ;    C10-    O2-    P1-    S3
    11     17     14     12      9   180.00  16.43057   2 ;    C11-    S3-    P1-    O1
    11     17     14     13      9   180.00  16.43057   2 ;    C11-    S3-    P1-    O2
    11     17     14     15      9   180.00  15.89920   2 ;    C11-    S3-    P1-    S1
    12      9      7     23      9     0.00   0.00000   0 ;     O1-    C9-    C7-    H5
    12      9      7     23      9     0.00   1.04600   1 ;     O1-    C9-    C7-    H5
    12      9      7     24      9     0.00   0.00000   0 ;     O1-    C9-    C7-    H6
    12      9      7     24      9     0.00   1.04600   1 ;     O1-    C9-    C7-    H6
    12      9      7     25      9     0.00   0.00000   0 ;     O1-    C9-    C7-    H7
    12      9      7     25      9     0.00   1.04600   1 ;     O1-    C9-    C7-    H7
    13     10      8     26      9     0.00   0.00000   0 ;     O2-   C10-    C8-    H8
    13     10      8     26      9     0.00   1.04600   1 ;     O2-   C10-    C8-    H8
    13     10      8     27      9     0.00   0.00000   0 ;     O2-   C10-    C8-    H9
    13     10      8     27      9     0.00   1.04600   1 ;     O2-   C10-    C8-    H9
    13     10      8     28      9     0.00   0.00000   0 ;     O2-   C10-    C8-   H10
    13     10      8     28      9     0.00   1.04600   1 ;     O2-   C10-    C8-   H10
    14     12      9     29      9     0.00   0.00000   0 ;     P1-    O1-    C9-   H11
    14     12      9     30      9     0.00   0.00000   0 ;     P1-    O1-    C9-   H12
    14     13     10     31      9     0.00   0.00000   0 ;     P1-    O2-   C10-   H13
    14     13     10     32      9     0.00   0.00000   0 ;     P1-    O2-   C10-   H14
    14     17     11     16      9     0.00   1.39467   3 ;     P1-    S3-   C11-    S2
    14     17     11     33      9     0.00   1.39467   3 ;     P1-    S3-   C11-   H15
    14     17     11     34      9     0.00   1.39467   3 ;     P1-    S3-   C11-   H16
    16      5      2     20      9   180.00  15.16700   2 ;     S2-    C5-    C2-    H2
    18      6      3     21      9   180.00  15.16700   2 ;    CL1-    C6-    C3-    H3
    18      6      4     22      9   180.00  15.16700   2 ;    CL1-    C6-    C4-    H4
    19      1      3      6      9   180.00  15.16700   2 ;     H1-    C1-    C3-    C6
    19      1      3     21      9   180.00  15.16700   2 ;     H1-    C1-    C3-    H3
    19      1      5      2      9   180.00  15.16700   2 ;     H1-    C1-    C5-    C2
    19      1      5     16      9   180.00  15.16700   2 ;     H1-    C1-    C5-    S2
    20      2      4     22      9   180.00  15.16700   2 ;     H2-    C2-    C4-    H4
    23      7      9     29      9     0.00   0.65084   3 ;     H5-    C7-    C9-   H11
    23      7      9     30      9     0.00   0.65084   3 ;     H5-    C7-    C9-   H12
    24      7      9     29      9     0.00   0.65084   3 ;     H6-    C7-    C9-   H11
    24      7      9     30      9     0.00   0.65084   3 ;     H6-    C7-    C9-   H12
    25      7      9     29      9     0.00   0.65084   3 ;     H7-    C7-    C9-   H11
    25      7      9     30      9     0.00   0.65084   3 ;     H7-    C7-    C9-   H12
    26      8     10     31      9     0.00   0.65084   3 ;     H8-    C8-   C10-   H13
    26      8     10     32      9     0.00   0.65084   3 ;     H8-    C8-   C10-   H14
    27      8     10     31      9     0.00   0.65084   3 ;     H9-    C8-   C10-   H13
    27      8     10     32      9     0.00   0.65084   3 ;     H9-    C8-   C10-   H14
    28      8     10     31      9     0.00   0.65084   3 ;    H10-    C8-   C10-   H13
    28      8     10     32      9     0.00   0.65084   3 ;    H10-    C8-   C10-   H14

[ dihedrals ] ; impropers
; treated as propers in GROMACS to use correct AMBER analytical function
;    i      j      k      l   func   phase     kd      pn
     1      2      5     16      4   180.00   4.60240   2 ;     C1-    C2-    C5-    S2
     1      6      3     21      4   180.00   4.60240   2 ;     C1-    C6-    C3-    H3
     2      6      4     22      4   180.00   4.60240   2 ;     C2-    C6-    C4-    H4
     3      4      6     18      4   180.00   4.60240   2 ;     C3-    C4-    C6-   CL1
     4      5      2     20      4   180.00   4.60240   2 ;     C4-    C5-    C2-    H2
    19      1      5      3      4   180.00   4.60240   2 ;     H1-    C1-    C5-    C3
