mobley_5510474_GMX.gro created by acpype (v: 2023.10.27) on Thu May 14 13:48:37 2026
 2641
    1MOL     C1    1   1.715   1.797   1.469
    1MOL     C2    2   1.801   1.697   1.422
    1MOL     C3    3   1.586   1.765   1.511
    1MOL     C4    4   1.757   1.565   1.416
    1MOL     C5    5   1.543   1.632   1.505
    1MOL     C6    6   1.628   1.532   1.458
    1MOL     C7    7   1.377   1.473   1.540
    1MOL     C8    8   1.462   1.374   1.493
    1MOL     C9    9   1.248   1.441   1.582
    1MOL    C10   10   1.419   1.241   1.487
    1MOL    C11   11   1.205   1.308   1.577
    1MOL    C12   12   1.290   1.209   1.529
    1MOL     O1   13   1.415   1.605   1.548
    1MOL     O2   14   1.590   1.401   1.451
    1MOL    CL1   15   1.144   1.568   1.641
    1MOL    CL2   16   1.529   1.120   1.428
    1MOL    CL3   17   1.044   1.268   1.629
    1MOL    CL4   18   1.237   1.043   1.522
    1MOL     H1   19   1.749   1.900   1.473
    1MOL     H2   20   1.901   1.723   1.389
    1MOL     H3   21   1.520   1.843   1.548
    1MOL     H4   22   1.824   1.488   1.379
    2SOL     OW   23   0.230   0.628   0.113
    2SOL    HW1   24   0.137   0.626   0.150
    2SOL    HW2   25   0.231   0.589   0.021
    3SOL     OW   26   0.225   0.275   0.996
    3SOL    HW1   27   0.260   0.258   1.088
    3SOL    HW2   28   0.137   0.230   0.984
    4SOL     OW   29   0.019   0.368   0.647
    4SOL    HW1   30  -0.063   0.411   0.686
    4SOL    HW2   31  -0.009   0.295   0.584
    5SOL     OW   32   0.569   1.275   1.165
    5SOL    HW1   33   0.476   1.268   1.128
    5SOL    HW2   34   0.580   1.364   1.209
    6SOL     OW   35   1.555   1.511   0.703
    6SOL    HW1   36   1.498   1.495   0.784
    6SOL    HW2   37   1.496   1.521   0.623
    7SOL     OW   38   1.135   0.703   0.717
    7SOL    HW1   39   1.192   0.781   0.692
    7SOL    HW2   40   1.075   0.729   0.793
    8SOL     OW   41   1.755   0.607   0.231
    8SOL    HW1   42   1.743   0.594   0.132
    8SOL    HW2   43   1.725   0.526   0.280
    9SOL     OW   44   0.768   1.144   1.023
    9SOL    HW1   45   0.690   1.161   1.083
    9SOL    HW2   46   0.802   1.231   0.987
   10SOL     OW   47   0.850   0.798   1.823
   10SOL    HW1   48   0.846   0.874   1.888
   10SOL    HW2   49   0.872   0.834   1.732
   11SOL     OW   50   0.685   1.012   0.665
   11SOL    HW1   51   0.754   0.996   0.735
   11SOL    HW2   52   0.612   1.069   0.703
   12SOL     OW   53   0.686   1.161   1.803
   12SOL    HW1   54   0.746   1.240   1.817
   12SOL    HW2   55   0.600   1.192   1.762
   13SOL     OW   56   0.335   1.435   1.061
   13SOL    HW1   57   0.257   1.404   1.008
   13SOL    HW2   58   0.393   1.493   1.004
   14SOL     OW   59   0.438   0.392   1.499
   14SOL    HW1   60   0.520   0.336   1.508
   14SOL    HW2   61   0.357   0.334   1.503
   15SOL     OW   62   1.603   0.447   0.737
   15SOL    HW1   63   1.529   0.493   0.687
   15SOL    HW2   64   1.654   0.515   0.790
   16SOL     OW   65   0.231   1.713   0.483
   16SOL    HW1   66   0.265   1.790   0.537
   16SOL    HW2   67   0.275   1.713   0.393
   17SOL     OW   68   0.230   1.434   0.538
   17SOL    HW1   69   0.204   1.530   0.538
   17SOL    HW2   70   0.159   1.380   0.583
   18SOL     OW   71   0.240   1.091   0.886
   18SOL    HW1   72   0.254   1.007   0.938
   18SOL    HW2   73   0.185   1.155   0.941
   19SOL     OW   74   0.620   1.786   1.439
   19SOL    HW1   75   0.528   1.769   1.474
   19SOL    HW2   76   0.648   1.878   1.465
   20SOL     OW   77   0.606   0.964   0.123
   20SOL    HW1   78   0.613   1.048   0.069
   20SOL    HW2   79   0.652   0.977   0.211
   21SOL     OW   80   1.594   0.114   1.480
   21SOL    HW1   81   1.576   0.181   1.408
   21SOL    HW2   82   1.591   0.160   1.569
   22SOL     OW   83   0.122   0.643   0.563
   22SOL    HW1   84   0.077   0.555   0.580
   22SOL    HW2   85   0.121   0.697   0.647
   23SOL     OW   86   1.842   1.767   0.359
   23SOL    HW1   87   1.896   1.738   0.439
   23SOL    HW2   88   1.872   1.857   0.330
   24SOL     OW   89   0.027   1.596   0.117
   24SOL    HW1   90   0.008   1.500   0.138
   24SOL    HW2   91  -0.006   1.654   0.192
   25SOL     OW   92   1.689   0.922   0.612
   25SOL    HW1   93   1.784   0.893   0.620
   25SOL    HW2   94   1.681   0.987   0.537
   26SOL     OW   95   1.641   1.108   0.432
   26SOL    HW1   96   1.727   1.110   0.380
   26SOL    HW2   97   1.655   1.155   0.520
   27SOL     OW   98   0.113   0.737   1.597
   27SOL    HW1   99   0.201   0.724   1.642
   27SOL    HW2  100   0.100   0.834   1.575
   28SOL     OW  101   0.613   1.365   0.726
   28SOL    HW1  102   0.564   1.278   0.735
   28SOL    HW2  103   0.590   1.408   0.639
   29SOL     OW  104   0.809   0.004   0.502
   29SOL    HW1  105   0.849   0.095   0.493
   29SOL    HW2  106   0.709   0.012   0.508
   30SOL     OW  107   0.197   0.976   1.264
   30SOL    HW1  108   0.286   0.931   1.250
   30SOL    HW2  109   0.124   0.911   1.245
   31SOL     OW  110   1.525   0.999   0.190
   31SOL    HW1  111   1.462   0.923   0.203
   31SOL    HW2  112   1.573   1.017   0.276
   32SOL     OW  113   0.317   0.251   1.801
   32SOL    HW1  114   0.388   0.322   1.807
   32SOL    HW2  115   0.229   0.290   1.829
   33SOL     OW  116   1.466   1.417   0.953
   33SOL    HW1  117   1.407   1.423   1.033
   33SOL    HW2  118   1.451   1.329   0.907
   34SOL     OW  119   1.667   1.714   0.572
   34SOL    HW1  120   1.626   1.691   0.484
   34SOL    HW2  121   1.649   1.640   0.637
   35SOL     OW  122   0.598   0.729   0.270
   35SOL    HW1  123   0.622   0.798   0.202
   35SOL    HW2  124   0.520   0.762   0.324
   36SOL     OW  125   1.281   0.345   0.944
   36SOL    HW1  126   1.195   0.295   0.931
   36SOL    HW2  127   1.343   0.291   1.000
   37SOL     OW  128   1.576   1.662   0.307
   37SOL    HW1  129   1.665   1.708   0.310
   37SOL    HW2  130   1.555   1.638   0.212
   38SOL     OW  131   0.807   0.605   1.465
   38SOL    HW1  132   0.760   0.602   1.554
   38SOL    HW2  133   0.756   0.550   1.399
   39SOL     OW  134   1.394   0.469   1.674
   39SOL    HW1  135   1.374   0.512   1.762
   39SOL    HW2  136   1.472   0.407   1.683
   40SOL     OW  137   0.973   0.890   1.572
   40SOL    HW1  138   1.019   0.806   1.543
   40SOL    HW2  139   0.917   0.924   1.497
   41SOL     OW  140   0.991   0.410   1.242
   41SOL    HW1  141   0.914   0.444   1.296
   41SOL    HW2  142   0.957   0.359   1.163
   42SOL     OW  143   1.041   0.701   0.429
   42SOL    HW1  144   1.067   0.697   0.525
   42SOL    HW2  145   0.956   0.650   0.415
   43SOL     OW  146   0.076   0.811   0.789
   43SOL    HW1  147   0.175   0.799   0.798
   43SOL    HW2  148   0.052   0.906   0.810
   44SOL     OW  149   0.130   1.821   1.571
   44SOL    HW1  150   0.120   1.806   1.670
   44SOL    HW2  151   0.044   1.857   1.535
   45SOL     OW  152   0.865   0.348   0.195
   45SOL    HW1  153   0.924   0.411   0.146
   45SOL    HW2  154   0.884   0.254   0.166
   46SOL     OW  155   1.719   0.585   1.831
   46SOL    HW1  156   1.693   0.674   1.795
   46SOL    HW2  157   1.717   0.517   1.758
   47SOL     OW  158   1.362   1.144   0.545
   47SOL    HW1  159   1.445   1.115   0.497
   47SOL    HW2  160   1.313   1.211   0.489
   48SOL     OW  161   0.550   0.196   0.885
   48SOL    HW1  162   0.545   0.191   0.985
   48SOL    HW2  163   0.552   0.292   0.856
   49SOL     OW  164   1.008   1.456   0.477
   49SOL    HW1  165   0.962   1.528   0.425
   49SOL    HW2  166   1.004   1.476   0.575
   50SOL     OW  167   0.351   1.801   0.853
   50SOL    HW1  168   0.401   1.715   0.859
   50SOL    HW2  169   0.416   1.878   0.850
   51SOL     OW  170   1.795   1.066   0.873
   51SOL    HW1  171   1.733   1.051   0.797
   51SOL    HW2  172   1.743   1.077   0.958
   52SOL     OW  173   0.321   0.943   0.242
   52SOL    HW1  174   0.403   0.982   0.200
   52SOL    HW2  175   0.294   0.861   0.193
   53SOL     OW  176   1.458   0.735   0.728
   53SOL    HW1  177   1.453   0.670   0.803
   53SOL    HW2  178   1.538   0.794   0.741
   54SOL     OW  179   0.461   1.266   1.727
   54SOL    HW1  180   0.411   1.267   1.641
   54SOL    HW2  181   0.398   1.248   1.803
   55SOL     OW  182   1.111   1.776   0.237
   55SOL    HW1  183   1.051   1.714   0.287
   55SOL    HW2  184   1.142   1.732   0.152
   56SOL     OW  185   0.202   0.285   1.498
   56SOL    HW1  186   0.122   0.345   1.485
   56SOL    HW2  187   0.192   0.236   1.584
   57SOL     OW  188   1.632   1.377   0.081
   57SOL    HW1  189   1.600   1.471   0.071
   57SOL    HW2  190   1.556   1.314   0.069
   58SOL     OW  191   0.464   1.743   0.323
   58SOL    HW1  192   0.497   1.782   0.409
   58SOL    HW2  193   0.540   1.736   0.258
   59SOL     OW  194   1.400   0.107   0.426
   59SOL    HW1  195   1.376   0.070   0.336
   59SOL    HW2  196   1.499   0.123   0.430
   60SOL     OW  197   0.249   1.785   1.241
   60SOL    HW1  198   0.306   1.720   1.291
   60SOL    HW2  199   0.233   1.752   1.148
   61SOL     OW  200   0.940   1.698   0.904
   61SOL    HW1  201   1.020   1.641   0.925
   61SOL    HW2  202   0.891   1.658   0.827
   62SOL     OW  203   0.382   0.700   0.480
   62SOL    HW1  204   0.427   0.610   0.477
   62SOL    HW2  205   0.288   0.689   0.513
   63SOL     OW  206   1.547   0.222   1.729
   63SOL    HW1  207   1.542   0.259   1.821
   63SOL    HW2  208   1.475   0.153   1.717
   64SOL     OW  209   0.614   0.122   0.117
   64SOL    HW1  210   0.712   0.100   0.124
   64SOL    HW2  211   0.583   0.105   0.024
   65SOL     OW  212   0.781   0.264   1.749
   65SOL    HW1  213   0.848   0.203   1.792
   65SOL    HW2  214   0.708   0.283   1.814
   66SOL     OW  215   0.888   1.514   1.195
   66SOL    HW1  216   0.865   1.489   1.101
   66SOL    HW2  217   0.949   1.445   1.234
   67SOL     OW  218   1.351   0.590   1.433
   67SOL    HW1  219   1.379   0.547   1.518
   67SOL    HW2  220   1.376   0.686   1.434
   68SOL     OW  221   0.803   1.402   0.924
   68SOL    HW1  222   0.893   1.416   0.882
   68SOL    HW2  223   0.732   1.404   0.853
   69SOL     OW  224   0.922   0.503   0.899
   69SOL    HW1  225   0.897   0.494   0.803
   69SOL    HW2  226   0.970   0.421   0.930
   70SOL     OW  227   0.539   0.064   0.512
   70SOL    HW1  228   0.458   0.065   0.570
   70SOL    HW2  229   0.542   0.147   0.457
   71SOL     OW  230   1.434   1.188   0.041
   71SOL    HW1  231   1.466   1.112   0.098
   71SOL    HW2  232   1.342   1.215   0.071
   72SOL     OW  233   0.297   0.035   0.171
   72SOL    HW1  234   0.346   0.119   0.150
   72SOL    HW2  235   0.359  -0.030   0.216
   73SOL     OW  236   0.935   0.236   0.480
   73SOL    HW1  237   0.887   0.277   0.402
   73SOL    HW2  238   1.034   0.234   0.461
   74SOL     OW  239   1.076   0.683   1.464
   74SOL    HW1  240   0.996   0.622   1.467
   74SOL    HW2  241   1.157   0.630   1.440
   75SOL     OW  242   1.227   1.570   0.793
   75SOL    HW1  243   1.248   1.644   0.728
   75SOL    HW2  244   1.295   1.570   0.866
   76SOL     OW  245   0.459   1.152   0.741
   76SOL    HW1  246   0.388   1.125   0.806
   76SOL    HW2  247   0.433   1.124   0.648
   77SOL     OW  248   1.271   1.797   0.591
   77SOL    HW1  249   1.315   1.861   0.527
   77SOL    HW2  250   1.221   1.849   0.661
   78SOL     OW  251   1.032   0.549   0.016
   78SOL    HW1  252   0.991   0.631  -0.023
   78SOL    HW2  253   1.096   0.575   0.089
   79SOL     OW  254   0.078   0.556   1.386
   79SOL    HW1  255   0.170   0.555   1.345
   79SOL    HW2  256   0.072   0.630   1.453
   80SOL     OW  257   0.561   0.222   1.147
   80SOL    HW1  258   0.599   0.138   1.184
   80SOL    HW2  259   0.473   0.241   1.191
   81SOL     OW  260   0.866   0.454   0.642
   81SOL    HW1  261   0.834   0.526   0.580
   81SOL    HW2  262   0.890   0.373   0.589
   82SOL     OW  263   1.017   0.039   0.753
   82SOL    HW1  264   0.945   0.044   0.684
   82SOL    HW2  265   0.993  -0.030   0.822
   83SOL     OW  266   1.429   1.173   0.867
   83SOL    HW1  267   1.374   1.089   0.860
   83SOL    HW2  268   1.455   1.202   0.775
   84SOL     OW  269   1.466   0.590   0.992
   84SOL    HW1  270   1.436   0.495   0.999
   84SOL    HW2  271   1.539   0.606   1.058
   85SOL     OW  272   1.857   0.833   0.377
   85SOL    HW1  273   1.899   0.769   0.441
   85SOL    HW2  274   1.819   0.782   0.299
   86SOL     OW  275   0.488   1.385   0.174
   86SOL    HW1  276   0.401   1.370   0.221
   86SOL    HW2  277   0.471   1.411   0.079
   87SOL     OW  278   1.664   1.280   0.657
   87SOL    HW1  279   1.763   1.288   0.671
   87SOL    HW2  280   1.619   1.364   0.688
   88SOL     OW  281   1.390   0.575   0.078
   88SOL    HW1  282   1.336   0.554   0.159
   88SOL    HW2  283   1.481   0.534   0.087
   89SOL     OW  284   0.527   0.256   0.328
   89SOL    HW1  285   0.554   0.197   0.253
   89SOL    HW2  286   0.527   0.351   0.297
   90SOL     OW  287   1.754   1.223   1.588
   90SOL    HW1  288   1.845   1.184   1.575
   90SOL    HW2  289   1.762   1.319   1.612
   91SOL     OW  290   1.064   1.347   1.340
   91SOL    HW1  291   0.984   1.324   1.395
   91SOL    HW2  292   1.147   1.321   1.389
   92SOL     OW  293   1.111   1.195   1.100
   92SOL    HW1  294   1.071   1.239   1.181
   92SOL    HW2  295   1.070   1.232   1.017
   93SOL     OW  296   1.638   1.099   1.079
   93SOL    HW1  297   1.643   1.180   1.138
   93SOL    HW2  298   1.552   1.101   1.028
   94SOL     OW  299   0.915   0.089   1.402
   94SOL    HW1  300   0.940   0.069   1.307
   94SOL    HW2  301   0.987   0.145   1.444
   95SOL     OW  302   0.980   1.116   1.719
   95SOL    HW1  303   0.881   1.122   1.729
   95SOL    HW2  304   1.003   1.036   1.663
   96SOL     OW  305   0.705   1.050   0.368
   96SOL    HW1  306   0.691   1.057   0.467
   96SOL    HW2  307   0.789   0.999   0.350
   97SOL     OW  308   0.410   0.813   1.251
   97SOL    HW1  309   0.496   0.825   1.301
   97SOL    HW2  310   0.368   0.726   1.278
   98SOL     OW  311   1.274   0.386   1.262
   98SOL    HW1  312   1.295   0.460   1.326
   98SOL    HW2  313   1.185   0.403   1.219
   99SOL     OW  314   0.064   1.564   1.331
   99SOL    HW1  315   0.018   1.646   1.297
   99SOL    HW2  316   0.162   1.583   1.340
  100SOL     OW  317   0.367   1.100   0.501
  100SOL    HW1  318   0.360   1.183   0.445
  100SOL    HW2  319   0.371   1.020   0.441
  101SOL     OW  320   0.566   0.537   0.865
  101SOL    HW1  321   0.578   0.603   0.791
  101SOL    HW2  322   0.612   0.571   0.948
  102SOL     OW  323   1.252   1.348   0.388
  102SOL    HW1  324   1.302   1.425   0.428
  102SOL    HW2  325   1.157   1.350   0.420
  103SOL     OW  326   1.272   1.445   1.142
  103SOL    HW1  327   1.319   1.458   1.229
  103SOL    HW2  328   1.206   1.371   1.151
  104SOL     OW  329   1.582   0.639   0.472
  104SOL    HW1  330   1.551   0.700   0.545
  104SOL    HW2  331   1.632   0.691   0.403
  105SOL     OW  332   0.354   1.510   1.329
  105SOL    HW1  333   0.333   1.466   1.242
  105SOL    HW2  334   0.451   1.536   1.332
  106SOL     OW  335   0.402   0.751   1.598
  106SOL    HW1  336   0.470   0.806   1.551
  106SOL    HW2  337   0.442   0.663   1.625
  107SOL     OW  338   1.587   0.779   1.670
  107SOL    HW1  339   1.495   0.817   1.665
  107SOL    HW2  340   1.647   0.826   1.605
  108SOL     OW  341   1.013   0.105   1.770
  108SOL    HW1  342   1.019   0.190   1.718
  108SOL    HW2  343   1.045   0.029   1.713
  109SOL     OW  344   0.504   0.050   1.740
  109SOL    HW1  345   0.462  -0.007   1.670
  109SOL    HW2  346   0.438   0.119   1.772
  110SOL     OW  347   0.573   0.870   1.029
  110SOL    HW1  348   0.617   0.959   1.020
  110SOL    HW2  349   0.510   0.870   1.106
  111SOL     OW  350   1.360   0.862   1.045
  111SOL    HW1  351   1.285   0.862   0.979
  111SOL    HW2  352   1.397   0.770   1.054
  112SOL     OW  353   1.209   0.525   0.275
  112SOL    HW1  354   1.222   0.441   0.329
  112SOL    HW2  355   1.180   0.599   0.335
  113SOL     OW  356   0.307   0.213   1.231
  113SOL    HW1  357   0.284   0.250   1.321
  113SOL    HW2  358   0.277   0.118   1.225
  114SOL     OW  359   0.037   1.310   1.282
  114SOL    HW1  360   0.090   1.261   1.350
  114SOL    HW2  361   0.059   1.408   1.287
  115SOL     OW  362   0.732   0.634   1.064
  115SOL    HW1  363   0.791   0.608   0.988
  115SOL    HW2  364   0.704   0.730   1.053
  116SOL     OW  365   1.728   0.935   1.854
  116SOL    HW1  366   1.682   0.928   1.765
  116SOL    HW2  367   1.666   0.979   1.920
  117SOL     OW  368   0.307   0.063   0.618
  117SOL    HW1  369   0.296   0.157   0.651
  117SOL    HW2  370   0.302   0.000   0.695
  118SOL     OW  371   1.622   0.367   0.374
  118SOL    HW1  372   1.624   0.291   0.438
  118SOL    HW2  373   1.574   0.444   0.414
  119SOL     OW  374   1.023   0.766   0.966
  119SOL    HW1  375   1.038   0.787   1.062
  119SOL    HW2  376   0.993   0.671   0.957
  120SOL     OW  377   0.350   0.898   1.804
  120SOL    HW1  378   0.426   0.942   1.852
  120SOL    HW2  379   0.385   0.851   1.722
  121SOL     OW  380   1.540   0.274   0.125
  121SOL    HW1  381   1.479   0.199   0.148
  121SOL    HW2  382   1.562   0.326   0.208
  122SOL     OW  383   1.303   0.838   0.042
  122SOL    HW1  384   1.337   0.745   0.057
  122SOL    HW2  385   1.321   0.865  -0.053
  123SOL     OW  386   1.068   1.333   0.849
  123SOL    HW1  387   1.075   1.249   0.794
  123SOL    HW2  388   1.130   1.402   0.813
  124SOL     OW  389   0.319   0.810   0.949
  124SOL    HW1  390   0.412   0.846   0.954
  124SOL    HW2  391   0.313   0.725   1.001
  125SOL     OW  392   0.339   0.509   1.006
  125SOL    HW1  393   0.287   0.426   0.989
  125SOL    HW2  394   0.416   0.514   0.942
  126SOL     OW  395   1.138   0.380   1.678
  126SOL    HW1  396   1.093   0.443   1.742
  126SOL    HW2  397   1.231   0.411   1.661
  127SOL     OW  398   1.160   0.207   1.477
  127SOL    HW1  399   1.160   0.271   1.554
  127SOL    HW2  400   1.188   0.255   1.394
  128SOL     OW  401   0.008   1.326   0.200
  128SOL    HW1  402  -0.085   1.347   0.169
  128SOL    HW2  403   0.018   1.227   0.213
  129SOL     OW  404   0.088   1.801   0.927
  129SOL    HW1  405   0.046   1.715   0.900
  129SOL    HW2  406   0.182   1.804   0.893
  130SOL     OW  407   0.504   1.568   0.910
  130SOL    HW1  408   0.570   1.642   0.919
  130SOL    HW2  409   0.548   1.489   0.868
  131SOL     OW  410   1.002   0.796   1.238
  131SOL    HW1  411   1.043   0.764   1.324
  131SOL    HW2  412   0.906   0.769   1.235
  132SOL     OW  413   0.040   0.544   1.114
  132SOL    HW1  414   0.125   0.511   1.073
  132SOL    HW2  415   0.053   0.559   1.212
  133SOL     OW  416   0.189   0.520   1.722
  133SOL    HW1  417   0.248   0.480   1.652
  133SOL    HW2  418   0.131   0.591   1.681
  134SOL     OW  419   1.369   0.950   1.660
  134SOL    HW1  420   1.408   1.039   1.680
  134SOL    HW2  421   1.379   0.930   1.563
  135SOL     OW  422   0.815   0.572   0.325
  135SOL    HW1  423   0.822   0.483   0.279
  135SOL    HW2  424   0.721   0.606   0.317
  136SOL     OW  425   1.657   0.604   1.206
  136SOL    HW1  426   1.619   0.535   1.268
  136SOL    HW2  427   1.739   0.568   1.162
  137SOL     OW  428   0.252   1.564   1.744
  137SOL    HW1  429   0.222   1.621   1.820
  137SOL    HW2  430   0.245   1.467   1.770
  138SOL     OW  431   0.671   0.464   1.269
  138SOL    HW1  432   0.637   0.375   1.239
  138SOL    HW2  433   0.697   0.518   1.189
  139SOL     OW  434   0.930   1.678   1.465
  139SOL    HW1  435   0.906   1.660   1.370
  139SOL    HW2  436   0.960   1.772   1.475
  140SOL     OW  437   0.473   0.500   0.191
  140SOL    HW1  438   0.534   0.580   0.195
  140SOL    HW2  439   0.378   0.531   0.198
  141SOL     OW  440   0.159   1.137   1.466
  141SOL    HW1  441   0.181   1.076   1.542
  141SOL    HW2  442   0.169   1.088   1.380
  142SOL     OW  443   1.347   1.059   1.234
  142SOL    HW1  444   1.371   0.996   1.160
  142SOL    HW2  445   1.257   1.099   1.216
  143SOL     OW  446   1.302   0.855   0.309
  143SOL    HW1  447   1.216   0.824   0.351
  143SOL    HW2  448   1.298   0.841   0.210
  144SOL     OW  449   1.759   1.747   1.154
  144SOL    HW1  450   1.820   1.777   1.081
  144SOL    HW2  451   1.721   1.658   1.132
  145SOL     OW  452   1.252   1.731   1.128
  145SOL    HW1  453   1.336   1.736   1.074
  145SOL    HW2  454   1.229   1.635   1.146
  146SOL     OW  455   0.083   1.258   1.022
  146SOL    HW1  456   0.078   1.257   1.122
  146SOL    HW2  457   0.000   1.217   0.984
  147SOL     OW  458   0.688   1.662   1.716
  147SOL    HW1  459   0.632   1.743   1.725
  147SOL    HW2  460   0.740   1.666   1.630
  148SOL     OW  461   0.903   0.086   0.133
  148SOL    HW1  462   0.954   0.087   0.047
  148SOL    HW2  463   0.959   0.044   0.204
  149SOL     OW  464   1.726   0.135   0.523
  149SOL    HW1  465   1.799   0.118   0.456
  149SOL    HW2  466   1.695   0.048   0.561
  150SOL     OW  467   1.388   1.573   0.477
  150SOL    HW1  468   1.455   1.585   0.403
  150SOL    HW2  469   1.348   1.662   0.500
  151SOL     OW  470   0.130   1.794   1.851
  151SOL    HW1  471   0.089   1.720   1.904
  151SOL    HW2  472   0.194   1.845   1.909
  152SOL     OW  473   1.280   0.927   0.672
  152SOL    HW1  474   1.340   0.846   0.674
  152SOL    HW2  475   1.320   0.996   0.612
  153SOL     OW  476   0.830   1.273   1.422
  153SOL    HW1  477   0.825   1.306   1.517
  153SOL    HW2  478   0.744   1.292   1.376
  154SOL     OW  479   0.672   1.616   0.154
  154SOL    HW1  480   0.681   1.626   0.055
  154SOL    HW2  481   0.632   1.527   0.175
  155SOL     OW  482   1.841   0.175   0.963
  155SOL    HW1  483   1.880   0.090   0.927
  155SOL    HW2  484   1.743   0.177   0.944
  156SOL     OW  485   0.263   0.326   0.720
  156SOL    HW1  486   0.184   0.377   0.686
  156SOL    HW2  487   0.254   0.311   0.818
  157SOL     OW  488   1.194   1.612   0.031
  157SOL    HW1  489   1.200   1.519   0.068
  157SOL    HW2  490   1.135   1.612  -0.049
  158SOL     OW  491   0.822   1.002   1.372
  158SOL    HW1  492   0.862   1.001   1.280
  158SOL    HW2  493   0.832   1.094   1.412
  159SOL     OW  494   0.916   0.910   0.291
  159SOL    HW1  495   0.979   0.948   0.223
  159SOL    HW2  496   0.956   0.827   0.330
  160SOL     OW  497   1.504   1.607   0.044
  160SOL    HW1  498   1.412   1.644   0.051
  160SOL    HW2  499   1.542   1.627  -0.046
  161SOL     OW  500   0.372   1.288   1.490
  161SOL    HW1  501   0.359   1.381   1.456
  161SOL    HW2  502   0.288   1.236   1.477
  162SOL     OW  503   1.614   1.292   1.289
  162SOL    HW1  504   1.674   1.295   1.369
  162SOL    HW2  505   1.539   1.356   1.302
  163SOL     OW  506   1.039   1.098   0.696
  163SOL    HW1  507   0.969   1.051   0.750
  163SOL    HW2  508   1.098   1.030   0.653
  164SOL     OW  509   1.014   0.236   0.971
  164SOL    HW1  510   1.006   0.200   0.878
  164SOL    HW2  511   1.012   0.160   1.036
  165SOL     OW  512   0.590   1.487   0.491
  165SOL    HW1  513   0.632   1.429   0.421
  165SOL    HW2  514   0.546   1.566   0.447
  166SOL     OW  515   1.709   0.385   1.381
  166SOL    HW1  516   1.782   0.454   1.385
  166SOL    HW2  517   1.737   0.310   1.322
  167SOL     OW  518   0.255   1.348   0.290
  167SOL    HW1  519   0.159   1.349   0.263
  167SOL    HW2  520   0.267   1.401   0.374
  168SOL     OW  521   0.105   1.013   1.726
  168SOL    HW1  522   0.028   0.980   1.780
  168SOL    HW2  523   0.190   0.983   1.768
  169SOL     OW  524   0.672   0.203   1.489
  169SOL    HW1  525   0.762   0.187   1.449
  169SOL    HW2  526   0.680   0.208   1.588
  170SOL     OW  527   0.075   0.345   0.033
  170SOL    HW1  528  -0.017   0.317   0.004
  170SOL    HW2  529   0.106   0.422  -0.023
  171SOL     OW  530   1.440   0.856   1.398
  171SOL    HW1  531   1.383   0.908   1.335
  171SOL    HW2  532   1.536   0.868   1.374
  172SOL     OW  533   0.072   0.166   0.318
  172SOL    HW1  534   0.055   0.249   0.264
  172SOL    HW2  535   0.162   0.129   0.296
  173SOL     OW  536   1.183   1.335   0.119
  173SOL    HW1  537   1.084   1.324   0.121
  173SOL    HW2  538   1.217   1.350   0.212
  174SOL     OW  539   0.613   0.842   1.431
  174SOL    HW1  540   0.669   0.923   1.414
  174SOL    HW2  541   0.672   0.762   1.434
  175SOL     OW  542   1.493   1.767   0.959
  175SOL    HW1  543   1.526   1.831   0.890
  175SOL    HW2  544   1.559   1.761   1.034
  176SOL     OW  545   0.716   0.565   1.708
  176SOL    HW1  546   0.735   0.630   1.782
  176SOL    HW2  547   0.776   0.485   1.717
  177SOL     OW  548   0.390   1.741   1.560
  177SOL    HW1  549   0.299   1.782   1.558
  177SOL    HW2  550   0.383   1.647   1.592
  178SOL     OW  551   1.674   0.883   1.254
  178SOL    HW1  552   1.647   0.794   1.217
  178SOL    HW2  553   1.675   0.951   1.181
  179SOL     OW  554   1.225   0.325   0.449
  179SOL    HW1  555   1.290   0.251   0.438
  179SOL    HW2  556   1.245   0.375   0.533
  180SOL     OW  557   0.594   0.745   0.652
  180SOL    HW1  558   0.644   0.830   0.633
  180SOL    HW2  559   0.506   0.747   0.604
  181SOL     OW  560   1.777   0.342   1.642
  181SOL    HW1  561   1.760   0.373   1.548
  181SOL    HW2  562   1.693   0.305   1.680
  182SOL     OW  563   1.730   0.934   1.517
  182SOL    HW1  564   1.768   1.025   1.532
  182SOL    HW2  565   1.722   0.917   1.418
  183SOL     OW  566   0.859   1.374   0.016
  183SOL    HW1  567   0.813   1.389   0.104
  183SOL    HW2  568   0.903   1.459  -0.014
  184SOL     OW  569   0.661   1.790   0.953
  184SOL    HW1  570   0.615   1.878   0.940
  184SOL    HW2  571   0.760   1.802   0.946
  185SOL     OW  572   0.859   0.956   0.861
  185SOL    HW1  573   0.913   0.887   0.909
  185SOL    HW2  574   0.827   1.025   0.927
  186SOL     OW  575   1.083   0.984   0.087
  186SOL    HW1  576   1.060   1.037   0.005
  186SOL    HW2  577   1.164   0.928   0.068
  187SOL     OW  578   1.861   1.569   0.851
  187SOL    HW1  579   1.790   1.557   0.781
  187SOL    HW2  580   1.862   1.490   0.911
  188SOL     OW  581   0.221   1.314   1.844
  188SOL    HW1  582   0.156   1.241   1.823
  188SOL    HW2  583   0.225   1.328   1.942
  189SOL     OW  584   0.079   1.240   0.653
  189SOL    HW1  585   0.078   1.193   0.741
  189SOL    HW2  586   0.161   1.212   0.602
  190SOL     OW  587   0.672   1.391   1.624
  190SOL    HW1  588   0.594   1.341   1.662
  190SOL    HW2  589   0.669   1.486   1.655
  191SOL     OW  590   1.824   0.192   1.227
  191SOL    HW1  591   1.820   0.102   1.271
  191SOL    HW2  592   1.827   0.181   1.128
  192SOL     OW  593   0.428   0.424   0.520
  192SOL    HW1  594   0.458   0.352   0.458
  192SOL    HW2  595   0.389   0.384   0.603
  193SOL     OW  596   1.705   1.487   1.104
  193SOL    HW1  597   1.612   1.462   1.077
  193SOL    HW2  598   1.731   1.437   1.186
  194SOL     OW  599   0.317   0.547   1.280
  194SOL    HW1  600   0.355   0.488   1.352
  194SOL    HW2  601   0.357   0.521   1.192
  195SOL     OW  602   0.812   1.586   0.687
  195SOL    HW1  603   0.844   1.596   0.593
  195SOL    HW2  604   0.733   1.524   0.689
  196SOL     OW  605   1.424   0.214   1.112
  196SOL    HW1  606   1.476   0.149   1.167
  196SOL    HW2  607   1.375   0.277   1.173
  197SOL     OW  608   1.001   0.034   1.154
  197SOL    HW1  609   0.938  -0.038   1.123
  197SOL    HW2  610   1.094  -0.002   1.154
  198SOL     OW  611   0.770   1.330   0.301
  198SOL    HW1  612   0.724   1.243   0.318
  198SOL    HW2  613   0.861   1.327   0.342
  199SOL     OW  614   0.618   1.567   1.284
  199SOL    HW1  615   0.613   1.649   1.341
  199SOL    HW2  616   0.707   1.564   1.239
  200SOL     OW  617   1.352   0.052   0.168
  200SOL    HW1  618   1.387   0.011   0.084
  200SOL    HW2  619   1.262   0.014   0.188
  201SOL     OW  620   1.300   0.453   0.691
  201SOL    HW1  621   1.241   0.533   0.695
  201SOL    HW2  622   1.315   0.418   0.784
  202SOL     OW  623   1.593   0.221   0.882
  202SOL    HW1  624   1.509   0.220   0.936
  202SOL    HW2  625   1.595   0.304   0.826
  203SOL     OW  626   0.039   1.077   0.300
  203SOL    HW1  627   0.138   1.066   0.291
  203SOL    HW2  628  -0.001   0.991   0.332
  204SOL     OW  629   0.875   1.646   0.337
  204SOL    HW1  630   0.798   1.611   0.283
  204SOL    HW2  631   0.843   1.717   0.399
  205SOL     OW  632   0.230   0.628   1.975
  205SOL    HW1  633   0.137   0.626   2.012
  205SOL    HW2  634   0.231   0.589   1.883
  206SOL     OW  635   0.225   0.275   2.858
  206SOL    HW1  636   0.260   0.258   2.950
  206SOL    HW2  637   0.137   0.230   2.846
  207SOL     OW  638   0.019   0.368   2.509
  207SOL    HW1  639  -0.063   0.411   2.548
  207SOL    HW2  640  -0.009   0.295   2.446
  208SOL     OW  641   1.555   1.511   2.565
  208SOL    HW1  642   1.498   1.495   2.646
  208SOL    HW2  643   1.496   1.521   2.485
  209SOL     OW  644   1.135   0.703   2.579
  209SOL    HW1  645   1.192   0.781   2.554
  209SOL    HW2  646   1.075   0.729   2.655
  210SOL     OW  647   1.755   0.607   2.093
  210SOL    HW1  648   1.743   0.594   1.994
  210SOL    HW2  649   1.725   0.526   2.142
  211SOL     OW  650   0.768   1.144   2.885
  211SOL    HW1  651   0.690   1.161   2.945
  211SOL    HW2  652   0.802   1.231   2.849
  212SOL     OW  653   0.685   1.012   2.527
  212SOL    HW1  654   0.754   0.996   2.597
  212SOL    HW2  655   0.612   1.069   2.565
  213SOL     OW  656   0.335   1.435   2.923
  213SOL    HW1  657   0.257   1.404   2.870
  213SOL    HW2  658   0.393   1.493   2.866
  214SOL     OW  659   1.603   0.447   2.599
  214SOL    HW1  660   1.529   0.493   2.549
  214SOL    HW2  661   1.654   0.515   2.652
  215SOL     OW  662   0.231   1.713   2.345
  215SOL    HW1  663   0.265   1.790   2.399
  215SOL    HW2  664   0.275   1.713   2.255
  216SOL     OW  665   0.230   1.434   2.400
  216SOL    HW1  666   0.204   1.530   2.400
  216SOL    HW2  667   0.159   1.380   2.445
  217SOL     OW  668   0.240   1.091   2.748
  217SOL    HW1  669   0.254   1.007   2.800
  217SOL    HW2  670   0.185   1.155   2.803
  218SOL     OW  671   0.606   0.964   1.985
  218SOL    HW1  672   0.613   1.048   1.931
  218SOL    HW2  673   0.652   0.977   2.073
  219SOL     OW  674   0.122   0.643   2.425
  219SOL    HW1  675   0.077   0.555   2.442
  219SOL    HW2  676   0.121   0.697   2.509
  220SOL     OW  677   1.842   1.767   2.221
  220SOL    HW1  678   1.896   1.738   2.301
  220SOL    HW2  679   1.872   1.857   2.192
  221SOL     OW  680   0.027   1.596   1.979
  221SOL    HW1  681   0.008   1.500   2.000
  221SOL    HW2  682  -0.006   1.654   2.054
  222SOL     OW  683   1.689   0.922   2.474
  222SOL    HW1  684   1.784   0.893   2.482
  222SOL    HW2  685   1.681   0.987   2.399
  223SOL     OW  686   1.641   1.108   2.294
  223SOL    HW1  687   1.727   1.110   2.242
  223SOL    HW2  688   1.655   1.155   2.382
  224SOL     OW  689   0.613   1.365   2.588
  224SOL    HW1  690   0.564   1.278   2.597
  224SOL    HW2  691   0.590   1.408   2.501
  225SOL     OW  692   0.809   0.004   2.364
  225SOL    HW1  693   0.849   0.095   2.355
  225SOL    HW2  694   0.709   0.012   2.370
  226SOL     OW  695   1.525   0.999   2.052
  226SOL    HW1  696   1.462   0.923   2.065
  226SOL    HW2  697   1.573   1.017   2.138
  227SOL     OW  698   1.466   1.417   2.815
  227SOL    HW1  699   1.407   1.423   2.895
  227SOL    HW2  700   1.451   1.329   2.769
  228SOL     OW  701   1.667   1.714   2.434
  228SOL    HW1  702   1.626   1.691   2.346
  228SOL    HW2  703   1.649   1.640   2.499
  229SOL     OW  704   0.598   0.729   2.132
  229SOL    HW1  705   0.622   0.798   2.064
  229SOL    HW2  706   0.520   0.762   2.186
  230SOL     OW  707   1.281   0.345   2.806
  230SOL    HW1  708   1.195   0.295   2.793
  230SOL    HW2  709   1.343   0.291   2.862
  231SOL     OW  710   1.576   1.662   2.169
  231SOL    HW1  711   1.665   1.708   2.172
  231SOL    HW2  712   1.555   1.638   2.074
  232SOL     OW  713   1.041   0.701   2.291
  232SOL    HW1  714   1.067   0.697   2.387
  232SOL    HW2  715   0.956   0.650   2.277
  233SOL     OW  716   0.076   0.811   2.651
  233SOL    HW1  717   0.175   0.799   2.660
  233SOL    HW2  718   0.052   0.906   2.672
  234SOL     OW  719   0.865   0.348   2.057
  234SOL    HW1  720   0.924   0.411   2.008
  234SOL    HW2  721   0.884   0.254   2.028
  235SOL     OW  722   1.362   1.144   2.407
  235SOL    HW1  723   1.445   1.115   2.359
  235SOL    HW2  724   1.313   1.211   2.351
  236SOL     OW  725   0.550   0.196   2.747
  236SOL    HW1  726   0.545   0.191   2.847
  236SOL    HW2  727   0.552   0.292   2.718
  237SOL     OW  728   1.008   1.456   2.339
  237SOL    HW1  729   0.962   1.528   2.287
  237SOL    HW2  730   1.004   1.476   2.437
  238SOL     OW  731   0.351   1.801   2.715
  238SOL    HW1  732   0.401   1.715   2.721
  238SOL    HW2  733   0.416   1.878   2.712
  239SOL     OW  734   1.795   1.066   2.735
  239SOL    HW1  735   1.733   1.051   2.659
  239SOL    HW2  736   1.743   1.077   2.820
  240SOL     OW  737   0.321   0.943   2.104
  240SOL    HW1  738   0.403   0.982   2.062
  240SOL    HW2  739   0.294   0.861   2.055
  241SOL     OW  740   1.458   0.735   2.590
  241SOL    HW1  741   1.453   0.670   2.665
  241SOL    HW2  742   1.538   0.794   2.603
  242SOL     OW  743   1.111   1.776   2.099
  242SOL    HW1  744   1.051   1.714   2.149
  242SOL    HW2  745   1.142   1.732   2.014
  243SOL     OW  746   1.632   1.377   1.943
  243SOL    HW1  747   1.600   1.471   1.933
  243SOL    HW2  748   1.556   1.314   1.931
  244SOL     OW  749   0.464   1.743   2.185
  244SOL    HW1  750   0.497   1.782   2.271
  244SOL    HW2  751   0.540   1.736   2.120
  245SOL     OW  752   1.400   0.107   2.288
  245SOL    HW1  753   1.376   0.070   2.198
  245SOL    HW2  754   1.499   0.123   2.292
  246SOL     OW  755   0.249   1.785   3.103
  246SOL    HW1  756   0.306   1.720   3.153
  246SOL    HW2  757   0.233   1.752   3.010
  247SOL     OW  758   0.940   1.698   2.766
  247SOL    HW1  759   1.020   1.641   2.787
  247SOL    HW2  760   0.891   1.658   2.689
  248SOL     OW  761   0.382   0.700   2.342
  248SOL    HW1  762   0.427   0.610   2.339
  248SOL    HW2  763   0.288   0.689   2.375
  249SOL     OW  764   0.614   0.122   1.979
  249SOL    HW1  765   0.712   0.100   1.986
  249SOL    HW2  766   0.583   0.105   1.886
  250SOL     OW  767   0.803   1.402   2.786
  250SOL    HW1  768   0.893   1.416   2.744
  250SOL    HW2  769   0.732   1.404   2.715
  251SOL     OW  770   0.922   0.503   2.761
  251SOL    HW1  771   0.897   0.494   2.665
  251SOL    HW2  772   0.970   0.421   2.792
  252SOL     OW  773   0.539   0.064   2.374
  252SOL    HW1  774   0.458   0.065   2.432
  252SOL    HW2  775   0.542   0.147   2.319
  253SOL     OW  776   1.434   1.188   1.903
  253SOL    HW1  777   1.466   1.112   1.960
  253SOL    HW2  778   1.342   1.215   1.933
  254SOL     OW  779   0.297   0.035   2.033
  254SOL    HW1  780   0.346   0.119   2.012
  254SOL    HW2  781   0.359  -0.030   2.078
  255SOL     OW  782   0.935   0.236   2.342
  255SOL    HW1  783   0.887   0.277   2.264
  255SOL    HW2  784   1.034   0.234   2.323
  256SOL     OW  785   1.227   1.570   2.655
  256SOL    HW1  786   1.248   1.644   2.590
  256SOL    HW2  787   1.295   1.570   2.728
  257SOL     OW  788   0.459   1.152   2.603
  257SOL    HW1  789   0.388   1.125   2.668
  257SOL    HW2  790   0.433   1.124   2.510
  258SOL     OW  791   1.271   1.797   2.453
  258SOL    HW1  792   1.315   1.861   2.389
  258SOL    HW2  793   1.221   1.849   2.523
  259SOL     OW  794   1.032   0.549   1.878
  259SOL    HW1  795   0.991   0.631   1.839
  259SOL    HW2  796   1.096   0.575   1.951
  260SOL     OW  797   0.866   0.454   2.504
  260SOL    HW1  798   0.834   0.526   2.442
  260SOL    HW2  799   0.890   0.373   2.451
  261SOL     OW  800   1.017   0.039   2.615
  261SOL    HW1  801   0.945   0.044   2.546
  261SOL    HW2  802   0.993  -0.030   2.684
  262SOL     OW  803   1.429   1.173   2.729
  262SOL    HW1  804   1.374   1.089   2.722
  262SOL    HW2  805   1.455   1.202   2.637
  263SOL     OW  806   1.466   0.590   2.854
  263SOL    HW1  807   1.436   0.495   2.861
  263SOL    HW2  808   1.539   0.606   2.920
  264SOL     OW  809   1.857   0.833   2.239
  264SOL    HW1  810   1.899   0.769   2.303
  264SOL    HW2  811   1.819   0.782   2.161
  265SOL     OW  812   0.488   1.385   2.036
  265SOL    HW1  813   0.401   1.370   2.083
  265SOL    HW2  814   0.471   1.411   1.941
  266SOL     OW  815   1.664   1.280   2.519
  266SOL    HW1  816   1.763   1.288   2.533
  266SOL    HW2  817   1.619   1.364   2.550
  267SOL     OW  818   1.390   0.575   1.940
  267SOL    HW1  819   1.336   0.554   2.021
  267SOL    HW2  820   1.481   0.534   1.949
  268SOL     OW  821   0.527   0.256   2.190
  268SOL    HW1  822   0.554   0.197   2.115
  268SOL    HW2  823   0.527   0.351   2.159
  269SOL     OW  824   1.638   1.099   2.941
  269SOL    HW1  825   1.643   1.180   3.000
  269SOL    HW2  826   1.552   1.101   2.890
  270SOL     OW  827   0.705   1.050   2.230
  270SOL    HW1  828   0.691   1.057   2.329
  270SOL    HW2  829   0.789   0.999   2.212
  271SOL     OW  830   0.367   1.100   2.363
  271SOL    HW1  831   0.360   1.183   2.307
  271SOL    HW2  832   0.371   1.020   2.303
  272SOL     OW  833   0.566   0.537   2.727
  272SOL    HW1  834   0.578   0.603   2.653
  272SOL    HW2  835   0.612   0.571   2.810
  273SOL     OW  836   1.252   1.348   2.250
  273SOL    HW1  837   1.302   1.425   2.290
  273SOL    HW2  838   1.157   1.350   2.282
  274SOL     OW  839   1.582   0.639   2.334
  274SOL    HW1  840   1.551   0.700   2.407
  274SOL    HW2  841   1.632   0.691   2.265
  275SOL     OW  842   0.573   0.870   2.891
  275SOL    HW1  843   0.617   0.959   2.882
  275SOL    HW2  844   0.510   0.870   2.968
  276SOL     OW  845   1.209   0.525   2.137
  276SOL    HW1  846   1.222   0.441   2.191
  276SOL    HW2  847   1.180   0.599   2.197
  277SOL     OW  848   0.732   0.634   2.926
  277SOL    HW1  849   0.791   0.608   2.850
  277SOL    HW2  850   0.704   0.730   2.915
  278SOL     OW  851   0.307   0.063   2.480
  278SOL    HW1  852   0.296   0.157   2.513
  278SOL    HW2  853   0.302   0.000   2.557
  279SOL     OW  854   1.622   0.367   2.236
  279SOL    HW1  855   1.624   0.291   2.300
  279SOL    HW2  856   1.574   0.444   2.276
  280SOL     OW  857   1.023   0.766   2.828
  280SOL    HW1  858   1.038   0.787   2.924
  280SOL    HW2  859   0.993   0.671   2.819
  281SOL     OW  860   1.540   0.274   1.987
  281SOL    HW1  861   1.479   0.199   2.010
  281SOL    HW2  862   1.562   0.326   2.070
  282SOL     OW  863   1.303   0.838   1.904
  282SOL    HW1  864   1.337   0.745   1.919
  282SOL    HW2  865   1.321   0.865   1.809
  283SOL     OW  866   1.068   1.333   2.711
  283SOL    HW1  867   1.075   1.249   2.656
  283SOL    HW2  868   1.130   1.402   2.675
  284SOL     OW  869   0.319   0.810   2.811
  284SOL    HW1  870   0.412   0.846   2.816
  284SOL    HW2  871   0.313   0.725   2.863
  285SOL     OW  872   0.339   0.509   2.868
  285SOL    HW1  873   0.287   0.426   2.851
  285SOL    HW2  874   0.416   0.514   2.804
  286SOL     OW  875   0.008   1.326   2.062
  286SOL    HW1  876  -0.085   1.347   2.031
  286SOL    HW2  877   0.018   1.227   2.075
  287SOL     OW  878   0.088   1.801   2.789
  287SOL    HW1  879   0.046   1.715   2.762
  287SOL    HW2  880   0.182   1.804   2.755
  288SOL     OW  881   0.504   1.568   2.772
  288SOL    HW1  882   0.570   1.642   2.781
  288SOL    HW2  883   0.548   1.489   2.730
  289SOL     OW  884   1.002   0.796   3.100
  289SOL    HW1  885   1.043   0.764   3.186
  289SOL    HW2  886   0.906   0.769   3.097
  290SOL     OW  887   0.815   0.572   2.187
  290SOL    HW1  888   0.822   0.483   2.141
  290SOL    HW2  889   0.721   0.606   2.179
  291SOL     OW  890   0.671   0.464   3.131
  291SOL    HW1  891   0.637   0.375   3.101
  291SOL    HW2  892   0.697   0.518   3.051
  292SOL     OW  893   0.473   0.500   2.053
  292SOL    HW1  894   0.534   0.580   2.057
  292SOL    HW2  895   0.378   0.531   2.060
  293SOL     OW  896   1.302   0.855   2.171
  293SOL    HW1  897   1.216   0.824   2.213
  293SOL    HW2  898   1.298   0.841   2.072
  294SOL     OW  899   1.759   1.747   3.016
  294SOL    HW1  900   1.820   1.777   2.943
  294SOL    HW2  901   1.721   1.658   2.994
  295SOL     OW  902   0.083   1.258   2.884
  295SOL    HW1  903   0.078   1.257   2.984
  295SOL    HW2  904   0.000   1.217   2.846
  296SOL     OW  905   1.726   0.135   2.385
  296SOL    HW1  906   1.799   0.118   2.318
  296SOL    HW2  907   1.695   0.048   2.423
  297SOL     OW  908   1.388   1.573   2.339
  297SOL    HW1  909   1.455   1.585   2.265
  297SOL    HW2  910   1.348   1.662   2.362
  298SOL     OW  911   1.280   0.927   2.534
  298SOL    HW1  912   1.340   0.846   2.536
  298SOL    HW2  913   1.320   0.996   2.474
  299SOL     OW  914   0.672   1.616   2.016
  299SOL    HW1  915   0.681   1.626   1.917
  299SOL    HW2  916   0.632   1.527   2.037
  300SOL     OW  917   1.841   0.175   2.825
  300SOL    HW1  918   1.880   0.090   2.789
  300SOL    HW2  919   1.743   0.177   2.806
  301SOL     OW  920   0.263   0.326   2.582
  301SOL    HW1  921   0.184   0.377   2.548
  301SOL    HW2  922   0.254   0.311   2.680
  302SOL     OW  923   1.194   1.612   1.893
  302SOL    HW1  924   1.200   1.519   1.930
  302SOL    HW2  925   1.135   1.612   1.813
  303SOL     OW  926   0.916   0.910   2.153
  303SOL    HW1  927   0.979   0.948   2.085
  303SOL    HW2  928   0.956   0.827   2.192
  304SOL     OW  929   1.504   1.607   1.906
  304SOL    HW1  930   1.412   1.644   1.913
  304SOL    HW2  931   1.542   1.627   1.816
  305SOL     OW  932   1.039   1.098   2.558
  305SOL    HW1  933   0.969   1.051   2.612
  305SOL    HW2  934   1.098   1.030   2.515
  306SOL     OW  935   1.014   0.236   2.833
  306SOL    HW1  936   1.006   0.200   2.740
  306SOL    HW2  937   1.012   0.160   2.898
  307SOL     OW  938   0.590   1.487   2.353
  307SOL    HW1  939   0.632   1.429   2.283
  307SOL    HW2  940   0.546   1.566   2.309
  308SOL     OW  941   0.255   1.348   2.152
  308SOL    HW1  942   0.159   1.349   2.125
  308SOL    HW2  943   0.267   1.401   2.236
  309SOL     OW  944   0.075   0.345   1.895
  309SOL    HW1  945  -0.017   0.317   1.866
  309SOL    HW2  946   0.106   0.422   1.839
  310SOL     OW  947   0.072   0.166   2.180
  310SOL    HW1  948   0.055   0.249   2.126
  310SOL    HW2  949   0.162   0.129   2.158
  311SOL     OW  950   1.183   1.335   1.981
  311SOL    HW1  951   1.084   1.324   1.983
  311SOL    HW2  952   1.217   1.350   2.074
  312SOL     OW  953   1.493   1.767   2.821
  312SOL    HW1  954   1.526   1.831   2.752
  312SOL    HW2  955   1.559   1.761   2.896
  313SOL     OW  956   1.674   0.883   3.116
  313SOL    HW1  957   1.647   0.794   3.079
  313SOL    HW2  958   1.675   0.951   3.043
  314SOL     OW  959   1.225   0.325   2.311
  314SOL    HW1  960   1.290   0.251   2.300
  314SOL    HW2  961   1.245   0.375   2.395
  315SOL     OW  962   0.594   0.745   2.514
  315SOL    HW1  963   0.644   0.830   2.495
  315SOL    HW2  964   0.506   0.747   2.466
  316SOL     OW  965   0.859   1.374   1.878
  316SOL    HW1  966   0.813   1.389   1.966
  316SOL    HW2  967   0.903   1.459   1.848
  317SOL     OW  968   0.661   1.790   2.815
  317SOL    HW1  969   0.615   1.878   2.802
  317SOL    HW2  970   0.760   1.802   2.808
  318SOL     OW  971   0.859   0.956   2.723
  318SOL    HW1  972   0.913   0.887   2.771
  318SOL    HW2  973   0.827   1.025   2.789
  319SOL     OW  974   1.083   0.984   1.949
  319SOL    HW1  975   1.060   1.037   1.867
  319SOL    HW2  976   1.164   0.928   1.930
  320SOL     OW  977   1.861   1.569   2.713
  320SOL    HW1  978   1.790   1.557   2.643
  320SOL    HW2  979   1.862   1.490   2.773
  321SOL     OW  980   0.079   1.240   2.515
  321SOL    HW1  981   0.078   1.193   2.603
  321SOL    HW2  982   0.161   1.212   2.464
  322SOL     OW  983   1.824   0.192   3.089
  322SOL    HW1  984   1.820   0.102   3.133
  322SOL    HW2  985   1.827   0.181   2.990
  323SOL     OW  986   0.428   0.424   2.382
  323SOL    HW1  987   0.458   0.352   2.320
  323SOL    HW2  988   0.389   0.384   2.465
  324SOL     OW  989   0.812   1.586   2.549
  324SOL    HW1  990   0.844   1.596   2.455
  324SOL    HW2  991   0.733   1.524   2.551
  325SOL     OW  992   0.770   1.330   2.163
  325SOL    HW1  993   0.724   1.243   2.180
  325SOL    HW2  994   0.861   1.327   2.204
  326SOL     OW  995   1.352   0.052   2.030
  326SOL    HW1  996   1.387   0.011   1.946
  326SOL    HW2  997   1.262   0.014   2.050
  327SOL     OW  998   1.300   0.453   2.553
  327SOL    HW1  999   1.241   0.533   2.557
  327SOL    HW2 1000   1.315   0.418   2.646
  328SOL     OW 1001   1.593   0.221   2.744
  328SOL    HW1 1002   1.509   0.220   2.798
  328SOL    HW2 1003   1.595   0.304   2.688
  329SOL     OW 1004   0.039   1.077   2.162
  329SOL    HW1 1005   0.138   1.066   2.153
  329SOL    HW2 1006  -0.001   0.991   2.194
  330SOL     OW 1007   0.875   1.646   2.199
  330SOL    HW1 1008   0.798   1.611   2.145
  330SOL    HW2 1009   0.843   1.717   2.261
  331SOL     OW 1010   0.230   2.490   0.113
  331SOL    HW1 1011   0.137   2.488   0.150
  331SOL    HW2 1012   0.231   2.451   0.021
  332SOL     OW 1013   0.225   2.137   0.996
  332SOL    HW1 1014   0.260   2.120   1.088
  332SOL    HW2 1015   0.137   2.092   0.984
  333SOL     OW 1016   0.019   2.230   0.647
  333SOL    HW1 1017  -0.063   2.273   0.686
  333SOL    HW2 1018  -0.009   2.157   0.584
  334SOL     OW 1019   1.135   2.565   0.717
  334SOL    HW1 1020   1.192   2.643   0.692
  334SOL    HW2 1021   1.075   2.591   0.793
  335SOL     OW 1022   1.755   2.469   0.231
  335SOL    HW1 1023   1.743   2.456   0.132
  335SOL    HW2 1024   1.725   2.388   0.280
  336SOL     OW 1025   0.768   3.006   1.023
  336SOL    HW1 1026   0.690   3.023   1.083
  336SOL    HW2 1027   0.802   3.093   0.987
  337SOL     OW 1028   0.850   2.660   1.823
  337SOL    HW1 1029   0.846   2.736   1.888
  337SOL    HW2 1030   0.872   2.696   1.732
  338SOL     OW 1031   0.685   2.874   0.665
  338SOL    HW1 1032   0.754   2.858   0.735
  338SOL    HW2 1033   0.612   2.931   0.703
  339SOL     OW 1034   0.438   2.254   1.499
  339SOL    HW1 1035   0.520   2.198   1.508
  339SOL    HW2 1036   0.357   2.196   1.503
  340SOL     OW 1037   1.603   2.309   0.737
  340SOL    HW1 1038   1.529   2.355   0.687
  340SOL    HW2 1039   1.654   2.377   0.790
  341SOL     OW 1040   0.230   3.296   0.538
  341SOL    HW1 1041   0.204   3.392   0.538
  341SOL    HW2 1042   0.159   3.242   0.583
  342SOL     OW 1043   0.240   2.953   0.886
  342SOL    HW1 1044   0.254   2.869   0.938
  342SOL    HW2 1045   0.185   3.017   0.941
  343SOL     OW 1046   0.606   2.826   0.123
  343SOL    HW1 1047   0.613   2.910   0.069
  343SOL    HW2 1048   0.652   2.839   0.211
  344SOL     OW 1049   1.594   1.976   1.480
  344SOL    HW1 1050   1.576   2.043   1.408
  344SOL    HW2 1051   1.591   2.022   1.569
  345SOL     OW 1052   0.122   2.505   0.563
  345SOL    HW1 1053   0.077   2.417   0.580
  345SOL    HW2 1054   0.121   2.559   0.647
  346SOL     OW 1055   1.689   2.784   0.612
  346SOL    HW1 1056   1.784   2.755   0.620
  346SOL    HW2 1057   1.681   2.849   0.537
  347SOL     OW 1058   0.113   2.599   1.597
  347SOL    HW1 1059   0.201   2.586   1.642
  347SOL    HW2 1060   0.100   2.696   1.575
  348SOL     OW 1061   0.613   3.227   0.726
  348SOL    HW1 1062   0.564   3.140   0.735
  348SOL    HW2 1063   0.590   3.270   0.639
  349SOL     OW 1064   1.293   3.090   1.423
  349SOL    HW1 1065   1.330   3.017   1.365
  349SOL    HW2 1066   1.345   3.095   1.508
  350SOL     OW 1067   0.809   1.866   0.502
  350SOL    HW1 1068   0.849   1.957   0.493
  350SOL    HW2 1069   0.709   1.874   0.508
  351SOL     OW 1070   0.197   2.838   1.264
  351SOL    HW1 1071   0.286   2.793   1.250
  351SOL    HW2 1072   0.124   2.773   1.245
  352SOL     OW 1073   1.525   2.861   0.190
  352SOL    HW1 1074   1.462   2.785   0.203
  352SOL    HW2 1075   1.573   2.879   0.276
  353SOL     OW 1076   0.317   2.113   1.801
  353SOL    HW1 1077   0.388   2.184   1.807
  353SOL    HW2 1078   0.229   2.152   1.829
  354SOL     OW 1079   0.598   2.591   0.270
  354SOL    HW1 1080   0.622   2.660   0.202
  354SOL    HW2 1081   0.520   2.624   0.324
  355SOL     OW 1082   1.281   2.207   0.944
  355SOL    HW1 1083   1.195   2.157   0.931
  355SOL    HW2 1084   1.343   2.153   1.000
  356SOL     OW 1085   0.807   2.467   1.465
  356SOL    HW1 1086   0.760   2.464   1.554
  356SOL    HW2 1087   0.756   2.412   1.399
  357SOL     OW 1088   1.394   2.331   1.674
  357SOL    HW1 1089   1.374   2.374   1.762
  357SOL    HW2 1090   1.472   2.269   1.683
  358SOL     OW 1091   0.973   2.752   1.572
  358SOL    HW1 1092   1.019   2.668   1.543
  358SOL    HW2 1093   0.917   2.786   1.497
  359SOL     OW 1094   0.991   2.272   1.242
  359SOL    HW1 1095   0.914   2.306   1.296
  359SOL    HW2 1096   0.957   2.221   1.163
  360SOL     OW 1097   1.041   2.563   0.429
  360SOL    HW1 1098   1.067   2.559   0.525
  360SOL    HW2 1099   0.956   2.512   0.415
  361SOL     OW 1100   0.076   2.673   0.789
  361SOL    HW1 1101   0.175   2.661   0.798
  361SOL    HW2 1102   0.052   2.768   0.810
  362SOL     OW 1103   0.865   2.210   0.195
  362SOL    HW1 1104   0.924   2.273   0.146
  362SOL    HW2 1105   0.884   2.116   0.166
  363SOL     OW 1106   1.719   2.447   1.831
  363SOL    HW1 1107   1.693   2.536   1.795
  363SOL    HW2 1108   1.717   2.379   1.758
  364SOL     OW 1109   0.550   2.058   0.885
  364SOL    HW1 1110   0.545   2.053   0.985
  364SOL    HW2 1111   0.552   2.154   0.856
  365SOL     OW 1112   1.795   2.928   0.873
  365SOL    HW1 1113   1.733   2.913   0.797
  365SOL    HW2 1114   1.743   2.939   0.958
  366SOL     OW 1115   1.458   2.597   0.728
  366SOL    HW1 1116   1.453   2.532   0.803
  366SOL    HW2 1117   1.538   2.656   0.741
  367SOL     OW 1118   0.202   2.147   1.498
  367SOL    HW1 1119   0.122   2.207   1.485
  367SOL    HW2 1120   0.192   2.098   1.584
  368SOL     OW 1121   1.400   1.969   0.426
  368SOL    HW1 1122   1.376   1.932   0.336
  368SOL    HW2 1123   1.499   1.985   0.430
  369SOL     OW 1124   0.382   2.562   0.480
  369SOL    HW1 1125   0.427   2.472   0.477
  369SOL    HW2 1126   0.288   2.551   0.513
  370SOL     OW 1127   1.547   2.084   1.729
  370SOL    HW1 1128   1.542   2.121   1.821
  370SOL    HW2 1129   1.475   2.015   1.717
  371SOL     OW 1130   0.614   1.984   0.117
  371SOL    HW1 1131   0.712   1.962   0.124
  371SOL    HW2 1132   0.583   1.967   0.024
  372SOL     OW 1133   0.781   2.126   1.749
  372SOL    HW1 1134   0.848   2.065   1.792
  372SOL    HW2 1135   0.708   2.145   1.814
  373SOL     OW 1136   1.351   2.452   1.433
  373SOL    HW1 1137   1.379   2.409   1.518
  373SOL    HW2 1138   1.376   2.548   1.434
  374SOL     OW 1139   0.922   2.365   0.899
  374SOL    HW1 1140   0.897   2.356   0.803
  374SOL    HW2 1141   0.970   2.283   0.930
  375SOL     OW 1142   0.539   1.926   0.512
  375SOL    HW1 1143   0.458   1.927   0.570
  375SOL    HW2 1144   0.542   2.009   0.457
  376SOL     OW 1145   0.935   2.098   0.480
  376SOL    HW1 1146   0.887   2.139   0.402
  376SOL    HW2 1147   1.034   2.096   0.461
  377SOL     OW 1148   1.076   2.545   1.464
  377SOL    HW1 1149   0.996   2.484   1.467
  377SOL    HW2 1150   1.157   2.492   1.440
  378SOL     OW 1151   1.032   2.411   0.016
  378SOL    HW1 1152   0.991   2.493  -0.023
  378SOL    HW2 1153   1.096   2.437   0.089
  379SOL     OW 1154   0.078   2.418   1.386
  379SOL    HW1 1155   0.170   2.417   1.345
  379SOL    HW2 1156   0.072   2.492   1.453
  380SOL     OW 1157   0.561   2.084   1.147
  380SOL    HW1 1158   0.599   2.000   1.184
  380SOL    HW2 1159   0.473   2.103   1.191
  381SOL     OW 1160   0.866   2.316   0.642
  381SOL    HW1 1161   0.834   2.388   0.580
  381SOL    HW2 1162   0.890   2.235   0.589
  382SOL     OW 1163   1.017   1.901   0.753
  382SOL    HW1 1164   0.945   1.906   0.684
  382SOL    HW2 1165   0.993   1.832   0.822
  383SOL     OW 1166   1.429   3.035   0.867
  383SOL    HW1 1167   1.374   2.951   0.860
  383SOL    HW2 1168   1.455   3.064   0.775
  384SOL     OW 1169   1.466   2.452   0.992
  384SOL    HW1 1170   1.436   2.357   0.999
  384SOL    HW2 1171   1.539   2.468   1.058
  385SOL     OW 1172   1.857   2.695   0.377
  385SOL    HW1 1173   1.899   2.631   0.441
  385SOL    HW2 1174   1.819   2.644   0.299
  386SOL     OW 1175   1.390   2.437   0.078
  386SOL    HW1 1176   1.336   2.416   0.159
  386SOL    HW2 1177   1.481   2.396   0.087
  387SOL     OW 1178   0.527   2.118   0.328
  387SOL    HW1 1179   0.554   2.059   0.253
  387SOL    HW2 1180   0.527   2.213   0.297
  388SOL     OW 1181   1.754   3.085   1.588
  388SOL    HW1 1182   1.845   3.046   1.575
  388SOL    HW2 1183   1.762   3.181   1.612
  389SOL     OW 1184   1.638   2.961   1.079
  389SOL    HW1 1185   1.643   3.042   1.138
  389SOL    HW2 1186   1.552   2.963   1.028
  390SOL     OW 1187   0.915   1.951   1.402
  390SOL    HW1 1188   0.940   1.931   1.307
  390SOL    HW2 1189   0.987   2.007   1.444
  391SOL     OW 1190   0.410   2.675   1.251
  391SOL    HW1 1191   0.496   2.687   1.301
  391SOL    HW2 1192   0.368   2.588   1.278
  392SOL     OW 1193   1.274   2.248   1.262
  392SOL    HW1 1194   1.295   2.322   1.326
  392SOL    HW2 1195   1.185   2.265   1.219
  393SOL     OW 1196   0.566   2.399   0.865
  393SOL    HW1 1197   0.578   2.465   0.791
  393SOL    HW2 1198   0.612   2.433   0.948
  394SOL     OW 1199   1.582   2.501   0.472
  394SOL    HW1 1200   1.551   2.562   0.545
  394SOL    HW2 1201   1.632   2.553   0.403
  395SOL     OW 1202   0.402   2.613   1.598
  395SOL    HW1 1203   0.470   2.668   1.551
  395SOL    HW2 1204   0.442   2.525   1.625
  396SOL     OW 1205   1.587   2.641   1.670
  396SOL    HW1 1206   1.495   2.679   1.665
  396SOL    HW2 1207   1.647   2.688   1.605
  397SOL     OW 1208   1.013   1.967   1.770
  397SOL    HW1 1209   1.019   2.052   1.718
  397SOL    HW2 1210   1.045   1.891   1.713
  398SOL     OW 1211   0.504   1.912   1.740
  398SOL    HW1 1212   0.462   1.855   1.670
  398SOL    HW2 1213   0.438   1.981   1.772
  399SOL     OW 1214   0.573   2.732   1.029
  399SOL    HW1 1215   0.617   2.821   1.020
  399SOL    HW2 1216   0.510   2.732   1.106
  400SOL     OW 1217   1.360   2.724   1.045
  400SOL    HW1 1218   1.285   2.724   0.979
  400SOL    HW2 1219   1.397   2.632   1.054
  401SOL     OW 1220   1.209   2.387   0.275
  401SOL    HW1 1221   1.222   2.303   0.329
  401SOL    HW2 1222   1.180   2.461   0.335
  402SOL     OW 1223   0.307   2.075   1.231
  402SOL    HW1 1224   0.284   2.112   1.321
  402SOL    HW2 1225   0.277   1.980   1.225
  403SOL     OW 1226   0.037   3.172   1.282
  403SOL    HW1 1227   0.090   3.123   1.350
  403SOL    HW2 1228   0.059   3.270   1.287
  404SOL     OW 1229   0.732   2.496   1.064
  404SOL    HW1 1230   0.791   2.470   0.988
  404SOL    HW2 1231   0.704   2.592   1.053
  405SOL     OW 1232   1.728   2.797   1.854
  405SOL    HW1 1233   1.682   2.790   1.765
  405SOL    HW2 1234   1.666   2.841   1.920
  406SOL     OW 1235   0.307   1.925   0.618
  406SOL    HW1 1236   0.296   2.019   0.651
  406SOL    HW2 1237   0.302   1.862   0.695
  407SOL     OW 1238   1.622   2.229   0.374
  407SOL    HW1 1239   1.624   2.153   0.438
  407SOL    HW2 1240   1.574   2.306   0.414
  408SOL     OW 1241   1.023   2.628   0.966
  408SOL    HW1 1242   1.038   2.649   1.062
  408SOL    HW2 1243   0.993   2.533   0.957
  409SOL     OW 1244   0.350   2.760   1.804
  409SOL    HW1 1245   0.426   2.804   1.852
  409SOL    HW2 1246   0.385   2.713   1.722
  410SOL     OW 1247   1.540   2.136   0.125
  410SOL    HW1 1248   1.479   2.061   0.148
  410SOL    HW2 1249   1.562   2.188   0.208
  411SOL     OW 1250   1.303   2.700   0.042
  411SOL    HW1 1251   1.337   2.607   0.057
  411SOL    HW2 1252   1.321   2.727  -0.053
  412SOL     OW 1253   0.319   2.672   0.949
  412SOL    HW1 1254   0.412   2.708   0.954
  412SOL    HW2 1255   0.313   2.587   1.001
  413SOL     OW 1256   0.339   2.371   1.006
  413SOL    HW1 1257   0.287   2.288   0.989
  413SOL    HW2 1258   0.416   2.376   0.942
  414SOL     OW 1259   1.138   2.242   1.678
  414SOL    HW1 1260   1.093   2.305   1.742
  414SOL    HW2 1261   1.231   2.273   1.661
  415SOL     OW 1262   1.160   2.069   1.477
  415SOL    HW1 1263   1.160   2.133   1.554
  415SOL    HW2 1264   1.188   2.117   1.394
  416SOL     OW 1265   1.002   2.658   1.238
  416SOL    HW1 1266   1.043   2.626   1.324
  416SOL    HW2 1267   0.906   2.631   1.235
  417SOL     OW 1268   0.040   2.406   1.114
  417SOL    HW1 1269   0.125   2.373   1.073
  417SOL    HW2 1270   0.053   2.421   1.212
  418SOL     OW 1271   0.189   2.382   1.722
  418SOL    HW1 1272   0.248   2.342   1.652
  418SOL    HW2 1273   0.131   2.453   1.681
  419SOL     OW 1274   1.369   2.812   1.660
  419SOL    HW1 1275   1.408   2.901   1.680
  419SOL    HW2 1276   1.379   2.792   1.563
  420SOL     OW 1277   0.815   2.434   0.325
  420SOL    HW1 1278   0.822   2.345   0.279
  420SOL    HW2 1279   0.721   2.468   0.317
  421SOL     OW 1280   1.657   2.466   1.206
  421SOL    HW1 1281   1.619   2.397   1.268
  421SOL    HW2 1282   1.739   2.430   1.162
  422SOL     OW 1283   0.671   2.326   1.269
  422SOL    HW1 1284   0.637   2.237   1.239
  422SOL    HW2 1285   0.697   2.380   1.189
  423SOL     OW 1286   0.473   2.362   0.191
  423SOL    HW1 1287   0.534   2.442   0.195
  423SOL    HW2 1288   0.378   2.393   0.198
  424SOL     OW 1289   0.159   2.999   1.466
  424SOL    HW1 1290   0.181   2.938   1.542
  424SOL    HW2 1291   0.169   2.950   1.380
  425SOL     OW 1292   1.347   2.921   1.234
  425SOL    HW1 1293   1.371   2.858   1.160
  425SOL    HW2 1294   1.257   2.961   1.216
  426SOL     OW 1295   1.302   2.717   0.309
  426SOL    HW1 1296   1.216   2.686   0.351
  426SOL    HW2 1297   1.298   2.703   0.210
  427SOL     OW 1298   0.903   1.948   0.133
  427SOL    HW1 1299   0.954   1.949   0.047
  427SOL    HW2 1300   0.959   1.906   0.204
  428SOL     OW 1301   1.726   1.997   0.523
  428SOL    HW1 1302   1.799   1.980   0.456
  428SOL    HW2 1303   1.695   1.910   0.561
  429SOL     OW 1304   1.280   2.789   0.672
  429SOL    HW1 1305   1.340   2.708   0.674
  429SOL    HW2 1306   1.320   2.858   0.612
  430SOL     OW 1307   1.841   2.037   0.963
  430SOL    HW1 1308   1.880   1.952   0.927
  430SOL    HW2 1309   1.743   2.039   0.944
  431SOL     OW 1310   0.263   2.188   0.720
  431SOL    HW1 1311   0.184   2.239   0.686
  431SOL    HW2 1312   0.254   2.173   0.818
  432SOL     OW 1313   0.822   2.864   1.372
  432SOL    HW1 1314   0.862   2.863   1.280
  432SOL    HW2 1315   0.832   2.956   1.412
  433SOL     OW 1316   0.916   2.772   0.291
  433SOL    HW1 1317   0.979   2.810   0.223
  433SOL    HW2 1318   0.956   2.689   0.330
  434SOL     OW 1319   1.014   2.098   0.971
  434SOL    HW1 1320   1.006   2.062   0.878
  434SOL    HW2 1321   1.012   2.022   1.036
  435SOL     OW 1322   1.709   2.247   1.381
  435SOL    HW1 1323   1.782   2.316   1.385
  435SOL    HW2 1324   1.737   2.172   1.322
  436SOL     OW 1325   0.105   2.875   1.726
  436SOL    HW1 1326   0.028   2.842   1.780
  436SOL    HW2 1327   0.190   2.845   1.768
  437SOL     OW 1328   0.672   2.065   1.489
  437SOL    HW1 1329   0.762   2.049   1.449
  437SOL    HW2 1330   0.680   2.070   1.588
  438SOL     OW 1331   0.075   2.207   0.033
  438SOL    HW1 1332  -0.017   2.179   0.004
  438SOL    HW2 1333   0.106   2.284  -0.023
  439SOL     OW 1334   1.440   2.718   1.398
  439SOL    HW1 1335   1.383   2.770   1.335
  439SOL    HW2 1336   1.536   2.730   1.374
  440SOL     OW 1337   0.072   2.028   0.318
  440SOL    HW1 1338   0.055   2.111   0.264
  440SOL    HW2 1339   0.162   1.991   0.296
  441SOL     OW 1340   1.183   3.197   0.119
  441SOL    HW1 1341   1.084   3.186   0.121
  441SOL    HW2 1342   1.217   3.212   0.212
  442SOL     OW 1343   0.613   2.704   1.431
  442SOL    HW1 1344   0.669   2.785   1.414
  442SOL    HW2 1345   0.672   2.624   1.434
  443SOL     OW 1346   0.716   2.427   1.708
  443SOL    HW1 1347   0.735   2.492   1.782
  443SOL    HW2 1348   0.776   2.347   1.717
  444SOL     OW 1349   1.674   2.745   1.254
  444SOL    HW1 1350   1.647   2.656   1.217
  444SOL    HW2 1351   1.675   2.813   1.181
  445SOL     OW 1352   1.225   2.187   0.449
  445SOL    HW1 1353   1.290   2.113   0.438
  445SOL    HW2 1354   1.245   2.237   0.533
  446SOL     OW 1355   0.594   2.607   0.652
  446SOL    HW1 1356   0.644   2.692   0.633
  446SOL    HW2 1357   0.506   2.609   0.604
  447SOL     OW 1358   1.777   2.204   1.642
  447SOL    HW1 1359   1.760   2.235   1.548
  447SOL    HW2 1360   1.693   2.167   1.680
  448SOL     OW 1361   1.730   2.796   1.517
  448SOL    HW1 1362   1.768   2.887   1.532
  448SOL    HW2 1363   1.722   2.779   1.418
  449SOL     OW 1364   0.859   2.818   0.861
  449SOL    HW1 1365   0.913   2.749   0.909
  449SOL    HW2 1366   0.827   2.887   0.927
  450SOL     OW 1367   1.083   2.846   0.087
  450SOL    HW1 1368   1.060   2.899   0.005
  450SOL    HW2 1369   1.164   2.790   0.068
  451SOL     OW 1370   1.824   2.054   1.227
  451SOL    HW1 1371   1.820   1.964   1.271
  451SOL    HW2 1372   1.827   2.043   1.128
  452SOL     OW 1373   0.428   2.286   0.520
  452SOL    HW1 1374   0.458   2.214   0.458
  452SOL    HW2 1375   0.389   2.246   0.603
  453SOL     OW 1376   0.317   2.409   1.280
  453SOL    HW1 1377   0.355   2.350   1.352
  453SOL    HW2 1378   0.357   2.383   1.192
  454SOL     OW 1379   1.424   2.076   1.112
  454SOL    HW1 1380   1.476   2.011   1.167
  454SOL    HW2 1381   1.375   2.139   1.173
  455SOL     OW 1382   1.001   1.896   1.154
  455SOL    HW1 1383   0.938   1.824   1.123
  455SOL    HW2 1384   1.094   1.860   1.154
  456SOL     OW 1385   1.352   1.914   0.168
  456SOL    HW1 1386   1.387   1.873   0.084
  456SOL    HW2 1387   1.262   1.876   0.188
  457SOL     OW 1388   1.300   2.315   0.691
  457SOL    HW1 1389   1.241   2.395   0.695
  457SOL    HW2 1390   1.315   2.280   0.784
  458SOL     OW 1391   1.593   2.083   0.882
  458SOL    HW1 1392   1.509   2.082   0.936
  458SOL    HW2 1393   1.595   2.166   0.826
  459SOL     OW 1394   0.039   2.939   0.300
  459SOL    HW1 1395   0.138   2.928   0.291
  459SOL    HW2 1396  -0.001   2.853   0.332
  460SOL     OW 1397   0.230   2.490   1.975
  460SOL    HW1 1398   0.137   2.488   2.012
  460SOL    HW2 1399   0.231   2.451   1.883
  461SOL     OW 1400   0.225   2.137   2.858
  461SOL    HW1 1401   0.260   2.120   2.950
  461SOL    HW2 1402   0.137   2.092   2.846
  462SOL     OW 1403   0.019   2.230   2.509
  462SOL    HW1 1404  -0.063   2.273   2.548
  462SOL    HW2 1405  -0.009   2.157   2.446
  463SOL     OW 1406   1.135   2.565   2.579
  463SOL    HW1 1407   1.192   2.643   2.554
  463SOL    HW2 1408   1.075   2.591   2.655
  464SOL     OW 1409   1.755   2.469   2.093
  464SOL    HW1 1410   1.743   2.456   1.994
  464SOL    HW2 1411   1.725   2.388   2.142
  465SOL     OW 1412   0.768   3.006   2.885
  465SOL    HW1 1413   0.690   3.023   2.945
  465SOL    HW2 1414   0.802   3.093   2.849
  466SOL     OW 1415   0.685   2.874   2.527
  466SOL    HW1 1416   0.754   2.858   2.597
  466SOL    HW2 1417   0.612   2.931   2.565
  467SOL     OW 1418   1.603   2.309   2.599
  467SOL    HW1 1419   1.529   2.355   2.549
  467SOL    HW2 1420   1.654   2.377   2.652
  468SOL     OW 1421   0.230   3.296   2.400
  468SOL    HW1 1422   0.204   3.392   2.400
  468SOL    HW2 1423   0.159   3.242   2.445
  469SOL     OW 1424   0.240   2.953   2.748
  469SOL    HW1 1425   0.254   2.869   2.800
  469SOL    HW2 1426   0.185   3.017   2.803
  470SOL     OW 1427   0.606   2.826   1.985
  470SOL    HW1 1428   0.613   2.910   1.931
  470SOL    HW2 1429   0.652   2.839   2.073
  471SOL     OW 1430   0.122   2.505   2.425
  471SOL    HW1 1431   0.077   2.417   2.442
  471SOL    HW2 1432   0.121   2.559   2.509
  472SOL     OW 1433   1.689   2.784   2.474
  472SOL    HW1 1434   1.784   2.755   2.482
  472SOL    HW2 1435   1.681   2.849   2.399
  473SOL     OW 1436   0.613   3.227   2.588
  473SOL    HW1 1437   0.564   3.140   2.597
  473SOL    HW2 1438   0.590   3.270   2.501
  474SOL     OW 1439   0.809   1.866   2.364
  474SOL    HW1 1440   0.849   1.957   2.355
  474SOL    HW2 1441   0.709   1.874   2.370
  475SOL     OW 1442   0.197   2.838   3.126
  475SOL    HW1 1443   0.286   2.793   3.112
  475SOL    HW2 1444   0.124   2.773   3.107
  476SOL     OW 1445   1.525   2.861   2.052
  476SOL    HW1 1446   1.462   2.785   2.065
  476SOL    HW2 1447   1.573   2.879   2.138
  477SOL     OW 1448   0.598   2.591   2.132
  477SOL    HW1 1449   0.622   2.660   2.064
  477SOL    HW2 1450   0.520   2.624   2.186
  478SOL     OW 1451   1.281   2.207   2.806
  478SOL    HW1 1452   1.195   2.157   2.793
  478SOL    HW2 1453   1.343   2.153   2.862
  479SOL     OW 1454   1.041   2.563   2.291
  479SOL    HW1 1455   1.067   2.559   2.387
  479SOL    HW2 1456   0.956   2.512   2.277
  480SOL     OW 1457   0.076   2.673   2.651
  480SOL    HW1 1458   0.175   2.661   2.660
  480SOL    HW2 1459   0.052   2.768   2.672
  481SOL     OW 1460   0.865   2.210   2.057
  481SOL    HW1 1461   0.924   2.273   2.008
  481SOL    HW2 1462   0.884   2.116   2.028
  482SOL     OW 1463   0.550   2.058   2.747
  482SOL    HW1 1464   0.545   2.053   2.847
  482SOL    HW2 1465   0.552   2.154   2.718
  483SOL     OW 1466   1.795   2.928   2.735
  483SOL    HW1 1467   1.733   2.913   2.659
  483SOL    HW2 1468   1.743   2.939   2.820
  484SOL     OW 1469   1.458   2.597   2.590
  484SOL    HW1 1470   1.453   2.532   2.665
  484SOL    HW2 1471   1.538   2.656   2.603
  485SOL     OW 1472   1.400   1.969   2.288
  485SOL    HW1 1473   1.376   1.932   2.198
  485SOL    HW2 1474   1.499   1.985   2.292
  486SOL     OW 1475   0.382   2.562   2.342
  486SOL    HW1 1476   0.427   2.472   2.339
  486SOL    HW2 1477   0.288   2.551   2.375
  487SOL     OW 1478   0.614   1.984   1.979
  487SOL    HW1 1479   0.712   1.962   1.986
  487SOL    HW2 1480   0.583   1.967   1.886
  488SOL     OW 1481   0.922   2.365   2.761
  488SOL    HW1 1482   0.897   2.356   2.665
  488SOL    HW2 1483   0.970   2.283   2.792
  489SOL     OW 1484   0.539   1.926   2.374
  489SOL    HW1 1485   0.458   1.927   2.432
  489SOL    HW2 1486   0.542   2.009   2.319
  490SOL     OW 1487   0.297   1.897   2.033
  490SOL    HW1 1488   0.346   1.981   2.012
  490SOL    HW2 1489   0.359   1.832   2.078
  491SOL     OW 1490   0.935   2.098   2.342
  491SOL    HW1 1491   0.887   2.139   2.264
  491SOL    HW2 1492   1.034   2.096   2.323
  492SOL     OW 1493   1.032   2.411   1.878
  492SOL    HW1 1494   0.991   2.493   1.839
  492SOL    HW2 1495   1.096   2.437   1.951
  493SOL     OW 1496   0.866   2.316   2.504
  493SOL    HW1 1497   0.834   2.388   2.442
  493SOL    HW2 1498   0.890   2.235   2.451
  494SOL     OW 1499   1.017   1.901   2.615
  494SOL    HW1 1500   0.945   1.906   2.546
  494SOL    HW2 1501   0.993   1.832   2.684
  495SOL     OW 1502   1.429   3.035   2.729
  495SOL    HW1 1503   1.374   2.951   2.722
  495SOL    HW2 1504   1.455   3.064   2.637
  496SOL     OW 1505   1.466   2.452   2.854
  496SOL    HW1 1506   1.436   2.357   2.861
  496SOL    HW2 1507   1.539   2.468   2.920
  497SOL     OW 1508   1.857   2.695   2.239
  497SOL    HW1 1509   1.899   2.631   2.303
  497SOL    HW2 1510   1.819   2.644   2.161
  498SOL     OW 1511   1.390   2.437   1.940
  498SOL    HW1 1512   1.336   2.416   2.021
  498SOL    HW2 1513   1.481   2.396   1.949
  499SOL     OW 1514   0.527   2.118   2.190
  499SOL    HW1 1515   0.554   2.059   2.115
  499SOL    HW2 1516   0.527   2.213   2.159
  500SOL     OW 1517   1.638   2.961   2.941
  500SOL    HW1 1518   1.643   3.042   3.000
  500SOL    HW2 1519   1.552   2.963   2.890
  501SOL     OW 1520   0.566   2.399   2.727
  501SOL    HW1 1521   0.578   2.465   2.653
  501SOL    HW2 1522   0.612   2.433   2.810
  502SOL     OW 1523   1.582   2.501   2.334
  502SOL    HW1 1524   1.551   2.562   2.407
  502SOL    HW2 1525   1.632   2.553   2.265
  503SOL     OW 1526   0.573   2.732   2.891
  503SOL    HW1 1527   0.617   2.821   2.882
  503SOL    HW2 1528   0.510   2.732   2.968
  504SOL     OW 1529   1.209   2.387   2.137
  504SOL    HW1 1530   1.222   2.303   2.191
  504SOL    HW2 1531   1.180   2.461   2.197
  505SOL     OW 1532   0.307   2.075   3.093
  505SOL    HW1 1533   0.284   2.112   3.183
  505SOL    HW2 1534   0.277   1.980   3.087
  506SOL     OW 1535   0.732   2.496   2.926
  506SOL    HW1 1536   0.791   2.470   2.850
  506SOL    HW2 1537   0.704   2.592   2.915
  507SOL     OW 1538   0.307   1.925   2.480
  507SOL    HW1 1539   0.296   2.019   2.513
  507SOL    HW2 1540   0.302   1.862   2.557
  508SOL     OW 1541   1.622   2.229   2.236
  508SOL    HW1 1542   1.624   2.153   2.300
  508SOL    HW2 1543   1.574   2.306   2.276
  509SOL     OW 1544   1.023   2.628   2.828
  509SOL    HW1 1545   1.038   2.649   2.924
  509SOL    HW2 1546   0.993   2.533   2.819
  510SOL     OW 1547   1.540   2.136   1.987
  510SOL    HW1 1548   1.479   2.061   2.010
  510SOL    HW2 1549   1.562   2.188   2.070
  511SOL     OW 1550   1.303   2.700   1.904
  511SOL    HW1 1551   1.337   2.607   1.919
  511SOL    HW2 1552   1.321   2.727   1.809
  512SOL     OW 1553   0.319   2.672   2.811
  512SOL    HW1 1554   0.412   2.708   2.816
  512SOL    HW2 1555   0.313   2.587   2.863
  513SOL     OW 1556   0.339   2.371   2.868
  513SOL    HW1 1557   0.287   2.288   2.851
  513SOL    HW2 1558   0.416   2.376   2.804
  514SOL     OW 1559   1.002   2.658   3.100
  514SOL    HW1 1560   1.043   2.626   3.186
  514SOL    HW2 1561   0.906   2.631   3.097
  515SOL     OW 1562   0.815   2.434   2.187
  515SOL    HW1 1563   0.822   2.345   2.141
  515SOL    HW2 1564   0.721   2.468   2.179
  516SOL     OW 1565   0.671   2.326   3.131
  516SOL    HW1 1566   0.637   2.237   3.101
  516SOL    HW2 1567   0.697   2.380   3.051
  517SOL     OW 1568   0.473   2.362   2.053
  517SOL    HW1 1569   0.534   2.442   2.057
  517SOL    HW2 1570   0.378   2.393   2.060
  518SOL     OW 1571   1.302   2.717   2.171
  518SOL    HW1 1572   1.216   2.686   2.213
  518SOL    HW2 1573   1.298   2.703   2.072
  519SOL     OW 1574   1.726   1.997   2.385
  519SOL    HW1 1575   1.799   1.980   2.318
  519SOL    HW2 1576   1.695   1.910   2.423
  520SOL     OW 1577   1.280   2.789   2.534
  520SOL    HW1 1578   1.340   2.708   2.536
  520SOL    HW2 1579   1.320   2.858   2.474
  521SOL     OW 1580   1.841   2.037   2.825
  521SOL    HW1 1581   1.880   1.952   2.789
  521SOL    HW2 1582   1.743   2.039   2.806
  522SOL     OW 1583   0.263   2.188   2.582
  522SOL    HW1 1584   0.184   2.239   2.548
  522SOL    HW2 1585   0.254   2.173   2.680
  523SOL     OW 1586   0.916   2.772   2.153
  523SOL    HW1 1587   0.979   2.810   2.085
  523SOL    HW2 1588   0.956   2.689   2.192
  524SOL     OW 1589   1.014   2.098   2.833
  524SOL    HW1 1590   1.006   2.062   2.740
  524SOL    HW2 1591   1.012   2.022   2.898
  525SOL     OW 1592   0.075   2.207   1.895
  525SOL    HW1 1593  -0.017   2.179   1.866
  525SOL    HW2 1594   0.106   2.284   1.839
  526SOL     OW 1595   0.072   2.028   2.180
  526SOL    HW1 1596   0.055   2.111   2.126
  526SOL    HW2 1597   0.162   1.991   2.158
  527SOL     OW 1598   1.183   3.197   1.981
  527SOL    HW1 1599   1.084   3.186   1.983
  527SOL    HW2 1600   1.217   3.212   2.074
  528SOL     OW 1601   1.674   2.745   3.116
  528SOL    HW1 1602   1.647   2.656   3.079
  528SOL    HW2 1603   1.675   2.813   3.043
  529SOL     OW 1604   1.225   2.187   2.311
  529SOL    HW1 1605   1.290   2.113   2.300
  529SOL    HW2 1606   1.245   2.237   2.395
  530SOL     OW 1607   0.594   2.607   2.514
  530SOL    HW1 1608   0.644   2.692   2.495
  530SOL    HW2 1609   0.506   2.609   2.466
  531SOL     OW 1610   0.859   2.818   2.723
  531SOL    HW1 1611   0.913   2.749   2.771
  531SOL    HW2 1612   0.827   2.887   2.789
  532SOL     OW 1613   1.083   2.846   1.949
  532SOL    HW1 1614   1.060   2.899   1.867
  532SOL    HW2 1615   1.164   2.790   1.930
  533SOL     OW 1616   1.824   2.054   3.089
  533SOL    HW1 1617   1.820   1.964   3.133
  533SOL    HW2 1618   1.827   2.043   2.990
  534SOL     OW 1619   0.428   2.286   2.382
  534SOL    HW1 1620   0.458   2.214   2.320
  534SOL    HW2 1621   0.389   2.246   2.465
  535SOL     OW 1622   1.352   1.914   2.030
  535SOL    HW1 1623   1.387   1.873   1.946
  535SOL    HW2 1624   1.262   1.876   2.050
  536SOL     OW 1625   1.300   2.315   2.553
  536SOL    HW1 1626   1.241   2.395   2.557
  536SOL    HW2 1627   1.315   2.280   2.646
  537SOL     OW 1628   1.593   2.083   2.744
  537SOL    HW1 1629   1.509   2.082   2.798
  537SOL    HW2 1630   1.595   2.166   2.688
  538SOL     OW 1631   0.039   2.939   2.162
  538SOL    HW1 1632   0.138   2.928   2.153
  538SOL    HW2 1633  -0.001   2.853   2.194
  539SOL     OW 1634   2.092   0.628   0.113
  539SOL    HW1 1635   1.999   0.626   0.150
  539SOL    HW2 1636   2.093   0.589   0.021
  540SOL     OW 1637   2.087   0.275   0.996
  540SOL    HW1 1638   2.122   0.258   1.088
  540SOL    HW2 1639   1.999   0.230   0.984
  541SOL     OW 1640   1.881   0.368   0.647
  541SOL    HW1 1641   1.799   0.411   0.686
  541SOL    HW2 1642   1.853   0.295   0.584
  542SOL     OW 1643   2.431   1.275   1.165
  542SOL    HW1 1644   2.338   1.268   1.128
  542SOL    HW2 1645   2.442   1.364   1.209
  543SOL     OW 1646   2.630   1.144   1.023
  543SOL    HW1 1647   2.552   1.161   1.083
  543SOL    HW2 1648   2.664   1.231   0.987
  544SOL     OW 1649   2.712   0.798   1.823
  544SOL    HW1 1650   2.708   0.874   1.888
  544SOL    HW2 1651   2.734   0.834   1.732
  545SOL     OW 1652   2.547   1.012   0.665
  545SOL    HW1 1653   2.616   0.996   0.735
  545SOL    HW2 1654   2.474   1.069   0.703
  546SOL     OW 1655   2.548   1.161   1.803
  546SOL    HW1 1656   2.608   1.240   1.817
  546SOL    HW2 1657   2.462   1.192   1.762
  547SOL     OW 1658   2.197   1.435   1.061
  547SOL    HW1 1659   2.119   1.404   1.008
  547SOL    HW2 1660   2.255   1.493   1.004
  548SOL     OW 1661   2.300   0.392   1.499
  548SOL    HW1 1662   2.382   0.336   1.508
  548SOL    HW2 1663   2.219   0.334   1.503
  549SOL     OW 1664   2.093   1.713   0.483
  549SOL    HW1 1665   2.127   1.790   0.537
  549SOL    HW2 1666   2.137   1.713   0.393
  550SOL     OW 1667   2.989   1.341   1.690
  550SOL    HW1 1668   3.036   1.341   1.778
  550SOL    HW2 1669   2.941   1.254   1.679
  551SOL     OW 1670   2.092   1.434   0.538
  551SOL    HW1 1671   2.066   1.530   0.538
  551SOL    HW2 1672   2.021   1.380   0.583
  552SOL     OW 1673   2.102   1.091   0.886
  552SOL    HW1 1674   2.116   1.007   0.938
  552SOL    HW2 1675   2.047   1.155   0.941
  553SOL     OW 1676   2.482   1.786   1.439
  553SOL    HW1 1677   2.390   1.769   1.474
  553SOL    HW2 1678   2.510   1.878   1.465
  554SOL     OW 1679   2.468   0.964   0.123
  554SOL    HW1 1680   2.475   1.048   0.069
  554SOL    HW2 1681   2.514   0.977   0.211
  555SOL     OW 1682   1.984   0.643   0.563
  555SOL    HW1 1683   1.939   0.555   0.580
  555SOL    HW2 1684   1.983   0.697   0.647
  556SOL     OW 1685   1.889   1.596   0.117
  556SOL    HW1 1686   1.870   1.500   0.138
  556SOL    HW2 1687   1.856   1.654   0.192
  557SOL     OW 1688   1.975   0.737   1.597
  557SOL    HW1 1689   2.063   0.724   1.642
  557SOL    HW2 1690   1.962   0.834   1.575
  558SOL     OW 1691   2.475   1.365   0.726
  558SOL    HW1 1692   2.426   1.278   0.735
  558SOL    HW2 1693   2.452   1.408   0.639
  559SOL     OW 1694   2.671   0.004   0.502
  559SOL    HW1 1695   2.711   0.095   0.493
  559SOL    HW2 1696   2.571   0.012   0.508
  560SOL     OW 1697   2.059   0.976   1.264
  560SOL    HW1 1698   2.148   0.931   1.250
  560SOL    HW2 1699   1.986   0.911   1.245
  561SOL     OW 1700   2.179   0.251   1.801
  561SOL    HW1 1701   2.250   0.322   1.807
  561SOL    HW2 1702   2.091   0.290   1.829
  562SOL     OW 1703   2.460   0.729   0.270
  562SOL    HW1 1704   2.484   0.798   0.202
  562SOL    HW2 1705   2.382   0.762   0.324
  563SOL     OW 1706   2.669   0.605   1.465
  563SOL    HW1 1707   2.622   0.602   1.554
  563SOL    HW2 1708   2.618   0.550   1.399
  564SOL     OW 1709   2.835   0.890   1.572
  564SOL    HW1 1710   2.881   0.806   1.543
  564SOL    HW2 1711   2.779   0.924   1.497
  565SOL     OW 1712   2.853   0.410   1.242
  565SOL    HW1 1713   2.776   0.444   1.296
  565SOL    HW2 1714   2.819   0.359   1.163
  566SOL     OW 1715   2.903   0.701   0.429
  566SOL    HW1 1716   2.929   0.697   0.525
  566SOL    HW2 1717   2.818   0.650   0.415
  567SOL     OW 1718   1.938   0.811   0.789
  567SOL    HW1 1719   2.037   0.799   0.798
  567SOL    HW2 1720   1.914   0.906   0.810
  568SOL     OW 1721   1.992   1.821   1.571
  568SOL    HW1 1722   1.982   1.806   1.670
  568SOL    HW2 1723   1.906   1.857   1.535
  569SOL     OW 1724   2.727   0.348   0.195
  569SOL    HW1 1725   2.786   0.411   0.146
  569SOL    HW2 1726   2.746   0.254   0.166
  570SOL     OW 1727   2.412   0.196   0.885
  570SOL    HW1 1728   2.407   0.191   0.985
  570SOL    HW2 1729   2.414   0.292   0.856
  571SOL     OW 1730   2.870   1.456   0.477
  571SOL    HW1 1731   2.824   1.528   0.425
  571SOL    HW2 1732   2.866   1.476   0.575
  572SOL     OW 1733   2.213   1.801   0.853
  572SOL    HW1 1734   2.263   1.715   0.859
  572SOL    HW2 1735   2.278   1.878   0.850
  573SOL     OW 1736   2.183   0.943   0.242
  573SOL    HW1 1737   2.265   0.982   0.200
  573SOL    HW2 1738   2.156   0.861   0.193
  574SOL     OW 1739   2.323   1.266   1.727
  574SOL    HW1 1740   2.273   1.267   1.641
  574SOL    HW2 1741   2.260   1.248   1.803
  575SOL     OW 1742   2.064   0.285   1.498
  575SOL    HW1 1743   1.984   0.345   1.485
  575SOL    HW2 1744   2.054   0.236   1.584
  576SOL     OW 1745   2.326   1.743   0.323
  576SOL    HW1 1746   2.359   1.782   0.409
  576SOL    HW2 1747   2.402   1.736   0.258
  577SOL     OW 1748   2.111   1.785   1.241
  577SOL    HW1 1749   2.168   1.720   1.291
  577SOL    HW2 1750   2.095   1.752   1.148
  578SOL     OW 1751   2.802   1.698   0.904
  578SOL    HW1 1752   2.882   1.641   0.925
  578SOL    HW2 1753   2.753   1.658   0.827
  579SOL     OW 1754   2.244   0.700   0.480
  579SOL    HW1 1755   2.289   0.610   0.477
  579SOL    HW2 1756   2.150   0.689   0.513
  580SOL     OW 1757   2.476   0.122   0.117
  580SOL    HW1 1758   2.574   0.100   0.124
  580SOL    HW2 1759   2.445   0.105   0.024
  581SOL     OW 1760   2.643   0.264   1.749
  581SOL    HW1 1761   2.710   0.203   1.792
  581SOL    HW2 1762   2.570   0.283   1.814
  582SOL     OW 1763   2.750   1.514   1.195
  582SOL    HW1 1764   2.727   1.489   1.101
  582SOL    HW2 1765   2.811   1.445   1.234
  583SOL     OW 1766   2.665   1.402   0.924
  583SOL    HW1 1767   2.755   1.416   0.882
  583SOL    HW2 1768   2.594   1.404   0.853
  584SOL     OW 1769   2.784   0.503   0.899
  584SOL    HW1 1770   2.759   0.494   0.803
  584SOL    HW2 1771   2.832   0.421   0.930
  585SOL     OW 1772   2.401   0.064   0.512
  585SOL    HW1 1773   2.320   0.065   0.570
  585SOL    HW2 1774   2.404   0.147   0.457
  586SOL     OW 1775   3.296   1.188   0.041
  586SOL    HW1 1776   3.328   1.112   0.098
  586SOL    HW2 1777   3.204   1.215   0.071
  587SOL     OW 1778   2.159   0.035   0.171
  587SOL    HW1 1779   2.208   0.119   0.150
  587SOL    HW2 1780   2.221  -0.030   0.216
  588SOL     OW 1781   2.797   0.236   0.480
  588SOL    HW1 1782   2.749   0.277   0.402
  588SOL    HW2 1783   2.896   0.234   0.461
  589SOL     OW 1784   3.089   1.570   0.793
  589SOL    HW1 1785   3.110   1.644   0.728
  589SOL    HW2 1786   3.157   1.570   0.866
  590SOL     OW 1787   2.321   1.152   0.741
  590SOL    HW1 1788   2.250   1.125   0.806
  590SOL    HW2 1789   2.295   1.124   0.648
  591SOL     OW 1790   2.894   0.549   0.016
  591SOL    HW1 1791   2.853   0.631  -0.023
  591SOL    HW2 1792   2.958   0.575   0.089
  592SOL     OW 1793   1.940   0.556   1.386
  592SOL    HW1 1794   2.032   0.555   1.345
  592SOL    HW2 1795   1.934   0.630   1.453
  593SOL     OW 1796   2.423   0.222   1.147
  593SOL    HW1 1797   2.461   0.138   1.184
  593SOL    HW2 1798   2.335   0.241   1.191
  594SOL     OW 1799   2.728   0.454   0.642
  594SOL    HW1 1800   2.696   0.526   0.580
  594SOL    HW2 1801   2.752   0.373   0.589
  595SOL     OW 1802   2.879   0.039   0.753
  595SOL    HW1 1803   2.807   0.044   0.684
  595SOL    HW2 1804   2.855  -0.030   0.822
  596SOL     OW 1805   2.350   1.385   0.174
  596SOL    HW1 1806   2.263   1.370   0.221
  596SOL    HW2 1807   2.333   1.411   0.079
  597SOL     OW 1808   2.389   0.256   0.328
  597SOL    HW1 1809   2.416   0.197   0.253
  597SOL    HW2 1810   2.389   0.351   0.297
  598SOL     OW 1811   2.777   0.089   1.402
  598SOL    HW1 1812   2.802   0.069   1.307
  598SOL    HW2 1813   2.849   0.145   1.444
  599SOL     OW 1814   2.842   1.116   1.719
  599SOL    HW1 1815   2.743   1.122   1.729
  599SOL    HW2 1816   2.865   1.036   1.663
  600SOL     OW 1817   2.567   1.050   0.368
  600SOL    HW1 1818   2.553   1.057   0.467
  600SOL    HW2 1819   2.651   0.999   0.350
  601SOL     OW 1820   2.272   0.813   1.251
  601SOL    HW1 1821   2.358   0.825   1.301
  601SOL    HW2 1822   2.230   0.726   1.278
  602SOL     OW 1823   2.229   1.100   0.501
  602SOL    HW1 1824   2.222   1.183   0.445
  602SOL    HW2 1825   2.233   1.020   0.441
  603SOL     OW 1826   2.428   0.537   0.865
  603SOL    HW1 1827   2.440   0.603   0.791
  603SOL    HW2 1828   2.474   0.571   0.948
  604SOL     OW 1829   2.216   1.510   1.329
  604SOL    HW1 1830   2.195   1.466   1.242
  604SOL    HW2 1831   2.313   1.536   1.332
  605SOL     OW 1832   2.264   0.751   1.598
  605SOL    HW1 1833   2.332   0.806   1.551
  605SOL    HW2 1834   2.304   0.663   1.625
  606SOL     OW 1835   2.875   0.105   1.770
  606SOL    HW1 1836   2.881   0.190   1.718
  606SOL    HW2 1837   2.907   0.029   1.713
  607SOL     OW 1838   2.366   0.050   1.740
  607SOL    HW1 1839   2.324  -0.007   1.670
  607SOL    HW2 1840   2.300   0.119   1.772
  608SOL     OW 1841   2.435   0.870   1.029
  608SOL    HW1 1842   2.479   0.959   1.020
  608SOL    HW2 1843   2.372   0.870   1.106
  609SOL     OW 1844   3.071   0.525   0.275
  609SOL    HW1 1845   3.084   0.441   0.329
  609SOL    HW2 1846   3.042   0.599   0.335
  610SOL     OW 1847   2.169   0.213   1.231
  610SOL    HW1 1848   2.146   0.250   1.321
  610SOL    HW2 1849   2.139   0.118   1.225
  611SOL     OW 1850   1.899   1.310   1.282
  611SOL    HW1 1851   1.952   1.261   1.350
  611SOL    HW2 1852   1.921   1.408   1.287
  612SOL     OW 1853   2.594   0.634   1.064
  612SOL    HW1 1854   2.653   0.608   0.988
  612SOL    HW2 1855   2.566   0.730   1.053
  613SOL     OW 1856   2.169   0.063   0.618
  613SOL    HW1 1857   2.158   0.157   0.651
  613SOL    HW2 1858   2.164   0.000   0.695
  614SOL     OW 1859   2.885   0.766   0.966
  614SOL    HW1 1860   2.900   0.787   1.062
  614SOL    HW2 1861   2.855   0.671   0.957
  615SOL     OW 1862   2.842   1.573   1.700
  615SOL    HW1 1863   2.822   1.617   1.612
  615SOL    HW2 1864   2.881   1.482   1.684
  616SOL     OW 1865   2.212   0.898   1.804
  616SOL    HW1 1866   2.288   0.942   1.852
  616SOL    HW2 1867   2.247   0.851   1.722
  617SOL     OW 1868   2.930   1.333   0.849
  617SOL    HW1 1869   2.937   1.249   0.794
  617SOL    HW2 1870   2.992   1.402   0.813
  618SOL     OW 1871   2.181   0.810   0.949
  618SOL    HW1 1872   2.274   0.846   0.954
  618SOL    HW2 1873   2.175   0.725   1.001
  619SOL     OW 1874   2.201   0.509   1.006
  619SOL    HW1 1875   2.149   0.426   0.989
  619SOL    HW2 1876   2.278   0.514   0.942
  620SOL     OW 1877   3.000   0.380   1.678
  620SOL    HW1 1878   2.955   0.443   1.742
  620SOL    HW2 1879   3.093   0.411   1.661
  621SOL     OW 1880   1.870   1.326   0.200
  621SOL    HW1 1881   1.777   1.347   0.169
  621SOL    HW2 1882   1.880   1.227   0.213
  622SOL     OW 1883   1.950   1.801   0.927
  622SOL    HW1 1884   1.908   1.715   0.900
  622SOL    HW2 1885   2.044   1.804   0.893
  623SOL     OW 1886   2.366   1.568   0.910
  623SOL    HW1 1887   2.432   1.642   0.919
  623SOL    HW2 1888   2.410   1.489   0.868
  624SOL     OW 1889   2.864   0.796   1.238
  624SOL    HW1 1890   2.905   0.764   1.324
  624SOL    HW2 1891   2.768   0.769   1.235
  625SOL     OW 1892   1.902   0.544   1.114
  625SOL    HW1 1893   1.987   0.511   1.073
  625SOL    HW2 1894   1.915   0.559   1.212
  626SOL     OW 1895   2.051   0.520   1.722
  626SOL    HW1 1896   2.110   0.480   1.652
  626SOL    HW2 1897   1.993   0.591   1.681
  627SOL     OW 1898   2.677   0.572   0.325
  627SOL    HW1 1899   2.684   0.483   0.279
  627SOL    HW2 1900   2.583   0.606   0.317
  628SOL     OW 1901   2.114   1.564   1.744
  628SOL    HW1 1902   2.084   1.621   1.820
  628SOL    HW2 1903   2.107   1.467   1.770
  629SOL     OW 1904   2.533   0.464   1.269
  629SOL    HW1 1905   2.499   0.375   1.239
  629SOL    HW2 1906   2.559   0.518   1.189
  630SOL     OW 1907   2.792   1.678   1.465
  630SOL    HW1 1908   2.768   1.660   1.370
  630SOL    HW2 1909   2.822   1.772   1.475
  631SOL     OW 1910   2.335   0.500   0.191
  631SOL    HW1 1911   2.396   0.580   0.195
  631SOL    HW2 1912   2.240   0.531   0.198
  632SOL     OW 1913   2.021   1.137   1.466
  632SOL    HW1 1914   2.043   1.076   1.542
  632SOL    HW2 1915   2.031   1.088   1.380
  633SOL     OW 1916   1.945   1.258   1.022
  633SOL    HW1 1917   1.940   1.257   1.122
  633SOL    HW2 1918   1.862   1.217   0.984
  634SOL     OW 1919   2.550   1.662   1.716
  634SOL    HW1 1920   2.494   1.743   1.725
  634SOL    HW2 1921   2.602   1.666   1.630
  635SOL     OW 1922   2.765   0.086   0.133
  635SOL    HW1 1923   2.816   0.087   0.047
  635SOL    HW2 1924   2.821   0.044   0.204
  636SOL     OW 1925   1.992   1.794   1.851
  636SOL    HW1 1926   1.951   1.720   1.904
  636SOL    HW2 1927   2.056   1.845   1.909
  637SOL     OW 1928   2.692   1.273   1.422
  637SOL    HW1 1929   2.687   1.306   1.517
  637SOL    HW2 1930   2.606   1.292   1.376
  638SOL     OW 1931   2.534   1.616   0.154
  638SOL    HW1 1932   2.543   1.626   0.055
  638SOL    HW2 1933   2.494   1.527   0.175
  639SOL     OW 1934   2.125   0.326   0.720
  639SOL    HW1 1935   2.046   0.377   0.686
  639SOL    HW2 1936   2.116   0.311   0.818
  640SOL     OW 1937   2.684   1.002   1.372
  640SOL    HW1 1938   2.724   1.001   1.280
  640SOL    HW2 1939   2.694   1.094   1.412
  641SOL     OW 1940   2.778   0.910   0.291
  641SOL    HW1 1941   2.841   0.948   0.223
  641SOL    HW2 1942   2.818   0.827   0.330
  642SOL     OW 1943   2.234   1.288   1.490
  642SOL    HW1 1944   2.221   1.381   1.456
  642SOL    HW2 1945   2.150   1.236   1.477
  643SOL     OW 1946   2.901   1.098   0.696
  643SOL    HW1 1947   2.831   1.051   0.750
  643SOL    HW2 1948   2.960   1.030   0.653
  644SOL     OW 1949   2.876   0.236   0.971
  644SOL    HW1 1950   2.868   0.200   0.878
  644SOL    HW2 1951   2.874   0.160   1.036
  645SOL     OW 1952   2.452   1.487   0.491
  645SOL    HW1 1953   2.494   1.429   0.421
  645SOL    HW2 1954   2.408   1.566   0.447
  646SOL     OW 1955   2.117   1.348   0.290
  646SOL    HW1 1956   2.021   1.349   0.263
  646SOL    HW2 1957   2.129   1.401   0.374
  647SOL     OW 1958   1.967   1.013   1.726
  647SOL    HW1 1959   1.890   0.980   1.780
  647SOL    HW2 1960   2.052   0.983   1.768
  648SOL     OW 1961   2.534   0.203   1.489
  648SOL    HW1 1962   2.624   0.187   1.449
  648SOL    HW2 1963   2.542   0.208   1.588
  649SOL     OW 1964   1.934   0.166   0.318
  649SOL    HW1 1965   1.917   0.249   0.264
  649SOL    HW2 1966   2.024   0.129   0.296
  650SOL     OW 1967   2.475   0.842   1.431
  650SOL    HW1 1968   2.531   0.923   1.414
  650SOL    HW2 1969   2.534   0.762   1.434
  651SOL     OW 1970   2.578   0.565   1.708
  651SOL    HW1 1971   2.597   0.630   1.782
  651SOL    HW2 1972   2.638   0.485   1.717
  652SOL     OW 1973   2.252   1.741   1.560
  652SOL    HW1 1974   2.161   1.782   1.558
  652SOL    HW2 1975   2.245   1.647   1.592
  653SOL     OW 1976   2.456   0.745   0.652
  653SOL    HW1 1977   2.506   0.830   0.633
  653SOL    HW2 1978   2.368   0.747   0.604
  654SOL     OW 1979   2.721   1.374   0.016
  654SOL    HW1 1980   2.675   1.389   0.104
  654SOL    HW2 1981   2.765   1.459  -0.014
  655SOL     OW 1982   2.523   1.790   0.953
  655SOL    HW1 1983   2.477   1.878   0.940
  655SOL    HW2 1984   2.622   1.802   0.946
  656SOL     OW 1985   2.721   0.956   0.861
  656SOL    HW1 1986   2.775   0.887   0.909
  656SOL    HW2 1987   2.689   1.025   0.927
  657SOL     OW 1988   2.945   0.984   0.087
  657SOL    HW1 1989   2.922   1.037   0.005
  657SOL    HW2 1990   3.026   0.928   0.068
  658SOL     OW 1991   2.083   1.314   1.844
  658SOL    HW1 1992   2.018   1.241   1.823
  658SOL    HW2 1993   2.087   1.328   1.942
  659SOL     OW 1994   1.941   1.240   0.653
  659SOL    HW1 1995   1.940   1.193   0.741
  659SOL    HW2 1996   2.023   1.212   0.602
  660SOL     OW 1997   2.534   1.391   1.624
  660SOL    HW1 1998   2.456   1.341   1.662
  660SOL    HW2 1999   2.531   1.486   1.655
  661SOL     OW 2000   2.290   0.424   0.520
  661SOL    HW1 2001   2.320   0.352   0.458
  661SOL    HW2 2002   2.251   0.384   0.603
  662SOL     OW 2003   2.179   0.547   1.280
  662SOL    HW1 2004   2.217   0.488   1.352
  662SOL    HW2 2005   2.219   0.521   1.192
  663SOL     OW 2006   2.674   1.586   0.687
  663SOL    HW1 2007   2.706   1.596   0.593
  663SOL    HW2 2008   2.595   1.524   0.689
  664SOL     OW 2009   2.863   0.034   1.154
  664SOL    HW1 2010   2.800  -0.038   1.123
  664SOL    HW2 2011   2.956  -0.002   1.154
  665SOL     OW 2012   2.632   1.330   0.301
  665SOL    HW1 2013   2.586   1.243   0.318
  665SOL    HW2 2014   2.723   1.327   0.342
  666SOL     OW 2015   2.480   1.567   1.284
  666SOL    HW1 2016   2.475   1.649   1.341
  666SOL    HW2 2017   2.569   1.564   1.239
  667SOL     OW 2018   1.901   1.077   0.300
  667SOL    HW1 2019   2.000   1.066   0.291
  667SOL    HW2 2020   1.861   0.991   0.332
  668SOL     OW 2021   2.737   1.646   0.337
  668SOL    HW1 2022   2.660   1.611   0.283
  668SOL    HW2 2023   2.705   1.717   0.399
  669SOL     OW 2024   2.092   0.628   1.975
  669SOL    HW1 2025   1.999   0.626   2.012
  669SOL    HW2 2026   2.093   0.589   1.883
  670SOL     OW 2027   2.087   0.275   2.858
  670SOL    HW1 2028   2.122   0.258   2.950
  670SOL    HW2 2029   1.999   0.230   2.846
  671SOL     OW 2030   1.881   0.368   2.509
  671SOL    HW1 2031   1.799   0.411   2.548
  671SOL    HW2 2032   1.853   0.295   2.446
  672SOL     OW 2033   2.630   1.144   2.885
  672SOL    HW1 2034   2.552   1.161   2.945
  672SOL    HW2 2035   2.664   1.231   2.849
  673SOL     OW 2036   2.547   1.012   2.527
  673SOL    HW1 2037   2.616   0.996   2.597
  673SOL    HW2 2038   2.474   1.069   2.565
  674SOL     OW 2039   2.197   1.435   2.923
  674SOL    HW1 2040   2.119   1.404   2.870
  674SOL    HW2 2041   2.255   1.493   2.866
  675SOL     OW 2042   2.093   1.713   2.345
  675SOL    HW1 2043   2.127   1.790   2.399
  675SOL    HW2 2044   2.137   1.713   2.255
  676SOL     OW 2045   2.092   1.434   2.400
  676SOL    HW1 2046   2.066   1.530   2.400
  676SOL    HW2 2047   2.021   1.380   2.445
  677SOL     OW 2048   2.102   1.091   2.748
  677SOL    HW1 2049   2.116   1.007   2.800
  677SOL    HW2 2050   2.047   1.155   2.803
  678SOL     OW 2051   2.468   0.964   1.985
  678SOL    HW1 2052   2.475   1.048   1.931
  678SOL    HW2 2053   2.514   0.977   2.073
  679SOL     OW 2054   1.984   0.643   2.425
  679SOL    HW1 2055   1.939   0.555   2.442
  679SOL    HW2 2056   1.983   0.697   2.509
  680SOL     OW 2057   1.889   1.596   1.979
  680SOL    HW1 2058   1.870   1.500   2.000
  680SOL    HW2 2059   1.856   1.654   2.054
  681SOL     OW 2060   2.475   1.365   2.588
  681SOL    HW1 2061   2.426   1.278   2.597
  681SOL    HW2 2062   2.452   1.408   2.501
  682SOL     OW 2063   2.671   0.004   2.364
  682SOL    HW1 2064   2.711   0.095   2.355
  682SOL    HW2 2065   2.571   0.012   2.370
  683SOL     OW 2066   2.460   0.729   2.132
  683SOL    HW1 2067   2.484   0.798   2.064
  683SOL    HW2 2068   2.382   0.762   2.186
  684SOL     OW 2069   2.903   0.701   2.291
  684SOL    HW1 2070   2.929   0.697   2.387
  684SOL    HW2 2071   2.818   0.650   2.277
  685SOL     OW 2072   1.938   0.811   2.651
  685SOL    HW1 2073   2.037   0.799   2.660
  685SOL    HW2 2074   1.914   0.906   2.672
  686SOL     OW 2075   2.727   0.348   2.057
  686SOL    HW1 2076   2.786   0.411   2.008
  686SOL    HW2 2077   2.746   0.254   2.028
  687SOL     OW 2078   2.412   0.196   2.747
  687SOL    HW1 2079   2.407   0.191   2.847
  687SOL    HW2 2080   2.414   0.292   2.718
  688SOL     OW 2081   2.870   1.456   2.339
  688SOL    HW1 2082   2.824   1.528   2.287
  688SOL    HW2 2083   2.866   1.476   2.437
  689SOL     OW 2084   2.213   1.801   2.715
  689SOL    HW1 2085   2.263   1.715   2.721
  689SOL    HW2 2086   2.278   1.878   2.712
  690SOL     OW 2087   2.183   0.943   2.104
  690SOL    HW1 2088   2.265   0.982   2.062
  690SOL    HW2 2089   2.156   0.861   2.055
  691SOL     OW 2090   2.326   1.743   2.185
  691SOL    HW1 2091   2.359   1.782   2.271
  691SOL    HW2 2092   2.402   1.736   2.120
  692SOL     OW 2093   2.111   1.785   3.103
  692SOL    HW1 2094   2.168   1.720   3.153
  692SOL    HW2 2095   2.095   1.752   3.010
  693SOL     OW 2096   2.802   1.698   2.766
  693SOL    HW1 2097   2.882   1.641   2.787
  693SOL    HW2 2098   2.753   1.658   2.689
  694SOL     OW 2099   2.244   0.700   2.342
  694SOL    HW1 2100   2.289   0.610   2.339
  694SOL    HW2 2101   2.150   0.689   2.375
  695SOL     OW 2102   2.476   0.122   1.979
  695SOL    HW1 2103   2.574   0.100   1.986
  695SOL    HW2 2104   2.445   0.105   1.886
  696SOL     OW 2105   2.665   1.402   2.786
  696SOL    HW1 2106   2.755   1.416   2.744
  696SOL    HW2 2107   2.594   1.404   2.715
  697SOL     OW 2108   2.784   0.503   2.761
  697SOL    HW1 2109   2.759   0.494   2.665
  697SOL    HW2 2110   2.832   0.421   2.792
  698SOL     OW 2111   2.401   0.064   2.374
  698SOL    HW1 2112   2.320   0.065   2.432
  698SOL    HW2 2113   2.404   0.147   2.319
  699SOL     OW 2114   2.159   0.035   2.033
  699SOL    HW1 2115   2.208   0.119   2.012
  699SOL    HW2 2116   2.221  -0.030   2.078
  700SOL     OW 2117   2.797   0.236   2.342
  700SOL    HW1 2118   2.749   0.277   2.264
  700SOL    HW2 2119   2.896   0.234   2.323
  701SOL     OW 2120   3.089   1.570   2.655
  701SOL    HW1 2121   3.110   1.644   2.590
  701SOL    HW2 2122   3.157   1.570   2.728
  702SOL     OW 2123   2.321   1.152   2.603
  702SOL    HW1 2124   2.250   1.125   2.668
  702SOL    HW2 2125   2.295   1.124   2.510
  703SOL     OW 2126   2.894   0.549   1.878
  703SOL    HW1 2127   2.853   0.631   1.839
  703SOL    HW2 2128   2.958   0.575   1.951
  704SOL     OW 2129   2.728   0.454   2.504
  704SOL    HW1 2130   2.696   0.526   2.442
  704SOL    HW2 2131   2.752   0.373   2.451
  705SOL     OW 2132   2.879   0.039   2.615
  705SOL    HW1 2133   2.807   0.044   2.546
  705SOL    HW2 2134   2.855  -0.030   2.684
  706SOL     OW 2135   2.350   1.385   2.036
  706SOL    HW1 2136   2.263   1.370   2.083
  706SOL    HW2 2137   2.333   1.411   1.941
  707SOL     OW 2138   2.389   0.256   2.190
  707SOL    HW1 2139   2.416   0.197   2.115
  707SOL    HW2 2140   2.389   0.351   2.159
  708SOL     OW 2141   2.567   1.050   2.230
  708SOL    HW1 2142   2.553   1.057   2.329
  708SOL    HW2 2143   2.651   0.999   2.212
  709SOL     OW 2144   2.229   1.100   2.363
  709SOL    HW1 2145   2.222   1.183   2.307
  709SOL    HW2 2146   2.233   1.020   2.303
  710SOL     OW 2147   2.428   0.537   2.727
  710SOL    HW1 2148   2.440   0.603   2.653
  710SOL    HW2 2149   2.474   0.571   2.810
  711SOL     OW 2150   2.435   0.870   2.891
  711SOL    HW1 2151   2.479   0.959   2.882
  711SOL    HW2 2152   2.372   0.870   2.968
  712SOL     OW 2153   3.071   0.525   2.137
  712SOL    HW1 2154   3.084   0.441   2.191
  712SOL    HW2 2155   3.042   0.599   2.197
  713SOL     OW 2156   2.594   0.634   2.926
  713SOL    HW1 2157   2.653   0.608   2.850
  713SOL    HW2 2158   2.566   0.730   2.915
  714SOL     OW 2159   2.169   0.063   2.480
  714SOL    HW1 2160   2.158   0.157   2.513
  714SOL    HW2 2161   2.164   0.000   2.557
  715SOL     OW 2162   2.885   0.766   2.828
  715SOL    HW1 2163   2.900   0.787   2.924
  715SOL    HW2 2164   2.855   0.671   2.819
  716SOL     OW 2165   2.930   1.333   2.711
  716SOL    HW1 2166   2.937   1.249   2.656
  716SOL    HW2 2167   2.992   1.402   2.675
  717SOL     OW 2168   2.181   0.810   2.811
  717SOL    HW1 2169   2.274   0.846   2.816
  717SOL    HW2 2170   2.175   0.725   2.863
  718SOL     OW 2171   2.201   0.509   2.868
  718SOL    HW1 2172   2.149   0.426   2.851
  718SOL    HW2 2173   2.278   0.514   2.804
  719SOL     OW 2174   1.870   1.326   2.062
  719SOL    HW1 2175   1.777   1.347   2.031
  719SOL    HW2 2176   1.880   1.227   2.075
  720SOL     OW 2177   1.950   1.801   2.789
  720SOL    HW1 2178   1.908   1.715   2.762
  720SOL    HW2 2179   2.044   1.804   2.755
  721SOL     OW 2180   2.366   1.568   2.772
  721SOL    HW1 2181   2.432   1.642   2.781
  721SOL    HW2 2182   2.410   1.489   2.730
  722SOL     OW 2183   2.864   0.796   3.100
  722SOL    HW1 2184   2.905   0.764   3.186
  722SOL    HW2 2185   2.768   0.769   3.097
  723SOL     OW 2186   2.677   0.572   2.187
  723SOL    HW1 2187   2.684   0.483   2.141
  723SOL    HW2 2188   2.583   0.606   2.179
  724SOL     OW 2189   2.533   0.464   3.131
  724SOL    HW1 2190   2.499   0.375   3.101
  724SOL    HW2 2191   2.559   0.518   3.051
  725SOL     OW 2192   2.335   0.500   2.053
  725SOL    HW1 2193   2.396   0.580   2.057
  725SOL    HW2 2194   2.240   0.531   2.060
  726SOL     OW 2195   1.945   1.258   2.884
  726SOL    HW1 2196   1.940   1.257   2.984
  726SOL    HW2 2197   1.862   1.217   2.846
  727SOL     OW 2198   2.534   1.616   2.016
  727SOL    HW1 2199   2.543   1.626   1.917
  727SOL    HW2 2200   2.494   1.527   2.037
  728SOL     OW 2201   2.125   0.326   2.582
  728SOL    HW1 2202   2.046   0.377   2.548
  728SOL    HW2 2203   2.116   0.311   2.680
  729SOL     OW 2204   2.778   0.910   2.153
  729SOL    HW1 2205   2.841   0.948   2.085
  729SOL    HW2 2206   2.818   0.827   2.192
  730SOL     OW 2207   2.901   1.098   2.558
  730SOL    HW1 2208   2.831   1.051   2.612
  730SOL    HW2 2209   2.960   1.030   2.515
  731SOL     OW 2210   2.876   0.236   2.833
  731SOL    HW1 2211   2.868   0.200   2.740
  731SOL    HW2 2212   2.874   0.160   2.898
  732SOL     OW 2213   2.452   1.487   2.353
  732SOL    HW1 2214   2.494   1.429   2.283
  732SOL    HW2 2215   2.408   1.566   2.309
  733SOL     OW 2216   2.117   1.348   2.152
  733SOL    HW1 2217   2.021   1.349   2.125
  733SOL    HW2 2218   2.129   1.401   2.236
  734SOL     OW 2219   1.937   0.345   1.895
  734SOL    HW1 2220   1.845   0.317   1.866
  734SOL    HW2 2221   1.968   0.422   1.839
  735SOL     OW 2222   1.934   0.166   2.180
  735SOL    HW1 2223   1.917   0.249   2.126
  735SOL    HW2 2224   2.024   0.129   2.158
  736SOL     OW 2225   2.456   0.745   2.514
  736SOL    HW1 2226   2.506   0.830   2.495
  736SOL    HW2 2227   2.368   0.747   2.466
  737SOL     OW 2228   2.721   1.374   1.878
  737SOL    HW1 2229   2.675   1.389   1.966
  737SOL    HW2 2230   2.765   1.459   1.848
  738SOL     OW 2231   2.523   1.790   2.815
  738SOL    HW1 2232   2.477   1.878   2.802
  738SOL    HW2 2233   2.622   1.802   2.808
  739SOL     OW 2234   2.721   0.956   2.723
  739SOL    HW1 2235   2.775   0.887   2.771
  739SOL    HW2 2236   2.689   1.025   2.789
  740SOL     OW 2237   2.945   0.984   1.949
  740SOL    HW1 2238   2.922   1.037   1.867
  740SOL    HW2 2239   3.026   0.928   1.930
  741SOL     OW 2240   1.941   1.240   2.515
  741SOL    HW1 2241   1.940   1.193   2.603
  741SOL    HW2 2242   2.023   1.212   2.464
  742SOL     OW 2243   2.290   0.424   2.382
  742SOL    HW1 2244   2.320   0.352   2.320
  742SOL    HW2 2245   2.251   0.384   2.465
  743SOL     OW 2246   2.674   1.586   2.549
  743SOL    HW1 2247   2.706   1.596   2.455
  743SOL    HW2 2248   2.595   1.524   2.551
  744SOL     OW 2249   2.632   1.330   2.163
  744SOL    HW1 2250   2.586   1.243   2.180
  744SOL    HW2 2251   2.723   1.327   2.204
  745SOL     OW 2252   1.901   1.077   2.162
  745SOL    HW1 2253   2.000   1.066   2.153
  745SOL    HW2 2254   1.861   0.991   2.194
  746SOL     OW 2255   2.737   1.646   2.199
  746SOL    HW1 2256   2.660   1.611   2.145
  746SOL    HW2 2257   2.705   1.717   2.261
  747SOL     OW 2258   2.092   2.490   0.113
  747SOL    HW1 2259   1.999   2.488   0.150
  747SOL    HW2 2260   2.093   2.451   0.021
  748SOL     OW 2261   2.087   2.137   0.996
  748SOL    HW1 2262   2.122   2.120   1.088
  748SOL    HW2 2263   1.999   2.092   0.984
  749SOL     OW 2264   1.881   2.230   0.647
  749SOL    HW1 2265   1.799   2.273   0.686
  749SOL    HW2 2266   1.853   2.157   0.584
  750SOL     OW 2267   2.630   3.006   1.023
  750SOL    HW1 2268   2.552   3.023   1.083
  750SOL    HW2 2269   2.664   3.093   0.987
  751SOL     OW 2270   2.712   2.660   1.823
  751SOL    HW1 2271   2.708   2.736   1.888
  751SOL    HW2 2272   2.734   2.696   1.732
  752SOL     OW 2273   2.547   2.874   0.665
  752SOL    HW1 2274   2.616   2.858   0.735
  752SOL    HW2 2275   2.474   2.931   0.703
  753SOL     OW 2276   2.300   2.254   1.499
  753SOL    HW1 2277   2.382   2.198   1.508
  753SOL    HW2 2278   2.219   2.196   1.503
  754SOL     OW 2279   2.092   3.296   0.538
  754SOL    HW1 2280   2.066   3.392   0.538
  754SOL    HW2 2281   2.021   3.242   0.583
  755SOL     OW 2282   2.102   2.953   0.886
  755SOL    HW1 2283   2.116   2.869   0.938
  755SOL    HW2 2284   2.047   3.017   0.941
  756SOL     OW 2285   2.468   2.826   0.123
  756SOL    HW1 2286   2.475   2.910   0.069
  756SOL    HW2 2287   2.514   2.839   0.211
  757SOL     OW 2288   1.984   2.505   0.563
  757SOL    HW1 2289   1.939   2.417   0.580
  757SOL    HW2 2290   1.983   2.559   0.647
  758SOL     OW 2291   1.975   2.599   1.597
  758SOL    HW1 2292   2.063   2.586   1.642
  758SOL    HW2 2293   1.962   2.696   1.575
  759SOL     OW 2294   2.475   3.227   0.726
  759SOL    HW1 2295   2.426   3.140   0.735
  759SOL    HW2 2296   2.452   3.270   0.639
  760SOL     OW 2297   2.671   1.866   0.502
  760SOL    HW1 2298   2.711   1.957   0.493
  760SOL    HW2 2299   2.571   1.874   0.508
  761SOL     OW 2300   2.059   2.838   1.264
  761SOL    HW1 2301   2.148   2.793   1.250
  761SOL    HW2 2302   1.986   2.773   1.245
  762SOL     OW 2303   2.179   2.113   1.801
  762SOL    HW1 2304   2.250   2.184   1.807
  762SOL    HW2 2305   2.091   2.152   1.829
  763SOL     OW 2306   2.460   2.591   0.270
  763SOL    HW1 2307   2.484   2.660   0.202
  763SOL    HW2 2308   2.382   2.624   0.324
  764SOL     OW 2309   2.669   2.467   1.465
  764SOL    HW1 2310   2.622   2.464   1.554
  764SOL    HW2 2311   2.618   2.412   1.399
  765SOL     OW 2312   2.835   2.752   1.572
  765SOL    HW1 2313   2.881   2.668   1.543
  765SOL    HW2 2314   2.779   2.786   1.497
  766SOL     OW 2315   2.853   2.272   1.242
  766SOL    HW1 2316   2.776   2.306   1.296
  766SOL    HW2 2317   2.819   2.221   1.163
  767SOL     OW 2318   2.903   2.563   0.429
  767SOL    HW1 2319   2.929   2.559   0.525
  767SOL    HW2 2320   2.818   2.512   0.415
  768SOL     OW 2321   1.938   2.673   0.789
  768SOL    HW1 2322   2.037   2.661   0.798
  768SOL    HW2 2323   1.914   2.768   0.810
  769SOL     OW 2324   2.727   2.210   0.195
  769SOL    HW1 2325   2.786   2.273   0.146
  769SOL    HW2 2326   2.746   2.116   0.166
  770SOL     OW 2327   2.412   2.058   0.885
  770SOL    HW1 2328   2.407   2.053   0.985
  770SOL    HW2 2329   2.414   2.154   0.856
  771SOL     OW 2330   2.064   2.147   1.498
  771SOL    HW1 2331   1.984   2.207   1.485
  771SOL    HW2 2332   2.054   2.098   1.584
  772SOL     OW 2333   2.244   2.562   0.480
  772SOL    HW1 2334   2.289   2.472   0.477
  772SOL    HW2 2335   2.150   2.551   0.513
  773SOL     OW 2336   2.476   1.984   0.117
  773SOL    HW1 2337   2.574   1.962   0.124
  773SOL    HW2 2338   2.445   1.967   0.024
  774SOL     OW 2339   2.643   2.126   1.749
  774SOL    HW1 2340   2.710   2.065   1.792
  774SOL    HW2 2341   2.570   2.145   1.814
  775SOL     OW 2342   2.784   2.365   0.899
  775SOL    HW1 2343   2.759   2.356   0.803
  775SOL    HW2 2344   2.832   2.283   0.930
  776SOL     OW 2345   2.401   1.926   0.512
  776SOL    HW1 2346   2.320   1.927   0.570
  776SOL    HW2 2347   2.404   2.009   0.457
  777SOL     OW 2348   2.797   2.098   0.480
  777SOL    HW1 2349   2.749   2.139   0.402
  777SOL    HW2 2350   2.896   2.096   0.461
  778SOL     OW 2351   2.894   2.411   0.016
  778SOL    HW1 2352   2.853   2.493  -0.023
  778SOL    HW2 2353   2.958   2.437   0.089
  779SOL     OW 2354   1.940   2.418   1.386
  779SOL    HW1 2355   2.032   2.417   1.345
  779SOL    HW2 2356   1.934   2.492   1.453
  780SOL     OW 2357   2.423   2.084   1.147
  780SOL    HW1 2358   2.461   2.000   1.184
  780SOL    HW2 2359   2.335   2.103   1.191
  781SOL     OW 2360   2.728   2.316   0.642
  781SOL    HW1 2361   2.696   2.388   0.580
  781SOL    HW2 2362   2.752   2.235   0.589
  782SOL     OW 2363   2.879   1.901   0.753
  782SOL    HW1 2364   2.807   1.906   0.684
  782SOL    HW2 2365   2.855   1.832   0.822
  783SOL     OW 2366   2.389   2.118   0.328
  783SOL    HW1 2367   2.416   2.059   0.253
  783SOL    HW2 2368   2.389   2.213   0.297
  784SOL     OW 2369   2.777   1.951   1.402
  784SOL    HW1 2370   2.802   1.931   1.307
  784SOL    HW2 2371   2.849   2.007   1.444
  785SOL     OW 2372   2.272   2.675   1.251
  785SOL    HW1 2373   2.358   2.687   1.301
  785SOL    HW2 2374   2.230   2.588   1.278
  786SOL     OW 2375   2.428   2.399   0.865
  786SOL    HW1 2376   2.440   2.465   0.791
  786SOL    HW2 2377   2.474   2.433   0.948
  787SOL     OW 2378   2.264   2.613   1.598
  787SOL    HW1 2379   2.332   2.668   1.551
  787SOL    HW2 2380   2.304   2.525   1.625
  788SOL     OW 2381   2.875   1.967   1.770
  788SOL    HW1 2382   2.881   2.052   1.718
  788SOL    HW2 2383   2.907   1.891   1.713
  789SOL     OW 2384   2.366   1.912   1.740
  789SOL    HW1 2385   2.324   1.855   1.670
  789SOL    HW2 2386   2.300   1.981   1.772
  790SOL     OW 2387   2.435   2.732   1.029
  790SOL    HW1 2388   2.479   2.821   1.020
  790SOL    HW2 2389   2.372   2.732   1.106
  791SOL     OW 2390   3.071   2.387   0.275
  791SOL    HW1 2391   3.084   2.303   0.329
  791SOL    HW2 2392   3.042   2.461   0.335
  792SOL     OW 2393   2.169   2.075   1.231
  792SOL    HW1 2394   2.146   2.112   1.321
  792SOL    HW2 2395   2.139   1.980   1.225
  793SOL     OW 2396   2.594   2.496   1.064
  793SOL    HW1 2397   2.653   2.470   0.988
  793SOL    HW2 2398   2.566   2.592   1.053
  794SOL     OW 2399   2.169   1.925   0.618
  794SOL    HW1 2400   2.158   2.019   0.651
  794SOL    HW2 2401   2.164   1.862   0.695
  795SOL     OW 2402   2.885   2.628   0.966
  795SOL    HW1 2403   2.900   2.649   1.062
  795SOL    HW2 2404   2.855   2.533   0.957
  796SOL     OW 2405   2.212   2.760   1.804
  796SOL    HW1 2406   2.288   2.804   1.852
  796SOL    HW2 2407   2.247   2.713   1.722
  797SOL     OW 2408   2.181   2.672   0.949
  797SOL    HW1 2409   2.274   2.708   0.954
  797SOL    HW2 2410   2.175   2.587   1.001
  798SOL     OW 2411   2.201   2.371   1.006
  798SOL    HW1 2412   2.149   2.288   0.989
  798SOL    HW2 2413   2.278   2.376   0.942
  799SOL     OW 2414   3.000   2.242   1.678
  799SOL    HW1 2415   2.955   2.305   1.742
  799SOL    HW2 2416   3.093   2.273   1.661
  800SOL     OW 2417   3.022   2.069   1.477
  800SOL    HW1 2418   3.022   2.133   1.554
  800SOL    HW2 2419   3.050   2.117   1.394
  801SOL     OW 2420   2.864   2.658   1.238
  801SOL    HW1 2421   2.905   2.626   1.324
  801SOL    HW2 2422   2.768   2.631   1.235
  802SOL     OW 2423   1.902   2.406   1.114
  802SOL    HW1 2424   1.987   2.373   1.073
  802SOL    HW2 2425   1.915   2.421   1.212
  803SOL     OW 2426   2.051   2.382   1.722
  803SOL    HW1 2427   2.110   2.342   1.652
  803SOL    HW2 2428   1.993   2.453   1.681
  804SOL     OW 2429   2.677   2.434   0.325
  804SOL    HW1 2430   2.684   2.345   0.279
  804SOL    HW2 2431   2.583   2.468   0.317
  805SOL     OW 2432   2.533   2.326   1.269
  805SOL    HW1 2433   2.499   2.237   1.239
  805SOL    HW2 2434   2.559   2.380   1.189
  806SOL     OW 2435   2.335   2.362   0.191
  806SOL    HW1 2436   2.396   2.442   0.195
  806SOL    HW2 2437   2.240   2.393   0.198
  807SOL     OW 2438   2.021   2.999   1.466
  807SOL    HW1 2439   2.043   2.938   1.542
  807SOL    HW2 2440   2.031   2.950   1.380
  808SOL     OW 2441   2.765   1.948   0.133
  808SOL    HW1 2442   2.816   1.949   0.047
  808SOL    HW2 2443   2.821   1.906   0.204
  809SOL     OW 2444   2.125   2.188   0.720
  809SOL    HW1 2445   2.046   2.239   0.686
  809SOL    HW2 2446   2.116   2.173   0.818
  810SOL     OW 2447   2.684   2.864   1.372
  810SOL    HW1 2448   2.724   2.863   1.280
  810SOL    HW2 2449   2.694   2.956   1.412
  811SOL     OW 2450   2.778   2.772   0.291
  811SOL    HW1 2451   2.841   2.810   0.223
  811SOL    HW2 2452   2.818   2.689   0.330
  812SOL     OW 2453   2.876   2.098   0.971
  812SOL    HW1 2454   2.868   2.062   0.878
  812SOL    HW2 2455   2.874   2.022   1.036
  813SOL     OW 2456   1.967   2.875   1.726
  813SOL    HW1 2457   1.890   2.842   1.780
  813SOL    HW2 2458   2.052   2.845   1.768
  814SOL     OW 2459   2.534   2.065   1.489
  814SOL    HW1 2460   2.624   2.049   1.449
  814SOL    HW2 2461   2.542   2.070   1.588
  815SOL     OW 2462   1.934   2.028   0.318
  815SOL    HW1 2463   1.917   2.111   0.264
  815SOL    HW2 2464   2.024   1.991   0.296
  816SOL     OW 2465   2.475   2.704   1.431
  816SOL    HW1 2466   2.531   2.785   1.414
  816SOL    HW2 2467   2.534   2.624   1.434
  817SOL     OW 2468   2.578   2.427   1.708
  817SOL    HW1 2469   2.597   2.492   1.782
  817SOL    HW2 2470   2.638   2.347   1.717
  818SOL     OW 2471   2.456   2.607   0.652
  818SOL    HW1 2472   2.506   2.692   0.633
  818SOL    HW2 2473   2.368   2.609   0.604
  819SOL     OW 2474   2.721   2.818   0.861
  819SOL    HW1 2475   2.775   2.749   0.909
  819SOL    HW2 2476   2.689   2.887   0.927
  820SOL     OW 2477   2.290   2.286   0.520
  820SOL    HW1 2478   2.320   2.214   0.458
  820SOL    HW2 2479   2.251   2.246   0.603
  821SOL     OW 2480   2.179   2.409   1.280
  821SOL    HW1 2481   2.217   2.350   1.352
  821SOL    HW2 2482   2.219   2.383   1.192
  822SOL     OW 2483   2.863   1.896   1.154
  822SOL    HW1 2484   2.800   1.824   1.123
  822SOL    HW2 2485   2.956   1.860   1.154
  823SOL     OW 2486   1.901   2.939   0.300
  823SOL    HW1 2487   2.000   2.928   0.291
  823SOL    HW2 2488   1.861   2.853   0.332
  824SOL     OW 2489   2.092   2.490   1.975
  824SOL    HW1 2490   1.999   2.488   2.012
  824SOL    HW2 2491   2.093   2.451   1.883
  825SOL     OW 2492   2.087   2.137   2.858
  825SOL    HW1 2493   2.122   2.120   2.950
  825SOL    HW2 2494   1.999   2.092   2.846
  826SOL     OW 2495   1.881   2.230   2.509
  826SOL    HW1 2496   1.799   2.273   2.548
  826SOL    HW2 2497   1.853   2.157   2.446
  827SOL     OW 2498   2.630   3.006   2.885
  827SOL    HW1 2499   2.552   3.023   2.945
  827SOL    HW2 2500   2.664   3.093   2.849
  828SOL     OW 2501   2.547   2.874   2.527
  828SOL    HW1 2502   2.616   2.858   2.597
  828SOL    HW2 2503   2.474   2.931   2.565
  829SOL     OW 2504   2.092   3.296   2.400
  829SOL    HW1 2505   2.066   3.392   2.400
  829SOL    HW2 2506   2.021   3.242   2.445
  830SOL     OW 2507   2.102   2.953   2.748
  830SOL    HW1 2508   2.116   2.869   2.800
  830SOL    HW2 2509   2.047   3.017   2.803
  831SOL     OW 2510   2.468   2.826   1.985
  831SOL    HW1 2511   2.475   2.910   1.931
  831SOL    HW2 2512   2.514   2.839   2.073
  832SOL     OW 2513   1.984   2.505   2.425
  832SOL    HW1 2514   1.939   2.417   2.442
  832SOL    HW2 2515   1.983   2.559   2.509
  833SOL     OW 2516   2.475   3.227   2.588
  833SOL    HW1 2517   2.426   3.140   2.597
  833SOL    HW2 2518   2.452   3.270   2.501
  834SOL     OW 2519   2.671   1.866   2.364
  834SOL    HW1 2520   2.711   1.957   2.355
  834SOL    HW2 2521   2.571   1.874   2.370
  835SOL     OW 2522   2.059   2.838   3.126
  835SOL    HW1 2523   2.148   2.793   3.112
  835SOL    HW2 2524   1.986   2.773   3.107
  836SOL     OW 2525   2.460   2.591   2.132
  836SOL    HW1 2526   2.484   2.660   2.064
  836SOL    HW2 2527   2.382   2.624   2.186
  837SOL     OW 2528   2.903   2.563   2.291
  837SOL    HW1 2529   2.929   2.559   2.387
  837SOL    HW2 2530   2.818   2.512   2.277
  838SOL     OW 2531   1.938   2.673   2.651
  838SOL    HW1 2532   2.037   2.661   2.660
  838SOL    HW2 2533   1.914   2.768   2.672
  839SOL     OW 2534   2.727   2.210   2.057
  839SOL    HW1 2535   2.786   2.273   2.008
  839SOL    HW2 2536   2.746   2.116   2.028
  840SOL     OW 2537   2.412   2.058   2.747
  840SOL    HW1 2538   2.407   2.053   2.847
  840SOL    HW2 2539   2.414   2.154   2.718
  841SOL     OW 2540   2.244   2.562   2.342
  841SOL    HW1 2541   2.289   2.472   2.339
  841SOL    HW2 2542   2.150   2.551   2.375
  842SOL     OW 2543   2.476   1.984   1.979
  842SOL    HW1 2544   2.574   1.962   1.986
  842SOL    HW2 2545   2.445   1.967   1.886
  843SOL     OW 2546   2.784   2.365   2.761
  843SOL    HW1 2547   2.759   2.356   2.665
  843SOL    HW2 2548   2.832   2.283   2.792
  844SOL     OW 2549   2.401   1.926   2.374
  844SOL    HW1 2550   2.320   1.927   2.432
  844SOL    HW2 2551   2.404   2.009   2.319
  845SOL     OW 2552   2.159   1.897   2.033
  845SOL    HW1 2553   2.208   1.981   2.012
  845SOL    HW2 2554   2.221   1.832   2.078
  846SOL     OW 2555   2.797   2.098   2.342
  846SOL    HW1 2556   2.749   2.139   2.264
  846SOL    HW2 2557   2.896   2.096   2.323
  847SOL     OW 2558   2.894   2.411   1.878
  847SOL    HW1 2559   2.853   2.493   1.839
  847SOL    HW2 2560   2.958   2.437   1.951
  848SOL     OW 2561   2.728   2.316   2.504
  848SOL    HW1 2562   2.696   2.388   2.442
  848SOL    HW2 2563   2.752   2.235   2.451
  849SOL     OW 2564   2.879   1.901   2.615
  849SOL    HW1 2565   2.807   1.906   2.546
  849SOL    HW2 2566   2.855   1.832   2.684
  850SOL     OW 2567   2.389   2.118   2.190
  850SOL    HW1 2568   2.416   2.059   2.115
  850SOL    HW2 2569   2.389   2.213   2.159
  851SOL     OW 2570   2.428   2.399   2.727
  851SOL    HW1 2571   2.440   2.465   2.653
  851SOL    HW2 2572   2.474   2.433   2.810
  852SOL     OW 2573   2.435   2.732   2.891
  852SOL    HW1 2574   2.479   2.821   2.882
  852SOL    HW2 2575   2.372   2.732   2.968
  853SOL     OW 2576   3.071   2.387   2.137
  853SOL    HW1 2577   3.084   2.303   2.191
  853SOL    HW2 2578   3.042   2.461   2.197
  854SOL     OW 2579   2.169   2.075   3.093
  854SOL    HW1 2580   2.146   2.112   3.183
  854SOL    HW2 2581   2.139   1.980   3.087
  855SOL     OW 2582   2.594   2.496   2.926
  855SOL    HW1 2583   2.653   2.470   2.850
  855SOL    HW2 2584   2.566   2.592   2.915
  856SOL     OW 2585   2.169   1.925   2.480
  856SOL    HW1 2586   2.158   2.019   2.513
  856SOL    HW2 2587   2.164   1.862   2.557
  857SOL     OW 2588   2.885   2.628   2.828
  857SOL    HW1 2589   2.900   2.649   2.924
  857SOL    HW2 2590   2.855   2.533   2.819
  858SOL     OW 2591   2.181   2.672   2.811
  858SOL    HW1 2592   2.274   2.708   2.816
  858SOL    HW2 2593   2.175   2.587   2.863
  859SOL     OW 2594   2.201   2.371   2.868
  859SOL    HW1 2595   2.149   2.288   2.851
  859SOL    HW2 2596   2.278   2.376   2.804
  860SOL     OW 2597   2.864   2.658   3.100
  860SOL    HW1 2598   2.905   2.626   3.186
  860SOL    HW2 2599   2.768   2.631   3.097
  861SOL     OW 2600   2.677   2.434   2.187
  861SOL    HW1 2601   2.684   2.345   2.141
  861SOL    HW2 2602   2.583   2.468   2.179
  862SOL     OW 2603   2.533   2.326   3.131
  862SOL    HW1 2604   2.499   2.237   3.101
  862SOL    HW2 2605   2.559   2.380   3.051
  863SOL     OW 2606   2.335   2.362   2.053
  863SOL    HW1 2607   2.396   2.442   2.057
  863SOL    HW2 2608   2.240   2.393   2.060
  864SOL     OW 2609   3.164   2.717   2.171
  864SOL    HW1 2610   3.078   2.686   2.213
  864SOL    HW2 2611   3.160   2.703   2.072
  865SOL     OW 2612   2.125   2.188   2.582
  865SOL    HW1 2613   2.046   2.239   2.548
  865SOL    HW2 2614   2.116   2.173   2.680
  866SOL     OW 2615   2.778   2.772   2.153
  866SOL    HW1 2616   2.841   2.810   2.085
  866SOL    HW2 2617   2.818   2.689   2.192
  867SOL     OW 2618   2.876   2.098   2.833
  867SOL    HW1 2619   2.868   2.062   2.740
  867SOL    HW2 2620   2.874   2.022   2.898
  868SOL     OW 2621   1.937   2.207   1.895
  868SOL    HW1 2622   1.845   2.179   1.866
  868SOL    HW2 2623   1.968   2.284   1.839
  869SOL     OW 2624   1.934   2.028   2.180
  869SOL    HW1 2625   1.917   2.111   2.126
  869SOL    HW2 2626   2.024   1.991   2.158
  870SOL     OW 2627   2.456   2.607   2.514
  870SOL    HW1 2628   2.506   2.692   2.495
  870SOL    HW2 2629   2.368   2.609   2.466
  871SOL     OW 2630   2.721   2.818   2.723
  871SOL    HW1 2631   2.775   2.749   2.771
  871SOL    HW2 2632   2.689   2.887   2.789
  872SOL     OW 2633   2.945   2.846   1.949
  872SOL    HW1 2634   2.922   2.899   1.867
  872SOL    HW2 2635   3.026   2.790   1.930
  873SOL     OW 2636   2.290   2.286   2.382
  873SOL    HW1 2637   2.320   2.214   2.320
  873SOL    HW2 2638   2.251   2.246   2.465
  874SOL     OW 2639   1.901   2.939   2.162
  874SOL    HW1 2640   2.000   2.928   2.153
  874SOL    HW2 2641   1.861   2.853   2.194
   2.99954   2.99954   2.99954
