; mobley_2269032_GMX.itp created by acpype (v: 2023.10.27) on Thu May 14 13:39:36 2026

[ atomtypes ]
;name   bond_type     mass     charge   ptype   sigma         epsilon       Amb
 ca       ca          0.00000  0.00000   A     3.31521e-01   4.13379e-01 ; 1.86  0.0988
 c        c           0.00000  0.00000   A     3.31521e-01   4.13379e-01 ; 1.86  0.0988
 c3       c3          0.00000  0.00000   A     3.39771e-01   4.51035e-01 ; 1.91  0.1078
 o        o           0.00000  0.00000   A     3.04812e-01   6.12119e-01 ; 1.71  0.1463
 oh       oh          0.00000  0.00000   A     3.24287e-01   3.89112e-01 ; 1.82  0.0930
 os       os          0.00000  0.00000   A     3.15610e-01   3.03758e-01 ; 1.77  0.0726
 ha       ha          0.00000  0.00000   A     2.62548e-01   6.73624e-02 ; 1.47  0.0161
 hc       hc          0.00000  0.00000   A     2.60018e-01   8.70272e-02 ; 1.46  0.0208
 h1       h1          0.00000  0.00000   A     2.42200e-01   8.70272e-02 ; 1.36  0.0208
 ho       ho          0.00000  0.00000   A     5.37925e-02   1.96648e-02 ; 0.30  0.0047

[ moleculetype ]
;name            nrexcl
 mobley_2269032   3

[ atoms ]
;   nr  type  resi  res  atom  cgnr     charge      mass       ; qtot   bond_type
     1   ca     1   MOL    C1    1    -0.126000     12.01000 ; qtot -0.126
     2   ca     1   MOL    C2    2    -0.079000     12.01000 ; qtot -0.205
     3   ca     1   MOL    C3    3    -0.107000     12.01000 ; qtot -0.312
     4   ca     1   MOL    C4    4    -0.186000     12.01000 ; qtot -0.498
     5   ca     1   MOL    C5    5    -0.087000     12.01000 ; qtot -0.585
     6   ca     1   MOL    C6    6    -0.163000     12.01000 ; qtot -0.748
     7   ca     1   MOL    C7    7    -0.069000     12.01000 ; qtot -0.817
     8   ca     1   MOL    C8    8     0.001000     12.01000 ; qtot -0.816
     9   ca     1   MOL    C9    9    -0.106300     12.01000 ; qtot -0.922
    10   ca     1   MOL   C10   10     0.127100     12.01000 ; qtot -0.795
    11    c     1   MOL   C11   11     0.643101     12.01000 ; qtot -0.152
    12   c3     1   MOL   C12   12    -0.091100     12.01000 ; qtot -0.243
    13   c3     1   MOL   C13   13     0.113700     12.01000 ; qtot -0.129
    14   c3     1   MOL   C14   14    -0.054400     12.01000 ; qtot -0.184
    15    o     1   MOL    O1   15    -0.554000     16.00000 ; qtot -0.738
    16   oh     1   MOL    O2   16    -0.606100     16.00000 ; qtot -1.344
    17   os     1   MOL    O3   17    -0.327900     16.00000 ; qtot -1.672
    18   ha     1   MOL    H1   18     0.137000      1.00800 ; qtot -1.535
    19   ha     1   MOL    H2   19     0.139000      1.00800 ; qtot -1.396
    20   ha     1   MOL    H3   20     0.133000      1.00800 ; qtot -1.263
    21   ha     1   MOL    H4   21     0.139000      1.00800 ; qtot -1.124
    22   ha     1   MOL    H5   22     0.155000      1.00800 ; qtot -0.969
    23   ha     1   MOL    H6   23     0.151000      1.00800 ; qtot -0.818
    24   hc     1   MOL    H7   24     0.051033      1.00800 ; qtot -0.767
    25   hc     1   MOL    H8   25     0.051033      1.00800 ; qtot -0.716
    26   hc     1   MOL    H9   26     0.051033      1.00800 ; qtot -0.665
    27   h1     1   MOL   H10   27     0.044700      1.00800 ; qtot -0.620
    28   h1     1   MOL   H11   28     0.044700      1.00800 ; qtot -0.575
    29   h1     1   MOL   H12   29     0.044700      1.00800 ; qtot -0.531
    30   hc     1   MOL   H13   30     0.087700      1.00800 ; qtot -0.443
    31   ho     1   MOL   H14   31     0.443000      1.00800 ; qtot 0.000

[ bonds ]
;   ai     aj funct   r             k
     1      3   1    1.3986e-01    2.9644e+05 ;     C1 - C3    
     1      8   1    1.3986e-01    2.9644e+05 ;     C1 - C8    
     1     18   1    1.0860e-01    3.0183e+05 ;     C1 - H1    
     2      4   1    1.3986e-01    2.9644e+05 ;     C2 - C4    
     2      7   1    1.3986e-01    2.9644e+05 ;     C2 - C7    
     2     19   1    1.0860e-01    3.0183e+05 ;     C2 - H2    
     3      9   1    1.3986e-01    2.9644e+05 ;     C3 - C9    
     3     20   1    1.0860e-01    3.0183e+05 ;     C3 - H3    
     4     10   1    1.3986e-01    2.9644e+05 ;     C4 - C10   
     4     21   1    1.0860e-01    3.0183e+05 ;     C4 - H4    
     5      7   1    1.3986e-01    2.9644e+05 ;     C5 - C7    
     5      9   1    1.3986e-01    2.9644e+05 ;     C5 - C9    
     5     22   1    1.0860e-01    3.0183e+05 ;     C5 - H5    
     6      8   1    1.3986e-01    2.9644e+05 ;     C6 - C8    
     6     10   1    1.3986e-01    2.9644e+05 ;     C6 - C10   
     6     23   1    1.0860e-01    3.0183e+05 ;     C6 - H6    
     7      8   1    1.3986e-01    2.9644e+05 ;     C7 - C8    
     9     14   1    1.5147e-01    2.0410e+05 ;     C9 - C14   
    10     17   1    1.3688e-01    2.8731e+05 ;    C10 - O3    
    11     14   1    1.5270e-01    1.9652e+05 ;    C11 - C14   
    11     15   1    1.2190e-01    4.9421e+05 ;    C11 - O1    
    11     16   1    1.3556e-01    3.0064e+05 ;    C11 - O2    
    12     14   1    1.5354e-01    1.9154e+05 ;    C12 - C14   
    12     24   1    1.0962e-01    2.8891e+05 ;    C12 - H7    
    12     25   1    1.0962e-01    2.8891e+05 ;    C12 - H8    
    12     26   1    1.0962e-01    2.8891e+05 ;    C12 - H9    
    13     17   1    1.4273e-01    2.3620e+05 ;    C13 - O3    
    13     27   1    1.0969e-01    2.8804e+05 ;    C13 - H10   
    13     28   1    1.0969e-01    2.8804e+05 ;    C13 - H11   
    13     29   1    1.0969e-01    2.8804e+05 ;    C13 - H12   
    14     30   1    1.0962e-01    2.8891e+05 ;    C14 - H13   
    16     31   1    9.7250e-02    4.4811e+05 ;     O2 - H14   

[ pairs ]
;   ai     aj    funct
     1      2      1 ;     C1 - C2    
     1      5      1 ;     C1 - C5    
     1     10      1 ;     C1 - C10   
     1     14      1 ;     C1 - C14   
     1     23      1 ;     C1 - H6    
     2      6      1 ;     C2 - C6    
     2      9      1 ;     C2 - C9    
     2     17      1 ;     C2 - O3    
     2     22      1 ;     C2 - H5    
     3      6      1 ;     C3 - C6    
     3      7      1 ;     C3 - C7    
     3     11      1 ;     C3 - C11   
     3     12      1 ;     C3 - C12   
     3     22      1 ;     C3 - H5    
     3     30      1 ;     C3 - H13   
     4      5      1 ;     C4 - C5    
     4      8      1 ;     C4 - C8    
     4     13      1 ;     C4 - C13   
     4     23      1 ;     C4 - H6    
     5      6      1 ;     C5 - C6    
     5     11      1 ;     C5 - C11   
     5     12      1 ;     C5 - C12   
     5     19      1 ;     C5 - H2    
     5     20      1 ;     C5 - H3    
     5     30      1 ;     C5 - H13   
     6     13      1 ;     C6 - C13   
     6     21      1 ;     C6 - H4    
     7     10      1 ;     C7 - C10   
     7     14      1 ;     C7 - C14   
     7     21      1 ;     C7 - H4    
     7     23      1 ;     C7 - H6    
     8      9      1 ;     C8 - C9    
     8     17      1 ;     C8 - O3    
     8     19      1 ;     C8 - H2    
     8     20      1 ;     C8 - H3    
     8     22      1 ;     C8 - H5    
     9     15      1 ;     C9 - O1    
     9     16      1 ;     C9 - O2    
     9     24      1 ;     C9 - H7    
     9     25      1 ;     C9 - H8    
     9     26      1 ;     C9 - H9    
    10     19      1 ;    C10 - H2    
    10     27      1 ;    C10 - H10   
    10     28      1 ;    C10 - H11   
    10     29      1 ;    C10 - H12   
    11     24      1 ;    C11 - H7    
    11     25      1 ;    C11 - H8    
    11     26      1 ;    C11 - H9    
    12     15      1 ;    C12 - O1    
    12     16      1 ;    C12 - O2    
    14     20      1 ;    C14 - H3    
    14     22      1 ;    C14 - H5    
    14     31      1 ;    C14 - H14   
    15     30      1 ;     O1 - H13   
    15     31      1 ;     O1 - H14   
    16     30      1 ;     O2 - H13   
    17     21      1 ;     O3 - H4    
    17     23      1 ;     O3 - H6    
    18      6      1 ;     H1 - C6    
    18      7      1 ;     H1 - C7    
    18      9      1 ;     H1 - C9    
    18     20      1 ;     H1 - H3    
    19     21      1 ;     H2 - H4    
    24     30      1 ;     H7 - H13   
    25     30      1 ;     H8 - H13   
    26     30      1 ;     H9 - H13   

[ angles ]
;   ai     aj     ak    funct   theta         cth
     1      3      9      1    1.2002e+02    5.3279e+02 ;     C1 - C3     - C9    
     1      3     20      1    1.1988e+02    3.7572e+02 ;     C1 - C3     - H3    
     1      8      6      1    1.2002e+02    5.3279e+02 ;     C1 - C8     - C6    
     1      8      7      1    1.2002e+02    5.3279e+02 ;     C1 - C8     - C7    
     2      4     10      1    1.2002e+02    5.3279e+02 ;     C2 - C4     - C10   
     2      4     21      1    1.1988e+02    3.7572e+02 ;     C2 - C4     - H4    
     2      7      5      1    1.2002e+02    5.3279e+02 ;     C2 - C7     - C5    
     2      7      8      1    1.2002e+02    5.3279e+02 ;     C2 - C7     - C8    
     3      1      8      1    1.2002e+02    5.3279e+02 ;     C3 - C1     - C8    
     3      1     18      1    1.1988e+02    3.7572e+02 ;     C3 - C1     - H1    
     3      9      5      1    1.2002e+02    5.3279e+02 ;     C3 - C9     - C5    
     3      9     14      1    1.2083e+02    5.0827e+02 ;     C3 - C9     - C14   
     4      2      7      1    1.2002e+02    5.3279e+02 ;     C4 - C2     - C7    
     4      2     19      1    1.1988e+02    3.7572e+02 ;     C4 - C2     - H2    
     4     10      6      1    1.2002e+02    5.3279e+02 ;     C4 - C10    - C6    
     4     10     17      1    1.1911e+02    6.6107e+02 ;     C4 - C10    - O3    
     5      7      8      1    1.2002e+02    5.3279e+02 ;     C5 - C7     - C8    
     5      9     14      1    1.2083e+02    5.0827e+02 ;     C5 - C9     - C14   
     6      8      7      1    1.2002e+02    5.3279e+02 ;     C6 - C8     - C7    
     6     10     17      1    1.1911e+02    6.6107e+02 ;     C6 - C10    - O3    
     7      2     19      1    1.1988e+02    3.7572e+02 ;     C7 - C2     - H2    
     7      5      9      1    1.2002e+02    5.3279e+02 ;     C7 - C5     - C9    
     7      5     22      1    1.1988e+02    3.7572e+02 ;     C7 - C5     - H5    
     8      1     18      1    1.1988e+02    3.7572e+02 ;     C8 - C1     - H1    
     8      6     10      1    1.2002e+02    5.3279e+02 ;     C8 - C6     - C10   
     8      6     23      1    1.1988e+02    3.7572e+02 ;     C8 - C6     - H6    
     9      3     20      1    1.1988e+02    3.7572e+02 ;     C9 - C3     - H3    
     9      5     22      1    1.1988e+02    3.7572e+02 ;     C9 - C5     - H5    
     9     14     11      1    1.1116e+02    5.0911e+02 ;     C9 - C14    - C11   
     9     14     12      1    1.1242e+02    5.0484e+02 ;     C9 - C14    - C12   
     9     14     30      1    1.1063e+02    3.6493e+02 ;     C9 - C14    - H13   
    10      4     21      1    1.1988e+02    3.7572e+02 ;    C10 - C4     - H4    
    10      6     23      1    1.1988e+02    3.7572e+02 ;    C10 - C6     - H6    
    10     17     13      1    1.1839e+02    7.3856e+02 ;    C10 - O3     - C13   
    11     14     12      1    1.1143e+02    5.0509e+02 ;    C11 - C14    - C12   
    11     14     30      1    1.0895e+02    3.6510e+02 ;    C11 - C14    - H13   
    11     16     31      1    1.0654e+02    5.7287e+02 ;    C11 - O2     - H14   
    12     14     30      1    1.0968e+02    3.6208e+02 ;    C12 - C14    - H13   
    14     11     15      1    1.2290e+02    6.3973e+02 ;    C14 - C11    - O1    
    14     11     16      1    1.1274e+02    6.4785e+02 ;    C14 - C11    - O2    
    14     12     24      1    1.0968e+02    3.6208e+02 ;    C14 - C12    - H7    
    14     12     25      1    1.0968e+02    3.6208e+02 ;    C14 - C12    - H8    
    14     12     26      1    1.0968e+02    3.6208e+02 ;    C14 - C12    - H9    
    15     11     16      1    1.2209e+02    8.5379e+02 ;     O1 - C11    - O2    
    17     13     27      1    1.1034e+02    4.7028e+02 ;     O3 - C13    - H10   
    17     13     28      1    1.1034e+02    4.7028e+02 ;     O3 - C13    - H11   
    17     13     29      1    1.1034e+02    4.7028e+02 ;     O3 - C13    - H12   
    24     12     25      1    1.0773e+02    2.9957e+02 ;     H7 - C12    - H8    
    24     12     26      1    1.0773e+02    2.9957e+02 ;     H7 - C12    - H9    
    25     12     26      1    1.0773e+02    2.9957e+02 ;     H8 - C12    - H9    
    27     13     28      1    1.0855e+02    2.9824e+02 ;    H10 - C13    - H11   
    27     13     29      1    1.0855e+02    2.9824e+02 ;    H10 - C13    - H12   
    28     13     29      1    1.0855e+02    2.9824e+02 ;    H11 - C13    - H12   

[ dihedrals ] ; propers
; for gromacs 4.5 or higher, using funct 9
;    i      j      k      l   func   phase     kd      pn
     1      3      9      5      9   180.00  15.16700   2 ;     C1-    C3-    C9-    C5
     1      3      9     14      9   180.00  15.16700   2 ;     C1-    C3-    C9-   C14
     1      8      6     10      9   180.00  15.16700   2 ;     C1-    C8-    C6-   C10
     1      8      6     23      9   180.00  15.16700   2 ;     C1-    C8-    C6-    H6
     1      8      7      2      9   180.00  15.16700   2 ;     C1-    C8-    C7-    C2
     1      8      7      5      9   180.00  15.16700   2 ;     C1-    C8-    C7-    C5
     2      4     10      6      9   180.00  15.16700   2 ;     C2-    C4-   C10-    C6
     2      4     10     17      9   180.00  15.16700   2 ;     C2-    C4-   C10-    O3
     2      7      5      9      9   180.00  15.16700   2 ;     C2-    C7-    C5-    C9
     2      7      5     22      9   180.00  15.16700   2 ;     C2-    C7-    C5-    H5
     2      7      8      6      9   180.00  15.16700   2 ;     C2-    C7-    C8-    C6
     3      1      8      6      9   180.00  15.16700   2 ;     C3-    C1-    C8-    C6
     3      1      8      7      9   180.00  15.16700   2 ;     C3-    C1-    C8-    C7
     3      9      5      7      9   180.00  15.16700   2 ;     C3-    C9-    C5-    C7
     3      9      5     22      9   180.00  15.16700   2 ;     C3-    C9-    C5-    H5
     3      9     14     11      9     0.00   0.00000   0 ;     C3-    C9-   C14-   C11
     3      9     14     12      9   180.00   1.00416   2 ;     C3-    C9-   C14-   C12
     3      9     14     30      9     0.00   0.00000   0 ;     C3-    C9-   C14-   H13
     4      2      7      5      9   180.00  15.16700   2 ;     C4-    C2-    C7-    C5
     4      2      7      8      9   180.00  15.16700   2 ;     C4-    C2-    C7-    C8
     4     10      6      8      9   180.00  15.16700   2 ;     C4-   C10-    C6-    C8
     4     10      6     23      9   180.00  15.16700   2 ;     C4-   C10-    C6-    H6
     4     10     17     13      9   180.00   6.94544   2 ;     C4-   C10-    O3-   C13
     5      7      2     19      9   180.00  15.16700   2 ;     C5-    C7-    C2-    H2
     5      7      8      6      9   180.00  15.16700   2 ;     C5-    C7-    C8-    C6
     5      9      3     20      9   180.00  15.16700   2 ;     C5-    C9-    C3-    H3
     5      9     14     11      9     0.00   0.00000   0 ;     C5-    C9-   C14-   C11
     5      9     14     12      9   180.00   1.00416   2 ;     C5-    C9-   C14-   C12
     5      9     14     30      9     0.00   0.00000   0 ;     C5-    C9-   C14-   H13
     6     10      4     21      9   180.00  15.16700   2 ;     C6-   C10-    C4-    H4
     6     10     17     13      9   180.00   6.94544   2 ;     C6-   C10-    O3-   C13
     7      2      4     10      9   180.00  15.16700   2 ;     C7-    C2-    C4-   C10
     7      2      4     21      9   180.00  15.16700   2 ;     C7-    C2-    C4-    H4
     7      5      9     14      9   180.00  15.16700   2 ;     C7-    C5-    C9-   C14
     7      8      6     10      9   180.00  15.16700   2 ;     C7-    C8-    C6-   C10
     7      8      6     23      9   180.00  15.16700   2 ;     C7-    C8-    C6-    H6
     8      1      3      9      9   180.00  15.16700   2 ;     C8-    C1-    C3-    C9
     8      1      3     20      9   180.00  15.16700   2 ;     C8-    C1-    C3-    H3
     8      6     10     17      9   180.00  15.16700   2 ;     C8-    C6-   C10-    O3
     8      7      2     19      9   180.00  15.16700   2 ;     C8-    C7-    C2-    H2
     8      7      5      9      9   180.00  15.16700   2 ;     C8-    C7-    C5-    C9
     8      7      5     22      9   180.00  15.16700   2 ;     C8-    C7-    C5-    H5
     9     14     11     15      9   180.00   0.00000   2 ;     C9-   C14-   C11-    O1
     9     14     11     16      9   180.00   0.00000   2 ;     C9-   C14-   C11-    O2
     9     14     12     24      9     0.00   0.65084   3 ;     C9-   C14-   C12-    H7
     9     14     12     25      9     0.00   0.65084   3 ;     C9-   C14-   C12-    H8
     9     14     12     26      9     0.00   0.65084   3 ;     C9-   C14-   C12-    H9
    10      4      2     19      9   180.00  15.16700   2 ;    C10-    C4-    C2-    H2
    10     17     13     27      9     0.00   1.60387   3 ;    C10-    O3-   C13-   H10
    10     17     13     28      9     0.00   1.60387   3 ;    C10-    O3-   C13-   H11
    10     17     13     29      9     0.00   1.60387   3 ;    C10-    O3-   C13-   H12
    11     14     12     24      9     0.00   0.65084   3 ;    C11-   C14-   C12-    H7
    11     14     12     25      9     0.00   0.65084   3 ;    C11-   C14-   C12-    H8
    11     14     12     26      9     0.00   0.65084   3 ;    C11-   C14-   C12-    H9
    12     14     11     15      9     0.00   2.84512   1 ;    C12-   C14-   C11-    O1
    12     14     11     15      9   180.00   0.83680   2 ;    C12-   C14-   C11-    O1
    12     14     11     15      9   180.00   1.84096   3 ;    C12-   C14-   C11-    O1
    12     14     11     16      9   180.00   0.00000   2 ;    C12-   C14-   C11-    O2
    14      9      3     20      9   180.00  15.16700   2 ;    C14-    C9-    C3-    H3
    14      9      5     22      9   180.00  15.16700   2 ;    C14-    C9-    C5-    H5
    14     11     16     31      9   180.00   7.53120   2 ;    C14-   C11-    O2-   H14
    15     11     14     30      9     0.00  16.86152   1 ;     O1-   C11-   C14-   H13
    15     11     14     30      9   180.00  15.31344   2 ;     O1-   C11-   C14-   H13
    15     11     16     31      9     0.00   7.94960   1 ;     O1-   C11-    O2-   H14
    15     11     16     31      9   180.00   9.62320   2 ;     O1-   C11-    O2-   H14
    16     11     14     30      9   180.00   0.00000   2 ;     O2-   C11-   C14-   H13
    17     10      4     21      9   180.00  15.16700   2 ;     O3-   C10-    C4-    H4
    17     10      6     23      9   180.00  15.16700   2 ;     O3-   C10-    C6-    H6
    18      1      3      9      9   180.00  15.16700   2 ;     H1-    C1-    C3-    C9
    18      1      3     20      9   180.00  15.16700   2 ;     H1-    C1-    C3-    H3
    18      1      8      6      9   180.00  15.16700   2 ;     H1-    C1-    C8-    C6
    18      1      8      7      9   180.00  15.16700   2 ;     H1-    C1-    C8-    C7
    19      2      4     21      9   180.00  15.16700   2 ;     H2-    C2-    C4-    H4
    24     12     14     30      9     0.00   0.50208   3 ;     H7-   C12-   C14-   H13
    25     12     14     30      9     0.00   0.50208   3 ;     H8-   C12-   C14-   H13
    26     12     14     30      9     0.00   0.50208   3 ;     H9-   C12-   C14-   H13

[ dihedrals ] ; impropers
; treated as propers in GROMACS to use correct AMBER analytical function
;    i      j      k      l   func   phase     kd      pn
     1      6      8      7      4   180.00   4.60240   2 ;     C1-    C6-    C8-    C7
     1      9      3     20      4   180.00   4.60240   2 ;     C1-    C9-    C3-    H3
     2      5      7      8      4   180.00   4.60240   2 ;     C2-    C5-    C7-    C8
     2     10      4     21      4   180.00   4.60240   2 ;     C2-   C10-    C4-    H4
     3      5      9     14      4   180.00   4.60240   2 ;     C3-    C5-    C9-   C14
     4      6     10     17      4   180.00   4.60240   2 ;     C4-    C6-   C10-    O3
     4      7      2     19      4   180.00   4.60240   2 ;     C4-    C7-    C2-    H2
     7      9      5     22      4   180.00   4.60240   2 ;     C7-    C9-    C5-    H5
     8     10      6     23      4   180.00   4.60240   2 ;     C8-   C10-    C6-    H6
    14     15     11     16      4   180.00   4.60240   2 ;    C14-    O1-   C11-    O2
    18      1      8      3      4   180.00   4.60240   2 ;     H1-    C1-    C8-    C3
