mobley_2636578_GMX.gro created by acpype (v: 2023.10.27) on Thu May 14 13:33:06 2026
 2519
    1MOL     C1    1   1.431   1.477   1.526
    1MOL     C2    2   1.430   1.573   1.408
    1MOL     C3    3   1.520   1.356   1.500
    1MOL     N1    4   1.339   1.781   1.335
    1MOL     N2    5   1.599   1.155   1.598
    1MOL     O1    6   1.406   1.750   1.236
    1MOL     O2    7   1.655   1.149   1.488
    1MOL     O3    8   1.269   1.880   1.355
    1MOL     O4    9   1.604   1.075   1.692
    1MOL     O5   10   1.347   1.684   1.439
    1MOL     O6   11   1.519   1.271   1.613
    1MOL     H1   12   1.465   1.530   1.616
    1MOL     H2   13   1.329   1.445   1.548
    1MOL     H3   14   1.531   1.610   1.387
    1MOL     H4   15   1.391   1.524   1.318
    1MOL     H5   16   1.623   1.387   1.482
    1MOL     H6   17   1.485   1.299   1.413
    2SOL     OW   18   0.230   0.628   0.113
    2SOL    HW1   19   0.137   0.626   0.150
    2SOL    HW2   20   0.231   0.589   0.021
    3SOL     OW   21   0.225   0.275   0.996
    3SOL    HW1   22   0.260   0.258   1.088
    3SOL    HW2   23   0.137   0.230   0.984
    4SOL     OW   24   0.019   0.368   0.647
    4SOL    HW1   25  -0.063   0.411   0.686
    4SOL    HW2   26  -0.009   0.295   0.584
    5SOL     OW   27   0.569   1.275   1.165
    5SOL    HW1   28   0.476   1.268   1.128
    5SOL    HW2   29   0.580   1.364   1.209
    6SOL     OW   30   1.555   1.511   0.703
    6SOL    HW1   31   1.498   1.495   0.784
    6SOL    HW2   32   1.496   1.521   0.623
    7SOL     OW   33   1.135   0.703   0.717
    7SOL    HW1   34   1.192   0.781   0.692
    7SOL    HW2   35   1.075   0.729   0.793
    8SOL     OW   36   1.755   0.607   0.231
    8SOL    HW1   37   1.743   0.594   0.132
    8SOL    HW2   38   1.725   0.526   0.280
    9SOL     OW   39   0.768   1.144   1.023
    9SOL    HW1   40   0.690   1.161   1.083
    9SOL    HW2   41   0.802   1.231   0.987
   10SOL     OW   42   0.850   0.798   1.823
   10SOL    HW1   43   0.846   0.874   1.888
   10SOL    HW2   44   0.872   0.834   1.732
   11SOL     OW   45   0.685   1.012   0.665
   11SOL    HW1   46   0.754   0.996   0.735
   11SOL    HW2   47   0.612   1.069   0.703
   12SOL     OW   48   0.686   1.161   1.803
   12SOL    HW1   49   0.746   1.240   1.817
   12SOL    HW2   50   0.600   1.192   1.762
   13SOL     OW   51   0.335   1.435   1.061
   13SOL    HW1   52   0.257   1.404   1.008
   13SOL    HW2   53   0.393   1.493   1.004
   14SOL     OW   54   0.438   0.392   1.499
   14SOL    HW1   55   0.520   0.336   1.508
   14SOL    HW2   56   0.357   0.334   1.503
   15SOL     OW   57   1.603   0.447   0.737
   15SOL    HW1   58   1.529   0.493   0.687
   15SOL    HW2   59   1.654   0.515   0.790
   16SOL     OW   60   0.231   1.713   0.483
   16SOL    HW1   61   0.265   1.790   0.537
   16SOL    HW2   62   0.275   1.713   0.393
   17SOL     OW   63   1.127   1.341   1.690
   17SOL    HW1   64   1.174   1.341   1.778
   17SOL    HW2   65   1.079   1.254   1.679
   18SOL     OW   66   0.230   1.434   0.538
   18SOL    HW1   67   0.204   1.530   0.538
   18SOL    HW2   68   0.159   1.380   0.583
   19SOL     OW   69   0.240   1.091   0.886
   19SOL    HW1   70   0.254   1.007   0.938
   19SOL    HW2   71   0.185   1.155   0.941
   20SOL     OW   72   0.620   1.786   1.439
   20SOL    HW1   73   0.528   1.769   1.474
   20SOL    HW2   74   0.648   1.878   1.465
   21SOL     OW   75   0.606   0.964   0.123
   21SOL    HW1   76   0.613   1.048   0.069
   21SOL    HW2   77   0.652   0.977   0.211
   22SOL     OW   78   1.594   0.114   1.480
   22SOL    HW1   79   1.576   0.181   1.408
   22SOL    HW2   80   1.591   0.160   1.569
   23SOL     OW   81   0.122   0.643   0.563
   23SOL    HW1   82   0.077   0.555   0.580
   23SOL    HW2   83   0.121   0.697   0.647
   24SOL     OW   84   1.842   1.767   0.359
   24SOL    HW1   85   1.896   1.738   0.439
   24SOL    HW2   86   1.872   1.857   0.330
   25SOL     OW   87   0.027   1.596   0.117
   25SOL    HW1   88   0.008   1.500   0.138
   25SOL    HW2   89  -0.006   1.654   0.192
   26SOL     OW   90   1.689   0.922   0.612
   26SOL    HW1   91   1.784   0.893   0.620
   26SOL    HW2   92   1.681   0.987   0.537
   27SOL     OW   93   1.641   1.108   0.432
   27SOL    HW1   94   1.727   1.110   0.380
   27SOL    HW2   95   1.655   1.155   0.520
   28SOL     OW   96   0.113   0.737   1.597
   28SOL    HW1   97   0.201   0.724   1.642
   28SOL    HW2   98   0.100   0.834   1.575
   29SOL     OW   99   0.613   1.365   0.726
   29SOL    HW1  100   0.564   1.278   0.735
   29SOL    HW2  101   0.590   1.408   0.639
   30SOL     OW  102   1.293   1.228   1.423
   30SOL    HW1  103   1.330   1.155   1.365
   30SOL    HW2  104   1.345   1.233   1.508
   31SOL     OW  105   0.809   0.004   0.502
   31SOL    HW1  106   0.849   0.095   0.493
   31SOL    HW2  107   0.709   0.012   0.508
   32SOL     OW  108   0.197   0.976   1.264
   32SOL    HW1  109   0.286   0.931   1.250
   32SOL    HW2  110   0.124   0.911   1.245
   33SOL     OW  111   1.525   0.999   0.190
   33SOL    HW1  112   1.462   0.923   0.203
   33SOL    HW2  113   1.573   1.017   0.276
   34SOL     OW  114   1.187   1.792   1.616
   34SOL    HW1  115   1.211   1.852   1.540
   34SOL    HW2  116   1.194   1.697   1.586
   35SOL     OW  117   0.317   0.251   1.801
   35SOL    HW1  118   0.388   0.322   1.807
   35SOL    HW2  119   0.229   0.290   1.829
   36SOL     OW  120   1.466   1.417   0.953
   36SOL    HW1  121   1.407   1.423   1.033
   36SOL    HW2  122   1.451   1.329   0.907
   37SOL     OW  123   1.667   1.714   0.572
   37SOL    HW1  124   1.626   1.691   0.484
   37SOL    HW2  125   1.649   1.640   0.637
   38SOL     OW  126   0.598   0.729   0.270
   38SOL    HW1  127   0.622   0.798   0.202
   38SOL    HW2  128   0.520   0.762   0.324
   39SOL     OW  129   1.281   0.345   0.944
   39SOL    HW1  130   1.195   0.295   0.931
   39SOL    HW2  131   1.343   0.291   1.000
   40SOL     OW  132   1.576   1.662   0.307
   40SOL    HW1  133   1.665   1.708   0.310
   40SOL    HW2  134   1.555   1.638   0.212
   41SOL     OW  135   0.807   0.605   1.465
   41SOL    HW1  136   0.760   0.602   1.554
   41SOL    HW2  137   0.756   0.550   1.399
   42SOL     OW  138   1.394   0.469   1.674
   42SOL    HW1  139   1.374   0.512   1.762
   42SOL    HW2  140   1.472   0.407   1.683
   43SOL     OW  141   0.973   0.890   1.572
   43SOL    HW1  142   1.019   0.806   1.543
   43SOL    HW2  143   0.917   0.924   1.497
   44SOL     OW  144   0.991   0.410   1.242
   44SOL    HW1  145   0.914   0.444   1.296
   44SOL    HW2  146   0.957   0.359   1.163
   45SOL     OW  147   1.041   0.701   0.429
   45SOL    HW1  148   1.067   0.697   0.525
   45SOL    HW2  149   0.956   0.650   0.415
   46SOL     OW  150   0.076   0.811   0.789
   46SOL    HW1  151   0.175   0.799   0.798
   46SOL    HW2  152   0.052   0.906   0.810
   47SOL     OW  153   0.130   1.821   1.571
   47SOL    HW1  154   0.120   1.806   1.670
   47SOL    HW2  155   0.044   1.857   1.535
   48SOL     OW  156   0.865   0.348   0.195
   48SOL    HW1  157   0.924   0.411   0.146
   48SOL    HW2  158   0.884   0.254   0.166
   49SOL     OW  159   1.719   0.585   1.831
   49SOL    HW1  160   1.693   0.674   1.795
   49SOL    HW2  161   1.717   0.517   1.758
   50SOL     OW  162   1.362   1.144   0.545
   50SOL    HW1  163   1.445   1.115   0.497
   50SOL    HW2  164   1.313   1.211   0.489
   51SOL     OW  165   0.550   0.196   0.885
   51SOL    HW1  166   0.545   0.191   0.985
   51SOL    HW2  167   0.552   0.292   0.856
   52SOL     OW  168   1.008   1.456   0.477
   52SOL    HW1  169   0.962   1.528   0.425
   52SOL    HW2  170   1.004   1.476   0.575
   53SOL     OW  171   0.351   1.801   0.853
   53SOL    HW1  172   0.401   1.715   0.859
   53SOL    HW2  173   0.416   1.878   0.850
   54SOL     OW  174   1.795   1.066   0.873
   54SOL    HW1  175   1.733   1.051   0.797
   54SOL    HW2  176   1.743   1.077   0.958
   55SOL     OW  177   0.321   0.943   0.242
   55SOL    HW1  178   0.403   0.982   0.200
   55SOL    HW2  179   0.294   0.861   0.193
   56SOL     OW  180   1.458   0.735   0.728
   56SOL    HW1  181   1.453   0.670   0.803
   56SOL    HW2  182   1.538   0.794   0.741
   57SOL     OW  183   0.461   1.266   1.727
   57SOL    HW1  184   0.411   1.267   1.641
   57SOL    HW2  185   0.398   1.248   1.803
   58SOL     OW  186   1.111   1.776   0.237
   58SOL    HW1  187   1.051   1.714   0.287
   58SOL    HW2  188   1.142   1.732   0.152
   59SOL     OW  189   0.202   0.285   1.498
   59SOL    HW1  190   0.122   0.345   1.485
   59SOL    HW2  191   0.192   0.236   1.584
   60SOL     OW  192   1.632   1.377   0.081
   60SOL    HW1  193   1.600   1.471   0.071
   60SOL    HW2  194   1.556   1.314   0.069
   61SOL     OW  195   0.464   1.743   0.323
   61SOL    HW1  196   0.497   1.782   0.409
   61SOL    HW2  197   0.540   1.736   0.258
   62SOL     OW  198   1.400   0.107   0.426
   62SOL    HW1  199   1.376   0.070   0.336
   62SOL    HW2  200   1.499   0.123   0.430
   63SOL     OW  201   0.249   1.785   1.241
   63SOL    HW1  202   0.306   1.720   1.291
   63SOL    HW2  203   0.233   1.752   1.148
   64SOL     OW  204   0.940   1.698   0.904
   64SOL    HW1  205   1.020   1.641   0.925
   64SOL    HW2  206   0.891   1.658   0.827
   65SOL     OW  207   0.382   0.700   0.480
   65SOL    HW1  208   0.427   0.610   0.477
   65SOL    HW2  209   0.288   0.689   0.513
   66SOL     OW  210   1.547   0.222   1.729
   66SOL    HW1  211   1.542   0.259   1.821
   66SOL    HW2  212   1.475   0.153   1.717
   67SOL     OW  213   0.614   0.122   0.117
   67SOL    HW1  214   0.712   0.100   0.124
   67SOL    HW2  215   0.583   0.105   0.024
   68SOL     OW  216   0.781   0.264   1.749
   68SOL    HW1  217   0.848   0.203   1.792
   68SOL    HW2  218   0.708   0.283   1.814
   69SOL     OW  219   0.888   1.514   1.195
   69SOL    HW1  220   0.865   1.489   1.101
   69SOL    HW2  221   0.949   1.445   1.234
   70SOL     OW  222   1.351   0.590   1.433
   70SOL    HW1  223   1.379   0.547   1.518
   70SOL    HW2  224   1.376   0.686   1.434
   71SOL     OW  225   0.803   1.402   0.924
   71SOL    HW1  226   0.893   1.416   0.882
   71SOL    HW2  227   0.732   1.404   0.853
   72SOL     OW  228   0.922   0.503   0.899
   72SOL    HW1  229   0.897   0.494   0.803
   72SOL    HW2  230   0.970   0.421   0.930
   73SOL     OW  231   0.539   0.064   0.512
   73SOL    HW1  232   0.458   0.065   0.570
   73SOL    HW2  233   0.542   0.147   0.457
   74SOL     OW  234   1.434   1.188   0.041
   74SOL    HW1  235   1.466   1.112   0.098
   74SOL    HW2  236   1.342   1.215   0.071
   75SOL     OW  237   0.297   0.035   0.171
   75SOL    HW1  238   0.346   0.119   0.150
   75SOL    HW2  239   0.359  -0.030   0.216
   76SOL     OW  240   0.935   0.236   0.480
   76SOL    HW1  241   0.887   0.277   0.402
   76SOL    HW2  242   1.034   0.234   0.461
   77SOL     OW  243   1.076   0.683   1.464
   77SOL    HW1  244   0.996   0.622   1.467
   77SOL    HW2  245   1.157   0.630   1.440
   78SOL     OW  246   1.227   1.570   0.793
   78SOL    HW1  247   1.248   1.644   0.728
   78SOL    HW2  248   1.295   1.570   0.866
   79SOL     OW  249   0.459   1.152   0.741
   79SOL    HW1  250   0.388   1.125   0.806
   79SOL    HW2  251   0.433   1.124   0.648
   80SOL     OW  252   1.271   1.797   0.591
   80SOL    HW1  253   1.315   1.861   0.527
   80SOL    HW2  254   1.221   1.849   0.661
   81SOL     OW  255   1.032   0.549   0.016
   81SOL    HW1  256   0.991   0.631  -0.023
   81SOL    HW2  257   1.096   0.575   0.089
   82SOL     OW  258   0.078   0.556   1.386
   82SOL    HW1  259   0.170   0.555   1.345
   82SOL    HW2  260   0.072   0.630   1.453
   83SOL     OW  261   0.561   0.222   1.147
   83SOL    HW1  262   0.599   0.138   1.184
   83SOL    HW2  263   0.473   0.241   1.191
   84SOL     OW  264   0.866   0.454   0.642
   84SOL    HW1  265   0.834   0.526   0.580
   84SOL    HW2  266   0.890   0.373   0.589
   85SOL     OW  267   1.017   0.039   0.753
   85SOL    HW1  268   0.945   0.044   0.684
   85SOL    HW2  269   0.993  -0.030   0.822
   86SOL     OW  270   1.429   1.173   0.867
   86SOL    HW1  271   1.374   1.089   0.860
   86SOL    HW2  272   1.455   1.202   0.775
   87SOL     OW  273   1.466   0.590   0.992
   87SOL    HW1  274   1.436   0.495   0.999
   87SOL    HW2  275   1.539   0.606   1.058
   88SOL     OW  276   1.857   0.833   0.377
   88SOL    HW1  277   1.899   0.769   0.441
   88SOL    HW2  278   1.819   0.782   0.299
   89SOL     OW  279   0.488   1.385   0.174
   89SOL    HW1  280   0.401   1.370   0.221
   89SOL    HW2  281   0.471   1.411   0.079
   90SOL     OW  282   1.664   1.280   0.657
   90SOL    HW1  283   1.763   1.288   0.671
   90SOL    HW2  284   1.619   1.364   0.688
   91SOL     OW  285   1.390   0.575   0.078
   91SOL    HW1  286   1.336   0.554   0.159
   91SOL    HW2  287   1.481   0.534   0.087
   92SOL     OW  288   0.527   0.256   0.328
   92SOL    HW1  289   0.554   0.197   0.253
   92SOL    HW2  290   0.527   0.351   0.297
   93SOL     OW  291   1.064   1.347   1.340
   93SOL    HW1  292   0.984   1.324   1.395
   93SOL    HW2  293   1.147   1.321   1.389
   94SOL     OW  294   1.592   1.629   1.625
   94SOL    HW1  295   1.619   1.663   1.535
   94SOL    HW2  296   1.671   1.591   1.671
   95SOL     OW  297   1.111   1.195   1.100
   95SOL    HW1  298   1.071   1.239   1.181
   95SOL    HW2  299   1.070   1.232   1.017
   96SOL     OW  300   1.638   1.099   1.079
   96SOL    HW1  301   1.643   1.180   1.138
   96SOL    HW2  302   1.552   1.101   1.028
   97SOL     OW  303   0.915   0.089   1.402
   97SOL    HW1  304   0.940   0.069   1.307
   97SOL    HW2  305   0.987   0.145   1.444
   98SOL     OW  306   0.980   1.116   1.719
   98SOL    HW1  307   0.881   1.122   1.729
   98SOL    HW2  308   1.003   1.036   1.663
   99SOL     OW  309   0.705   1.050   0.368
   99SOL    HW1  310   0.691   1.057   0.467
   99SOL    HW2  311   0.789   0.999   0.350
  100SOL     OW  312   0.410   0.813   1.251
  100SOL    HW1  313   0.496   0.825   1.301
  100SOL    HW2  314   0.368   0.726   1.278
  101SOL     OW  315   1.274   0.386   1.262
  101SOL    HW1  316   1.295   0.460   1.326
  101SOL    HW2  317   1.185   0.403   1.219
  102SOL     OW  318   0.064   1.564   1.331
  102SOL    HW1  319   0.018   1.646   1.297
  102SOL    HW2  320   0.162   1.583   1.340
  103SOL     OW  321   0.367   1.100   0.501
  103SOL    HW1  322   0.360   1.183   0.445
  103SOL    HW2  323   0.371   1.020   0.441
  104SOL     OW  324   0.566   0.537   0.865
  104SOL    HW1  325   0.578   0.603   0.791
  104SOL    HW2  326   0.612   0.571   0.948
  105SOL     OW  327   1.252   1.348   0.388
  105SOL    HW1  328   1.302   1.425   0.428
  105SOL    HW2  329   1.157   1.350   0.420
  106SOL     OW  330   1.582   0.639   0.472
  106SOL    HW1  331   1.551   0.700   0.545
  106SOL    HW2  332   1.632   0.691   0.403
  107SOL     OW  333   0.354   1.510   1.329
  107SOL    HW1  334   0.333   1.466   1.242
  107SOL    HW2  335   0.451   1.536   1.332
  108SOL     OW  336   0.402   0.751   1.598
  108SOL    HW1  337   0.470   0.806   1.551
  108SOL    HW2  338   0.442   0.663   1.625
  109SOL     OW  339   1.587   0.779   1.670
  109SOL    HW1  340   1.495   0.817   1.665
  109SOL    HW2  341   1.647   0.826   1.605
  110SOL     OW  342   1.013   0.105   1.770
  110SOL    HW1  343   1.019   0.190   1.718
  110SOL    HW2  344   1.045   0.029   1.713
  111SOL     OW  345   0.504   0.050   1.740
  111SOL    HW1  346   0.462  -0.007   1.670
  111SOL    HW2  347   0.438   0.119   1.772
  112SOL     OW  348   0.573   0.870   1.029
  112SOL    HW1  349   0.617   0.959   1.020
  112SOL    HW2  350   0.510   0.870   1.106
  113SOL     OW  351   1.360   0.862   1.045
  113SOL    HW1  352   1.285   0.862   0.979
  113SOL    HW2  353   1.397   0.770   1.054
  114SOL     OW  354   1.209   0.525   0.275
  114SOL    HW1  355   1.222   0.441   0.329
  114SOL    HW2  356   1.180   0.599   0.335
  115SOL     OW  357   0.307   0.213   1.231
  115SOL    HW1  358   0.284   0.250   1.321
  115SOL    HW2  359   0.277   0.118   1.225
  116SOL     OW  360   0.037   1.310   1.282
  116SOL    HW1  361   0.090   1.261   1.350
  116SOL    HW2  362   0.059   1.408   1.287
  117SOL     OW  363   0.732   0.634   1.064
  117SOL    HW1  364   0.791   0.608   0.988
  117SOL    HW2  365   0.704   0.730   1.053
  118SOL     OW  366   1.728   0.935   1.854
  118SOL    HW1  367   1.682   0.928   1.765
  118SOL    HW2  368   1.666   0.979   1.920
  119SOL     OW  369   0.307   0.063   0.618
  119SOL    HW1  370   0.296   0.157   0.651
  119SOL    HW2  371   0.302   0.000   0.695
  120SOL     OW  372   1.622   0.367   0.374
  120SOL    HW1  373   1.624   0.291   0.438
  120SOL    HW2  374   1.574   0.444   0.414
  121SOL     OW  375   1.023   0.766   0.966
  121SOL    HW1  376   1.038   0.787   1.062
  121SOL    HW2  377   0.993   0.671   0.957
  122SOL     OW  378   0.980   1.573   1.700
  122SOL    HW1  379   0.960   1.617   1.612
  122SOL    HW2  380   1.019   1.482   1.684
  123SOL     OW  381   1.859   1.518   1.605
  123SOL    HW1  382   1.873   1.545   1.510
  123SOL    HW2  383   1.942   1.540   1.658
  124SOL     OW  384   0.350   0.898   1.804
  124SOL    HW1  385   0.426   0.942   1.852
  124SOL    HW2  386   0.385   0.851   1.722
  125SOL     OW  387   1.540   0.274   0.125
  125SOL    HW1  388   1.479   0.199   0.148
  125SOL    HW2  389   1.562   0.326   0.208
  126SOL     OW  390   1.303   0.838   0.042
  126SOL    HW1  391   1.337   0.745   0.057
  126SOL    HW2  392   1.321   0.865  -0.053
  127SOL     OW  393   1.068   1.333   0.849
  127SOL    HW1  394   1.075   1.249   0.794
  127SOL    HW2  395   1.130   1.402   0.813
  128SOL     OW  396   0.319   0.810   0.949
  128SOL    HW1  397   0.412   0.846   0.954
  128SOL    HW2  398   0.313   0.725   1.001
  129SOL     OW  399   0.339   0.509   1.006
  129SOL    HW1  400   0.287   0.426   0.989
  129SOL    HW2  401   0.416   0.514   0.942
  130SOL     OW  402   1.138   0.380   1.678
  130SOL    HW1  403   1.093   0.443   1.742
  130SOL    HW2  404   1.231   0.411   1.661
  131SOL     OW  405   1.160   0.207   1.477
  131SOL    HW1  406   1.160   0.271   1.554
  131SOL    HW2  407   1.188   0.255   1.394
  132SOL     OW  408   0.008   1.326   0.200
  132SOL    HW1  409  -0.085   1.347   0.169
  132SOL    HW2  410   0.018   1.227   0.213
  133SOL     OW  411   0.088   1.801   0.927
  133SOL    HW1  412   0.046   1.715   0.900
  133SOL    HW2  413   0.182   1.804   0.893
  134SOL     OW  414   0.504   1.568   0.910
  134SOL    HW1  415   0.570   1.642   0.919
  134SOL    HW2  416   0.548   1.489   0.868
  135SOL     OW  417   1.002   0.796   1.238
  135SOL    HW1  418   1.043   0.764   1.324
  135SOL    HW2  419   0.906   0.769   1.235
  136SOL     OW  420   0.040   0.544   1.114
  136SOL    HW1  421   0.125   0.511   1.073
  136SOL    HW2  422   0.053   0.559   1.212
  137SOL     OW  423   0.189   0.520   1.722
  137SOL    HW1  424   0.248   0.480   1.652
  137SOL    HW2  425   0.131   0.591   1.681
  138SOL     OW  426   1.369   0.950   1.660
  138SOL    HW1  427   1.408   1.039   1.680
  138SOL    HW2  428   1.379   0.930   1.563
  139SOL     OW  429   0.815   0.572   0.325
  139SOL    HW1  430   0.822   0.483   0.279
  139SOL    HW2  431   0.721   0.606   0.317
  140SOL     OW  432   1.657   0.604   1.206
  140SOL    HW1  433   1.619   0.535   1.268
  140SOL    HW2  434   1.739   0.568   1.162
  141SOL     OW  435   0.252   1.564   1.744
  141SOL    HW1  436   0.222   1.621   1.820
  141SOL    HW2  437   0.245   1.467   1.770
  142SOL     OW  438   0.671   0.464   1.269
  142SOL    HW1  439   0.637   0.375   1.239
  142SOL    HW2  440   0.697   0.518   1.189
  143SOL     OW  441   0.930   1.678   1.465
  143SOL    HW1  442   0.906   1.660   1.370
  143SOL    HW2  443   0.960   1.772   1.475
  144SOL     OW  444   0.473   0.500   0.191
  144SOL    HW1  445   0.534   0.580   0.195
  144SOL    HW2  446   0.378   0.531   0.198
  145SOL     OW  447   0.159   1.137   1.466
  145SOL    HW1  448   0.181   1.076   1.542
  145SOL    HW2  449   0.169   1.088   1.380
  146SOL     OW  450   1.347   1.059   1.234
  146SOL    HW1  451   1.371   0.996   1.160
  146SOL    HW2  452   1.257   1.099   1.216
  147SOL     OW  453   1.302   0.855   0.309
  147SOL    HW1  454   1.216   0.824   0.351
  147SOL    HW2  455   1.298   0.841   0.210
  148SOL     OW  456   1.759   1.747   1.154
  148SOL    HW1  457   1.820   1.777   1.081
  148SOL    HW2  458   1.721   1.658   1.132
  149SOL     OW  459   1.252   1.731   1.128
  149SOL    HW1  460   1.336   1.736   1.074
  149SOL    HW2  461   1.229   1.635   1.146
  150SOL     OW  462   0.083   1.258   1.022
  150SOL    HW1  463   0.078   1.257   1.122
  150SOL    HW2  464   0.000   1.217   0.984
  151SOL     OW  465   0.688   1.662   1.716
  151SOL    HW1  466   0.632   1.743   1.725
  151SOL    HW2  467   0.740   1.666   1.630
  152SOL     OW  468   0.903   0.086   0.133
  152SOL    HW1  469   0.954   0.087   0.047
  152SOL    HW2  470   0.959   0.044   0.204
  153SOL     OW  471   1.726   0.135   0.523
  153SOL    HW1  472   1.799   0.118   0.456
  153SOL    HW2  473   1.695   0.048   0.561
  154SOL     OW  474   1.388   1.573   0.477
  154SOL    HW1  475   1.455   1.585   0.403
  154SOL    HW2  476   1.348   1.662   0.500
  155SOL     OW  477   0.130   1.794   1.851
  155SOL    HW1  478   0.089   1.720   1.904
  155SOL    HW2  479   0.194   1.845   1.909
  156SOL     OW  480   1.280   0.927   0.672
  156SOL    HW1  481   1.340   0.846   0.674
  156SOL    HW2  482   1.320   0.996   0.612
  157SOL     OW  483   0.830   1.273   1.422
  157SOL    HW1  484   0.825   1.306   1.517
  157SOL    HW2  485   0.744   1.292   1.376
  158SOL     OW  486   0.672   1.616   0.154
  158SOL    HW1  487   0.681   1.626   0.055
  158SOL    HW2  488   0.632   1.527   0.175
  159SOL     OW  489   1.650   1.720   1.394
  159SOL    HW1  490   1.703   1.730   1.310
  159SOL    HW2  491   1.623   1.810   1.428
  160SOL     OW  492   1.841   0.175   0.963
  160SOL    HW1  493   1.880   0.090   0.927
  160SOL    HW2  494   1.743   0.177   0.944
  161SOL     OW  495   0.263   0.326   0.720
  161SOL    HW1  496   0.184   0.377   0.686
  161SOL    HW2  497   0.254   0.311   0.818
  162SOL     OW  498   1.194   1.612   0.031
  162SOL    HW1  499   1.200   1.519   0.068
  162SOL    HW2  500   1.135   1.612  -0.049
  163SOL     OW  501   0.822   1.002   1.372
  163SOL    HW1  502   0.862   1.001   1.280
  163SOL    HW2  503   0.832   1.094   1.412
  164SOL     OW  504   0.916   0.910   0.291
  164SOL    HW1  505   0.979   0.948   0.223
  164SOL    HW2  506   0.956   0.827   0.330
  165SOL     OW  507   1.504   1.607   0.044
  165SOL    HW1  508   1.412   1.644   0.051
  165SOL    HW2  509   1.542   1.627  -0.046
  166SOL     OW  510   0.372   1.288   1.490
  166SOL    HW1  511   0.359   1.381   1.456
  166SOL    HW2  512   0.288   1.236   1.477
  167SOL     OW  513   1.039   1.098   0.696
  167SOL    HW1  514   0.969   1.051   0.750
  167SOL    HW2  515   1.098   1.030   0.653
  168SOL     OW  516   1.014   0.236   0.971
  168SOL    HW1  517   1.006   0.200   0.878
  168SOL    HW2  518   1.012   0.160   1.036
  169SOL     OW  519   0.590   1.487   0.491
  169SOL    HW1  520   0.632   1.429   0.421
  169SOL    HW2  521   0.546   1.566   0.447
  170SOL     OW  522   1.709   0.385   1.381
  170SOL    HW1  523   1.782   0.454   1.385
  170SOL    HW2  524   1.737   0.310   1.322
  171SOL     OW  525   0.255   1.348   0.290
  171SOL    HW1  526   0.159   1.349   0.263
  171SOL    HW2  527   0.267   1.401   0.374
  172SOL     OW  528   0.105   1.013   1.726
  172SOL    HW1  529   0.028   0.980   1.780
  172SOL    HW2  530   0.190   0.983   1.768
  173SOL     OW  531   0.672   0.203   1.489
  173SOL    HW1  532   0.762   0.187   1.449
  173SOL    HW2  533   0.680   0.208   1.588
  174SOL     OW  534   0.075   0.345   0.033
  174SOL    HW1  535  -0.017   0.317   0.004
  174SOL    HW2  536   0.106   0.422  -0.023
  175SOL     OW  537   1.440   0.856   1.398
  175SOL    HW1  538   1.383   0.908   1.335
  175SOL    HW2  539   1.536   0.868   1.374
  176SOL     OW  540   0.072   0.166   0.318
  176SOL    HW1  541   0.055   0.249   0.264
  176SOL    HW2  542   0.162   0.129   0.296
  177SOL     OW  543   1.183   1.335   0.119
  177SOL    HW1  544   1.084   1.324   0.121
  177SOL    HW2  545   1.217   1.350   0.212
  178SOL     OW  546   0.613   0.842   1.431
  178SOL    HW1  547   0.669   0.923   1.414
  178SOL    HW2  548   0.672   0.762   1.434
  179SOL     OW  549   1.493   1.767   0.959
  179SOL    HW1  550   1.526   1.831   0.890
  179SOL    HW2  551   1.559   1.761   1.034
  180SOL     OW  552   0.716   0.565   1.708
  180SOL    HW1  553   0.735   0.630   1.782
  180SOL    HW2  554   0.776   0.485   1.717
  181SOL     OW  555   0.390   1.741   1.560
  181SOL    HW1  556   0.299   1.782   1.558
  181SOL    HW2  557   0.383   1.647   1.592
  182SOL     OW  558   1.674   0.883   1.254
  182SOL    HW1  559   1.647   0.794   1.217
  182SOL    HW2  560   1.675   0.951   1.181
  183SOL     OW  561   1.225   0.325   0.449
  183SOL    HW1  562   1.290   0.251   0.438
  183SOL    HW2  563   1.245   0.375   0.533
  184SOL     OW  564   0.594   0.745   0.652
  184SOL    HW1  565   0.644   0.830   0.633
  184SOL    HW2  566   0.506   0.747   0.604
  185SOL     OW  567   1.777   0.342   1.642
  185SOL    HW1  568   1.760   0.373   1.548
  185SOL    HW2  569   1.693   0.305   1.680
  186SOL     OW  570   1.730   0.934   1.517
  186SOL    HW1  571   1.768   1.025   1.532
  186SOL    HW2  572   1.722   0.917   1.418
  187SOL     OW  573   0.859   1.374   0.016
  187SOL    HW1  574   0.813   1.389   0.104
  187SOL    HW2  575   0.903   1.459  -0.014
  188SOL     OW  576   0.661   1.790   0.953
  188SOL    HW1  577   0.615   1.878   0.940
  188SOL    HW2  578   0.760   1.802   0.946
  189SOL     OW  579   0.859   0.956   0.861
  189SOL    HW1  580   0.913   0.887   0.909
  189SOL    HW2  581   0.827   1.025   0.927
  190SOL     OW  582   1.083   0.984   0.087
  190SOL    HW1  583   1.060   1.037   0.005
  190SOL    HW2  584   1.164   0.928   0.068
  191SOL     OW  585   1.861   1.569   0.851
  191SOL    HW1  586   1.790   1.557   0.781
  191SOL    HW2  587   1.862   1.490   0.911
  192SOL     OW  588   0.221   1.314   1.844
  192SOL    HW1  589   0.156   1.241   1.823
  192SOL    HW2  590   0.225   1.328   1.942
  193SOL     OW  591   0.079   1.240   0.653
  193SOL    HW1  592   0.078   1.193   0.741
  193SOL    HW2  593   0.161   1.212   0.602
  194SOL     OW  594   0.672   1.391   1.624
  194SOL    HW1  595   0.594   1.341   1.662
  194SOL    HW2  596   0.669   1.486   1.655
  195SOL     OW  597   1.824   0.192   1.227
  195SOL    HW1  598   1.820   0.102   1.271
  195SOL    HW2  599   1.827   0.181   1.128
  196SOL     OW  600   0.428   0.424   0.520
  196SOL    HW1  601   0.458   0.352   0.458
  196SOL    HW2  602   0.389   0.384   0.603
  197SOL     OW  603   1.705   1.487   1.104
  197SOL    HW1  604   1.612   1.462   1.077
  197SOL    HW2  605   1.731   1.437   1.186
  198SOL     OW  606   0.317   0.547   1.280
  198SOL    HW1  607   0.355   0.488   1.352
  198SOL    HW2  608   0.357   0.521   1.192
  199SOL     OW  609   0.812   1.586   0.687
  199SOL    HW1  610   0.844   1.596   0.593
  199SOL    HW2  611   0.733   1.524   0.689
  200SOL     OW  612   1.424   0.214   1.112
  200SOL    HW1  613   1.476   0.149   1.167
  200SOL    HW2  614   1.375   0.277   1.173
  201SOL     OW  615   1.001   0.034   1.154
  201SOL    HW1  616   0.938  -0.038   1.123
  201SOL    HW2  617   1.094  -0.002   1.154
  202SOL     OW  618   0.770   1.330   0.301
  202SOL    HW1  619   0.724   1.243   0.318
  202SOL    HW2  620   0.861   1.327   0.342
  203SOL     OW  621   0.618   1.567   1.284
  203SOL    HW1  622   0.613   1.649   1.341
  203SOL    HW2  623   0.707   1.564   1.239
  204SOL     OW  624   1.352   0.052   0.168
  204SOL    HW1  625   1.387   0.011   0.084
  204SOL    HW2  626   1.262   0.014   0.188
  205SOL     OW  627   1.300   0.453   0.691
  205SOL    HW1  628   1.241   0.533   0.695
  205SOL    HW2  629   1.315   0.418   0.784
  206SOL     OW  630   1.593   0.221   0.882
  206SOL    HW1  631   1.509   0.220   0.936
  206SOL    HW2  632   1.595   0.304   0.826
  207SOL     OW  633   0.039   1.077   0.300
  207SOL    HW1  634   0.138   1.066   0.291
  207SOL    HW2  635  -0.001   0.991   0.332
  208SOL     OW  636   0.875   1.646   0.337
  208SOL    HW1  637   0.798   1.611   0.283
  208SOL    HW2  638   0.843   1.717   0.399
  209SOL     OW  639   0.230   0.628   1.975
  209SOL    HW1  640   0.137   0.626   2.012
  209SOL    HW2  641   0.231   0.589   1.883
  210SOL     OW  642   0.225   0.275   2.858
  210SOL    HW1  643   0.260   0.258   2.950
  210SOL    HW2  644   0.137   0.230   2.846
  211SOL     OW  645   0.019   0.368   2.509
  211SOL    HW1  646  -0.063   0.411   2.548
  211SOL    HW2  647  -0.009   0.295   2.446
  212SOL     OW  648   1.555   1.511   2.565
  212SOL    HW1  649   1.498   1.495   2.646
  212SOL    HW2  650   1.496   1.521   2.485
  213SOL     OW  651   1.135   0.703   2.579
  213SOL    HW1  652   1.192   0.781   2.554
  213SOL    HW2  653   1.075   0.729   2.655
  214SOL     OW  654   1.755   0.607   2.093
  214SOL    HW1  655   1.743   0.594   1.994
  214SOL    HW2  656   1.725   0.526   2.142
  215SOL     OW  657   0.768   1.144   2.885
  215SOL    HW1  658   0.690   1.161   2.945
  215SOL    HW2  659   0.802   1.231   2.849
  216SOL     OW  660   0.685   1.012   2.527
  216SOL    HW1  661   0.754   0.996   2.597
  216SOL    HW2  662   0.612   1.069   2.565
  217SOL     OW  663   0.335   1.435   2.923
  217SOL    HW1  664   0.257   1.404   2.870
  217SOL    HW2  665   0.393   1.493   2.866
  218SOL     OW  666   1.603   0.447   2.599
  218SOL    HW1  667   1.529   0.493   2.549
  218SOL    HW2  668   1.654   0.515   2.652
  219SOL     OW  669   0.231   1.713   2.345
  219SOL    HW1  670   0.265   1.790   2.399
  219SOL    HW2  671   0.275   1.713   2.255
  220SOL     OW  672   0.230   1.434   2.400
  220SOL    HW1  673   0.204   1.530   2.400
  220SOL    HW2  674   0.159   1.380   2.445
  221SOL     OW  675   0.240   1.091   2.748
  221SOL    HW1  676   0.254   1.007   2.800
  221SOL    HW2  677   0.185   1.155   2.803
  222SOL     OW  678   0.606   0.964   1.985
  222SOL    HW1  679   0.613   1.048   1.931
  222SOL    HW2  680   0.652   0.977   2.073
  223SOL     OW  681   0.122   0.643   2.425
  223SOL    HW1  682   0.077   0.555   2.442
  223SOL    HW2  683   0.121   0.697   2.509
  224SOL     OW  684   1.842   1.767   2.221
  224SOL    HW1  685   1.896   1.738   2.301
  224SOL    HW2  686   1.872   1.857   2.192
  225SOL     OW  687   0.027   1.596   1.979
  225SOL    HW1  688   0.008   1.500   2.000
  225SOL    HW2  689  -0.006   1.654   2.054
  226SOL     OW  690   1.689   0.922   2.474
  226SOL    HW1  691   1.784   0.893   2.482
  226SOL    HW2  692   1.681   0.987   2.399
  227SOL     OW  693   1.641   1.108   2.294
  227SOL    HW1  694   1.727   1.110   2.242
  227SOL    HW2  695   1.655   1.155   2.382
  228SOL     OW  696   0.613   1.365   2.588
  228SOL    HW1  697   0.564   1.278   2.597
  228SOL    HW2  698   0.590   1.408   2.501
  229SOL     OW  699   0.809   0.004   2.364
  229SOL    HW1  700   0.849   0.095   2.355
  229SOL    HW2  701   0.709   0.012   2.370
  230SOL     OW  702   1.525   0.999   2.052
  230SOL    HW1  703   1.462   0.923   2.065
  230SOL    HW2  704   1.573   1.017   2.138
  231SOL     OW  705   1.466   1.417   2.815
  231SOL    HW1  706   1.407   1.423   2.895
  231SOL    HW2  707   1.451   1.329   2.769
  232SOL     OW  708   1.667   1.714   2.434
  232SOL    HW1  709   1.626   1.691   2.346
  232SOL    HW2  710   1.649   1.640   2.499
  233SOL     OW  711   0.598   0.729   2.132
  233SOL    HW1  712   0.622   0.798   2.064
  233SOL    HW2  713   0.520   0.762   2.186
  234SOL     OW  714   1.281   0.345   2.806
  234SOL    HW1  715   1.195   0.295   2.793
  234SOL    HW2  716   1.343   0.291   2.862
  235SOL     OW  717   1.576   1.662   2.169
  235SOL    HW1  718   1.665   1.708   2.172
  235SOL    HW2  719   1.555   1.638   2.074
  236SOL     OW  720   1.041   0.701   2.291
  236SOL    HW1  721   1.067   0.697   2.387
  236SOL    HW2  722   0.956   0.650   2.277
  237SOL     OW  723   0.076   0.811   2.651
  237SOL    HW1  724   0.175   0.799   2.660
  237SOL    HW2  725   0.052   0.906   2.672
  238SOL     OW  726   0.865   0.348   2.057
  238SOL    HW1  727   0.924   0.411   2.008
  238SOL    HW2  728   0.884   0.254   2.028
  239SOL     OW  729   1.362   1.144   2.407
  239SOL    HW1  730   1.445   1.115   2.359
  239SOL    HW2  731   1.313   1.211   2.351
  240SOL     OW  732   0.550   0.196   2.747
  240SOL    HW1  733   0.545   0.191   2.847
  240SOL    HW2  734   0.552   0.292   2.718
  241SOL     OW  735   1.008   1.456   2.339
  241SOL    HW1  736   0.962   1.528   2.287
  241SOL    HW2  737   1.004   1.476   2.437
  242SOL     OW  738   0.351   1.801   2.715
  242SOL    HW1  739   0.401   1.715   2.721
  242SOL    HW2  740   0.416   1.878   2.712
  243SOL     OW  741   1.795   1.066   2.735
  243SOL    HW1  742   1.733   1.051   2.659
  243SOL    HW2  743   1.743   1.077   2.820
  244SOL     OW  744   0.321   0.943   2.104
  244SOL    HW1  745   0.403   0.982   2.062
  244SOL    HW2  746   0.294   0.861   2.055
  245SOL     OW  747   1.458   0.735   2.590
  245SOL    HW1  748   1.453   0.670   2.665
  245SOL    HW2  749   1.538   0.794   2.603
  246SOL     OW  750   1.111   1.776   2.099
  246SOL    HW1  751   1.051   1.714   2.149
  246SOL    HW2  752   1.142   1.732   2.014
  247SOL     OW  753   1.632   1.377   1.943
  247SOL    HW1  754   1.600   1.471   1.933
  247SOL    HW2  755   1.556   1.314   1.931
  248SOL     OW  756   0.464   1.743   2.185
  248SOL    HW1  757   0.497   1.782   2.271
  248SOL    HW2  758   0.540   1.736   2.120
  249SOL     OW  759   1.400   0.107   2.288
  249SOL    HW1  760   1.376   0.070   2.198
  249SOL    HW2  761   1.499   0.123   2.292
  250SOL     OW  762   0.249   1.785   3.103
  250SOL    HW1  763   0.306   1.720   3.153
  250SOL    HW2  764   0.233   1.752   3.010
  251SOL     OW  765   0.940   1.698   2.766
  251SOL    HW1  766   1.020   1.641   2.787
  251SOL    HW2  767   0.891   1.658   2.689
  252SOL     OW  768   0.382   0.700   2.342
  252SOL    HW1  769   0.427   0.610   2.339
  252SOL    HW2  770   0.288   0.689   2.375
  253SOL     OW  771   0.614   0.122   1.979
  253SOL    HW1  772   0.712   0.100   1.986
  253SOL    HW2  773   0.583   0.105   1.886
  254SOL     OW  774   0.803   1.402   2.786
  254SOL    HW1  775   0.893   1.416   2.744
  254SOL    HW2  776   0.732   1.404   2.715
  255SOL     OW  777   0.922   0.503   2.761
  255SOL    HW1  778   0.897   0.494   2.665
  255SOL    HW2  779   0.970   0.421   2.792
  256SOL     OW  780   0.539   0.064   2.374
  256SOL    HW1  781   0.458   0.065   2.432
  256SOL    HW2  782   0.542   0.147   2.319
  257SOL     OW  783   1.434   1.188   1.903
  257SOL    HW1  784   1.466   1.112   1.960
  257SOL    HW2  785   1.342   1.215   1.933
  258SOL     OW  786   0.297   0.035   2.033
  258SOL    HW1  787   0.346   0.119   2.012
  258SOL    HW2  788   0.359  -0.030   2.078
  259SOL     OW  789   0.935   0.236   2.342
  259SOL    HW1  790   0.887   0.277   2.264
  259SOL    HW2  791   1.034   0.234   2.323
  260SOL     OW  792   1.227   1.570   2.655
  260SOL    HW1  793   1.248   1.644   2.590
  260SOL    HW2  794   1.295   1.570   2.728
  261SOL     OW  795   0.459   1.152   2.603
  261SOL    HW1  796   0.388   1.125   2.668
  261SOL    HW2  797   0.433   1.124   2.510
  262SOL     OW  798   1.271   1.797   2.453
  262SOL    HW1  799   1.315   1.861   2.389
  262SOL    HW2  800   1.221   1.849   2.523
  263SOL     OW  801   1.032   0.549   1.878
  263SOL    HW1  802   0.991   0.631   1.839
  263SOL    HW2  803   1.096   0.575   1.951
  264SOL     OW  804   0.866   0.454   2.504
  264SOL    HW1  805   0.834   0.526   2.442
  264SOL    HW2  806   0.890   0.373   2.451
  265SOL     OW  807   1.017   0.039   2.615
  265SOL    HW1  808   0.945   0.044   2.546
  265SOL    HW2  809   0.993  -0.030   2.684
  266SOL     OW  810   1.429   1.173   2.729
  266SOL    HW1  811   1.374   1.089   2.722
  266SOL    HW2  812   1.455   1.202   2.637
  267SOL     OW  813   1.466   0.590   2.854
  267SOL    HW1  814   1.436   0.495   2.861
  267SOL    HW2  815   1.539   0.606   2.920
  268SOL     OW  816   1.857   0.833   2.239
  268SOL    HW1  817   1.899   0.769   2.303
  268SOL    HW2  818   1.819   0.782   2.161
  269SOL     OW  819   0.488   1.385   2.036
  269SOL    HW1  820   0.401   1.370   2.083
  269SOL    HW2  821   0.471   1.411   1.941
  270SOL     OW  822   1.664   1.280   2.519
  270SOL    HW1  823   1.763   1.288   2.533
  270SOL    HW2  824   1.619   1.364   2.550
  271SOL     OW  825   1.390   0.575   1.940
  271SOL    HW1  826   1.336   0.554   2.021
  271SOL    HW2  827   1.481   0.534   1.949
  272SOL     OW  828   0.527   0.256   2.190
  272SOL    HW1  829   0.554   0.197   2.115
  272SOL    HW2  830   0.527   0.351   2.159
  273SOL     OW  831   1.638   1.099   2.941
  273SOL    HW1  832   1.643   1.180   3.000
  273SOL    HW2  833   1.552   1.101   2.890
  274SOL     OW  834   0.705   1.050   2.230
  274SOL    HW1  835   0.691   1.057   2.329
  274SOL    HW2  836   0.789   0.999   2.212
  275SOL     OW  837   0.367   1.100   2.363
  275SOL    HW1  838   0.360   1.183   2.307
  275SOL    HW2  839   0.371   1.020   2.303
  276SOL     OW  840   0.566   0.537   2.727
  276SOL    HW1  841   0.578   0.603   2.653
  276SOL    HW2  842   0.612   0.571   2.810
  277SOL     OW  843   1.252   1.348   2.250
  277SOL    HW1  844   1.302   1.425   2.290
  277SOL    HW2  845   1.157   1.350   2.282
  278SOL     OW  846   1.582   0.639   2.334
  278SOL    HW1  847   1.551   0.700   2.407
  278SOL    HW2  848   1.632   0.691   2.265
  279SOL     OW  849   0.573   0.870   2.891
  279SOL    HW1  850   0.617   0.959   2.882
  279SOL    HW2  851   0.510   0.870   2.968
  280SOL     OW  852   1.209   0.525   2.137
  280SOL    HW1  853   1.222   0.441   2.191
  280SOL    HW2  854   1.180   0.599   2.197
  281SOL     OW  855   0.732   0.634   2.926
  281SOL    HW1  856   0.791   0.608   2.850
  281SOL    HW2  857   0.704   0.730   2.915
  282SOL     OW  858   0.307   0.063   2.480
  282SOL    HW1  859   0.296   0.157   2.513
  282SOL    HW2  860   0.302   0.000   2.557
  283SOL     OW  861   1.622   0.367   2.236
  283SOL    HW1  862   1.624   0.291   2.300
  283SOL    HW2  863   1.574   0.444   2.276
  284SOL     OW  864   1.540   0.274   1.987
  284SOL    HW1  865   1.479   0.199   2.010
  284SOL    HW2  866   1.562   0.326   2.070
  285SOL     OW  867   1.303   0.838   1.904
  285SOL    HW1  868   1.337   0.745   1.919
  285SOL    HW2  869   1.321   0.865   1.809
  286SOL     OW  870   1.068   1.333   2.711
  286SOL    HW1  871   1.075   1.249   2.656
  286SOL    HW2  872   1.130   1.402   2.675
  287SOL     OW  873   0.319   0.810   2.811
  287SOL    HW1  874   0.412   0.846   2.816
  287SOL    HW2  875   0.313   0.725   2.863
  288SOL     OW  876   0.339   0.509   2.868
  288SOL    HW1  877   0.287   0.426   2.851
  288SOL    HW2  878   0.416   0.514   2.804
  289SOL     OW  879   0.008   1.326   2.062
  289SOL    HW1  880  -0.085   1.347   2.031
  289SOL    HW2  881   0.018   1.227   2.075
  290SOL     OW  882   0.088   1.801   2.789
  290SOL    HW1  883   0.046   1.715   2.762
  290SOL    HW2  884   0.182   1.804   2.755
  291SOL     OW  885   0.504   1.568   2.772
  291SOL    HW1  886   0.570   1.642   2.781
  291SOL    HW2  887   0.548   1.489   2.730
  292SOL     OW  888   0.815   0.572   2.187
  292SOL    HW1  889   0.822   0.483   2.141
  292SOL    HW2  890   0.721   0.606   2.179
  293SOL     OW  891   0.671   0.464   3.131
  293SOL    HW1  892   0.637   0.375   3.101
  293SOL    HW2  893   0.697   0.518   3.051
  294SOL     OW  894   0.473   0.500   2.053
  294SOL    HW1  895   0.534   0.580   2.057
  294SOL    HW2  896   0.378   0.531   2.060
  295SOL     OW  897   1.302   0.855   2.171
  295SOL    HW1  898   1.216   0.824   2.213
  295SOL    HW2  899   1.298   0.841   2.072
  296SOL     OW  900   1.759   1.747   3.016
  296SOL    HW1  901   1.820   1.777   2.943
  296SOL    HW2  902   1.721   1.658   2.994
  297SOL     OW  903   0.083   1.258   2.884
  297SOL    HW1  904   0.078   1.257   2.984
  297SOL    HW2  905   0.000   1.217   2.846
  298SOL     OW  906   1.726   0.135   2.385
  298SOL    HW1  907   1.799   0.118   2.318
  298SOL    HW2  908   1.695   0.048   2.423
  299SOL     OW  909   1.388   1.573   2.339
  299SOL    HW1  910   1.455   1.585   2.265
  299SOL    HW2  911   1.348   1.662   2.362
  300SOL     OW  912   1.280   0.927   2.534
  300SOL    HW1  913   1.340   0.846   2.536
  300SOL    HW2  914   1.320   0.996   2.474
  301SOL     OW  915   0.672   1.616   2.016
  301SOL    HW1  916   0.681   1.626   1.917
  301SOL    HW2  917   0.632   1.527   2.037
  302SOL     OW  918   1.841   0.175   2.825
  302SOL    HW1  919   1.880   0.090   2.789
  302SOL    HW2  920   1.743   0.177   2.806
  303SOL     OW  921   0.263   0.326   2.582
  303SOL    HW1  922   0.184   0.377   2.548
  303SOL    HW2  923   0.254   0.311   2.680
  304SOL     OW  924   1.194   1.612   1.893
  304SOL    HW1  925   1.200   1.519   1.930
  304SOL    HW2  926   1.135   1.612   1.813
  305SOL     OW  927   0.916   0.910   2.153
  305SOL    HW1  928   0.979   0.948   2.085
  305SOL    HW2  929   0.956   0.827   2.192
  306SOL     OW  930   1.504   1.607   1.906
  306SOL    HW1  931   1.412   1.644   1.913
  306SOL    HW2  932   1.542   1.627   1.816
  307SOL     OW  933   1.039   1.098   2.558
  307SOL    HW1  934   0.969   1.051   2.612
  307SOL    HW2  935   1.098   1.030   2.515
  308SOL     OW  936   0.590   1.487   2.353
  308SOL    HW1  937   0.632   1.429   2.283
  308SOL    HW2  938   0.546   1.566   2.309
  309SOL     OW  939   0.255   1.348   2.152
  309SOL    HW1  940   0.159   1.349   2.125
  309SOL    HW2  941   0.267   1.401   2.236
  310SOL     OW  942   0.075   0.345   1.895
  310SOL    HW1  943  -0.017   0.317   1.866
  310SOL    HW2  944   0.106   0.422   1.839
  311SOL     OW  945   0.072   0.166   2.180
  311SOL    HW1  946   0.055   0.249   2.126
  311SOL    HW2  947   0.162   0.129   2.158
  312SOL     OW  948   1.183   1.335   1.981
  312SOL    HW1  949   1.084   1.324   1.983
  312SOL    HW2  950   1.217   1.350   2.074
  313SOL     OW  951   1.674   0.883   3.116
  313SOL    HW1  952   1.647   0.794   3.079
  313SOL    HW2  953   1.675   0.951   3.043
  314SOL     OW  954   1.225   0.325   2.311
  314SOL    HW1  955   1.290   0.251   2.300
  314SOL    HW2  956   1.245   0.375   2.395
  315SOL     OW  957   0.594   0.745   2.514
  315SOL    HW1  958   0.644   0.830   2.495
  315SOL    HW2  959   0.506   0.747   2.466
  316SOL     OW  960   0.859   1.374   1.878
  316SOL    HW1  961   0.813   1.389   1.966
  316SOL    HW2  962   0.903   1.459   1.848
  317SOL     OW  963   0.661   1.790   2.815
  317SOL    HW1  964   0.615   1.878   2.802
  317SOL    HW2  965   0.760   1.802   2.808
  318SOL     OW  966   0.859   0.956   2.723
  318SOL    HW1  967   0.913   0.887   2.771
  318SOL    HW2  968   0.827   1.025   2.789
  319SOL     OW  969   1.083   0.984   1.949
  319SOL    HW1  970   1.060   1.037   1.867
  319SOL    HW2  971   1.164   0.928   1.930
  320SOL     OW  972   1.861   1.569   2.713
  320SOL    HW1  973   1.790   1.557   2.643
  320SOL    HW2  974   1.862   1.490   2.773
  321SOL     OW  975   0.079   1.240   2.515
  321SOL    HW1  976   0.078   1.193   2.603
  321SOL    HW2  977   0.161   1.212   2.464
  322SOL     OW  978   1.824   0.192   3.089
  322SOL    HW1  979   1.820   0.102   3.133
  322SOL    HW2  980   1.827   0.181   2.990
  323SOL     OW  981   0.428   0.424   2.382
  323SOL    HW1  982   0.458   0.352   2.320
  323SOL    HW2  983   0.389   0.384   2.465
  324SOL     OW  984   0.812   1.586   2.549
  324SOL    HW1  985   0.844   1.596   2.455
  324SOL    HW2  986   0.733   1.524   2.551
  325SOL     OW  987   0.770   1.330   2.163
  325SOL    HW1  988   0.724   1.243   2.180
  325SOL    HW2  989   0.861   1.327   2.204
  326SOL     OW  990   1.352   0.052   2.030
  326SOL    HW1  991   1.387   0.011   1.946
  326SOL    HW2  992   1.262   0.014   2.050
  327SOL     OW  993   1.300   0.453   2.553
  327SOL    HW1  994   1.241   0.533   2.557
  327SOL    HW2  995   1.315   0.418   2.646
  328SOL     OW  996   1.593   0.221   2.744
  328SOL    HW1  997   1.509   0.220   2.798
  328SOL    HW2  998   1.595   0.304   2.688
  329SOL     OW  999   0.039   1.077   2.162
  329SOL    HW1 1000   0.138   1.066   2.153
  329SOL    HW2 1001  -0.001   0.991   2.194
  330SOL     OW 1002   0.875   1.646   2.199
  330SOL    HW1 1003   0.798   1.611   2.145
  330SOL    HW2 1004   0.843   1.717   2.261
  331SOL     OW 1005   0.230   2.490   0.113
  331SOL    HW1 1006   0.137   2.488   0.150
  331SOL    HW2 1007   0.231   2.451   0.021
  332SOL     OW 1008   0.225   2.137   0.996
  332SOL    HW1 1009   0.260   2.120   1.088
  332SOL    HW2 1010   0.137   2.092   0.984
  333SOL     OW 1011   0.019   2.230   0.647
  333SOL    HW1 1012  -0.063   2.273   0.686
  333SOL    HW2 1013  -0.009   2.157   0.584
  334SOL     OW 1014   1.135   2.565   0.717
  334SOL    HW1 1015   1.192   2.643   0.692
  334SOL    HW2 1016   1.075   2.591   0.793
  335SOL     OW 1017   1.755   2.469   0.231
  335SOL    HW1 1018   1.743   2.456   0.132
  335SOL    HW2 1019   1.725   2.388   0.280
  336SOL     OW 1020   0.768   3.006   1.023
  336SOL    HW1 1021   0.690   3.023   1.083
  336SOL    HW2 1022   0.802   3.093   0.987
  337SOL     OW 1023   0.850   2.660   1.823
  337SOL    HW1 1024   0.846   2.736   1.888
  337SOL    HW2 1025   0.872   2.696   1.732
  338SOL     OW 1026   0.685   2.874   0.665
  338SOL    HW1 1027   0.754   2.858   0.735
  338SOL    HW2 1028   0.612   2.931   0.703
  339SOL     OW 1029   0.438   2.254   1.499
  339SOL    HW1 1030   0.520   2.198   1.508
  339SOL    HW2 1031   0.357   2.196   1.503
  340SOL     OW 1032   1.603   2.309   0.737
  340SOL    HW1 1033   1.529   2.355   0.687
  340SOL    HW2 1034   1.654   2.377   0.790
  341SOL     OW 1035   0.240   2.953   0.886
  341SOL    HW1 1036   0.254   2.869   0.938
  341SOL    HW2 1037   0.185   3.017   0.941
  342SOL     OW 1038   1.594   1.976   1.480
  342SOL    HW1 1039   1.576   2.043   1.408
  342SOL    HW2 1040   1.591   2.022   1.569
  343SOL     OW 1041   0.122   2.505   0.563
  343SOL    HW1 1042   0.077   2.417   0.580
  343SOL    HW2 1043   0.121   2.559   0.647
  344SOL     OW 1044   0.113   2.599   1.597
  344SOL    HW1 1045   0.201   2.586   1.642
  344SOL    HW2 1046   0.100   2.696   1.575
  345SOL     OW 1047   0.809   1.866   0.502
  345SOL    HW1 1048   0.849   1.957   0.493
  345SOL    HW2 1049   0.709   1.874   0.508
  346SOL     OW 1050   0.197   2.838   1.264
  346SOL    HW1 1051   0.286   2.793   1.250
  346SOL    HW2 1052   0.124   2.773   1.245
  347SOL     OW 1053   1.525   2.861   0.190
  347SOL    HW1 1054   1.462   2.785   0.203
  347SOL    HW2 1055   1.573   2.879   0.276
  348SOL     OW 1056   0.317   2.113   1.801
  348SOL    HW1 1057   0.388   2.184   1.807
  348SOL    HW2 1058   0.229   2.152   1.829
  349SOL     OW 1059   0.598   2.591   0.270
  349SOL    HW1 1060   0.622   2.660   0.202
  349SOL    HW2 1061   0.520   2.624   0.324
  350SOL     OW 1062   1.281   2.207   0.944
  350SOL    HW1 1063   1.195   2.157   0.931
  350SOL    HW2 1064   1.343   2.153   1.000
  351SOL     OW 1065   0.807   2.467   1.465
  351SOL    HW1 1066   0.760   2.464   1.554
  351SOL    HW2 1067   0.756   2.412   1.399
  352SOL     OW 1068   1.394   2.331   1.674
  352SOL    HW1 1069   1.374   2.374   1.762
  352SOL    HW2 1070   1.472   2.269   1.683
  353SOL     OW 1071   0.973   2.752   1.572
  353SOL    HW1 1072   1.019   2.668   1.543
  353SOL    HW2 1073   0.917   2.786   1.497
  354SOL     OW 1074   0.991   2.272   1.242
  354SOL    HW1 1075   0.914   2.306   1.296
  354SOL    HW2 1076   0.957   2.221   1.163
  355SOL     OW 1077   1.041   2.563   0.429
  355SOL    HW1 1078   1.067   2.559   0.525
  355SOL    HW2 1079   0.956   2.512   0.415
  356SOL     OW 1080   0.076   2.673   0.789
  356SOL    HW1 1081   0.175   2.661   0.798
  356SOL    HW2 1082   0.052   2.768   0.810
  357SOL     OW 1083   0.865   2.210   0.195
  357SOL    HW1 1084   0.924   2.273   0.146
  357SOL    HW2 1085   0.884   2.116   0.166
  358SOL     OW 1086   1.719   2.447   1.831
  358SOL    HW1 1087   1.693   2.536   1.795
  358SOL    HW2 1088   1.717   2.379   1.758
  359SOL     OW 1089   0.550   2.058   0.885
  359SOL    HW1 1090   0.545   2.053   0.985
  359SOL    HW2 1091   0.552   2.154   0.856
  360SOL     OW 1092   1.458   2.597   0.728
  360SOL    HW1 1093   1.453   2.532   0.803
  360SOL    HW2 1094   1.538   2.656   0.741
  361SOL     OW 1095   0.202   2.147   1.498
  361SOL    HW1 1096   0.122   2.207   1.485
  361SOL    HW2 1097   0.192   2.098   1.584
  362SOL     OW 1098   1.400   1.969   0.426
  362SOL    HW1 1099   1.376   1.932   0.336
  362SOL    HW2 1100   1.499   1.985   0.430
  363SOL     OW 1101   0.382   2.562   0.480
  363SOL    HW1 1102   0.427   2.472   0.477
  363SOL    HW2 1103   0.288   2.551   0.513
  364SOL     OW 1104   1.547   2.084   1.729
  364SOL    HW1 1105   1.542   2.121   1.821
  364SOL    HW2 1106   1.475   2.015   1.717
  365SOL     OW 1107   0.614   1.984   0.117
  365SOL    HW1 1108   0.712   1.962   0.124
  365SOL    HW2 1109   0.583   1.967   0.024
  366SOL     OW 1110   0.781   2.126   1.749
  366SOL    HW1 1111   0.848   2.065   1.792
  366SOL    HW2 1112   0.708   2.145   1.814
  367SOL     OW 1113   1.351   2.452   1.433
  367SOL    HW1 1114   1.379   2.409   1.518
  367SOL    HW2 1115   1.376   2.548   1.434
  368SOL     OW 1116   0.922   2.365   0.899
  368SOL    HW1 1117   0.897   2.356   0.803
  368SOL    HW2 1118   0.970   2.283   0.930
  369SOL     OW 1119   0.539   1.926   0.512
  369SOL    HW1 1120   0.458   1.927   0.570
  369SOL    HW2 1121   0.542   2.009   0.457
  370SOL     OW 1122   0.935   2.098   0.480
  370SOL    HW1 1123   0.887   2.139   0.402
  370SOL    HW2 1124   1.034   2.096   0.461
  371SOL     OW 1125   1.076   2.545   1.464
  371SOL    HW1 1126   0.996   2.484   1.467
  371SOL    HW2 1127   1.157   2.492   1.440
  372SOL     OW 1128   1.032   2.411   0.016
  372SOL    HW1 1129   0.991   2.493  -0.023
  372SOL    HW2 1130   1.096   2.437   0.089
  373SOL     OW 1131   0.078   2.418   1.386
  373SOL    HW1 1132   0.170   2.417   1.345
  373SOL    HW2 1133   0.072   2.492   1.453
  374SOL     OW 1134   0.561   2.084   1.147
  374SOL    HW1 1135   0.599   2.000   1.184
  374SOL    HW2 1136   0.473   2.103   1.191
  375SOL     OW 1137   0.866   2.316   0.642
  375SOL    HW1 1138   0.834   2.388   0.580
  375SOL    HW2 1139   0.890   2.235   0.589
  376SOL     OW 1140   1.017   1.901   0.753
  376SOL    HW1 1141   0.945   1.906   0.684
  376SOL    HW2 1142   0.993   1.832   0.822
  377SOL     OW 1143   1.429   3.035   0.867
  377SOL    HW1 1144   1.374   2.951   0.860
  377SOL    HW2 1145   1.455   3.064   0.775
  378SOL     OW 1146   1.466   2.452   0.992
  378SOL    HW1 1147   1.436   2.357   0.999
  378SOL    HW2 1148   1.539   2.468   1.058
  379SOL     OW 1149   1.857   2.695   0.377
  379SOL    HW1 1150   1.899   2.631   0.441
  379SOL    HW2 1151   1.819   2.644   0.299
  380SOL     OW 1152   1.390   2.437   0.078
  380SOL    HW1 1153   1.336   2.416   0.159
  380SOL    HW2 1154   1.481   2.396   0.087
  381SOL     OW 1155   0.527   2.118   0.328
  381SOL    HW1 1156   0.554   2.059   0.253
  381SOL    HW2 1157   0.527   2.213   0.297
  382SOL     OW 1158   1.638   2.961   1.079
  382SOL    HW1 1159   1.643   3.042   1.138
  382SOL    HW2 1160   1.552   2.963   1.028
  383SOL     OW 1161   0.915   1.951   1.402
  383SOL    HW1 1162   0.940   1.931   1.307
  383SOL    HW2 1163   0.987   2.007   1.444
  384SOL     OW 1164   0.410   2.675   1.251
  384SOL    HW1 1165   0.496   2.687   1.301
  384SOL    HW2 1166   0.368   2.588   1.278
  385SOL     OW 1167   1.274   2.248   1.262
  385SOL    HW1 1168   1.295   2.322   1.326
  385SOL    HW2 1169   1.185   2.265   1.219
  386SOL     OW 1170   0.566   2.399   0.865
  386SOL    HW1 1171   0.578   2.465   0.791
  386SOL    HW2 1172   0.612   2.433   0.948
  387SOL     OW 1173   1.582   2.501   0.472
  387SOL    HW1 1174   1.551   2.562   0.545
  387SOL    HW2 1175   1.632   2.553   0.403
  388SOL     OW 1176   0.402   2.613   1.598
  388SOL    HW1 1177   0.470   2.668   1.551
  388SOL    HW2 1178   0.442   2.525   1.625
  389SOL     OW 1179   1.587   2.641   1.670
  389SOL    HW1 1180   1.495   2.679   1.665
  389SOL    HW2 1181   1.647   2.688   1.605
  390SOL     OW 1182   1.013   1.967   1.770
  390SOL    HW1 1183   1.019   2.052   1.718
  390SOL    HW2 1184   1.045   1.891   1.713
  391SOL     OW 1185   0.504   1.912   1.740
  391SOL    HW1 1186   0.462   1.855   1.670
  391SOL    HW2 1187   0.438   1.981   1.772
  392SOL     OW 1188   0.573   2.732   1.029
  392SOL    HW1 1189   0.617   2.821   1.020
  392SOL    HW2 1190   0.510   2.732   1.106
  393SOL     OW 1191   1.360   2.724   1.045
  393SOL    HW1 1192   1.285   2.724   0.979
  393SOL    HW2 1193   1.397   2.632   1.054
  394SOL     OW 1194   1.209   2.387   0.275
  394SOL    HW1 1195   1.222   2.303   0.329
  394SOL    HW2 1196   1.180   2.461   0.335
  395SOL     OW 1197   0.307   2.075   1.231
  395SOL    HW1 1198   0.284   2.112   1.321
  395SOL    HW2 1199   0.277   1.980   1.225
  396SOL     OW 1200   0.037   3.172   1.282
  396SOL    HW1 1201   0.090   3.123   1.350
  396SOL    HW2 1202   0.059   3.270   1.287
  397SOL     OW 1203   0.732   2.496   1.064
  397SOL    HW1 1204   0.791   2.470   0.988
  397SOL    HW2 1205   0.704   2.592   1.053
  398SOL     OW 1206   1.728   2.797   1.854
  398SOL    HW1 1207   1.682   2.790   1.765
  398SOL    HW2 1208   1.666   2.841   1.920
  399SOL     OW 1209   0.307   1.925   0.618
  399SOL    HW1 1210   0.296   2.019   0.651
  399SOL    HW2 1211   0.302   1.862   0.695
  400SOL     OW 1212   1.622   2.229   0.374
  400SOL    HW1 1213   1.624   2.153   0.438
  400SOL    HW2 1214   1.574   2.306   0.414
  401SOL     OW 1215   1.023   2.628   0.966
  401SOL    HW1 1216   1.038   2.649   1.062
  401SOL    HW2 1217   0.993   2.533   0.957
  402SOL     OW 1218   0.350   2.760   1.804
  402SOL    HW1 1219   0.426   2.804   1.852
  402SOL    HW2 1220   0.385   2.713   1.722
  403SOL     OW 1221   1.540   2.136   0.125
  403SOL    HW1 1222   1.479   2.061   0.148
  403SOL    HW2 1223   1.562   2.188   0.208
  404SOL     OW 1224   1.303   2.700   0.042
  404SOL    HW1 1225   1.337   2.607   0.057
  404SOL    HW2 1226   1.321   2.727  -0.053
  405SOL     OW 1227   0.319   2.672   0.949
  405SOL    HW1 1228   0.412   2.708   0.954
  405SOL    HW2 1229   0.313   2.587   1.001
  406SOL     OW 1230   0.339   2.371   1.006
  406SOL    HW1 1231   0.287   2.288   0.989
  406SOL    HW2 1232   0.416   2.376   0.942
  407SOL     OW 1233   1.138   2.242   1.678
  407SOL    HW1 1234   1.093   2.305   1.742
  407SOL    HW2 1235   1.231   2.273   1.661
  408SOL     OW 1236   1.160   2.069   1.477
  408SOL    HW1 1237   1.160   2.133   1.554
  408SOL    HW2 1238   1.188   2.117   1.394
  409SOL     OW 1239   1.002   2.658   1.238
  409SOL    HW1 1240   1.043   2.626   1.324
  409SOL    HW2 1241   0.906   2.631   1.235
  410SOL     OW 1242   0.040   2.406   1.114
  410SOL    HW1 1243   0.125   2.373   1.073
  410SOL    HW2 1244   0.053   2.421   1.212
  411SOL     OW 1245   0.189   2.382   1.722
  411SOL    HW1 1246   0.248   2.342   1.652
  411SOL    HW2 1247   0.131   2.453   1.681
  412SOL     OW 1248   1.369   2.812   1.660
  412SOL    HW1 1249   1.408   2.901   1.680
  412SOL    HW2 1250   1.379   2.792   1.563
  413SOL     OW 1251   0.815   2.434   0.325
  413SOL    HW1 1252   0.822   2.345   0.279
  413SOL    HW2 1253   0.721   2.468   0.317
  414SOL     OW 1254   1.657   2.466   1.206
  414SOL    HW1 1255   1.619   2.397   1.268
  414SOL    HW2 1256   1.739   2.430   1.162
  415SOL     OW 1257   0.671   2.326   1.269
  415SOL    HW1 1258   0.637   2.237   1.239
  415SOL    HW2 1259   0.697   2.380   1.189
  416SOL     OW 1260   0.473   2.362   0.191
  416SOL    HW1 1261   0.534   2.442   0.195
  416SOL    HW2 1262   0.378   2.393   0.198
  417SOL     OW 1263   0.159   2.999   1.466
  417SOL    HW1 1264   0.181   2.938   1.542
  417SOL    HW2 1265   0.169   2.950   1.380
  418SOL     OW 1266   1.347   2.921   1.234
  418SOL    HW1 1267   1.371   2.858   1.160
  418SOL    HW2 1268   1.257   2.961   1.216
  419SOL     OW 1269   1.302   2.717   0.309
  419SOL    HW1 1270   1.216   2.686   0.351
  419SOL    HW2 1271   1.298   2.703   0.210
  420SOL     OW 1272   0.903   1.948   0.133
  420SOL    HW1 1273   0.954   1.949   0.047
  420SOL    HW2 1274   0.959   1.906   0.204
  421SOL     OW 1275   1.726   1.997   0.523
  421SOL    HW1 1276   1.799   1.980   0.456
  421SOL    HW2 1277   1.695   1.910   0.561
  422SOL     OW 1278   1.280   2.789   0.672
  422SOL    HW1 1279   1.340   2.708   0.674
  422SOL    HW2 1280   1.320   2.858   0.612
  423SOL     OW 1281   1.841   2.037   0.963
  423SOL    HW1 1282   1.880   1.952   0.927
  423SOL    HW2 1283   1.743   2.039   0.944
  424SOL     OW 1284   0.263   2.188   0.720
  424SOL    HW1 1285   0.184   2.239   0.686
  424SOL    HW2 1286   0.254   2.173   0.818
  425SOL     OW 1287   0.916   2.772   0.291
  425SOL    HW1 1288   0.979   2.810   0.223
  425SOL    HW2 1289   0.956   2.689   0.330
  426SOL     OW 1290   1.014   2.098   0.971
  426SOL    HW1 1291   1.006   2.062   0.878
  426SOL    HW2 1292   1.012   2.022   1.036
  427SOL     OW 1293   1.709   2.247   1.381
  427SOL    HW1 1294   1.782   2.316   1.385
  427SOL    HW2 1295   1.737   2.172   1.322
  428SOL     OW 1296   0.105   2.875   1.726
  428SOL    HW1 1297   0.028   2.842   1.780
  428SOL    HW2 1298   0.190   2.845   1.768
  429SOL     OW 1299   0.672   2.065   1.489
  429SOL    HW1 1300   0.762   2.049   1.449
  429SOL    HW2 1301   0.680   2.070   1.588
  430SOL     OW 1302   0.075   2.207   0.033
  430SOL    HW1 1303  -0.017   2.179   0.004
  430SOL    HW2 1304   0.106   2.284  -0.023
  431SOL     OW 1305   1.440   2.718   1.398
  431SOL    HW1 1306   1.383   2.770   1.335
  431SOL    HW2 1307   1.536   2.730   1.374
  432SOL     OW 1308   0.072   2.028   0.318
  432SOL    HW1 1309   0.055   2.111   0.264
  432SOL    HW2 1310   0.162   1.991   0.296
  433SOL     OW 1311   1.183   3.197   0.119
  433SOL    HW1 1312   1.084   3.186   0.121
  433SOL    HW2 1313   1.217   3.212   0.212
  434SOL     OW 1314   0.613   2.704   1.431
  434SOL    HW1 1315   0.669   2.785   1.414
  434SOL    HW2 1316   0.672   2.624   1.434
  435SOL     OW 1317   0.716   2.427   1.708
  435SOL    HW1 1318   0.735   2.492   1.782
  435SOL    HW2 1319   0.776   2.347   1.717
  436SOL     OW 1320   1.674   2.745   1.254
  436SOL    HW1 1321   1.647   2.656   1.217
  436SOL    HW2 1322   1.675   2.813   1.181
  437SOL     OW 1323   1.225   2.187   0.449
  437SOL    HW1 1324   1.290   2.113   0.438
  437SOL    HW2 1325   1.245   2.237   0.533
  438SOL     OW 1326   0.594   2.607   0.652
  438SOL    HW1 1327   0.644   2.692   0.633
  438SOL    HW2 1328   0.506   2.609   0.604
  439SOL     OW 1329   1.777   2.204   1.642
  439SOL    HW1 1330   1.760   2.235   1.548
  439SOL    HW2 1331   1.693   2.167   1.680
  440SOL     OW 1332   1.730   2.796   1.517
  440SOL    HW1 1333   1.768   2.887   1.532
  440SOL    HW2 1334   1.722   2.779   1.418
  441SOL     OW 1335   0.859   2.818   0.861
  441SOL    HW1 1336   0.913   2.749   0.909
  441SOL    HW2 1337   0.827   2.887   0.927
  442SOL     OW 1338   1.083   2.846   0.087
  442SOL    HW1 1339   1.060   2.899   0.005
  442SOL    HW2 1340   1.164   2.790   0.068
  443SOL     OW 1341   0.079   3.102   0.653
  443SOL    HW1 1342   0.078   3.055   0.741
  443SOL    HW2 1343   0.161   3.074   0.602
  444SOL     OW 1344   1.824   2.054   1.227
  444SOL    HW1 1345   1.820   1.964   1.271
  444SOL    HW2 1346   1.827   2.043   1.128
  445SOL     OW 1347   0.428   2.286   0.520
  445SOL    HW1 1348   0.458   2.214   0.458
  445SOL    HW2 1349   0.389   2.246   0.603
  446SOL     OW 1350   0.317   2.409   1.280
  446SOL    HW1 1351   0.355   2.350   1.352
  446SOL    HW2 1352   0.357   2.383   1.192
  447SOL     OW 1353   1.424   2.076   1.112
  447SOL    HW1 1354   1.476   2.011   1.167
  447SOL    HW2 1355   1.375   2.139   1.173
  448SOL     OW 1356   1.001   1.896   1.154
  448SOL    HW1 1357   0.938   1.824   1.123
  448SOL    HW2 1358   1.094   1.860   1.154
  449SOL     OW 1359   1.352   1.914   0.168
  449SOL    HW1 1360   1.387   1.873   0.084
  449SOL    HW2 1361   1.262   1.876   0.188
  450SOL     OW 1362   1.300   2.315   0.691
  450SOL    HW1 1363   1.241   2.395   0.695
  450SOL    HW2 1364   1.315   2.280   0.784
  451SOL     OW 1365   1.593   2.083   0.882
  451SOL    HW1 1366   1.509   2.082   0.936
  451SOL    HW2 1367   1.595   2.166   0.826
  452SOL     OW 1368   0.230   2.490   1.975
  452SOL    HW1 1369   0.137   2.488   2.012
  452SOL    HW2 1370   0.231   2.451   1.883
  453SOL     OW 1371   0.225   2.137   2.858
  453SOL    HW1 1372   0.260   2.120   2.950
  453SOL    HW2 1373   0.137   2.092   2.846
  454SOL     OW 1374   0.019   2.230   2.509
  454SOL    HW1 1375  -0.063   2.273   2.548
  454SOL    HW2 1376  -0.009   2.157   2.446
  455SOL     OW 1377   1.135   2.565   2.579
  455SOL    HW1 1378   1.192   2.643   2.554
  455SOL    HW2 1379   1.075   2.591   2.655
  456SOL     OW 1380   1.755   2.469   2.093
  456SOL    HW1 1381   1.743   2.456   1.994
  456SOL    HW2 1382   1.725   2.388   2.142
  457SOL     OW 1383   0.685   2.874   2.527
  457SOL    HW1 1384   0.754   2.858   2.597
  457SOL    HW2 1385   0.612   2.931   2.565
  458SOL     OW 1386   1.603   2.309   2.599
  458SOL    HW1 1387   1.529   2.355   2.549
  458SOL    HW2 1388   1.654   2.377   2.652
  459SOL     OW 1389   0.240   2.953   2.748
  459SOL    HW1 1390   0.254   2.869   2.800
  459SOL    HW2 1391   0.185   3.017   2.803
  460SOL     OW 1392   0.122   2.505   2.425
  460SOL    HW1 1393   0.077   2.417   2.442
  460SOL    HW2 1394   0.121   2.559   2.509
  461SOL     OW 1395   0.809   1.866   2.364
  461SOL    HW1 1396   0.849   1.957   2.355
  461SOL    HW2 1397   0.709   1.874   2.370
  462SOL     OW 1398   1.525   2.861   2.052
  462SOL    HW1 1399   1.462   2.785   2.065
  462SOL    HW2 1400   1.573   2.879   2.138
  463SOL     OW 1401   0.598   2.591   2.132
  463SOL    HW1 1402   0.622   2.660   2.064
  463SOL    HW2 1403   0.520   2.624   2.186
  464SOL     OW 1404   1.281   2.207   2.806
  464SOL    HW1 1405   1.195   2.157   2.793
  464SOL    HW2 1406   1.343   2.153   2.862
  465SOL     OW 1407   1.041   2.563   2.291
  465SOL    HW1 1408   1.067   2.559   2.387
  465SOL    HW2 1409   0.956   2.512   2.277
  466SOL     OW 1410   0.076   2.673   2.651
  466SOL    HW1 1411   0.175   2.661   2.660
  466SOL    HW2 1412   0.052   2.768   2.672
  467SOL     OW 1413   0.865   2.210   2.057
  467SOL    HW1 1414   0.924   2.273   2.008
  467SOL    HW2 1415   0.884   2.116   2.028
  468SOL     OW 1416   0.550   2.058   2.747
  468SOL    HW1 1417   0.545   2.053   2.847
  468SOL    HW2 1418   0.552   2.154   2.718
  469SOL     OW 1419   1.458   2.597   2.590
  469SOL    HW1 1420   1.453   2.532   2.665
  469SOL    HW2 1421   1.538   2.656   2.603
  470SOL     OW 1422   1.400   1.969   2.288
  470SOL    HW1 1423   1.376   1.932   2.198
  470SOL    HW2 1424   1.499   1.985   2.292
  471SOL     OW 1425   0.382   2.562   2.342
  471SOL    HW1 1426   0.427   2.472   2.339
  471SOL    HW2 1427   0.288   2.551   2.375
  472SOL     OW 1428   0.614   1.984   1.979
  472SOL    HW1 1429   0.712   1.962   1.986
  472SOL    HW2 1430   0.583   1.967   1.886
  473SOL     OW 1431   0.922   2.365   2.761
  473SOL    HW1 1432   0.897   2.356   2.665
  473SOL    HW2 1433   0.970   2.283   2.792
  474SOL     OW 1434   0.539   1.926   2.374
  474SOL    HW1 1435   0.458   1.927   2.432
  474SOL    HW2 1436   0.542   2.009   2.319
  475SOL     OW 1437   0.297   1.897   2.033
  475SOL    HW1 1438   0.346   1.981   2.012
  475SOL    HW2 1439   0.359   1.832   2.078
  476SOL     OW 1440   0.935   2.098   2.342
  476SOL    HW1 1441   0.887   2.139   2.264
  476SOL    HW2 1442   1.034   2.096   2.323
  477SOL     OW 1443   1.032   2.411   1.878
  477SOL    HW1 1444   0.991   2.493   1.839
  477SOL    HW2 1445   1.096   2.437   1.951
  478SOL     OW 1446   0.866   2.316   2.504
  478SOL    HW1 1447   0.834   2.388   2.442
  478SOL    HW2 1448   0.890   2.235   2.451
  479SOL     OW 1449   1.017   1.901   2.615
  479SOL    HW1 1450   0.945   1.906   2.546
  479SOL    HW2 1451   0.993   1.832   2.684
  480SOL     OW 1452   1.429   3.035   2.729
  480SOL    HW1 1453   1.374   2.951   2.722
  480SOL    HW2 1454   1.455   3.064   2.637
  481SOL     OW 1455   1.466   2.452   2.854
  481SOL    HW1 1456   1.436   2.357   2.861
  481SOL    HW2 1457   1.539   2.468   2.920
  482SOL     OW 1458   1.857   2.695   2.239
  482SOL    HW1 1459   1.899   2.631   2.303
  482SOL    HW2 1460   1.819   2.644   2.161
  483SOL     OW 1461   1.390   2.437   1.940
  483SOL    HW1 1462   1.336   2.416   2.021
  483SOL    HW2 1463   1.481   2.396   1.949
  484SOL     OW 1464   0.527   2.118   2.190
  484SOL    HW1 1465   0.554   2.059   2.115
  484SOL    HW2 1466   0.527   2.213   2.159
  485SOL     OW 1467   1.638   2.961   2.941
  485SOL    HW1 1468   1.643   3.042   3.000
  485SOL    HW2 1469   1.552   2.963   2.890
  486SOL     OW 1470   0.566   2.399   2.727
  486SOL    HW1 1471   0.578   2.465   2.653
  486SOL    HW2 1472   0.612   2.433   2.810
  487SOL     OW 1473   1.582   2.501   2.334
  487SOL    HW1 1474   1.551   2.562   2.407
  487SOL    HW2 1475   1.632   2.553   2.265
  488SOL     OW 1476   0.573   2.732   2.891
  488SOL    HW1 1477   0.617   2.821   2.882
  488SOL    HW2 1478   0.510   2.732   2.968
  489SOL     OW 1479   1.209   2.387   2.137
  489SOL    HW1 1480   1.222   2.303   2.191
  489SOL    HW2 1481   1.180   2.461   2.197
  490SOL     OW 1482   0.307   2.075   3.093
  490SOL    HW1 1483   0.284   2.112   3.183
  490SOL    HW2 1484   0.277   1.980   3.087
  491SOL     OW 1485   0.732   2.496   2.926
  491SOL    HW1 1486   0.791   2.470   2.850
  491SOL    HW2 1487   0.704   2.592   2.915
  492SOL     OW 1488   0.307   1.925   2.480
  492SOL    HW1 1489   0.296   2.019   2.513
  492SOL    HW2 1490   0.302   1.862   2.557
  493SOL     OW 1491   1.622   2.229   2.236
  493SOL    HW1 1492   1.624   2.153   2.300
  493SOL    HW2 1493   1.574   2.306   2.276
  494SOL     OW 1494   1.540   2.136   1.987
  494SOL    HW1 1495   1.479   2.061   2.010
  494SOL    HW2 1496   1.562   2.188   2.070
  495SOL     OW 1497   1.303   2.700   1.904
  495SOL    HW1 1498   1.337   2.607   1.919
  495SOL    HW2 1499   1.321   2.727   1.809
  496SOL     OW 1500   0.319   2.672   2.811
  496SOL    HW1 1501   0.412   2.708   2.816
  496SOL    HW2 1502   0.313   2.587   2.863
  497SOL     OW 1503   0.339   2.371   2.868
  497SOL    HW1 1504   0.287   2.288   2.851
  497SOL    HW2 1505   0.416   2.376   2.804
  498SOL     OW 1506   0.815   2.434   2.187
  498SOL    HW1 1507   0.822   2.345   2.141
  498SOL    HW2 1508   0.721   2.468   2.179
  499SOL     OW 1509   0.671   2.326   3.131
  499SOL    HW1 1510   0.637   2.237   3.101
  499SOL    HW2 1511   0.697   2.380   3.051
  500SOL     OW 1512   0.473   2.362   2.053
  500SOL    HW1 1513   0.534   2.442   2.057
  500SOL    HW2 1514   0.378   2.393   2.060
  501SOL     OW 1515   1.302   2.717   2.171
  501SOL    HW1 1516   1.216   2.686   2.213
  501SOL    HW2 1517   1.298   2.703   2.072
  502SOL     OW 1518   1.726   1.997   2.385
  502SOL    HW1 1519   1.799   1.980   2.318
  502SOL    HW2 1520   1.695   1.910   2.423
  503SOL     OW 1521   1.280   2.789   2.534
  503SOL    HW1 1522   1.340   2.708   2.536
  503SOL    HW2 1523   1.320   2.858   2.474
  504SOL     OW 1524   1.841   2.037   2.825
  504SOL    HW1 1525   1.880   1.952   2.789
  504SOL    HW2 1526   1.743   2.039   2.806
  505SOL     OW 1527   0.263   2.188   2.582
  505SOL    HW1 1528   0.184   2.239   2.548
  505SOL    HW2 1529   0.254   2.173   2.680
  506SOL     OW 1530   0.916   2.772   2.153
  506SOL    HW1 1531   0.979   2.810   2.085
  506SOL    HW2 1532   0.956   2.689   2.192
  507SOL     OW 1533   0.075   2.207   1.895
  507SOL    HW1 1534  -0.017   2.179   1.866
  507SOL    HW2 1535   0.106   2.284   1.839
  508SOL     OW 1536   0.072   2.028   2.180
  508SOL    HW1 1537   0.055   2.111   2.126
  508SOL    HW2 1538   0.162   1.991   2.158
  509SOL     OW 1539   1.183   3.197   1.981
  509SOL    HW1 1540   1.084   3.186   1.983
  509SOL    HW2 1541   1.217   3.212   2.074
  510SOL     OW 1542   1.674   2.745   3.116
  510SOL    HW1 1543   1.647   2.656   3.079
  510SOL    HW2 1544   1.675   2.813   3.043
  511SOL     OW 1545   1.225   2.187   2.311
  511SOL    HW1 1546   1.290   2.113   2.300
  511SOL    HW2 1547   1.245   2.237   2.395
  512SOL     OW 1548   0.594   2.607   2.514
  512SOL    HW1 1549   0.644   2.692   2.495
  512SOL    HW2 1550   0.506   2.609   2.466
  513SOL     OW 1551   0.859   2.818   2.723
  513SOL    HW1 1552   0.913   2.749   2.771
  513SOL    HW2 1553   0.827   2.887   2.789
  514SOL     OW 1554   1.083   2.846   1.949
  514SOL    HW1 1555   1.060   2.899   1.867
  514SOL    HW2 1556   1.164   2.790   1.930
  515SOL     OW 1557   0.079   3.102   2.515
  515SOL    HW1 1558   0.078   3.055   2.603
  515SOL    HW2 1559   0.161   3.074   2.464
  516SOL     OW 1560   1.824   2.054   3.089
  516SOL    HW1 1561   1.820   1.964   3.133
  516SOL    HW2 1562   1.827   2.043   2.990
  517SOL     OW 1563   0.428   2.286   2.382
  517SOL    HW1 1564   0.458   2.214   2.320
  517SOL    HW2 1565   0.389   2.246   2.465
  518SOL     OW 1566   1.352   1.914   2.030
  518SOL    HW1 1567   1.387   1.873   1.946
  518SOL    HW2 1568   1.262   1.876   2.050
  519SOL     OW 1569   1.300   2.315   2.553
  519SOL    HW1 1570   1.241   2.395   2.557
  519SOL    HW2 1571   1.315   2.280   2.646
  520SOL     OW 1572   1.593   2.083   2.744
  520SOL    HW1 1573   1.509   2.082   2.798
  520SOL    HW2 1574   1.595   2.166   2.688
  521SOL     OW 1575   2.092   0.628   0.113
  521SOL    HW1 1576   1.999   0.626   0.150
  521SOL    HW2 1577   2.093   0.589   0.021
  522SOL     OW 1578   2.087   0.275   0.996
  522SOL    HW1 1579   2.122   0.258   1.088
  522SOL    HW2 1580   1.999   0.230   0.984
  523SOL     OW 1581   1.881   0.368   0.647
  523SOL    HW1 1582   1.799   0.411   0.686
  523SOL    HW2 1583   1.853   0.295   0.584
  524SOL     OW 1584   2.431   1.275   1.165
  524SOL    HW1 1585   2.338   1.268   1.128
  524SOL    HW2 1586   2.442   1.364   1.209
  525SOL     OW 1587   2.630   1.144   1.023
  525SOL    HW1 1588   2.552   1.161   1.083
  525SOL    HW2 1589   2.664   1.231   0.987
  526SOL     OW 1590   2.712   0.798   1.823
  526SOL    HW1 1591   2.708   0.874   1.888
  526SOL    HW2 1592   2.734   0.834   1.732
  527SOL     OW 1593   2.547   1.012   0.665
  527SOL    HW1 1594   2.616   0.996   0.735
  527SOL    HW2 1595   2.474   1.069   0.703
  528SOL     OW 1596   2.548   1.161   1.803
  528SOL    HW1 1597   2.608   1.240   1.817
  528SOL    HW2 1598   2.462   1.192   1.762
  529SOL     OW 1599   2.197   1.435   1.061
  529SOL    HW1 1600   2.119   1.404   1.008
  529SOL    HW2 1601   2.255   1.493   1.004
  530SOL     OW 1602   2.300   0.392   1.499
  530SOL    HW1 1603   2.382   0.336   1.508
  530SOL    HW2 1604   2.219   0.334   1.503
  531SOL     OW 1605   2.093   1.713   0.483
  531SOL    HW1 1606   2.127   1.790   0.537
  531SOL    HW2 1607   2.137   1.713   0.393
  532SOL     OW 1608   2.092   1.434   0.538
  532SOL    HW1 1609   2.066   1.530   0.538
  532SOL    HW2 1610   2.021   1.380   0.583
  533SOL     OW 1611   2.102   1.091   0.886
  533SOL    HW1 1612   2.116   1.007   0.938
  533SOL    HW2 1613   2.047   1.155   0.941
  534SOL     OW 1614   2.482   1.786   1.439
  534SOL    HW1 1615   2.390   1.769   1.474
  534SOL    HW2 1616   2.510   1.878   1.465
  535SOL     OW 1617   2.468   0.964   0.123
  535SOL    HW1 1618   2.475   1.048   0.069
  535SOL    HW2 1619   2.514   0.977   0.211
  536SOL     OW 1620   1.984   0.643   0.563
  536SOL    HW1 1621   1.939   0.555   0.580
  536SOL    HW2 1622   1.983   0.697   0.647
  537SOL     OW 1623   1.889   1.596   0.117
  537SOL    HW1 1624   1.870   1.500   0.138
  537SOL    HW2 1625   1.856   1.654   0.192
  538SOL     OW 1626   1.975   0.737   1.597
  538SOL    HW1 1627   2.063   0.724   1.642
  538SOL    HW2 1628   1.962   0.834   1.575
  539SOL     OW 1629   2.475   1.365   0.726
  539SOL    HW1 1630   2.426   1.278   0.735
  539SOL    HW2 1631   2.452   1.408   0.639
  540SOL     OW 1632   2.671   0.004   0.502
  540SOL    HW1 1633   2.711   0.095   0.493
  540SOL    HW2 1634   2.571   0.012   0.508
  541SOL     OW 1635   2.059   0.976   1.264
  541SOL    HW1 1636   2.148   0.931   1.250
  541SOL    HW2 1637   1.986   0.911   1.245
  542SOL     OW 1638   2.179   0.251   1.801
  542SOL    HW1 1639   2.250   0.322   1.807
  542SOL    HW2 1640   2.091   0.290   1.829
  543SOL     OW 1641   2.460   0.729   0.270
  543SOL    HW1 1642   2.484   0.798   0.202
  543SOL    HW2 1643   2.382   0.762   0.324
  544SOL     OW 1644   2.669   0.605   1.465
  544SOL    HW1 1645   2.622   0.602   1.554
  544SOL    HW2 1646   2.618   0.550   1.399
  545SOL     OW 1647   2.835   0.890   1.572
  545SOL    HW1 1648   2.881   0.806   1.543
  545SOL    HW2 1649   2.779   0.924   1.497
  546SOL     OW 1650   2.853   0.410   1.242
  546SOL    HW1 1651   2.776   0.444   1.296
  546SOL    HW2 1652   2.819   0.359   1.163
  547SOL     OW 1653   1.938   0.811   0.789
  547SOL    HW1 1654   2.037   0.799   0.798
  547SOL    HW2 1655   1.914   0.906   0.810
  548SOL     OW 1656   1.992   1.821   1.571
  548SOL    HW1 1657   1.982   1.806   1.670
  548SOL    HW2 1658   1.906   1.857   1.535
  549SOL     OW 1659   2.727   0.348   0.195
  549SOL    HW1 1660   2.786   0.411   0.146
  549SOL    HW2 1661   2.746   0.254   0.166
  550SOL     OW 1662   2.412   0.196   0.885
  550SOL    HW1 1663   2.407   0.191   0.985
  550SOL    HW2 1664   2.414   0.292   0.856
  551SOL     OW 1665   2.870   1.456   0.477
  551SOL    HW1 1666   2.824   1.528   0.425
  551SOL    HW2 1667   2.866   1.476   0.575
  552SOL     OW 1668   2.213   1.801   0.853
  552SOL    HW1 1669   2.263   1.715   0.859
  552SOL    HW2 1670   2.278   1.878   0.850
  553SOL     OW 1671   2.183   0.943   0.242
  553SOL    HW1 1672   2.265   0.982   0.200
  553SOL    HW2 1673   2.156   0.861   0.193
  554SOL     OW 1674   2.323   1.266   1.727
  554SOL    HW1 1675   2.273   1.267   1.641
  554SOL    HW2 1676   2.260   1.248   1.803
  555SOL     OW 1677   2.064   0.285   1.498
  555SOL    HW1 1678   1.984   0.345   1.485
  555SOL    HW2 1679   2.054   0.236   1.584
  556SOL     OW 1680   2.326   1.743   0.323
  556SOL    HW1 1681   2.359   1.782   0.409
  556SOL    HW2 1682   2.402   1.736   0.258
  557SOL     OW 1683   2.111   1.785   1.241
  557SOL    HW1 1684   2.168   1.720   1.291
  557SOL    HW2 1685   2.095   1.752   1.148
  558SOL     OW 1686   2.244   0.700   0.480
  558SOL    HW1 1687   2.289   0.610   0.477
  558SOL    HW2 1688   2.150   0.689   0.513
  559SOL     OW 1689   2.476   0.122   0.117
  559SOL    HW1 1690   2.574   0.100   0.124
  559SOL    HW2 1691   2.445   0.105   0.024
  560SOL     OW 1692   2.643   0.264   1.749
  560SOL    HW1 1693   2.710   0.203   1.792
  560SOL    HW2 1694   2.570   0.283   1.814
  561SOL     OW 1695   2.750   1.514   1.195
  561SOL    HW1 1696   2.727   1.489   1.101
  561SOL    HW2 1697   2.811   1.445   1.234
  562SOL     OW 1698   2.665   1.402   0.924
  562SOL    HW1 1699   2.755   1.416   0.882
  562SOL    HW2 1700   2.594   1.404   0.853
  563SOL     OW 1701   2.784   0.503   0.899
  563SOL    HW1 1702   2.759   0.494   0.803
  563SOL    HW2 1703   2.832   0.421   0.930
  564SOL     OW 1704   2.401   0.064   0.512
  564SOL    HW1 1705   2.320   0.065   0.570
  564SOL    HW2 1706   2.404   0.147   0.457
  565SOL     OW 1707   2.159   0.035   0.171
  565SOL    HW1 1708   2.208   0.119   0.150
  565SOL    HW2 1709   2.221  -0.030   0.216
  566SOL     OW 1710   2.797   0.236   0.480
  566SOL    HW1 1711   2.749   0.277   0.402
  566SOL    HW2 1712   2.896   0.234   0.461
  567SOL     OW 1713   3.089   1.570   0.793
  567SOL    HW1 1714   3.110   1.644   0.728
  567SOL    HW2 1715   3.157   1.570   0.866
  568SOL     OW 1716   2.321   1.152   0.741
  568SOL    HW1 1717   2.250   1.125   0.806
  568SOL    HW2 1718   2.295   1.124   0.648
  569SOL     OW 1719   2.894   0.549   0.016
  569SOL    HW1 1720   2.853   0.631  -0.023
  569SOL    HW2 1721   2.958   0.575   0.089
  570SOL     OW 1722   1.940   0.556   1.386
  570SOL    HW1 1723   2.032   0.555   1.345
  570SOL    HW2 1724   1.934   0.630   1.453
  571SOL     OW 1725   2.423   0.222   1.147
  571SOL    HW1 1726   2.461   0.138   1.184
  571SOL    HW2 1727   2.335   0.241   1.191
  572SOL     OW 1728   2.728   0.454   0.642
  572SOL    HW1 1729   2.696   0.526   0.580
  572SOL    HW2 1730   2.752   0.373   0.589
  573SOL     OW 1731   2.879   0.039   0.753
  573SOL    HW1 1732   2.807   0.044   0.684
  573SOL    HW2 1733   2.855  -0.030   0.822
  574SOL     OW 1734   2.350   1.385   0.174
  574SOL    HW1 1735   2.263   1.370   0.221
  574SOL    HW2 1736   2.333   1.411   0.079
  575SOL     OW 1737   2.389   0.256   0.328
  575SOL    HW1 1738   2.416   0.197   0.253
  575SOL    HW2 1739   2.389   0.351   0.297
  576SOL     OW 1740   2.777   0.089   1.402
  576SOL    HW1 1741   2.802   0.069   1.307
  576SOL    HW2 1742   2.849   0.145   1.444
  577SOL     OW 1743   2.842   1.116   1.719
  577SOL    HW1 1744   2.743   1.122   1.729
  577SOL    HW2 1745   2.865   1.036   1.663
  578SOL     OW 1746   2.567   1.050   0.368
  578SOL    HW1 1747   2.553   1.057   0.467
  578SOL    HW2 1748   2.651   0.999   0.350
  579SOL     OW 1749   2.272   0.813   1.251
  579SOL    HW1 1750   2.358   0.825   1.301
  579SOL    HW2 1751   2.230   0.726   1.278
  580SOL     OW 1752   1.926   1.564   1.331
  580SOL    HW1 1753   1.880   1.646   1.297
  580SOL    HW2 1754   2.024   1.583   1.340
  581SOL     OW 1755   2.229   1.100   0.501
  581SOL    HW1 1756   2.222   1.183   0.445
  581SOL    HW2 1757   2.233   1.020   0.441
  582SOL     OW 1758   2.428   0.537   0.865
  582SOL    HW1 1759   2.440   0.603   0.791
  582SOL    HW2 1760   2.474   0.571   0.948
  583SOL     OW 1761   2.216   1.510   1.329
  583SOL    HW1 1762   2.195   1.466   1.242
  583SOL    HW2 1763   2.313   1.536   1.332
  584SOL     OW 1764   2.264   0.751   1.598
  584SOL    HW1 1765   2.332   0.806   1.551
  584SOL    HW2 1766   2.304   0.663   1.625
  585SOL     OW 1767   2.875   0.105   1.770
  585SOL    HW1 1768   2.881   0.190   1.718
  585SOL    HW2 1769   2.907   0.029   1.713
  586SOL     OW 1770   2.366   0.050   1.740
  586SOL    HW1 1771   2.324  -0.007   1.670
  586SOL    HW2 1772   2.300   0.119   1.772
  587SOL     OW 1773   2.435   0.870   1.029
  587SOL    HW1 1774   2.479   0.959   1.020
  587SOL    HW2 1775   2.372   0.870   1.106
  588SOL     OW 1776   3.071   0.525   0.275
  588SOL    HW1 1777   3.084   0.441   0.329
  588SOL    HW2 1778   3.042   0.599   0.335
  589SOL     OW 1779   2.169   0.213   1.231
  589SOL    HW1 1780   2.146   0.250   1.321
  589SOL    HW2 1781   2.139   0.118   1.225
  590SOL     OW 1782   1.899   1.310   1.282
  590SOL    HW1 1783   1.952   1.261   1.350
  590SOL    HW2 1784   1.921   1.408   1.287
  591SOL     OW 1785   2.594   0.634   1.064
  591SOL    HW1 1786   2.653   0.608   0.988
  591SOL    HW2 1787   2.566   0.730   1.053
  592SOL     OW 1788   2.169   0.063   0.618
  592SOL    HW1 1789   2.158   0.157   0.651
  592SOL    HW2 1790   2.164   0.000   0.695
  593SOL     OW 1791   2.885   0.766   0.966
  593SOL    HW1 1792   2.900   0.787   1.062
  593SOL    HW2 1793   2.855   0.671   0.957
  594SOL     OW 1794   2.842   1.573   1.700
  594SOL    HW1 1795   2.822   1.617   1.612
  594SOL    HW2 1796   2.881   1.482   1.684
  595SOL     OW 1797   2.212   0.898   1.804
  595SOL    HW1 1798   2.288   0.942   1.852
  595SOL    HW2 1799   2.247   0.851   1.722
  596SOL     OW 1800   2.181   0.810   0.949
  596SOL    HW1 1801   2.274   0.846   0.954
  596SOL    HW2 1802   2.175   0.725   1.001
  597SOL     OW 1803   2.201   0.509   1.006
  597SOL    HW1 1804   2.149   0.426   0.989
  597SOL    HW2 1805   2.278   0.514   0.942
  598SOL     OW 1806   1.870   1.326   0.200
  598SOL    HW1 1807   1.777   1.347   0.169
  598SOL    HW2 1808   1.880   1.227   0.213
  599SOL     OW 1809   1.950   1.801   0.927
  599SOL    HW1 1810   1.908   1.715   0.900
  599SOL    HW2 1811   2.044   1.804   0.893
  600SOL     OW 1812   2.366   1.568   0.910
  600SOL    HW1 1813   2.432   1.642   0.919
  600SOL    HW2 1814   2.410   1.489   0.868
  601SOL     OW 1815   2.864   0.796   1.238
  601SOL    HW1 1816   2.905   0.764   1.324
  601SOL    HW2 1817   2.768   0.769   1.235
  602SOL     OW 1818   1.902   0.544   1.114
  602SOL    HW1 1819   1.987   0.511   1.073
  602SOL    HW2 1820   1.915   0.559   1.212
  603SOL     OW 1821   2.051   0.520   1.722
  603SOL    HW1 1822   2.110   0.480   1.652
  603SOL    HW2 1823   1.993   0.591   1.681
  604SOL     OW 1824   2.677   0.572   0.325
  604SOL    HW1 1825   2.684   0.483   0.279
  604SOL    HW2 1826   2.583   0.606   0.317
  605SOL     OW 1827   2.114   1.564   1.744
  605SOL    HW1 1828   2.084   1.621   1.820
  605SOL    HW2 1829   2.107   1.467   1.770
  606SOL     OW 1830   2.533   0.464   1.269
  606SOL    HW1 1831   2.499   0.375   1.239
  606SOL    HW2 1832   2.559   0.518   1.189
  607SOL     OW 1833   2.792   1.678   1.465
  607SOL    HW1 1834   2.768   1.660   1.370
  607SOL    HW2 1835   2.822   1.772   1.475
  608SOL     OW 1836   2.335   0.500   0.191
  608SOL    HW1 1837   2.396   0.580   0.195
  608SOL    HW2 1838   2.240   0.531   0.198
  609SOL     OW 1839   2.021   1.137   1.466
  609SOL    HW1 1840   2.043   1.076   1.542
  609SOL    HW2 1841   2.031   1.088   1.380
  610SOL     OW 1842   1.945   1.258   1.022
  610SOL    HW1 1843   1.940   1.257   1.122
  610SOL    HW2 1844   1.862   1.217   0.984
  611SOL     OW 1845   2.550   1.662   1.716
  611SOL    HW1 1846   2.494   1.743   1.725
  611SOL    HW2 1847   2.602   1.666   1.630
  612SOL     OW 1848   2.765   0.086   0.133
  612SOL    HW1 1849   2.816   0.087   0.047
  612SOL    HW2 1850   2.821   0.044   0.204
  613SOL     OW 1851   1.992   1.794   1.851
  613SOL    HW1 1852   1.951   1.720   1.904
  613SOL    HW2 1853   2.056   1.845   1.909
  614SOL     OW 1854   3.142   0.927   0.672
  614SOL    HW1 1855   3.202   0.846   0.674
  614SOL    HW2 1856   3.182   0.996   0.612
  615SOL     OW 1857   2.692   1.273   1.422
  615SOL    HW1 1858   2.687   1.306   1.517
  615SOL    HW2 1859   2.606   1.292   1.376
  616SOL     OW 1860   2.534   1.616   0.154
  616SOL    HW1 1861   2.543   1.626   0.055
  616SOL    HW2 1862   2.494   1.527   0.175
  617SOL     OW 1863   2.125   0.326   0.720
  617SOL    HW1 1864   2.046   0.377   0.686
  617SOL    HW2 1865   2.116   0.311   0.818
  618SOL     OW 1866   2.684   1.002   1.372
  618SOL    HW1 1867   2.724   1.001   1.280
  618SOL    HW2 1868   2.694   1.094   1.412
  619SOL     OW 1869   2.778   0.910   0.291
  619SOL    HW1 1870   2.841   0.948   0.223
  619SOL    HW2 1871   2.818   0.827   0.330
  620SOL     OW 1872   2.234   1.288   1.490
  620SOL    HW1 1873   2.221   1.381   1.456
  620SOL    HW2 1874   2.150   1.236   1.477
  621SOL     OW 1875   2.876   0.236   0.971
  621SOL    HW1 1876   2.868   0.200   0.878
  621SOL    HW2 1877   2.874   0.160   1.036
  622SOL     OW 1878   2.452   1.487   0.491
  622SOL    HW1 1879   2.494   1.429   0.421
  622SOL    HW2 1880   2.408   1.566   0.447
  623SOL     OW 1881   2.117   1.348   0.290
  623SOL    HW1 1882   2.021   1.349   0.263
  623SOL    HW2 1883   2.129   1.401   0.374
  624SOL     OW 1884   1.967   1.013   1.726
  624SOL    HW1 1885   1.890   0.980   1.780
  624SOL    HW2 1886   2.052   0.983   1.768
  625SOL     OW 1887   2.534   0.203   1.489
  625SOL    HW1 1888   2.624   0.187   1.449
  625SOL    HW2 1889   2.542   0.208   1.588
  626SOL     OW 1890   1.937   0.345   0.033
  626SOL    HW1 1891   1.845   0.317   0.004
  626SOL    HW2 1892   1.968   0.422  -0.023
  627SOL     OW 1893   2.475   0.842   1.431
  627SOL    HW1 1894   2.531   0.923   1.414
  627SOL    HW2 1895   2.534   0.762   1.434
  628SOL     OW 1896   2.578   0.565   1.708
  628SOL    HW1 1897   2.597   0.630   1.782
  628SOL    HW2 1898   2.638   0.485   1.717
  629SOL     OW 1899   2.252   1.741   1.560
  629SOL    HW1 1900   2.161   1.782   1.558
  629SOL    HW2 1901   2.245   1.647   1.592
  630SOL     OW 1902   3.087   0.325   0.449
  630SOL    HW1 1903   3.152   0.251   0.438
  630SOL    HW2 1904   3.107   0.375   0.533
  631SOL     OW 1905   2.456   0.745   0.652
  631SOL    HW1 1906   2.506   0.830   0.633
  631SOL    HW2 1907   2.368   0.747   0.604
  632SOL     OW 1908   2.721   1.374   0.016
  632SOL    HW1 1909   2.675   1.389   0.104
  632SOL    HW2 1910   2.765   1.459  -0.014
  633SOL     OW 1911   2.523   1.790   0.953
  633SOL    HW1 1912   2.477   1.878   0.940
  633SOL    HW2 1913   2.622   1.802   0.946
  634SOL     OW 1914   2.721   0.956   0.861
  634SOL    HW1 1915   2.775   0.887   0.909
  634SOL    HW2 1916   2.689   1.025   0.927
  635SOL     OW 1917   2.945   0.984   0.087
  635SOL    HW1 1918   2.922   1.037   0.005
  635SOL    HW2 1919   3.026   0.928   0.068
  636SOL     OW 1920   2.083   1.314   1.844
  636SOL    HW1 1921   2.018   1.241   1.823
  636SOL    HW2 1922   2.087   1.328   1.942
  637SOL     OW 1923   1.941   1.240   0.653
  637SOL    HW1 1924   1.940   1.193   0.741
  637SOL    HW2 1925   2.023   1.212   0.602
  638SOL     OW 1926   2.534   1.391   1.624
  638SOL    HW1 1927   2.456   1.341   1.662
  638SOL    HW2 1928   2.531   1.486   1.655
  639SOL     OW 1929   2.290   0.424   0.520
  639SOL    HW1 1930   2.320   0.352   0.458
  639SOL    HW2 1931   2.251   0.384   0.603
  640SOL     OW 1932   2.179   0.547   1.280
  640SOL    HW1 1933   2.217   0.488   1.352
  640SOL    HW2 1934   2.219   0.521   1.192
  641SOL     OW 1935   2.674   1.586   0.687
  641SOL    HW1 1936   2.706   1.596   0.593
  641SOL    HW2 1937   2.595   1.524   0.689
  642SOL     OW 1938   2.863   0.034   1.154
  642SOL    HW1 1939   2.800  -0.038   1.123
  642SOL    HW2 1940   2.956  -0.002   1.154
  643SOL     OW 1941   2.632   1.330   0.301
  643SOL    HW1 1942   2.586   1.243   0.318
  643SOL    HW2 1943   2.723   1.327   0.342
  644SOL     OW 1944   2.480   1.567   1.284
  644SOL    HW1 1945   2.475   1.649   1.341
  644SOL    HW2 1946   2.569   1.564   1.239
  645SOL     OW 1947   1.901   1.077   0.300
  645SOL    HW1 1948   2.000   1.066   0.291
  645SOL    HW2 1949   1.861   0.991   0.332
  646SOL     OW 1950   2.737   1.646   0.337
  646SOL    HW1 1951   2.660   1.611   0.283
  646SOL    HW2 1952   2.705   1.717   0.399
  647SOL     OW 1953   2.092   0.628   1.975
  647SOL    HW1 1954   1.999   0.626   2.012
  647SOL    HW2 1955   2.093   0.589   1.883
  648SOL     OW 1956   2.087   0.275   2.858
  648SOL    HW1 1957   2.122   0.258   2.950
  648SOL    HW2 1958   1.999   0.230   2.846
  649SOL     OW 1959   1.881   0.368   2.509
  649SOL    HW1 1960   1.799   0.411   2.548
  649SOL    HW2 1961   1.853   0.295   2.446
  650SOL     OW 1962   2.630   1.144   2.885
  650SOL    HW1 1963   2.552   1.161   2.945
  650SOL    HW2 1964   2.664   1.231   2.849
  651SOL     OW 1965   2.547   1.012   2.527
  651SOL    HW1 1966   2.616   0.996   2.597
  651SOL    HW2 1967   2.474   1.069   2.565
  652SOL     OW 1968   2.197   1.435   2.923
  652SOL    HW1 1969   2.119   1.404   2.870
  652SOL    HW2 1970   2.255   1.493   2.866
  653SOL     OW 1971   2.093   1.713   2.345
  653SOL    HW1 1972   2.127   1.790   2.399
  653SOL    HW2 1973   2.137   1.713   2.255
  654SOL     OW 1974   2.092   1.434   2.400
  654SOL    HW1 1975   2.066   1.530   2.400
  654SOL    HW2 1976   2.021   1.380   2.445
  655SOL     OW 1977   2.102   1.091   2.748
  655SOL    HW1 1978   2.116   1.007   2.800
  655SOL    HW2 1979   2.047   1.155   2.803
  656SOL     OW 1980   2.468   0.964   1.985
  656SOL    HW1 1981   2.475   1.048   1.931
  656SOL    HW2 1982   2.514   0.977   2.073
  657SOL     OW 1983   1.984   0.643   2.425
  657SOL    HW1 1984   1.939   0.555   2.442
  657SOL    HW2 1985   1.983   0.697   2.509
  658SOL     OW 1986   1.889   1.596   1.979
  658SOL    HW1 1987   1.870   1.500   2.000
  658SOL    HW2 1988   1.856   1.654   2.054
  659SOL     OW 1989   2.475   1.365   2.588
  659SOL    HW1 1990   2.426   1.278   2.597
  659SOL    HW2 1991   2.452   1.408   2.501
  660SOL     OW 1992   2.671   0.004   2.364
  660SOL    HW1 1993   2.711   0.095   2.355
  660SOL    HW2 1994   2.571   0.012   2.370
  661SOL     OW 1995   2.460   0.729   2.132
  661SOL    HW1 1996   2.484   0.798   2.064
  661SOL    HW2 1997   2.382   0.762   2.186
  662SOL     OW 1998   1.938   0.811   2.651
  662SOL    HW1 1999   2.037   0.799   2.660
  662SOL    HW2 2000   1.914   0.906   2.672
  663SOL     OW 2001   2.727   0.348   2.057
  663SOL    HW1 2002   2.786   0.411   2.008
  663SOL    HW2 2003   2.746   0.254   2.028
  664SOL     OW 2004   2.412   0.196   2.747
  664SOL    HW1 2005   2.407   0.191   2.847
  664SOL    HW2 2006   2.414   0.292   2.718
  665SOL     OW 2007   2.870   1.456   2.339
  665SOL    HW1 2008   2.824   1.528   2.287
  665SOL    HW2 2009   2.866   1.476   2.437
  666SOL     OW 2010   2.213   1.801   2.715
  666SOL    HW1 2011   2.263   1.715   2.721
  666SOL    HW2 2012   2.278   1.878   2.712
  667SOL     OW 2013   2.183   0.943   2.104
  667SOL    HW1 2014   2.265   0.982   2.062
  667SOL    HW2 2015   2.156   0.861   2.055
  668SOL     OW 2016   2.326   1.743   2.185
  668SOL    HW1 2017   2.359   1.782   2.271
  668SOL    HW2 2018   2.402   1.736   2.120
  669SOL     OW 2019   2.111   1.785   3.103
  669SOL    HW1 2020   2.168   1.720   3.153
  669SOL    HW2 2021   2.095   1.752   3.010
  670SOL     OW 2022   2.244   0.700   2.342
  670SOL    HW1 2023   2.289   0.610   2.339
  670SOL    HW2 2024   2.150   0.689   2.375
  671SOL     OW 2025   2.476   0.122   1.979
  671SOL    HW1 2026   2.574   0.100   1.986
  671SOL    HW2 2027   2.445   0.105   1.886
  672SOL     OW 2028   2.665   1.402   2.786
  672SOL    HW1 2029   2.755   1.416   2.744
  672SOL    HW2 2030   2.594   1.404   2.715
  673SOL     OW 2031   2.784   0.503   2.761
  673SOL    HW1 2032   2.759   0.494   2.665
  673SOL    HW2 2033   2.832   0.421   2.792
  674SOL     OW 2034   2.401   0.064   2.374
  674SOL    HW1 2035   2.320   0.065   2.432
  674SOL    HW2 2036   2.404   0.147   2.319
  675SOL     OW 2037   2.159   0.035   2.033
  675SOL    HW1 2038   2.208   0.119   2.012
  675SOL    HW2 2039   2.221  -0.030   2.078
  676SOL     OW 2040   2.797   0.236   2.342
  676SOL    HW1 2041   2.749   0.277   2.264
  676SOL    HW2 2042   2.896   0.234   2.323
  677SOL     OW 2043   3.089   1.570   2.655
  677SOL    HW1 2044   3.110   1.644   2.590
  677SOL    HW2 2045   3.157   1.570   2.728
  678SOL     OW 2046   2.321   1.152   2.603
  678SOL    HW1 2047   2.250   1.125   2.668
  678SOL    HW2 2048   2.295   1.124   2.510
  679SOL     OW 2049   2.894   0.549   1.878
  679SOL    HW1 2050   2.853   0.631   1.839
  679SOL    HW2 2051   2.958   0.575   1.951
  680SOL     OW 2052   2.728   0.454   2.504
  680SOL    HW1 2053   2.696   0.526   2.442
  680SOL    HW2 2054   2.752   0.373   2.451
  681SOL     OW 2055   2.879   0.039   2.615
  681SOL    HW1 2056   2.807   0.044   2.546
  681SOL    HW2 2057   2.855  -0.030   2.684
  682SOL     OW 2058   2.350   1.385   2.036
  682SOL    HW1 2059   2.263   1.370   2.083
  682SOL    HW2 2060   2.333   1.411   1.941
  683SOL     OW 2061   2.389   0.256   2.190
  683SOL    HW1 2062   2.416   0.197   2.115
  683SOL    HW2 2063   2.389   0.351   2.159
  684SOL     OW 2064   2.567   1.050   2.230
  684SOL    HW1 2065   2.553   1.057   2.329
  684SOL    HW2 2066   2.651   0.999   2.212
  685SOL     OW 2067   2.229   1.100   2.363
  685SOL    HW1 2068   2.222   1.183   2.307
  685SOL    HW2 2069   2.233   1.020   2.303
  686SOL     OW 2070   2.428   0.537   2.727
  686SOL    HW1 2071   2.440   0.603   2.653
  686SOL    HW2 2072   2.474   0.571   2.810
  687SOL     OW 2073   2.435   0.870   2.891
  687SOL    HW1 2074   2.479   0.959   2.882
  687SOL    HW2 2075   2.372   0.870   2.968
  688SOL     OW 2076   3.071   0.525   2.137
  688SOL    HW1 2077   3.084   0.441   2.191
  688SOL    HW2 2078   3.042   0.599   2.197
  689SOL     OW 2079   2.594   0.634   2.926
  689SOL    HW1 2080   2.653   0.608   2.850
  689SOL    HW2 2081   2.566   0.730   2.915
  690SOL     OW 2082   2.169   0.063   2.480
  690SOL    HW1 2083   2.158   0.157   2.513
  690SOL    HW2 2084   2.164   0.000   2.557
  691SOL     OW 2085   2.181   0.810   2.811
  691SOL    HW1 2086   2.274   0.846   2.816
  691SOL    HW2 2087   2.175   0.725   2.863
  692SOL     OW 2088   2.201   0.509   2.868
  692SOL    HW1 2089   2.149   0.426   2.851
  692SOL    HW2 2090   2.278   0.514   2.804
  693SOL     OW 2091   1.870   1.326   2.062
  693SOL    HW1 2092   1.777   1.347   2.031
  693SOL    HW2 2093   1.880   1.227   2.075
  694SOL     OW 2094   1.950   1.801   2.789
  694SOL    HW1 2095   1.908   1.715   2.762
  694SOL    HW2 2096   2.044   1.804   2.755
  695SOL     OW 2097   2.366   1.568   2.772
  695SOL    HW1 2098   2.432   1.642   2.781
  695SOL    HW2 2099   2.410   1.489   2.730
  696SOL     OW 2100   2.677   0.572   2.187
  696SOL    HW1 2101   2.684   0.483   2.141
  696SOL    HW2 2102   2.583   0.606   2.179
  697SOL     OW 2103   2.533   0.464   3.131
  697SOL    HW1 2104   2.499   0.375   3.101
  697SOL    HW2 2105   2.559   0.518   3.051
  698SOL     OW 2106   2.335   0.500   2.053
  698SOL    HW1 2107   2.396   0.580   2.057
  698SOL    HW2 2108   2.240   0.531   2.060
  699SOL     OW 2109   1.945   1.258   2.884
  699SOL    HW1 2110   1.940   1.257   2.984
  699SOL    HW2 2111   1.862   1.217   2.846
  700SOL     OW 2112   3.142   0.927   2.534
  700SOL    HW1 2113   3.202   0.846   2.536
  700SOL    HW2 2114   3.182   0.996   2.474
  701SOL     OW 2115   2.534   1.616   2.016
  701SOL    HW1 2116   2.543   1.626   1.917
  701SOL    HW2 2117   2.494   1.527   2.037
  702SOL     OW 2118   2.125   0.326   2.582
  702SOL    HW1 2119   2.046   0.377   2.548
  702SOL    HW2 2120   2.116   0.311   2.680
  703SOL     OW 2121   2.778   0.910   2.153
  703SOL    HW1 2122   2.841   0.948   2.085
  703SOL    HW2 2123   2.818   0.827   2.192
  704SOL     OW 2124   2.452   1.487   2.353
  704SOL    HW1 2125   2.494   1.429   2.283
  704SOL    HW2 2126   2.408   1.566   2.309
  705SOL     OW 2127   2.117   1.348   2.152
  705SOL    HW1 2128   2.021   1.349   2.125
  705SOL    HW2 2129   2.129   1.401   2.236
  706SOL     OW 2130   1.937   0.345   1.895
  706SOL    HW1 2131   1.845   0.317   1.866
  706SOL    HW2 2132   1.968   0.422   1.839
  707SOL     OW 2133   1.934   0.166   2.180
  707SOL    HW1 2134   1.917   0.249   2.126
  707SOL    HW2 2135   2.024   0.129   2.158
  708SOL     OW 2136   3.087   0.325   2.311
  708SOL    HW1 2137   3.152   0.251   2.300
  708SOL    HW2 2138   3.107   0.375   2.395
  709SOL     OW 2139   2.456   0.745   2.514
  709SOL    HW1 2140   2.506   0.830   2.495
  709SOL    HW2 2141   2.368   0.747   2.466
  710SOL     OW 2142   2.721   1.374   1.878
  710SOL    HW1 2143   2.675   1.389   1.966
  710SOL    HW2 2144   2.765   1.459   1.848
  711SOL     OW 2145   2.523   1.790   2.815
  711SOL    HW1 2146   2.477   1.878   2.802
  711SOL    HW2 2147   2.622   1.802   2.808
  712SOL     OW 2148   2.721   0.956   2.723
  712SOL    HW1 2149   2.775   0.887   2.771
  712SOL    HW2 2150   2.689   1.025   2.789
  713SOL     OW 2151   1.941   1.240   2.515
  713SOL    HW1 2152   1.940   1.193   2.603
  713SOL    HW2 2153   2.023   1.212   2.464
  714SOL     OW 2154   2.290   0.424   2.382
  714SOL    HW1 2155   2.320   0.352   2.320
  714SOL    HW2 2156   2.251   0.384   2.465
  715SOL     OW 2157   2.674   1.586   2.549
  715SOL    HW1 2158   2.706   1.596   2.455
  715SOL    HW2 2159   2.595   1.524   2.551
  716SOL     OW 2160   2.632   1.330   2.163
  716SOL    HW1 2161   2.586   1.243   2.180
  716SOL    HW2 2162   2.723   1.327   2.204
  717SOL     OW 2163   1.901   1.077   2.162
  717SOL    HW1 2164   2.000   1.066   2.153
  717SOL    HW2 2165   1.861   0.991   2.194
  718SOL     OW 2166   2.737   1.646   2.199
  718SOL    HW1 2167   2.660   1.611   2.145
  718SOL    HW2 2168   2.705   1.717   2.261
  719SOL     OW 2169   2.092   2.490   0.113
  719SOL    HW1 2170   1.999   2.488   0.150
  719SOL    HW2 2171   2.093   2.451   0.021
  720SOL     OW 2172   2.087   2.137   0.996
  720SOL    HW1 2173   2.122   2.120   1.088
  720SOL    HW2 2174   1.999   2.092   0.984
  721SOL     OW 2175   1.881   2.230   0.647
  721SOL    HW1 2176   1.799   2.273   0.686
  721SOL    HW2 2177   1.853   2.157   0.584
  722SOL     OW 2178   2.630   3.006   1.023
  722SOL    HW1 2179   2.552   3.023   1.083
  722SOL    HW2 2180   2.664   3.093   0.987
  723SOL     OW 2181   2.712   2.660   1.823
  723SOL    HW1 2182   2.708   2.736   1.888
  723SOL    HW2 2183   2.734   2.696   1.732
  724SOL     OW 2184   2.547   2.874   0.665
  724SOL    HW1 2185   2.616   2.858   0.735
  724SOL    HW2 2186   2.474   2.931   0.703
  725SOL     OW 2187   2.300   2.254   1.499
  725SOL    HW1 2188   2.382   2.198   1.508
  725SOL    HW2 2189   2.219   2.196   1.503
  726SOL     OW 2190   2.102   2.953   0.886
  726SOL    HW1 2191   2.116   2.869   0.938
  726SOL    HW2 2192   2.047   3.017   0.941
  727SOL     OW 2193   1.984   2.505   0.563
  727SOL    HW1 2194   1.939   2.417   0.580
  727SOL    HW2 2195   1.983   2.559   0.647
  728SOL     OW 2196   1.975   2.599   1.597
  728SOL    HW1 2197   2.063   2.586   1.642
  728SOL    HW2 2198   1.962   2.696   1.575
  729SOL     OW 2199   2.671   1.866   0.502
  729SOL    HW1 2200   2.711   1.957   0.493
  729SOL    HW2 2201   2.571   1.874   0.508
  730SOL     OW 2202   2.059   2.838   1.264
  730SOL    HW1 2203   2.148   2.793   1.250
  730SOL    HW2 2204   1.986   2.773   1.245
  731SOL     OW 2205   2.179   2.113   1.801
  731SOL    HW1 2206   2.250   2.184   1.807
  731SOL    HW2 2207   2.091   2.152   1.829
  732SOL     OW 2208   2.460   2.591   0.270
  732SOL    HW1 2209   2.484   2.660   0.202
  732SOL    HW2 2210   2.382   2.624   0.324
  733SOL     OW 2211   2.669   2.467   1.465
  733SOL    HW1 2212   2.622   2.464   1.554
  733SOL    HW2 2213   2.618   2.412   1.399
  734SOL     OW 2214   2.835   2.752   1.572
  734SOL    HW1 2215   2.881   2.668   1.543
  734SOL    HW2 2216   2.779   2.786   1.497
  735SOL     OW 2217   2.853   2.272   1.242
  735SOL    HW1 2218   2.776   2.306   1.296
  735SOL    HW2 2219   2.819   2.221   1.163
  736SOL     OW 2220   1.938   2.673   0.789
  736SOL    HW1 2221   2.037   2.661   0.798
  736SOL    HW2 2222   1.914   2.768   0.810
  737SOL     OW 2223   2.727   2.210   0.195
  737SOL    HW1 2224   2.786   2.273   0.146
  737SOL    HW2 2225   2.746   2.116   0.166
  738SOL     OW 2226   2.412   2.058   0.885
  738SOL    HW1 2227   2.407   2.053   0.985
  738SOL    HW2 2228   2.414   2.154   0.856
  739SOL     OW 2229   2.064   2.147   1.498
  739SOL    HW1 2230   1.984   2.207   1.485
  739SOL    HW2 2231   2.054   2.098   1.584
  740SOL     OW 2232   2.244   2.562   0.480
  740SOL    HW1 2233   2.289   2.472   0.477
  740SOL    HW2 2234   2.150   2.551   0.513
  741SOL     OW 2235   2.476   1.984   0.117
  741SOL    HW1 2236   2.574   1.962   0.124
  741SOL    HW2 2237   2.445   1.967   0.024
  742SOL     OW 2238   2.643   2.126   1.749
  742SOL    HW1 2239   2.710   2.065   1.792
  742SOL    HW2 2240   2.570   2.145   1.814
  743SOL     OW 2241   2.784   2.365   0.899
  743SOL    HW1 2242   2.759   2.356   0.803
  743SOL    HW2 2243   2.832   2.283   0.930
  744SOL     OW 2244   2.401   1.926   0.512
  744SOL    HW1 2245   2.320   1.927   0.570
  744SOL    HW2 2246   2.404   2.009   0.457
  745SOL     OW 2247   2.797   2.098   0.480
  745SOL    HW1 2248   2.749   2.139   0.402
  745SOL    HW2 2249   2.896   2.096   0.461
  746SOL     OW 2250   2.894   2.411   0.016
  746SOL    HW1 2251   2.853   2.493  -0.023
  746SOL    HW2 2252   2.958   2.437   0.089
  747SOL     OW 2253   1.940   2.418   1.386
  747SOL    HW1 2254   2.032   2.417   1.345
  747SOL    HW2 2255   1.934   2.492   1.453
  748SOL     OW 2256   2.423   2.084   1.147
  748SOL    HW1 2257   2.461   2.000   1.184
  748SOL    HW2 2258   2.335   2.103   1.191
  749SOL     OW 2259   2.728   2.316   0.642
  749SOL    HW1 2260   2.696   2.388   0.580
  749SOL    HW2 2261   2.752   2.235   0.589
  750SOL     OW 2262   2.879   1.901   0.753
  750SOL    HW1 2263   2.807   1.906   0.684
  750SOL    HW2 2264   2.855   1.832   0.822
  751SOL     OW 2265   2.389   2.118   0.328
  751SOL    HW1 2266   2.416   2.059   0.253
  751SOL    HW2 2267   2.389   2.213   0.297
  752SOL     OW 2268   2.777   1.951   1.402
  752SOL    HW1 2269   2.802   1.931   1.307
  752SOL    HW2 2270   2.849   2.007   1.444
  753SOL     OW 2271   2.272   2.675   1.251
  753SOL    HW1 2272   2.358   2.687   1.301
  753SOL    HW2 2273   2.230   2.588   1.278
  754SOL     OW 2274   2.428   2.399   0.865
  754SOL    HW1 2275   2.440   2.465   0.791
  754SOL    HW2 2276   2.474   2.433   0.948
  755SOL     OW 2277   2.264   2.613   1.598
  755SOL    HW1 2278   2.332   2.668   1.551
  755SOL    HW2 2279   2.304   2.525   1.625
  756SOL     OW 2280   2.875   1.967   1.770
  756SOL    HW1 2281   2.881   2.052   1.718
  756SOL    HW2 2282   2.907   1.891   1.713
  757SOL     OW 2283   2.366   1.912   1.740
  757SOL    HW1 2284   2.324   1.855   1.670
  757SOL    HW2 2285   2.300   1.981   1.772
  758SOL     OW 2286   2.435   2.732   1.029
  758SOL    HW1 2287   2.479   2.821   1.020
  758SOL    HW2 2288   2.372   2.732   1.106
  759SOL     OW 2289   3.071   2.387   0.275
  759SOL    HW1 2290   3.084   2.303   0.329
  759SOL    HW2 2291   3.042   2.461   0.335
  760SOL     OW 2292   2.169   2.075   1.231
  760SOL    HW1 2293   2.146   2.112   1.321
  760SOL    HW2 2294   2.139   1.980   1.225
  761SOL     OW 2295   2.594   2.496   1.064
  761SOL    HW1 2296   2.653   2.470   0.988
  761SOL    HW2 2297   2.566   2.592   1.053
  762SOL     OW 2298   2.169   1.925   0.618
  762SOL    HW1 2299   2.158   2.019   0.651
  762SOL    HW2 2300   2.164   1.862   0.695
  763SOL     OW 2301   2.885   2.628   0.966
  763SOL    HW1 2302   2.900   2.649   1.062
  763SOL    HW2 2303   2.855   2.533   0.957
  764SOL     OW 2304   2.212   2.760   1.804
  764SOL    HW1 2305   2.288   2.804   1.852
  764SOL    HW2 2306   2.247   2.713   1.722
  765SOL     OW 2307   2.181   2.672   0.949
  765SOL    HW1 2308   2.274   2.708   0.954
  765SOL    HW2 2309   2.175   2.587   1.001
  766SOL     OW 2310   2.201   2.371   1.006
  766SOL    HW1 2311   2.149   2.288   0.989
  766SOL    HW2 2312   2.278   2.376   0.942
  767SOL     OW 2313   2.864   2.658   1.238
  767SOL    HW1 2314   2.905   2.626   1.324
  767SOL    HW2 2315   2.768   2.631   1.235
  768SOL     OW 2316   1.902   2.406   1.114
  768SOL    HW1 2317   1.987   2.373   1.073
  768SOL    HW2 2318   1.915   2.421   1.212
  769SOL     OW 2319   2.051   2.382   1.722
  769SOL    HW1 2320   2.110   2.342   1.652
  769SOL    HW2 2321   1.993   2.453   1.681
  770SOL     OW 2322   2.677   2.434   0.325
  770SOL    HW1 2323   2.684   2.345   0.279
  770SOL    HW2 2324   2.583   2.468   0.317
  771SOL     OW 2325   2.533   2.326   1.269
  771SOL    HW1 2326   2.499   2.237   1.239
  771SOL    HW2 2327   2.559   2.380   1.189
  772SOL     OW 2328   2.335   2.362   0.191
  772SOL    HW1 2329   2.396   2.442   0.195
  772SOL    HW2 2330   2.240   2.393   0.198
  773SOL     OW 2331   2.021   2.999   1.466
  773SOL    HW1 2332   2.043   2.938   1.542
  773SOL    HW2 2333   2.031   2.950   1.380
  774SOL     OW 2334   3.164   2.717   0.309
  774SOL    HW1 2335   3.078   2.686   0.351
  774SOL    HW2 2336   3.160   2.703   0.210
  775SOL     OW 2337   2.765   1.948   0.133
  775SOL    HW1 2338   2.816   1.949   0.047
  775SOL    HW2 2339   2.821   1.906   0.204
  776SOL     OW 2340   2.125   2.188   0.720
  776SOL    HW1 2341   2.046   2.239   0.686
  776SOL    HW2 2342   2.116   2.173   0.818
  777SOL     OW 2343   2.778   2.772   0.291
  777SOL    HW1 2344   2.841   2.810   0.223
  777SOL    HW2 2345   2.818   2.689   0.330
  778SOL     OW 2346   2.876   2.098   0.971
  778SOL    HW1 2347   2.868   2.062   0.878
  778SOL    HW2 2348   2.874   2.022   1.036
  779SOL     OW 2349   1.967   2.875   1.726
  779SOL    HW1 2350   1.890   2.842   1.780
  779SOL    HW2 2351   2.052   2.845   1.768
  780SOL     OW 2352   2.534   2.065   1.489
  780SOL    HW1 2353   2.624   2.049   1.449
  780SOL    HW2 2354   2.542   2.070   1.588
  781SOL     OW 2355   1.937   2.207   0.033
  781SOL    HW1 2356   1.845   2.179   0.004
  781SOL    HW2 2357   1.968   2.284  -0.023
  782SOL     OW 2358   2.475   2.704   1.431
  782SOL    HW1 2359   2.531   2.785   1.414
  782SOL    HW2 2360   2.534   2.624   1.434
  783SOL     OW 2361   2.578   2.427   1.708
  783SOL    HW1 2362   2.597   2.492   1.782
  783SOL    HW2 2363   2.638   2.347   1.717
  784SOL     OW 2364   3.087   2.187   0.449
  784SOL    HW1 2365   3.152   2.113   0.438
  784SOL    HW2 2366   3.107   2.237   0.533
  785SOL     OW 2367   2.456   2.607   0.652
  785SOL    HW1 2368   2.506   2.692   0.633
  785SOL    HW2 2369   2.368   2.609   0.604
  786SOL     OW 2370   2.721   2.818   0.861
  786SOL    HW1 2371   2.775   2.749   0.909
  786SOL    HW2 2372   2.689   2.887   0.927
  787SOL     OW 2373   2.945   2.846   0.087
  787SOL    HW1 2374   2.922   2.899   0.005
  787SOL    HW2 2375   3.026   2.790   0.068
  788SOL     OW 2376   1.941   3.102   0.653
  788SOL    HW1 2377   1.940   3.055   0.741
  788SOL    HW2 2378   2.023   3.074   0.602
  789SOL     OW 2379   2.290   2.286   0.520
  789SOL    HW1 2380   2.320   2.214   0.458
  789SOL    HW2 2381   2.251   2.246   0.603
  790SOL     OW 2382   2.179   2.409   1.280
  790SOL    HW1 2383   2.217   2.350   1.352
  790SOL    HW2 2384   2.219   2.383   1.192
  791SOL     OW 2385   2.863   1.896   1.154
  791SOL    HW1 2386   2.800   1.824   1.123
  791SOL    HW2 2387   2.956   1.860   1.154
  792SOL     OW 2388   1.901   2.939   0.300
  792SOL    HW1 2389   2.000   2.928   0.291
  792SOL    HW2 2390   1.861   2.853   0.332
  793SOL     OW 2391   2.092   2.490   1.975
  793SOL    HW1 2392   1.999   2.488   2.012
  793SOL    HW2 2393   2.093   2.451   1.883
  794SOL     OW 2394   2.087   2.137   2.858
  794SOL    HW1 2395   2.122   2.120   2.950
  794SOL    HW2 2396   1.999   2.092   2.846
  795SOL     OW 2397   1.881   2.230   2.509
  795SOL    HW1 2398   1.799   2.273   2.548
  795SOL    HW2 2399   1.853   2.157   2.446
  796SOL     OW 2400   2.547   2.874   2.527
  796SOL    HW1 2401   2.616   2.858   2.597
  796SOL    HW2 2402   2.474   2.931   2.565
  797SOL     OW 2403   2.102   2.953   2.748
  797SOL    HW1 2404   2.116   2.869   2.800
  797SOL    HW2 2405   2.047   3.017   2.803
  798SOL     OW 2406   1.984   2.505   2.425
  798SOL    HW1 2407   1.939   2.417   2.442
  798SOL    HW2 2408   1.983   2.559   2.509
  799SOL     OW 2409   2.671   1.866   2.364
  799SOL    HW1 2410   2.711   1.957   2.355
  799SOL    HW2 2411   2.571   1.874   2.370
  800SOL     OW 2412   2.460   2.591   2.132
  800SOL    HW1 2413   2.484   2.660   2.064
  800SOL    HW2 2414   2.382   2.624   2.186
  801SOL     OW 2415   1.938   2.673   2.651
  801SOL    HW1 2416   2.037   2.661   2.660
  801SOL    HW2 2417   1.914   2.768   2.672
  802SOL     OW 2418   2.727   2.210   2.057
  802SOL    HW1 2419   2.786   2.273   2.008
  802SOL    HW2 2420   2.746   2.116   2.028
  803SOL     OW 2421   2.412   2.058   2.747
  803SOL    HW1 2422   2.407   2.053   2.847
  803SOL    HW2 2423   2.414   2.154   2.718
  804SOL     OW 2424   2.244   2.562   2.342
  804SOL    HW1 2425   2.289   2.472   2.339
  804SOL    HW2 2426   2.150   2.551   2.375
  805SOL     OW 2427   2.476   1.984   1.979
  805SOL    HW1 2428   2.574   1.962   1.986
  805SOL    HW2 2429   2.445   1.967   1.886
  806SOL     OW 2430   2.784   2.365   2.761
  806SOL    HW1 2431   2.759   2.356   2.665
  806SOL    HW2 2432   2.832   2.283   2.792
  807SOL     OW 2433   2.401   1.926   2.374
  807SOL    HW1 2434   2.320   1.927   2.432
  807SOL    HW2 2435   2.404   2.009   2.319
  808SOL     OW 2436   2.159   1.897   2.033
  808SOL    HW1 2437   2.208   1.981   2.012
  808SOL    HW2 2438   2.221   1.832   2.078
  809SOL     OW 2439   2.797   2.098   2.342
  809SOL    HW1 2440   2.749   2.139   2.264
  809SOL    HW2 2441   2.896   2.096   2.323
  810SOL     OW 2442   2.894   2.411   1.878
  810SOL    HW1 2443   2.853   2.493   1.839
  810SOL    HW2 2444   2.958   2.437   1.951
  811SOL     OW 2445   2.728   2.316   2.504
  811SOL    HW1 2446   2.696   2.388   2.442
  811SOL    HW2 2447   2.752   2.235   2.451
  812SOL     OW 2448   2.879   1.901   2.615
  812SOL    HW1 2449   2.807   1.906   2.546
  812SOL    HW2 2450   2.855   1.832   2.684
  813SOL     OW 2451   2.389   2.118   2.190
  813SOL    HW1 2452   2.416   2.059   2.115
  813SOL    HW2 2453   2.389   2.213   2.159
  814SOL     OW 2454   2.973   3.057   2.962
  814SOL    HW1 2455   2.933   3.101   3.043
  814SOL    HW2 2456   2.932   3.094   2.879
  815SOL     OW 2457   2.428   2.399   2.727
  815SOL    HW1 2458   2.440   2.465   2.653
  815SOL    HW2 2459   2.474   2.433   2.810
  816SOL     OW 2460   2.435   2.732   2.891
  816SOL    HW1 2461   2.479   2.821   2.882
  816SOL    HW2 2462   2.372   2.732   2.968
  817SOL     OW 2463   3.071   2.387   2.137
  817SOL    HW1 2464   3.084   2.303   2.191
  817SOL    HW2 2465   3.042   2.461   2.197
  818SOL     OW 2466   2.169   2.075   3.093
  818SOL    HW1 2467   2.146   2.112   3.183
  818SOL    HW2 2468   2.139   1.980   3.087
  819SOL     OW 2469   2.594   2.496   2.926
  819SOL    HW1 2470   2.653   2.470   2.850
  819SOL    HW2 2471   2.566   2.592   2.915
  820SOL     OW 2472   2.169   1.925   2.480
  820SOL    HW1 2473   2.158   2.019   2.513
  820SOL    HW2 2474   2.164   1.862   2.557
  821SOL     OW 2475   2.181   2.672   2.811
  821SOL    HW1 2476   2.274   2.708   2.816
  821SOL    HW2 2477   2.175   2.587   2.863
  822SOL     OW 2478   2.201   2.371   2.868
  822SOL    HW1 2479   2.149   2.288   2.851
  822SOL    HW2 2480   2.278   2.376   2.804
  823SOL     OW 2481   2.677   2.434   2.187
  823SOL    HW1 2482   2.684   2.345   2.141
  823SOL    HW2 2483   2.583   2.468   2.179
  824SOL     OW 2484   2.533   2.326   3.131
  824SOL    HW1 2485   2.499   2.237   3.101
  824SOL    HW2 2486   2.559   2.380   3.051
  825SOL     OW 2487   2.335   2.362   2.053
  825SOL    HW1 2488   2.396   2.442   2.057
  825SOL    HW2 2489   2.240   2.393   2.060
  826SOL     OW 2490   3.164   2.717   2.171
  826SOL    HW1 2491   3.078   2.686   2.213
  826SOL    HW2 2492   3.160   2.703   2.072
  827SOL     OW 2493   2.125   2.188   2.582
  827SOL    HW1 2494   2.046   2.239   2.548
  827SOL    HW2 2495   2.116   2.173   2.680
  828SOL     OW 2496   2.778   2.772   2.153
  828SOL    HW1 2497   2.841   2.810   2.085
  828SOL    HW2 2498   2.818   2.689   2.192
  829SOL     OW 2499   1.937   2.207   1.895
  829SOL    HW1 2500   1.845   2.179   1.866
  829SOL    HW2 2501   1.968   2.284   1.839
  830SOL     OW 2502   1.934   2.028   2.180
  830SOL    HW1 2503   1.917   2.111   2.126
  830SOL    HW2 2504   2.024   1.991   2.158
  831SOL     OW 2505   3.087   2.187   2.311
  831SOL    HW1 2506   3.152   2.113   2.300
  831SOL    HW2 2507   3.107   2.237   2.395
  832SOL     OW 2508   2.456   2.607   2.514
  832SOL    HW1 2509   2.506   2.692   2.495
  832SOL    HW2 2510   2.368   2.609   2.466
  833SOL     OW 2511   2.721   2.818   2.723
  833SOL    HW1 2512   2.775   2.749   2.771
  833SOL    HW2 2513   2.689   2.887   2.789
  834SOL     OW 2514   1.941   3.102   2.515
  834SOL    HW1 2515   1.940   3.055   2.603
  834SOL    HW2 2516   2.023   3.074   2.464
  835SOL     OW 2517   2.290   2.286   2.382
  835SOL    HW1 2518   2.320   2.214   2.320
  835SOL    HW2 2519   2.251   2.246   2.465
   2.93478   2.93478   2.93478
