; mobley_6358463_GMX.itp created by acpype (v: 2023.10.27) on Thu May 14 13:24:41 2026

[ atomtypes ]
;name   bond_type     mass     charge   ptype   sigma         epsilon       Amb
 ca       ca          0.00000  0.00000   A     3.31521e-01   4.13379e-01 ; 1.86  0.0988
 c3       c3          0.00000  0.00000   A     3.39771e-01   4.51035e-01 ; 1.91  0.1078
 f        f           0.00000  0.00000   A     3.03422e-01   3.48109e-01 ; 1.70  0.0832
 ha       ha          0.00000  0.00000   A     2.62548e-01   6.73624e-02 ; 1.47  0.0161

[ moleculetype ]
;name            nrexcl
 mobley_6358463   3

[ atoms ]
;   nr  type  resi  res  atom  cgnr     charge      mass       ; qtot   bond_type
     1   ca     1   MOL    C1    1    -0.106000     12.01000 ; qtot -0.106
     2   ca     1   MOL    C2    2    -0.106000     12.01000 ; qtot -0.212
     3   ca     1   MOL    C3    3    -0.093000     12.01000 ; qtot -0.305
     4   ca     1   MOL    C4    4    -0.093000     12.01000 ; qtot -0.398
     5   ca     1   MOL    C5    5    -0.118300     12.01000 ; qtot -0.516
     6   ca     1   MOL    C6    6    -0.118300     12.01000 ; qtot -0.635
     7   c3     1   MOL    C7    7     0.686201     12.01000 ; qtot 0.052
     8   c3     1   MOL    C8    8     0.686201     12.01000 ; qtot 0.738
     9    f     1   MOL    F1    9    -0.226967     19.00000 ; qtot 0.511
    10    f     1   MOL    F2   10    -0.226967     19.00000 ; qtot 0.284
    11    f     1   MOL    F3   11    -0.226967     19.00000 ; qtot 0.057
    12    f     1   MOL    F4   12    -0.226967     19.00000 ; qtot -0.170
    13    f     1   MOL    F5   13    -0.226967     19.00000 ; qtot -0.397
    14    f     1   MOL    F6   14    -0.226967     19.00000 ; qtot -0.624
    15   ha     1   MOL    H1   15     0.150000      1.00800 ; qtot -0.474
    16   ha     1   MOL    H2   16     0.150000      1.00800 ; qtot -0.324
    17   ha     1   MOL    H3   17     0.162000      1.00800 ; qtot -0.162
    18   ha     1   MOL    H4   18     0.162000      1.00800 ; qtot -0.000

[ bonds ]
;   ai     aj funct   r             k
     1      2   1    1.3986e-01    2.9644e+05 ;     C1 - C2    
     1      3   1    1.3986e-01    2.9644e+05 ;     C1 - C3    
     1     15   1    1.0860e-01    3.0183e+05 ;     C1 - H1    
     2      4   1    1.3986e-01    2.9644e+05 ;     C2 - C4    
     2     16   1    1.0860e-01    3.0183e+05 ;     C2 - H2    
     3      5   1    1.3986e-01    2.9644e+05 ;     C3 - C5    
     3     17   1    1.0860e-01    3.0183e+05 ;     C3 - H3    
     4      6   1    1.3986e-01    2.9644e+05 ;     C4 - C6    
     4     18   1    1.0860e-01    3.0183e+05 ;     C4 - H4    
     5      6   1    1.3986e-01    2.9644e+05 ;     C5 - C6    
     5      7   1    1.5147e-01    2.0410e+05 ;     C5 - C7    
     6      8   1    1.5147e-01    2.0410e+05 ;     C6 - C8    
     7      9   1    1.3512e-01    2.7973e+05 ;     C7 - F1    
     7     10   1    1.3512e-01    2.7973e+05 ;     C7 - F2    
     7     11   1    1.3512e-01    2.7973e+05 ;     C7 - F3    
     8     12   1    1.3512e-01    2.7973e+05 ;     C8 - F4    
     8     13   1    1.3512e-01    2.7973e+05 ;     C8 - F5    
     8     14   1    1.3512e-01    2.7973e+05 ;     C8 - F6    

[ pairs ]
;   ai     aj    funct
     1      6      1 ;     C1 - C6    
     1      7      1 ;     C1 - C7    
     1     18      1 ;     C1 - H4    
     2      5      1 ;     C2 - C5    
     2      8      1 ;     C2 - C8    
     2     17      1 ;     C2 - H3    
     3      4      1 ;     C3 - C4    
     3      8      1 ;     C3 - C8    
     3      9      1 ;     C3 - F1    
     3     10      1 ;     C3 - F2    
     3     11      1 ;     C3 - F3    
     3     16      1 ;     C3 - H2    
     4      7      1 ;     C4 - C7    
     4     12      1 ;     C4 - F4    
     4     13      1 ;     C4 - F5    
     4     14      1 ;     C4 - F6    
     5     12      1 ;     C5 - F4    
     5     13      1 ;     C5 - F5    
     5     14      1 ;     C5 - F6    
     5     18      1 ;     C5 - H4    
     6      9      1 ;     C6 - F1    
     6     10      1 ;     C6 - F2    
     6     11      1 ;     C6 - F3    
     6     16      1 ;     C6 - H2    
     6     17      1 ;     C6 - H3    
     7      8      1 ;     C7 - C8    
     7     17      1 ;     C7 - H3    
     8     18      1 ;     C8 - H4    
    15      4      1 ;     H1 - C4    
    15      5      1 ;     H1 - C5    
    15     16      1 ;     H1 - H2    
    15     17      1 ;     H1 - H3    
    16     18      1 ;     H2 - H4    

[ angles ]
;   ai     aj     ak    funct   theta         cth
     1      2      4      1    1.2002e+02    5.3279e+02 ;     C1 - C2     - C4    
     1      2     16      1    1.1988e+02    3.7572e+02 ;     C1 - C2     - H2    
     1      3      5      1    1.2002e+02    5.3279e+02 ;     C1 - C3     - C5    
     1      3     17      1    1.1988e+02    3.7572e+02 ;     C1 - C3     - H3    
     2      1      3      1    1.2002e+02    5.3279e+02 ;     C2 - C1     - C3    
     2      1     15      1    1.1988e+02    3.7572e+02 ;     C2 - C1     - H1    
     2      4      6      1    1.2002e+02    5.3279e+02 ;     C2 - C4     - C6    
     2      4     18      1    1.1988e+02    3.7572e+02 ;     C2 - C4     - H4    
     3      1     15      1    1.1988e+02    3.7572e+02 ;     C3 - C1     - H1    
     3      5      6      1    1.2002e+02    5.3279e+02 ;     C3 - C5     - C6    
     3      5      7      1    1.2083e+02    5.0827e+02 ;     C3 - C5     - C7    
     4      2     16      1    1.1988e+02    3.7572e+02 ;     C4 - C2     - H2    
     4      6      5      1    1.2002e+02    5.3279e+02 ;     C4 - C6     - C5    
     4      6      8      1    1.2083e+02    5.0827e+02 ;     C4 - C6     - C8    
     5      3     17      1    1.1988e+02    3.7572e+02 ;     C5 - C3     - H3    
     5      6      8      1    1.2083e+02    5.0827e+02 ;     C5 - C6     - C8    
     5      7      9      1    1.1178e+02    6.6308e+02 ;     C5 - C7     - F1    
     5      7     10      1    1.1178e+02    6.6308e+02 ;     C5 - C7     - F2    
     5      7     11      1    1.1178e+02    6.6308e+02 ;     C5 - C7     - F3    
     6      4     18      1    1.1988e+02    3.7572e+02 ;     C6 - C4     - H4    
     6      5      7      1    1.2083e+02    5.0827e+02 ;     C6 - C5     - C7    
     6      8     12      1    1.1178e+02    6.6308e+02 ;     C6 - C8     - F4    
     6      8     13      1    1.1178e+02    6.6308e+02 ;     C6 - C8     - F5    
     6      8     14      1    1.1178e+02    6.6308e+02 ;     C6 - C8     - F6    
     9      7     10      1    1.0737e+02    8.9437e+02 ;     F1 - C7     - F2    
     9      7     11      1    1.0737e+02    8.9437e+02 ;     F1 - C7     - F3    
    10      7     11      1    1.0737e+02    8.9437e+02 ;     F2 - C7     - F3    
    12      8     13      1    1.0737e+02    8.9437e+02 ;     F4 - C8     - F5    
    12      8     14      1    1.0737e+02    8.9437e+02 ;     F4 - C8     - F6    
    13      8     14      1    1.0737e+02    8.9437e+02 ;     F5 - C8     - F6    

[ dihedrals ] ; propers
; for gromacs 4.5 or higher, using funct 9
;    i      j      k      l   func   phase     kd      pn
     1      2      4      6      9   180.00  15.16700   2 ;     C1-    C2-    C4-    C6
     1      2      4     18      9   180.00  15.16700   2 ;     C1-    C2-    C4-    H4
     1      3      5      6      9   180.00  15.16700   2 ;     C1-    C3-    C5-    C6
     1      3      5      7      9   180.00  15.16700   2 ;     C1-    C3-    C5-    C7
     2      1      3      5      9   180.00  15.16700   2 ;     C2-    C1-    C3-    C5
     2      1      3     17      9   180.00  15.16700   2 ;     C2-    C1-    C3-    H3
     2      4      6      5      9   180.00  15.16700   2 ;     C2-    C4-    C6-    C5
     2      4      6      8      9   180.00  15.16700   2 ;     C2-    C4-    C6-    C8
     3      1      2      4      9   180.00  15.16700   2 ;     C3-    C1-    C2-    C4
     3      1      2     16      9   180.00  15.16700   2 ;     C3-    C1-    C2-    H2
     3      5      6      4      9   180.00  15.16700   2 ;     C3-    C5-    C6-    C4
     3      5      6      8      9   180.00  15.16700   2 ;     C3-    C5-    C6-    C8
     3      5      7      9      9     0.00   0.00000   0 ;     C3-    C5-    C7-    F1
     3      5      7     10      9     0.00   0.00000   0 ;     C3-    C5-    C7-    F2
     3      5      7     11      9     0.00   0.00000   0 ;     C3-    C5-    C7-    F3
     4      6      5      7      9   180.00  15.16700   2 ;     C4-    C6-    C5-    C7
     4      6      8     12      9     0.00   0.00000   0 ;     C4-    C6-    C8-    F4
     4      6      8     13      9     0.00   0.00000   0 ;     C4-    C6-    C8-    F5
     4      6      8     14      9     0.00   0.00000   0 ;     C4-    C6-    C8-    F6
     5      6      4     18      9   180.00  15.16700   2 ;     C5-    C6-    C4-    H4
     5      6      8     12      9     0.00   0.00000   0 ;     C5-    C6-    C8-    F4
     5      6      8     13      9     0.00   0.00000   0 ;     C5-    C6-    C8-    F5
     5      6      8     14      9     0.00   0.00000   0 ;     C5-    C6-    C8-    F6
     6      4      2     16      9   180.00  15.16700   2 ;     C6-    C4-    C2-    H2
     6      5      3     17      9   180.00  15.16700   2 ;     C6-    C5-    C3-    H3
     6      5      7      9      9     0.00   0.00000   0 ;     C6-    C5-    C7-    F1
     6      5      7     10      9     0.00   0.00000   0 ;     C6-    C5-    C7-    F2
     6      5      7     11      9     0.00   0.00000   0 ;     C6-    C5-    C7-    F3
     7      5      3     17      9   180.00  15.16700   2 ;     C7-    C5-    C3-    H3
     7      5      6      8      9   180.00  15.16700   2 ;     C7-    C5-    C6-    C8
     8      6      4     18      9   180.00  15.16700   2 ;     C8-    C6-    C4-    H4
    15      1      2      4      9   180.00  15.16700   2 ;     H1-    C1-    C2-    C4
    15      1      2     16      9   180.00  15.16700   2 ;     H1-    C1-    C2-    H2
    15      1      3      5      9   180.00  15.16700   2 ;     H1-    C1-    C3-    C5
    15      1      3     17      9   180.00  15.16700   2 ;     H1-    C1-    C3-    H3
    16      2      4     18      9   180.00  15.16700   2 ;     H2-    C2-    C4-    H4

[ dihedrals ] ; impropers
; treated as propers in GROMACS to use correct AMBER analytical function
;    i      j      k      l   func   phase     kd      pn
     1      4      2     16      4   180.00   4.60240   2 ;     C1-    C4-    C2-    H2
     1      5      3     17      4   180.00   4.60240   2 ;     C1-    C5-    C3-    H3
     2      6      4     18      4   180.00   4.60240   2 ;     C2-    C6-    C4-    H4
     3      6      5      7      4   180.00   4.60240   2 ;     C3-    C6-    C5-    C7
     8      4      6      5      4   180.00   4.60240   2 ;     C8-    C4-    C6-    C5
    15      1      3      2      4   180.00   4.60240   2 ;     H1-    C1-    C3-    C2
