; mobley_8558116_GMX.itp created by acpype (v: 2023.10.27) on Thu May 14 13:30:29 2026

[ atomtypes ]
;name   bond_type     mass     charge   ptype   sigma         epsilon       Amb
 c6       c6          0.00000  0.00000   A     3.39771e-01   4.51035e-01 ; 1.91  0.1078
 c3       c3          0.00000  0.00000   A     3.39771e-01   4.51035e-01 ; 1.91  0.1078
 n3       n3          0.00000  0.00000   A     3.36510e-01   3.58987e-01 ; 1.89  0.0858
 os       os          0.00000  0.00000   A     3.15610e-01   3.03758e-01 ; 1.77  0.0726
 h1       h1          0.00000  0.00000   A     2.42200e-01   8.70272e-02 ; 1.36  0.0208

[ moleculetype ]
;name            nrexcl
 mobley_8558116   3

[ atoms ]
;   nr  type  resi  res  atom  cgnr     charge      mass       ; qtot   bond_type
     1   c6     1   MOL    C1    1     0.131800     12.01000 ; qtot 0.132
     2   c6     1   MOL    C2    2     0.131800     12.01000 ; qtot 0.264
     3   c6     1   MOL    C3    3     0.126400     12.01000 ; qtot 0.390
     4   c6     1   MOL    C4    4     0.126400     12.01000 ; qtot 0.516
     5   c3     1   MOL    C5    5     0.157100     12.01000 ; qtot 0.673
     6   n3     1   MOL    N1    6    -0.727599     14.01000 ; qtot -0.054
     7   os     1   MOL    O1    7    -0.416600     16.00000 ; qtot -0.471
     8   h1     1   MOL    H1    8     0.039700      1.00800 ; qtot -0.431
     9   h1     1   MOL    H2    9     0.039700      1.00800 ; qtot -0.391
    10   h1     1   MOL    H3   10     0.039700      1.00800 ; qtot -0.352
    11   h1     1   MOL    H4   11     0.039700      1.00800 ; qtot -0.312
    12   h1     1   MOL    H5   12     0.053200      1.00800 ; qtot -0.259
    13   h1     1   MOL    H6   13     0.053200      1.00800 ; qtot -0.205
    14   h1     1   MOL    H7   14     0.053200      1.00800 ; qtot -0.152
    15   h1     1   MOL    H8   15     0.053200      1.00800 ; qtot -0.099
    16   h1     1   MOL    H9   16     0.033033      1.00800 ; qtot -0.066
    17   h1     1   MOL   H10   17     0.033033      1.00800 ; qtot -0.033
    18   h1     1   MOL   H11   18     0.033033      1.00800 ; qtot 0.000

[ bonds ]
;   ai     aj funct   r             k
     1      3   1    1.5384e-01    1.8979e+05 ;     C1 - C3    
     1      6   1    1.4657e-01    2.1199e+05 ;     C1 - N1    
     1      8   1    1.0984e-01    2.8620e+05 ;     C1 - H1    
     1      9   1    1.0984e-01    2.8620e+05 ;     C1 - H2    
     2      4   1    1.5384e-01    1.8979e+05 ;     C2 - C4    
     2      6   1    1.4657e-01    2.1199e+05 ;     C2 - N1    
     2     10   1    1.0984e-01    2.8620e+05 ;     C2 - H3    
     2     11   1    1.0984e-01    2.8620e+05 ;     C2 - H4    
     3      7   1    1.4300e-01    2.3412e+05 ;     C3 - O1    
     3     12   1    1.0984e-01    2.8620e+05 ;     C3 - H5    
     3     13   1    1.0984e-01    2.8620e+05 ;     C3 - H6    
     4      7   1    1.4300e-01    2.3412e+05 ;     C4 - O1    
     4     14   1    1.0984e-01    2.8620e+05 ;     C4 - H7    
     4     15   1    1.0984e-01    2.8620e+05 ;     C4 - H8    
     5      6   1    1.4626e-01    2.1410e+05 ;     C5 - N1    
     5     16   1    1.0969e-01    2.8804e+05 ;     C5 - H9    
     5     17   1    1.0969e-01    2.8804e+05 ;     C5 - H10   
     5     18   1    1.0969e-01    2.8804e+05 ;     C5 - H11   

[ pairs ]
;   ai     aj    funct
     1      4      1 ;     C1 - C4    
     1     10      1 ;     C1 - H3    
     1     11      1 ;     C1 - H4    
     1     16      1 ;     C1 - H9    
     1     17      1 ;     C1 - H10   
     1     18      1 ;     C1 - H11   
     2      3      1 ;     C2 - C3    
     2     16      1 ;     C2 - H9    
     2     17      1 ;     C2 - H10   
     2     18      1 ;     C2 - H11   
     3      5      1 ;     C3 - C5    
     3     14      1 ;     C3 - H7    
     3     15      1 ;     C3 - H8    
     4      5      1 ;     C4 - C5    
     4     12      1 ;     C4 - H5    
     4     13      1 ;     C4 - H6    
     5     10      1 ;     C5 - H3    
     5     11      1 ;     C5 - H4    
     6      7      1 ;     N1 - O1    
     6     12      1 ;     N1 - H5    
     6     13      1 ;     N1 - H6    
     6     14      1 ;     N1 - H7    
     6     15      1 ;     N1 - H8    
     7     10      1 ;     O1 - H3    
     7     11      1 ;     O1 - H4    
     8      2      1 ;     H1 - C2    
     8      5      1 ;     H1 - C5    
     8      7      1 ;     H1 - O1    
     8     12      1 ;     H1 - H5    
     8     13      1 ;     H1 - H6    
     9      2      1 ;     H2 - C2    
     9      5      1 ;     H2 - C5    
     9      7      1 ;     H2 - O1    
     9     12      1 ;     H2 - H5    
     9     13      1 ;     H2 - H6    
    10     14      1 ;     H3 - H7    
    10     15      1 ;     H3 - H8    
    11     14      1 ;     H4 - H7    
    11     15      1 ;     H4 - H8    

[ angles ]
;   ai     aj     ak    funct   theta         cth
     1      3      7      1    1.1009e+02    6.3948e+02 ;     C1 - C3     - O1    
     1      3     12      1    1.0918e+02    3.6217e+02 ;     C1 - C3     - H5    
     1      3     13      1    1.0918e+02    3.6217e+02 ;     C1 - C3     - H6    
     1      6      2      1    1.1070e+02    6.5429e+02 ;     C1 - N1     - C2    
     1      6      5      1    1.1238e+02    6.5003e+02 ;     C1 - N1     - C5    
     2      4      7      1    1.1009e+02    6.3948e+02 ;     C2 - C4     - O1    
     2      4     14      1    1.0918e+02    3.6217e+02 ;     C2 - C4     - H7    
     2      4     15      1    1.0918e+02    3.6217e+02 ;     C2 - C4     - H8    
     2      6      5      1    1.1238e+02    6.5003e+02 ;     C2 - N1     - C5    
     3      1      6      1    1.1084e+02    5.4743e+02 ;     C3 - C1     - N1    
     3      1      8      1    1.0918e+02    3.6217e+02 ;     C3 - C1     - H1    
     3      1      9      1    1.0918e+02    3.6217e+02 ;     C3 - C1     - H2    
     3      7      4      1    1.1330e+02    7.3873e+02 ;     C3 - O1     - C4    
     4      2      6      1    1.1084e+02    5.4743e+02 ;     C4 - C2     - N1    
     4      2     10      1    1.0918e+02    3.6217e+02 ;     C4 - C2     - H3    
     4      2     11      1    1.0918e+02    3.6217e+02 ;     C4 - C2     - H4    
     6      1      8      1    1.0963e+02    4.0041e+02 ;     N1 - C1     - H1    
     6      1      9      1    1.0963e+02    4.0041e+02 ;     N1 - C1     - H2    
     6      2     10      1    1.0963e+02    4.0041e+02 ;     N1 - C2     - H3    
     6      2     11      1    1.0963e+02    4.0041e+02 ;     N1 - C2     - H4    
     6      5     16      1    1.1009e+02    4.0033e+02 ;     N1 - C5     - H9    
     6      5     17      1    1.1009e+02    4.0033e+02 ;     N1 - C5     - H10   
     6      5     18      1    1.1009e+02    4.0033e+02 ;     N1 - C5     - H11   
     7      3     12      1    1.0808e+02    4.7430e+02 ;     O1 - C3     - H5    
     7      3     13      1    1.0808e+02    4.7430e+02 ;     O1 - C3     - H6    
     7      4     14      1    1.0808e+02    4.7430e+02 ;     O1 - C4     - H7    
     7      4     15      1    1.0808e+02    4.7430e+02 ;     O1 - C4     - H8    
     8      1      9      1    1.0750e+02    2.9932e+02 ;     H1 - C1     - H2    
    10      2     11      1    1.0750e+02    2.9932e+02 ;     H3 - C2     - H4    
    12      3     13      1    1.0750e+02    2.9932e+02 ;     H5 - C3     - H6    
    14      4     15      1    1.0750e+02    2.9932e+02 ;     H7 - C4     - H8    
    16      5     17      1    1.0855e+02    2.9824e+02 ;     H9 - C5     - H10   
    16      5     18      1    1.0855e+02    2.9824e+02 ;     H9 - C5     - H11   
    17      5     18      1    1.0855e+02    2.9824e+02 ;    H10 - C5     - H11   

[ dihedrals ] ; propers
; for gromacs 4.5 or higher, using funct 9
;    i      j      k      l   func   phase     kd      pn
     1      3      7      4      9     0.00   4.85344   3 ;     C1-    C3-    O1-    C4
     1      3      7      4      9     0.00   5.77392   2 ;     C1-    C3-    O1-    C4
     1      3      7      4      9   180.00   1.46440   1 ;     C1-    C3-    O1-    C4
     1      6      2      4      9     0.00   3.05432   3 ;     C1-    N1-    C2-    C4
     1      6      2     10      9     0.00   0.94140   3 ;     C1-    N1-    C2-    H3
     1      6      2     11      9     0.00   0.94140   3 ;     C1-    N1-    C2-    H4
     1      6      5     16      9     0.00   0.94140   3 ;     C1-    N1-    C5-    H9
     1      6      5     17      9     0.00   0.94140   3 ;     C1-    N1-    C5-   H10
     1      6      5     18      9     0.00   0.94140   3 ;     C1-    N1-    C5-   H11
     2      4      7      3      9     0.00   4.85344   3 ;     C2-    C4-    O1-    C3
     2      4      7      3      9     0.00   5.77392   2 ;     C2-    C4-    O1-    C3
     2      4      7      3      9   180.00   1.46440   1 ;     C2-    C4-    O1-    C3
     2      6      5     16      9     0.00   0.94140   3 ;     C2-    N1-    C5-    H9
     2      6      5     17      9     0.00   0.94140   3 ;     C2-    N1-    C5-   H10
     2      6      5     18      9     0.00   0.94140   3 ;     C2-    N1-    C5-   H11
     3      1      6      2      9     0.00   3.05432   3 ;     C3-    C1-    N1-    C2
     3      1      6      5      9     0.00   3.05432   3 ;     C3-    C1-    N1-    C5
     3      7      4     14      9     0.00   1.41001   3 ;     C3-    O1-    C4-    H7
     3      7      4     15      9     0.00   1.41001   3 ;     C3-    O1-    C4-    H8
     4      2      6      5      9     0.00   3.05432   3 ;     C4-    C2-    N1-    C5
     4      7      3     12      9     0.00   1.41001   3 ;     C4-    O1-    C3-    H5
     4      7      3     13      9     0.00   1.41001   3 ;     C4-    O1-    C3-    H6
     5      6      2     10      9     0.00   0.94140   3 ;     C5-    N1-    C2-    H3
     5      6      2     11      9     0.00   0.94140   3 ;     C5-    N1-    C2-    H4
     6      1      3      7      9     0.00   0.65084   3 ;     N1-    C1-    C3-    O1
     6      1      3     12      9     0.00   0.65084   3 ;     N1-    C1-    C3-    H5
     6      1      3     13      9     0.00   0.65084   3 ;     N1-    C1-    C3-    H6
     6      2      4      7      9     0.00   0.65084   3 ;     N1-    C2-    C4-    O1
     6      2      4     14      9     0.00   0.65084   3 ;     N1-    C2-    C4-    H7
     6      2      4     15      9     0.00   0.65084   3 ;     N1-    C2-    C4-    H8
     7      4      2     10      9     0.00   0.00000   0 ;     O1-    C4-    C2-    H3
     7      4      2     10      9     0.00   1.04600   1 ;     O1-    C4-    C2-    H3
     7      4      2     11      9     0.00   0.00000   0 ;     O1-    C4-    C2-    H4
     7      4      2     11      9     0.00   1.04600   1 ;     O1-    C4-    C2-    H4
     8      1      3      7      9     0.00   0.00000   0 ;     H1-    C1-    C3-    O1
     8      1      3      7      9     0.00   1.04600   1 ;     H1-    C1-    C3-    O1
     8      1      3     12      9     0.00   0.65084   3 ;     H1-    C1-    C3-    H5
     8      1      3     13      9     0.00   0.65084   3 ;     H1-    C1-    C3-    H6
     8      1      6      2      9     0.00   0.94140   3 ;     H1-    C1-    N1-    C2
     8      1      6      5      9     0.00   0.94140   3 ;     H1-    C1-    N1-    C5
     9      1      3      7      9     0.00   0.00000   0 ;     H2-    C1-    C3-    O1
     9      1      3      7      9     0.00   1.04600   1 ;     H2-    C1-    C3-    O1
     9      1      3     12      9     0.00   0.65084   3 ;     H2-    C1-    C3-    H5
     9      1      3     13      9     0.00   0.65084   3 ;     H2-    C1-    C3-    H6
     9      1      6      2      9     0.00   0.94140   3 ;     H2-    C1-    N1-    C2
     9      1      6      5      9     0.00   0.94140   3 ;     H2-    C1-    N1-    C5
    10      2      4     14      9     0.00   0.65084   3 ;     H3-    C2-    C4-    H7
    10      2      4     15      9     0.00   0.65084   3 ;     H3-    C2-    C4-    H8
    11      2      4     14      9     0.00   0.65084   3 ;     H4-    C2-    C4-    H7
    11      2      4     15      9     0.00   0.65084   3 ;     H4-    C2-    C4-    H8
