mobley_6497672_GMX.gro created by acpype (v: 2023.10.27) on Thu May 14 13:56:35 2026
 1634
    1MOL     C1    1   1.267   1.193   1.258
    1MOL     C2    2   1.294   1.320   1.290
    1MOL     C3    3   1.366   1.088   1.287
    1MOL     C4    4   1.201   1.434   1.266
    1MOL     O1    5   1.346   0.970   1.259
    1MOL     H1    6   1.174   1.164   1.210
    1MOL     H2    7   1.389   1.345   1.338
    1MOL     H3    8   1.459   1.121   1.335
    1MOL     H4    9   1.249   1.508   1.200
    1MOL     H5   10   1.176   1.482   1.360
    1MOL     H6   11   1.108   1.401   1.218
    2SOL     OW   12   0.230   0.628   0.113
    2SOL    HW1   13   0.137   0.626   0.150
    2SOL    HW2   14   0.231   0.589   0.021
    3SOL     OW   15   0.225   0.275   0.996
    3SOL    HW1   16   0.260   0.258   1.088
    3SOL    HW2   17   0.137   0.230   0.984
    4SOL     OW   18   0.019   0.368   0.647
    4SOL    HW1   19  -0.063   0.411   0.686
    4SOL    HW2   20  -0.009   0.295   0.584
    5SOL     OW   21   0.569   1.275   1.165
    5SOL    HW1   22   0.476   1.268   1.128
    5SOL    HW2   23   0.580   1.364   1.209
    6SOL     OW   24   1.555   1.511   0.703
    6SOL    HW1   25   1.498   1.495   0.784
    6SOL    HW2   26   1.496   1.521   0.623
    7SOL     OW   27   1.135   0.703   0.717
    7SOL    HW1   28   1.192   0.781   0.692
    7SOL    HW2   29   1.075   0.729   0.793
    8SOL     OW   30   1.755   0.607   0.231
    8SOL    HW1   31   1.743   0.594   0.132
    8SOL    HW2   32   1.725   0.526   0.280
    9SOL     OW   33   0.768   1.144   1.023
    9SOL    HW1   34   0.690   1.161   1.083
    9SOL    HW2   35   0.802   1.231   0.987
   10SOL     OW   36   0.850   0.798   1.823
   10SOL    HW1   37   0.846   0.874   1.888
   10SOL    HW2   38   0.872   0.834   1.732
   11SOL     OW   39   0.685   1.012   0.665
   11SOL    HW1   40   0.754   0.996   0.735
   11SOL    HW2   41   0.612   1.069   0.703
   12SOL     OW   42   0.686   1.161   1.803
   12SOL    HW1   43   0.746   1.240   1.817
   12SOL    HW2   44   0.600   1.192   1.762
   13SOL     OW   45   0.335   1.435   1.061
   13SOL    HW1   46   0.257   1.404   1.008
   13SOL    HW2   47   0.393   1.493   1.004
   14SOL     OW   48   1.460   1.505   1.339
   14SOL    HW1   49   1.484   1.599   1.365
   14SOL    HW2   50   1.444   1.451   1.421
   15SOL     OW   51   0.438   0.392   1.499
   15SOL    HW1   52   0.520   0.336   1.508
   15SOL    HW2   53   0.357   0.334   1.503
   16SOL     OW   54   1.603   0.447   0.737
   16SOL    HW1   55   1.529   0.493   0.687
   16SOL    HW2   56   1.654   0.515   0.790
   17SOL     OW   57   0.231   1.713   0.483
   17SOL    HW1   58   0.265   1.790   0.537
   17SOL    HW2   59   0.275   1.713   0.393
   18SOL     OW   60   1.127   1.341   1.690
   18SOL    HW1   61   1.174   1.341   1.778
   18SOL    HW2   62   1.079   1.254   1.679
   19SOL     OW   63   0.230   1.434   0.538
   19SOL    HW1   64   0.204   1.530   0.538
   19SOL    HW2   65   0.159   1.380   0.583
   20SOL     OW   66   0.240   1.091   0.886
   20SOL    HW1   67   0.254   1.007   0.938
   20SOL    HW2   68   0.185   1.155   0.941
   21SOL     OW   69   0.620   1.786   1.439
   21SOL    HW1   70   0.528   1.769   1.474
   21SOL    HW2   71   0.648   1.878   1.465
   22SOL     OW   72   0.606   0.964   0.123
   22SOL    HW1   73   0.613   1.048   0.069
   22SOL    HW2   74   0.652   0.977   0.211
   23SOL     OW   75   1.594   0.114   1.480
   23SOL    HW1   76   1.576   0.181   1.408
   23SOL    HW2   77   1.591   0.160   1.569
   24SOL     OW   78   0.122   0.643   0.563
   24SOL    HW1   79   0.077   0.555   0.580
   24SOL    HW2   80   0.121   0.697   0.647
   25SOL     OW   81   1.842   1.767   0.359
   25SOL    HW1   82   1.896   1.738   0.439
   25SOL    HW2   83   1.872   1.857   0.330
   26SOL     OW   84   0.027   1.596   0.117
   26SOL    HW1   85   0.008   1.500   0.138
   26SOL    HW2   86  -0.006   1.654   0.192
   27SOL     OW   87   1.689   0.922   0.612
   27SOL    HW1   88   1.784   0.893   0.620
   27SOL    HW2   89   1.681   0.987   0.537
   28SOL     OW   90   1.641   1.108   0.432
   28SOL    HW1   91   1.727   1.110   0.380
   28SOL    HW2   92   1.655   1.155   0.520
   29SOL     OW   93   0.113   0.737   1.597
   29SOL    HW1   94   0.201   0.724   1.642
   29SOL    HW2   95   0.100   0.834   1.575
   30SOL     OW   96   0.613   1.365   0.726
   30SOL    HW1   97   0.564   1.278   0.735
   30SOL    HW2   98   0.590   1.408   0.639
   31SOL     OW   99   0.809   0.004   0.502
   31SOL    HW1  100   0.849   0.095   0.493
   31SOL    HW2  101   0.709   0.012   0.508
   32SOL     OW  102   0.197   0.976   1.264
   32SOL    HW1  103   0.286   0.931   1.250
   32SOL    HW2  104   0.124   0.911   1.245
   33SOL     OW  105   1.525   0.999   0.190
   33SOL    HW1  106   1.462   0.923   0.203
   33SOL    HW2  107   1.573   1.017   0.276
   34SOL     OW  108   1.187   1.792   1.616
   34SOL    HW1  109   1.211   1.852   1.540
   34SOL    HW2  110   1.194   1.697   1.586
   35SOL     OW  111   0.317   0.251   1.801
   35SOL    HW1  112   0.388   0.322   1.807
   35SOL    HW2  113   0.229   0.290   1.829
   36SOL     OW  114   1.466   1.417   0.953
   36SOL    HW1  115   1.407   1.423   1.033
   36SOL    HW2  116   1.451   1.329   0.907
   37SOL     OW  117   1.667   1.714   0.572
   37SOL    HW1  118   1.626   1.691   0.484
   37SOL    HW2  119   1.649   1.640   0.637
   38SOL     OW  120   0.598   0.729   0.270
   38SOL    HW1  121   0.622   0.798   0.202
   38SOL    HW2  122   0.520   0.762   0.324
   39SOL     OW  123   1.281   0.345   0.944
   39SOL    HW1  124   1.195   0.295   0.931
   39SOL    HW2  125   1.343   0.291   1.000
   40SOL     OW  126   1.576   1.662   0.307
   40SOL    HW1  127   1.665   1.708   0.310
   40SOL    HW2  128   1.555   1.638   0.212
   41SOL     OW  129   0.807   0.605   1.465
   41SOL    HW1  130   0.760   0.602   1.554
   41SOL    HW2  131   0.756   0.550   1.399
   42SOL     OW  132   1.394   0.469   1.674
   42SOL    HW1  133   1.374   0.512   1.762
   42SOL    HW2  134   1.472   0.407   1.683
   43SOL     OW  135   0.973   0.890   1.572
   43SOL    HW1  136   1.019   0.806   1.543
   43SOL    HW2  137   0.917   0.924   1.497
   44SOL     OW  138   0.991   0.410   1.242
   44SOL    HW1  139   0.914   0.444   1.296
   44SOL    HW2  140   0.957   0.359   1.163
   45SOL     OW  141   1.041   0.701   0.429
   45SOL    HW1  142   1.067   0.697   0.525
   45SOL    HW2  143   0.956   0.650   0.415
   46SOL     OW  144   0.076   0.811   0.789
   46SOL    HW1  145   0.175   0.799   0.798
   46SOL    HW2  146   0.052   0.906   0.810
   47SOL     OW  147   0.130   1.821   1.571
   47SOL    HW1  148   0.120   1.806   1.670
   47SOL    HW2  149   0.044   1.857   1.535
   48SOL     OW  150   0.865   0.348   0.195
   48SOL    HW1  151   0.924   0.411   0.146
   48SOL    HW2  152   0.884   0.254   0.166
   49SOL     OW  153   1.719   0.585   1.831
   49SOL    HW1  154   1.693   0.674   1.795
   49SOL    HW2  155   1.717   0.517   1.758
   50SOL     OW  156   1.362   1.144   0.545
   50SOL    HW1  157   1.445   1.115   0.497
   50SOL    HW2  158   1.313   1.211   0.489
   51SOL     OW  159   0.550   0.196   0.885
   51SOL    HW1  160   0.545   0.191   0.985
   51SOL    HW2  161   0.552   0.292   0.856
   52SOL     OW  162   1.008   1.456   0.477
   52SOL    HW1  163   0.962   1.528   0.425
   52SOL    HW2  164   1.004   1.476   0.575
   53SOL     OW  165   0.351   1.801   0.853
   53SOL    HW1  166   0.401   1.715   0.859
   53SOL    HW2  167   0.416   1.878   0.850
   54SOL     OW  168   1.795   1.066   0.873
   54SOL    HW1  169   1.733   1.051   0.797
   54SOL    HW2  170   1.743   1.077   0.958
   55SOL     OW  171   0.321   0.943   0.242
   55SOL    HW1  172   0.403   0.982   0.200
   55SOL    HW2  173   0.294   0.861   0.193
   56SOL     OW  174   1.458   0.735   0.728
   56SOL    HW1  175   1.453   0.670   0.803
   56SOL    HW2  176   1.538   0.794   0.741
   57SOL     OW  177   0.461   1.266   1.727
   57SOL    HW1  178   0.411   1.267   1.641
   57SOL    HW2  179   0.398   1.248   1.803
   58SOL     OW  180   1.111   1.776   0.237
   58SOL    HW1  181   1.051   1.714   0.287
   58SOL    HW2  182   1.142   1.732   0.152
   59SOL     OW  183   0.202   0.285   1.498
   59SOL    HW1  184   0.122   0.345   1.485
   59SOL    HW2  185   0.192   0.236   1.584
   60SOL     OW  186   1.632   1.377   0.081
   60SOL    HW1  187   1.600   1.471   0.071
   60SOL    HW2  188   1.556   1.314   0.069
   61SOL     OW  189   0.464   1.743   0.323
   61SOL    HW1  190   0.497   1.782   0.409
   61SOL    HW2  191   0.540   1.736   0.258
   62SOL     OW  192   1.400   0.107   0.426
   62SOL    HW1  193   1.376   0.070   0.336
   62SOL    HW2  194   1.499   0.123   0.430
   63SOL     OW  195   0.249   1.785   1.241
   63SOL    HW1  196   0.306   1.720   1.291
   63SOL    HW2  197   0.233   1.752   1.148
   64SOL     OW  198   0.940   1.698   0.904
   64SOL    HW1  199   1.020   1.641   0.925
   64SOL    HW2  200   0.891   1.658   0.827
   65SOL     OW  201   0.382   0.700   0.480
   65SOL    HW1  202   0.427   0.610   0.477
   65SOL    HW2  203   0.288   0.689   0.513
   66SOL     OW  204   1.547   0.222   1.729
   66SOL    HW1  205   1.542   0.259   1.821
   66SOL    HW2  206   1.475   0.153   1.717
   67SOL     OW  207   0.614   0.122   0.117
   67SOL    HW1  208   0.712   0.100   0.124
   67SOL    HW2  209   0.583   0.105   0.024
   68SOL     OW  210   0.781   0.264   1.749
   68SOL    HW1  211   0.848   0.203   1.792
   68SOL    HW2  212   0.708   0.283   1.814
   69SOL     OW  213   0.888   1.514   1.195
   69SOL    HW1  214   0.865   1.489   1.101
   69SOL    HW2  215   0.949   1.445   1.234
   70SOL     OW  216   1.351   0.590   1.433
   70SOL    HW1  217   1.379   0.547   1.518
   70SOL    HW2  218   1.376   0.686   1.434
   71SOL     OW  219   0.803   1.402   0.924
   71SOL    HW1  220   0.893   1.416   0.882
   71SOL    HW2  221   0.732   1.404   0.853
   72SOL     OW  222   0.922   0.503   0.899
   72SOL    HW1  223   0.897   0.494   0.803
   72SOL    HW2  224   0.970   0.421   0.930
   73SOL     OW  225   0.539   0.064   0.512
   73SOL    HW1  226   0.458   0.065   0.570
   73SOL    HW2  227   0.542   0.147   0.457
   74SOL     OW  228   1.434   1.188   0.041
   74SOL    HW1  229   1.466   1.112   0.098
   74SOL    HW2  230   1.342   1.215   0.071
   75SOL     OW  231   0.297   0.035   0.171
   75SOL    HW1  232   0.346   0.119   0.150
   75SOL    HW2  233   0.359  -0.030   0.216
   76SOL     OW  234   0.935   0.236   0.480
   76SOL    HW1  235   0.887   0.277   0.402
   76SOL    HW2  236   1.034   0.234   0.461
   77SOL     OW  237   1.076   0.683   1.464
   77SOL    HW1  238   0.996   0.622   1.467
   77SOL    HW2  239   1.157   0.630   1.440
   78SOL     OW  240   1.227   1.570   0.793
   78SOL    HW1  241   1.248   1.644   0.728
   78SOL    HW2  242   1.295   1.570   0.866
   79SOL     OW  243   0.459   1.152   0.741
   79SOL    HW1  244   0.388   1.125   0.806
   79SOL    HW2  245   0.433   1.124   0.648
   80SOL     OW  246   1.271   1.797   0.591
   80SOL    HW1  247   1.315   1.861   0.527
   80SOL    HW2  248   1.221   1.849   0.661
   81SOL     OW  249   1.032   0.549   0.016
   81SOL    HW1  250   0.991   0.631  -0.023
   81SOL    HW2  251   1.096   0.575   0.089
   82SOL     OW  252   0.078   0.556   1.386
   82SOL    HW1  253   0.170   0.555   1.345
   82SOL    HW2  254   0.072   0.630   1.453
   83SOL     OW  255   0.561   0.222   1.147
   83SOL    HW1  256   0.599   0.138   1.184
   83SOL    HW2  257   0.473   0.241   1.191
   84SOL     OW  258   0.866   0.454   0.642
   84SOL    HW1  259   0.834   0.526   0.580
   84SOL    HW2  260   0.890   0.373   0.589
   85SOL     OW  261   1.017   0.039   0.753
   85SOL    HW1  262   0.945   0.044   0.684
   85SOL    HW2  263   0.993  -0.030   0.822
   86SOL     OW  264   1.429   1.173   0.867
   86SOL    HW1  265   1.374   1.089   0.860
   86SOL    HW2  266   1.455   1.202   0.775
   87SOL     OW  267   1.466   0.590   0.992
   87SOL    HW1  268   1.436   0.495   0.999
   87SOL    HW2  269   1.539   0.606   1.058
   88SOL     OW  270   1.857   0.833   0.377
   88SOL    HW1  271   1.899   0.769   0.441
   88SOL    HW2  272   1.819   0.782   0.299
   89SOL     OW  273   0.488   1.385   0.174
   89SOL    HW1  274   0.401   1.370   0.221
   89SOL    HW2  275   0.471   1.411   0.079
   90SOL     OW  276   1.664   1.280   0.657
   90SOL    HW1  277   1.763   1.288   0.671
   90SOL    HW2  278   1.619   1.364   0.688
   91SOL     OW  279   1.390   0.575   0.078
   91SOL    HW1  280   1.336   0.554   0.159
   91SOL    HW2  281   1.481   0.534   0.087
   92SOL     OW  282   0.527   0.256   0.328
   92SOL    HW1  283   0.554   0.197   0.253
   92SOL    HW2  284   0.527   0.351   0.297
   93SOL     OW  285   1.754   1.223   1.588
   93SOL    HW1  286   1.845   1.184   1.575
   93SOL    HW2  287   1.762   1.319   1.612
   94SOL     OW  288   1.592   1.629   1.625
   94SOL    HW1  289   1.619   1.663   1.535
   94SOL    HW2  290   1.671   1.591   1.671
   95SOL     OW  291   1.638   1.099   1.079
   95SOL    HW1  292   1.643   1.180   1.138
   95SOL    HW2  293   1.552   1.101   1.028
   96SOL     OW  294   0.915   0.089   1.402
   96SOL    HW1  295   0.940   0.069   1.307
   96SOL    HW2  296   0.987   0.145   1.444
   97SOL     OW  297   0.980   1.116   1.719
   97SOL    HW1  298   0.881   1.122   1.729
   97SOL    HW2  299   1.003   1.036   1.663
   98SOL     OW  300   0.705   1.050   0.368
   98SOL    HW1  301   0.691   1.057   0.467
   98SOL    HW2  302   0.789   0.999   0.350
   99SOL     OW  303   0.410   0.813   1.251
   99SOL    HW1  304   0.496   0.825   1.301
   99SOL    HW2  305   0.368   0.726   1.278
  100SOL     OW  306   1.274   0.386   1.262
  100SOL    HW1  307   1.295   0.460   1.326
  100SOL    HW2  308   1.185   0.403   1.219
  101SOL     OW  309   0.064   1.564   1.331
  101SOL    HW1  310   0.018   1.646   1.297
  101SOL    HW2  311   0.162   1.583   1.340
  102SOL     OW  312   0.367   1.100   0.501
  102SOL    HW1  313   0.360   1.183   0.445
  102SOL    HW2  314   0.371   1.020   0.441
  103SOL     OW  315   0.566   0.537   0.865
  103SOL    HW1  316   0.578   0.603   0.791
  103SOL    HW2  317   0.612   0.571   0.948
  104SOL     OW  318   1.252   1.348   0.388
  104SOL    HW1  319   1.302   1.425   0.428
  104SOL    HW2  320   1.157   1.350   0.420
  105SOL     OW  321   1.582   0.639   0.472
  105SOL    HW1  322   1.551   0.700   0.545
  105SOL    HW2  323   1.632   0.691   0.403
  106SOL     OW  324   0.354   1.510   1.329
  106SOL    HW1  325   0.333   1.466   1.242
  106SOL    HW2  326   0.451   1.536   1.332
  107SOL     OW  327   0.402   0.751   1.598
  107SOL    HW1  328   0.470   0.806   1.551
  107SOL    HW2  329   0.442   0.663   1.625
  108SOL     OW  330   1.587   0.779   1.670
  108SOL    HW1  331   1.495   0.817   1.665
  108SOL    HW2  332   1.647   0.826   1.605
  109SOL     OW  333   1.013   0.105   1.770
  109SOL    HW1  334   1.019   0.190   1.718
  109SOL    HW2  335   1.045   0.029   1.713
  110SOL     OW  336   0.504   0.050   1.740
  110SOL    HW1  337   0.462  -0.007   1.670
  110SOL    HW2  338   0.438   0.119   1.772
  111SOL     OW  339   0.573   0.870   1.029
  111SOL    HW1  340   0.617   0.959   1.020
  111SOL    HW2  341   0.510   0.870   1.106
  112SOL     OW  342   1.360   0.862   1.045
  112SOL    HW1  343   1.285   0.862   0.979
  112SOL    HW2  344   1.397   0.770   1.054
  113SOL     OW  345   1.209   0.525   0.275
  113SOL    HW1  346   1.222   0.441   0.329
  113SOL    HW2  347   1.180   0.599   0.335
  114SOL     OW  348   0.307   0.213   1.231
  114SOL    HW1  349   0.284   0.250   1.321
  114SOL    HW2  350   0.277   0.118   1.225
  115SOL     OW  351   0.037   1.310   1.282
  115SOL    HW1  352   0.090   1.261   1.350
  115SOL    HW2  353   0.059   1.408   1.287
  116SOL     OW  354   0.732   0.634   1.064
  116SOL    HW1  355   0.791   0.608   0.988
  116SOL    HW2  356   0.704   0.730   1.053
  117SOL     OW  357   1.728   0.935   1.854
  117SOL    HW1  358   1.682   0.928   1.765
  117SOL    HW2  359   1.666   0.979   1.920
  118SOL     OW  360   0.307   0.063   0.618
  118SOL    HW1  361   0.296   0.157   0.651
  118SOL    HW2  362   0.302   0.000   0.695
  119SOL     OW  363   1.622   0.367   0.374
  119SOL    HW1  364   1.624   0.291   0.438
  119SOL    HW2  365   1.574   0.444   0.414
  120SOL     OW  366   1.023   0.766   0.966
  120SOL    HW1  367   1.038   0.787   1.062
  120SOL    HW2  368   0.993   0.671   0.957
  121SOL     OW  369   0.980   1.573   1.700
  121SOL    HW1  370   0.960   1.617   1.612
  121SOL    HW2  371   1.019   1.482   1.684
  122SOL     OW  372   1.859   1.518   1.605
  122SOL    HW1  373   1.873   1.545   1.510
  122SOL    HW2  374   1.942   1.540   1.658
  123SOL     OW  375   0.350   0.898   1.804
  123SOL    HW1  376   0.426   0.942   1.852
  123SOL    HW2  377   0.385   0.851   1.722
  124SOL     OW  378   1.540   0.274   0.125
  124SOL    HW1  379   1.479   0.199   0.148
  124SOL    HW2  380   1.562   0.326   0.208
  125SOL     OW  381   1.303   0.838   0.042
  125SOL    HW1  382   1.337   0.745   0.057
  125SOL    HW2  383   1.321   0.865  -0.053
  126SOL     OW  384   1.068   1.333   0.849
  126SOL    HW1  385   1.075   1.249   0.794
  126SOL    HW2  386   1.130   1.402   0.813
  127SOL     OW  387   0.319   0.810   0.949
  127SOL    HW1  388   0.412   0.846   0.954
  127SOL    HW2  389   0.313   0.725   1.001
  128SOL     OW  390   0.339   0.509   1.006
  128SOL    HW1  391   0.287   0.426   0.989
  128SOL    HW2  392   0.416   0.514   0.942
  129SOL     OW  393   1.138   0.380   1.678
  129SOL    HW1  394   1.093   0.443   1.742
  129SOL    HW2  395   1.231   0.411   1.661
  130SOL     OW  396   1.160   0.207   1.477
  130SOL    HW1  397   1.160   0.271   1.554
  130SOL    HW2  398   1.188   0.255   1.394
  131SOL     OW  399   0.008   1.326   0.200
  131SOL    HW1  400  -0.085   1.347   0.169
  131SOL    HW2  401   0.018   1.227   0.213
  132SOL     OW  402   0.088   1.801   0.927
  132SOL    HW1  403   0.046   1.715   0.900
  132SOL    HW2  404   0.182   1.804   0.893
  133SOL     OW  405   0.504   1.568   0.910
  133SOL    HW1  406   0.570   1.642   0.919
  133SOL    HW2  407   0.548   1.489   0.868
  134SOL     OW  408   1.002   0.796   1.238
  134SOL    HW1  409   1.043   0.764   1.324
  134SOL    HW2  410   0.906   0.769   1.235
  135SOL     OW  411   0.040   0.544   1.114
  135SOL    HW1  412   0.125   0.511   1.073
  135SOL    HW2  413   0.053   0.559   1.212
  136SOL     OW  414   0.189   0.520   1.722
  136SOL    HW1  415   0.248   0.480   1.652
  136SOL    HW2  416   0.131   0.591   1.681
  137SOL     OW  417   1.369   0.950   1.660
  137SOL    HW1  418   1.408   1.039   1.680
  137SOL    HW2  419   1.379   0.930   1.563
  138SOL     OW  420   0.815   0.572   0.325
  138SOL    HW1  421   0.822   0.483   0.279
  138SOL    HW2  422   0.721   0.606   0.317
  139SOL     OW  423   1.657   0.604   1.206
  139SOL    HW1  424   1.619   0.535   1.268
  139SOL    HW2  425   1.739   0.568   1.162
  140SOL     OW  426   0.252   1.564   1.744
  140SOL    HW1  427   0.222   1.621   1.820
  140SOL    HW2  428   0.245   1.467   1.770
  141SOL     OW  429   0.671   0.464   1.269
  141SOL    HW1  430   0.637   0.375   1.239
  141SOL    HW2  431   0.697   0.518   1.189
  142SOL     OW  432   0.930   1.678   1.465
  142SOL    HW1  433   0.906   1.660   1.370
  142SOL    HW2  434   0.960   1.772   1.475
  143SOL     OW  435   0.473   0.500   0.191
  143SOL    HW1  436   0.534   0.580   0.195
  143SOL    HW2  437   0.378   0.531   0.198
  144SOL     OW  438   0.159   1.137   1.466
  144SOL    HW1  439   0.181   1.076   1.542
  144SOL    HW2  440   0.169   1.088   1.380
  145SOL     OW  441   1.302   0.855   0.309
  145SOL    HW1  442   1.216   0.824   0.351
  145SOL    HW2  443   1.298   0.841   0.210
  146SOL     OW  444   1.759   1.747   1.154
  146SOL    HW1  445   1.820   1.777   1.081
  146SOL    HW2  446   1.721   1.658   1.132
  147SOL     OW  447   1.252   1.731   1.128
  147SOL    HW1  448   1.336   1.736   1.074
  147SOL    HW2  449   1.229   1.635   1.146
  148SOL     OW  450   0.083   1.258   1.022
  148SOL    HW1  451   0.078   1.257   1.122
  148SOL    HW2  452   0.000   1.217   0.984
  149SOL     OW  453   0.688   1.662   1.716
  149SOL    HW1  454   0.632   1.743   1.725
  149SOL    HW2  455   0.740   1.666   1.630
  150SOL     OW  456   0.903   0.086   0.133
  150SOL    HW1  457   0.954   0.087   0.047
  150SOL    HW2  458   0.959   0.044   0.204
  151SOL     OW  459   1.726   0.135   0.523
  151SOL    HW1  460   1.799   0.118   0.456
  151SOL    HW2  461   1.695   0.048   0.561
  152SOL     OW  462   1.388   1.573   0.477
  152SOL    HW1  463   1.455   1.585   0.403
  152SOL    HW2  464   1.348   1.662   0.500
  153SOL     OW  465   0.130   1.794   1.851
  153SOL    HW1  466   0.089   1.720   1.904
  153SOL    HW2  467   0.194   1.845   1.909
  154SOL     OW  468   1.280   0.927   0.672
  154SOL    HW1  469   1.340   0.846   0.674
  154SOL    HW2  470   1.320   0.996   0.612
  155SOL     OW  471   0.830   1.273   1.422
  155SOL    HW1  472   0.825   1.306   1.517
  155SOL    HW2  473   0.744   1.292   1.376
  156SOL     OW  474   0.672   1.616   0.154
  156SOL    HW1  475   0.681   1.626   0.055
  156SOL    HW2  476   0.632   1.527   0.175
  157SOL     OW  477   1.650   1.720   1.394
  157SOL    HW1  478   1.703   1.730   1.310
  157SOL    HW2  479   1.623   1.810   1.428
  158SOL     OW  480   1.841   0.175   0.963
  158SOL    HW1  481   1.880   0.090   0.927
  158SOL    HW2  482   1.743   0.177   0.944
  159SOL     OW  483   0.263   0.326   0.720
  159SOL    HW1  484   0.184   0.377   0.686
  159SOL    HW2  485   0.254   0.311   0.818
  160SOL     OW  486   1.194   1.612   0.031
  160SOL    HW1  487   1.200   1.519   0.068
  160SOL    HW2  488   1.135   1.612  -0.049
  161SOL     OW  489   0.822   1.002   1.372
  161SOL    HW1  490   0.862   1.001   1.280
  161SOL    HW2  491   0.832   1.094   1.412
  162SOL     OW  492   0.916   0.910   0.291
  162SOL    HW1  493   0.979   0.948   0.223
  162SOL    HW2  494   0.956   0.827   0.330
  163SOL     OW  495   1.504   1.607   0.044
  163SOL    HW1  496   1.412   1.644   0.051
  163SOL    HW2  497   1.542   1.627  -0.046
  164SOL     OW  498   0.372   1.288   1.490
  164SOL    HW1  499   0.359   1.381   1.456
  164SOL    HW2  500   0.288   1.236   1.477
  165SOL     OW  501   1.614   1.292   1.289
  165SOL    HW1  502   1.674   1.295   1.369
  165SOL    HW2  503   1.539   1.356   1.302
  166SOL     OW  504   1.039   1.098   0.696
  166SOL    HW1  505   0.969   1.051   0.750
  166SOL    HW2  506   1.098   1.030   0.653
  167SOL     OW  507   1.014   0.236   0.971
  167SOL    HW1  508   1.006   0.200   0.878
  167SOL    HW2  509   1.012   0.160   1.036
  168SOL     OW  510   0.590   1.487   0.491
  168SOL    HW1  511   0.632   1.429   0.421
  168SOL    HW2  512   0.546   1.566   0.447
  169SOL     OW  513   1.709   0.385   1.381
  169SOL    HW1  514   1.782   0.454   1.385
  169SOL    HW2  515   1.737   0.310   1.322
  170SOL     OW  516   0.255   1.348   0.290
  170SOL    HW1  517   0.159   1.349   0.263
  170SOL    HW2  518   0.267   1.401   0.374
  171SOL     OW  519   0.105   1.013   1.726
  171SOL    HW1  520   0.028   0.980   1.780
  171SOL    HW2  521   0.190   0.983   1.768
  172SOL     OW  522   0.672   0.203   1.489
  172SOL    HW1  523   0.762   0.187   1.449
  172SOL    HW2  524   0.680   0.208   1.588
  173SOL     OW  525   0.075   0.345   0.033
  173SOL    HW1  526  -0.017   0.317   0.004
  173SOL    HW2  527   0.106   0.422  -0.023
  174SOL     OW  528   0.072   0.166   0.318
  174SOL    HW1  529   0.055   0.249   0.264
  174SOL    HW2  530   0.162   0.129   0.296
  175SOL     OW  531   1.183   1.335   0.119
  175SOL    HW1  532   1.084   1.324   0.121
  175SOL    HW2  533   1.217   1.350   0.212
  176SOL     OW  534   0.613   0.842   1.431
  176SOL    HW1  535   0.669   0.923   1.414
  176SOL    HW2  536   0.672   0.762   1.434
  177SOL     OW  537   1.493   1.767   0.959
  177SOL    HW1  538   1.526   1.831   0.890
  177SOL    HW2  539   1.559   1.761   1.034
  178SOL     OW  540   0.716   0.565   1.708
  178SOL    HW1  541   0.735   0.630   1.782
  178SOL    HW2  542   0.776   0.485   1.717
  179SOL     OW  543   1.450   1.220   1.633
  179SOL    HW1  544   1.441   1.210   1.732
  179SOL    HW2  545   1.546   1.213   1.607
  180SOL     OW  546   0.390   1.741   1.560
  180SOL    HW1  547   0.299   1.782   1.558
  180SOL    HW2  548   0.383   1.647   1.592
  181SOL     OW  549   1.674   0.883   1.254
  181SOL    HW1  550   1.647   0.794   1.217
  181SOL    HW2  551   1.675   0.951   1.181
  182SOL     OW  552   1.225   0.325   0.449
  182SOL    HW1  553   1.290   0.251   0.438
  182SOL    HW2  554   1.245   0.375   0.533
  183SOL     OW  555   0.594   0.745   0.652
  183SOL    HW1  556   0.644   0.830   0.633
  183SOL    HW2  557   0.506   0.747   0.604
  184SOL     OW  558   1.777   0.342   1.642
  184SOL    HW1  559   1.760   0.373   1.548
  184SOL    HW2  560   1.693   0.305   1.680
  185SOL     OW  561   1.730   0.934   1.517
  185SOL    HW1  562   1.768   1.025   1.532
  185SOL    HW2  563   1.722   0.917   1.418
  186SOL     OW  564   0.859   1.374   0.016
  186SOL    HW1  565   0.813   1.389   0.104
  186SOL    HW2  566   0.903   1.459  -0.014
  187SOL     OW  567   0.661   1.790   0.953
  187SOL    HW1  568   0.615   1.878   0.940
  187SOL    HW2  569   0.760   1.802   0.946
  188SOL     OW  570   0.859   0.956   0.861
  188SOL    HW1  571   0.913   0.887   0.909
  188SOL    HW2  572   0.827   1.025   0.927
  189SOL     OW  573   1.083   0.984   0.087
  189SOL    HW1  574   1.060   1.037   0.005
  189SOL    HW2  575   1.164   0.928   0.068
  190SOL     OW  576   1.861   1.569   0.851
  190SOL    HW1  577   1.790   1.557   0.781
  190SOL    HW2  578   1.862   1.490   0.911
  191SOL     OW  579   0.221   1.314   1.844
  191SOL    HW1  580   0.156   1.241   1.823
  191SOL    HW2  581   0.225   1.328   1.942
  192SOL     OW  582   0.079   1.240   0.653
  192SOL    HW1  583   0.078   1.193   0.741
  192SOL    HW2  584   0.161   1.212   0.602
  193SOL     OW  585   0.672   1.391   1.624
  193SOL    HW1  586   0.594   1.341   1.662
  193SOL    HW2  587   0.669   1.486   1.655
  194SOL     OW  588   1.824   0.192   1.227
  194SOL    HW1  589   1.820   0.102   1.271
  194SOL    HW2  590   1.827   0.181   1.128
  195SOL     OW  591   0.428   0.424   0.520
  195SOL    HW1  592   0.458   0.352   0.458
  195SOL    HW2  593   0.389   0.384   0.603
  196SOL     OW  594   1.705   1.487   1.104
  196SOL    HW1  595   1.612   1.462   1.077
  196SOL    HW2  596   1.731   1.437   1.186
  197SOL     OW  597   0.317   0.547   1.280
  197SOL    HW1  598   0.355   0.488   1.352
  197SOL    HW2  599   0.357   0.521   1.192
  198SOL     OW  600   0.812   1.586   0.687
  198SOL    HW1  601   0.844   1.596   0.593
  198SOL    HW2  602   0.733   1.524   0.689
  199SOL     OW  603   1.424   0.214   1.112
  199SOL    HW1  604   1.476   0.149   1.167
  199SOL    HW2  605   1.375   0.277   1.173
  200SOL     OW  606   1.001   0.034   1.154
  200SOL    HW1  607   0.938  -0.038   1.123
  200SOL    HW2  608   1.094  -0.002   1.154
  201SOL     OW  609   0.770   1.330   0.301
  201SOL    HW1  610   0.724   1.243   0.318
  201SOL    HW2  611   0.861   1.327   0.342
  202SOL     OW  612   0.618   1.567   1.284
  202SOL    HW1  613   0.613   1.649   1.341
  202SOL    HW2  614   0.707   1.564   1.239
  203SOL     OW  615   1.352   0.052   0.168
  203SOL    HW1  616   1.387   0.011   0.084
  203SOL    HW2  617   1.262   0.014   0.188
  204SOL     OW  618   1.300   0.453   0.691
  204SOL    HW1  619   1.241   0.533   0.695
  204SOL    HW2  620   1.315   0.418   0.784
  205SOL     OW  621   1.593   0.221   0.882
  205SOL    HW1  622   1.509   0.220   0.936
  205SOL    HW2  623   1.595   0.304   0.826
  206SOL     OW  624   0.039   1.077   0.300
  206SOL    HW1  625   0.138   1.066   0.291
  206SOL    HW2  626  -0.001   0.991   0.332
  207SOL     OW  627   0.875   1.646   0.337
  207SOL    HW1  628   0.798   1.611   0.283
  207SOL    HW2  629   0.843   1.717   0.399
  208SOL     OW  630   0.230   0.628   1.975
  208SOL    HW1  631   0.137   0.626   2.012
  208SOL    HW2  632   0.231   0.589   1.883
  209SOL     OW  633   1.755   0.607   2.093
  209SOL    HW1  634   1.743   0.594   1.994
  209SOL    HW2  635   1.725   0.526   2.142
  210SOL     OW  636   0.231   1.713   2.345
  210SOL    HW1  637   0.265   1.790   2.399
  210SOL    HW2  638   0.275   1.713   2.255
  211SOL     OW  639   0.230   1.434   2.400
  211SOL    HW1  640   0.204   1.530   2.400
  211SOL    HW2  641   0.159   1.380   2.445
  212SOL     OW  642   0.606   0.964   1.985
  212SOL    HW1  643   0.613   1.048   1.931
  212SOL    HW2  644   0.652   0.977   2.073
  213SOL     OW  645   0.122   0.643   2.425
  213SOL    HW1  646   0.077   0.555   2.442
  213SOL    HW2  647   0.121   0.697   2.509
  214SOL     OW  648   1.842   1.767   2.221
  214SOL    HW1  649   1.896   1.738   2.301
  214SOL    HW2  650   1.872   1.857   2.192
  215SOL     OW  651   0.027   1.596   1.979
  215SOL    HW1  652   0.008   1.500   2.000
  215SOL    HW2  653  -0.006   1.654   2.054
  216SOL     OW  654   1.689   0.922   2.474
  216SOL    HW1  655   1.784   0.893   2.482
  216SOL    HW2  656   1.681   0.987   2.399
  217SOL     OW  657   1.641   1.108   2.294
  217SOL    HW1  658   1.727   1.110   2.242
  217SOL    HW2  659   1.655   1.155   2.382
  218SOL     OW  660   0.809   0.004   2.364
  218SOL    HW1  661   0.849   0.095   2.355
  218SOL    HW2  662   0.709   0.012   2.370
  219SOL     OW  663   1.525   0.999   2.052
  219SOL    HW1  664   1.462   0.923   2.065
  219SOL    HW2  665   1.573   1.017   2.138
  220SOL     OW  666   0.598   0.729   2.132
  220SOL    HW1  667   0.622   0.798   2.064
  220SOL    HW2  668   0.520   0.762   2.186
  221SOL     OW  669   1.576   1.662   2.169
  221SOL    HW1  670   1.665   1.708   2.172
  221SOL    HW2  671   1.555   1.638   2.074
  222SOL     OW  672   1.041   0.701   2.291
  222SOL    HW1  673   1.067   0.697   2.387
  222SOL    HW2  674   0.956   0.650   2.277
  223SOL     OW  675   0.076   0.811   2.651
  223SOL    HW1  676   0.175   0.799   2.660
  223SOL    HW2  677   0.052   0.906   2.672
  224SOL     OW  678   0.865   0.348   2.057
  224SOL    HW1  679   0.924   0.411   2.008
  224SOL    HW2  680   0.884   0.254   2.028
  225SOL     OW  681   1.362   1.144   2.407
  225SOL    HW1  682   1.445   1.115   2.359
  225SOL    HW2  683   1.313   1.211   2.351
  226SOL     OW  684   1.008   1.456   2.339
  226SOL    HW1  685   0.962   1.528   2.287
  226SOL    HW2  686   1.004   1.476   2.437
  227SOL     OW  687   0.351   1.801   2.715
  227SOL    HW1  688   0.401   1.715   2.721
  227SOL    HW2  689   0.416   1.878   2.712
  228SOL     OW  690   0.321   0.943   2.104
  228SOL    HW1  691   0.403   0.982   2.062
  228SOL    HW2  692   0.294   0.861   2.055
  229SOL     OW  693   1.111   1.776   2.099
  229SOL    HW1  694   1.051   1.714   2.149
  229SOL    HW2  695   1.142   1.732   2.014
  230SOL     OW  696   1.632   1.377   1.943
  230SOL    HW1  697   1.600   1.471   1.933
  230SOL    HW2  698   1.556   1.314   1.931
  231SOL     OW  699   0.464   1.743   2.185
  231SOL    HW1  700   0.497   1.782   2.271
  231SOL    HW2  701   0.540   1.736   2.120
  232SOL     OW  702   1.400   0.107   2.288
  232SOL    HW1  703   1.376   0.070   2.198
  232SOL    HW2  704   1.499   0.123   2.292
  233SOL     OW  705   0.382   0.700   2.342
  233SOL    HW1  706   0.427   0.610   2.339
  233SOL    HW2  707   0.288   0.689   2.375
  234SOL     OW  708   0.614   0.122   1.979
  234SOL    HW1  709   0.712   0.100   1.986
  234SOL    HW2  710   0.583   0.105   1.886
  235SOL     OW  711   0.539   0.064   2.374
  235SOL    HW1  712   0.458   0.065   2.432
  235SOL    HW2  713   0.542   0.147   2.319
  236SOL     OW  714   1.434   1.188   1.903
  236SOL    HW1  715   1.466   1.112   1.960
  236SOL    HW2  716   1.342   1.215   1.933
  237SOL     OW  717   0.297   0.035   2.033
  237SOL    HW1  718   0.346   0.119   2.012
  237SOL    HW2  719   0.359  -0.030   2.078
  238SOL     OW  720   0.935   0.236   2.342
  238SOL    HW1  721   0.887   0.277   2.264
  238SOL    HW2  722   1.034   0.234   2.323
  239SOL     OW  723   0.459   1.152   2.603
  239SOL    HW1  724   0.388   1.125   2.668
  239SOL    HW2  725   0.433   1.124   2.510
  240SOL     OW  726   1.271   1.797   2.453
  240SOL    HW1  727   1.315   1.861   2.389
  240SOL    HW2  728   1.221   1.849   2.523
  241SOL     OW  729   1.032   0.549   1.878
  241SOL    HW1  730   0.991   0.631   1.839
  241SOL    HW2  731   1.096   0.575   1.951
  242SOL     OW  732   0.866   0.454   2.504
  242SOL    HW1  733   0.834   0.526   2.442
  242SOL    HW2  734   0.890   0.373   2.451
  243SOL     OW  735   1.857   0.833   2.239
  243SOL    HW1  736   1.899   0.769   2.303
  243SOL    HW2  737   1.819   0.782   2.161
  244SOL     OW  738   0.488   1.385   2.036
  244SOL    HW1  739   0.401   1.370   2.083
  244SOL    HW2  740   0.471   1.411   1.941
  245SOL     OW  741   1.390   0.575   1.940
  245SOL    HW1  742   1.336   0.554   2.021
  245SOL    HW2  743   1.481   0.534   1.949
  246SOL     OW  744   0.527   0.256   2.190
  246SOL    HW1  745   0.554   0.197   2.115
  246SOL    HW2  746   0.527   0.351   2.159
  247SOL     OW  747   0.705   1.050   2.230
  247SOL    HW1  748   0.691   1.057   2.329
  247SOL    HW2  749   0.789   0.999   2.212
  248SOL     OW  750   0.367   1.100   2.363
  248SOL    HW1  751   0.360   1.183   2.307
  248SOL    HW2  752   0.371   1.020   2.303
  249SOL     OW  753   1.252   1.348   2.250
  249SOL    HW1  754   1.302   1.425   2.290
  249SOL    HW2  755   1.157   1.350   2.282
  250SOL     OW  756   1.582   0.639   2.334
  250SOL    HW1  757   1.551   0.700   2.407
  250SOL    HW2  758   1.632   0.691   2.265
  251SOL     OW  759   1.209   0.525   2.137
  251SOL    HW1  760   1.222   0.441   2.191
  251SOL    HW2  761   1.180   0.599   2.197
  252SOL     OW  762   0.307   0.063   2.480
  252SOL    HW1  763   0.296   0.157   2.513
  252SOL    HW2  764   0.302   0.000   2.557
  253SOL     OW  765   1.622   0.367   2.236
  253SOL    HW1  766   1.624   0.291   2.300
  253SOL    HW2  767   1.574   0.444   2.276
  254SOL     OW  768   1.540   0.274   1.987
  254SOL    HW1  769   1.479   0.199   2.010
  254SOL    HW2  770   1.562   0.326   2.070
  255SOL     OW  771   1.303   0.838   1.904
  255SOL    HW1  772   1.337   0.745   1.919
  255SOL    HW2  773   1.321   0.865   1.809
  256SOL     OW  774   0.008   1.326   2.062
  256SOL    HW1  775  -0.085   1.347   2.031
  256SOL    HW2  776   0.018   1.227   2.075
  257SOL     OW  777   0.815   0.572   2.187
  257SOL    HW1  778   0.822   0.483   2.141
  257SOL    HW2  779   0.721   0.606   2.179
  258SOL     OW  780   0.473   0.500   2.053
  258SOL    HW1  781   0.534   0.580   2.057
  258SOL    HW2  782   0.378   0.531   2.060
  259SOL     OW  783   1.302   0.855   2.171
  259SOL    HW1  784   1.216   0.824   2.213
  259SOL    HW2  785   1.298   0.841   2.072
  260SOL     OW  786   1.726   0.135   2.385
  260SOL    HW1  787   1.799   0.118   2.318
  260SOL    HW2  788   1.695   0.048   2.423
  261SOL     OW  789   1.388   1.573   2.339
  261SOL    HW1  790   1.455   1.585   2.265
  261SOL    HW2  791   1.348   1.662   2.362
  262SOL     OW  792   0.672   1.616   2.016
  262SOL    HW1  793   0.681   1.626   1.917
  262SOL    HW2  794   0.632   1.527   2.037
  263SOL     OW  795   1.841   0.175   2.825
  263SOL    HW1  796   1.880   0.090   2.789
  263SOL    HW2  797   1.743   0.177   2.806
  264SOL     OW  798   1.194   1.612   1.893
  264SOL    HW1  799   1.200   1.519   1.930
  264SOL    HW2  800   1.135   1.612   1.813
  265SOL     OW  801   0.916   0.910   2.153
  265SOL    HW1  802   0.979   0.948   2.085
  265SOL    HW2  803   0.956   0.827   2.192
  266SOL     OW  804   1.504   1.607   1.906
  266SOL    HW1  805   1.412   1.644   1.913
  266SOL    HW2  806   1.542   1.627   1.816
  267SOL     OW  807   0.590   1.487   2.353
  267SOL    HW1  808   0.632   1.429   2.283
  267SOL    HW2  809   0.546   1.566   2.309
  268SOL     OW  810   0.255   1.348   2.152
  268SOL    HW1  811   0.159   1.349   2.125
  268SOL    HW2  812   0.267   1.401   2.236
  269SOL     OW  813   0.075   0.345   1.895
  269SOL    HW1  814  -0.017   0.317   1.866
  269SOL    HW2  815   0.106   0.422   1.839
  270SOL     OW  816   0.072   0.166   2.180
  270SOL    HW1  817   0.055   0.249   2.126
  270SOL    HW2  818   0.162   0.129   2.158
  271SOL     OW  819   1.183   1.335   1.981
  271SOL    HW1  820   1.084   1.324   1.983
  271SOL    HW2  821   1.217   1.350   2.074
  272SOL     OW  822   1.225   0.325   2.311
  272SOL    HW1  823   1.290   0.251   2.300
  272SOL    HW2  824   1.245   0.375   2.395
  273SOL     OW  825   0.594   0.745   2.514
  273SOL    HW1  826   0.644   0.830   2.495
  273SOL    HW2  827   0.506   0.747   2.466
  274SOL     OW  828   0.859   1.374   1.878
  274SOL    HW1  829   0.813   1.389   1.966
  274SOL    HW2  830   0.903   1.459   1.848
  275SOL     OW  831   1.083   0.984   1.949
  275SOL    HW1  832   1.060   1.037   1.867
  275SOL    HW2  833   1.164   0.928   1.930
  276SOL     OW  834   0.079   1.240   2.515
  276SOL    HW1  835   0.078   1.193   2.603
  276SOL    HW2  836   0.161   1.212   2.464
  277SOL     OW  837   0.428   0.424   2.382
  277SOL    HW1  838   0.458   0.352   2.320
  277SOL    HW2  839   0.389   0.384   2.465
  278SOL     OW  840   0.770   1.330   2.163
  278SOL    HW1  841   0.724   1.243   2.180
  278SOL    HW2  842   0.861   1.327   2.204
  279SOL     OW  843   1.352   0.052   2.030
  279SOL    HW1  844   1.387   0.011   1.946
  279SOL    HW2  845   1.262   0.014   2.050
  280SOL     OW  846   0.039   1.077   2.162
  280SOL    HW1  847   0.138   1.066   2.153
  280SOL    HW2  848  -0.001   0.991   2.194
  281SOL     OW  849   0.875   1.646   2.199
  281SOL    HW1  850   0.798   1.611   2.145
  281SOL    HW2  851   0.843   1.717   2.261
  282SOL     OW  852   0.225   2.137   0.996
  282SOL    HW1  853   0.260   2.120   1.088
  282SOL    HW2  854   0.137   2.092   0.984
  283SOL     OW  855   0.019   2.230   0.647
  283SOL    HW1  856  -0.063   2.273   0.686
  283SOL    HW2  857  -0.009   2.157   0.584
  284SOL     OW  858   1.755   2.469   0.231
  284SOL    HW1  859   1.743   2.456   0.132
  284SOL    HW2  860   1.725   2.388   0.280
  285SOL     OW  861   0.438   2.254   1.499
  285SOL    HW1  862   0.520   2.198   1.508
  285SOL    HW2  863   0.357   2.196   1.503
  286SOL     OW  864   1.603   2.309   0.737
  286SOL    HW1  865   1.529   2.355   0.687
  286SOL    HW2  866   1.654   2.377   0.790
  287SOL     OW  867   1.594   1.976   1.480
  287SOL    HW1  868   1.576   2.043   1.408
  287SOL    HW2  869   1.591   2.022   1.569
  288SOL     OW  870   0.122   2.505   0.563
  288SOL    HW1  871   0.077   2.417   0.580
  288SOL    HW2  872   0.121   2.559   0.647
  289SOL     OW  873   0.809   1.866   0.502
  289SOL    HW1  874   0.849   1.957   0.493
  289SOL    HW2  875   0.709   1.874   0.508
  290SOL     OW  876   0.317   2.113   1.801
  290SOL    HW1  877   0.388   2.184   1.807
  290SOL    HW2  878   0.229   2.152   1.829
  291SOL     OW  879   1.281   2.207   0.944
  291SOL    HW1  880   1.195   2.157   0.931
  291SOL    HW2  881   1.343   2.153   1.000
  292SOL     OW  882   0.807   2.467   1.465
  292SOL    HW1  883   0.760   2.464   1.554
  292SOL    HW2  884   0.756   2.412   1.399
  293SOL     OW  885   1.394   2.331   1.674
  293SOL    HW1  886   1.374   2.374   1.762
  293SOL    HW2  887   1.472   2.269   1.683
  294SOL     OW  888   0.991   2.272   1.242
  294SOL    HW1  889   0.914   2.306   1.296
  294SOL    HW2  890   0.957   2.221   1.163
  295SOL     OW  891   1.041   2.563   0.429
  295SOL    HW1  892   1.067   2.559   0.525
  295SOL    HW2  893   0.956   2.512   0.415
  296SOL     OW  894   0.076   2.673   0.789
  296SOL    HW1  895   0.175   2.661   0.798
  296SOL    HW2  896   0.052   2.768   0.810
  297SOL     OW  897   0.865   2.210   0.195
  297SOL    HW1  898   0.924   2.273   0.146
  297SOL    HW2  899   0.884   2.116   0.166
  298SOL     OW  900   1.719   2.447   1.831
  298SOL    HW1  901   1.693   2.536   1.795
  298SOL    HW2  902   1.717   2.379   1.758
  299SOL     OW  903   0.550   2.058   0.885
  299SOL    HW1  904   0.545   2.053   0.985
  299SOL    HW2  905   0.552   2.154   0.856
  300SOL     OW  906   1.458   2.597   0.728
  300SOL    HW1  907   1.453   2.532   0.803
  300SOL    HW2  908   1.538   2.656   0.741
  301SOL     OW  909   0.202   2.147   1.498
  301SOL    HW1  910   0.122   2.207   1.485
  301SOL    HW2  911   0.192   2.098   1.584
  302SOL     OW  912   1.400   1.969   0.426
  302SOL    HW1  913   1.376   1.932   0.336
  302SOL    HW2  914   1.499   1.985   0.430
  303SOL     OW  915   1.547   2.084   1.729
  303SOL    HW1  916   1.542   2.121   1.821
  303SOL    HW2  917   1.475   2.015   1.717
  304SOL     OW  918   0.614   1.984   0.117
  304SOL    HW1  919   0.712   1.962   0.124
  304SOL    HW2  920   0.583   1.967   0.024
  305SOL     OW  921   0.781   2.126   1.749
  305SOL    HW1  922   0.848   2.065   1.792
  305SOL    HW2  923   0.708   2.145   1.814
  306SOL     OW  924   1.351   2.452   1.433
  306SOL    HW1  925   1.379   2.409   1.518
  306SOL    HW2  926   1.376   2.548   1.434
  307SOL     OW  927   0.922   2.365   0.899
  307SOL    HW1  928   0.897   2.356   0.803
  307SOL    HW2  929   0.970   2.283   0.930
  308SOL     OW  930   0.539   1.926   0.512
  308SOL    HW1  931   0.458   1.927   0.570
  308SOL    HW2  932   0.542   2.009   0.457
  309SOL     OW  933   0.935   2.098   0.480
  309SOL    HW1  934   0.887   2.139   0.402
  309SOL    HW2  935   1.034   2.096   0.461
  310SOL     OW  936   1.076   2.545   1.464
  310SOL    HW1  937   0.996   2.484   1.467
  310SOL    HW2  938   1.157   2.492   1.440
  311SOL     OW  939   1.032   2.411   0.016
  311SOL    HW1  940   0.991   2.493  -0.023
  311SOL    HW2  941   1.096   2.437   0.089
  312SOL     OW  942   0.078   2.418   1.386
  312SOL    HW1  943   0.170   2.417   1.345
  312SOL    HW2  944   0.072   2.492   1.453
  313SOL     OW  945   0.561   2.084   1.147
  313SOL    HW1  946   0.599   2.000   1.184
  313SOL    HW2  947   0.473   2.103   1.191
  314SOL     OW  948   0.866   2.316   0.642
  314SOL    HW1  949   0.834   2.388   0.580
  314SOL    HW2  950   0.890   2.235   0.589
  315SOL     OW  951   1.017   1.901   0.753
  315SOL    HW1  952   0.945   1.906   0.684
  315SOL    HW2  953   0.993   1.832   0.822
  316SOL     OW  954   1.466   2.452   0.992
  316SOL    HW1  955   1.436   2.357   0.999
  316SOL    HW2  956   1.539   2.468   1.058
  317SOL     OW  957   0.527   2.118   0.328
  317SOL    HW1  958   0.554   2.059   0.253
  317SOL    HW2  959   0.527   2.213   0.297
  318SOL     OW  960   0.915   1.951   1.402
  318SOL    HW1  961   0.940   1.931   1.307
  318SOL    HW2  962   0.987   2.007   1.444
  319SOL     OW  963   1.274   2.248   1.262
  319SOL    HW1  964   1.295   2.322   1.326
  319SOL    HW2  965   1.185   2.265   1.219
  320SOL     OW  966   0.566   2.399   0.865
  320SOL    HW1  967   0.578   2.465   0.791
  320SOL    HW2  968   0.612   2.433   0.948
  321SOL     OW  969   1.582   2.501   0.472
  321SOL    HW1  970   1.551   2.562   0.545
  321SOL    HW2  971   1.632   2.553   0.403
  322SOL     OW  972   1.013   1.967   1.770
  322SOL    HW1  973   1.019   2.052   1.718
  322SOL    HW2  974   1.045   1.891   1.713
  323SOL     OW  975   0.504   1.912   1.740
  323SOL    HW1  976   0.462   1.855   1.670
  323SOL    HW2  977   0.438   1.981   1.772
  324SOL     OW  978   1.209   2.387   0.275
  324SOL    HW1  979   1.222   2.303   0.329
  324SOL    HW2  980   1.180   2.461   0.335
  325SOL     OW  981   0.307   2.075   1.231
  325SOL    HW1  982   0.284   2.112   1.321
  325SOL    HW2  983   0.277   1.980   1.225
  326SOL     OW  984   0.732   2.496   1.064
  326SOL    HW1  985   0.791   2.470   0.988
  326SOL    HW2  986   0.704   2.592   1.053
  327SOL     OW  987   0.307   1.925   0.618
  327SOL    HW1  988   0.296   2.019   0.651
  327SOL    HW2  989   0.302   1.862   0.695
  328SOL     OW  990   1.622   2.229   0.374
  328SOL    HW1  991   1.624   2.153   0.438
  328SOL    HW2  992   1.574   2.306   0.414
  329SOL     OW  993   1.540   2.136   0.125
  329SOL    HW1  994   1.479   2.061   0.148
  329SOL    HW2  995   1.562   2.188   0.208
  330SOL     OW  996   0.319   2.672   0.949
  330SOL    HW1  997   0.412   2.708   0.954
  330SOL    HW2  998   0.313   2.587   1.001
  331SOL     OW  999   0.339   2.371   1.006
  331SOL    HW1 1000   0.287   2.288   0.989
  331SOL    HW2 1001   0.416   2.376   0.942
  332SOL     OW 1002   1.138   2.242   1.678
  332SOL    HW1 1003   1.093   2.305   1.742
  332SOL    HW2 1004   1.231   2.273   1.661
  333SOL     OW 1005   1.160   2.069   1.477
  333SOL    HW1 1006   1.160   2.133   1.554
  333SOL    HW2 1007   1.188   2.117   1.394
  334SOL     OW 1008   0.040   2.406   1.114
  334SOL    HW1 1009   0.125   2.373   1.073
  334SOL    HW2 1010   0.053   2.421   1.212
  335SOL     OW 1011   0.189   2.382   1.722
  335SOL    HW1 1012   0.248   2.342   1.652
  335SOL    HW2 1013   0.131   2.453   1.681
  336SOL     OW 1014   0.815   2.434   0.325
  336SOL    HW1 1015   0.822   2.345   0.279
  336SOL    HW2 1016   0.721   2.468   0.317
  337SOL     OW 1017   1.657   2.466   1.206
  337SOL    HW1 1018   1.619   2.397   1.268
  337SOL    HW2 1019   1.739   2.430   1.162
  338SOL     OW 1020   0.671   2.326   1.269
  338SOL    HW1 1021   0.637   2.237   1.239
  338SOL    HW2 1022   0.697   2.380   1.189
  339SOL     OW 1023   0.903   1.948   0.133
  339SOL    HW1 1024   0.954   1.949   0.047
  339SOL    HW2 1025   0.959   1.906   0.204
  340SOL     OW 1026   1.726   1.997   0.523
  340SOL    HW1 1027   1.799   1.980   0.456
  340SOL    HW2 1028   1.695   1.910   0.561
  341SOL     OW 1029   1.841   2.037   0.963
  341SOL    HW1 1030   1.880   1.952   0.927
  341SOL    HW2 1031   1.743   2.039   0.944
  342SOL     OW 1032   0.263   2.188   0.720
  342SOL    HW1 1033   0.184   2.239   0.686
  342SOL    HW2 1034   0.254   2.173   0.818
  343SOL     OW 1035   1.014   2.098   0.971
  343SOL    HW1 1036   1.006   2.062   0.878
  343SOL    HW2 1037   1.012   2.022   1.036
  344SOL     OW 1038   1.709   2.247   1.381
  344SOL    HW1 1039   1.782   2.316   1.385
  344SOL    HW2 1040   1.737   2.172   1.322
  345SOL     OW 1041   0.672   2.065   1.489
  345SOL    HW1 1042   0.762   2.049   1.449
  345SOL    HW2 1043   0.680   2.070   1.588
  346SOL     OW 1044   0.075   2.207   0.033
  346SOL    HW1 1045  -0.017   2.179   0.004
  346SOL    HW2 1046   0.106   2.284  -0.023
  347SOL     OW 1047   0.072   2.028   0.318
  347SOL    HW1 1048   0.055   2.111   0.264
  347SOL    HW2 1049   0.162   1.991   0.296
  348SOL     OW 1050   0.716   2.427   1.708
  348SOL    HW1 1051   0.735   2.492   1.782
  348SOL    HW2 1052   0.776   2.347   1.717
  349SOL     OW 1053   1.225   2.187   0.449
  349SOL    HW1 1054   1.290   2.113   0.438
  349SOL    HW2 1055   1.245   2.237   0.533
  350SOL     OW 1056   1.777   2.204   1.642
  350SOL    HW1 1057   1.760   2.235   1.548
  350SOL    HW2 1058   1.693   2.167   1.680
  351SOL     OW 1059   1.083   2.846   0.087
  351SOL    HW1 1060   1.060   2.899   0.005
  351SOL    HW2 1061   1.164   2.790   0.068
  352SOL     OW 1062   1.824   2.054   1.227
  352SOL    HW1 1063   1.820   1.964   1.271
  352SOL    HW2 1064   1.827   2.043   1.128
  353SOL     OW 1065   0.428   2.286   0.520
  353SOL    HW1 1066   0.458   2.214   0.458
  353SOL    HW2 1067   0.389   2.246   0.603
  354SOL     OW 1068   0.317   2.409   1.280
  354SOL    HW1 1069   0.355   2.350   1.352
  354SOL    HW2 1070   0.357   2.383   1.192
  355SOL     OW 1071   1.424   2.076   1.112
  355SOL    HW1 1072   1.476   2.011   1.167
  355SOL    HW2 1073   1.375   2.139   1.173
  356SOL     OW 1074   1.001   1.896   1.154
  356SOL    HW1 1075   0.938   1.824   1.123
  356SOL    HW2 1076   1.094   1.860   1.154
  357SOL     OW 1077   1.352   1.914   0.168
  357SOL    HW1 1078   1.387   1.873   0.084
  357SOL    HW2 1079   1.262   1.876   0.188
  358SOL     OW 1080   1.300   2.315   0.691
  358SOL    HW1 1081   1.241   2.395   0.695
  358SOL    HW2 1082   1.315   2.280   0.784
  359SOL     OW 1083   1.593   2.083   0.882
  359SOL    HW1 1084   1.509   2.082   0.936
  359SOL    HW2 1085   1.595   2.166   0.826
  360SOL     OW 1086   1.755   2.469   2.093
  360SOL    HW1 1087   1.743   2.456   1.994
  360SOL    HW2 1088   1.725   2.388   2.142
  361SOL     OW 1089   0.122   2.505   2.425
  361SOL    HW1 1090   0.077   2.417   2.442
  361SOL    HW2 1091   0.121   2.559   2.509
  362SOL     OW 1092   0.809   1.866   2.364
  362SOL    HW1 1093   0.849   1.957   2.355
  362SOL    HW2 1094   0.709   1.874   2.370
  363SOL     OW 1095   1.041   2.563   2.291
  363SOL    HW1 1096   1.067   2.559   2.387
  363SOL    HW2 1097   0.956   2.512   2.277
  364SOL     OW 1098   0.076   2.673   2.651
  364SOL    HW1 1099   0.175   2.661   2.660
  364SOL    HW2 1100   0.052   2.768   2.672
  365SOL     OW 1101   0.865   2.210   2.057
  365SOL    HW1 1102   0.924   2.273   2.008
  365SOL    HW2 1103   0.884   2.116   2.028
  366SOL     OW 1104   1.400   1.969   2.288
  366SOL    HW1 1105   1.376   1.932   2.198
  366SOL    HW2 1106   1.499   1.985   2.292
  367SOL     OW 1107   0.614   1.984   1.979
  367SOL    HW1 1108   0.712   1.962   1.986
  367SOL    HW2 1109   0.583   1.967   1.886
  368SOL     OW 1110   0.539   1.926   2.374
  368SOL    HW1 1111   0.458   1.927   2.432
  368SOL    HW2 1112   0.542   2.009   2.319
  369SOL     OW 1113   0.297   1.897   2.033
  369SOL    HW1 1114   0.346   1.981   2.012
  369SOL    HW2 1115   0.359   1.832   2.078
  370SOL     OW 1116   0.935   2.098   2.342
  370SOL    HW1 1117   0.887   2.139   2.264
  370SOL    HW2 1118   1.034   2.096   2.323
  371SOL     OW 1119   1.032   2.411   1.878
  371SOL    HW1 1120   0.991   2.493   1.839
  371SOL    HW2 1121   1.096   2.437   1.951
  372SOL     OW 1122   0.866   2.316   2.504
  372SOL    HW1 1123   0.834   2.388   2.442
  372SOL    HW2 1124   0.890   2.235   2.451
  373SOL     OW 1125   0.527   2.118   2.190
  373SOL    HW1 1126   0.554   2.059   2.115
  373SOL    HW2 1127   0.527   2.213   2.159
  374SOL     OW 1128   1.582   2.501   2.334
  374SOL    HW1 1129   1.551   2.562   2.407
  374SOL    HW2 1130   1.632   2.553   2.265
  375SOL     OW 1131   1.209   2.387   2.137
  375SOL    HW1 1132   1.222   2.303   2.191
  375SOL    HW2 1133   1.180   2.461   2.197
  376SOL     OW 1134   0.307   1.925   2.480
  376SOL    HW1 1135   0.296   2.019   2.513
  376SOL    HW2 1136   0.302   1.862   2.557
  377SOL     OW 1137   1.622   2.229   2.236
  377SOL    HW1 1138   1.624   2.153   2.300
  377SOL    HW2 1139   1.574   2.306   2.276
  378SOL     OW 1140   1.540   2.136   1.987
  378SOL    HW1 1141   1.479   2.061   2.010
  378SOL    HW2 1142   1.562   2.188   2.070
  379SOL     OW 1143   0.339   2.371   2.868
  379SOL    HW1 1144   0.287   2.288   2.851
  379SOL    HW2 1145   0.416   2.376   2.804
  380SOL     OW 1146   0.815   2.434   2.187
  380SOL    HW1 1147   0.822   2.345   2.141
  380SOL    HW2 1148   0.721   2.468   2.179
  381SOL     OW 1149   1.726   1.997   2.385
  381SOL    HW1 1150   1.799   1.980   2.318
  381SOL    HW2 1151   1.695   1.910   2.423
  382SOL     OW 1152   0.075   2.207   1.895
  382SOL    HW1 1153  -0.017   2.179   1.866
  382SOL    HW2 1154   0.106   2.284   1.839
  383SOL     OW 1155   0.072   2.028   2.180
  383SOL    HW1 1156   0.055   2.111   2.126
  383SOL    HW2 1157   0.162   1.991   2.158
  384SOL     OW 1158   1.225   2.187   2.311
  384SOL    HW1 1159   1.290   2.113   2.300
  384SOL    HW2 1160   1.245   2.237   2.395
  385SOL     OW 1161   1.083   2.846   1.949
  385SOL    HW1 1162   1.060   2.899   1.867
  385SOL    HW2 1163   1.164   2.790   1.930
  386SOL     OW 1164   0.428   2.286   2.382
  386SOL    HW1 1165   0.458   2.214   2.320
  386SOL    HW2 1166   0.389   2.246   2.465
  387SOL     OW 1167   1.352   1.914   2.030
  387SOL    HW1 1168   1.387   1.873   1.946
  387SOL    HW2 1169   1.262   1.876   2.050
  388SOL     OW 1170   1.300   2.315   2.553
  388SOL    HW1 1171   1.241   2.395   2.557
  388SOL    HW2 1172   1.315   2.280   2.646
  389SOL     OW 1173   2.092   0.628   0.113
  389SOL    HW1 1174   1.999   0.626   0.150
  389SOL    HW2 1175   2.093   0.589   0.021
  390SOL     OW 1176   2.087   0.275   0.996
  390SOL    HW1 1177   2.122   0.258   1.088
  390SOL    HW2 1178   1.999   0.230   0.984
  391SOL     OW 1179   1.881   0.368   0.647
  391SOL    HW1 1180   1.799   0.411   0.686
  391SOL    HW2 1181   1.853   0.295   0.584
  392SOL     OW 1182   2.431   1.275   1.165
  392SOL    HW1 1183   2.338   1.268   1.128
  392SOL    HW2 1184   2.442   1.364   1.209
  393SOL     OW 1185   2.712   0.798   1.823
  393SOL    HW1 1186   2.708   0.874   1.888
  393SOL    HW2 1187   2.734   0.834   1.732
  394SOL     OW 1188   2.197   1.435   1.061
  394SOL    HW1 1189   2.119   1.404   1.008
  394SOL    HW2 1190   2.255   1.493   1.004
  395SOL     OW 1191   2.300   0.392   1.499
  395SOL    HW1 1192   2.382   0.336   1.508
  395SOL    HW2 1193   2.219   0.334   1.503
  396SOL     OW 1194   2.093   1.713   0.483
  396SOL    HW1 1195   2.127   1.790   0.537
  396SOL    HW2 1196   2.137   1.713   0.393
  397SOL     OW 1197   2.092   1.434   0.538
  397SOL    HW1 1198   2.066   1.530   0.538
  397SOL    HW2 1199   2.021   1.380   0.583
  398SOL     OW 1200   2.102   1.091   0.886
  398SOL    HW1 1201   2.116   1.007   0.938
  398SOL    HW2 1202   2.047   1.155   0.941
  399SOL     OW 1203   1.984   0.643   0.563
  399SOL    HW1 1204   1.939   0.555   0.580
  399SOL    HW2 1205   1.983   0.697   0.647
  400SOL     OW 1206   1.889   1.596   0.117
  400SOL    HW1 1207   1.870   1.500   0.138
  400SOL    HW2 1208   1.856   1.654   0.192
  401SOL     OW 1209   1.975   0.737   1.597
  401SOL    HW1 1210   2.063   0.724   1.642
  401SOL    HW2 1211   1.962   0.834   1.575
  402SOL     OW 1212   2.475   1.365   0.726
  402SOL    HW1 1213   2.426   1.278   0.735
  402SOL    HW2 1214   2.452   1.408   0.639
  403SOL     OW 1215   2.059   0.976   1.264
  403SOL    HW1 1216   2.148   0.931   1.250
  403SOL    HW2 1217   1.986   0.911   1.245
  404SOL     OW 1218   2.179   0.251   1.801
  404SOL    HW1 1219   2.250   0.322   1.807
  404SOL    HW2 1220   2.091   0.290   1.829
  405SOL     OW 1221   2.460   0.729   0.270
  405SOL    HW1 1222   2.484   0.798   0.202
  405SOL    HW2 1223   2.382   0.762   0.324
  406SOL     OW 1224   1.938   0.811   0.789
  406SOL    HW1 1225   2.037   0.799   0.798
  406SOL    HW2 1226   1.914   0.906   0.810
  407SOL     OW 1227   1.992   1.821   1.571
  407SOL    HW1 1228   1.982   1.806   1.670
  407SOL    HW2 1229   1.906   1.857   1.535
  408SOL     OW 1230   2.727   0.348   0.195
  408SOL    HW1 1231   2.786   0.411   0.146
  408SOL    HW2 1232   2.746   0.254   0.166
  409SOL     OW 1233   2.412   0.196   0.885
  409SOL    HW1 1234   2.407   0.191   0.985
  409SOL    HW2 1235   2.414   0.292   0.856
  410SOL     OW 1236   2.213   1.801   0.853
  410SOL    HW1 1237   2.263   1.715   0.859
  410SOL    HW2 1238   2.278   1.878   0.850
  411SOL     OW 1239   2.183   0.943   0.242
  411SOL    HW1 1240   2.265   0.982   0.200
  411SOL    HW2 1241   2.156   0.861   0.193
  412SOL     OW 1242   2.323   1.266   1.727
  412SOL    HW1 1243   2.273   1.267   1.641
  412SOL    HW2 1244   2.260   1.248   1.803
  413SOL     OW 1245   2.064   0.285   1.498
  413SOL    HW1 1246   1.984   0.345   1.485
  413SOL    HW2 1247   2.054   0.236   1.584
  414SOL     OW 1248   2.326   1.743   0.323
  414SOL    HW1 1249   2.359   1.782   0.409
  414SOL    HW2 1250   2.402   1.736   0.258
  415SOL     OW 1251   2.111   1.785   1.241
  415SOL    HW1 1252   2.168   1.720   1.291
  415SOL    HW2 1253   2.095   1.752   1.148
  416SOL     OW 1254   2.244   0.700   0.480
  416SOL    HW1 1255   2.289   0.610   0.477
  416SOL    HW2 1256   2.150   0.689   0.513
  417SOL     OW 1257   2.665   1.402   0.924
  417SOL    HW1 1258   2.755   1.416   0.882
  417SOL    HW2 1259   2.594   1.404   0.853
  418SOL     OW 1260   2.401   0.064   0.512
  418SOL    HW1 1261   2.320   0.065   0.570
  418SOL    HW2 1262   2.404   0.147   0.457
  419SOL     OW 1263   2.159   0.035   0.171
  419SOL    HW1 1264   2.208   0.119   0.150
  419SOL    HW2 1265   2.221  -0.030   0.216
  420SOL     OW 1266   2.797   0.236   0.480
  420SOL    HW1 1267   2.749   0.277   0.402
  420SOL    HW2 1268   2.896   0.234   0.461
  421SOL     OW 1269   2.321   1.152   0.741
  421SOL    HW1 1270   2.250   1.125   0.806
  421SOL    HW2 1271   2.295   1.124   0.648
  422SOL     OW 1272   1.940   0.556   1.386
  422SOL    HW1 1273   2.032   0.555   1.345
  422SOL    HW2 1274   1.934   0.630   1.453
  423SOL     OW 1275   2.423   0.222   1.147
  423SOL    HW1 1276   2.461   0.138   1.184
  423SOL    HW2 1277   2.335   0.241   1.191
  424SOL     OW 1278   2.389   0.256   0.328
  424SOL    HW1 1279   2.416   0.197   0.253
  424SOL    HW2 1280   2.389   0.351   0.297
  425SOL     OW 1281   2.272   0.813   1.251
  425SOL    HW1 1282   2.358   0.825   1.301
  425SOL    HW2 1283   2.230   0.726   1.278
  426SOL     OW 1284   1.926   1.564   1.331
  426SOL    HW1 1285   1.880   1.646   1.297
  426SOL    HW2 1286   2.024   1.583   1.340
  427SOL     OW 1287   2.229   1.100   0.501
  427SOL    HW1 1288   2.222   1.183   0.445
  427SOL    HW2 1289   2.233   1.020   0.441
  428SOL     OW 1290   2.428   0.537   0.865
  428SOL    HW1 1291   2.440   0.603   0.791
  428SOL    HW2 1292   2.474   0.571   0.948
  429SOL     OW 1293   2.216   1.510   1.329
  429SOL    HW1 1294   2.195   1.466   1.242
  429SOL    HW2 1295   2.313   1.536   1.332
  430SOL     OW 1296   2.264   0.751   1.598
  430SOL    HW1 1297   2.332   0.806   1.551
  430SOL    HW2 1298   2.304   0.663   1.625
  431SOL     OW 1299   2.366   0.050   1.740
  431SOL    HW1 1300   2.324  -0.007   1.670
  431SOL    HW2 1301   2.300   0.119   1.772
  432SOL     OW 1302   2.435   0.870   1.029
  432SOL    HW1 1303   2.479   0.959   1.020
  432SOL    HW2 1304   2.372   0.870   1.106
  433SOL     OW 1305   2.169   0.213   1.231
  433SOL    HW1 1306   2.146   0.250   1.321
  433SOL    HW2 1307   2.139   0.118   1.225
  434SOL     OW 1308   1.899   1.310   1.282
  434SOL    HW1 1309   1.952   1.261   1.350
  434SOL    HW2 1310   1.921   1.408   1.287
  435SOL     OW 1311   2.169   0.063   0.618
  435SOL    HW1 1312   2.158   0.157   0.651
  435SOL    HW2 1313   2.164   0.000   0.695
  436SOL     OW 1314   2.212   0.898   1.804
  436SOL    HW1 1315   2.288   0.942   1.852
  436SOL    HW2 1316   2.247   0.851   1.722
  437SOL     OW 1317   2.181   0.810   0.949
  437SOL    HW1 1318   2.274   0.846   0.954
  437SOL    HW2 1319   2.175   0.725   1.001
  438SOL     OW 1320   2.201   0.509   1.006
  438SOL    HW1 1321   2.149   0.426   0.989
  438SOL    HW2 1322   2.278   0.514   0.942
  439SOL     OW 1323   1.870   1.326   0.200
  439SOL    HW1 1324   1.777   1.347   0.169
  439SOL    HW2 1325   1.880   1.227   0.213
  440SOL     OW 1326   1.950   1.801   0.927
  440SOL    HW1 1327   1.908   1.715   0.900
  440SOL    HW2 1328   2.044   1.804   0.893
  441SOL     OW 1329   2.366   1.568   0.910
  441SOL    HW1 1330   2.432   1.642   0.919
  441SOL    HW2 1331   2.410   1.489   0.868
  442SOL     OW 1332   1.902   0.544   1.114
  442SOL    HW1 1333   1.987   0.511   1.073
  442SOL    HW2 1334   1.915   0.559   1.212
  443SOL     OW 1335   2.051   0.520   1.722
  443SOL    HW1 1336   2.110   0.480   1.652
  443SOL    HW2 1337   1.993   0.591   1.681
  444SOL     OW 1338   2.677   0.572   0.325
  444SOL    HW1 1339   2.684   0.483   0.279
  444SOL    HW2 1340   2.583   0.606   0.317
  445SOL     OW 1341   2.114   1.564   1.744
  445SOL    HW1 1342   2.084   1.621   1.820
  445SOL    HW2 1343   2.107   1.467   1.770
  446SOL     OW 1344   2.335   0.500   0.191
  446SOL    HW1 1345   2.396   0.580   0.195
  446SOL    HW2 1346   2.240   0.531   0.198
  447SOL     OW 1347   2.021   1.137   1.466
  447SOL    HW1 1348   2.043   1.076   1.542
  447SOL    HW2 1349   2.031   1.088   1.380
  448SOL     OW 1350   1.945   1.258   1.022
  448SOL    HW1 1351   1.940   1.257   1.122
  448SOL    HW2 1352   1.862   1.217   0.984
  449SOL     OW 1353   2.550   1.662   1.716
  449SOL    HW1 1354   2.494   1.743   1.725
  449SOL    HW2 1355   2.602   1.666   1.630
  450SOL     OW 1356   1.992   1.794   1.851
  450SOL    HW1 1357   1.951   1.720   1.904
  450SOL    HW2 1358   2.056   1.845   1.909
  451SOL     OW 1359   2.125   0.326   0.720
  451SOL    HW1 1360   2.046   0.377   0.686
  451SOL    HW2 1361   2.116   0.311   0.818
  452SOL     OW 1362   2.234   1.288   1.490
  452SOL    HW1 1363   2.221   1.381   1.456
  452SOL    HW2 1364   2.150   1.236   1.477
  453SOL     OW 1365   2.452   1.487   0.491
  453SOL    HW1 1366   2.494   1.429   0.421
  453SOL    HW2 1367   2.408   1.566   0.447
  454SOL     OW 1368   2.117   1.348   0.290
  454SOL    HW1 1369   2.021   1.349   0.263
  454SOL    HW2 1370   2.129   1.401   0.374
  455SOL     OW 1371   1.967   1.013   1.726
  455SOL    HW1 1372   1.890   0.980   1.780
  455SOL    HW2 1373   2.052   0.983   1.768
  456SOL     OW 1374   2.534   0.203   1.489
  456SOL    HW1 1375   2.624   0.187   1.449
  456SOL    HW2 1376   2.542   0.208   1.588
  457SOL     OW 1377   1.937   0.345   0.033
  457SOL    HW1 1378   1.845   0.317   0.004
  457SOL    HW2 1379   1.968   0.422  -0.023
  458SOL     OW 1380   2.475   0.842   1.431
  458SOL    HW1 1381   2.531   0.923   1.414
  458SOL    HW2 1382   2.534   0.762   1.434
  459SOL     OW 1383   2.252   1.741   1.560
  459SOL    HW1 1384   2.161   1.782   1.558
  459SOL    HW2 1385   2.245   1.647   1.592
  460SOL     OW 1386   2.456   0.745   0.652
  460SOL    HW1 1387   2.506   0.830   0.633
  460SOL    HW2 1388   2.368   0.747   0.604
  461SOL     OW 1389   2.083   1.314   1.844
  461SOL    HW1 1390   2.018   1.241   1.823
  461SOL    HW2 1391   2.087   1.328   1.942
  462SOL     OW 1392   1.941   1.240   0.653
  462SOL    HW1 1393   1.940   1.193   0.741
  462SOL    HW2 1394   2.023   1.212   0.602
  463SOL     OW 1395   2.534   1.391   1.624
  463SOL    HW1 1396   2.456   1.341   1.662
  463SOL    HW2 1397   2.531   1.486   1.655
  464SOL     OW 1398   2.290   0.424   0.520
  464SOL    HW1 1399   2.320   0.352   0.458
  464SOL    HW2 1400   2.251   0.384   0.603
  465SOL     OW 1401   2.179   0.547   1.280
  465SOL    HW1 1402   2.217   0.488   1.352
  465SOL    HW2 1403   2.219   0.521   1.192
  466SOL     OW 1404   1.901   1.077   0.300
  466SOL    HW1 1405   2.000   1.066   0.291
  466SOL    HW2 1406   1.861   0.991   0.332
  467SOL     OW 1407   2.092   0.628   1.975
  467SOL    HW1 1408   1.999   0.626   2.012
  467SOL    HW2 1409   2.093   0.589   1.883
  468SOL     OW 1410   2.093   1.713   2.345
  468SOL    HW1 1411   2.127   1.790   2.399
  468SOL    HW2 1412   2.137   1.713   2.255
  469SOL     OW 1413   2.092   1.434   2.400
  469SOL    HW1 1414   2.066   1.530   2.400
  469SOL    HW2 1415   2.021   1.380   2.445
  470SOL     OW 1416   1.984   0.643   2.425
  470SOL    HW1 1417   1.939   0.555   2.442
  470SOL    HW2 1418   1.983   0.697   2.509
  471SOL     OW 1419   1.889   1.596   1.979
  471SOL    HW1 1420   1.870   1.500   2.000
  471SOL    HW2 1421   1.856   1.654   2.054
  472SOL     OW 1422   2.460   0.729   2.132
  472SOL    HW1 1423   2.484   0.798   2.064
  472SOL    HW2 1424   2.382   0.762   2.186
  473SOL     OW 1425   1.938   0.811   2.651
  473SOL    HW1 1426   2.037   0.799   2.660
  473SOL    HW2 1427   1.914   0.906   2.672
  474SOL     OW 1428   2.727   0.348   2.057
  474SOL    HW1 1429   2.786   0.411   2.008
  474SOL    HW2 1430   2.746   0.254   2.028
  475SOL     OW 1431   2.213   1.801   2.715
  475SOL    HW1 1432   2.263   1.715   2.721
  475SOL    HW2 1433   2.278   1.878   2.712
  476SOL     OW 1434   2.183   0.943   2.104
  476SOL    HW1 1435   2.265   0.982   2.062
  476SOL    HW2 1436   2.156   0.861   2.055
  477SOL     OW 1437   2.326   1.743   2.185
  477SOL    HW1 1438   2.359   1.782   2.271
  477SOL    HW2 1439   2.402   1.736   2.120
  478SOL     OW 1440   2.244   0.700   2.342
  478SOL    HW1 1441   2.289   0.610   2.339
  478SOL    HW2 1442   2.150   0.689   2.375
  479SOL     OW 1443   2.476   0.122   1.979
  479SOL    HW1 1444   2.574   0.100   1.986
  479SOL    HW2 1445   2.445   0.105   1.886
  480SOL     OW 1446   2.401   0.064   2.374
  480SOL    HW1 1447   2.320   0.065   2.432
  480SOL    HW2 1448   2.404   0.147   2.319
  481SOL     OW 1449   2.159   0.035   2.033
  481SOL    HW1 1450   2.208   0.119   2.012
  481SOL    HW2 1451   2.221  -0.030   2.078
  482SOL     OW 1452   2.797   0.236   2.342
  482SOL    HW1 1453   2.749   0.277   2.264
  482SOL    HW2 1454   2.896   0.234   2.323
  483SOL     OW 1455   2.321   1.152   2.603
  483SOL    HW1 1456   2.250   1.125   2.668
  483SOL    HW2 1457   2.295   1.124   2.510
  484SOL     OW 1458   2.389   0.256   2.190
  484SOL    HW1 1459   2.416   0.197   2.115
  484SOL    HW2 1460   2.389   0.351   2.159
  485SOL     OW 1461   2.229   1.100   2.363
  485SOL    HW1 1462   2.222   1.183   2.307
  485SOL    HW2 1463   2.233   1.020   2.303
  486SOL     OW 1464   2.169   0.063   2.480
  486SOL    HW1 1465   2.158   0.157   2.513
  486SOL    HW2 1466   2.164   0.000   2.557
  487SOL     OW 1467   1.870   1.326   2.062
  487SOL    HW1 1468   1.777   1.347   2.031
  487SOL    HW2 1469   1.880   1.227   2.075
  488SOL     OW 1470   2.677   0.572   2.187
  488SOL    HW1 1471   2.684   0.483   2.141
  488SOL    HW2 1472   2.583   0.606   2.179
  489SOL     OW 1473   2.335   0.500   2.053
  489SOL    HW1 1474   2.396   0.580   2.057
  489SOL    HW2 1475   2.240   0.531   2.060
  490SOL     OW 1476   2.452   1.487   2.353
  490SOL    HW1 1477   2.494   1.429   2.283
  490SOL    HW2 1478   2.408   1.566   2.309
  491SOL     OW 1479   2.117   1.348   2.152
  491SOL    HW1 1480   2.021   1.349   2.125
  491SOL    HW2 1481   2.129   1.401   2.236
  492SOL     OW 1482   1.937   0.345   1.895
  492SOL    HW1 1483   1.845   0.317   1.866
  492SOL    HW2 1484   1.968   0.422   1.839
  493SOL     OW 1485   1.934   0.166   2.180
  493SOL    HW1 1486   1.917   0.249   2.126
  493SOL    HW2 1487   2.024   0.129   2.158
  494SOL     OW 1488   2.456   0.745   2.514
  494SOL    HW1 1489   2.506   0.830   2.495
  494SOL    HW2 1490   2.368   0.747   2.466
  495SOL     OW 1491   1.941   1.240   2.515
  495SOL    HW1 1492   1.940   1.193   2.603
  495SOL    HW2 1493   2.023   1.212   2.464
  496SOL     OW 1494   2.290   0.424   2.382
  496SOL    HW1 1495   2.320   0.352   2.320
  496SOL    HW2 1496   2.251   0.384   2.465
  497SOL     OW 1497   1.901   1.077   2.162
  497SOL    HW1 1498   2.000   1.066   2.153
  497SOL    HW2 1499   1.861   0.991   2.194
  498SOL     OW 1500   2.087   2.137   0.996
  498SOL    HW1 1501   2.122   2.120   1.088
  498SOL    HW2 1502   1.999   2.092   0.984
  499SOL     OW 1503   1.881   2.230   0.647
  499SOL    HW1 1504   1.799   2.273   0.686
  499SOL    HW2 1505   1.853   2.157   0.584
  500SOL     OW 1506   2.712   2.660   1.823
  500SOL    HW1 1507   2.708   2.736   1.888
  500SOL    HW2 1508   2.734   2.696   1.732
  501SOL     OW 1509   2.300   2.254   1.499
  501SOL    HW1 1510   2.382   2.198   1.508
  501SOL    HW2 1511   2.219   2.196   1.503
  502SOL     OW 1512   1.984   2.505   0.563
  502SOL    HW1 1513   1.939   2.417   0.580
  502SOL    HW2 1514   1.983   2.559   0.647
  503SOL     OW 1515   2.671   1.866   0.502
  503SOL    HW1 1516   2.711   1.957   0.493
  503SOL    HW2 1517   2.571   1.874   0.508
  504SOL     OW 1518   2.179   2.113   1.801
  504SOL    HW1 1519   2.250   2.184   1.807
  504SOL    HW2 1520   2.091   2.152   1.829
  505SOL     OW 1521   2.727   2.210   0.195
  505SOL    HW1 1522   2.786   2.273   0.146
  505SOL    HW2 1523   2.746   2.116   0.166
  506SOL     OW 1524   2.412   2.058   0.885
  506SOL    HW1 1525   2.407   2.053   0.985
  506SOL    HW2 1526   2.414   2.154   0.856
  507SOL     OW 1527   2.064   2.147   1.498
  507SOL    HW1 1528   1.984   2.207   1.485
  507SOL    HW2 1529   2.054   2.098   1.584
  508SOL     OW 1530   2.476   1.984   0.117
  508SOL    HW1 1531   2.574   1.962   0.124
  508SOL    HW2 1532   2.445   1.967   0.024
  509SOL     OW 1533   2.401   1.926   0.512
  509SOL    HW1 1534   2.320   1.927   0.570
  509SOL    HW2 1535   2.404   2.009   0.457
  510SOL     OW 1536   2.797   2.098   0.480
  510SOL    HW1 1537   2.749   2.139   0.402
  510SOL    HW2 1538   2.896   2.096   0.461
  511SOL     OW 1539   1.940   2.418   1.386
  511SOL    HW1 1540   2.032   2.417   1.345
  511SOL    HW2 1541   1.934   2.492   1.453
  512SOL     OW 1542   2.423   2.084   1.147
  512SOL    HW1 1543   2.461   2.000   1.184
  512SOL    HW2 1544   2.335   2.103   1.191
  513SOL     OW 1545   2.389   2.118   0.328
  513SOL    HW1 1546   2.416   2.059   0.253
  513SOL    HW2 1547   2.389   2.213   0.297
  514SOL     OW 1548   2.428   2.399   0.865
  514SOL    HW1 1549   2.440   2.465   0.791
  514SOL    HW2 1550   2.474   2.433   0.948
  515SOL     OW 1551   2.366   1.912   1.740
  515SOL    HW1 1552   2.324   1.855   1.670
  515SOL    HW2 1553   2.300   1.981   1.772
  516SOL     OW 1554   2.169   2.075   1.231
  516SOL    HW1 1555   2.146   2.112   1.321
  516SOL    HW2 1556   2.139   1.980   1.225
  517SOL     OW 1557   2.169   1.925   0.618
  517SOL    HW1 1558   2.158   2.019   0.651
  517SOL    HW2 1559   2.164   1.862   0.695
  518SOL     OW 1560   2.181   2.672   0.949
  518SOL    HW1 1561   2.274   2.708   0.954
  518SOL    HW2 1562   2.175   2.587   1.001
  519SOL     OW 1563   2.201   2.371   1.006
  519SOL    HW1 1564   2.149   2.288   0.989
  519SOL    HW2 1565   2.278   2.376   0.942
  520SOL     OW 1566   1.902   2.406   1.114
  520SOL    HW1 1567   1.987   2.373   1.073
  520SOL    HW2 1568   1.915   2.421   1.212
  521SOL     OW 1569   2.051   2.382   1.722
  521SOL    HW1 1570   2.110   2.342   1.652
  521SOL    HW2 1571   1.993   2.453   1.681
  522SOL     OW 1572   2.677   2.434   0.325
  522SOL    HW1 1573   2.684   2.345   0.279
  522SOL    HW2 1574   2.583   2.468   0.317
  523SOL     OW 1575   2.125   2.188   0.720
  523SOL    HW1 1576   2.046   2.239   0.686
  523SOL    HW2 1577   2.116   2.173   0.818
  524SOL     OW 1578   2.534   2.065   1.489
  524SOL    HW1 1579   2.624   2.049   1.449
  524SOL    HW2 1580   2.542   2.070   1.588
  525SOL     OW 1581   1.937   2.207   0.033
  525SOL    HW1 1582   1.845   2.179   0.004
  525SOL    HW2 1583   1.968   2.284  -0.023
  526SOL     OW 1584   1.934   2.028   0.318
  526SOL    HW1 1585   1.917   2.111   0.264
  526SOL    HW2 1586   2.024   1.991   0.296
  527SOL     OW 1587   2.290   2.286   0.520
  527SOL    HW1 1588   2.320   2.214   0.458
  527SOL    HW2 1589   2.251   2.246   0.603
  528SOL     OW 1590   2.179   2.409   1.280
  528SOL    HW1 1591   2.217   2.350   1.352
  528SOL    HW2 1592   2.219   2.383   1.192
  529SOL     OW 1593   1.984   2.505   2.425
  529SOL    HW1 1594   1.939   2.417   2.442
  529SOL    HW2 1595   1.983   2.559   2.509
  530SOL     OW 1596   2.671   1.866   2.364
  530SOL    HW1 1597   2.711   1.957   2.355
  530SOL    HW2 1598   2.571   1.874   2.370
  531SOL     OW 1599   2.727   2.210   2.057
  531SOL    HW1 1600   2.786   2.273   2.008
  531SOL    HW2 1601   2.746   2.116   2.028
  532SOL     OW 1602   2.476   1.984   1.979
  532SOL    HW1 1603   2.574   1.962   1.986
  532SOL    HW2 1604   2.445   1.967   1.886
  533SOL     OW 1605   2.401   1.926   2.374
  533SOL    HW1 1606   2.320   1.927   2.432
  533SOL    HW2 1607   2.404   2.009   2.319
  534SOL     OW 1608   2.159   1.897   2.033
  534SOL    HW1 1609   2.208   1.981   2.012
  534SOL    HW2 1610   2.221   1.832   2.078
  535SOL     OW 1611   2.797   2.098   2.342
  535SOL    HW1 1612   2.749   2.139   2.264
  535SOL    HW2 1613   2.896   2.096   2.323
  536SOL     OW 1614   2.389   2.118   2.190
  536SOL    HW1 1615   2.416   2.059   2.115
  536SOL    HW2 1616   2.389   2.213   2.159
  537SOL     OW 1617   2.169   1.925   2.480
  537SOL    HW1 1618   2.158   2.019   2.513
  537SOL    HW2 1619   2.164   1.862   2.557
  538SOL     OW 1620   2.201   2.371   2.868
  538SOL    HW1 1621   2.149   2.288   2.851
  538SOL    HW2 1622   2.278   2.376   2.804
  539SOL     OW 1623   2.677   2.434   2.187
  539SOL    HW1 1624   2.684   2.345   2.141
  539SOL    HW2 1625   2.583   2.468   2.179
  540SOL     OW 1626   1.937   2.207   1.895
  540SOL    HW1 1627   1.845   2.179   1.866
  540SOL    HW2 1628   1.968   2.284   1.839
  541SOL     OW 1629   1.934   2.028   2.180
  541SOL    HW1 1630   1.917   2.111   2.126
  541SOL    HW2 1631   2.024   1.991   2.158
  542SOL     OW 1632   2.290   2.286   2.382
  542SOL    HW1 1633   2.320   2.214   2.320
  542SOL    HW2 1634   2.251   2.246   2.465
   2.54985   2.54985   2.54985
