; mobley_6195751_GMX.itp created by acpype (v: 2023.10.27) on Thu May 14 13:43:24 2026

[ atomtypes ]
;name   bond_type     mass     charge   ptype   sigma         epsilon       Amb
 ca       ca          0.00000  0.00000   A     3.31521e-01   4.13379e-01 ; 1.86  0.0988
 c        c           0.00000  0.00000   A     3.31521e-01   4.13379e-01 ; 1.86  0.0988
 c3       c3          0.00000  0.00000   A     3.39771e-01   4.51035e-01 ; 1.91  0.1078
 o        o           0.00000  0.00000   A     3.04812e-01   6.12119e-01 ; 1.71  0.1463
 oh       oh          0.00000  0.00000   A     3.24287e-01   3.89112e-01 ; 1.82  0.0930
 os       os          0.00000  0.00000   A     3.15610e-01   3.03758e-01 ; 1.77  0.0726
 cl       cl          0.00000  0.00000   A     3.46595e-01   1.10374e+00 ; 1.95  0.2638
 h4       h4          0.00000  0.00000   A     2.53639e-01   6.73624e-02 ; 1.42  0.0161
 h1       h1          0.00000  0.00000   A     2.42200e-01   8.70272e-02 ; 1.36  0.0208
 ho       ho          0.00000  0.00000   A     5.37925e-02   1.96648e-02 ; 0.30  0.0047

[ moleculetype ]
;name            nrexcl
 mobley_6195751   3

[ atoms ]
;   nr  type  resi  res  atom  cgnr     charge      mass       ; qtot   bond_type
     1   ca     1   MOL    C1    1    -0.190600     12.01000 ; qtot -0.191
     2   ca     1   MOL    C2    2     0.123100     12.01000 ; qtot -0.068
     3   ca     1   MOL    C3    3     0.051100     12.01000 ; qtot -0.016
     4   ca     1   MOL    C4    4     0.051100     12.01000 ; qtot 0.035
     5   ca     1   MOL    C5    5     0.057900     12.01000 ; qtot 0.093
     6   ca     1   MOL    C6    6     0.057900     12.01000 ; qtot 0.150
     7    c     1   MOL    C7    7     0.587502     12.01000 ; qtot 0.738
     8   c3     1   MOL    C8    8     0.110200     12.01000 ; qtot 0.848
     9   c3     1   MOL    C9    9     0.110200     12.01000 ; qtot 0.958
    10    o     1   MOL    O1   10    -0.489100     16.00000 ; qtot 0.469
    11   oh     1   MOL    O2   11    -0.482100     16.00000 ; qtot -0.013
    12   os     1   MOL    O3   12    -0.325900     16.00000 ; qtot -0.339
    13   os     1   MOL    O4   13    -0.325900     16.00000 ; qtot -0.665
    14   cl     1   MOL   CL1   14    -0.049400     35.45000 ; qtot -0.714
    15   cl     1   MOL   CL2   15    -0.049400     35.45000 ; qtot -0.763
    16   h4     1   MOL    H1   16     0.020200      1.00800 ; qtot -0.743
    17   h1     1   MOL    H2   17     0.050033      1.00800 ; qtot -0.693
    18   h1     1   MOL    H3   18     0.050033      1.00800 ; qtot -0.643
    19   h1     1   MOL    H4   19     0.050033      1.00800 ; qtot -0.593
    20   h1     1   MOL    H5   20     0.050033      1.00800 ; qtot -0.543
    21   h1     1   MOL    H6   21     0.050033      1.00800 ; qtot -0.493
    22   h1     1   MOL    H7   22     0.050033      1.00800 ; qtot -0.443
    23   ho     1   MOL    H8   23     0.443000      1.00800 ; qtot 0.000

[ bonds ]
;   ai     aj funct   r             k
     1      5   1    1.3986e-01    2.9644e+05 ;     C1 - C5    
     1      6   1    1.3986e-01    2.9644e+05 ;     C1 - C6    
     1      7   1    1.4907e-01    2.1994e+05 ;     C1 - C7    
     2      3   1    1.3986e-01    2.9644e+05 ;     C2 - C3    
     2      4   1    1.3986e-01    2.9644e+05 ;     C2 - C4    
     2     11   1    1.3644e-01    2.9167e+05 ;     C2 - O2    
     3      5   1    1.3986e-01    2.9644e+05 ;     C3 - C5    
     3     12   1    1.3688e-01    2.8731e+05 ;     C3 - O3    
     4      6   1    1.3986e-01    2.9644e+05 ;     C4 - C6    
     4     13   1    1.3688e-01    2.8731e+05 ;     C4 - O4    
     5     14   1    1.7572e-01    1.5730e+05 ;     C5 - CL1   
     6     15   1    1.7572e-01    1.5730e+05 ;     C6 - CL2   
     7     10   1    1.2190e-01    4.9421e+05 ;     C7 - O1    
     7     16   1    1.1123e-01    2.6984e+05 ;     C7 - H1    
     8     12   1    1.4273e-01    2.3620e+05 ;     C8 - O3    
     8     17   1    1.0969e-01    2.8804e+05 ;     C8 - H2    
     8     18   1    1.0969e-01    2.8804e+05 ;     C8 - H3    
     8     19   1    1.0969e-01    2.8804e+05 ;     C8 - H4    
     9     13   1    1.4273e-01    2.3620e+05 ;     C9 - O4    
     9     20   1    1.0969e-01    2.8804e+05 ;     C9 - H5    
     9     21   1    1.0969e-01    2.8804e+05 ;     C9 - H6    
     9     22   1    1.0969e-01    2.8804e+05 ;     C9 - H7    
    11     23   1    9.7250e-02    4.4811e+05 ;     O2 - H8    

[ pairs ]
;   ai     aj    funct
     1      2      1 ;     C1 - C2    
     1     12      1 ;     C1 - O3    
     1     13      1 ;     C1 - O4    
     2      8      1 ;     C2 - C8    
     2      9      1 ;     C2 - C9    
     2     14      1 ;     C2 - CL1   
     2     15      1 ;     C2 - CL2   
     3      6      1 ;     C3 - C6    
     3     13      1 ;     C3 - O4    
     3     17      1 ;     C3 - H2    
     3     18      1 ;     C3 - H3    
     3     19      1 ;     C3 - H4    
     3     23      1 ;     C3 - H8    
     4      5      1 ;     C4 - C5    
     4     12      1 ;     C4 - O3    
     4     20      1 ;     C4 - H5    
     4     21      1 ;     C4 - H6    
     4     22      1 ;     C4 - H7    
     4     23      1 ;     C4 - H8    
     5      8      1 ;     C5 - C8    
     5     10      1 ;     C5 - O1    
     5     11      1 ;     C5 - O2    
     5     15      1 ;     C5 - CL2   
     5     16      1 ;     C5 - H1    
     6      9      1 ;     C6 - C9    
     6     10      1 ;     C6 - O1    
     6     11      1 ;     C6 - O2    
     6     14      1 ;     C6 - CL1   
     6     16      1 ;     C6 - H1    
     7      3      1 ;     C7 - C3    
     7      4      1 ;     C7 - C4    
     7     14      1 ;     C7 - CL1   
     7     15      1 ;     C7 - CL2   
    11     12      1 ;     O2 - O3    
    11     13      1 ;     O2 - O4    
    12     14      1 ;     O3 - CL1   
    13     15      1 ;     O4 - CL2   

[ angles ]
;   ai     aj     ak    funct   theta         cth
     1      5      3      1    1.2002e+02    5.3279e+02 ;     C1 - C5     - C3    
     1      5     14      1    1.1938e+02    5.3605e+02 ;     C1 - C5     - CL1   
     1      6      4      1    1.2002e+02    5.3279e+02 ;     C1 - C6     - C4    
     1      6     15      1    1.1938e+02    5.3605e+02 ;     C1 - C6     - CL2   
     1      7     10      1    1.2260e+02    6.5237e+02 ;     C1 - C7     - O1    
     1      7     16      1    1.1514e+02    3.6208e+02 ;     C1 - C7     - H1    
     2      3      5      1    1.2002e+02    5.3279e+02 ;     C2 - C3     - C5    
     2      3     12      1    1.1911e+02    6.6107e+02 ;     C2 - C3     - O3    
     2      4      6      1    1.2002e+02    5.3279e+02 ;     C2 - C4     - C6    
     2      4     13      1    1.1911e+02    6.6107e+02 ;     C2 - C4     - O4    
     2     11     23      1    1.0858e+02    5.6409e+02 ;     C2 - O2     - H8    
     3      2      4      1    1.2002e+02    5.3279e+02 ;     C3 - C2     - C4    
     3      2     11      1    1.1990e+02    6.5990e+02 ;     C3 - C2     - O2    
     3      5     14      1    1.1938e+02    5.3605e+02 ;     C3 - C5     - CL1   
     3     12      8      1    1.1839e+02    7.3856e+02 ;     C3 - O3     - C8    
     4      2     11      1    1.1990e+02    6.5990e+02 ;     C4 - C2     - O2    
     4      6     15      1    1.1938e+02    5.3605e+02 ;     C4 - C6     - CL2   
     4     13      9      1    1.1839e+02    7.3856e+02 ;     C4 - O4     - C9    
     5      1      6      1    1.2002e+02    5.3279e+02 ;     C5 - C1     - C6    
     5      1      7      1    1.2033e+02    5.1413e+02 ;     C5 - C1     - C7    
     5      3     12      1    1.1911e+02    6.6107e+02 ;     C5 - C3     - O3    
     6      1      7      1    1.2033e+02    5.1413e+02 ;     C6 - C1     - C7    
     6      4     13      1    1.1911e+02    6.6107e+02 ;     C6 - C4     - O4    
    10      7     16      1    1.2062e+02    5.0191e+02 ;     O1 - C7     - H1    
    12      8     17      1    1.1034e+02    4.7028e+02 ;     O3 - C8     - H2    
    12      8     18      1    1.1034e+02    4.7028e+02 ;     O3 - C8     - H3    
    12      8     19      1    1.1034e+02    4.7028e+02 ;     O3 - C8     - H4    
    13      9     20      1    1.1034e+02    4.7028e+02 ;     O4 - C9     - H5    
    13      9     21      1    1.1034e+02    4.7028e+02 ;     O4 - C9     - H6    
    13      9     22      1    1.1034e+02    4.7028e+02 ;     O4 - C9     - H7    
    17      8     18      1    1.0855e+02    2.9824e+02 ;     H2 - C8     - H3    
    17      8     19      1    1.0855e+02    2.9824e+02 ;     H2 - C8     - H4    
    18      8     19      1    1.0855e+02    2.9824e+02 ;     H3 - C8     - H4    
    20      9     21      1    1.0855e+02    2.9824e+02 ;     H5 - C9     - H6    
    20      9     22      1    1.0855e+02    2.9824e+02 ;     H5 - C9     - H7    
    21      9     22      1    1.0855e+02    2.9824e+02 ;     H6 - C9     - H7    

[ dihedrals ] ; propers
; for gromacs 4.5 or higher, using funct 9
;    i      j      k      l   func   phase     kd      pn
     1      5      3      2      9   180.00  15.16700   2 ;     C1-    C5-    C3-    C2
     1      5      3     12      9   180.00  15.16700   2 ;     C1-    C5-    C3-    O3
     1      6      4      2      9   180.00  15.16700   2 ;     C1-    C6-    C4-    C2
     1      6      4     13      9   180.00  15.16700   2 ;     C1-    C6-    C4-    O4
     2      3      5     14      9   180.00  15.16700   2 ;     C2-    C3-    C5-   CL1
     2      3     12      8      9   180.00   6.94544   2 ;     C2-    C3-    O3-    C8
     2      4      6     15      9   180.00  15.16700   2 ;     C2-    C4-    C6-   CL2
     2      4     13      9      9   180.00   6.94544   2 ;     C2-    C4-    O4-    C9
     3      2      4      6      9   180.00  15.16700   2 ;     C3-    C2-    C4-    C6
     3      2      4     13      9   180.00  15.16700   2 ;     C3-    C2-    C4-    O4
     3      2     11     23      9   180.00   3.57732   2 ;     C3-    C2-    O2-    H8
     3     12      8     17      9     0.00   1.60387   3 ;     C3-    O3-    C8-    H2
     3     12      8     18      9     0.00   1.60387   3 ;     C3-    O3-    C8-    H3
     3     12      8     19      9     0.00   1.60387   3 ;     C3-    O3-    C8-    H4
     4      2      3      5      9   180.00  15.16700   2 ;     C4-    C2-    C3-    C5
     4      2      3     12      9   180.00  15.16700   2 ;     C4-    C2-    C3-    O3
     4      2     11     23      9   180.00   3.57732   2 ;     C4-    C2-    O2-    H8
     4     13      9     20      9     0.00   1.60387   3 ;     C4-    O4-    C9-    H5
     4     13      9     21      9     0.00   1.60387   3 ;     C4-    O4-    C9-    H6
     4     13      9     22      9     0.00   1.60387   3 ;     C4-    O4-    C9-    H7
     5      1      6      4      9   180.00  15.16700   2 ;     C5-    C1-    C6-    C4
     5      1      6     15      9   180.00  15.16700   2 ;     C5-    C1-    C6-   CL2
     5      1      7     10      9   180.00   2.42672   2 ;     C5-    C1-    C7-    O1
     5      1      7     16      9   180.00   4.18400   2 ;     C5-    C1-    C7-    H1
     5      3      2     11      9   180.00  15.16700   2 ;     C5-    C3-    C2-    O2
     5      3     12      8      9   180.00   6.94544   2 ;     C5-    C3-    O3-    C8
     6      1      5      3      9   180.00  15.16700   2 ;     C6-    C1-    C5-    C3
     6      1      5     14      9   180.00  15.16700   2 ;     C6-    C1-    C5-   CL1
     6      1      7     10      9   180.00   2.42672   2 ;     C6-    C1-    C7-    O1
     6      1      7     16      9   180.00   4.18400   2 ;     C6-    C1-    C7-    H1
     6      4      2     11      9   180.00  15.16700   2 ;     C6-    C4-    C2-    O2
     6      4     13      9      9   180.00   6.94544   2 ;     C6-    C4-    O4-    C9
     7      1      5      3      9   180.00  15.16700   2 ;     C7-    C1-    C5-    C3
     7      1      5     14      9   180.00  15.16700   2 ;     C7-    C1-    C5-   CL1
     7      1      6      4      9   180.00  15.16700   2 ;     C7-    C1-    C6-    C4
     7      1      6     15      9   180.00  15.16700   2 ;     C7-    C1-    C6-   CL2
    11      2      3     12      9   180.00  15.16700   2 ;     O2-    C2-    C3-    O3
    11      2      4     13      9   180.00  15.16700   2 ;     O2-    C2-    C4-    O4
    12      3      5     14      9   180.00  15.16700   2 ;     O3-    C3-    C5-   CL1
    13      4      6     15      9   180.00  15.16700   2 ;     O4-    C4-    C6-   CL2

[ dihedrals ] ; impropers
; treated as propers in GROMACS to use correct AMBER analytical function
;    i      j      k      l   func   phase     kd      pn
     1      3      5     14      4   180.00   4.60240   2 ;     C1-    C3-    C5-   CL1
     1      4      6     15      4   180.00   4.60240   2 ;     C1-    C4-    C6-   CL2
     1     16      7     10      4   180.00  43.93200   2 ;     C1-    H1-    C7-    O1
     2      5      3     12      4   180.00   4.60240   2 ;     C2-    C5-    C3-    O3
     2      6      4     13      4   180.00   4.60240   2 ;     C2-    C6-    C4-    O4
     3      4      2     11      4   180.00   4.60240   2 ;     C3-    C4-    C2-    O2
     6      1      5      7      4   180.00   4.60240   2 ;     C6-    C1-    C5-    C7
