; mobley_9534740_GMX.itp created by acpype (v: 2023.10.27) on Thu May 14 13:17:43 2026

[ atomtypes ]
;name   bond_type     mass     charge   ptype   sigma         epsilon       Amb
 c6       c6          0.00000  0.00000   A     3.39771e-01   4.51035e-01 ; 1.91  0.1078
 c3       c3          0.00000  0.00000   A     3.39771e-01   4.51035e-01 ; 1.91  0.1078
 os       os          0.00000  0.00000   A     3.15610e-01   3.03758e-01 ; 1.77  0.0726
 oh       oh          0.00000  0.00000   A     3.24287e-01   3.89112e-01 ; 1.82  0.0930
 h1       h1          0.00000  0.00000   A     2.42200e-01   8.70272e-02 ; 1.36  0.0208
 h2       h2          0.00000  0.00000   A     2.24382e-01   8.70272e-02 ; 1.26  0.0208
 ho       ho          0.00000  0.00000   A     5.37925e-02   1.96648e-02 ; 0.30  0.0047

[ moleculetype ]
;name            nrexcl
 mobley_9534740   3

[ atoms ]
;   nr  type  resi  res  atom  cgnr     charge      mass       ; qtot   bond_type
     1   c6     1   MOL    C1    1     0.071100     12.01000 ; qtot 0.071
     2   c6     1   MOL    C2    2     0.084100     12.01000 ; qtot 0.155
     3   c6     1   MOL    C3    3     0.089100     12.01000 ; qtot 0.244
     4   c6     1   MOL    C4    4     0.081100     12.01000 ; qtot 0.325
     5   c6     1   MOL    C5    5     0.318900     12.01000 ; qtot 0.644
     6   c3     1   MOL    C6    6     0.138400     12.01000 ; qtot 0.783
     7   os     1   MOL    O1    7    -0.464600     16.00000 ; qtot 0.318
     8   oh     1   MOL    O2    8    -0.569800     16.00000 ; qtot -0.252
     9   oh     1   MOL    O3    9    -0.574800     16.00000 ; qtot -0.826
    10   oh     1   MOL    O4   10    -0.557800     16.00000 ; qtot -1.384
    11   oh     1   MOL    O5   11    -0.580800     16.00000 ; qtot -1.965
    12   oh     1   MOL    O6   12    -0.593800     16.00000 ; qtot -2.559
    13   h1     1   MOL    H1   13     0.075700      1.00800 ; qtot -2.483
    14   h1     1   MOL    H2   14     0.090700      1.00800 ; qtot -2.392
    15   h1     1   MOL    H3   15     0.106700      1.00800 ; qtot -2.286
    16   h1     1   MOL    H4   16     0.054700      1.00800 ; qtot -2.231
    17   h2     1   MOL    H5   17     0.036700      1.00800 ; qtot -2.194
    18   h1     1   MOL    H6   18     0.067700      1.00800 ; qtot -2.127
    19   h1     1   MOL    H7   19     0.067700      1.00800 ; qtot -2.059
    20   ho     1   MOL    H8   20     0.412000      1.00800 ; qtot -1.647
    21   ho     1   MOL    H9   21     0.410000      1.00800 ; qtot -1.237
    22   ho     1   MOL   H10   22     0.401000      1.00800 ; qtot -0.836
    23   ho     1   MOL   H11   23     0.428000      1.00800 ; qtot -0.408
    24   ho     1   MOL   H12   24     0.408000      1.00800 ; qtot 0.000

[ bonds ]
;   ai     aj funct   r             k
     1      2   1    1.5384e-01    1.8979e+05 ;     C1 - C2    
     1      3   1    1.5384e-01    1.8979e+05 ;     C1 - C3    
     1      8   1    1.4241e-01    2.3870e+05 ;     C1 - O2    
     1     13   1    1.0984e-01    2.8620e+05 ;     C1 - H1    
     2      4   1    1.5384e-01    1.8979e+05 ;     C2 - C4    
     2      9   1    1.4241e-01    2.3870e+05 ;     C2 - O3    
     2     14   1    1.0984e-01    2.8620e+05 ;     C2 - H2    
     3      5   1    1.5384e-01    1.8979e+05 ;     C3 - C5    
     3     10   1    1.4241e-01    2.3870e+05 ;     C3 - O4    
     3     15   1    1.0984e-01    2.8620e+05 ;     C3 - H3    
     4      6   1    1.5428e-01    1.8728e+05 ;     C4 - C6    
     4      7   1    1.4300e-01    2.3412e+05 ;     C4 - O1    
     4     16   1    1.0984e-01    2.8620e+05 ;     C4 - H4    
     5      7   1    1.4300e-01    2.3412e+05 ;     C5 - O1    
     5     11   1    1.4241e-01    2.3870e+05 ;     C5 - O5    
     5     17   1    1.0985e-01    2.8609e+05 ;     C5 - H5    
     6     12   1    1.4242e-01    2.3861e+05 ;     C6 - O6    
     6     18   1    1.0969e-01    2.8804e+05 ;     C6 - H6    
     6     19   1    1.0969e-01    2.8804e+05 ;     C6 - H7    
     8     20   1    9.7250e-02    4.4811e+05 ;     O2 - H8    
     9     21   1    9.7250e-02    4.4811e+05 ;     O3 - H9    
    10     22   1    9.7250e-02    4.4811e+05 ;     O4 - H10   
    11     23   1    9.7250e-02    4.4811e+05 ;     O5 - H11   
    12     24   1    9.7250e-02    4.4811e+05 ;     O6 - H12   

[ pairs ]
;   ai     aj    funct
     1      6      1 ;     C1 - C6    
     1      7      1 ;     C1 - O1    
     1     11      1 ;     C1 - O5    
     1     16      1 ;     C1 - H4    
     1     17      1 ;     C1 - H5    
     1     21      1 ;     C1 - H9    
     1     22      1 ;     C1 - H10   
     2      5      1 ;     C2 - C5    
     2     10      1 ;     C2 - O4    
     2     12      1 ;     C2 - O6    
     2     15      1 ;     C2 - H3    
     2     18      1 ;     C2 - H6    
     2     19      1 ;     C2 - H7    
     2     20      1 ;     C2 - H8    
     3      4      1 ;     C3 - C4    
     3      9      1 ;     C3 - O3    
     3     14      1 ;     C3 - H2    
     3     20      1 ;     C3 - H8    
     3     23      1 ;     C3 - H11   
     4     11      1 ;     C4 - O5    
     4     17      1 ;     C4 - H5    
     4     21      1 ;     C4 - H9    
     4     24      1 ;     C4 - H12   
     5      6      1 ;     C5 - C6    
     5     16      1 ;     C5 - H4    
     5     22      1 ;     C5 - H10   
     6      9      1 ;     C6 - O3    
     6     14      1 ;     C6 - H2    
     7      9      1 ;     O1 - O3    
     7     10      1 ;     O1 - O4    
     7     12      1 ;     O1 - O6    
     7     14      1 ;     O1 - H2    
     7     15      1 ;     O1 - H3    
     7     18      1 ;     O1 - H6    
     7     19      1 ;     O1 - H7    
     7     23      1 ;     O1 - H11   
     8      4      1 ;     O2 - C4    
     8      5      1 ;     O2 - C5    
     8      9      1 ;     O2 - O3    
     8     10      1 ;     O2 - O4    
     8     14      1 ;     O2 - H2    
     8     15      1 ;     O2 - H3    
     9     16      1 ;     O3 - H4    
    10     11      1 ;     O4 - O5    
    10     17      1 ;     O4 - H5    
    11     15      1 ;     O5 - H3    
    12     16      1 ;     O6 - H4    
    13      4      1 ;     H1 - C4    
    13      5      1 ;     H1 - C5    
    13      9      1 ;     H1 - O3    
    13     10      1 ;     H1 - O4    
    13     14      1 ;     H1 - H2    
    13     15      1 ;     H1 - H3    
    13     20      1 ;     H1 - H8    
    14     16      1 ;     H2 - H4    
    14     21      1 ;     H2 - H9    
    15     17      1 ;     H3 - H5    
    15     22      1 ;     H3 - H10   
    16     18      1 ;     H4 - H6    
    16     19      1 ;     H4 - H7    
    17     23      1 ;     H5 - H11   
    18     24      1 ;     H6 - H12   
    19     24      1 ;     H7 - H12   

[ angles ]
;   ai     aj     ak    funct   theta         cth
     1      2      4      1    1.1106e+02    5.0359e+02 ;     C1 - C2     - C4    
     1      2      9      1    1.1005e+02    6.4065e+02 ;     C1 - C2     - O3    
     1      2     14      1    1.0918e+02    3.6217e+02 ;     C1 - C2     - H2    
     1      3      5      1    1.1106e+02    5.0359e+02 ;     C1 - C3     - C5    
     1      3     10      1    1.1005e+02    6.4065e+02 ;     C1 - C3     - O4    
     1      3     15      1    1.0918e+02    3.6217e+02 ;     C1 - C3     - H3    
     1      8     20      1    1.0707e+02    5.4584e+02 ;     C1 - O2     - H8    
     2      1      3      1    1.1106e+02    5.0359e+02 ;     C2 - C1     - C3    
     2      1      8      1    1.1005e+02    6.4065e+02 ;     C2 - C1     - O2    
     2      1     13      1    1.0918e+02    3.6217e+02 ;     C2 - C1     - H1    
     2      4      6      1    1.1143e+02    5.0200e+02 ;     C2 - C4     - C6    
     2      4      7      1    1.1009e+02    6.3948e+02 ;     C2 - C4     - O1    
     2      4     16      1    1.0918e+02    3.6217e+02 ;     C2 - C4     - H4    
     2      9     21      1    1.0707e+02    5.4584e+02 ;     C2 - O3     - H9    
     3      1      8      1    1.1005e+02    6.4065e+02 ;     C3 - C1     - O2    
     3      1     13      1    1.0918e+02    3.6217e+02 ;     C3 - C1     - H1    
     3      5      7      1    1.1009e+02    6.3948e+02 ;     C3 - C5     - O1    
     3      5     11      1    1.1005e+02    6.4065e+02 ;     C3 - C5     - O5    
     3      5     17      1    1.0998e+02    3.6083e+02 ;     C3 - C5     - H5    
     3     10     22      1    1.0707e+02    5.4584e+02 ;     C3 - O4     - H10   
     4      2      9      1    1.1005e+02    6.4065e+02 ;     C4 - C2     - O3    
     4      2     14      1    1.0918e+02    3.6217e+02 ;     C4 - C2     - H2    
     4      6     12      1    1.1145e+02    6.3555e+02 ;     C4 - C6     - O6    
     4      6     18      1    1.0913e+02    3.6141e+02 ;     C4 - C6     - H6    
     4      6     19      1    1.0913e+02    3.6141e+02 ;     C4 - C6     - H7    
     4      7      5      1    1.1330e+02    7.3873e+02 ;     C4 - O1     - C5    
     5      3     10      1    1.1005e+02    6.4065e+02 ;     C5 - C3     - O4    
     5      3     15      1    1.0918e+02    3.6217e+02 ;     C5 - C3     - H3    
     5     11     23      1    1.0707e+02    5.4584e+02 ;     C5 - O5     - H11   
     6      4      7      1    1.0683e+02    6.4810e+02 ;     C6 - C4     - O1    
     6      4     16      1    1.0855e+02    3.6233e+02 ;     C6 - C4     - H4    
     6     12     24      1    1.0739e+02    5.4501e+02 ;     C6 - O6     - H12   
     7      4     16      1    1.0808e+02    4.7430e+02 ;     O1 - C4     - H4    
     7      5     11      1    1.0868e+02    8.2090e+02 ;     O1 - C5     - O5    
     7      5     17      1    1.0944e+02    4.7137e+02 ;     O1 - C5     - H5    
     8      1     13      1    1.0996e+02    4.7187e+02 ;     O2 - C1     - H1    
     9      2     14      1    1.0996e+02    4.7187e+02 ;     O3 - C2     - H2    
    10      3     15      1    1.0996e+02    4.7187e+02 ;     O4 - C3     - H3    
    11      5     17      1    1.0971e+02    4.7237e+02 ;     O5 - C5     - H5    
    12      6     18      1    1.1038e+02    4.7103e+02 ;     O6 - C6     - H6    
    12      6     19      1    1.1038e+02    4.7103e+02 ;     O6 - C6     - H7    
    18      6     19      1    1.0855e+02    2.9824e+02 ;     H6 - C6     - H7    

[ dihedrals ] ; propers
; for gromacs 4.5 or higher, using funct 9
;    i      j      k      l   func   phase     kd      pn
     1      2      4      6      9     0.00   2.17568   3 ;     C1-    C2-    C4-    C6
     1      2      4      7      9     0.00   0.65084   3 ;     C1-    C2-    C4-    O1
     1      2      4     16      9     0.00   0.65084   3 ;     C1-    C2-    C4-    H4
     1      2      9     21      9     0.00   0.25104   3 ;     C1-    C2-    O3-    H9
     1      3      5      7      9     0.00   0.65084   3 ;     C1-    C3-    C5-    O1
     1      3      5     11      9     0.00   0.75312   3 ;     C1-    C3-    C5-    O5
     1      3      5     17      9     0.00   0.65084   3 ;     C1-    C3-    C5-    H5
     1      3     10     22      9     0.00   0.25104   3 ;     C1-    C3-    O4-   H10
     2      1      3      5      9     0.00   2.17568   3 ;     C2-    C1-    C3-    C5
     2      1      3     10      9     0.00   0.75312   3 ;     C2-    C1-    C3-    O4
     2      1      3     15      9     0.00   0.65084   3 ;     C2-    C1-    C3-    H3
     2      1      8     20      9     0.00   0.25104   3 ;     C2-    C1-    O2-    H8
     2      4      6     12      9     0.00   0.75312   3 ;     C2-    C4-    C6-    O6
     2      4      6     18      9     0.00   0.65084   3 ;     C2-    C4-    C6-    H6
     2      4      6     19      9     0.00   0.65084   3 ;     C2-    C4-    C6-    H7
     2      4      7      5      9     0.00   4.85344   3 ;     C2-    C4-    O1-    C5
     2      4      7      5      9     0.00   5.77392   2 ;     C2-    C4-    O1-    C5
     2      4      7      5      9   180.00   1.46440   1 ;     C2-    C4-    O1-    C5
     3      1      2      4      9     0.00   2.17568   3 ;     C3-    C1-    C2-    C4
     3      1      2      9      9     0.00   0.75312   3 ;     C3-    C1-    C2-    O3
     3      1      2     14      9     0.00   0.65084   3 ;     C3-    C1-    C2-    H2
     3      1      8     20      9     0.00   0.25104   3 ;     C3-    C1-    O2-    H8
     3      5      7      4      9     0.00   4.85344   3 ;     C3-    C5-    O1-    C4
     3      5      7      4      9     0.00   5.77392   2 ;     C3-    C5-    O1-    C4
     3      5      7      4      9   180.00   1.46440   1 ;     C3-    C5-    O1-    C4
     3      5     11     23      9     0.00   0.25104   3 ;     C3-    C5-    O5-   H11
     4      2      9     21      9     0.00   0.25104   3 ;     C4-    C2-    O3-    H9
     4      6     12     24      9     0.00   0.25104   3 ;     C4-    C6-    O6-   H12
     4      7      5     11      9     0.00   2.66381   3 ;     C4-    O1-    C5-    O5
     4      7      5     11      9     0.00   3.59824   2 ;     C4-    O1-    C5-    O5
     4      7      5     11      9   180.00   6.52704   1 ;     C4-    O1-    C5-    O5
     4      7      5     17      9     0.00   1.60387   3 ;     C4-    O1-    C5-    H5
     5      3     10     22      9     0.00   0.25104   3 ;     C5-    C3-    O4-   H10
     5      7      4      6      9     0.00   0.33472   2 ;     C5-    O1-    C4-    C6
     5      7      4      6      9     0.00   3.13800   3 ;     C5-    O1-    C4-    C6
     5      7      4      6      9   180.00   3.68192   1 ;     C5-    O1-    C4-    C6
     5      7      4     16      9     0.00   1.41001   3 ;     C5-    O1-    C4-    H4
     6      4      2      9      9     0.00   0.75312   3 ;     C6-    C4-    C2-    O3
     6      4      2     14      9     0.00   0.65084   3 ;     C6-    C4-    C2-    H2
     7      4      2      9      9     0.00   4.47688   3 ;     O1-    C4-    C2-    O3
     7      4      2      9      9   180.00   2.80328   1 ;     O1-    C4-    C2-    O3
     7      4      2      9      9   180.00   3.05432   2 ;     O1-    C4-    C2-    O3
     7      4      2     14      9     0.00   0.00000   0 ;     O1-    C4-    C2-    H2
     7      4      2     14      9     0.00   1.04600   1 ;     O1-    C4-    C2-    H2
     7      4      6     12      9     0.00   4.47688   3 ;     O1-    C4-    C6-    O6
     7      4      6     12      9   180.00   2.80328   1 ;     O1-    C4-    C6-    O6
     7      4      6     12      9   180.00   3.05432   2 ;     O1-    C4-    C6-    O6
     7      4      6     18      9     0.00   0.00000   0 ;     O1-    C4-    C6-    H6
     7      4      6     18      9     0.00   1.04600   1 ;     O1-    C4-    C6-    H6
     7      4      6     19      9     0.00   0.00000   0 ;     O1-    C4-    C6-    H7
     7      4      6     19      9     0.00   1.04600   1 ;     O1-    C4-    C6-    H7
     7      5      3     10      9     0.00   4.47688   3 ;     O1-    C5-    C3-    O4
     7      5      3     10      9   180.00   2.80328   1 ;     O1-    C5-    C3-    O4
     7      5      3     10      9   180.00   3.05432   2 ;     O1-    C5-    C3-    O4
     7      5      3     15      9     0.00   0.00000   0 ;     O1-    C5-    C3-    H3
     7      5      3     15      9     0.00   1.04600   1 ;     O1-    C5-    C3-    H3
     7      5     11     23      9     0.00   0.69733   3 ;     O1-    C5-    O5-   H11
     8      1      2      4      9     0.00   0.75312   3 ;     O2-    C1-    C2-    C4
     8      1      2      9      9     0.00   4.18400   1 ;     O2-    C1-    C2-    O3
     8      1      2      9      9     0.00   6.02496   3 ;     O2-    C1-    C2-    O3
     8      1      2     14      9     0.00   0.00000   0 ;     O2-    C1-    C2-    H2
     8      1      2     14      9     0.00   1.04600   1 ;     O2-    C1-    C2-    H2
     8      1      3      5      9     0.00   0.75312   3 ;     O2-    C1-    C3-    C5
     8      1      3     10      9     0.00   4.18400   1 ;     O2-    C1-    C3-    O4
     8      1      3     10      9     0.00   6.02496   3 ;     O2-    C1-    C3-    O4
     8      1      3     15      9     0.00   0.00000   0 ;     O2-    C1-    C3-    H3
     8      1      3     15      9     0.00   1.04600   1 ;     O2-    C1-    C3-    H3
     9      2      4     16      9     0.00   0.00000   0 ;     O3-    C2-    C4-    H4
     9      2      4     16      9     0.00   1.04600   1 ;     O3-    C2-    C4-    H4
    10      3      5     11      9     0.00   4.18400   1 ;     O4-    C3-    C5-    O5
    10      3      5     11      9     0.00   6.02496   3 ;     O4-    C3-    C5-    O5
    10      3      5     17      9     0.00   0.65084   3 ;     O4-    C3-    C5-    H5
    11      5      3     15      9     0.00   0.00000   0 ;     O5-    C5-    C3-    H3
    11      5      3     15      9     0.00   1.04600   1 ;     O5-    C5-    C3-    H3
    12      6      4     16      9     0.00   0.00000   0 ;     O6-    C6-    C4-    H4
    12      6      4     16      9     0.00   1.04600   1 ;     O6-    C6-    C4-    H4
    13      1      2      4      9     0.00   0.65084   3 ;     H1-    C1-    C2-    C4
    13      1      2      9      9     0.00   0.00000   0 ;     H1-    C1-    C2-    O3
    13      1      2      9      9     0.00   1.04600   1 ;     H1-    C1-    C2-    O3
    13      1      2     14      9     0.00   0.65084   3 ;     H1-    C1-    C2-    H2
    13      1      3      5      9     0.00   0.65084   3 ;     H1-    C1-    C3-    C5
    13      1      3     10      9     0.00   0.00000   0 ;     H1-    C1-    C3-    O4
    13      1      3     10      9     0.00   1.04600   1 ;     H1-    C1-    C3-    O4
    13      1      3     15      9     0.00   0.65084   3 ;     H1-    C1-    C3-    H3
    13      1      8     20      9     0.00   0.51463   3 ;     H1-    C1-    O2-    H8
    14      2      4     16      9     0.00   0.65084   3 ;     H2-    C2-    C4-    H4
    14      2      9     21      9     0.00   0.51463   3 ;     H2-    C2-    O3-    H9
    15      3      5     17      9     0.00   0.65084   3 ;     H3-    C3-    C5-    H5
    15      3     10     22      9     0.00   0.51463   3 ;     H3-    C3-    O4-   H10
    16      4      6     18      9     0.00   0.65084   3 ;     H4-    C4-    C6-    H6
    16      4      6     19      9     0.00   0.65084   3 ;     H4-    C4-    C6-    H7
    17      5     11     23      9     0.00   0.69733   3 ;     H5-    C5-    O5-   H11
    18      6     12     24      9     0.00   0.51463   3 ;     H6-    C6-    O6-   H12
    19      6     12     24      9     0.00   0.51463   3 ;     H7-    C6-    O6-   H12
