; mobley_9740891_GMX.itp created by acpype (v: 2023.10.27) on Thu May 14 14:01:22 2026

[ atomtypes ]
;name   bond_type     mass     charge   ptype   sigma         epsilon       Amb
 cg       cg          0.00000  0.00000   A     3.47896e-01   6.67766e-01 ; 1.95  0.1596
 ca       ca          0.00000  0.00000   A     3.31521e-01   4.13379e-01 ; 1.86  0.0988
 n1       n1          0.00000  0.00000   A     3.27352e-01   4.59403e-01 ; 1.84  0.1098
 cl       cl          0.00000  0.00000   A     3.46595e-01   1.10374e+00 ; 1.95  0.2638
 ha       ha          0.00000  0.00000   A     2.62548e-01   6.73624e-02 ; 1.47  0.0161

[ moleculetype ]
;name            nrexcl
 mobley_9740891   3

[ atoms ]
;   nr  type  resi  res  atom  cgnr     charge      mass       ; qtot   bond_type
     1   cg     1   MOL    C1    1     0.231800     12.01000 ; qtot 0.232
     2   ca     1   MOL    C2    2    -0.092000     12.01000 ; qtot 0.140
     3   ca     1   MOL    C3    3    -0.132000     12.01000 ; qtot 0.008
     4   ca     1   MOL    C4    4    -0.132000     12.01000 ; qtot -0.124
     5   ca     1   MOL    C5    5    -0.005000     12.01000 ; qtot -0.129
     6   ca     1   MOL    C6    6     0.054400     12.01000 ; qtot -0.075
     7   ca     1   MOL    C7    7     0.054400     12.01000 ; qtot -0.020
     8   n1     1   MOL    N1    8    -0.331800     14.01000 ; qtot -0.352
     9   cl     1   MOL   CL1    9    -0.056400     35.45000 ; qtot -0.409
    10   cl     1   MOL   CL2   10    -0.056400     35.45000 ; qtot -0.465
    11   ha     1   MOL    H1   11     0.149000      1.00800 ; qtot -0.316
    12   ha     1   MOL    H2   12     0.158000      1.00800 ; qtot -0.158
    13   ha     1   MOL    H3   13     0.158000      1.00800 ; qtot -0.000

[ bonds ]
;   ai     aj funct   r             k
     1      5   1    1.4318e-01    2.6561e+05 ;     C1 - C5    
     1      8   1    1.1643e-01    6.2260e+05 ;     C1 - N1    
     2      3   1    1.3986e-01    2.9644e+05 ;     C2 - C3    
     2      4   1    1.3986e-01    2.9644e+05 ;     C2 - C4    
     2     11   1    1.0860e-01    3.0183e+05 ;     C2 - H1    
     3      6   1    1.3986e-01    2.9644e+05 ;     C3 - C6    
     3     12   1    1.0860e-01    3.0183e+05 ;     C3 - H2    
     4      7   1    1.3986e-01    2.9644e+05 ;     C4 - C7    
     4     13   1    1.0860e-01    3.0183e+05 ;     C4 - H3    
     5      6   1    1.3986e-01    2.9644e+05 ;     C5 - C6    
     5      7   1    1.3986e-01    2.9644e+05 ;     C5 - C7    
     6      9   1    1.7572e-01    1.5730e+05 ;     C6 - CL1   
     7     10   1    1.7572e-01    1.5730e+05 ;     C7 - CL2   

[ pairs ]
;   ai     aj    funct
     1      3      1 ;     C1 - C3    
     1      4      1 ;     C1 - C4    
     1      9      1 ;     C1 - CL1   
     1     10      1 ;     C1 - CL2   
     2      5      1 ;     C2 - C5    
     2      9      1 ;     C2 - CL1   
     2     10      1 ;     C2 - CL2   
     3      7      1 ;     C3 - C7    
     3     13      1 ;     C3 - H3    
     4      6      1 ;     C4 - C6    
     4     12      1 ;     C4 - H2    
     5     12      1 ;     C5 - H2    
     5     13      1 ;     C5 - H3    
     6     10      1 ;     C6 - CL2   
     6     11      1 ;     C6 - H1    
     7      9      1 ;     C7 - CL1   
     7     11      1 ;     C7 - H1    
     8      6      1 ;     N1 - C6    
     8      7      1 ;     N1 - C7    
     9     12      1 ;    CL1 - H2    
    10     13      1 ;    CL2 - H3    
    11     12      1 ;     H1 - H2    
    11     13      1 ;     H1 - H3    

[ angles ]
;   ai     aj     ak    funct   theta         cth
     1      5      6      1    1.2025e+02    5.2593e+02 ;     C1 - C5     - C6    
     1      5      7      1    1.2025e+02    5.2593e+02 ;     C1 - C5     - C7    
     2      3      6      1    1.2002e+02    5.3279e+02 ;     C2 - C3     - C6    
     2      3     12      1    1.1988e+02    3.7572e+02 ;     C2 - C3     - H2    
     2      4      7      1    1.2002e+02    5.3279e+02 ;     C2 - C4     - C7    
     2      4     13      1    1.1988e+02    3.7572e+02 ;     C2 - C4     - H3    
     3      2      4      1    1.2002e+02    5.3279e+02 ;     C3 - C2     - C4    
     3      2     11      1    1.1988e+02    3.7572e+02 ;     C3 - C2     - H1    
     3      6      5      1    1.2002e+02    5.3279e+02 ;     C3 - C6     - C5    
     3      6      9      1    1.1938e+02    5.3605e+02 ;     C3 - C6     - CL1   
     4      2     11      1    1.1988e+02    3.7572e+02 ;     C4 - C2     - H1    
     4      7      5      1    1.2002e+02    5.3279e+02 ;     C4 - C7     - C5    
     4      7     10      1    1.1938e+02    5.3605e+02 ;     C4 - C7     - CL2   
     5      1      8      1    1.7952e+02    4.8785e+02 ;     C5 - C1     - N1    
     5      6      9      1    1.1938e+02    5.3605e+02 ;     C5 - C6     - CL1   
     5      7     10      1    1.1938e+02    5.3605e+02 ;     C5 - C7     - CL2   
     6      3     12      1    1.1988e+02    3.7572e+02 ;     C6 - C3     - H2    
     6      5      7      1    1.2002e+02    5.3279e+02 ;     C6 - C5     - C7    
     7      4     13      1    1.1988e+02    3.7572e+02 ;     C7 - C4     - H3    

[ dihedrals ] ; propers
; for gromacs 4.5 or higher, using funct 9
;    i      j      k      l   func   phase     kd      pn
     1      5      6      3      9   180.00  15.16700   2 ;     C1-    C5-    C6-    C3
     1      5      6      9      9   180.00  15.16700   2 ;     C1-    C5-    C6-   CL1
     1      5      7      4      9   180.00  15.16700   2 ;     C1-    C5-    C7-    C4
     1      5      7     10      9   180.00  15.16700   2 ;     C1-    C5-    C7-   CL2
     2      3      6      5      9   180.00  15.16700   2 ;     C2-    C3-    C6-    C5
     2      3      6      9      9   180.00  15.16700   2 ;     C2-    C3-    C6-   CL1
     2      4      7      5      9   180.00  15.16700   2 ;     C2-    C4-    C7-    C5
     2      4      7     10      9   180.00  15.16700   2 ;     C2-    C4-    C7-   CL2
     3      2      4      7      9   180.00  15.16700   2 ;     C3-    C2-    C4-    C7
     3      2      4     13      9   180.00  15.16700   2 ;     C3-    C2-    C4-    H3
     3      6      5      7      9   180.00  15.16700   2 ;     C3-    C6-    C5-    C7
     4      2      3      6      9   180.00  15.16700   2 ;     C4-    C2-    C3-    C6
     4      2      3     12      9   180.00  15.16700   2 ;     C4-    C2-    C3-    H2
     4      7      5      6      9   180.00  15.16700   2 ;     C4-    C7-    C5-    C6
     5      6      3     12      9   180.00  15.16700   2 ;     C5-    C6-    C3-    H2
     5      7      4     13      9   180.00  15.16700   2 ;     C5-    C7-    C4-    H3
     6      3      2     11      9   180.00  15.16700   2 ;     C6-    C3-    C2-    H1
     6      5      7     10      9   180.00  15.16700   2 ;     C6-    C5-    C7-   CL2
     7      4      2     11      9   180.00  15.16700   2 ;     C7-    C4-    C2-    H1
     7      5      6      9      9   180.00  15.16700   2 ;     C7-    C5-    C6-   CL1
     8      1      5      6      9   180.00   0.00000   2 ;     N1-    C1-    C5-    C6
     8      1      5      7      9   180.00   0.00000   2 ;     N1-    C1-    C5-    C7
     9      6      3     12      9   180.00  15.16700   2 ;    CL1-    C6-    C3-    H2
    10      7      4     13      9   180.00  15.16700   2 ;    CL2-    C7-    C4-    H3
    11      2      3     12      9   180.00  15.16700   2 ;     H1-    C2-    C3-    H2
    11      2      4     13      9   180.00  15.16700   2 ;     H1-    C2-    C4-    H3

[ dihedrals ] ; impropers
; treated as propers in GROMACS to use correct AMBER analytical function
;    i      j      k      l   func   phase     kd      pn
     1      5      7      6      4   180.00   4.60240   2 ;     C1-    C5-    C7-    C6
     2      6      3     12      4   180.00   4.60240   2 ;     C2-    C6-    C3-    H2
     2      7      4     13      4   180.00   4.60240   2 ;     C2-    C7-    C4-    H3
     3      4      2     11      4   180.00   4.60240   2 ;     C3-    C4-    C2-    H1
     3      5      6      9      4   180.00   4.60240   2 ;     C3-    C5-    C6-   CL1
     4      5      7     10      4   180.00   4.60240   2 ;     C4-    C5-    C7-   CL2
