mobley_1396156_GMX.gro created by acpype (v: 2023.10.27) on Thu May 14 13:49:05 2026
 1817
    1MOL     C1    1   1.336   1.334   1.240
    1MOL     C2    2   1.228   1.392   1.307
    1MOL     C3    3   1.439   1.275   1.312
    1MOL     C4    4   1.223   1.390   1.447
    1MOL     C5    5   1.435   1.273   1.451
    1MOL     C6    6   1.327   1.330   1.519
    1MOL     N1    7   1.340   1.337   1.097
    1MOL     O1    8   1.289   1.241   1.034
    1MOL     O2    9   1.395   1.433   1.040
    1MOL    CL1   10   1.099   1.466   1.215
    1MOL    CL2   11   1.573   1.204   1.226
    1MOL    CL3   12   1.088   1.461   1.530
    1MOL    CL4   13   1.564   1.198   1.541
    1MOL    CL5   14   1.322   1.328   1.693
    2SOL     OW   15   0.230   0.628   0.113
    2SOL    HW1   16   0.137   0.626   0.150
    2SOL    HW2   17   0.231   0.589   0.021
    3SOL     OW   18   0.225   0.275   0.996
    3SOL    HW1   19   0.260   0.258   1.088
    3SOL    HW2   20   0.137   0.230   0.984
    4SOL     OW   21   0.019   0.368   0.647
    4SOL    HW1   22  -0.063   0.411   0.686
    4SOL    HW2   23  -0.009   0.295   0.584
    5SOL     OW   24   0.569   1.275   1.165
    5SOL    HW1   25   0.476   1.268   1.128
    5SOL    HW2   26   0.580   1.364   1.209
    6SOL     OW   27   1.555   1.511   0.703
    6SOL    HW1   28   1.498   1.495   0.784
    6SOL    HW2   29   1.496   1.521   0.623
    7SOL     OW   30   1.135   0.703   0.717
    7SOL    HW1   31   1.192   0.781   0.692
    7SOL    HW2   32   1.075   0.729   0.793
    8SOL     OW   33   1.755   0.607   0.231
    8SOL    HW1   34   1.743   0.594   0.132
    8SOL    HW2   35   1.725   0.526   0.280
    9SOL     OW   36   0.768   1.144   1.023
    9SOL    HW1   37   0.690   1.161   1.083
    9SOL    HW2   38   0.802   1.231   0.987
   10SOL     OW   39   0.850   0.798   1.823
   10SOL    HW1   40   0.846   0.874   1.888
   10SOL    HW2   41   0.872   0.834   1.732
   11SOL     OW   42   0.685   1.012   0.665
   11SOL    HW1   43   0.754   0.996   0.735
   11SOL    HW2   44   0.612   1.069   0.703
   12SOL     OW   45   0.686   1.161   1.803
   12SOL    HW1   46   0.746   1.240   1.817
   12SOL    HW2   47   0.600   1.192   1.762
   13SOL     OW   48   0.335   1.435   1.061
   13SOL    HW1   49   0.257   1.404   1.008
   13SOL    HW2   50   0.393   1.493   1.004
   14SOL     OW   51   1.460   1.505   1.339
   14SOL    HW1   52   1.484   1.599   1.365
   14SOL    HW2   53   1.444   1.451   1.421
   15SOL     OW   54   0.438   0.392   1.499
   15SOL    HW1   55   0.520   0.336   1.508
   15SOL    HW2   56   0.357   0.334   1.503
   16SOL     OW   57   1.603   0.447   0.737
   16SOL    HW1   58   1.529   0.493   0.687
   16SOL    HW2   59   1.654   0.515   0.790
   17SOL     OW   60   0.231   1.713   0.483
   17SOL    HW1   61   0.265   1.790   0.537
   17SOL    HW2   62   0.275   1.713   0.393
   18SOL     OW   63   1.127   1.341   1.690
   18SOL    HW1   64   1.174   1.341   1.778
   18SOL    HW2   65   1.079   1.254   1.679
   19SOL     OW   66   0.230   1.434   0.538
   19SOL    HW1   67   0.204   1.530   0.538
   19SOL    HW2   68   0.159   1.380   0.583
   20SOL     OW   69   0.240   1.091   0.886
   20SOL    HW1   70   0.254   1.007   0.938
   20SOL    HW2   71   0.185   1.155   0.941
   21SOL     OW   72   0.620   1.786   1.439
   21SOL    HW1   73   0.528   1.769   1.474
   21SOL    HW2   74   0.648   1.878   1.465
   22SOL     OW   75   0.606   0.964   0.123
   22SOL    HW1   76   0.613   1.048   0.069
   22SOL    HW2   77   0.652   0.977   0.211
   23SOL     OW   78   1.594   0.114   1.480
   23SOL    HW1   79   1.576   0.181   1.408
   23SOL    HW2   80   1.591   0.160   1.569
   24SOL     OW   81   0.122   0.643   0.563
   24SOL    HW1   82   0.077   0.555   0.580
   24SOL    HW2   83   0.121   0.697   0.647
   25SOL     OW   84   1.842   1.767   0.359
   25SOL    HW1   85   1.896   1.738   0.439
   25SOL    HW2   86   1.872   1.857   0.330
   26SOL     OW   87   0.027   1.596   0.117
   26SOL    HW1   88   0.008   1.500   0.138
   26SOL    HW2   89  -0.006   1.654   0.192
   27SOL     OW   90   1.689   0.922   0.612
   27SOL    HW1   91   1.784   0.893   0.620
   27SOL    HW2   92   1.681   0.987   0.537
   28SOL     OW   93   1.641   1.108   0.432
   28SOL    HW1   94   1.727   1.110   0.380
   28SOL    HW2   95   1.655   1.155   0.520
   29SOL     OW   96   0.113   0.737   1.597
   29SOL    HW1   97   0.201   0.724   1.642
   29SOL    HW2   98   0.100   0.834   1.575
   30SOL     OW   99   0.613   1.365   0.726
   30SOL    HW1  100   0.564   1.278   0.735
   30SOL    HW2  101   0.590   1.408   0.639
   31SOL     OW  102   0.809   0.004   0.502
   31SOL    HW1  103   0.849   0.095   0.493
   31SOL    HW2  104   0.709   0.012   0.508
   32SOL     OW  105   0.197   0.976   1.264
   32SOL    HW1  106   0.286   0.931   1.250
   32SOL    HW2  107   0.124   0.911   1.245
   33SOL     OW  108   1.525   0.999   0.190
   33SOL    HW1  109   1.462   0.923   0.203
   33SOL    HW2  110   1.573   1.017   0.276
   34SOL     OW  111   1.187   1.792   1.616
   34SOL    HW1  112   1.211   1.852   1.540
   34SOL    HW2  113   1.194   1.697   1.586
   35SOL     OW  114   0.317   0.251   1.801
   35SOL    HW1  115   0.388   0.322   1.807
   35SOL    HW2  116   0.229   0.290   1.829
   36SOL     OW  117   1.667   1.714   0.572
   36SOL    HW1  118   1.626   1.691   0.484
   36SOL    HW2  119   1.649   1.640   0.637
   37SOL     OW  120   0.598   0.729   0.270
   37SOL    HW1  121   0.622   0.798   0.202
   37SOL    HW2  122   0.520   0.762   0.324
   38SOL     OW  123   1.281   0.345   0.944
   38SOL    HW1  124   1.195   0.295   0.931
   38SOL    HW2  125   1.343   0.291   1.000
   39SOL     OW  126   1.576   1.662   0.307
   39SOL    HW1  127   1.665   1.708   0.310
   39SOL    HW2  128   1.555   1.638   0.212
   40SOL     OW  129   0.807   0.605   1.465
   40SOL    HW1  130   0.760   0.602   1.554
   40SOL    HW2  131   0.756   0.550   1.399
   41SOL     OW  132   1.394   0.469   1.674
   41SOL    HW1  133   1.374   0.512   1.762
   41SOL    HW2  134   1.472   0.407   1.683
   42SOL     OW  135   0.973   0.890   1.572
   42SOL    HW1  136   1.019   0.806   1.543
   42SOL    HW2  137   0.917   0.924   1.497
   43SOL     OW  138   0.991   0.410   1.242
   43SOL    HW1  139   0.914   0.444   1.296
   43SOL    HW2  140   0.957   0.359   1.163
   44SOL     OW  141   1.041   0.701   0.429
   44SOL    HW1  142   1.067   0.697   0.525
   44SOL    HW2  143   0.956   0.650   0.415
   45SOL     OW  144   0.076   0.811   0.789
   45SOL    HW1  145   0.175   0.799   0.798
   45SOL    HW2  146   0.052   0.906   0.810
   46SOL     OW  147   0.130   1.821   1.571
   46SOL    HW1  148   0.120   1.806   1.670
   46SOL    HW2  149   0.044   1.857   1.535
   47SOL     OW  150   0.865   0.348   0.195
   47SOL    HW1  151   0.924   0.411   0.146
   47SOL    HW2  152   0.884   0.254   0.166
   48SOL     OW  153   1.719   0.585   1.831
   48SOL    HW1  154   1.693   0.674   1.795
   48SOL    HW2  155   1.717   0.517   1.758
   49SOL     OW  156   1.362   1.144   0.545
   49SOL    HW1  157   1.445   1.115   0.497
   49SOL    HW2  158   1.313   1.211   0.489
   50SOL     OW  159   0.550   0.196   0.885
   50SOL    HW1  160   0.545   0.191   0.985
   50SOL    HW2  161   0.552   0.292   0.856
   51SOL     OW  162   1.008   1.456   0.477
   51SOL    HW1  163   0.962   1.528   0.425
   51SOL    HW2  164   1.004   1.476   0.575
   52SOL     OW  165   0.351   1.801   0.853
   52SOL    HW1  166   0.401   1.715   0.859
   52SOL    HW2  167   0.416   1.878   0.850
   53SOL     OW  168   1.795   1.066   0.873
   53SOL    HW1  169   1.733   1.051   0.797
   53SOL    HW2  170   1.743   1.077   0.958
   54SOL     OW  171   0.321   0.943   0.242
   54SOL    HW1  172   0.403   0.982   0.200
   54SOL    HW2  173   0.294   0.861   0.193
   55SOL     OW  174   1.458   0.735   0.728
   55SOL    HW1  175   1.453   0.670   0.803
   55SOL    HW2  176   1.538   0.794   0.741
   56SOL     OW  177   0.461   1.266   1.727
   56SOL    HW1  178   0.411   1.267   1.641
   56SOL    HW2  179   0.398   1.248   1.803
   57SOL     OW  180   1.111   1.776   0.237
   57SOL    HW1  181   1.051   1.714   0.287
   57SOL    HW2  182   1.142   1.732   0.152
   58SOL     OW  183   0.202   0.285   1.498
   58SOL    HW1  184   0.122   0.345   1.485
   58SOL    HW2  185   0.192   0.236   1.584
   59SOL     OW  186   1.632   1.377   0.081
   59SOL    HW1  187   1.600   1.471   0.071
   59SOL    HW2  188   1.556   1.314   0.069
   60SOL     OW  189   0.464   1.743   0.323
   60SOL    HW1  190   0.497   1.782   0.409
   60SOL    HW2  191   0.540   1.736   0.258
   61SOL     OW  192   1.400   0.107   0.426
   61SOL    HW1  193   1.376   0.070   0.336
   61SOL    HW2  194   1.499   0.123   0.430
   62SOL     OW  195   0.249   1.785   1.241
   62SOL    HW1  196   0.306   1.720   1.291
   62SOL    HW2  197   0.233   1.752   1.148
   63SOL     OW  198   0.940   1.698   0.904
   63SOL    HW1  199   1.020   1.641   0.925
   63SOL    HW2  200   0.891   1.658   0.827
   64SOL     OW  201   0.382   0.700   0.480
   64SOL    HW1  202   0.427   0.610   0.477
   64SOL    HW2  203   0.288   0.689   0.513
   65SOL     OW  204   1.547   0.222   1.729
   65SOL    HW1  205   1.542   0.259   1.821
   65SOL    HW2  206   1.475   0.153   1.717
   66SOL     OW  207   0.614   0.122   0.117
   66SOL    HW1  208   0.712   0.100   0.124
   66SOL    HW2  209   0.583   0.105   0.024
   67SOL     OW  210   0.781   0.264   1.749
   67SOL    HW1  211   0.848   0.203   1.792
   67SOL    HW2  212   0.708   0.283   1.814
   68SOL     OW  213   1.351   0.590   1.433
   68SOL    HW1  214   1.379   0.547   1.518
   68SOL    HW2  215   1.376   0.686   1.434
   69SOL     OW  216   0.803   1.402   0.924
   69SOL    HW1  217   0.893   1.416   0.882
   69SOL    HW2  218   0.732   1.404   0.853
   70SOL     OW  219   0.922   0.503   0.899
   70SOL    HW1  220   0.897   0.494   0.803
   70SOL    HW2  221   0.970   0.421   0.930
   71SOL     OW  222   0.539   0.064   0.512
   71SOL    HW1  223   0.458   0.065   0.570
   71SOL    HW2  224   0.542   0.147   0.457
   72SOL     OW  225   1.434   1.188   0.041
   72SOL    HW1  226   1.466   1.112   0.098
   72SOL    HW2  227   1.342   1.215   0.071
   73SOL     OW  228   0.297   0.035   0.171
   73SOL    HW1  229   0.346   0.119   0.150
   73SOL    HW2  230   0.359  -0.030   0.216
   74SOL     OW  231   0.935   0.236   0.480
   74SOL    HW1  232   0.887   0.277   0.402
   74SOL    HW2  233   1.034   0.234   0.461
   75SOL     OW  234   1.076   0.683   1.464
   75SOL    HW1  235   0.996   0.622   1.467
   75SOL    HW2  236   1.157   0.630   1.440
   76SOL     OW  237   1.227   1.570   0.793
   76SOL    HW1  238   1.248   1.644   0.728
   76SOL    HW2  239   1.295   1.570   0.866
   77SOL     OW  240   0.459   1.152   0.741
   77SOL    HW1  241   0.388   1.125   0.806
   77SOL    HW2  242   0.433   1.124   0.648
   78SOL     OW  243   1.271   1.797   0.591
   78SOL    HW1  244   1.315   1.861   0.527
   78SOL    HW2  245   1.221   1.849   0.661
   79SOL     OW  246   1.032   0.549   0.016
   79SOL    HW1  247   0.991   0.631  -0.023
   79SOL    HW2  248   1.096   0.575   0.089
   80SOL     OW  249   0.078   0.556   1.386
   80SOL    HW1  250   0.170   0.555   1.345
   80SOL    HW2  251   0.072   0.630   1.453
   81SOL     OW  252   0.561   0.222   1.147
   81SOL    HW1  253   0.599   0.138   1.184
   81SOL    HW2  254   0.473   0.241   1.191
   82SOL     OW  255   0.866   0.454   0.642
   82SOL    HW1  256   0.834   0.526   0.580
   82SOL    HW2  257   0.890   0.373   0.589
   83SOL     OW  258   1.017   0.039   0.753
   83SOL    HW1  259   0.945   0.044   0.684
   83SOL    HW2  260   0.993  -0.030   0.822
   84SOL     OW  261   1.429   1.173   0.867
   84SOL    HW1  262   1.374   1.089   0.860
   84SOL    HW2  263   1.455   1.202   0.775
   85SOL     OW  264   1.466   0.590   0.992
   85SOL    HW1  265   1.436   0.495   0.999
   85SOL    HW2  266   1.539   0.606   1.058
   86SOL     OW  267   1.857   0.833   0.377
   86SOL    HW1  268   1.899   0.769   0.441
   86SOL    HW2  269   1.819   0.782   0.299
   87SOL     OW  270   0.488   1.385   0.174
   87SOL    HW1  271   0.401   1.370   0.221
   87SOL    HW2  272   0.471   1.411   0.079
   88SOL     OW  273   1.664   1.280   0.657
   88SOL    HW1  274   1.763   1.288   0.671
   88SOL    HW2  275   1.619   1.364   0.688
   89SOL     OW  276   1.390   0.575   0.078
   89SOL    HW1  277   1.336   0.554   0.159
   89SOL    HW2  278   1.481   0.534   0.087
   90SOL     OW  279   0.527   0.256   0.328
   90SOL    HW1  280   0.554   0.197   0.253
   90SOL    HW2  281   0.527   0.351   0.297
   91SOL     OW  282   1.754   1.223   1.588
   91SOL    HW1  283   1.845   1.184   1.575
   91SOL    HW2  284   1.762   1.319   1.612
   92SOL     OW  285   1.592   1.629   1.625
   92SOL    HW1  286   1.619   1.663   1.535
   92SOL    HW2  287   1.671   1.591   1.671
   93SOL     OW  288   1.111   1.195   1.100
   93SOL    HW1  289   1.071   1.239   1.181
   93SOL    HW2  290   1.070   1.232   1.017
   94SOL     OW  291   0.915   0.089   1.402
   94SOL    HW1  292   0.940   0.069   1.307
   94SOL    HW2  293   0.987   0.145   1.444
   95SOL     OW  294   0.980   1.116   1.719
   95SOL    HW1  295   0.881   1.122   1.729
   95SOL    HW2  296   1.003   1.036   1.663
   96SOL     OW  297   0.705   1.050   0.368
   96SOL    HW1  298   0.691   1.057   0.467
   96SOL    HW2  299   0.789   0.999   0.350
   97SOL     OW  300   0.410   0.813   1.251
   97SOL    HW1  301   0.496   0.825   1.301
   97SOL    HW2  302   0.368   0.726   1.278
   98SOL     OW  303   1.274   0.386   1.262
   98SOL    HW1  304   1.295   0.460   1.326
   98SOL    HW2  305   1.185   0.403   1.219
   99SOL     OW  306   0.064   1.564   1.331
   99SOL    HW1  307   0.018   1.646   1.297
   99SOL    HW2  308   0.162   1.583   1.340
  100SOL     OW  309   0.367   1.100   0.501
  100SOL    HW1  310   0.360   1.183   0.445
  100SOL    HW2  311   0.371   1.020   0.441
  101SOL     OW  312   0.566   0.537   0.865
  101SOL    HW1  313   0.578   0.603   0.791
  101SOL    HW2  314   0.612   0.571   0.948
  102SOL     OW  315   1.252   1.348   0.388
  102SOL    HW1  316   1.302   1.425   0.428
  102SOL    HW2  317   1.157   1.350   0.420
  103SOL     OW  318   1.582   0.639   0.472
  103SOL    HW1  319   1.551   0.700   0.545
  103SOL    HW2  320   1.632   0.691   0.403
  104SOL     OW  321   0.354   1.510   1.329
  104SOL    HW1  322   0.333   1.466   1.242
  104SOL    HW2  323   0.451   1.536   1.332
  105SOL     OW  324   0.402   0.751   1.598
  105SOL    HW1  325   0.470   0.806   1.551
  105SOL    HW2  326   0.442   0.663   1.625
  106SOL     OW  327   1.587   0.779   1.670
  106SOL    HW1  328   1.495   0.817   1.665
  106SOL    HW2  329   1.647   0.826   1.605
  107SOL     OW  330   1.013   0.105   1.770
  107SOL    HW1  331   1.019   0.190   1.718
  107SOL    HW2  332   1.045   0.029   1.713
  108SOL     OW  333   0.504   0.050   1.740
  108SOL    HW1  334   0.462  -0.007   1.670
  108SOL    HW2  335   0.438   0.119   1.772
  109SOL     OW  336   0.573   0.870   1.029
  109SOL    HW1  337   0.617   0.959   1.020
  109SOL    HW2  338   0.510   0.870   1.106
  110SOL     OW  339   1.360   0.862   1.045
  110SOL    HW1  340   1.285   0.862   0.979
  110SOL    HW2  341   1.397   0.770   1.054
  111SOL     OW  342   1.209   0.525   0.275
  111SOL    HW1  343   1.222   0.441   0.329
  111SOL    HW2  344   1.180   0.599   0.335
  112SOL     OW  345   0.307   0.213   1.231
  112SOL    HW1  346   0.284   0.250   1.321
  112SOL    HW2  347   0.277   0.118   1.225
  113SOL     OW  348   0.037   1.310   1.282
  113SOL    HW1  349   0.090   1.261   1.350
  113SOL    HW2  350   0.059   1.408   1.287
  114SOL     OW  351   0.732   0.634   1.064
  114SOL    HW1  352   0.791   0.608   0.988
  114SOL    HW2  353   0.704   0.730   1.053
  115SOL     OW  354   1.728   0.935   1.854
  115SOL    HW1  355   1.682   0.928   1.765
  115SOL    HW2  356   1.666   0.979   1.920
  116SOL     OW  357   0.307   0.063   0.618
  116SOL    HW1  358   0.296   0.157   0.651
  116SOL    HW2  359   0.302   0.000   0.695
  117SOL     OW  360   1.622   0.367   0.374
  117SOL    HW1  361   1.624   0.291   0.438
  117SOL    HW2  362   1.574   0.444   0.414
  118SOL     OW  363   1.023   0.766   0.966
  118SOL    HW1  364   1.038   0.787   1.062
  118SOL    HW2  365   0.993   0.671   0.957
  119SOL     OW  366   0.980   1.573   1.700
  119SOL    HW1  367   0.960   1.617   1.612
  119SOL    HW2  368   1.019   1.482   1.684
  120SOL     OW  369   1.859   1.518   1.605
  120SOL    HW1  370   1.873   1.545   1.510
  120SOL    HW2  371   1.942   1.540   1.658
  121SOL     OW  372   0.350   0.898   1.804
  121SOL    HW1  373   0.426   0.942   1.852
  121SOL    HW2  374   0.385   0.851   1.722
  122SOL     OW  375   1.540   0.274   0.125
  122SOL    HW1  376   1.479   0.199   0.148
  122SOL    HW2  377   1.562   0.326   0.208
  123SOL     OW  378   1.303   0.838   0.042
  123SOL    HW1  379   1.337   0.745   0.057
  123SOL    HW2  380   1.321   0.865  -0.053
  124SOL     OW  381   1.068   1.333   0.849
  124SOL    HW1  382   1.075   1.249   0.794
  124SOL    HW2  383   1.130   1.402   0.813
  125SOL     OW  384   0.319   0.810   0.949
  125SOL    HW1  385   0.412   0.846   0.954
  125SOL    HW2  386   0.313   0.725   1.001
  126SOL     OW  387   0.339   0.509   1.006
  126SOL    HW1  388   0.287   0.426   0.989
  126SOL    HW2  389   0.416   0.514   0.942
  127SOL     OW  390   1.138   0.380   1.678
  127SOL    HW1  391   1.093   0.443   1.742
  127SOL    HW2  392   1.231   0.411   1.661
  128SOL     OW  393   1.160   0.207   1.477
  128SOL    HW1  394   1.160   0.271   1.554
  128SOL    HW2  395   1.188   0.255   1.394
  129SOL     OW  396   0.008   1.326   0.200
  129SOL    HW1  397  -0.085   1.347   0.169
  129SOL    HW2  398   0.018   1.227   0.213
  130SOL     OW  399   0.088   1.801   0.927
  130SOL    HW1  400   0.046   1.715   0.900
  130SOL    HW2  401   0.182   1.804   0.893
  131SOL     OW  402   0.504   1.568   0.910
  131SOL    HW1  403   0.570   1.642   0.919
  131SOL    HW2  404   0.548   1.489   0.868
  132SOL     OW  405   1.002   0.796   1.238
  132SOL    HW1  406   1.043   0.764   1.324
  132SOL    HW2  407   0.906   0.769   1.235
  133SOL     OW  408   0.040   0.544   1.114
  133SOL    HW1  409   0.125   0.511   1.073
  133SOL    HW2  410   0.053   0.559   1.212
  134SOL     OW  411   0.189   0.520   1.722
  134SOL    HW1  412   0.248   0.480   1.652
  134SOL    HW2  413   0.131   0.591   1.681
  135SOL     OW  414   1.369   0.950   1.660
  135SOL    HW1  415   1.408   1.039   1.680
  135SOL    HW2  416   1.379   0.930   1.563
  136SOL     OW  417   0.815   0.572   0.325
  136SOL    HW1  418   0.822   0.483   0.279
  136SOL    HW2  419   0.721   0.606   0.317
  137SOL     OW  420   1.657   0.604   1.206
  137SOL    HW1  421   1.619   0.535   1.268
  137SOL    HW2  422   1.739   0.568   1.162
  138SOL     OW  423   0.252   1.564   1.744
  138SOL    HW1  424   0.222   1.621   1.820
  138SOL    HW2  425   0.245   1.467   1.770
  139SOL     OW  426   0.671   0.464   1.269
  139SOL    HW1  427   0.637   0.375   1.239
  139SOL    HW2  428   0.697   0.518   1.189
  140SOL     OW  429   0.930   1.678   1.465
  140SOL    HW1  430   0.906   1.660   1.370
  140SOL    HW2  431   0.960   1.772   1.475
  141SOL     OW  432   0.473   0.500   0.191
  141SOL    HW1  433   0.534   0.580   0.195
  141SOL    HW2  434   0.378   0.531   0.198
  142SOL     OW  435   0.159   1.137   1.466
  142SOL    HW1  436   0.181   1.076   1.542
  142SOL    HW2  437   0.169   1.088   1.380
  143SOL     OW  438   1.347   1.059   1.234
  143SOL    HW1  439   1.371   0.996   1.160
  143SOL    HW2  440   1.257   1.099   1.216
  144SOL     OW  441   1.302   0.855   0.309
  144SOL    HW1  442   1.216   0.824   0.351
  144SOL    HW2  443   1.298   0.841   0.210
  145SOL     OW  444   1.759   1.747   1.154
  145SOL    HW1  445   1.820   1.777   1.081
  145SOL    HW2  446   1.721   1.658   1.132
  146SOL     OW  447   1.252   1.731   1.128
  146SOL    HW1  448   1.336   1.736   1.074
  146SOL    HW2  449   1.229   1.635   1.146
  147SOL     OW  450   0.083   1.258   1.022
  147SOL    HW1  451   0.078   1.257   1.122
  147SOL    HW2  452   0.000   1.217   0.984
  148SOL     OW  453   0.688   1.662   1.716
  148SOL    HW1  454   0.632   1.743   1.725
  148SOL    HW2  455   0.740   1.666   1.630
  149SOL     OW  456   0.903   0.086   0.133
  149SOL    HW1  457   0.954   0.087   0.047
  149SOL    HW2  458   0.959   0.044   0.204
  150SOL     OW  459   1.726   0.135   0.523
  150SOL    HW1  460   1.799   0.118   0.456
  150SOL    HW2  461   1.695   0.048   0.561
  151SOL     OW  462   1.388   1.573   0.477
  151SOL    HW1  463   1.455   1.585   0.403
  151SOL    HW2  464   1.348   1.662   0.500
  152SOL     OW  465   0.130   1.794   1.851
  152SOL    HW1  466   0.089   1.720   1.904
  152SOL    HW2  467   0.194   1.845   1.909
  153SOL     OW  468   1.280   0.927   0.672
  153SOL    HW1  469   1.340   0.846   0.674
  153SOL    HW2  470   1.320   0.996   0.612
  154SOL     OW  471   0.830   1.273   1.422
  154SOL    HW1  472   0.825   1.306   1.517
  154SOL    HW2  473   0.744   1.292   1.376
  155SOL     OW  474   0.672   1.616   0.154
  155SOL    HW1  475   0.681   1.626   0.055
  155SOL    HW2  476   0.632   1.527   0.175
  156SOL     OW  477   1.650   1.720   1.394
  156SOL    HW1  478   1.703   1.730   1.310
  156SOL    HW2  479   1.623   1.810   1.428
  157SOL     OW  480   1.841   0.175   0.963
  157SOL    HW1  481   1.880   0.090   0.927
  157SOL    HW2  482   1.743   0.177   0.944
  158SOL     OW  483   0.263   0.326   0.720
  158SOL    HW1  484   0.184   0.377   0.686
  158SOL    HW2  485   0.254   0.311   0.818
  159SOL     OW  486   1.194   1.612   0.031
  159SOL    HW1  487   1.200   1.519   0.068
  159SOL    HW2  488   1.135   1.612  -0.049
  160SOL     OW  489   0.822   1.002   1.372
  160SOL    HW1  490   0.862   1.001   1.280
  160SOL    HW2  491   0.832   1.094   1.412
  161SOL     OW  492   0.916   0.910   0.291
  161SOL    HW1  493   0.979   0.948   0.223
  161SOL    HW2  494   0.956   0.827   0.330
  162SOL     OW  495   1.504   1.607   0.044
  162SOL    HW1  496   1.412   1.644   0.051
  162SOL    HW2  497   1.542   1.627  -0.046
  163SOL     OW  498   0.372   1.288   1.490
  163SOL    HW1  499   0.359   1.381   1.456
  163SOL    HW2  500   0.288   1.236   1.477
  164SOL     OW  501   1.039   1.098   0.696
  164SOL    HW1  502   0.969   1.051   0.750
  164SOL    HW2  503   1.098   1.030   0.653
  165SOL     OW  504   1.014   0.236   0.971
  165SOL    HW1  505   1.006   0.200   0.878
  165SOL    HW2  506   1.012   0.160   1.036
  166SOL     OW  507   0.590   1.487   0.491
  166SOL    HW1  508   0.632   1.429   0.421
  166SOL    HW2  509   0.546   1.566   0.447
  167SOL     OW  510   1.709   0.385   1.381
  167SOL    HW1  511   1.782   0.454   1.385
  167SOL    HW2  512   1.737   0.310   1.322
  168SOL     OW  513   0.255   1.348   0.290
  168SOL    HW1  514   0.159   1.349   0.263
  168SOL    HW2  515   0.267   1.401   0.374
  169SOL     OW  516   0.105   1.013   1.726
  169SOL    HW1  517   0.028   0.980   1.780
  169SOL    HW2  518   0.190   0.983   1.768
  170SOL     OW  519   0.672   0.203   1.489
  170SOL    HW1  520   0.762   0.187   1.449
  170SOL    HW2  521   0.680   0.208   1.588
  171SOL     OW  522   0.075   0.345   0.033
  171SOL    HW1  523  -0.017   0.317   0.004
  171SOL    HW2  524   0.106   0.422  -0.023
  172SOL     OW  525   1.440   0.856   1.398
  172SOL    HW1  526   1.383   0.908   1.335
  172SOL    HW2  527   1.536   0.868   1.374
  173SOL     OW  528   0.072   0.166   0.318
  173SOL    HW1  529   0.055   0.249   0.264
  173SOL    HW2  530   0.162   0.129   0.296
  174SOL     OW  531   1.183   1.335   0.119
  174SOL    HW1  532   1.084   1.324   0.121
  174SOL    HW2  533   1.217   1.350   0.212
  175SOL     OW  534   0.613   0.842   1.431
  175SOL    HW1  535   0.669   0.923   1.414
  175SOL    HW2  536   0.672   0.762   1.434
  176SOL     OW  537   1.493   1.767   0.959
  176SOL    HW1  538   1.526   1.831   0.890
  176SOL    HW2  539   1.559   1.761   1.034
  177SOL     OW  540   0.716   0.565   1.708
  177SOL    HW1  541   0.735   0.630   1.782
  177SOL    HW2  542   0.776   0.485   1.717
  178SOL     OW  543   0.390   1.741   1.560
  178SOL    HW1  544   0.299   1.782   1.558
  178SOL    HW2  545   0.383   1.647   1.592
  179SOL     OW  546   1.674   0.883   1.254
  179SOL    HW1  547   1.647   0.794   1.217
  179SOL    HW2  548   1.675   0.951   1.181
  180SOL     OW  549   1.225   0.325   0.449
  180SOL    HW1  550   1.290   0.251   0.438
  180SOL    HW2  551   1.245   0.375   0.533
  181SOL     OW  552   0.594   0.745   0.652
  181SOL    HW1  553   0.644   0.830   0.633
  181SOL    HW2  554   0.506   0.747   0.604
  182SOL     OW  555   1.777   0.342   1.642
  182SOL    HW1  556   1.760   0.373   1.548
  182SOL    HW2  557   1.693   0.305   1.680
  183SOL     OW  558   1.730   0.934   1.517
  183SOL    HW1  559   1.768   1.025   1.532
  183SOL    HW2  560   1.722   0.917   1.418
  184SOL     OW  561   0.859   1.374   0.016
  184SOL    HW1  562   0.813   1.389   0.104
  184SOL    HW2  563   0.903   1.459  -0.014
  185SOL     OW  564   0.661   1.790   0.953
  185SOL    HW1  565   0.615   1.878   0.940
  185SOL    HW2  566   0.760   1.802   0.946
  186SOL     OW  567   0.859   0.956   0.861
  186SOL    HW1  568   0.913   0.887   0.909
  186SOL    HW2  569   0.827   1.025   0.927
  187SOL     OW  570   1.083   0.984   0.087
  187SOL    HW1  571   1.060   1.037   0.005
  187SOL    HW2  572   1.164   0.928   0.068
  188SOL     OW  573   1.861   1.569   0.851
  188SOL    HW1  574   1.790   1.557   0.781
  188SOL    HW2  575   1.862   1.490   0.911
  189SOL     OW  576   0.221   1.314   1.844
  189SOL    HW1  577   0.156   1.241   1.823
  189SOL    HW2  578   0.225   1.328   1.942
  190SOL     OW  579   0.079   1.240   0.653
  190SOL    HW1  580   0.078   1.193   0.741
  190SOL    HW2  581   0.161   1.212   0.602
  191SOL     OW  582   0.672   1.391   1.624
  191SOL    HW1  583   0.594   1.341   1.662
  191SOL    HW2  584   0.669   1.486   1.655
  192SOL     OW  585   1.824   0.192   1.227
  192SOL    HW1  586   1.820   0.102   1.271
  192SOL    HW2  587   1.827   0.181   1.128
  193SOL     OW  588   0.428   0.424   0.520
  193SOL    HW1  589   0.458   0.352   0.458
  193SOL    HW2  590   0.389   0.384   0.603
  194SOL     OW  591   1.705   1.487   1.104
  194SOL    HW1  592   1.612   1.462   1.077
  194SOL    HW2  593   1.731   1.437   1.186
  195SOL     OW  594   0.317   0.547   1.280
  195SOL    HW1  595   0.355   0.488   1.352
  195SOL    HW2  596   0.357   0.521   1.192
  196SOL     OW  597   0.812   1.586   0.687
  196SOL    HW1  598   0.844   1.596   0.593
  196SOL    HW2  599   0.733   1.524   0.689
  197SOL     OW  600   1.424   0.214   1.112
  197SOL    HW1  601   1.476   0.149   1.167
  197SOL    HW2  602   1.375   0.277   1.173
  198SOL     OW  603   1.001   0.034   1.154
  198SOL    HW1  604   0.938  -0.038   1.123
  198SOL    HW2  605   1.094  -0.002   1.154
  199SOL     OW  606   0.770   1.330   0.301
  199SOL    HW1  607   0.724   1.243   0.318
  199SOL    HW2  608   0.861   1.327   0.342
  200SOL     OW  609   0.618   1.567   1.284
  200SOL    HW1  610   0.613   1.649   1.341
  200SOL    HW2  611   0.707   1.564   1.239
  201SOL     OW  612   1.352   0.052   0.168
  201SOL    HW1  613   1.387   0.011   0.084
  201SOL    HW2  614   1.262   0.014   0.188
  202SOL     OW  615   1.300   0.453   0.691
  202SOL    HW1  616   1.241   0.533   0.695
  202SOL    HW2  617   1.315   0.418   0.784
  203SOL     OW  618   1.593   0.221   0.882
  203SOL    HW1  619   1.509   0.220   0.936
  203SOL    HW2  620   1.595   0.304   0.826
  204SOL     OW  621   0.039   1.077   0.300
  204SOL    HW1  622   0.138   1.066   0.291
  204SOL    HW2  623  -0.001   0.991   0.332
  205SOL     OW  624   0.875   1.646   0.337
  205SOL    HW1  625   0.798   1.611   0.283
  205SOL    HW2  626   0.843   1.717   0.399
  206SOL     OW  627   0.230   0.628   1.975
  206SOL    HW1  628   0.137   0.626   2.012
  206SOL    HW2  629   0.231   0.589   1.883
  207SOL     OW  630   0.019   0.368   2.509
  207SOL    HW1  631  -0.063   0.411   2.548
  207SOL    HW2  632  -0.009   0.295   2.446
  208SOL     OW  633   1.755   0.607   2.093
  208SOL    HW1  634   1.743   0.594   1.994
  208SOL    HW2  635   1.725   0.526   2.142
  209SOL     OW  636   0.685   1.012   2.527
  209SOL    HW1  637   0.754   0.996   2.597
  209SOL    HW2  638   0.612   1.069   2.565
  210SOL     OW  639   1.603   0.447   2.599
  210SOL    HW1  640   1.529   0.493   2.549
  210SOL    HW2  641   1.654   0.515   2.652
  211SOL     OW  642   0.231   1.713   2.345
  211SOL    HW1  643   0.265   1.790   2.399
  211SOL    HW2  644   0.275   1.713   2.255
  212SOL     OW  645   0.230   1.434   2.400
  212SOL    HW1  646   0.204   1.530   2.400
  212SOL    HW2  647   0.159   1.380   2.445
  213SOL     OW  648   0.606   0.964   1.985
  213SOL    HW1  649   0.613   1.048   1.931
  213SOL    HW2  650   0.652   0.977   2.073
  214SOL     OW  651   0.122   0.643   2.425
  214SOL    HW1  652   0.077   0.555   2.442
  214SOL    HW2  653   0.121   0.697   2.509
  215SOL     OW  654   1.842   1.767   2.221
  215SOL    HW1  655   1.896   1.738   2.301
  215SOL    HW2  656   1.872   1.857   2.192
  216SOL     OW  657   0.027   1.596   1.979
  216SOL    HW1  658   0.008   1.500   2.000
  216SOL    HW2  659  -0.006   1.654   2.054
  217SOL     OW  660   1.689   0.922   2.474
  217SOL    HW1  661   1.784   0.893   2.482
  217SOL    HW2  662   1.681   0.987   2.399
  218SOL     OW  663   1.641   1.108   2.294
  218SOL    HW1  664   1.727   1.110   2.242
  218SOL    HW2  665   1.655   1.155   2.382
  219SOL     OW  666   0.613   1.365   2.588
  219SOL    HW1  667   0.564   1.278   2.597
  219SOL    HW2  668   0.590   1.408   2.501
  220SOL     OW  669   0.809   0.004   2.364
  220SOL    HW1  670   0.849   0.095   2.355
  220SOL    HW2  671   0.709   0.012   2.370
  221SOL     OW  672   1.525   0.999   2.052
  221SOL    HW1  673   1.462   0.923   2.065
  221SOL    HW2  674   1.573   1.017   2.138
  222SOL     OW  675   1.667   1.714   2.434
  222SOL    HW1  676   1.626   1.691   2.346
  222SOL    HW2  677   1.649   1.640   2.499
  223SOL     OW  678   0.598   0.729   2.132
  223SOL    HW1  679   0.622   0.798   2.064
  223SOL    HW2  680   0.520   0.762   2.186
  224SOL     OW  681   1.281   0.345   2.806
  224SOL    HW1  682   1.195   0.295   2.793
  224SOL    HW2  683   1.343   0.291   2.862
  225SOL     OW  684   1.576   1.662   2.169
  225SOL    HW1  685   1.665   1.708   2.172
  225SOL    HW2  686   1.555   1.638   2.074
  226SOL     OW  687   1.041   0.701   2.291
  226SOL    HW1  688   1.067   0.697   2.387
  226SOL    HW2  689   0.956   0.650   2.277
  227SOL     OW  690   0.076   0.811   2.651
  227SOL    HW1  691   0.175   0.799   2.660
  227SOL    HW2  692   0.052   0.906   2.672
  228SOL     OW  693   0.865   0.348   2.057
  228SOL    HW1  694   0.924   0.411   2.008
  228SOL    HW2  695   0.884   0.254   2.028
  229SOL     OW  696   1.362   1.144   2.407
  229SOL    HW1  697   1.445   1.115   2.359
  229SOL    HW2  698   1.313   1.211   2.351
  230SOL     OW  699   1.008   1.456   2.339
  230SOL    HW1  700   0.962   1.528   2.287
  230SOL    HW2  701   1.004   1.476   2.437
  231SOL     OW  702   0.351   1.801   2.715
  231SOL    HW1  703   0.401   1.715   2.721
  231SOL    HW2  704   0.416   1.878   2.712
  232SOL     OW  705   1.795   1.066   2.735
  232SOL    HW1  706   1.733   1.051   2.659
  232SOL    HW2  707   1.743   1.077   2.820
  233SOL     OW  708   0.321   0.943   2.104
  233SOL    HW1  709   0.403   0.982   2.062
  233SOL    HW2  710   0.294   0.861   2.055
  234SOL     OW  711   1.111   1.776   2.099
  234SOL    HW1  712   1.051   1.714   2.149
  234SOL    HW2  713   1.142   1.732   2.014
  235SOL     OW  714   1.632   1.377   1.943
  235SOL    HW1  715   1.600   1.471   1.933
  235SOL    HW2  716   1.556   1.314   1.931
  236SOL     OW  717   0.464   1.743   2.185
  236SOL    HW1  718   0.497   1.782   2.271
  236SOL    HW2  719   0.540   1.736   2.120
  237SOL     OW  720   1.400   0.107   2.288
  237SOL    HW1  721   1.376   0.070   2.198
  237SOL    HW2  722   1.499   0.123   2.292
  238SOL     OW  723   0.940   1.698   2.766
  238SOL    HW1  724   1.020   1.641   2.787
  238SOL    HW2  725   0.891   1.658   2.689
  239SOL     OW  726   0.382   0.700   2.342
  239SOL    HW1  727   0.427   0.610   2.339
  239SOL    HW2  728   0.288   0.689   2.375
  240SOL     OW  729   0.614   0.122   1.979
  240SOL    HW1  730   0.712   0.100   1.986
  240SOL    HW2  731   0.583   0.105   1.886
  241SOL     OW  732   0.539   0.064   2.374
  241SOL    HW1  733   0.458   0.065   2.432
  241SOL    HW2  734   0.542   0.147   2.319
  242SOL     OW  735   1.434   1.188   1.903
  242SOL    HW1  736   1.466   1.112   1.960
  242SOL    HW2  737   1.342   1.215   1.933
  243SOL     OW  738   0.297   0.035   2.033
  243SOL    HW1  739   0.346   0.119   2.012
  243SOL    HW2  740   0.359  -0.030   2.078
  244SOL     OW  741   0.935   0.236   2.342
  244SOL    HW1  742   0.887   0.277   2.264
  244SOL    HW2  743   1.034   0.234   2.323
  245SOL     OW  744   0.459   1.152   2.603
  245SOL    HW1  745   0.388   1.125   2.668
  245SOL    HW2  746   0.433   1.124   2.510
  246SOL     OW  747   1.271   1.797   2.453
  246SOL    HW1  748   1.315   1.861   2.389
  246SOL    HW2  749   1.221   1.849   2.523
  247SOL     OW  750   1.032   0.549   1.878
  247SOL    HW1  751   0.991   0.631   1.839
  247SOL    HW2  752   1.096   0.575   1.951
  248SOL     OW  753   0.866   0.454   2.504
  248SOL    HW1  754   0.834   0.526   2.442
  248SOL    HW2  755   0.890   0.373   2.451
  249SOL     OW  756   1.857   0.833   2.239
  249SOL    HW1  757   1.899   0.769   2.303
  249SOL    HW2  758   1.819   0.782   2.161
  250SOL     OW  759   0.488   1.385   2.036
  250SOL    HW1  760   0.401   1.370   2.083
  250SOL    HW2  761   0.471   1.411   1.941
  251SOL     OW  762   1.664   1.280   2.519
  251SOL    HW1  763   1.763   1.288   2.533
  251SOL    HW2  764   1.619   1.364   2.550
  252SOL     OW  765   1.390   0.575   1.940
  252SOL    HW1  766   1.336   0.554   2.021
  252SOL    HW2  767   1.481   0.534   1.949
  253SOL     OW  768   0.527   0.256   2.190
  253SOL    HW1  769   0.554   0.197   2.115
  253SOL    HW2  770   0.527   0.351   2.159
  254SOL     OW  771   0.705   1.050   2.230
  254SOL    HW1  772   0.691   1.057   2.329
  254SOL    HW2  773   0.789   0.999   2.212
  255SOL     OW  774   0.367   1.100   2.363
  255SOL    HW1  775   0.360   1.183   2.307
  255SOL    HW2  776   0.371   1.020   2.303
  256SOL     OW  777   1.252   1.348   2.250
  256SOL    HW1  778   1.302   1.425   2.290
  256SOL    HW2  779   1.157   1.350   2.282
  257SOL     OW  780   1.582   0.639   2.334
  257SOL    HW1  781   1.551   0.700   2.407
  257SOL    HW2  782   1.632   0.691   2.265
  258SOL     OW  783   1.209   0.525   2.137
  258SOL    HW1  784   1.222   0.441   2.191
  258SOL    HW2  785   1.180   0.599   2.197
  259SOL     OW  786   0.307   0.063   2.480
  259SOL    HW1  787   0.296   0.157   2.513
  259SOL    HW2  788   0.302   0.000   2.557
  260SOL     OW  789   1.622   0.367   2.236
  260SOL    HW1  790   1.624   0.291   2.300
  260SOL    HW2  791   1.574   0.444   2.276
  261SOL     OW  792   1.540   0.274   1.987
  261SOL    HW1  793   1.479   0.199   2.010
  261SOL    HW2  794   1.562   0.326   2.070
  262SOL     OW  795   1.303   0.838   1.904
  262SOL    HW1  796   1.337   0.745   1.919
  262SOL    HW2  797   1.321   0.865   1.809
  263SOL     OW  798   0.008   1.326   2.062
  263SOL    HW1  799  -0.085   1.347   2.031
  263SOL    HW2  800   0.018   1.227   2.075
  264SOL     OW  801   0.815   0.572   2.187
  264SOL    HW1  802   0.822   0.483   2.141
  264SOL    HW2  803   0.721   0.606   2.179
  265SOL     OW  804   0.473   0.500   2.053
  265SOL    HW1  805   0.534   0.580   2.057
  265SOL    HW2  806   0.378   0.531   2.060
  266SOL     OW  807   1.302   0.855   2.171
  266SOL    HW1  808   1.216   0.824   2.213
  266SOL    HW2  809   1.298   0.841   2.072
  267SOL     OW  810   1.726   0.135   2.385
  267SOL    HW1  811   1.799   0.118   2.318
  267SOL    HW2  812   1.695   0.048   2.423
  268SOL     OW  813   1.388   1.573   2.339
  268SOL    HW1  814   1.455   1.585   2.265
  268SOL    HW2  815   1.348   1.662   2.362
  269SOL     OW  816   0.672   1.616   2.016
  269SOL    HW1  817   0.681   1.626   1.917
  269SOL    HW2  818   0.632   1.527   2.037
  270SOL     OW  819   1.194   1.612   1.893
  270SOL    HW1  820   1.200   1.519   1.930
  270SOL    HW2  821   1.135   1.612   1.813
  271SOL     OW  822   0.916   0.910   2.153
  271SOL    HW1  823   0.979   0.948   2.085
  271SOL    HW2  824   0.956   0.827   2.192
  272SOL     OW  825   1.504   1.607   1.906
  272SOL    HW1  826   1.412   1.644   1.913
  272SOL    HW2  827   1.542   1.627   1.816
  273SOL     OW  828   0.590   1.487   2.353
  273SOL    HW1  829   0.632   1.429   2.283
  273SOL    HW2  830   0.546   1.566   2.309
  274SOL     OW  831   0.255   1.348   2.152
  274SOL    HW1  832   0.159   1.349   2.125
  274SOL    HW2  833   0.267   1.401   2.236
  275SOL     OW  834   0.075   0.345   1.895
  275SOL    HW1  835  -0.017   0.317   1.866
  275SOL    HW2  836   0.106   0.422   1.839
  276SOL     OW  837   0.072   0.166   2.180
  276SOL    HW1  838   0.055   0.249   2.126
  276SOL    HW2  839   0.162   0.129   2.158
  277SOL     OW  840   1.183   1.335   1.981
  277SOL    HW1  841   1.084   1.324   1.983
  277SOL    HW2  842   1.217   1.350   2.074
  278SOL     OW  843   1.225   0.325   2.311
  278SOL    HW1  844   1.290   0.251   2.300
  278SOL    HW2  845   1.245   0.375   2.395
  279SOL     OW  846   0.594   0.745   2.514
  279SOL    HW1  847   0.644   0.830   2.495
  279SOL    HW2  848   0.506   0.747   2.466
  280SOL     OW  849   0.859   1.374   1.878
  280SOL    HW1  850   0.813   1.389   1.966
  280SOL    HW2  851   0.903   1.459   1.848
  281SOL     OW  852   0.661   1.790   2.815
  281SOL    HW1  853   0.615   1.878   2.802
  281SOL    HW2  854   0.760   1.802   2.808
  282SOL     OW  855   0.859   0.956   2.723
  282SOL    HW1  856   0.913   0.887   2.771
  282SOL    HW2  857   0.827   1.025   2.789
  283SOL     OW  858   1.083   0.984   1.949
  283SOL    HW1  859   1.060   1.037   1.867
  283SOL    HW2  860   1.164   0.928   1.930
  284SOL     OW  861   0.079   1.240   2.515
  284SOL    HW1  862   0.078   1.193   2.603
  284SOL    HW2  863   0.161   1.212   2.464
  285SOL     OW  864   0.428   0.424   2.382
  285SOL    HW1  865   0.458   0.352   2.320
  285SOL    HW2  866   0.389   0.384   2.465
  286SOL     OW  867   0.812   1.586   2.549
  286SOL    HW1  868   0.844   1.596   2.455
  286SOL    HW2  869   0.733   1.524   2.551
  287SOL     OW  870   0.770   1.330   2.163
  287SOL    HW1  871   0.724   1.243   2.180
  287SOL    HW2  872   0.861   1.327   2.204
  288SOL     OW  873   1.352   0.052   2.030
  288SOL    HW1  874   1.387   0.011   1.946
  288SOL    HW2  875   1.262   0.014   2.050
  289SOL     OW  876   1.300   0.453   2.553
  289SOL    HW1  877   1.241   0.533   2.557
  289SOL    HW2  878   1.315   0.418   2.646
  290SOL     OW  879   0.039   1.077   2.162
  290SOL    HW1  880   0.138   1.066   2.153
  290SOL    HW2  881  -0.001   0.991   2.194
  291SOL     OW  882   0.875   1.646   2.199
  291SOL    HW1  883   0.798   1.611   2.145
  291SOL    HW2  884   0.843   1.717   2.261
  292SOL     OW  885   0.230   2.490   0.113
  292SOL    HW1  886   0.137   2.488   0.150
  292SOL    HW2  887   0.231   2.451   0.021
  293SOL     OW  888   0.225   2.137   0.996
  293SOL    HW1  889   0.260   2.120   1.088
  293SOL    HW2  890   0.137   2.092   0.984
  294SOL     OW  891   0.019   2.230   0.647
  294SOL    HW1  892  -0.063   2.273   0.686
  294SOL    HW2  893  -0.009   2.157   0.584
  295SOL     OW  894   1.755   2.469   0.231
  295SOL    HW1  895   1.743   2.456   0.132
  295SOL    HW2  896   1.725   2.388   0.280
  296SOL     OW  897   0.850   2.660   1.823
  296SOL    HW1  898   0.846   2.736   1.888
  296SOL    HW2  899   0.872   2.696   1.732
  297SOL     OW  900   0.685   2.874   0.665
  297SOL    HW1  901   0.754   2.858   0.735
  297SOL    HW2  902   0.612   2.931   0.703
  298SOL     OW  903   0.438   2.254   1.499
  298SOL    HW1  904   0.520   2.198   1.508
  298SOL    HW2  905   0.357   2.196   1.503
  299SOL     OW  906   1.603   2.309   0.737
  299SOL    HW1  907   1.529   2.355   0.687
  299SOL    HW2  908   1.654   2.377   0.790
  300SOL     OW  909   1.594   1.976   1.480
  300SOL    HW1  910   1.576   2.043   1.408
  300SOL    HW2  911   1.591   2.022   1.569
  301SOL     OW  912   0.122   2.505   0.563
  301SOL    HW1  913   0.077   2.417   0.580
  301SOL    HW2  914   0.121   2.559   0.647
  302SOL     OW  915   0.113   2.599   1.597
  302SOL    HW1  916   0.201   2.586   1.642
  302SOL    HW2  917   0.100   2.696   1.575
  303SOL     OW  918   0.809   1.866   0.502
  303SOL    HW1  919   0.849   1.957   0.493
  303SOL    HW2  920   0.709   1.874   0.508
  304SOL     OW  921   0.317   2.113   1.801
  304SOL    HW1  922   0.388   2.184   1.807
  304SOL    HW2  923   0.229   2.152   1.829
  305SOL     OW  924   1.281   2.207   0.944
  305SOL    HW1  925   1.195   2.157   0.931
  305SOL    HW2  926   1.343   2.153   1.000
  306SOL     OW  927   0.807   2.467   1.465
  306SOL    HW1  928   0.760   2.464   1.554
  306SOL    HW2  929   0.756   2.412   1.399
  307SOL     OW  930   1.394   2.331   1.674
  307SOL    HW1  931   1.374   2.374   1.762
  307SOL    HW2  932   1.472   2.269   1.683
  308SOL     OW  933   0.991   2.272   1.242
  308SOL    HW1  934   0.914   2.306   1.296
  308SOL    HW2  935   0.957   2.221   1.163
  309SOL     OW  936   1.041   2.563   0.429
  309SOL    HW1  937   1.067   2.559   0.525
  309SOL    HW2  938   0.956   2.512   0.415
  310SOL     OW  939   0.076   2.673   0.789
  310SOL    HW1  940   0.175   2.661   0.798
  310SOL    HW2  941   0.052   2.768   0.810
  311SOL     OW  942   0.865   2.210   0.195
  311SOL    HW1  943   0.924   2.273   0.146
  311SOL    HW2  944   0.884   2.116   0.166
  312SOL     OW  945   1.719   2.447   1.831
  312SOL    HW1  946   1.693   2.536   1.795
  312SOL    HW2  947   1.717   2.379   1.758
  313SOL     OW  948   0.550   2.058   0.885
  313SOL    HW1  949   0.545   2.053   0.985
  313SOL    HW2  950   0.552   2.154   0.856
  314SOL     OW  951   1.458   2.597   0.728
  314SOL    HW1  952   1.453   2.532   0.803
  314SOL    HW2  953   1.538   2.656   0.741
  315SOL     OW  954   0.202   2.147   1.498
  315SOL    HW1  955   0.122   2.207   1.485
  315SOL    HW2  956   0.192   2.098   1.584
  316SOL     OW  957   1.400   1.969   0.426
  316SOL    HW1  958   1.376   1.932   0.336
  316SOL    HW2  959   1.499   1.985   0.430
  317SOL     OW  960   0.382   2.562   0.480
  317SOL    HW1  961   0.427   2.472   0.477
  317SOL    HW2  962   0.288   2.551   0.513
  318SOL     OW  963   1.547   2.084   1.729
  318SOL    HW1  964   1.542   2.121   1.821
  318SOL    HW2  965   1.475   2.015   1.717
  319SOL     OW  966   0.781   2.126   1.749
  319SOL    HW1  967   0.848   2.065   1.792
  319SOL    HW2  968   0.708   2.145   1.814
  320SOL     OW  969   1.351   2.452   1.433
  320SOL    HW1  970   1.379   2.409   1.518
  320SOL    HW2  971   1.376   2.548   1.434
  321SOL     OW  972   0.922   2.365   0.899
  321SOL    HW1  973   0.897   2.356   0.803
  321SOL    HW2  974   0.970   2.283   0.930
  322SOL     OW  975   0.539   1.926   0.512
  322SOL    HW1  976   0.458   1.927   0.570
  322SOL    HW2  977   0.542   2.009   0.457
  323SOL     OW  978   0.935   2.098   0.480
  323SOL    HW1  979   0.887   2.139   0.402
  323SOL    HW2  980   1.034   2.096   0.461
  324SOL     OW  981   1.076   2.545   1.464
  324SOL    HW1  982   0.996   2.484   1.467
  324SOL    HW2  983   1.157   2.492   1.440
  325SOL     OW  984   1.032   2.411   0.016
  325SOL    HW1  985   0.991   2.493  -0.023
  325SOL    HW2  986   1.096   2.437   0.089
  326SOL     OW  987   0.078   2.418   1.386
  326SOL    HW1  988   0.170   2.417   1.345
  326SOL    HW2  989   0.072   2.492   1.453
  327SOL     OW  990   0.561   2.084   1.147
  327SOL    HW1  991   0.599   2.000   1.184
  327SOL    HW2  992   0.473   2.103   1.191
  328SOL     OW  993   0.866   2.316   0.642
  328SOL    HW1  994   0.834   2.388   0.580
  328SOL    HW2  995   0.890   2.235   0.589
  329SOL     OW  996   1.017   1.901   0.753
  329SOL    HW1  997   0.945   1.906   0.684
  329SOL    HW2  998   0.993   1.832   0.822
  330SOL     OW  999   1.466   2.452   0.992
  330SOL    HW1 1000   1.436   2.357   0.999
  330SOL    HW2 1001   1.539   2.468   1.058
  331SOL     OW 1002   1.390   2.437   0.078
  331SOL    HW1 1003   1.336   2.416   0.159
  331SOL    HW2 1004   1.481   2.396   0.087
  332SOL     OW 1005   0.527   2.118   0.328
  332SOL    HW1 1006   0.554   2.059   0.253
  332SOL    HW2 1007   0.527   2.213   0.297
  333SOL     OW 1008   0.915   1.951   1.402
  333SOL    HW1 1009   0.940   1.931   1.307
  333SOL    HW2 1010   0.987   2.007   1.444
  334SOL     OW 1011   0.705   2.912   0.368
  334SOL    HW1 1012   0.691   2.919   0.467
  334SOL    HW2 1013   0.789   2.861   0.350
  335SOL     OW 1014   0.410   2.675   1.251
  335SOL    HW1 1015   0.496   2.687   1.301
  335SOL    HW2 1016   0.368   2.588   1.278
  336SOL     OW 1017   1.274   2.248   1.262
  336SOL    HW1 1018   1.295   2.322   1.326
  336SOL    HW2 1019   1.185   2.265   1.219
  337SOL     OW 1020   0.566   2.399   0.865
  337SOL    HW1 1021   0.578   2.465   0.791
  337SOL    HW2 1022   0.612   2.433   0.948
  338SOL     OW 1023   1.582   2.501   0.472
  338SOL    HW1 1024   1.551   2.562   0.545
  338SOL    HW2 1025   1.632   2.553   0.403
  339SOL     OW 1026   1.587   2.641   1.670
  339SOL    HW1 1027   1.495   2.679   1.665
  339SOL    HW2 1028   1.647   2.688   1.605
  340SOL     OW 1029   1.013   1.967   1.770
  340SOL    HW1 1030   1.019   2.052   1.718
  340SOL    HW2 1031   1.045   1.891   1.713
  341SOL     OW 1032   0.504   1.912   1.740
  341SOL    HW1 1033   0.462   1.855   1.670
  341SOL    HW2 1034   0.438   1.981   1.772
  342SOL     OW 1035   1.360   2.724   1.045
  342SOL    HW1 1036   1.285   2.724   0.979
  342SOL    HW2 1037   1.397   2.632   1.054
  343SOL     OW 1038   1.209   2.387   0.275
  343SOL    HW1 1039   1.222   2.303   0.329
  343SOL    HW2 1040   1.180   2.461   0.335
  344SOL     OW 1041   0.307   2.075   1.231
  344SOL    HW1 1042   0.284   2.112   1.321
  344SOL    HW2 1043   0.277   1.980   1.225
  345SOL     OW 1044   0.732   2.496   1.064
  345SOL    HW1 1045   0.791   2.470   0.988
  345SOL    HW2 1046   0.704   2.592   1.053
  346SOL     OW 1047   1.728   2.797   1.854
  346SOL    HW1 1048   1.682   2.790   1.765
  346SOL    HW2 1049   1.666   2.841   1.920
  347SOL     OW 1050   0.307   1.925   0.618
  347SOL    HW1 1051   0.296   2.019   0.651
  347SOL    HW2 1052   0.302   1.862   0.695
  348SOL     OW 1053   1.622   2.229   0.374
  348SOL    HW1 1054   1.624   2.153   0.438
  348SOL    HW2 1055   1.574   2.306   0.414
  349SOL     OW 1056   1.540   2.136   0.125
  349SOL    HW1 1057   1.479   2.061   0.148
  349SOL    HW2 1058   1.562   2.188   0.208
  350SOL     OW 1059   0.319   2.672   0.949
  350SOL    HW1 1060   0.412   2.708   0.954
  350SOL    HW2 1061   0.313   2.587   1.001
  351SOL     OW 1062   0.339   2.371   1.006
  351SOL    HW1 1063   0.287   2.288   0.989
  351SOL    HW2 1064   0.416   2.376   0.942
  352SOL     OW 1065   1.138   2.242   1.678
  352SOL    HW1 1066   1.093   2.305   1.742
  352SOL    HW2 1067   1.231   2.273   1.661
  353SOL     OW 1068   1.160   2.069   1.477
  353SOL    HW1 1069   1.160   2.133   1.554
  353SOL    HW2 1070   1.188   2.117   1.394
  354SOL     OW 1071   0.040   2.406   1.114
  354SOL    HW1 1072   0.125   2.373   1.073
  354SOL    HW2 1073   0.053   2.421   1.212
  355SOL     OW 1074   0.189   2.382   1.722
  355SOL    HW1 1075   0.248   2.342   1.652
  355SOL    HW2 1076   0.131   2.453   1.681
  356SOL     OW 1077   0.815   2.434   0.325
  356SOL    HW1 1078   0.822   2.345   0.279
  356SOL    HW2 1079   0.721   2.468   0.317
  357SOL     OW 1080   1.657   2.466   1.206
  357SOL    HW1 1081   1.619   2.397   1.268
  357SOL    HW2 1082   1.739   2.430   1.162
  358SOL     OW 1083   0.671   2.326   1.269
  358SOL    HW1 1084   0.637   2.237   1.239
  358SOL    HW2 1085   0.697   2.380   1.189
  359SOL     OW 1086   0.473   2.362   0.191
  359SOL    HW1 1087   0.534   2.442   0.195
  359SOL    HW2 1088   0.378   2.393   0.198
  360SOL     OW 1089   0.903   1.948   0.133
  360SOL    HW1 1090   0.954   1.949   0.047
  360SOL    HW2 1091   0.959   1.906   0.204
  361SOL     OW 1092   1.726   1.997   0.523
  361SOL    HW1 1093   1.799   1.980   0.456
  361SOL    HW2 1094   1.695   1.910   0.561
  362SOL     OW 1095   1.280   2.789   0.672
  362SOL    HW1 1096   1.340   2.708   0.674
  362SOL    HW2 1097   1.320   2.858   0.612
  363SOL     OW 1098   1.841   2.037   0.963
  363SOL    HW1 1099   1.880   1.952   0.927
  363SOL    HW2 1100   1.743   2.039   0.944
  364SOL     OW 1101   0.263   2.188   0.720
  364SOL    HW1 1102   0.184   2.239   0.686
  364SOL    HW2 1103   0.254   2.173   0.818
  365SOL     OW 1104   1.039   2.960   0.696
  365SOL    HW1 1105   0.969   2.913   0.750
  365SOL    HW2 1106   1.098   2.892   0.653
  366SOL     OW 1107   1.014   2.098   0.971
  366SOL    HW1 1108   1.006   2.062   0.878
  366SOL    HW2 1109   1.012   2.022   1.036
  367SOL     OW 1110   1.709   2.247   1.381
  367SOL    HW1 1111   1.782   2.316   1.385
  367SOL    HW2 1112   1.737   2.172   1.322
  368SOL     OW 1113   0.672   2.065   1.489
  368SOL    HW1 1114   0.762   2.049   1.449
  368SOL    HW2 1115   0.680   2.070   1.588
  369SOL     OW 1116   0.075   2.207   0.033
  369SOL    HW1 1117  -0.017   2.179   0.004
  369SOL    HW2 1118   0.106   2.284  -0.023
  370SOL     OW 1119   0.072   2.028   0.318
  370SOL    HW1 1120   0.055   2.111   0.264
  370SOL    HW2 1121   0.162   1.991   0.296
  371SOL     OW 1122   0.716   2.427   1.708
  371SOL    HW1 1123   0.735   2.492   1.782
  371SOL    HW2 1124   0.776   2.347   1.717
  372SOL     OW 1125   1.225   2.187   0.449
  372SOL    HW1 1126   1.290   2.113   0.438
  372SOL    HW2 1127   1.245   2.237   0.533
  373SOL     OW 1128   1.777   2.204   1.642
  373SOL    HW1 1129   1.760   2.235   1.548
  373SOL    HW2 1130   1.693   2.167   1.680
  374SOL     OW 1131   0.859   2.818   0.861
  374SOL    HW1 1132   0.913   2.749   0.909
  374SOL    HW2 1133   0.827   2.887   0.927
  375SOL     OW 1134   1.083   2.846   0.087
  375SOL    HW1 1135   1.060   2.899   0.005
  375SOL    HW2 1136   1.164   2.790   0.068
  376SOL     OW 1137   1.824   2.054   1.227
  376SOL    HW1 1138   1.820   1.964   1.271
  376SOL    HW2 1139   1.827   2.043   1.128
  377SOL     OW 1140   0.428   2.286   0.520
  377SOL    HW1 1141   0.458   2.214   0.458
  377SOL    HW2 1142   0.389   2.246   0.603
  378SOL     OW 1143   0.317   2.409   1.280
  378SOL    HW1 1144   0.355   2.350   1.352
  378SOL    HW2 1145   0.357   2.383   1.192
  379SOL     OW 1146   1.424   2.076   1.112
  379SOL    HW1 1147   1.476   2.011   1.167
  379SOL    HW2 1148   1.375   2.139   1.173
  380SOL     OW 1149   1.001   1.896   1.154
  380SOL    HW1 1150   0.938   1.824   1.123
  380SOL    HW2 1151   1.094   1.860   1.154
  381SOL     OW 1152   1.352   1.914   0.168
  381SOL    HW1 1153   1.387   1.873   0.084
  381SOL    HW2 1154   1.262   1.876   0.188
  382SOL     OW 1155   1.300   2.315   0.691
  382SOL    HW1 1156   1.241   2.395   0.695
  382SOL    HW2 1157   1.315   2.280   0.784
  383SOL     OW 1158   1.593   2.083   0.882
  383SOL    HW1 1159   1.509   2.082   0.936
  383SOL    HW2 1160   1.595   2.166   0.826
  384SOL     OW 1161   0.230   2.490   1.975
  384SOL    HW1 1162   0.137   2.488   2.012
  384SOL    HW2 1163   0.231   2.451   1.883
  385SOL     OW 1164   0.019   2.230   2.509
  385SOL    HW1 1165  -0.063   2.273   2.548
  385SOL    HW2 1166  -0.009   2.157   2.446
  386SOL     OW 1167   1.755   2.469   2.093
  386SOL    HW1 1168   1.743   2.456   1.994
  386SOL    HW2 1169   1.725   2.388   2.142
  387SOL     OW 1170   0.685   2.874   2.527
  387SOL    HW1 1171   0.754   2.858   2.597
  387SOL    HW2 1172   0.612   2.931   2.565
  388SOL     OW 1173   1.603   2.309   2.599
  388SOL    HW1 1174   1.529   2.355   2.549
  388SOL    HW2 1175   1.654   2.377   2.652
  389SOL     OW 1176   0.122   2.505   2.425
  389SOL    HW1 1177   0.077   2.417   2.442
  389SOL    HW2 1178   0.121   2.559   2.509
  390SOL     OW 1179   0.809   1.866   2.364
  390SOL    HW1 1180   0.849   1.957   2.355
  390SOL    HW2 1181   0.709   1.874   2.370
  391SOL     OW 1182   1.281   2.207   2.806
  391SOL    HW1 1183   1.195   2.157   2.793
  391SOL    HW2 1184   1.343   2.153   2.862
  392SOL     OW 1185   1.041   2.563   2.291
  392SOL    HW1 1186   1.067   2.559   2.387
  392SOL    HW2 1187   0.956   2.512   2.277
  393SOL     OW 1188   0.076   2.673   2.651
  393SOL    HW1 1189   0.175   2.661   2.660
  393SOL    HW2 1190   0.052   2.768   2.672
  394SOL     OW 1191   0.865   2.210   2.057
  394SOL    HW1 1192   0.924   2.273   2.008
  394SOL    HW2 1193   0.884   2.116   2.028
  395SOL     OW 1194   1.400   1.969   2.288
  395SOL    HW1 1195   1.376   1.932   2.198
  395SOL    HW2 1196   1.499   1.985   2.292
  396SOL     OW 1197   0.382   2.562   2.342
  396SOL    HW1 1198   0.427   2.472   2.339
  396SOL    HW2 1199   0.288   2.551   2.375
  397SOL     OW 1200   0.614   1.984   1.979
  397SOL    HW1 1201   0.712   1.962   1.986
  397SOL    HW2 1202   0.583   1.967   1.886
  398SOL     OW 1203   0.539   1.926   2.374
  398SOL    HW1 1204   0.458   1.927   2.432
  398SOL    HW2 1205   0.542   2.009   2.319
  399SOL     OW 1206   0.297   1.897   2.033
  399SOL    HW1 1207   0.346   1.981   2.012
  399SOL    HW2 1208   0.359   1.832   2.078
  400SOL     OW 1209   0.935   2.098   2.342
  400SOL    HW1 1210   0.887   2.139   2.264
  400SOL    HW2 1211   1.034   2.096   2.323
  401SOL     OW 1212   1.032   2.411   1.878
  401SOL    HW1 1213   0.991   2.493   1.839
  401SOL    HW2 1214   1.096   2.437   1.951
  402SOL     OW 1215   0.866   2.316   2.504
  402SOL    HW1 1216   0.834   2.388   2.442
  402SOL    HW2 1217   0.890   2.235   2.451
  403SOL     OW 1218   1.390   2.437   1.940
  403SOL    HW1 1219   1.336   2.416   2.021
  403SOL    HW2 1220   1.481   2.396   1.949
  404SOL     OW 1221   0.527   2.118   2.190
  404SOL    HW1 1222   0.554   2.059   2.115
  404SOL    HW2 1223   0.527   2.213   2.159
  405SOL     OW 1224   0.705   2.912   2.230
  405SOL    HW1 1225   0.691   2.919   2.329
  405SOL    HW2 1226   0.789   2.861   2.212
  406SOL     OW 1227   1.582   2.501   2.334
  406SOL    HW1 1228   1.551   2.562   2.407
  406SOL    HW2 1229   1.632   2.553   2.265
  407SOL     OW 1230   1.209   2.387   2.137
  407SOL    HW1 1231   1.222   2.303   2.191
  407SOL    HW2 1232   1.180   2.461   2.197
  408SOL     OW 1233   0.307   1.925   2.480
  408SOL    HW1 1234   0.296   2.019   2.513
  408SOL    HW2 1235   0.302   1.862   2.557
  409SOL     OW 1236   1.622   2.229   2.236
  409SOL    HW1 1237   1.624   2.153   2.300
  409SOL    HW2 1238   1.574   2.306   2.276
  410SOL     OW 1239   1.540   2.136   1.987
  410SOL    HW1 1240   1.479   2.061   2.010
  410SOL    HW2 1241   1.562   2.188   2.070
  411SOL     OW 1242   0.815   2.434   2.187
  411SOL    HW1 1243   0.822   2.345   2.141
  411SOL    HW2 1244   0.721   2.468   2.179
  412SOL     OW 1245   0.473   2.362   2.053
  412SOL    HW1 1246   0.534   2.442   2.057
  412SOL    HW2 1247   0.378   2.393   2.060
  413SOL     OW 1248   1.726   1.997   2.385
  413SOL    HW1 1249   1.799   1.980   2.318
  413SOL    HW2 1250   1.695   1.910   2.423
  414SOL     OW 1251   1.280   2.789   2.534
  414SOL    HW1 1252   1.340   2.708   2.536
  414SOL    HW2 1253   1.320   2.858   2.474
  415SOL     OW 1254   0.916   2.772   2.153
  415SOL    HW1 1255   0.979   2.810   2.085
  415SOL    HW2 1256   0.956   2.689   2.192
  416SOL     OW 1257   0.075   2.207   1.895
  416SOL    HW1 1258  -0.017   2.179   1.866
  416SOL    HW2 1259   0.106   2.284   1.839
  417SOL     OW 1260   0.072   2.028   2.180
  417SOL    HW1 1261   0.055   2.111   2.126
  417SOL    HW2 1262   0.162   1.991   2.158
  418SOL     OW 1263   1.225   2.187   2.311
  418SOL    HW1 1264   1.290   2.113   2.300
  418SOL    HW2 1265   1.245   2.237   2.395
  419SOL     OW 1266   1.083   2.846   1.949
  419SOL    HW1 1267   1.060   2.899   1.867
  419SOL    HW2 1268   1.164   2.790   1.930
  420SOL     OW 1269   0.428   2.286   2.382
  420SOL    HW1 1270   0.458   2.214   2.320
  420SOL    HW2 1271   0.389   2.246   2.465
  421SOL     OW 1272   1.352   1.914   2.030
  421SOL    HW1 1273   1.387   1.873   1.946
  421SOL    HW2 1274   1.262   1.876   2.050
  422SOL     OW 1275   1.300   2.315   2.553
  422SOL    HW1 1276   1.241   2.395   2.557
  422SOL    HW2 1277   1.315   2.280   2.646
  423SOL     OW 1278   2.092   0.628   0.113
  423SOL    HW1 1279   1.999   0.626   0.150
  423SOL    HW2 1280   2.093   0.589   0.021
  424SOL     OW 1281   2.087   0.275   0.996
  424SOL    HW1 1282   2.122   0.258   1.088
  424SOL    HW2 1283   1.999   0.230   0.984
  425SOL     OW 1284   1.881   0.368   0.647
  425SOL    HW1 1285   1.799   0.411   0.686
  425SOL    HW2 1286   1.853   0.295   0.584
  426SOL     OW 1287   2.431   1.275   1.165
  426SOL    HW1 1288   2.338   1.268   1.128
  426SOL    HW2 1289   2.442   1.364   1.209
  427SOL     OW 1290   2.712   0.798   1.823
  427SOL    HW1 1291   2.708   0.874   1.888
  427SOL    HW2 1292   2.734   0.834   1.732
  428SOL     OW 1293   2.547   1.012   0.665
  428SOL    HW1 1294   2.616   0.996   0.735
  428SOL    HW2 1295   2.474   1.069   0.703
  429SOL     OW 1296   2.548   1.161   1.803
  429SOL    HW1 1297   2.608   1.240   1.817
  429SOL    HW2 1298   2.462   1.192   1.762
  430SOL     OW 1299   2.197   1.435   1.061
  430SOL    HW1 1300   2.119   1.404   1.008
  430SOL    HW2 1301   2.255   1.493   1.004
  431SOL     OW 1302   2.300   0.392   1.499
  431SOL    HW1 1303   2.382   0.336   1.508
  431SOL    HW2 1304   2.219   0.334   1.503
  432SOL     OW 1305   2.093   1.713   0.483
  432SOL    HW1 1306   2.127   1.790   0.537
  432SOL    HW2 1307   2.137   1.713   0.393
  433SOL     OW 1308   2.092   1.434   0.538
  433SOL    HW1 1309   2.066   1.530   0.538
  433SOL    HW2 1310   2.021   1.380   0.583
  434SOL     OW 1311   2.102   1.091   0.886
  434SOL    HW1 1312   2.116   1.007   0.938
  434SOL    HW2 1313   2.047   1.155   0.941
  435SOL     OW 1314   2.482   1.786   1.439
  435SOL    HW1 1315   2.390   1.769   1.474
  435SOL    HW2 1316   2.510   1.878   1.465
  436SOL     OW 1317   2.468   0.964   0.123
  436SOL    HW1 1318   2.475   1.048   0.069
  436SOL    HW2 1319   2.514   0.977   0.211
  437SOL     OW 1320   1.984   0.643   0.563
  437SOL    HW1 1321   1.939   0.555   0.580
  437SOL    HW2 1322   1.983   0.697   0.647
  438SOL     OW 1323   1.889   1.596   0.117
  438SOL    HW1 1324   1.870   1.500   0.138
  438SOL    HW2 1325   1.856   1.654   0.192
  439SOL     OW 1326   1.975   0.737   1.597
  439SOL    HW1 1327   2.063   0.724   1.642
  439SOL    HW2 1328   1.962   0.834   1.575
  440SOL     OW 1329   2.475   1.365   0.726
  440SOL    HW1 1330   2.426   1.278   0.735
  440SOL    HW2 1331   2.452   1.408   0.639
  441SOL     OW 1332   2.671   0.004   0.502
  441SOL    HW1 1333   2.711   0.095   0.493
  441SOL    HW2 1334   2.571   0.012   0.508
  442SOL     OW 1335   2.059   0.976   1.264
  442SOL    HW1 1336   2.148   0.931   1.250
  442SOL    HW2 1337   1.986   0.911   1.245
  443SOL     OW 1338   2.179   0.251   1.801
  443SOL    HW1 1339   2.250   0.322   1.807
  443SOL    HW2 1340   2.091   0.290   1.829
  444SOL     OW 1341   2.460   0.729   0.270
  444SOL    HW1 1342   2.484   0.798   0.202
  444SOL    HW2 1343   2.382   0.762   0.324
  445SOL     OW 1344   1.938   0.811   0.789
  445SOL    HW1 1345   2.037   0.799   0.798
  445SOL    HW2 1346   1.914   0.906   0.810
  446SOL     OW 1347   1.992   1.821   1.571
  446SOL    HW1 1348   1.982   1.806   1.670
  446SOL    HW2 1349   1.906   1.857   1.535
  447SOL     OW 1350   2.412   0.196   0.885
  447SOL    HW1 1351   2.407   0.191   0.985
  447SOL    HW2 1352   2.414   0.292   0.856
  448SOL     OW 1353   2.213   1.801   0.853
  448SOL    HW1 1354   2.263   1.715   0.859
  448SOL    HW2 1355   2.278   1.878   0.850
  449SOL     OW 1356   2.183   0.943   0.242
  449SOL    HW1 1357   2.265   0.982   0.200
  449SOL    HW2 1358   2.156   0.861   0.193
  450SOL     OW 1359   2.323   1.266   1.727
  450SOL    HW1 1360   2.273   1.267   1.641
  450SOL    HW2 1361   2.260   1.248   1.803
  451SOL     OW 1362   2.064   0.285   1.498
  451SOL    HW1 1363   1.984   0.345   1.485
  451SOL    HW2 1364   2.054   0.236   1.584
  452SOL     OW 1365   2.326   1.743   0.323
  452SOL    HW1 1366   2.359   1.782   0.409
  452SOL    HW2 1367   2.402   1.736   0.258
  453SOL     OW 1368   2.111   1.785   1.241
  453SOL    HW1 1369   2.168   1.720   1.291
  453SOL    HW2 1370   2.095   1.752   1.148
  454SOL     OW 1371   2.244   0.700   0.480
  454SOL    HW1 1372   2.289   0.610   0.477
  454SOL    HW2 1373   2.150   0.689   0.513
  455SOL     OW 1374   2.476   0.122   0.117
  455SOL    HW1 1375   2.574   0.100   0.124
  455SOL    HW2 1376   2.445   0.105   0.024
  456SOL     OW 1377   2.665   1.402   0.924
  456SOL    HW1 1378   2.755   1.416   0.882
  456SOL    HW2 1379   2.594   1.404   0.853
  457SOL     OW 1380   2.401   0.064   0.512
  457SOL    HW1 1381   2.320   0.065   0.570
  457SOL    HW2 1382   2.404   0.147   0.457
  458SOL     OW 1383   2.159   0.035   0.171
  458SOL    HW1 1384   2.208   0.119   0.150
  458SOL    HW2 1385   2.221  -0.030   0.216
  459SOL     OW 1386   2.321   1.152   0.741
  459SOL    HW1 1387   2.250   1.125   0.806
  459SOL    HW2 1388   2.295   1.124   0.648
  460SOL     OW 1389   1.940   0.556   1.386
  460SOL    HW1 1390   2.032   0.555   1.345
  460SOL    HW2 1391   1.934   0.630   1.453
  461SOL     OW 1392   2.423   0.222   1.147
  461SOL    HW1 1393   2.461   0.138   1.184
  461SOL    HW2 1394   2.335   0.241   1.191
  462SOL     OW 1395   2.350   1.385   0.174
  462SOL    HW1 1396   2.263   1.370   0.221
  462SOL    HW2 1397   2.333   1.411   0.079
  463SOL     OW 1398   2.389   0.256   0.328
  463SOL    HW1 1399   2.416   0.197   0.253
  463SOL    HW2 1400   2.389   0.351   0.297
  464SOL     OW 1401   2.272   0.813   1.251
  464SOL    HW1 1402   2.358   0.825   1.301
  464SOL    HW2 1403   2.230   0.726   1.278
  465SOL     OW 1404   1.926   1.564   1.331
  465SOL    HW1 1405   1.880   1.646   1.297
  465SOL    HW2 1406   2.024   1.583   1.340
  466SOL     OW 1407   2.229   1.100   0.501
  466SOL    HW1 1408   2.222   1.183   0.445
  466SOL    HW2 1409   2.233   1.020   0.441
  467SOL     OW 1410   2.428   0.537   0.865
  467SOL    HW1 1411   2.440   0.603   0.791
  467SOL    HW2 1412   2.474   0.571   0.948
  468SOL     OW 1413   2.216   1.510   1.329
  468SOL    HW1 1414   2.195   1.466   1.242
  468SOL    HW2 1415   2.313   1.536   1.332
  469SOL     OW 1416   2.264   0.751   1.598
  469SOL    HW1 1417   2.332   0.806   1.551
  469SOL    HW2 1418   2.304   0.663   1.625
  470SOL     OW 1419   2.366   0.050   1.740
  470SOL    HW1 1420   2.324  -0.007   1.670
  470SOL    HW2 1421   2.300   0.119   1.772
  471SOL     OW 1422   2.435   0.870   1.029
  471SOL    HW1 1423   2.479   0.959   1.020
  471SOL    HW2 1424   2.372   0.870   1.106
  472SOL     OW 1425   2.169   0.213   1.231
  472SOL    HW1 1426   2.146   0.250   1.321
  472SOL    HW2 1427   2.139   0.118   1.225
  473SOL     OW 1428   1.899   1.310   1.282
  473SOL    HW1 1429   1.952   1.261   1.350
  473SOL    HW2 1430   1.921   1.408   1.287
  474SOL     OW 1431   2.169   0.063   0.618
  474SOL    HW1 1432   2.158   0.157   0.651
  474SOL    HW2 1433   2.164   0.000   0.695
  475SOL     OW 1434   2.212   0.898   1.804
  475SOL    HW1 1435   2.288   0.942   1.852
  475SOL    HW2 1436   2.247   0.851   1.722
  476SOL     OW 1437   2.181   0.810   0.949
  476SOL    HW1 1438   2.274   0.846   0.954
  476SOL    HW2 1439   2.175   0.725   1.001
  477SOL     OW 1440   2.201   0.509   1.006
  477SOL    HW1 1441   2.149   0.426   0.989
  477SOL    HW2 1442   2.278   0.514   0.942
  478SOL     OW 1443   1.870   1.326   0.200
  478SOL    HW1 1444   1.777   1.347   0.169
  478SOL    HW2 1445   1.880   1.227   0.213
  479SOL     OW 1446   1.950   1.801   0.927
  479SOL    HW1 1447   1.908   1.715   0.900
  479SOL    HW2 1448   2.044   1.804   0.893
  480SOL     OW 1449   2.366   1.568   0.910
  480SOL    HW1 1450   2.432   1.642   0.919
  480SOL    HW2 1451   2.410   1.489   0.868
  481SOL     OW 1452   1.902   0.544   1.114
  481SOL    HW1 1453   1.987   0.511   1.073
  481SOL    HW2 1454   1.915   0.559   1.212
  482SOL     OW 1455   2.051   0.520   1.722
  482SOL    HW1 1456   2.110   0.480   1.652
  482SOL    HW2 1457   1.993   0.591   1.681
  483SOL     OW 1458   2.677   0.572   0.325
  483SOL    HW1 1459   2.684   0.483   0.279
  483SOL    HW2 1460   2.583   0.606   0.317
  484SOL     OW 1461   2.114   1.564   1.744
  484SOL    HW1 1462   2.084   1.621   1.820
  484SOL    HW2 1463   2.107   1.467   1.770
  485SOL     OW 1464   2.533   0.464   1.269
  485SOL    HW1 1465   2.499   0.375   1.239
  485SOL    HW2 1466   2.559   0.518   1.189
  486SOL     OW 1467   2.335   0.500   0.191
  486SOL    HW1 1468   2.396   0.580   0.195
  486SOL    HW2 1469   2.240   0.531   0.198
  487SOL     OW 1470   2.021   1.137   1.466
  487SOL    HW1 1471   2.043   1.076   1.542
  487SOL    HW2 1472   2.031   1.088   1.380
  488SOL     OW 1473   1.945   1.258   1.022
  488SOL    HW1 1474   1.940   1.257   1.122
  488SOL    HW2 1475   1.862   1.217   0.984
  489SOL     OW 1476   2.550   1.662   1.716
  489SOL    HW1 1477   2.494   1.743   1.725
  489SOL    HW2 1478   2.602   1.666   1.630
  490SOL     OW 1479   1.992   1.794   1.851
  490SOL    HW1 1480   1.951   1.720   1.904
  490SOL    HW2 1481   2.056   1.845   1.909
  491SOL     OW 1482   2.125   0.326   0.720
  491SOL    HW1 1483   2.046   0.377   0.686
  491SOL    HW2 1484   2.116   0.311   0.818
  492SOL     OW 1485   2.234   1.288   1.490
  492SOL    HW1 1486   2.221   1.381   1.456
  492SOL    HW2 1487   2.150   1.236   1.477
  493SOL     OW 1488   2.901   1.098   0.696
  493SOL    HW1 1489   2.831   1.051   0.750
  493SOL    HW2 1490   2.960   1.030   0.653
  494SOL     OW 1491   2.452   1.487   0.491
  494SOL    HW1 1492   2.494   1.429   0.421
  494SOL    HW2 1493   2.408   1.566   0.447
  495SOL     OW 1494   2.117   1.348   0.290
  495SOL    HW1 1495   2.021   1.349   0.263
  495SOL    HW2 1496   2.129   1.401   0.374
  496SOL     OW 1497   1.967   1.013   1.726
  496SOL    HW1 1498   1.890   0.980   1.780
  496SOL    HW2 1499   2.052   0.983   1.768
  497SOL     OW 1500   2.534   0.203   1.489
  497SOL    HW1 1501   2.624   0.187   1.449
  497SOL    HW2 1502   2.542   0.208   1.588
  498SOL     OW 1503   1.937   0.345   0.033
  498SOL    HW1 1504   1.845   0.317   0.004
  498SOL    HW2 1505   1.968   0.422  -0.023
  499SOL     OW 1506   1.934   0.166   0.318
  499SOL    HW1 1507   1.917   0.249   0.264
  499SOL    HW2 1508   2.024   0.129   0.296
  500SOL     OW 1509   2.475   0.842   1.431
  500SOL    HW1 1510   2.531   0.923   1.414
  500SOL    HW2 1511   2.534   0.762   1.434
  501SOL     OW 1512   2.578   0.565   1.708
  501SOL    HW1 1513   2.597   0.630   1.782
  501SOL    HW2 1514   2.638   0.485   1.717
  502SOL     OW 1515   2.252   1.741   1.560
  502SOL    HW1 1516   2.161   1.782   1.558
  502SOL    HW2 1517   2.245   1.647   1.592
  503SOL     OW 1518   2.456   0.745   0.652
  503SOL    HW1 1519   2.506   0.830   0.633
  503SOL    HW2 1520   2.368   0.747   0.604
  504SOL     OW 1521   2.083   1.314   1.844
  504SOL    HW1 1522   2.018   1.241   1.823
  504SOL    HW2 1523   2.087   1.328   1.942
  505SOL     OW 1524   1.941   1.240   0.653
  505SOL    HW1 1525   1.940   1.193   0.741
  505SOL    HW2 1526   2.023   1.212   0.602
  506SOL     OW 1527   2.534   1.391   1.624
  506SOL    HW1 1528   2.456   1.341   1.662
  506SOL    HW2 1529   2.531   1.486   1.655
  507SOL     OW 1530   2.290   0.424   0.520
  507SOL    HW1 1531   2.320   0.352   0.458
  507SOL    HW2 1532   2.251   0.384   0.603
  508SOL     OW 1533   2.179   0.547   1.280
  508SOL    HW1 1534   2.217   0.488   1.352
  508SOL    HW2 1535   2.219   0.521   1.192
  509SOL     OW 1536   2.674   1.586   0.687
  509SOL    HW1 1537   2.706   1.596   0.593
  509SOL    HW2 1538   2.595   1.524   0.689
  510SOL     OW 1539   2.480   1.567   1.284
  510SOL    HW1 1540   2.475   1.649   1.341
  510SOL    HW2 1541   2.569   1.564   1.239
  511SOL     OW 1542   1.901   1.077   0.300
  511SOL    HW1 1543   2.000   1.066   0.291
  511SOL    HW2 1544   1.861   0.991   0.332
  512SOL     OW 1545   2.092   0.628   1.975
  512SOL    HW1 1546   1.999   0.626   2.012
  512SOL    HW2 1547   2.093   0.589   1.883
  513SOL     OW 1548   1.881   0.368   2.509
  513SOL    HW1 1549   1.799   0.411   2.548
  513SOL    HW2 1550   1.853   0.295   2.446
  514SOL     OW 1551   2.547   1.012   2.527
  514SOL    HW1 1552   2.616   0.996   2.597
  514SOL    HW2 1553   2.474   1.069   2.565
  515SOL     OW 1554   2.093   1.713   2.345
  515SOL    HW1 1555   2.127   1.790   2.399
  515SOL    HW2 1556   2.137   1.713   2.255
  516SOL     OW 1557   2.092   1.434   2.400
  516SOL    HW1 1558   2.066   1.530   2.400
  516SOL    HW2 1559   2.021   1.380   2.445
  517SOL     OW 1560   2.468   0.964   1.985
  517SOL    HW1 1561   2.475   1.048   1.931
  517SOL    HW2 1562   2.514   0.977   2.073
  518SOL     OW 1563   1.984   0.643   2.425
  518SOL    HW1 1564   1.939   0.555   2.442
  518SOL    HW2 1565   1.983   0.697   2.509
  519SOL     OW 1566   1.889   1.596   1.979
  519SOL    HW1 1567   1.870   1.500   2.000
  519SOL    HW2 1568   1.856   1.654   2.054
  520SOL     OW 1569   2.475   1.365   2.588
  520SOL    HW1 1570   2.426   1.278   2.597
  520SOL    HW2 1571   2.452   1.408   2.501
  521SOL     OW 1572   2.671   0.004   2.364
  521SOL    HW1 1573   2.711   0.095   2.355
  521SOL    HW2 1574   2.571   0.012   2.370
  522SOL     OW 1575   2.460   0.729   2.132
  522SOL    HW1 1576   2.484   0.798   2.064
  522SOL    HW2 1577   2.382   0.762   2.186
  523SOL     OW 1578   1.938   0.811   2.651
  523SOL    HW1 1579   2.037   0.799   2.660
  523SOL    HW2 1580   1.914   0.906   2.672
  524SOL     OW 1581   2.213   1.801   2.715
  524SOL    HW1 1582   2.263   1.715   2.721
  524SOL    HW2 1583   2.278   1.878   2.712
  525SOL     OW 1584   2.183   0.943   2.104
  525SOL    HW1 1585   2.265   0.982   2.062
  525SOL    HW2 1586   2.156   0.861   2.055
  526SOL     OW 1587   2.326   1.743   2.185
  526SOL    HW1 1588   2.359   1.782   2.271
  526SOL    HW2 1589   2.402   1.736   2.120
  527SOL     OW 1590   2.244   0.700   2.342
  527SOL    HW1 1591   2.289   0.610   2.339
  527SOL    HW2 1592   2.150   0.689   2.375
  528SOL     OW 1593   2.476   0.122   1.979
  528SOL    HW1 1594   2.574   0.100   1.986
  528SOL    HW2 1595   2.445   0.105   1.886
  529SOL     OW 1596   2.401   0.064   2.374
  529SOL    HW1 1597   2.320   0.065   2.432
  529SOL    HW2 1598   2.404   0.147   2.319
  530SOL     OW 1599   2.159   0.035   2.033
  530SOL    HW1 1600   2.208   0.119   2.012
  530SOL    HW2 1601   2.221  -0.030   2.078
  531SOL     OW 1602   2.321   1.152   2.603
  531SOL    HW1 1603   2.250   1.125   2.668
  531SOL    HW2 1604   2.295   1.124   2.510
  532SOL     OW 1605   2.350   1.385   2.036
  532SOL    HW1 1606   2.263   1.370   2.083
  532SOL    HW2 1607   2.333   1.411   1.941
  533SOL     OW 1608   2.389   0.256   2.190
  533SOL    HW1 1609   2.416   0.197   2.115
  533SOL    HW2 1610   2.389   0.351   2.159
  534SOL     OW 1611   2.229   1.100   2.363
  534SOL    HW1 1612   2.222   1.183   2.307
  534SOL    HW2 1613   2.233   1.020   2.303
  535SOL     OW 1614   2.169   0.063   2.480
  535SOL    HW1 1615   2.158   0.157   2.513
  535SOL    HW2 1616   2.164   0.000   2.557
  536SOL     OW 1617   1.870   1.326   2.062
  536SOL    HW1 1618   1.777   1.347   2.031
  536SOL    HW2 1619   1.880   1.227   2.075
  537SOL     OW 1620   2.677   0.572   2.187
  537SOL    HW1 1621   2.684   0.483   2.141
  537SOL    HW2 1622   2.583   0.606   2.179
  538SOL     OW 1623   2.335   0.500   2.053
  538SOL    HW1 1624   2.396   0.580   2.057
  538SOL    HW2 1625   2.240   0.531   2.060
  539SOL     OW 1626   2.901   1.098   2.558
  539SOL    HW1 1627   2.831   1.051   2.612
  539SOL    HW2 1628   2.960   1.030   2.515
  540SOL     OW 1629   2.452   1.487   2.353
  540SOL    HW1 1630   2.494   1.429   2.283
  540SOL    HW2 1631   2.408   1.566   2.309
  541SOL     OW 1632   2.117   1.348   2.152
  541SOL    HW1 1633   2.021   1.349   2.125
  541SOL    HW2 1634   2.129   1.401   2.236
  542SOL     OW 1635   1.937   0.345   1.895
  542SOL    HW1 1636   1.845   0.317   1.866
  542SOL    HW2 1637   1.968   0.422   1.839
  543SOL     OW 1638   1.934   0.166   2.180
  543SOL    HW1 1639   1.917   0.249   2.126
  543SOL    HW2 1640   2.024   0.129   2.158
  544SOL     OW 1641   2.456   0.745   2.514
  544SOL    HW1 1642   2.506   0.830   2.495
  544SOL    HW2 1643   2.368   0.747   2.466
  545SOL     OW 1644   2.523   1.790   2.815
  545SOL    HW1 1645   2.477   1.878   2.802
  545SOL    HW2 1646   2.622   1.802   2.808
  546SOL     OW 1647   1.941   1.240   2.515
  546SOL    HW1 1648   1.940   1.193   2.603
  546SOL    HW2 1649   2.023   1.212   2.464
  547SOL     OW 1650   2.290   0.424   2.382
  547SOL    HW1 1651   2.320   0.352   2.320
  547SOL    HW2 1652   2.251   0.384   2.465
  548SOL     OW 1653   2.674   1.586   2.549
  548SOL    HW1 1654   2.706   1.596   2.455
  548SOL    HW2 1655   2.595   1.524   2.551
  549SOL     OW 1656   1.901   1.077   2.162
  549SOL    HW1 1657   2.000   1.066   2.153
  549SOL    HW2 1658   1.861   0.991   2.194
  550SOL     OW 1659   2.092   2.490   0.113
  550SOL    HW1 1660   1.999   2.488   0.150
  550SOL    HW2 1661   2.093   2.451   0.021
  551SOL     OW 1662   2.087   2.137   0.996
  551SOL    HW1 1663   2.122   2.120   1.088
  551SOL    HW2 1664   1.999   2.092   0.984
  552SOL     OW 1665   1.881   2.230   0.647
  552SOL    HW1 1666   1.799   2.273   0.686
  552SOL    HW2 1667   1.853   2.157   0.584
  553SOL     OW 1668   2.712   2.660   1.823
  553SOL    HW1 1669   2.708   2.736   1.888
  553SOL    HW2 1670   2.734   2.696   1.732
  554SOL     OW 1671   2.547   2.874   0.665
  554SOL    HW1 1672   2.616   2.858   0.735
  554SOL    HW2 1673   2.474   2.931   0.703
  555SOL     OW 1674   2.300   2.254   1.499
  555SOL    HW1 1675   2.382   2.198   1.508
  555SOL    HW2 1676   2.219   2.196   1.503
  556SOL     OW 1677   1.984   2.505   0.563
  556SOL    HW1 1678   1.939   2.417   0.580
  556SOL    HW2 1679   1.983   2.559   0.647
  557SOL     OW 1680   1.975   2.599   1.597
  557SOL    HW1 1681   2.063   2.586   1.642
  557SOL    HW2 1682   1.962   2.696   1.575
  558SOL     OW 1683   2.671   1.866   0.502
  558SOL    HW1 1684   2.711   1.957   0.493
  558SOL    HW2 1685   2.571   1.874   0.508
  559SOL     OW 1686   2.179   2.113   1.801
  559SOL    HW1 1687   2.250   2.184   1.807
  559SOL    HW2 1688   2.091   2.152   1.829
  560SOL     OW 1689   2.412   2.058   0.885
  560SOL    HW1 1690   2.407   2.053   0.985
  560SOL    HW2 1691   2.414   2.154   0.856
  561SOL     OW 1692   2.064   2.147   1.498
  561SOL    HW1 1693   1.984   2.207   1.485
  561SOL    HW2 1694   2.054   2.098   1.584
  562SOL     OW 1695   2.244   2.562   0.480
  562SOL    HW1 1696   2.289   2.472   0.477
  562SOL    HW2 1697   2.150   2.551   0.513
  563SOL     OW 1698   2.401   1.926   0.512
  563SOL    HW1 1699   2.320   1.927   0.570
  563SOL    HW2 1700   2.404   2.009   0.457
  564SOL     OW 1701   1.940   2.418   1.386
  564SOL    HW1 1702   2.032   2.417   1.345
  564SOL    HW2 1703   1.934   2.492   1.453
  565SOL     OW 1704   2.423   2.084   1.147
  565SOL    HW1 1705   2.461   2.000   1.184
  565SOL    HW2 1706   2.335   2.103   1.191
  566SOL     OW 1707   2.389   2.118   0.328
  566SOL    HW1 1708   2.416   2.059   0.253
  566SOL    HW2 1709   2.389   2.213   0.297
  567SOL     OW 1710   2.272   2.675   1.251
  567SOL    HW1 1711   2.358   2.687   1.301
  567SOL    HW2 1712   2.230   2.588   1.278
  568SOL     OW 1713   2.428   2.399   0.865
  568SOL    HW1 1714   2.440   2.465   0.791
  568SOL    HW2 1715   2.474   2.433   0.948
  569SOL     OW 1716   2.366   1.912   1.740
  569SOL    HW1 1717   2.324   1.855   1.670
  569SOL    HW2 1718   2.300   1.981   1.772
  570SOL     OW 1719   2.169   2.075   1.231
  570SOL    HW1 1720   2.146   2.112   1.321
  570SOL    HW2 1721   2.139   1.980   1.225
  571SOL     OW 1722   2.169   1.925   0.618
  571SOL    HW1 1723   2.158   2.019   0.651
  571SOL    HW2 1724   2.164   1.862   0.695
  572SOL     OW 1725   2.181   2.672   0.949
  572SOL    HW1 1726   2.274   2.708   0.954
  572SOL    HW2 1727   2.175   2.587   1.001
  573SOL     OW 1728   2.201   2.371   1.006
  573SOL    HW1 1729   2.149   2.288   0.989
  573SOL    HW2 1730   2.278   2.376   0.942
  574SOL     OW 1731   1.902   2.406   1.114
  574SOL    HW1 1732   1.987   2.373   1.073
  574SOL    HW2 1733   1.915   2.421   1.212
  575SOL     OW 1734   2.051   2.382   1.722
  575SOL    HW1 1735   2.110   2.342   1.652
  575SOL    HW2 1736   1.993   2.453   1.681
  576SOL     OW 1737   2.677   2.434   0.325
  576SOL    HW1 1738   2.684   2.345   0.279
  576SOL    HW2 1739   2.583   2.468   0.317
  577SOL     OW 1740   2.533   2.326   1.269
  577SOL    HW1 1741   2.499   2.237   1.239
  577SOL    HW2 1742   2.559   2.380   1.189
  578SOL     OW 1743   2.335   2.362   0.191
  578SOL    HW1 1744   2.396   2.442   0.195
  578SOL    HW2 1745   2.240   2.393   0.198
  579SOL     OW 1746   2.125   2.188   0.720
  579SOL    HW1 1747   2.046   2.239   0.686
  579SOL    HW2 1748   2.116   2.173   0.818
  580SOL     OW 1749   2.534   2.065   1.489
  580SOL    HW1 1750   2.624   2.049   1.449
  580SOL    HW2 1751   2.542   2.070   1.588
  581SOL     OW 1752   1.937   2.207   0.033
  581SOL    HW1 1753   1.845   2.179   0.004
  581SOL    HW2 1754   1.968   2.284  -0.023
  582SOL     OW 1755   1.934   2.028   0.318
  582SOL    HW1 1756   1.917   2.111   0.264
  582SOL    HW2 1757   2.024   1.991   0.296
  583SOL     OW 1758   2.578   2.427   1.708
  583SOL    HW1 1759   2.597   2.492   1.782
  583SOL    HW2 1760   2.638   2.347   1.717
  584SOL     OW 1761   2.290   2.286   0.520
  584SOL    HW1 1762   2.320   2.214   0.458
  584SOL    HW2 1763   2.251   2.246   0.603
  585SOL     OW 1764   2.179   2.409   1.280
  585SOL    HW1 1765   2.217   2.350   1.352
  585SOL    HW2 1766   2.219   2.383   1.192
  586SOL     OW 1767   2.092   2.490   1.975
  586SOL    HW1 1768   1.999   2.488   2.012
  586SOL    HW2 1769   2.093   2.451   1.883
  587SOL     OW 1770   1.881   2.230   2.509
  587SOL    HW1 1771   1.799   2.273   2.548
  587SOL    HW2 1772   1.853   2.157   2.446
  588SOL     OW 1773   2.547   2.874   2.527
  588SOL    HW1 1774   2.616   2.858   2.597
  588SOL    HW2 1775   2.474   2.931   2.565
  589SOL     OW 1776   1.984   2.505   2.425
  589SOL    HW1 1777   1.939   2.417   2.442
  589SOL    HW2 1778   1.983   2.559   2.509
  590SOL     OW 1779   2.671   1.866   2.364
  590SOL    HW1 1780   2.711   1.957   2.355
  590SOL    HW2 1781   2.571   1.874   2.370
  591SOL     OW 1782   1.938   2.673   2.651
  591SOL    HW1 1783   2.037   2.661   2.660
  591SOL    HW2 1784   1.914   2.768   2.672
  592SOL     OW 1785   2.244   2.562   2.342
  592SOL    HW1 1786   2.289   2.472   2.339
  592SOL    HW2 1787   2.150   2.551   2.375
  593SOL     OW 1788   2.476   1.984   1.979
  593SOL    HW1 1789   2.574   1.962   1.986
  593SOL    HW2 1790   2.445   1.967   1.886
  594SOL     OW 1791   2.401   1.926   2.374
  594SOL    HW1 1792   2.320   1.927   2.432
  594SOL    HW2 1793   2.404   2.009   2.319
  595SOL     OW 1794   2.159   1.897   2.033
  595SOL    HW1 1795   2.208   1.981   2.012
  595SOL    HW2 1796   2.221   1.832   2.078
  596SOL     OW 1797   2.389   2.118   2.190
  596SOL    HW1 1798   2.416   2.059   2.115
  596SOL    HW2 1799   2.389   2.213   2.159
  597SOL     OW 1800   2.169   1.925   2.480
  597SOL    HW1 1801   2.158   2.019   2.513
  597SOL    HW2 1802   2.164   1.862   2.557
  598SOL     OW 1803   2.677   2.434   2.187
  598SOL    HW1 1804   2.684   2.345   2.141
  598SOL    HW2 1805   2.583   2.468   2.179
  599SOL     OW 1806   2.335   2.362   2.053
  599SOL    HW1 1807   2.396   2.442   2.057
  599SOL    HW2 1808   2.240   2.393   2.060
  600SOL     OW 1809   1.937   2.207   1.895
  600SOL    HW1 1810   1.845   2.179   1.866
  600SOL    HW2 1811   1.968   2.284   1.839
  601SOL     OW 1812   1.934   2.028   2.180
  601SOL    HW1 1813   1.917   2.111   2.126
  601SOL    HW2 1814   2.024   1.991   2.158
  602SOL     OW 1815   2.290   2.286   2.382
  602SOL    HW1 1816   2.320   2.214   2.320
  602SOL    HW2 1817   2.251   2.246   2.465
   2.66554   2.66554   2.66554
