mobley_2310185_GMX.gro created by acpype (v: 2023.10.27) on Thu May 14 13:16:33 2026
 1356
    1MOL     C1    1   1.141   1.122   1.238
    1MOL     C2    2   1.226   1.240   1.196
    1MOL     O1    3   1.187   1.281   1.066
    1MOL     H1    4   1.169   1.088   1.338
    1MOL     H2    5   1.035   1.149   1.238
    1MOL     H3    6   1.153   1.039   1.168
    1MOL     H4    7   1.332   1.213   1.193
    1MOL     H5    8   1.212   1.324   1.265
    1MOL     H6    9   1.251   1.243   1.003
    2SOL     OW   10   0.230   0.628   0.113
    2SOL    HW1   11   0.137   0.626   0.150
    2SOL    HW2   12   0.231   0.589   0.021
    3SOL     OW   13   0.225   0.275   0.996
    3SOL    HW1   14   0.260   0.258   1.088
    3SOL    HW2   15   0.137   0.230   0.984
    4SOL     OW   16   0.019   0.368   0.647
    4SOL    HW1   17  -0.063   0.411   0.686
    4SOL    HW2   18  -0.009   0.295   0.584
    5SOL     OW   19   0.569   1.275   1.165
    5SOL    HW1   20   0.476   1.268   1.128
    5SOL    HW2   21   0.580   1.364   1.209
    6SOL     OW   22   1.555   1.511   0.703
    6SOL    HW1   23   1.498   1.495   0.784
    6SOL    HW2   24   1.496   1.521   0.623
    7SOL     OW   25   1.135   0.703   0.717
    7SOL    HW1   26   1.192   0.781   0.692
    7SOL    HW2   27   1.075   0.729   0.793
    8SOL     OW   28   1.755   0.607   0.231
    8SOL    HW1   29   1.743   0.594   0.132
    8SOL    HW2   30   1.725   0.526   0.280
    9SOL     OW   31   0.768   1.144   1.023
    9SOL    HW1   32   0.690   1.161   1.083
    9SOL    HW2   33   0.802   1.231   0.987
   10SOL     OW   34   0.850   0.798   1.823
   10SOL    HW1   35   0.846   0.874   1.888
   10SOL    HW2   36   0.872   0.834   1.732
   11SOL     OW   37   0.685   1.012   0.665
   11SOL    HW1   38   0.754   0.996   0.735
   11SOL    HW2   39   0.612   1.069   0.703
   12SOL     OW   40   0.686   1.161   1.803
   12SOL    HW1   41   0.746   1.240   1.817
   12SOL    HW2   42   0.600   1.192   1.762
   13SOL     OW   43   0.335   1.435   1.061
   13SOL    HW1   44   0.257   1.404   1.008
   13SOL    HW2   45   0.393   1.493   1.004
   14SOL     OW   46   1.460   1.505   1.339
   14SOL    HW1   47   1.484   1.599   1.365
   14SOL    HW2   48   1.444   1.451   1.421
   15SOL     OW   49   0.438   0.392   1.499
   15SOL    HW1   50   0.520   0.336   1.508
   15SOL    HW2   51   0.357   0.334   1.503
   16SOL     OW   52   1.603   0.447   0.737
   16SOL    HW1   53   1.529   0.493   0.687
   16SOL    HW2   54   1.654   0.515   0.790
   17SOL     OW   55   0.231   1.713   0.483
   17SOL    HW1   56   0.265   1.790   0.537
   17SOL    HW2   57   0.275   1.713   0.393
   18SOL     OW   58   1.127   1.341   1.690
   18SOL    HW1   59   1.174   1.341   1.778
   18SOL    HW2   60   1.079   1.254   1.679
   19SOL     OW   61   0.230   1.434   0.538
   19SOL    HW1   62   0.204   1.530   0.538
   19SOL    HW2   63   0.159   1.380   0.583
   20SOL     OW   64   0.240   1.091   0.886
   20SOL    HW1   65   0.254   1.007   0.938
   20SOL    HW2   66   0.185   1.155   0.941
   21SOL     OW   67   0.620   1.786   1.439
   21SOL    HW1   68   0.528   1.769   1.474
   21SOL    HW2   69   0.648   1.878   1.465
   22SOL     OW   70   0.606   0.964   0.123
   22SOL    HW1   71   0.613   1.048   0.069
   22SOL    HW2   72   0.652   0.977   0.211
   23SOL     OW   73   1.594   0.114   1.480
   23SOL    HW1   74   1.576   0.181   1.408
   23SOL    HW2   75   1.591   0.160   1.569
   24SOL     OW   76   0.122   0.643   0.563
   24SOL    HW1   77   0.077   0.555   0.580
   24SOL    HW2   78   0.121   0.697   0.647
   25SOL     OW   79   1.842   1.767   0.359
   25SOL    HW1   80   1.896   1.738   0.439
   25SOL    HW2   81   1.872   1.857   0.330
   26SOL     OW   82   0.027   1.596   0.117
   26SOL    HW1   83   0.008   1.500   0.138
   26SOL    HW2   84  -0.006   1.654   0.192
   27SOL     OW   85   1.689   0.922   0.612
   27SOL    HW1   86   1.784   0.893   0.620
   27SOL    HW2   87   1.681   0.987   0.537
   28SOL     OW   88   1.641   1.108   0.432
   28SOL    HW1   89   1.727   1.110   0.380
   28SOL    HW2   90   1.655   1.155   0.520
   29SOL     OW   91   0.113   0.737   1.597
   29SOL    HW1   92   0.201   0.724   1.642
   29SOL    HW2   93   0.100   0.834   1.575
   30SOL     OW   94   0.613   1.365   0.726
   30SOL    HW1   95   0.564   1.278   0.735
   30SOL    HW2   96   0.590   1.408   0.639
   31SOL     OW   97   1.293   1.228   1.423
   31SOL    HW1   98   1.330   1.155   1.365
   31SOL    HW2   99   1.345   1.233   1.508
   32SOL     OW  100   0.809   0.004   0.502
   32SOL    HW1  101   0.849   0.095   0.493
   32SOL    HW2  102   0.709   0.012   0.508
   33SOL     OW  103   0.197   0.976   1.264
   33SOL    HW1  104   0.286   0.931   1.250
   33SOL    HW2  105   0.124   0.911   1.245
   34SOL     OW  106   1.525   0.999   0.190
   34SOL    HW1  107   1.462   0.923   0.203
   34SOL    HW2  108   1.573   1.017   0.276
   35SOL     OW  109   1.187   1.792   1.616
   35SOL    HW1  110   1.211   1.852   1.540
   35SOL    HW2  111   1.194   1.697   1.586
   36SOL     OW  112   0.317   0.251   1.801
   36SOL    HW1  113   0.388   0.322   1.807
   36SOL    HW2  114   0.229   0.290   1.829
   37SOL     OW  115   1.466   1.417   0.953
   37SOL    HW1  116   1.407   1.423   1.033
   37SOL    HW2  117   1.451   1.329   0.907
   38SOL     OW  118   1.667   1.714   0.572
   38SOL    HW1  119   1.626   1.691   0.484
   38SOL    HW2  120   1.649   1.640   0.637
   39SOL     OW  121   0.598   0.729   0.270
   39SOL    HW1  122   0.622   0.798   0.202
   39SOL    HW2  123   0.520   0.762   0.324
   40SOL     OW  124   1.281   0.345   0.944
   40SOL    HW1  125   1.195   0.295   0.931
   40SOL    HW2  126   1.343   0.291   1.000
   41SOL     OW  127   1.576   1.662   0.307
   41SOL    HW1  128   1.665   1.708   0.310
   41SOL    HW2  129   1.555   1.638   0.212
   42SOL     OW  130   0.807   0.605   1.465
   42SOL    HW1  131   0.760   0.602   1.554
   42SOL    HW2  132   0.756   0.550   1.399
   43SOL     OW  133   1.394   0.469   1.674
   43SOL    HW1  134   1.374   0.512   1.762
   43SOL    HW2  135   1.472   0.407   1.683
   44SOL     OW  136   0.973   0.890   1.572
   44SOL    HW1  137   1.019   0.806   1.543
   44SOL    HW2  138   0.917   0.924   1.497
   45SOL     OW  139   0.991   0.410   1.242
   45SOL    HW1  140   0.914   0.444   1.296
   45SOL    HW2  141   0.957   0.359   1.163
   46SOL     OW  142   1.041   0.701   0.429
   46SOL    HW1  143   1.067   0.697   0.525
   46SOL    HW2  144   0.956   0.650   0.415
   47SOL     OW  145   0.076   0.811   0.789
   47SOL    HW1  146   0.175   0.799   0.798
   47SOL    HW2  147   0.052   0.906   0.810
   48SOL     OW  148   0.130   1.821   1.571
   48SOL    HW1  149   0.120   1.806   1.670
   48SOL    HW2  150   0.044   1.857   1.535
   49SOL     OW  151   0.865   0.348   0.195
   49SOL    HW1  152   0.924   0.411   0.146
   49SOL    HW2  153   0.884   0.254   0.166
   50SOL     OW  154   1.719   0.585   1.831
   50SOL    HW1  155   1.693   0.674   1.795
   50SOL    HW2  156   1.717   0.517   1.758
   51SOL     OW  157   1.362   1.144   0.545
   51SOL    HW1  158   1.445   1.115   0.497
   51SOL    HW2  159   1.313   1.211   0.489
   52SOL     OW  160   0.550   0.196   0.885
   52SOL    HW1  161   0.545   0.191   0.985
   52SOL    HW2  162   0.552   0.292   0.856
   53SOL     OW  163   1.008   1.456   0.477
   53SOL    HW1  164   0.962   1.528   0.425
   53SOL    HW2  165   1.004   1.476   0.575
   54SOL     OW  166   0.351   1.801   0.853
   54SOL    HW1  167   0.401   1.715   0.859
   54SOL    HW2  168   0.416   1.878   0.850
   55SOL     OW  169   1.795   1.066   0.873
   55SOL    HW1  170   1.733   1.051   0.797
   55SOL    HW2  171   1.743   1.077   0.958
   56SOL     OW  172   1.227   1.550   1.506
   56SOL    HW1  173   1.233   1.473   1.570
   56SOL    HW2  174   1.175   1.524   1.426
   57SOL     OW  175   0.321   0.943   0.242
   57SOL    HW1  176   0.403   0.982   0.200
   57SOL    HW2  177   0.294   0.861   0.193
   58SOL     OW  178   1.458   0.735   0.728
   58SOL    HW1  179   1.453   0.670   0.803
   58SOL    HW2  180   1.538   0.794   0.741
   59SOL     OW  181   0.461   1.266   1.727
   59SOL    HW1  182   0.411   1.267   1.641
   59SOL    HW2  183   0.398   1.248   1.803
   60SOL     OW  184   1.111   1.776   0.237
   60SOL    HW1  185   1.051   1.714   0.287
   60SOL    HW2  186   1.142   1.732   0.152
   61SOL     OW  187   0.202   0.285   1.498
   61SOL    HW1  188   0.122   0.345   1.485
   61SOL    HW2  189   0.192   0.236   1.584
   62SOL     OW  190   1.632   1.377   0.081
   62SOL    HW1  191   1.600   1.471   0.071
   62SOL    HW2  192   1.556   1.314   0.069
   63SOL     OW  193   0.464   1.743   0.323
   63SOL    HW1  194   0.497   1.782   0.409
   63SOL    HW2  195   0.540   1.736   0.258
   64SOL     OW  196   1.400   0.107   0.426
   64SOL    HW1  197   1.376   0.070   0.336
   64SOL    HW2  198   1.499   0.123   0.430
   65SOL     OW  199   0.249   1.785   1.241
   65SOL    HW1  200   0.306   1.720   1.291
   65SOL    HW2  201   0.233   1.752   1.148
   66SOL     OW  202   0.940   1.698   0.904
   66SOL    HW1  203   1.020   1.641   0.925
   66SOL    HW2  204   0.891   1.658   0.827
   67SOL     OW  205   0.382   0.700   0.480
   67SOL    HW1  206   0.427   0.610   0.477
   67SOL    HW2  207   0.288   0.689   0.513
   68SOL     OW  208   1.547   0.222   1.729
   68SOL    HW1  209   1.542   0.259   1.821
   68SOL    HW2  210   1.475   0.153   1.717
   69SOL     OW  211   0.614   0.122   0.117
   69SOL    HW1  212   0.712   0.100   0.124
   69SOL    HW2  213   0.583   0.105   0.024
   70SOL     OW  214   0.781   0.264   1.749
   70SOL    HW1  215   0.848   0.203   1.792
   70SOL    HW2  216   0.708   0.283   1.814
   71SOL     OW  217   0.888   1.514   1.195
   71SOL    HW1  218   0.865   1.489   1.101
   71SOL    HW2  219   0.949   1.445   1.234
   72SOL     OW  220   1.351   0.590   1.433
   72SOL    HW1  221   1.379   0.547   1.518
   72SOL    HW2  222   1.376   0.686   1.434
   73SOL     OW  223   0.803   1.402   0.924
   73SOL    HW1  224   0.893   1.416   0.882
   73SOL    HW2  225   0.732   1.404   0.853
   74SOL     OW  226   0.922   0.503   0.899
   74SOL    HW1  227   0.897   0.494   0.803
   74SOL    HW2  228   0.970   0.421   0.930
   75SOL     OW  229   0.539   0.064   0.512
   75SOL    HW1  230   0.458   0.065   0.570
   75SOL    HW2  231   0.542   0.147   0.457
   76SOL     OW  232   1.434   1.188   0.041
   76SOL    HW1  233   1.466   1.112   0.098
   76SOL    HW2  234   1.342   1.215   0.071
   77SOL     OW  235   0.297   0.035   0.171
   77SOL    HW1  236   0.346   0.119   0.150
   77SOL    HW2  237   0.359  -0.030   0.216
   78SOL     OW  238   0.935   0.236   0.480
   78SOL    HW1  239   0.887   0.277   0.402
   78SOL    HW2  240   1.034   0.234   0.461
   79SOL     OW  241   1.076   0.683   1.464
   79SOL    HW1  242   0.996   0.622   1.467
   79SOL    HW2  243   1.157   0.630   1.440
   80SOL     OW  244   1.227   1.570   0.793
   80SOL    HW1  245   1.248   1.644   0.728
   80SOL    HW2  246   1.295   1.570   0.866
   81SOL     OW  247   0.459   1.152   0.741
   81SOL    HW1  248   0.388   1.125   0.806
   81SOL    HW2  249   0.433   1.124   0.648
   82SOL     OW  250   1.271   1.797   0.591
   82SOL    HW1  251   1.315   1.861   0.527
   82SOL    HW2  252   1.221   1.849   0.661
   83SOL     OW  253   1.032   0.549   0.016
   83SOL    HW1  254   0.991   0.631  -0.023
   83SOL    HW2  255   1.096   0.575   0.089
   84SOL     OW  256   0.078   0.556   1.386
   84SOL    HW1  257   0.170   0.555   1.345
   84SOL    HW2  258   0.072   0.630   1.453
   85SOL     OW  259   0.561   0.222   1.147
   85SOL    HW1  260   0.599   0.138   1.184
   85SOL    HW2  261   0.473   0.241   1.191
   86SOL     OW  262   0.866   0.454   0.642
   86SOL    HW1  263   0.834   0.526   0.580
   86SOL    HW2  264   0.890   0.373   0.589
   87SOL     OW  265   1.017   0.039   0.753
   87SOL    HW1  266   0.945   0.044   0.684
   87SOL    HW2  267   0.993  -0.030   0.822
   88SOL     OW  268   1.429   1.173   0.867
   88SOL    HW1  269   1.374   1.089   0.860
   88SOL    HW2  270   1.455   1.202   0.775
   89SOL     OW  271   1.466   0.590   0.992
   89SOL    HW1  272   1.436   0.495   0.999
   89SOL    HW2  273   1.539   0.606   1.058
   90SOL     OW  274   1.857   0.833   0.377
   90SOL    HW1  275   1.899   0.769   0.441
   90SOL    HW2  276   1.819   0.782   0.299
   91SOL     OW  277   0.488   1.385   0.174
   91SOL    HW1  278   0.401   1.370   0.221
   91SOL    HW2  279   0.471   1.411   0.079
   92SOL     OW  280   1.664   1.280   0.657
   92SOL    HW1  281   1.763   1.288   0.671
   92SOL    HW2  282   1.619   1.364   0.688
   93SOL     OW  283   1.390   0.575   0.078
   93SOL    HW1  284   1.336   0.554   0.159
   93SOL    HW2  285   1.481   0.534   0.087
   94SOL     OW  286   0.527   0.256   0.328
   94SOL    HW1  287   0.554   0.197   0.253
   94SOL    HW2  288   0.527   0.351   0.297
   95SOL     OW  289   1.754   1.223   1.588
   95SOL    HW1  290   1.845   1.184   1.575
   95SOL    HW2  291   1.762   1.319   1.612
   96SOL     OW  292   1.064   1.347   1.340
   96SOL    HW1  293   0.984   1.324   1.395
   96SOL    HW2  294   1.147   1.321   1.389
   97SOL     OW  295   1.592   1.629   1.625
   97SOL    HW1  296   1.619   1.663   1.535
   97SOL    HW2  297   1.671   1.591   1.671
   98SOL     OW  298   1.638   1.099   1.079
   98SOL    HW1  299   1.643   1.180   1.138
   98SOL    HW2  300   1.552   1.101   1.028
   99SOL     OW  301   0.915   0.089   1.402
   99SOL    HW1  302   0.940   0.069   1.307
   99SOL    HW2  303   0.987   0.145   1.444
  100SOL     OW  304   0.980   1.116   1.719
  100SOL    HW1  305   0.881   1.122   1.729
  100SOL    HW2  306   1.003   1.036   1.663
  101SOL     OW  307   0.705   1.050   0.368
  101SOL    HW1  308   0.691   1.057   0.467
  101SOL    HW2  309   0.789   0.999   0.350
  102SOL     OW  310   0.410   0.813   1.251
  102SOL    HW1  311   0.496   0.825   1.301
  102SOL    HW2  312   0.368   0.726   1.278
  103SOL     OW  313   1.274   0.386   1.262
  103SOL    HW1  314   1.295   0.460   1.326
  103SOL    HW2  315   1.185   0.403   1.219
  104SOL     OW  316   0.064   1.564   1.331
  104SOL    HW1  317   0.018   1.646   1.297
  104SOL    HW2  318   0.162   1.583   1.340
  105SOL     OW  319   0.367   1.100   0.501
  105SOL    HW1  320   0.360   1.183   0.445
  105SOL    HW2  321   0.371   1.020   0.441
  106SOL     OW  322   0.566   0.537   0.865
  106SOL    HW1  323   0.578   0.603   0.791
  106SOL    HW2  324   0.612   0.571   0.948
  107SOL     OW  325   1.252   1.348   0.388
  107SOL    HW1  326   1.302   1.425   0.428
  107SOL    HW2  327   1.157   1.350   0.420
  108SOL     OW  328   1.582   0.639   0.472
  108SOL    HW1  329   1.551   0.700   0.545
  108SOL    HW2  330   1.632   0.691   0.403
  109SOL     OW  331   0.354   1.510   1.329
  109SOL    HW1  332   0.333   1.466   1.242
  109SOL    HW2  333   0.451   1.536   1.332
  110SOL     OW  334   0.402   0.751   1.598
  110SOL    HW1  335   0.470   0.806   1.551
  110SOL    HW2  336   0.442   0.663   1.625
  111SOL     OW  337   1.587   0.779   1.670
  111SOL    HW1  338   1.495   0.817   1.665
  111SOL    HW2  339   1.647   0.826   1.605
  112SOL     OW  340   1.013   0.105   1.770
  112SOL    HW1  341   1.019   0.190   1.718
  112SOL    HW2  342   1.045   0.029   1.713
  113SOL     OW  343   0.504   0.050   1.740
  113SOL    HW1  344   0.462  -0.007   1.670
  113SOL    HW2  345   0.438   0.119   1.772
  114SOL     OW  346   0.573   0.870   1.029
  114SOL    HW1  347   0.617   0.959   1.020
  114SOL    HW2  348   0.510   0.870   1.106
  115SOL     OW  349   1.360   0.862   1.045
  115SOL    HW1  350   1.285   0.862   0.979
  115SOL    HW2  351   1.397   0.770   1.054
  116SOL     OW  352   1.209   0.525   0.275
  116SOL    HW1  353   1.222   0.441   0.329
  116SOL    HW2  354   1.180   0.599   0.335
  117SOL     OW  355   0.307   0.213   1.231
  117SOL    HW1  356   0.284   0.250   1.321
  117SOL    HW2  357   0.277   0.118   1.225
  118SOL     OW  358   0.037   1.310   1.282
  118SOL    HW1  359   0.090   1.261   1.350
  118SOL    HW2  360   0.059   1.408   1.287
  119SOL     OW  361   0.732   0.634   1.064
  119SOL    HW1  362   0.791   0.608   0.988
  119SOL    HW2  363   0.704   0.730   1.053
  120SOL     OW  364   1.728   0.935   1.854
  120SOL    HW1  365   1.682   0.928   1.765
  120SOL    HW2  366   1.666   0.979   1.920
  121SOL     OW  367   0.307   0.063   0.618
  121SOL    HW1  368   0.296   0.157   0.651
  121SOL    HW2  369   0.302   0.000   0.695
  122SOL     OW  370   1.622   0.367   0.374
  122SOL    HW1  371   1.624   0.291   0.438
  122SOL    HW2  372   1.574   0.444   0.414
  123SOL     OW  373   1.023   0.766   0.966
  123SOL    HW1  374   1.038   0.787   1.062
  123SOL    HW2  375   0.993   0.671   0.957
  124SOL     OW  376   0.980   1.573   1.700
  124SOL    HW1  377   0.960   1.617   1.612
  124SOL    HW2  378   1.019   1.482   1.684
  125SOL     OW  379   1.859   1.518   1.605
  125SOL    HW1  380   1.873   1.545   1.510
  125SOL    HW2  381   1.942   1.540   1.658
  126SOL     OW  382   0.350   0.898   1.804
  126SOL    HW1  383   0.426   0.942   1.852
  126SOL    HW2  384   0.385   0.851   1.722
  127SOL     OW  385   1.540   0.274   0.125
  127SOL    HW1  386   1.479   0.199   0.148
  127SOL    HW2  387   1.562   0.326   0.208
  128SOL     OW  388   1.303   0.838   0.042
  128SOL    HW1  389   1.337   0.745   0.057
  128SOL    HW2  390   1.321   0.865  -0.053
  129SOL     OW  391   1.068   1.333   0.849
  129SOL    HW1  392   1.075   1.249   0.794
  129SOL    HW2  393   1.130   1.402   0.813
  130SOL     OW  394   0.319   0.810   0.949
  130SOL    HW1  395   0.412   0.846   0.954
  130SOL    HW2  396   0.313   0.725   1.001
  131SOL     OW  397   0.339   0.509   1.006
  131SOL    HW1  398   0.287   0.426   0.989
  131SOL    HW2  399   0.416   0.514   0.942
  132SOL     OW  400   1.138   0.380   1.678
  132SOL    HW1  401   1.093   0.443   1.742
  132SOL    HW2  402   1.231   0.411   1.661
  133SOL     OW  403   1.160   0.207   1.477
  133SOL    HW1  404   1.160   0.271   1.554
  133SOL    HW2  405   1.188   0.255   1.394
  134SOL     OW  406   0.008   1.326   0.200
  134SOL    HW1  407  -0.085   1.347   0.169
  134SOL    HW2  408   0.018   1.227   0.213
  135SOL     OW  409   0.088   1.801   0.927
  135SOL    HW1  410   0.046   1.715   0.900
  135SOL    HW2  411   0.182   1.804   0.893
  136SOL     OW  412   0.504   1.568   0.910
  136SOL    HW1  413   0.570   1.642   0.919
  136SOL    HW2  414   0.548   1.489   0.868
  137SOL     OW  415   1.002   0.796   1.238
  137SOL    HW1  416   1.043   0.764   1.324
  137SOL    HW2  417   0.906   0.769   1.235
  138SOL     OW  418   0.040   0.544   1.114
  138SOL    HW1  419   0.125   0.511   1.073
  138SOL    HW2  420   0.053   0.559   1.212
  139SOL     OW  421   0.189   0.520   1.722
  139SOL    HW1  422   0.248   0.480   1.652
  139SOL    HW2  423   0.131   0.591   1.681
  140SOL     OW  424   1.369   0.950   1.660
  140SOL    HW1  425   1.408   1.039   1.680
  140SOL    HW2  426   1.379   0.930   1.563
  141SOL     OW  427   0.815   0.572   0.325
  141SOL    HW1  428   0.822   0.483   0.279
  141SOL    HW2  429   0.721   0.606   0.317
  142SOL     OW  430   1.657   0.604   1.206
  142SOL    HW1  431   1.619   0.535   1.268
  142SOL    HW2  432   1.739   0.568   1.162
  143SOL     OW  433   0.252   1.564   1.744
  143SOL    HW1  434   0.222   1.621   1.820
  143SOL    HW2  435   0.245   1.467   1.770
  144SOL     OW  436   0.671   0.464   1.269
  144SOL    HW1  437   0.637   0.375   1.239
  144SOL    HW2  438   0.697   0.518   1.189
  145SOL     OW  439   0.930   1.678   1.465
  145SOL    HW1  440   0.906   1.660   1.370
  145SOL    HW2  441   0.960   1.772   1.475
  146SOL     OW  442   0.473   0.500   0.191
  146SOL    HW1  443   0.534   0.580   0.195
  146SOL    HW2  444   0.378   0.531   0.198
  147SOL     OW  445   0.159   1.137   1.466
  147SOL    HW1  446   0.181   1.076   1.542
  147SOL    HW2  447   0.169   1.088   1.380
  148SOL     OW  448   1.302   0.855   0.309
  148SOL    HW1  449   1.216   0.824   0.351
  148SOL    HW2  450   1.298   0.841   0.210
  149SOL     OW  451   1.759   1.747   1.154
  149SOL    HW1  452   1.820   1.777   1.081
  149SOL    HW2  453   1.721   1.658   1.132
  150SOL     OW  454   1.252   1.731   1.128
  150SOL    HW1  455   1.336   1.736   1.074
  150SOL    HW2  456   1.229   1.635   1.146
  151SOL     OW  457   0.083   1.258   1.022
  151SOL    HW1  458   0.078   1.257   1.122
  151SOL    HW2  459   0.000   1.217   0.984
  152SOL     OW  460   0.688   1.662   1.716
  152SOL    HW1  461   0.632   1.743   1.725
  152SOL    HW2  462   0.740   1.666   1.630
  153SOL     OW  463   0.903   0.086   0.133
  153SOL    HW1  464   0.954   0.087   0.047
  153SOL    HW2  465   0.959   0.044   0.204
  154SOL     OW  466   1.726   0.135   0.523
  154SOL    HW1  467   1.799   0.118   0.456
  154SOL    HW2  468   1.695   0.048   0.561
  155SOL     OW  469   1.388   1.573   0.477
  155SOL    HW1  470   1.455   1.585   0.403
  155SOL    HW2  471   1.348   1.662   0.500
  156SOL     OW  472   0.130   1.794   1.851
  156SOL    HW1  473   0.089   1.720   1.904
  156SOL    HW2  474   0.194   1.845   1.909
  157SOL     OW  475   1.280   0.927   0.672
  157SOL    HW1  476   1.340   0.846   0.674
  157SOL    HW2  477   1.320   0.996   0.612
  158SOL     OW  478   0.830   1.273   1.422
  158SOL    HW1  479   0.825   1.306   1.517
  158SOL    HW2  480   0.744   1.292   1.376
  159SOL     OW  481   0.672   1.616   0.154
  159SOL    HW1  482   0.681   1.626   0.055
  159SOL    HW2  483   0.632   1.527   0.175
  160SOL     OW  484   1.650   1.720   1.394
  160SOL    HW1  485   1.703   1.730   1.310
  160SOL    HW2  486   1.623   1.810   1.428
  161SOL     OW  487   1.841   0.175   0.963
  161SOL    HW1  488   1.880   0.090   0.927
  161SOL    HW2  489   1.743   0.177   0.944
  162SOL     OW  490   0.263   0.326   0.720
  162SOL    HW1  491   0.184   0.377   0.686
  162SOL    HW2  492   0.254   0.311   0.818
  163SOL     OW  493   1.194   1.612   0.031
  163SOL    HW1  494   1.200   1.519   0.068
  163SOL    HW2  495   1.135   1.612  -0.049
  164SOL     OW  496   0.822   1.002   1.372
  164SOL    HW1  497   0.862   1.001   1.280
  164SOL    HW2  498   0.832   1.094   1.412
  165SOL     OW  499   0.916   0.910   0.291
  165SOL    HW1  500   0.979   0.948   0.223
  165SOL    HW2  501   0.956   0.827   0.330
  166SOL     OW  502   1.504   1.607   0.044
  166SOL    HW1  503   1.412   1.644   0.051
  166SOL    HW2  504   1.542   1.627  -0.046
  167SOL     OW  505   0.372   1.288   1.490
  167SOL    HW1  506   0.359   1.381   1.456
  167SOL    HW2  507   0.288   1.236   1.477
  168SOL     OW  508   1.614   1.292   1.289
  168SOL    HW1  509   1.674   1.295   1.369
  168SOL    HW2  510   1.539   1.356   1.302
  169SOL     OW  511   1.039   1.098   0.696
  169SOL    HW1  512   0.969   1.051   0.750
  169SOL    HW2  513   1.098   1.030   0.653
  170SOL     OW  514   1.014   0.236   0.971
  170SOL    HW1  515   1.006   0.200   0.878
  170SOL    HW2  516   1.012   0.160   1.036
  171SOL     OW  517   0.590   1.487   0.491
  171SOL    HW1  518   0.632   1.429   0.421
  171SOL    HW2  519   0.546   1.566   0.447
  172SOL     OW  520   1.709   0.385   1.381
  172SOL    HW1  521   1.782   0.454   1.385
  172SOL    HW2  522   1.737   0.310   1.322
  173SOL     OW  523   0.255   1.348   0.290
  173SOL    HW1  524   0.159   1.349   0.263
  173SOL    HW2  525   0.267   1.401   0.374
  174SOL     OW  526   0.105   1.013   1.726
  174SOL    HW1  527   0.028   0.980   1.780
  174SOL    HW2  528   0.190   0.983   1.768
  175SOL     OW  529   0.672   0.203   1.489
  175SOL    HW1  530   0.762   0.187   1.449
  175SOL    HW2  531   0.680   0.208   1.588
  176SOL     OW  532   0.075   0.345   0.033
  176SOL    HW1  533  -0.017   0.317   0.004
  176SOL    HW2  534   0.106   0.422  -0.023
  177SOL     OW  535   1.440   0.856   1.398
  177SOL    HW1  536   1.383   0.908   1.335
  177SOL    HW2  537   1.536   0.868   1.374
  178SOL     OW  538   0.072   0.166   0.318
  178SOL    HW1  539   0.055   0.249   0.264
  178SOL    HW2  540   0.162   0.129   0.296
  179SOL     OW  541   1.183   1.335   0.119
  179SOL    HW1  542   1.084   1.324   0.121
  179SOL    HW2  543   1.217   1.350   0.212
  180SOL     OW  544   0.613   0.842   1.431
  180SOL    HW1  545   0.669   0.923   1.414
  180SOL    HW2  546   0.672   0.762   1.434
  181SOL     OW  547   1.493   1.767   0.959
  181SOL    HW1  548   1.526   1.831   0.890
  181SOL    HW2  549   1.559   1.761   1.034
  182SOL     OW  550   0.716   0.565   1.708
  182SOL    HW1  551   0.735   0.630   1.782
  182SOL    HW2  552   0.776   0.485   1.717
  183SOL     OW  553   1.450   1.220   1.633
  183SOL    HW1  554   1.441   1.210   1.732
  183SOL    HW2  555   1.546   1.213   1.607
  184SOL     OW  556   0.390   1.741   1.560
  184SOL    HW1  557   0.299   1.782   1.558
  184SOL    HW2  558   0.383   1.647   1.592
  185SOL     OW  559   1.674   0.883   1.254
  185SOL    HW1  560   1.647   0.794   1.217
  185SOL    HW2  561   1.675   0.951   1.181
  186SOL     OW  562   1.225   0.325   0.449
  186SOL    HW1  563   1.290   0.251   0.438
  186SOL    HW2  564   1.245   0.375   0.533
  187SOL     OW  565   0.594   0.745   0.652
  187SOL    HW1  566   0.644   0.830   0.633
  187SOL    HW2  567   0.506   0.747   0.604
  188SOL     OW  568   1.777   0.342   1.642
  188SOL    HW1  569   1.760   0.373   1.548
  188SOL    HW2  570   1.693   0.305   1.680
  189SOL     OW  571   1.730   0.934   1.517
  189SOL    HW1  572   1.768   1.025   1.532
  189SOL    HW2  573   1.722   0.917   1.418
  190SOL     OW  574   0.859   1.374   0.016
  190SOL    HW1  575   0.813   1.389   0.104
  190SOL    HW2  576   0.903   1.459  -0.014
  191SOL     OW  577   0.661   1.790   0.953
  191SOL    HW1  578   0.615   1.878   0.940
  191SOL    HW2  579   0.760   1.802   0.946
  192SOL     OW  580   0.859   0.956   0.861
  192SOL    HW1  581   0.913   0.887   0.909
  192SOL    HW2  582   0.827   1.025   0.927
  193SOL     OW  583   1.083   0.984   0.087
  193SOL    HW1  584   1.060   1.037   0.005
  193SOL    HW2  585   1.164   0.928   0.068
  194SOL     OW  586   1.861   1.569   0.851
  194SOL    HW1  587   1.790   1.557   0.781
  194SOL    HW2  588   1.862   1.490   0.911
  195SOL     OW  589   0.221   1.314   1.844
  195SOL    HW1  590   0.156   1.241   1.823
  195SOL    HW2  591   0.225   1.328   1.942
  196SOL     OW  592   0.079   1.240   0.653
  196SOL    HW1  593   0.078   1.193   0.741
  196SOL    HW2  594   0.161   1.212   0.602
  197SOL     OW  595   0.672   1.391   1.624
  197SOL    HW1  596   0.594   1.341   1.662
  197SOL    HW2  597   0.669   1.486   1.655
  198SOL     OW  598   1.824   0.192   1.227
  198SOL    HW1  599   1.820   0.102   1.271
  198SOL    HW2  600   1.827   0.181   1.128
  199SOL     OW  601   0.428   0.424   0.520
  199SOL    HW1  602   0.458   0.352   0.458
  199SOL    HW2  603   0.389   0.384   0.603
  200SOL     OW  604   1.705   1.487   1.104
  200SOL    HW1  605   1.612   1.462   1.077
  200SOL    HW2  606   1.731   1.437   1.186
  201SOL     OW  607   0.317   0.547   1.280
  201SOL    HW1  608   0.355   0.488   1.352
  201SOL    HW2  609   0.357   0.521   1.192
  202SOL     OW  610   0.812   1.586   0.687
  202SOL    HW1  611   0.844   1.596   0.593
  202SOL    HW2  612   0.733   1.524   0.689
  203SOL     OW  613   1.424   0.214   1.112
  203SOL    HW1  614   1.476   0.149   1.167
  203SOL    HW2  615   1.375   0.277   1.173
  204SOL     OW  616   1.001   0.034   1.154
  204SOL    HW1  617   0.938  -0.038   1.123
  204SOL    HW2  618   1.094  -0.002   1.154
  205SOL     OW  619   0.770   1.330   0.301
  205SOL    HW1  620   0.724   1.243   0.318
  205SOL    HW2  621   0.861   1.327   0.342
  206SOL     OW  622   0.618   1.567   1.284
  206SOL    HW1  623   0.613   1.649   1.341
  206SOL    HW2  624   0.707   1.564   1.239
  207SOL     OW  625   1.352   0.052   0.168
  207SOL    HW1  626   1.387   0.011   0.084
  207SOL    HW2  627   1.262   0.014   0.188
  208SOL     OW  628   1.300   0.453   0.691
  208SOL    HW1  629   1.241   0.533   0.695
  208SOL    HW2  630   1.315   0.418   0.784
  209SOL     OW  631   1.593   0.221   0.882
  209SOL    HW1  632   1.509   0.220   0.936
  209SOL    HW2  633   1.595   0.304   0.826
  210SOL     OW  634   0.039   1.077   0.300
  210SOL    HW1  635   0.138   1.066   0.291
  210SOL    HW2  636  -0.001   0.991   0.332
  211SOL     OW  637   0.875   1.646   0.337
  211SOL    HW1  638   0.798   1.611   0.283
  211SOL    HW2  639   0.843   1.717   0.399
  212SOL     OW  640   0.230   0.628   1.975
  212SOL    HW1  641   0.137   0.626   2.012
  212SOL    HW2  642   0.231   0.589   1.883
  213SOL     OW  643   1.755   0.607   2.093
  213SOL    HW1  644   1.743   0.594   1.994
  213SOL    HW2  645   1.725   0.526   2.142
  214SOL     OW  646   0.231   1.713   2.345
  214SOL    HW1  647   0.265   1.790   2.399
  214SOL    HW2  648   0.275   1.713   2.255
  215SOL     OW  649   0.230   1.434   2.400
  215SOL    HW1  650   0.204   1.530   2.400
  215SOL    HW2  651   0.159   1.380   2.445
  216SOL     OW  652   0.606   0.964   1.985
  216SOL    HW1  653   0.613   1.048   1.931
  216SOL    HW2  654   0.652   0.977   2.073
  217SOL     OW  655   1.842   1.767   2.221
  217SOL    HW1  656   1.896   1.738   2.301
  217SOL    HW2  657   1.872   1.857   2.192
  218SOL     OW  658   0.027   1.596   1.979
  218SOL    HW1  659   0.008   1.500   2.000
  218SOL    HW2  660  -0.006   1.654   2.054
  219SOL     OW  661   1.689   0.922   2.474
  219SOL    HW1  662   1.784   0.893   2.482
  219SOL    HW2  663   1.681   0.987   2.399
  220SOL     OW  664   1.641   1.108   2.294
  220SOL    HW1  665   1.727   1.110   2.242
  220SOL    HW2  666   1.655   1.155   2.382
  221SOL     OW  667   1.525   0.999   2.052
  221SOL    HW1  668   1.462   0.923   2.065
  221SOL    HW2  669   1.573   1.017   2.138
  222SOL     OW  670   0.598   0.729   2.132
  222SOL    HW1  671   0.622   0.798   2.064
  222SOL    HW2  672   0.520   0.762   2.186
  223SOL     OW  673   1.576   1.662   2.169
  223SOL    HW1  674   1.665   1.708   2.172
  223SOL    HW2  675   1.555   1.638   2.074
  224SOL     OW  676   0.865   0.348   2.057
  224SOL    HW1  677   0.924   0.411   2.008
  224SOL    HW2  678   0.884   0.254   2.028
  225SOL     OW  679   0.321   0.943   2.104
  225SOL    HW1  680   0.403   0.982   2.062
  225SOL    HW2  681   0.294   0.861   2.055
  226SOL     OW  682   1.458   0.735   2.590
  226SOL    HW1  683   1.453   0.670   2.665
  226SOL    HW2  684   1.538   0.794   2.603
  227SOL     OW  685   1.111   1.776   2.099
  227SOL    HW1  686   1.051   1.714   2.149
  227SOL    HW2  687   1.142   1.732   2.014
  228SOL     OW  688   1.632   1.377   1.943
  228SOL    HW1  689   1.600   1.471   1.933
  228SOL    HW2  690   1.556   1.314   1.931
  229SOL     OW  691   0.464   1.743   2.185
  229SOL    HW1  692   0.497   1.782   2.271
  229SOL    HW2  693   0.540   1.736   2.120
  230SOL     OW  694   1.400   0.107   2.288
  230SOL    HW1  695   1.376   0.070   2.198
  230SOL    HW2  696   1.499   0.123   2.292
  231SOL     OW  697   0.614   0.122   1.979
  231SOL    HW1  698   0.712   0.100   1.986
  231SOL    HW2  699   0.583   0.105   1.886
  232SOL     OW  700   1.434   1.188   1.903
  232SOL    HW1  701   1.466   1.112   1.960
  232SOL    HW2  702   1.342   1.215   1.933
  233SOL     OW  703   0.297   0.035   2.033
  233SOL    HW1  704   0.346   0.119   2.012
  233SOL    HW2  705   0.359  -0.030   2.078
  234SOL     OW  706   0.935   0.236   2.342
  234SOL    HW1  707   0.887   0.277   2.264
  234SOL    HW2  708   1.034   0.234   2.323
  235SOL     OW  709   1.227   1.570   2.655
  235SOL    HW1  710   1.248   1.644   2.590
  235SOL    HW2  711   1.295   1.570   2.728
  236SOL     OW  712   0.459   1.152   2.603
  236SOL    HW1  713   0.388   1.125   2.668
  236SOL    HW2  714   0.433   1.124   2.510
  237SOL     OW  715   1.271   1.797   2.453
  237SOL    HW1  716   1.315   1.861   2.389
  237SOL    HW2  717   1.221   1.849   2.523
  238SOL     OW  718   1.032   0.549   1.878
  238SOL    HW1  719   0.991   0.631   1.839
  238SOL    HW2  720   1.096   0.575   1.951
  239SOL     OW  721   1.429   1.173   2.729
  239SOL    HW1  722   1.374   1.089   2.722
  239SOL    HW2  723   1.455   1.202   2.637
  240SOL     OW  724   1.857   0.833   2.239
  240SOL    HW1  725   1.899   0.769   2.303
  240SOL    HW2  726   1.819   0.782   2.161
  241SOL     OW  727   0.488   1.385   2.036
  241SOL    HW1  728   0.401   1.370   2.083
  241SOL    HW2  729   0.471   1.411   1.941
  242SOL     OW  730   1.390   0.575   1.940
  242SOL    HW1  731   1.336   0.554   2.021
  242SOL    HW2  732   1.481   0.534   1.949
  243SOL     OW  733   0.527   0.256   2.190
  243SOL    HW1  734   0.554   0.197   2.115
  243SOL    HW2  735   0.527   0.351   2.159
  244SOL     OW  736   0.705   1.050   2.230
  244SOL    HW1  737   0.691   1.057   2.329
  244SOL    HW2  738   0.789   0.999   2.212
  245SOL     OW  739   0.367   1.100   2.363
  245SOL    HW1  740   0.360   1.183   2.307
  245SOL    HW2  741   0.371   1.020   2.303
  246SOL     OW  742   1.252   1.348   2.250
  246SOL    HW1  743   1.302   1.425   2.290
  246SOL    HW2  744   1.157   1.350   2.282
  247SOL     OW  745   1.582   0.639   2.334
  247SOL    HW1  746   1.551   0.700   2.407
  247SOL    HW2  747   1.632   0.691   2.265
  248SOL     OW  748   1.209   0.525   2.137
  248SOL    HW1  749   1.222   0.441   2.191
  248SOL    HW2  750   1.180   0.599   2.197
  249SOL     OW  751   1.622   0.367   2.236
  249SOL    HW1  752   1.624   0.291   2.300
  249SOL    HW2  753   1.574   0.444   2.276
  250SOL     OW  754   1.540   0.274   1.987
  250SOL    HW1  755   1.479   0.199   2.010
  250SOL    HW2  756   1.562   0.326   2.070
  251SOL     OW  757   1.303   0.838   1.904
  251SOL    HW1  758   1.337   0.745   1.919
  251SOL    HW2  759   1.321   0.865   1.809
  252SOL     OW  760   0.008   1.326   2.062
  252SOL    HW1  761  -0.085   1.347   2.031
  252SOL    HW2  762   0.018   1.227   2.075
  253SOL     OW  763   0.815   0.572   2.187
  253SOL    HW1  764   0.822   0.483   2.141
  253SOL    HW2  765   0.721   0.606   2.179
  254SOL     OW  766   0.473   0.500   2.053
  254SOL    HW1  767   0.534   0.580   2.057
  254SOL    HW2  768   0.378   0.531   2.060
  255SOL     OW  769   1.302   0.855   2.171
  255SOL    HW1  770   1.216   0.824   2.213
  255SOL    HW2  771   1.298   0.841   2.072
  256SOL     OW  772   1.726   0.135   2.385
  256SOL    HW1  773   1.799   0.118   2.318
  256SOL    HW2  774   1.695   0.048   2.423
  257SOL     OW  775   0.672   1.616   2.016
  257SOL    HW1  776   0.681   1.626   1.917
  257SOL    HW2  777   0.632   1.527   2.037
  258SOL     OW  778   0.263   0.326   2.582
  258SOL    HW1  779   0.184   0.377   2.548
  258SOL    HW2  780   0.254   0.311   2.680
  259SOL     OW  781   1.194   1.612   1.893
  259SOL    HW1  782   1.200   1.519   1.930
  259SOL    HW2  783   1.135   1.612   1.813
  260SOL     OW  784   0.916   0.910   2.153
  260SOL    HW1  785   0.979   0.948   2.085
  260SOL    HW2  786   0.956   0.827   2.192
  261SOL     OW  787   1.504   1.607   1.906
  261SOL    HW1  788   1.412   1.644   1.913
  261SOL    HW2  789   1.542   1.627   1.816
  262SOL     OW  790   0.590   1.487   2.353
  262SOL    HW1  791   0.632   1.429   2.283
  262SOL    HW2  792   0.546   1.566   2.309
  263SOL     OW  793   0.255   1.348   2.152
  263SOL    HW1  794   0.159   1.349   2.125
  263SOL    HW2  795   0.267   1.401   2.236
  264SOL     OW  796   0.075   0.345   1.895
  264SOL    HW1  797  -0.017   0.317   1.866
  264SOL    HW2  798   0.106   0.422   1.839
  265SOL     OW  799   0.072   0.166   2.180
  265SOL    HW1  800   0.055   0.249   2.126
  265SOL    HW2  801   0.162   0.129   2.158
  266SOL     OW  802   1.183   1.335   1.981
  266SOL    HW1  803   1.084   1.324   1.983
  266SOL    HW2  804   1.217   1.350   2.074
  267SOL     OW  805   1.225   0.325   2.311
  267SOL    HW1  806   1.290   0.251   2.300
  267SOL    HW2  807   1.245   0.375   2.395
  268SOL     OW  808   0.859   1.374   1.878
  268SOL    HW1  809   0.813   1.389   1.966
  268SOL    HW2  810   0.903   1.459   1.848
  269SOL     OW  811   1.083   0.984   1.949
  269SOL    HW1  812   1.060   1.037   1.867
  269SOL    HW2  813   1.164   0.928   1.930
  270SOL     OW  814   0.428   0.424   2.382
  270SOL    HW1  815   0.458   0.352   2.320
  270SOL    HW2  816   0.389   0.384   2.465
  271SOL     OW  817   0.770   1.330   2.163
  271SOL    HW1  818   0.724   1.243   2.180
  271SOL    HW2  819   0.861   1.327   2.204
  272SOL     OW  820   1.352   0.052   2.030
  272SOL    HW1  821   1.387   0.011   1.946
  272SOL    HW2  822   1.262   0.014   2.050
  273SOL     OW  823   0.039   1.077   2.162
  273SOL    HW1  824   0.138   1.066   2.153
  273SOL    HW2  825  -0.001   0.991   2.194
  274SOL     OW  826   0.875   1.646   2.199
  274SOL    HW1  827   0.798   1.611   2.145
  274SOL    HW2  828   0.843   1.717   2.261
  275SOL     OW  829   0.225   2.137   0.996
  275SOL    HW1  830   0.260   2.120   1.088
  275SOL    HW2  831   0.137   2.092   0.984
  276SOL     OW  832   0.019   2.230   0.647
  276SOL    HW1  833  -0.063   2.273   0.686
  276SOL    HW2  834  -0.009   2.157   0.584
  277SOL     OW  835   0.438   2.254   1.499
  277SOL    HW1  836   0.520   2.198   1.508
  277SOL    HW2  837   0.357   2.196   1.503
  278SOL     OW  838   1.603   2.309   0.737
  278SOL    HW1  839   1.529   2.355   0.687
  278SOL    HW2  840   1.654   2.377   0.790
  279SOL     OW  841   1.594   1.976   1.480
  279SOL    HW1  842   1.576   2.043   1.408
  279SOL    HW2  843   1.591   2.022   1.569
  280SOL     OW  844   0.122   2.505   0.563
  280SOL    HW1  845   0.077   2.417   0.580
  280SOL    HW2  846   0.121   2.559   0.647
  281SOL     OW  847   0.809   1.866   0.502
  281SOL    HW1  848   0.849   1.957   0.493
  281SOL    HW2  849   0.709   1.874   0.508
  282SOL     OW  850   0.317   2.113   1.801
  282SOL    HW1  851   0.388   2.184   1.807
  282SOL    HW2  852   0.229   2.152   1.829
  283SOL     OW  853   1.281   2.207   0.944
  283SOL    HW1  854   1.195   2.157   0.931
  283SOL    HW2  855   1.343   2.153   1.000
  284SOL     OW  856   1.394   2.331   1.674
  284SOL    HW1  857   1.374   2.374   1.762
  284SOL    HW2  858   1.472   2.269   1.683
  285SOL     OW  859   0.865   2.210   0.195
  285SOL    HW1  860   0.924   2.273   0.146
  285SOL    HW2  861   0.884   2.116   0.166
  286SOL     OW  862   1.719   2.447   1.831
  286SOL    HW1  863   1.693   2.536   1.795
  286SOL    HW2  864   1.717   2.379   1.758
  287SOL     OW  865   0.550   2.058   0.885
  287SOL    HW1  866   0.545   2.053   0.985
  287SOL    HW2  867   0.552   2.154   0.856
  288SOL     OW  868   0.202   2.147   1.498
  288SOL    HW1  869   0.122   2.207   1.485
  288SOL    HW2  870   0.192   2.098   1.584
  289SOL     OW  871   1.400   1.969   0.426
  289SOL    HW1  872   1.376   1.932   0.336
  289SOL    HW2  873   1.499   1.985   0.430
  290SOL     OW  874   1.547   2.084   1.729
  290SOL    HW1  875   1.542   2.121   1.821
  290SOL    HW2  876   1.475   2.015   1.717
  291SOL     OW  877   0.614   1.984   0.117
  291SOL    HW1  878   0.712   1.962   0.124
  291SOL    HW2  879   0.583   1.967   0.024
  292SOL     OW  880   0.781   2.126   1.749
  292SOL    HW1  881   0.848   2.065   1.792
  292SOL    HW2  882   0.708   2.145   1.814
  293SOL     OW  883   1.351   2.452   1.433
  293SOL    HW1  884   1.379   2.409   1.518
  293SOL    HW2  885   1.376   2.548   1.434
  294SOL     OW  886   0.539   1.926   0.512
  294SOL    HW1  887   0.458   1.927   0.570
  294SOL    HW2  888   0.542   2.009   0.457
  295SOL     OW  889   0.297   1.897   0.171
  295SOL    HW1  890   0.346   1.981   0.150
  295SOL    HW2  891   0.359   1.832   0.216
  296SOL     OW  892   0.935   2.098   0.480
  296SOL    HW1  893   0.887   2.139   0.402
  296SOL    HW2  894   1.034   2.096   0.461
  297SOL     OW  895   0.078   2.418   1.386
  297SOL    HW1  896   0.170   2.417   1.345
  297SOL    HW2  897   0.072   2.492   1.453
  298SOL     OW  898   0.561   2.084   1.147
  298SOL    HW1  899   0.599   2.000   1.184
  298SOL    HW2  900   0.473   2.103   1.191
  299SOL     OW  901   1.017   1.901   0.753
  299SOL    HW1  902   0.945   1.906   0.684
  299SOL    HW2  903   0.993   1.832   0.822
  300SOL     OW  904   1.466   2.452   0.992
  300SOL    HW1  905   1.436   2.357   0.999
  300SOL    HW2  906   1.539   2.468   1.058
  301SOL     OW  907   0.527   2.118   0.328
  301SOL    HW1  908   0.554   2.059   0.253
  301SOL    HW2  909   0.527   2.213   0.297
  302SOL     OW  910   0.915   1.951   1.402
  302SOL    HW1  911   0.940   1.931   1.307
  302SOL    HW2  912   0.987   2.007   1.444
  303SOL     OW  913   1.274   2.248   1.262
  303SOL    HW1  914   1.295   2.322   1.326
  303SOL    HW2  915   1.185   2.265   1.219
  304SOL     OW  916   1.013   1.967   1.770
  304SOL    HW1  917   1.019   2.052   1.718
  304SOL    HW2  918   1.045   1.891   1.713
  305SOL     OW  919   0.504   1.912   1.740
  305SOL    HW1  920   0.462   1.855   1.670
  305SOL    HW2  921   0.438   1.981   1.772
  306SOL     OW  922   0.307   2.075   1.231
  306SOL    HW1  923   0.284   2.112   1.321
  306SOL    HW2  924   0.277   1.980   1.225
  307SOL     OW  925   0.732   2.496   1.064
  307SOL    HW1  926   0.791   2.470   0.988
  307SOL    HW2  927   0.704   2.592   1.053
  308SOL     OW  928   0.307   1.925   0.618
  308SOL    HW1  929   0.296   2.019   0.651
  308SOL    HW2  930   0.302   1.862   0.695
  309SOL     OW  931   1.622   2.229   0.374
  309SOL    HW1  932   1.624   2.153   0.438
  309SOL    HW2  933   1.574   2.306   0.414
  310SOL     OW  934   1.540   2.136   0.125
  310SOL    HW1  935   1.479   2.061   0.148
  310SOL    HW2  936   1.562   2.188   0.208
  311SOL     OW  937   0.339   2.371   1.006
  311SOL    HW1  938   0.287   2.288   0.989
  311SOL    HW2  939   0.416   2.376   0.942
  312SOL     OW  940   1.160   2.069   1.477
  312SOL    HW1  941   1.160   2.133   1.554
  312SOL    HW2  942   1.188   2.117   1.394
  313SOL     OW  943   0.040   2.406   1.114
  313SOL    HW1  944   0.125   2.373   1.073
  313SOL    HW2  945   0.053   2.421   1.212
  314SOL     OW  946   0.189   2.382   1.722
  314SOL    HW1  947   0.248   2.342   1.652
  314SOL    HW2  948   0.131   2.453   1.681
  315SOL     OW  949   0.815   2.434   0.325
  315SOL    HW1  950   0.822   2.345   0.279
  315SOL    HW2  951   0.721   2.468   0.317
  316SOL     OW  952   1.657   2.466   1.206
  316SOL    HW1  953   1.619   2.397   1.268
  316SOL    HW2  954   1.739   2.430   1.162
  317SOL     OW  955   0.671   2.326   1.269
  317SOL    HW1  956   0.637   2.237   1.239
  317SOL    HW2  957   0.697   2.380   1.189
  318SOL     OW  958   0.903   1.948   0.133
  318SOL    HW1  959   0.954   1.949   0.047
  318SOL    HW2  960   0.959   1.906   0.204
  319SOL     OW  961   1.726   1.997   0.523
  319SOL    HW1  962   1.799   1.980   0.456
  319SOL    HW2  963   1.695   1.910   0.561
  320SOL     OW  964   1.841   2.037   0.963
  320SOL    HW1  965   1.880   1.952   0.927
  320SOL    HW2  966   1.743   2.039   0.944
  321SOL     OW  967   0.263   2.188   0.720
  321SOL    HW1  968   0.184   2.239   0.686
  321SOL    HW2  969   0.254   2.173   0.818
  322SOL     OW  970   1.014   2.098   0.971
  322SOL    HW1  971   1.006   2.062   0.878
  322SOL    HW2  972   1.012   2.022   1.036
  323SOL     OW  973   1.709   2.247   1.381
  323SOL    HW1  974   1.782   2.316   1.385
  323SOL    HW2  975   1.737   2.172   1.322
  324SOL     OW  976   0.672   2.065   1.489
  324SOL    HW1  977   0.762   2.049   1.449
  324SOL    HW2  978   0.680   2.070   1.588
  325SOL     OW  979   0.075   2.207   0.033
  325SOL    HW1  980  -0.017   2.179   0.004
  325SOL    HW2  981   0.106   2.284  -0.023
  326SOL     OW  982   0.072   2.028   0.318
  326SOL    HW1  983   0.055   2.111   0.264
  326SOL    HW2  984   0.162   1.991   0.296
  327SOL     OW  985   0.716   2.427   1.708
  327SOL    HW1  986   0.735   2.492   1.782
  327SOL    HW2  987   0.776   2.347   1.717
  328SOL     OW  988   1.225   2.187   0.449
  328SOL    HW1  989   1.290   2.113   0.438
  328SOL    HW2  990   1.245   2.237   0.533
  329SOL     OW  991   0.594   2.607   0.652
  329SOL    HW1  992   0.644   2.692   0.633
  329SOL    HW2  993   0.506   2.609   0.604
  330SOL     OW  994   1.777   2.204   1.642
  330SOL    HW1  995   1.760   2.235   1.548
  330SOL    HW2  996   1.693   2.167   1.680
  331SOL     OW  997   1.824   2.054   1.227
  331SOL    HW1  998   1.820   1.964   1.271
  331SOL    HW2  999   1.827   2.043   1.128
  332SOL     OW 1000   0.428   2.286   0.520
  332SOL    HW1 1001   0.458   2.214   0.458
  332SOL    HW2 1002   0.389   2.246   0.603
  333SOL     OW 1003   1.424   2.076   1.112
  333SOL    HW1 1004   1.476   2.011   1.167
  333SOL    HW2 1005   1.375   2.139   1.173
  334SOL     OW 1006   1.001   1.896   1.154
  334SOL    HW1 1007   0.938   1.824   1.123
  334SOL    HW2 1008   1.094   1.860   1.154
  335SOL     OW 1009   1.300   2.315   0.691
  335SOL    HW1 1010   1.241   2.395   0.695
  335SOL    HW2 1011   1.315   2.280   0.784
  336SOL     OW 1012   1.593   2.083   0.882
  336SOL    HW1 1013   1.509   2.082   0.936
  336SOL    HW2 1014   1.595   2.166   0.826
  337SOL     OW 1015   1.135   2.565   2.579
  337SOL    HW1 1016   1.192   2.643   2.554
  337SOL    HW2 1017   1.075   2.591   2.655
  338SOL     OW 1018   1.755   2.469   2.093
  338SOL    HW1 1019   1.743   2.456   1.994
  338SOL    HW2 1020   1.725   2.388   2.142
  339SOL     OW 1021   0.122   2.505   2.425
  339SOL    HW1 1022   0.077   2.417   2.442
  339SOL    HW2 1023   0.121   2.559   2.509
  340SOL     OW 1024   0.865   2.210   2.057
  340SOL    HW1 1025   0.924   2.273   2.008
  340SOL    HW2 1026   0.884   2.116   2.028
  341SOL     OW 1027   1.400   1.969   2.288
  341SOL    HW1 1028   1.376   1.932   2.198
  341SOL    HW2 1029   1.499   1.985   2.292
  342SOL     OW 1030   0.382   2.562   2.342
  342SOL    HW1 1031   0.427   2.472   2.339
  342SOL    HW2 1032   0.288   2.551   2.375
  343SOL     OW 1033   0.614   1.984   1.979
  343SOL    HW1 1034   0.712   1.962   1.986
  343SOL    HW2 1035   0.583   1.967   1.886
  344SOL     OW 1036   0.297   1.897   2.033
  344SOL    HW1 1037   0.346   1.981   2.012
  344SOL    HW2 1038   0.359   1.832   2.078
  345SOL     OW 1039   0.935   2.098   2.342
  345SOL    HW1 1040   0.887   2.139   2.264
  345SOL    HW2 1041   1.034   2.096   2.323
  346SOL     OW 1042   0.527   2.118   2.190
  346SOL    HW1 1043   0.554   2.059   2.115
  346SOL    HW2 1044   0.527   2.213   2.159
  347SOL     OW 1045   1.622   2.229   2.236
  347SOL    HW1 1046   1.624   2.153   2.300
  347SOL    HW2 1047   1.574   2.306   2.276
  348SOL     OW 1048   1.540   2.136   1.987
  348SOL    HW1 1049   1.479   2.061   2.010
  348SOL    HW2 1050   1.562   2.188   2.070
  349SOL     OW 1051   1.303   2.700   1.904
  349SOL    HW1 1052   1.337   2.607   1.919
  349SOL    HW2 1053   1.321   2.727   1.809
  350SOL     OW 1054   0.815   2.434   2.187
  350SOL    HW1 1055   0.822   2.345   2.141
  350SOL    HW2 1056   0.721   2.468   2.179
  351SOL     OW 1057   1.726   1.997   2.385
  351SOL    HW1 1058   1.799   1.980   2.318
  351SOL    HW2 1059   1.695   1.910   2.423
  352SOL     OW 1060   0.263   2.188   2.582
  352SOL    HW1 1061   0.184   2.239   2.548
  352SOL    HW2 1062   0.254   2.173   2.680
  353SOL     OW 1063   0.075   2.207   1.895
  353SOL    HW1 1064  -0.017   2.179   1.866
  353SOL    HW2 1065   0.106   2.284   1.839
  354SOL     OW 1066   0.072   2.028   2.180
  354SOL    HW1 1067   0.055   2.111   2.126
  354SOL    HW2 1068   0.162   1.991   2.158
  355SOL     OW 1069   1.225   2.187   2.311
  355SOL    HW1 1070   1.290   2.113   2.300
  355SOL    HW2 1071   1.245   2.237   2.395
  356SOL     OW 1072   0.428   2.286   2.382
  356SOL    HW1 1073   0.458   2.214   2.320
  356SOL    HW2 1074   0.389   2.246   2.465
  357SOL     OW 1075   1.352   1.914   2.030
  357SOL    HW1 1076   1.387   1.873   1.946
  357SOL    HW2 1077   1.262   1.876   2.050
  358SOL     OW 1078   2.092   0.628   0.113
  358SOL    HW1 1079   1.999   0.626   0.150
  358SOL    HW2 1080   2.093   0.589   0.021
  359SOL     OW 1081   2.087   0.275   0.996
  359SOL    HW1 1082   2.122   0.258   1.088
  359SOL    HW2 1083   1.999   0.230   0.984
  360SOL     OW 1084   1.881   0.368   0.647
  360SOL    HW1 1085   1.799   0.411   0.686
  360SOL    HW2 1086   1.853   0.295   0.584
  361SOL     OW 1087   2.197   1.435   1.061
  361SOL    HW1 1088   2.119   1.404   1.008
  361SOL    HW2 1089   2.255   1.493   1.004
  362SOL     OW 1090   2.093   1.713   0.483
  362SOL    HW1 1091   2.127   1.790   0.537
  362SOL    HW2 1092   2.137   1.713   0.393
  363SOL     OW 1093   2.092   1.434   0.538
  363SOL    HW1 1094   2.066   1.530   0.538
  363SOL    HW2 1095   2.021   1.380   0.583
  364SOL     OW 1096   2.102   1.091   0.886
  364SOL    HW1 1097   2.116   1.007   0.938
  364SOL    HW2 1098   2.047   1.155   0.941
  365SOL     OW 1099   1.984   0.643   0.563
  365SOL    HW1 1100   1.939   0.555   0.580
  365SOL    HW2 1101   1.983   0.697   0.647
  366SOL     OW 1102   1.889   1.596   0.117
  366SOL    HW1 1103   1.870   1.500   0.138
  366SOL    HW2 1104   1.856   1.654   0.192
  367SOL     OW 1105   1.975   0.737   1.597
  367SOL    HW1 1106   2.063   0.724   1.642
  367SOL    HW2 1107   1.962   0.834   1.575
  368SOL     OW 1108   2.059   0.976   1.264
  368SOL    HW1 1109   2.148   0.931   1.250
  368SOL    HW2 1110   1.986   0.911   1.245
  369SOL     OW 1111   2.460   0.729   0.270
  369SOL    HW1 1112   2.484   0.798   0.202
  369SOL    HW2 1113   2.382   0.762   0.324
  370SOL     OW 1114   1.938   0.811   0.789
  370SOL    HW1 1115   2.037   0.799   0.798
  370SOL    HW2 1116   1.914   0.906   0.810
  371SOL     OW 1117   1.992   1.821   1.571
  371SOL    HW1 1118   1.982   1.806   1.670
  371SOL    HW2 1119   1.906   1.857   1.535
  372SOL     OW 1120   2.213   1.801   0.853
  372SOL    HW1 1121   2.263   1.715   0.859
  372SOL    HW2 1122   2.278   1.878   0.850
  373SOL     OW 1123   2.183   0.943   0.242
  373SOL    HW1 1124   2.265   0.982   0.200
  373SOL    HW2 1125   2.156   0.861   0.193
  374SOL     OW 1126   2.323   1.266   1.727
  374SOL    HW1 1127   2.273   1.267   1.641
  374SOL    HW2 1128   2.260   1.248   1.803
  375SOL     OW 1129   2.064   0.285   1.498
  375SOL    HW1 1130   1.984   0.345   1.485
  375SOL    HW2 1131   2.054   0.236   1.584
  376SOL     OW 1132   2.111   1.785   1.241
  376SOL    HW1 1133   2.168   1.720   1.291
  376SOL    HW2 1134   2.095   1.752   1.148
  377SOL     OW 1135   2.244   0.700   0.480
  377SOL    HW1 1136   2.289   0.610   0.477
  377SOL    HW2 1137   2.150   0.689   0.513
  378SOL     OW 1138   2.159   0.035   0.171
  378SOL    HW1 1139   2.208   0.119   0.150
  378SOL    HW2 1140   2.221  -0.030   0.216
  379SOL     OW 1141   1.940   0.556   1.386
  379SOL    HW1 1142   2.032   0.555   1.345
  379SOL    HW2 1143   1.934   0.630   1.453
  380SOL     OW 1144   2.272   0.813   1.251
  380SOL    HW1 1145   2.358   0.825   1.301
  380SOL    HW2 1146   2.230   0.726   1.278
  381SOL     OW 1147   1.926   1.564   1.331
  381SOL    HW1 1148   1.880   1.646   1.297
  381SOL    HW2 1149   2.024   1.583   1.340
  382SOL     OW 1150   2.229   1.100   0.501
  382SOL    HW1 1151   2.222   1.183   0.445
  382SOL    HW2 1152   2.233   1.020   0.441
  383SOL     OW 1153   2.428   0.537   0.865
  383SOL    HW1 1154   2.440   0.603   0.791
  383SOL    HW2 1155   2.474   0.571   0.948
  384SOL     OW 1156   2.264   0.751   1.598
  384SOL    HW1 1157   2.332   0.806   1.551
  384SOL    HW2 1158   2.304   0.663   1.625
  385SOL     OW 1159   2.366   0.050   1.740
  385SOL    HW1 1160   2.324  -0.007   1.670
  385SOL    HW2 1161   2.300   0.119   1.772
  386SOL     OW 1162   2.435   0.870   1.029
  386SOL    HW1 1163   2.479   0.959   1.020
  386SOL    HW2 1164   2.372   0.870   1.106
  387SOL     OW 1165   2.169   0.213   1.231
  387SOL    HW1 1166   2.146   0.250   1.321
  387SOL    HW2 1167   2.139   0.118   1.225
  388SOL     OW 1168   1.899   1.310   1.282
  388SOL    HW1 1169   1.952   1.261   1.350
  388SOL    HW2 1170   1.921   1.408   1.287
  389SOL     OW 1171   2.169   0.063   0.618
  389SOL    HW1 1172   2.158   0.157   0.651
  389SOL    HW2 1173   2.164   0.000   0.695
  390SOL     OW 1174   2.212   0.898   1.804
  390SOL    HW1 1175   2.288   0.942   1.852
  390SOL    HW2 1176   2.247   0.851   1.722
  391SOL     OW 1177   2.181   0.810   0.949
  391SOL    HW1 1178   2.274   0.846   0.954
  391SOL    HW2 1179   2.175   0.725   1.001
  392SOL     OW 1180   2.201   0.509   1.006
  392SOL    HW1 1181   2.149   0.426   0.989
  392SOL    HW2 1182   2.278   0.514   0.942
  393SOL     OW 1183   1.870   1.326   0.200
  393SOL    HW1 1184   1.777   1.347   0.169
  393SOL    HW2 1185   1.880   1.227   0.213
  394SOL     OW 1186   1.950   1.801   0.927
  394SOL    HW1 1187   1.908   1.715   0.900
  394SOL    HW2 1188   2.044   1.804   0.893
  395SOL     OW 1189   1.902   0.544   1.114
  395SOL    HW1 1190   1.987   0.511   1.073
  395SOL    HW2 1191   1.915   0.559   1.212
  396SOL     OW 1192   2.051   0.520   1.722
  396SOL    HW1 1193   2.110   0.480   1.652
  396SOL    HW2 1194   1.993   0.591   1.681
  397SOL     OW 1195   2.114   1.564   1.744
  397SOL    HW1 1196   2.084   1.621   1.820
  397SOL    HW2 1197   2.107   1.467   1.770
  398SOL     OW 1198   2.021   1.137   1.466
  398SOL    HW1 1199   2.043   1.076   1.542
  398SOL    HW2 1200   2.031   1.088   1.380
  399SOL     OW 1201   1.945   1.258   1.022
  399SOL    HW1 1202   1.940   1.257   1.122
  399SOL    HW2 1203   1.862   1.217   0.984
  400SOL     OW 1204   1.992   1.794   1.851
  400SOL    HW1 1205   1.951   1.720   1.904
  400SOL    HW2 1206   2.056   1.845   1.909
  401SOL     OW 1207   2.125   0.326   0.720
  401SOL    HW1 1208   2.046   0.377   0.686
  401SOL    HW2 1209   2.116   0.311   0.818
  402SOL     OW 1210   2.234   1.288   1.490
  402SOL    HW1 1211   2.221   1.381   1.456
  402SOL    HW2 1212   2.150   1.236   1.477
  403SOL     OW 1213   2.117   1.348   0.290
  403SOL    HW1 1214   2.021   1.349   0.263
  403SOL    HW2 1215   2.129   1.401   0.374
  404SOL     OW 1216   1.967   1.013   1.726
  404SOL    HW1 1217   1.890   0.980   1.780
  404SOL    HW2 1218   2.052   0.983   1.768
  405SOL     OW 1219   1.937   0.345   0.033
  405SOL    HW1 1220   1.845   0.317   0.004
  405SOL    HW2 1221   1.968   0.422  -0.023
  406SOL     OW 1222   1.934   0.166   0.318
  406SOL    HW1 1223   1.917   0.249   0.264
  406SOL    HW2 1224   2.024   0.129   0.296
  407SOL     OW 1225   2.252   1.741   1.560
  407SOL    HW1 1226   2.161   1.782   1.558
  407SOL    HW2 1227   2.245   1.647   1.592
  408SOL     OW 1228   2.083   1.314   1.844
  408SOL    HW1 1229   2.018   1.241   1.823
  408SOL    HW2 1230   2.087   1.328   1.942
  409SOL     OW 1231   1.941   1.240   0.653
  409SOL    HW1 1232   1.940   1.193   0.741
  409SOL    HW2 1233   2.023   1.212   0.602
  410SOL     OW 1234   2.179   0.547   1.280
  410SOL    HW1 1235   2.217   0.488   1.352
  410SOL    HW2 1236   2.219   0.521   1.192
  411SOL     OW 1237   2.674   1.586   0.687
  411SOL    HW1 1238   2.706   1.596   0.593
  411SOL    HW2 1239   2.595   1.524   0.689
  412SOL     OW 1240   1.901   1.077   0.300
  412SOL    HW1 1241   2.000   1.066   0.291
  412SOL    HW2 1242   1.861   0.991   0.332
  413SOL     OW 1243   2.092   0.628   1.975
  413SOL    HW1 1244   1.999   0.626   2.012
  413SOL    HW2 1245   2.093   0.589   1.883
  414SOL     OW 1246   2.093   1.713   2.345
  414SOL    HW1 1247   2.127   1.790   2.399
  414SOL    HW2 1248   2.137   1.713   2.255
  415SOL     OW 1249   2.092   1.434   2.400
  415SOL    HW1 1250   2.066   1.530   2.400
  415SOL    HW2 1251   2.021   1.380   2.445
  416SOL     OW 1252   1.889   1.596   1.979
  416SOL    HW1 1253   1.870   1.500   2.000
  416SOL    HW2 1254   1.856   1.654   2.054
  417SOL     OW 1255   2.460   0.729   2.132
  417SOL    HW1 1256   2.484   0.798   2.064
  417SOL    HW2 1257   2.382   0.762   2.186
  418SOL     OW 1258   2.183   0.943   2.104
  418SOL    HW1 1259   2.265   0.982   2.062
  418SOL    HW2 1260   2.156   0.861   2.055
  419SOL     OW 1261   2.159   0.035   2.033
  419SOL    HW1 1262   2.208   0.119   2.012
  419SOL    HW2 1263   2.221  -0.030   2.078
  420SOL     OW 1264   2.229   1.100   2.363
  420SOL    HW1 1265   2.222   1.183   2.307
  420SOL    HW2 1266   2.233   1.020   2.303
  421SOL     OW 1267   1.870   1.326   2.062
  421SOL    HW1 1268   1.777   1.347   2.031
  421SOL    HW2 1269   1.880   1.227   2.075
  422SOL     OW 1270   2.125   0.326   2.582
  422SOL    HW1 1271   2.046   0.377   2.548
  422SOL    HW2 1272   2.116   0.311   2.680
  423SOL     OW 1273   2.117   1.348   2.152
  423SOL    HW1 1274   2.021   1.349   2.125
  423SOL    HW2 1275   2.129   1.401   2.236
  424SOL     OW 1276   1.937   0.345   1.895
  424SOL    HW1 1277   1.845   0.317   1.866
  424SOL    HW2 1278   1.968   0.422   1.839
  425SOL     OW 1279   1.934   0.166   2.180
  425SOL    HW1 1280   1.917   0.249   2.126
  425SOL    HW2 1281   2.024   0.129   2.158
  426SOL     OW 1282   2.674   1.586   2.549
  426SOL    HW1 1283   2.706   1.596   2.455
  426SOL    HW2 1284   2.595   1.524   2.551
  427SOL     OW 1285   1.901   1.077   2.162
  427SOL    HW1 1286   2.000   1.066   2.153
  427SOL    HW2 1287   1.861   0.991   2.194
  428SOL     OW 1288   2.087   2.137   0.996
  428SOL    HW1 1289   2.122   2.120   1.088
  428SOL    HW2 1290   1.999   2.092   0.984
  429SOL     OW 1291   1.881   2.230   0.647
  429SOL    HW1 1292   1.799   2.273   0.686
  429SOL    HW2 1293   1.853   2.157   0.584
  430SOL     OW 1294   1.984   2.505   0.563
  430SOL    HW1 1295   1.939   2.417   0.580
  430SOL    HW2 1296   1.983   2.559   0.647
  431SOL     OW 1297   2.064   2.147   1.498
  431SOL    HW1 1298   1.984   2.207   1.485
  431SOL    HW2 1299   2.054   2.098   1.584
  432SOL     OW 1300   2.159   1.897   0.171
  432SOL    HW1 1301   2.208   1.981   0.150
  432SOL    HW2 1302   2.221   1.832   0.216
  433SOL     OW 1303   1.940   2.418   1.386
  433SOL    HW1 1304   2.032   2.417   1.345
  433SOL    HW2 1305   1.934   2.492   1.453
  434SOL     OW 1306   2.423   2.084   1.147
  434SOL    HW1 1307   2.461   2.000   1.184
  434SOL    HW2 1308   2.335   2.103   1.191
  435SOL     OW 1309   2.428   2.399   0.865
  435SOL    HW1 1310   2.440   2.465   0.791
  435SOL    HW2 1311   2.474   2.433   0.948
  436SOL     OW 1312   2.264   2.613   1.598
  436SOL    HW1 1313   2.332   2.668   1.551
  436SOL    HW2 1314   2.304   2.525   1.625
  437SOL     OW 1315   2.366   1.912   1.740
  437SOL    HW1 1316   2.324   1.855   1.670
  437SOL    HW2 1317   2.300   1.981   1.772
  438SOL     OW 1318   2.169   2.075   1.231
  438SOL    HW1 1319   2.146   2.112   1.321
  438SOL    HW2 1320   2.139   1.980   1.225
  439SOL     OW 1321   2.169   1.925   0.618
  439SOL    HW1 1322   2.158   2.019   0.651
  439SOL    HW2 1323   2.164   1.862   0.695
  440SOL     OW 1324   2.201   2.371   1.006
  440SOL    HW1 1325   2.149   2.288   0.989
  440SOL    HW2 1326   2.278   2.376   0.942
  441SOL     OW 1327   2.051   2.382   1.722
  441SOL    HW1 1328   2.110   2.342   1.652
  441SOL    HW2 1329   1.993   2.453   1.681
  442SOL     OW 1330   2.125   2.188   0.720
  442SOL    HW1 1331   2.046   2.239   0.686
  442SOL    HW2 1332   2.116   2.173   0.818
  443SOL     OW 1333   1.937   2.207   0.033
  443SOL    HW1 1334   1.845   2.179   0.004
  443SOL    HW2 1335   1.968   2.284  -0.023
  444SOL     OW 1336   1.934   2.028   0.318
  444SOL    HW1 1337   1.917   2.111   0.264
  444SOL    HW2 1338   2.024   1.991   0.296
  445SOL     OW 1339   1.984   2.505   2.425
  445SOL    HW1 1340   1.939   2.417   2.442
  445SOL    HW2 1341   1.983   2.559   2.509
  446SOL     OW 1342   2.244   2.562   2.342
  446SOL    HW1 1343   2.289   2.472   2.339
  446SOL    HW2 1344   2.150   2.551   2.375
  447SOL     OW 1345   2.159   1.897   2.033
  447SOL    HW1 1346   2.208   1.981   2.012
  447SOL    HW2 1347   2.221   1.832   2.078
  448SOL     OW 1348   2.125   2.188   2.582
  448SOL    HW1 1349   2.046   2.239   2.548
  448SOL    HW2 1350   2.116   2.173   2.680
  449SOL     OW 1351   1.937   2.207   1.895
  449SOL    HW1 1352   1.845   2.179   1.866
  449SOL    HW2 1353   1.968   2.284   1.839
  450SOL     OW 1354   1.934   2.028   2.180
  450SOL    HW1 1355   1.917   2.111   2.126
  450SOL    HW2 1356   2.024   1.991   2.158
   2.37812   2.37812   2.37812
