; mobley_6929123_GMX.itp created by acpype (v: 2023.10.27) on Thu May 14 13:53:22 2026

[ atomtypes ]
;name   bond_type     mass     charge   ptype   sigma         epsilon       Amb
 c        c           0.00000  0.00000   A     3.31521e-01   4.13379e-01 ; 1.86  0.0988
 c3       c3          0.00000  0.00000   A     3.39771e-01   4.51035e-01 ; 1.91  0.1078
 o        o           0.00000  0.00000   A     3.04812e-01   6.12119e-01 ; 1.71  0.1463
 os       os          0.00000  0.00000   A     3.15610e-01   3.03758e-01 ; 1.77  0.0726
 cl       cl          0.00000  0.00000   A     3.46595e-01   1.10374e+00 ; 1.95  0.2638
 h1       h1          0.00000  0.00000   A     2.42200e-01   8.70272e-02 ; 1.36  0.0208

[ moleculetype ]
;name            nrexcl
 mobley_6929123   3

[ atoms ]
;   nr  type  resi  res  atom  cgnr     charge      mass       ; qtot   bond_type
     1    c     1   MOL    C1    1     0.622099     12.01000 ; qtot 0.622
     2   c3     1   MOL    C2    2     0.124700     12.01000 ; qtot 0.747
     3   c3     1   MOL    C3    3    -0.026000     12.01000 ; qtot 0.721
     4    o     1   MOL    O1    4    -0.517000     16.00000 ; qtot 0.204
     5   os     1   MOL    O2    5    -0.432900     16.00000 ; qtot -0.229
     6   cl     1   MOL   CL1    6    -0.134400     35.45000 ; qtot -0.364
     7   h1     1   MOL    H1    7     0.054367      1.00800 ; qtot -0.309
     8   h1     1   MOL    H2    8     0.054367      1.00800 ; qtot -0.255
     9   h1     1   MOL    H3    9     0.054367      1.00800 ; qtot -0.200
    10   h1     1   MOL    H4   10     0.100200      1.00800 ; qtot -0.100
    11   h1     1   MOL    H5   11     0.100200      1.00800 ; qtot -0.000

[ bonds ]
;   ai     aj funct   r             k
     1      3   1    1.5270e-01    1.9652e+05 ;     C1 - C3    
     1      4   1    1.2190e-01    4.9421e+05 ;     C1 - O1    
     1      5   1    1.3621e-01    2.9398e+05 ;     C1 - O2    
     2      5   1    1.4273e-01    2.3620e+05 ;     C2 - O2    
     2      7   1    1.0969e-01    2.8804e+05 ;     C2 - H1    
     2      8   1    1.0969e-01    2.8804e+05 ;     C2 - H2    
     2      9   1    1.0969e-01    2.8804e+05 ;     C2 - H3    
     3      6   1    1.8092e-01    1.3724e+05 ;     C3 - CL1   
     3     10   1    1.0969e-01    2.8804e+05 ;     C3 - H4    
     3     11   1    1.0969e-01    2.8804e+05 ;     C3 - H5    

[ pairs ]
;   ai     aj    funct
     1      7      1 ;     C1 - H1    
     1      8      1 ;     C1 - H2    
     1      9      1 ;     C1 - H3    
     3      2      1 ;     C3 - C2    
     4      2      1 ;     O1 - C2    
     4      6      1 ;     O1 - CL1   
     4     10      1 ;     O1 - H4    
     4     11      1 ;     O1 - H5    
     5      6      1 ;     O2 - CL1   
     5     10      1 ;     O2 - H4    
     5     11      1 ;     O2 - H5    

[ angles ]
;   ai     aj     ak    funct   theta         cth
     1      3      6      1    1.1058e+02    5.3296e+02 ;     C1 - C3     - CL1   
     1      3     10      1    1.0837e+02    3.6602e+02 ;     C1 - C3     - H4    
     1      3     11      1    1.0837e+02    3.6602e+02 ;     C1 - C3     - H5    
     1      5      2      1    1.1582e+02    7.4835e+02 ;     C1 - O2     - C2    
     3      1      4      1    1.2290e+02    6.3973e+02 ;     C3 - C1     - O1    
     3      1      5      1    1.1080e+02    6.5245e+02 ;     C3 - C1     - O2    
     4      1      5      1    1.2320e+02    8.4734e+02 ;     O1 - C1     - O2    
     5      2      7      1    1.1034e+02    4.7028e+02 ;     O2 - C2     - H1    
     5      2      8      1    1.1034e+02    4.7028e+02 ;     O2 - C2     - H2    
     5      2      9      1    1.1034e+02    4.7028e+02 ;     O2 - C2     - H3    
     6      3     10      1    1.0682e+02    3.6183e+02 ;    CL1 - C3     - H4    
     6      3     11      1    1.0682e+02    3.6183e+02 ;    CL1 - C3     - H5    
     7      2      8      1    1.0855e+02    2.9824e+02 ;     H1 - C2     - H2    
     7      2      9      1    1.0855e+02    2.9824e+02 ;     H1 - C2     - H3    
     8      2      9      1    1.0855e+02    2.9824e+02 ;     H2 - C2     - H3    
    10      3     11      1    1.0855e+02    2.9824e+02 ;     H4 - C3     - H5    

[ dihedrals ] ; propers
; for gromacs 4.5 or higher, using funct 9
;    i      j      k      l   func   phase     kd      pn
     1      5      2      7      9     0.00   1.60387   3 ;     C1-    O2-    C2-    H1
     1      5      2      8      9     0.00   1.60387   3 ;     C1-    O2-    C2-    H2
     1      5      2      9      9     0.00   1.60387   3 ;     C1-    O2-    C2-    H3
     3      1      5      2      9     0.00   3.13800   3 ;     C3-    C1-    O2-    C2
     3      1      5      2      9   180.00   7.90776   1 ;     C3-    C1-    O2-    C2
     3      1      5      2      9   180.00  13.76536   2 ;     C3-    C1-    O2-    C2
     4      1      3      6      9   180.00   0.00000   2 ;     O1-    C1-    C3-   CL1
     4      1      3     10      9     0.00   3.34720   1 ;     O1-    C1-    C3-    H4
     4      1      3     10      9   180.00   0.33472   3 ;     O1-    C1-    C3-    H4
     4      1      3     11      9     0.00   3.34720   1 ;     O1-    C1-    C3-    H5
     4      1      3     11      9   180.00   0.33472   3 ;     O1-    C1-    C3-    H5
     4      1      5      2      9   180.00   5.85760   1 ;     O1-    C1-    O2-    C2
     4      1      5      2      9   180.00  11.29680   2 ;     O1-    C1-    O2-    C2
     5      1      3      6      9   180.00   0.00000   2 ;     O2-    C1-    C3-   CL1
     5      1      3     10      9   180.00   0.00000   2 ;     O2-    C1-    C3-    H4
     5      1      3     11      9   180.00   0.00000   2 ;     O2-    C1-    C3-    H5

[ dihedrals ] ; impropers
; treated as propers in GROMACS to use correct AMBER analytical function
;    i      j      k      l   func   phase     kd      pn
     5      1      4      3      4   180.00   4.60240   2 ;     O2-    C1-    O1-    C3
