; mobley_5816127_GMX.itp created by acpype (v: 2023.10.27) on Thu May 14 13:55:24 2026

[ atomtypes ]
;name   bond_type     mass     charge   ptype   sigma         epsilon       Amb
 c3       c3          0.00000  0.00000   A     3.39771e-01   4.51035e-01 ; 1.91  0.1078
 oh       oh          0.00000  0.00000   A     3.24287e-01   3.89112e-01 ; 1.82  0.0930
 os       os          0.00000  0.00000   A     3.15610e-01   3.03758e-01 ; 1.77  0.0726
 h1       h1          0.00000  0.00000   A     2.42200e-01   8.70272e-02 ; 1.36  0.0208
 ho       ho          0.00000  0.00000   A     5.37925e-02   1.96648e-02 ; 0.30  0.0047

[ moleculetype ]
;name            nrexcl
 mobley_5816127   3

[ atoms ]
;   nr  type  resi  res  atom  cgnr     charge      mass       ; qtot   bond_type
     1   c3     1   MOL    C1    1     0.118700     12.01000 ; qtot 0.119
     2   c3     1   MOL    C2    2     0.132400     12.01000 ; qtot 0.251
     3   c3     1   MOL    C3    3     0.083400     12.01000 ; qtot 0.335
     4   oh     1   MOL    O1    4    -0.599800     16.00000 ; qtot -0.265
     5   os     1   MOL    O2    5    -0.433600     16.00000 ; qtot -0.699
     6   h1     1   MOL    H1    6     0.034700      1.00800 ; qtot -0.664
     7   h1     1   MOL    H2    7     0.034700      1.00800 ; qtot -0.629
     8   h1     1   MOL    H3    8     0.034700      1.00800 ; qtot -0.595
     9   h1     1   MOL    H4    9     0.052700      1.00800 ; qtot -0.542
    10   h1     1   MOL    H5   10     0.052700      1.00800 ; qtot -0.489
    11   h1     1   MOL    H6   11     0.038200      1.00800 ; qtot -0.451
    12   h1     1   MOL    H7   12     0.038200      1.00800 ; qtot -0.413
    13   ho     1   MOL    H8   13     0.413000      1.00800 ; qtot 0.000

[ bonds ]
;   ai     aj funct   r             k
     1      5   1    1.4273e-01    2.3620e+05 ;     C1 - O2    
     1      6   1    1.0969e-01    2.8804e+05 ;     C1 - H1    
     1      7   1    1.0969e-01    2.8804e+05 ;     C1 - H2    
     1      8   1    1.0969e-01    2.8804e+05 ;     C1 - H3    
     2      3   1    1.5354e-01    1.9154e+05 ;     C2 - C3    
     2      4   1    1.4242e-01    2.3861e+05 ;     C2 - O1    
     2      9   1    1.0969e-01    2.8804e+05 ;     C2 - H4    
     2     10   1    1.0969e-01    2.8804e+05 ;     C2 - H5    
     3      5   1    1.4273e-01    2.3620e+05 ;     C3 - O2    
     3     11   1    1.0969e-01    2.8804e+05 ;     C3 - H6    
     3     12   1    1.0969e-01    2.8804e+05 ;     C3 - H7    
     4     13   1    9.7250e-02    4.4811e+05 ;     O1 - H8    

[ pairs ]
;   ai     aj    funct
     1      2      1 ;     C1 - C2    
     1     11      1 ;     C1 - H6    
     1     12      1 ;     C1 - H7    
     3     13      1 ;     C3 - H8    
     4      5      1 ;     O1 - O2    
     4     11      1 ;     O1 - H6    
     4     12      1 ;     O1 - H7    
     5      9      1 ;     O2 - H4    
     5     10      1 ;     O2 - H5    
     6      3      1 ;     H1 - C3    
     7      3      1 ;     H2 - C3    
     8      3      1 ;     H3 - C3    
     9     11      1 ;     H4 - H6    
     9     12      1 ;     H4 - H7    
     9     13      1 ;     H4 - H8    
    10     11      1 ;     H5 - H6    
    10     12      1 ;     H5 - H7    
    10     13      1 ;     H5 - H8    

[ angles ]
;   ai     aj     ak    funct   theta         cth
     1      5      3      1    1.1360e+02    7.3915e+02 ;     C1 - O2     - C3    
     2      3      5      1    1.0762e+02    6.4802e+02 ;     C2 - C3     - O2    
     2      3     11      1    1.0959e+02    3.6217e+02 ;     C2 - C3     - H6    
     2      3     12      1    1.0959e+02    3.6217e+02 ;     C2 - C3     - H7    
     2      4     13      1    1.0739e+02    5.4501e+02 ;     C2 - O1     - H8    
     3      2      4      1    1.0966e+02    6.4258e+02 ;     C3 - C2     - O1    
     3      2      9      1    1.0959e+02    3.6217e+02 ;     C3 - C2     - H4    
     3      2     10      1    1.0959e+02    3.6217e+02 ;     C3 - C2     - H5    
     4      2      9      1    1.1038e+02    4.7103e+02 ;     O1 - C2     - H4    
     4      2     10      1    1.1038e+02    4.7103e+02 ;     O1 - C2     - H5    
     5      1      6      1    1.1034e+02    4.7028e+02 ;     O2 - C1     - H1    
     5      1      7      1    1.1034e+02    4.7028e+02 ;     O2 - C1     - H2    
     5      1      8      1    1.1034e+02    4.7028e+02 ;     O2 - C1     - H3    
     5      3     11      1    1.1034e+02    4.7028e+02 ;     O2 - C3     - H6    
     5      3     12      1    1.1034e+02    4.7028e+02 ;     O2 - C3     - H7    
     6      1      7      1    1.0855e+02    2.9824e+02 ;     H1 - C1     - H2    
     6      1      8      1    1.0855e+02    2.9824e+02 ;     H1 - C1     - H3    
     7      1      8      1    1.0855e+02    2.9824e+02 ;     H2 - C1     - H3    
     9      2     10      1    1.0855e+02    2.9824e+02 ;     H4 - C2     - H5    
    11      3     12      1    1.0855e+02    2.9824e+02 ;     H6 - C3     - H7    

[ dihedrals ] ; propers
; for gromacs 4.5 or higher, using funct 9
;    i      j      k      l   func   phase     kd      pn
     1      5      3      2      9     0.00   0.33472   2 ;     C1-    O2-    C3-    C2
     1      5      3      2      9     0.00   3.13800   3 ;     C1-    O2-    C3-    C2
     1      5      3      2      9   180.00   3.68192   1 ;     C1-    O2-    C3-    C2
     1      5      3     11      9     0.00   1.41001   3 ;     C1-    O2-    C3-    H6
     1      5      3     12      9     0.00   1.41001   3 ;     C1-    O2-    C3-    H7
     3      2      4     13      9     0.00   0.25104   3 ;     C3-    C2-    O1-    H8
     4      2      3      5      9     0.00   0.65084   3 ;     O1-    C2-    C3-    O2
     4      2      3     11      9     0.00   0.00000   0 ;     O1-    C2-    C3-    H6
     4      2      3     11      9     0.00   1.04600   1 ;     O1-    C2-    C3-    H6
     4      2      3     12      9     0.00   0.00000   0 ;     O1-    C2-    C3-    H7
     4      2      3     12      9     0.00   1.04600   1 ;     O1-    C2-    C3-    H7
     5      3      2      9      9     0.00   0.00000   0 ;     O2-    C3-    C2-    H4
     5      3      2      9      9     0.00   1.04600   1 ;     O2-    C3-    C2-    H4
     5      3      2     10      9     0.00   0.00000   0 ;     O2-    C3-    C2-    H5
     5      3      2     10      9     0.00   1.04600   1 ;     O2-    C3-    C2-    H5
     6      1      5      3      9     0.00   1.41001   3 ;     H1-    C1-    O2-    C3
     7      1      5      3      9     0.00   1.41001   3 ;     H2-    C1-    O2-    C3
     8      1      5      3      9     0.00   1.41001   3 ;     H3-    C1-    O2-    C3
     9      2      3     11      9     0.00   0.65084   3 ;     H4-    C2-    C3-    H6
     9      2      3     12      9     0.00   0.65084   3 ;     H4-    C2-    C3-    H7
     9      2      4     13      9     0.00   0.51463   3 ;     H4-    C2-    O1-    H8
    10      2      3     11      9     0.00   0.65084   3 ;     H5-    C2-    C3-    H6
    10      2      3     12      9     0.00   0.65084   3 ;     H5-    C2-    C3-    H7
    10      2      4     13      9     0.00   0.51463   3 ;     H5-    C2-    O1-    H8
