mobley_2005792_GMX.gro created by acpype (v: 2023.10.27) on Thu May 14 13:30:22 2026
 2479
    1MOL     C1    1   1.173   1.266   1.416
    1MOL     C2    2   1.230   1.334   1.309
    1MOL     C3    3   1.345   1.412   1.328
    1MOL     C4    4   1.404   1.424   1.454
    1MOL     C5    5   1.345   1.354   1.561
    1MOL     C6    6   1.231   1.276   1.542
    1MOL     C7    7   1.525   1.506   1.475
    1MOL     C8    8   1.636   1.495   1.388
    1MOL     C9    9   1.750   1.573   1.408
    1MOL    C10   10   1.756   1.663   1.513
    1MOL    C11   11   1.648   1.676   1.600
    1MOL    C12   12   1.534   1.598   1.581
    1MOL     H1   13   1.084   1.205   1.401
    1MOL     H2   14   1.185   1.327   1.210
    1MOL     H3   15   1.386   1.465   1.242
    1MOL     H4   16   1.389   1.359   1.661
    1MOL     H5   17   1.187   1.223   1.626
    1MOL     H6   18   1.635   1.424   1.306
    1MOL     H7   19   1.835   1.562   1.340
    1MOL     H8   20   1.845   1.724   1.528
    1MOL     H9   21   1.652   1.747   1.682
    1MOL    H10   22   1.450   1.611   1.649
    2SOL     OW   23   0.230   0.628   0.113
    2SOL    HW1   24   0.137   0.626   0.150
    2SOL    HW2   25   0.231   0.589   0.021
    3SOL     OW   26   0.225   0.275   0.996
    3SOL    HW1   27   0.260   0.258   1.088
    3SOL    HW2   28   0.137   0.230   0.984
    4SOL     OW   29   0.019   0.368   0.647
    4SOL    HW1   30  -0.063   0.411   0.686
    4SOL    HW2   31  -0.009   0.295   0.584
    5SOL     OW   32   0.569   1.275   1.165
    5SOL    HW1   33   0.476   1.268   1.128
    5SOL    HW2   34   0.580   1.364   1.209
    6SOL     OW   35   1.555   1.511   0.703
    6SOL    HW1   36   1.498   1.495   0.784
    6SOL    HW2   37   1.496   1.521   0.623
    7SOL     OW   38   1.135   0.703   0.717
    7SOL    HW1   39   1.192   0.781   0.692
    7SOL    HW2   40   1.075   0.729   0.793
    8SOL     OW   41   1.755   0.607   0.231
    8SOL    HW1   42   1.743   0.594   0.132
    8SOL    HW2   43   1.725   0.526   0.280
    9SOL     OW   44   0.768   1.144   1.023
    9SOL    HW1   45   0.690   1.161   1.083
    9SOL    HW2   46   0.802   1.231   0.987
   10SOL     OW   47   0.850   0.798   1.823
   10SOL    HW1   48   0.846   0.874   1.888
   10SOL    HW2   49   0.872   0.834   1.732
   11SOL     OW   50   0.685   1.012   0.665
   11SOL    HW1   51   0.754   0.996   0.735
   11SOL    HW2   52   0.612   1.069   0.703
   12SOL     OW   53   0.686   1.161   1.803
   12SOL    HW1   54   0.746   1.240   1.817
   12SOL    HW2   55   0.600   1.192   1.762
   13SOL     OW   56   0.335   1.435   1.061
   13SOL    HW1   57   0.257   1.404   1.008
   13SOL    HW2   58   0.393   1.493   1.004
   14SOL     OW   59   0.438   0.392   1.499
   14SOL    HW1   60   0.520   0.336   1.508
   14SOL    HW2   61   0.357   0.334   1.503
   15SOL     OW   62   1.603   0.447   0.737
   15SOL    HW1   63   1.529   0.493   0.687
   15SOL    HW2   64   1.654   0.515   0.790
   16SOL     OW   65   0.231   1.713   0.483
   16SOL    HW1   66   0.265   1.790   0.537
   16SOL    HW2   67   0.275   1.713   0.393
   17SOL     OW   68   0.230   1.434   0.538
   17SOL    HW1   69   0.204   1.530   0.538
   17SOL    HW2   70   0.159   1.380   0.583
   18SOL     OW   71   0.240   1.091   0.886
   18SOL    HW1   72   0.254   1.007   0.938
   18SOL    HW2   73   0.185   1.155   0.941
   19SOL     OW   74   0.620   1.786   1.439
   19SOL    HW1   75   0.528   1.769   1.474
   19SOL    HW2   76   0.648   1.878   1.465
   20SOL     OW   77   0.606   0.964   0.123
   20SOL    HW1   78   0.613   1.048   0.069
   20SOL    HW2   79   0.652   0.977   0.211
   21SOL     OW   80   1.594   0.114   1.480
   21SOL    HW1   81   1.576   0.181   1.408
   21SOL    HW2   82   1.591   0.160   1.569
   22SOL     OW   83   0.122   0.643   0.563
   22SOL    HW1   84   0.077   0.555   0.580
   22SOL    HW2   85   0.121   0.697   0.647
   23SOL     OW   86   1.842   1.767   0.359
   23SOL    HW1   87   1.896   1.738   0.439
   23SOL    HW2   88   1.872   1.857   0.330
   24SOL     OW   89   0.027   1.596   0.117
   24SOL    HW1   90   0.008   1.500   0.138
   24SOL    HW2   91  -0.006   1.654   0.192
   25SOL     OW   92   1.689   0.922   0.612
   25SOL    HW1   93   1.784   0.893   0.620
   25SOL    HW2   94   1.681   0.987   0.537
   26SOL     OW   95   1.641   1.108   0.432
   26SOL    HW1   96   1.727   1.110   0.380
   26SOL    HW2   97   1.655   1.155   0.520
   27SOL     OW   98   0.113   0.737   1.597
   27SOL    HW1   99   0.201   0.724   1.642
   27SOL    HW2  100   0.100   0.834   1.575
   28SOL     OW  101   0.613   1.365   0.726
   28SOL    HW1  102   0.564   1.278   0.735
   28SOL    HW2  103   0.590   1.408   0.639
   29SOL     OW  104   0.809   0.004   0.502
   29SOL    HW1  105   0.849   0.095   0.493
   29SOL    HW2  106   0.709   0.012   0.508
   30SOL     OW  107   0.197   0.976   1.264
   30SOL    HW1  108   0.286   0.931   1.250
   30SOL    HW2  109   0.124   0.911   1.245
   31SOL     OW  110   1.525   0.999   0.190
   31SOL    HW1  111   1.462   0.923   0.203
   31SOL    HW2  112   1.573   1.017   0.276
   32SOL     OW  113   1.187   1.792   1.616
   32SOL    HW1  114   1.211   1.852   1.540
   32SOL    HW2  115   1.194   1.697   1.586
   33SOL     OW  116   0.317   0.251   1.801
   33SOL    HW1  117   0.388   0.322   1.807
   33SOL    HW2  118   0.229   0.290   1.829
   34SOL     OW  119   1.466   1.417   0.953
   34SOL    HW1  120   1.407   1.423   1.033
   34SOL    HW2  121   1.451   1.329   0.907
   35SOL     OW  122   1.667   1.714   0.572
   35SOL    HW1  123   1.626   1.691   0.484
   35SOL    HW2  124   1.649   1.640   0.637
   36SOL     OW  125   0.598   0.729   0.270
   36SOL    HW1  126   0.622   0.798   0.202
   36SOL    HW2  127   0.520   0.762   0.324
   37SOL     OW  128   1.281   0.345   0.944
   37SOL    HW1  129   1.195   0.295   0.931
   37SOL    HW2  130   1.343   0.291   1.000
   38SOL     OW  131   1.576   1.662   0.307
   38SOL    HW1  132   1.665   1.708   0.310
   38SOL    HW2  133   1.555   1.638   0.212
   39SOL     OW  134   0.807   0.605   1.465
   39SOL    HW1  135   0.760   0.602   1.554
   39SOL    HW2  136   0.756   0.550   1.399
   40SOL     OW  137   1.394   0.469   1.674
   40SOL    HW1  138   1.374   0.512   1.762
   40SOL    HW2  139   1.472   0.407   1.683
   41SOL     OW  140   0.973   0.890   1.572
   41SOL    HW1  141   1.019   0.806   1.543
   41SOL    HW2  142   0.917   0.924   1.497
   42SOL     OW  143   0.991   0.410   1.242
   42SOL    HW1  144   0.914   0.444   1.296
   42SOL    HW2  145   0.957   0.359   1.163
   43SOL     OW  146   1.041   0.701   0.429
   43SOL    HW1  147   1.067   0.697   0.525
   43SOL    HW2  148   0.956   0.650   0.415
   44SOL     OW  149   0.076   0.811   0.789
   44SOL    HW1  150   0.175   0.799   0.798
   44SOL    HW2  151   0.052   0.906   0.810
   45SOL     OW  152   0.130   1.821   1.571
   45SOL    HW1  153   0.120   1.806   1.670
   45SOL    HW2  154   0.044   1.857   1.535
   46SOL     OW  155   0.865   0.348   0.195
   46SOL    HW1  156   0.924   0.411   0.146
   46SOL    HW2  157   0.884   0.254   0.166
   47SOL     OW  158   1.719   0.585   1.831
   47SOL    HW1  159   1.693   0.674   1.795
   47SOL    HW2  160   1.717   0.517   1.758
   48SOL     OW  161   1.362   1.144   0.545
   48SOL    HW1  162   1.445   1.115   0.497
   48SOL    HW2  163   1.313   1.211   0.489
   49SOL     OW  164   0.550   0.196   0.885
   49SOL    HW1  165   0.545   0.191   0.985
   49SOL    HW2  166   0.552   0.292   0.856
   50SOL     OW  167   1.008   1.456   0.477
   50SOL    HW1  168   0.962   1.528   0.425
   50SOL    HW2  169   1.004   1.476   0.575
   51SOL     OW  170   0.351   1.801   0.853
   51SOL    HW1  171   0.401   1.715   0.859
   51SOL    HW2  172   0.416   1.878   0.850
   52SOL     OW  173   1.795   1.066   0.873
   52SOL    HW1  174   1.733   1.051   0.797
   52SOL    HW2  175   1.743   1.077   0.958
   53SOL     OW  176   0.321   0.943   0.242
   53SOL    HW1  177   0.403   0.982   0.200
   53SOL    HW2  178   0.294   0.861   0.193
   54SOL     OW  179   1.458   0.735   0.728
   54SOL    HW1  180   1.453   0.670   0.803
   54SOL    HW2  181   1.538   0.794   0.741
   55SOL     OW  182   0.461   1.266   1.727
   55SOL    HW1  183   0.411   1.267   1.641
   55SOL    HW2  184   0.398   1.248   1.803
   56SOL     OW  185   1.111   1.776   0.237
   56SOL    HW1  186   1.051   1.714   0.287
   56SOL    HW2  187   1.142   1.732   0.152
   57SOL     OW  188   0.202   0.285   1.498
   57SOL    HW1  189   0.122   0.345   1.485
   57SOL    HW2  190   0.192   0.236   1.584
   58SOL     OW  191   1.632   1.377   0.081
   58SOL    HW1  192   1.600   1.471   0.071
   58SOL    HW2  193   1.556   1.314   0.069
   59SOL     OW  194   0.464   1.743   0.323
   59SOL    HW1  195   0.497   1.782   0.409
   59SOL    HW2  196   0.540   1.736   0.258
   60SOL     OW  197   1.400   0.107   0.426
   60SOL    HW1  198   1.376   0.070   0.336
   60SOL    HW2  199   1.499   0.123   0.430
   61SOL     OW  200   0.249   1.785   1.241
   61SOL    HW1  201   0.306   1.720   1.291
   61SOL    HW2  202   0.233   1.752   1.148
   62SOL     OW  203   0.940   1.698   0.904
   62SOL    HW1  204   1.020   1.641   0.925
   62SOL    HW2  205   0.891   1.658   0.827
   63SOL     OW  206   0.382   0.700   0.480
   63SOL    HW1  207   0.427   0.610   0.477
   63SOL    HW2  208   0.288   0.689   0.513
   64SOL     OW  209   1.547   0.222   1.729
   64SOL    HW1  210   1.542   0.259   1.821
   64SOL    HW2  211   1.475   0.153   1.717
   65SOL     OW  212   0.614   0.122   0.117
   65SOL    HW1  213   0.712   0.100   0.124
   65SOL    HW2  214   0.583   0.105   0.024
   66SOL     OW  215   0.781   0.264   1.749
   66SOL    HW1  216   0.848   0.203   1.792
   66SOL    HW2  217   0.708   0.283   1.814
   67SOL     OW  218   0.888   1.514   1.195
   67SOL    HW1  219   0.865   1.489   1.101
   67SOL    HW2  220   0.949   1.445   1.234
   68SOL     OW  221   1.351   0.590   1.433
   68SOL    HW1  222   1.379   0.547   1.518
   68SOL    HW2  223   1.376   0.686   1.434
   69SOL     OW  224   0.803   1.402   0.924
   69SOL    HW1  225   0.893   1.416   0.882
   69SOL    HW2  226   0.732   1.404   0.853
   70SOL     OW  227   0.922   0.503   0.899
   70SOL    HW1  228   0.897   0.494   0.803
   70SOL    HW2  229   0.970   0.421   0.930
   71SOL     OW  230   0.539   0.064   0.512
   71SOL    HW1  231   0.458   0.065   0.570
   71SOL    HW2  232   0.542   0.147   0.457
   72SOL     OW  233   1.434   1.188   0.041
   72SOL    HW1  234   1.466   1.112   0.098
   72SOL    HW2  235   1.342   1.215   0.071
   73SOL     OW  236   0.297   0.035   0.171
   73SOL    HW1  237   0.346   0.119   0.150
   73SOL    HW2  238   0.359  -0.030   0.216
   74SOL     OW  239   0.935   0.236   0.480
   74SOL    HW1  240   0.887   0.277   0.402
   74SOL    HW2  241   1.034   0.234   0.461
   75SOL     OW  242   1.076   0.683   1.464
   75SOL    HW1  243   0.996   0.622   1.467
   75SOL    HW2  244   1.157   0.630   1.440
   76SOL     OW  245   1.227   1.570   0.793
   76SOL    HW1  246   1.248   1.644   0.728
   76SOL    HW2  247   1.295   1.570   0.866
   77SOL     OW  248   0.459   1.152   0.741
   77SOL    HW1  249   0.388   1.125   0.806
   77SOL    HW2  250   0.433   1.124   0.648
   78SOL     OW  251   1.271   1.797   0.591
   78SOL    HW1  252   1.315   1.861   0.527
   78SOL    HW2  253   1.221   1.849   0.661
   79SOL     OW  254   1.032   0.549   0.016
   79SOL    HW1  255   0.991   0.631  -0.023
   79SOL    HW2  256   1.096   0.575   0.089
   80SOL     OW  257   0.078   0.556   1.386
   80SOL    HW1  258   0.170   0.555   1.345
   80SOL    HW2  259   0.072   0.630   1.453
   81SOL     OW  260   0.561   0.222   1.147
   81SOL    HW1  261   0.599   0.138   1.184
   81SOL    HW2  262   0.473   0.241   1.191
   82SOL     OW  263   0.866   0.454   0.642
   82SOL    HW1  264   0.834   0.526   0.580
   82SOL    HW2  265   0.890   0.373   0.589
   83SOL     OW  266   1.017   0.039   0.753
   83SOL    HW1  267   0.945   0.044   0.684
   83SOL    HW2  268   0.993  -0.030   0.822
   84SOL     OW  269   1.429   1.173   0.867
   84SOL    HW1  270   1.374   1.089   0.860
   84SOL    HW2  271   1.455   1.202   0.775
   85SOL     OW  272   1.466   0.590   0.992
   85SOL    HW1  273   1.436   0.495   0.999
   85SOL    HW2  274   1.539   0.606   1.058
   86SOL     OW  275   1.857   0.833   0.377
   86SOL    HW1  276   1.899   0.769   0.441
   86SOL    HW2  277   1.819   0.782   0.299
   87SOL     OW  278   0.488   1.385   0.174
   87SOL    HW1  279   0.401   1.370   0.221
   87SOL    HW2  280   0.471   1.411   0.079
   88SOL     OW  281   1.664   1.280   0.657
   88SOL    HW1  282   1.763   1.288   0.671
   88SOL    HW2  283   1.619   1.364   0.688
   89SOL     OW  284   1.390   0.575   0.078
   89SOL    HW1  285   1.336   0.554   0.159
   89SOL    HW2  286   1.481   0.534   0.087
   90SOL     OW  287   0.527   0.256   0.328
   90SOL    HW1  288   0.554   0.197   0.253
   90SOL    HW2  289   0.527   0.351   0.297
   91SOL     OW  290   1.754   1.223   1.588
   91SOL    HW1  291   1.845   1.184   1.575
   91SOL    HW2  292   1.762   1.319   1.612
   92SOL     OW  293   1.111   1.195   1.100
   92SOL    HW1  294   1.071   1.239   1.181
   92SOL    HW2  295   1.070   1.232   1.017
   93SOL     OW  296   1.638   1.099   1.079
   93SOL    HW1  297   1.643   1.180   1.138
   93SOL    HW2  298   1.552   1.101   1.028
   94SOL     OW  299   0.915   0.089   1.402
   94SOL    HW1  300   0.940   0.069   1.307
   94SOL    HW2  301   0.987   0.145   1.444
   95SOL     OW  302   0.980   1.116   1.719
   95SOL    HW1  303   0.881   1.122   1.729
   95SOL    HW2  304   1.003   1.036   1.663
   96SOL     OW  305   0.705   1.050   0.368
   96SOL    HW1  306   0.691   1.057   0.467
   96SOL    HW2  307   0.789   0.999   0.350
   97SOL     OW  308   0.410   0.813   1.251
   97SOL    HW1  309   0.496   0.825   1.301
   97SOL    HW2  310   0.368   0.726   1.278
   98SOL     OW  311   1.274   0.386   1.262
   98SOL    HW1  312   1.295   0.460   1.326
   98SOL    HW2  313   1.185   0.403   1.219
   99SOL     OW  314   0.064   1.564   1.331
   99SOL    HW1  315   0.018   1.646   1.297
   99SOL    HW2  316   0.162   1.583   1.340
  100SOL     OW  317   0.367   1.100   0.501
  100SOL    HW1  318   0.360   1.183   0.445
  100SOL    HW2  319   0.371   1.020   0.441
  101SOL     OW  320   0.566   0.537   0.865
  101SOL    HW1  321   0.578   0.603   0.791
  101SOL    HW2  322   0.612   0.571   0.948
  102SOL     OW  323   1.252   1.348   0.388
  102SOL    HW1  324   1.302   1.425   0.428
  102SOL    HW2  325   1.157   1.350   0.420
  103SOL     OW  326   1.582   0.639   0.472
  103SOL    HW1  327   1.551   0.700   0.545
  103SOL    HW2  328   1.632   0.691   0.403
  104SOL     OW  329   0.354   1.510   1.329
  104SOL    HW1  330   0.333   1.466   1.242
  104SOL    HW2  331   0.451   1.536   1.332
  105SOL     OW  332   0.402   0.751   1.598
  105SOL    HW1  333   0.470   0.806   1.551
  105SOL    HW2  334   0.442   0.663   1.625
  106SOL     OW  335   1.587   0.779   1.670
  106SOL    HW1  336   1.495   0.817   1.665
  106SOL    HW2  337   1.647   0.826   1.605
  107SOL     OW  338   1.013   0.105   1.770
  107SOL    HW1  339   1.019   0.190   1.718
  107SOL    HW2  340   1.045   0.029   1.713
  108SOL     OW  341   0.504   0.050   1.740
  108SOL    HW1  342   0.462  -0.007   1.670
  108SOL    HW2  343   0.438   0.119   1.772
  109SOL     OW  344   0.573   0.870   1.029
  109SOL    HW1  345   0.617   0.959   1.020
  109SOL    HW2  346   0.510   0.870   1.106
  110SOL     OW  347   1.360   0.862   1.045
  110SOL    HW1  348   1.285   0.862   0.979
  110SOL    HW2  349   1.397   0.770   1.054
  111SOL     OW  350   1.209   0.525   0.275
  111SOL    HW1  351   1.222   0.441   0.329
  111SOL    HW2  352   1.180   0.599   0.335
  112SOL     OW  353   0.307   0.213   1.231
  112SOL    HW1  354   0.284   0.250   1.321
  112SOL    HW2  355   0.277   0.118   1.225
  113SOL     OW  356   0.037   1.310   1.282
  113SOL    HW1  357   0.090   1.261   1.350
  113SOL    HW2  358   0.059   1.408   1.287
  114SOL     OW  359   0.732   0.634   1.064
  114SOL    HW1  360   0.791   0.608   0.988
  114SOL    HW2  361   0.704   0.730   1.053
  115SOL     OW  362   1.728   0.935   1.854
  115SOL    HW1  363   1.682   0.928   1.765
  115SOL    HW2  364   1.666   0.979   1.920
  116SOL     OW  365   0.307   0.063   0.618
  116SOL    HW1  366   0.296   0.157   0.651
  116SOL    HW2  367   0.302   0.000   0.695
  117SOL     OW  368   1.622   0.367   0.374
  117SOL    HW1  369   1.624   0.291   0.438
  117SOL    HW2  370   1.574   0.444   0.414
  118SOL     OW  371   1.023   0.766   0.966
  118SOL    HW1  372   1.038   0.787   1.062
  118SOL    HW2  373   0.993   0.671   0.957
  119SOL     OW  374   0.980   1.573   1.700
  119SOL    HW1  375   0.960   1.617   1.612
  119SOL    HW2  376   1.019   1.482   1.684
  120SOL     OW  377   0.350   0.898   1.804
  120SOL    HW1  378   0.426   0.942   1.852
  120SOL    HW2  379   0.385   0.851   1.722
  121SOL     OW  380   1.540   0.274   0.125
  121SOL    HW1  381   1.479   0.199   0.148
  121SOL    HW2  382   1.562   0.326   0.208
  122SOL     OW  383   1.303   0.838   0.042
  122SOL    HW1  384   1.337   0.745   0.057
  122SOL    HW2  385   1.321   0.865  -0.053
  123SOL     OW  386   1.068   1.333   0.849
  123SOL    HW1  387   1.075   1.249   0.794
  123SOL    HW2  388   1.130   1.402   0.813
  124SOL     OW  389   0.319   0.810   0.949
  124SOL    HW1  390   0.412   0.846   0.954
  124SOL    HW2  391   0.313   0.725   1.001
  125SOL     OW  392   0.339   0.509   1.006
  125SOL    HW1  393   0.287   0.426   0.989
  125SOL    HW2  394   0.416   0.514   0.942
  126SOL     OW  395   1.138   0.380   1.678
  126SOL    HW1  396   1.093   0.443   1.742
  126SOL    HW2  397   1.231   0.411   1.661
  127SOL     OW  398   1.160   0.207   1.477
  127SOL    HW1  399   1.160   0.271   1.554
  127SOL    HW2  400   1.188   0.255   1.394
  128SOL     OW  401   0.008   1.326   0.200
  128SOL    HW1  402  -0.085   1.347   0.169
  128SOL    HW2  403   0.018   1.227   0.213
  129SOL     OW  404   0.088   1.801   0.927
  129SOL    HW1  405   0.046   1.715   0.900
  129SOL    HW2  406   0.182   1.804   0.893
  130SOL     OW  407   0.504   1.568   0.910
  130SOL    HW1  408   0.570   1.642   0.919
  130SOL    HW2  409   0.548   1.489   0.868
  131SOL     OW  410   1.002   0.796   1.238
  131SOL    HW1  411   1.043   0.764   1.324
  131SOL    HW2  412   0.906   0.769   1.235
  132SOL     OW  413   0.040   0.544   1.114
  132SOL    HW1  414   0.125   0.511   1.073
  132SOL    HW2  415   0.053   0.559   1.212
  133SOL     OW  416   0.189   0.520   1.722
  133SOL    HW1  417   0.248   0.480   1.652
  133SOL    HW2  418   0.131   0.591   1.681
  134SOL     OW  419   1.369   0.950   1.660
  134SOL    HW1  420   1.408   1.039   1.680
  134SOL    HW2  421   1.379   0.930   1.563
  135SOL     OW  422   0.815   0.572   0.325
  135SOL    HW1  423   0.822   0.483   0.279
  135SOL    HW2  424   0.721   0.606   0.317
  136SOL     OW  425   1.657   0.604   1.206
  136SOL    HW1  426   1.619   0.535   1.268
  136SOL    HW2  427   1.739   0.568   1.162
  137SOL     OW  428   0.252   1.564   1.744
  137SOL    HW1  429   0.222   1.621   1.820
  137SOL    HW2  430   0.245   1.467   1.770
  138SOL     OW  431   0.671   0.464   1.269
  138SOL    HW1  432   0.637   0.375   1.239
  138SOL    HW2  433   0.697   0.518   1.189
  139SOL     OW  434   0.930   1.678   1.465
  139SOL    HW1  435   0.906   1.660   1.370
  139SOL    HW2  436   0.960   1.772   1.475
  140SOL     OW  437   0.473   0.500   0.191
  140SOL    HW1  438   0.534   0.580   0.195
  140SOL    HW2  439   0.378   0.531   0.198
  141SOL     OW  440   0.159   1.137   1.466
  141SOL    HW1  441   0.181   1.076   1.542
  141SOL    HW2  442   0.169   1.088   1.380
  142SOL     OW  443   1.347   1.059   1.234
  142SOL    HW1  444   1.371   0.996   1.160
  142SOL    HW2  445   1.257   1.099   1.216
  143SOL     OW  446   1.302   0.855   0.309
  143SOL    HW1  447   1.216   0.824   0.351
  143SOL    HW2  448   1.298   0.841   0.210
  144SOL     OW  449   1.759   1.747   1.154
  144SOL    HW1  450   1.820   1.777   1.081
  144SOL    HW2  451   1.721   1.658   1.132
  145SOL     OW  452   1.252   1.731   1.128
  145SOL    HW1  453   1.336   1.736   1.074
  145SOL    HW2  454   1.229   1.635   1.146
  146SOL     OW  455   0.083   1.258   1.022
  146SOL    HW1  456   0.078   1.257   1.122
  146SOL    HW2  457   0.000   1.217   0.984
  147SOL     OW  458   0.688   1.662   1.716
  147SOL    HW1  459   0.632   1.743   1.725
  147SOL    HW2  460   0.740   1.666   1.630
  148SOL     OW  461   0.903   0.086   0.133
  148SOL    HW1  462   0.954   0.087   0.047
  148SOL    HW2  463   0.959   0.044   0.204
  149SOL     OW  464   1.726   0.135   0.523
  149SOL    HW1  465   1.799   0.118   0.456
  149SOL    HW2  466   1.695   0.048   0.561
  150SOL     OW  467   1.388   1.573   0.477
  150SOL    HW1  468   1.455   1.585   0.403
  150SOL    HW2  469   1.348   1.662   0.500
  151SOL     OW  470   0.130   1.794   1.851
  151SOL    HW1  471   0.089   1.720   1.904
  151SOL    HW2  472   0.194   1.845   1.909
  152SOL     OW  473   1.280   0.927   0.672
  152SOL    HW1  474   1.340   0.846   0.674
  152SOL    HW2  475   1.320   0.996   0.612
  153SOL     OW  476   0.830   1.273   1.422
  153SOL    HW1  477   0.825   1.306   1.517
  153SOL    HW2  478   0.744   1.292   1.376
  154SOL     OW  479   0.672   1.616   0.154
  154SOL    HW1  480   0.681   1.626   0.055
  154SOL    HW2  481   0.632   1.527   0.175
  155SOL     OW  482   1.841   0.175   0.963
  155SOL    HW1  483   1.880   0.090   0.927
  155SOL    HW2  484   1.743   0.177   0.944
  156SOL     OW  485   0.263   0.326   0.720
  156SOL    HW1  486   0.184   0.377   0.686
  156SOL    HW2  487   0.254   0.311   0.818
  157SOL     OW  488   1.194   1.612   0.031
  157SOL    HW1  489   1.200   1.519   0.068
  157SOL    HW2  490   1.135   1.612  -0.049
  158SOL     OW  491   0.822   1.002   1.372
  158SOL    HW1  492   0.862   1.001   1.280
  158SOL    HW2  493   0.832   1.094   1.412
  159SOL     OW  494   0.916   0.910   0.291
  159SOL    HW1  495   0.979   0.948   0.223
  159SOL    HW2  496   0.956   0.827   0.330
  160SOL     OW  497   1.504   1.607   0.044
  160SOL    HW1  498   1.412   1.644   0.051
  160SOL    HW2  499   1.542   1.627  -0.046
  161SOL     OW  500   0.372   1.288   1.490
  161SOL    HW1  501   0.359   1.381   1.456
  161SOL    HW2  502   0.288   1.236   1.477
  162SOL     OW  503   1.039   1.098   0.696
  162SOL    HW1  504   0.969   1.051   0.750
  162SOL    HW2  505   1.098   1.030   0.653
  163SOL     OW  506   1.014   0.236   0.971
  163SOL    HW1  507   1.006   0.200   0.878
  163SOL    HW2  508   1.012   0.160   1.036
  164SOL     OW  509   0.590   1.487   0.491
  164SOL    HW1  510   0.632   1.429   0.421
  164SOL    HW2  511   0.546   1.566   0.447
  165SOL     OW  512   1.709   0.385   1.381
  165SOL    HW1  513   1.782   0.454   1.385
  165SOL    HW2  514   1.737   0.310   1.322
  166SOL     OW  515   0.255   1.348   0.290
  166SOL    HW1  516   0.159   1.349   0.263
  166SOL    HW2  517   0.267   1.401   0.374
  167SOL     OW  518   0.105   1.013   1.726
  167SOL    HW1  519   0.028   0.980   1.780
  167SOL    HW2  520   0.190   0.983   1.768
  168SOL     OW  521   0.672   0.203   1.489
  168SOL    HW1  522   0.762   0.187   1.449
  168SOL    HW2  523   0.680   0.208   1.588
  169SOL     OW  524   0.075   0.345   0.033
  169SOL    HW1  525  -0.017   0.317   0.004
  169SOL    HW2  526   0.106   0.422  -0.023
  170SOL     OW  527   1.440   0.856   1.398
  170SOL    HW1  528   1.383   0.908   1.335
  170SOL    HW2  529   1.536   0.868   1.374
  171SOL     OW  530   0.072   0.166   0.318
  171SOL    HW1  531   0.055   0.249   0.264
  171SOL    HW2  532   0.162   0.129   0.296
  172SOL     OW  533   1.183   1.335   0.119
  172SOL    HW1  534   1.084   1.324   0.121
  172SOL    HW2  535   1.217   1.350   0.212
  173SOL     OW  536   0.613   0.842   1.431
  173SOL    HW1  537   0.669   0.923   1.414
  173SOL    HW2  538   0.672   0.762   1.434
  174SOL     OW  539   1.493   1.767   0.959
  174SOL    HW1  540   1.526   1.831   0.890
  174SOL    HW2  541   1.559   1.761   1.034
  175SOL     OW  542   0.716   0.565   1.708
  175SOL    HW1  543   0.735   0.630   1.782
  175SOL    HW2  544   0.776   0.485   1.717
  176SOL     OW  545   0.390   1.741   1.560
  176SOL    HW1  546   0.299   1.782   1.558
  176SOL    HW2  547   0.383   1.647   1.592
  177SOL     OW  548   1.674   0.883   1.254
  177SOL    HW1  549   1.647   0.794   1.217
  177SOL    HW2  550   1.675   0.951   1.181
  178SOL     OW  551   1.225   0.325   0.449
  178SOL    HW1  552   1.290   0.251   0.438
  178SOL    HW2  553   1.245   0.375   0.533
  179SOL     OW  554   0.594   0.745   0.652
  179SOL    HW1  555   0.644   0.830   0.633
  179SOL    HW2  556   0.506   0.747   0.604
  180SOL     OW  557   1.777   0.342   1.642
  180SOL    HW1  558   1.760   0.373   1.548
  180SOL    HW2  559   1.693   0.305   1.680
  181SOL     OW  560   1.730   0.934   1.517
  181SOL    HW1  561   1.768   1.025   1.532
  181SOL    HW2  562   1.722   0.917   1.418
  182SOL     OW  563   0.859   1.374   0.016
  182SOL    HW1  564   0.813   1.389   0.104
  182SOL    HW2  565   0.903   1.459  -0.014
  183SOL     OW  566   0.661   1.790   0.953
  183SOL    HW1  567   0.615   1.878   0.940
  183SOL    HW2  568   0.760   1.802   0.946
  184SOL     OW  569   0.859   0.956   0.861
  184SOL    HW1  570   0.913   0.887   0.909
  184SOL    HW2  571   0.827   1.025   0.927
  185SOL     OW  572   1.083   0.984   0.087
  185SOL    HW1  573   1.060   1.037   0.005
  185SOL    HW2  574   1.164   0.928   0.068
  186SOL     OW  575   1.861   1.569   0.851
  186SOL    HW1  576   1.790   1.557   0.781
  186SOL    HW2  577   1.862   1.490   0.911
  187SOL     OW  578   0.221   1.314   1.844
  187SOL    HW1  579   0.156   1.241   1.823
  187SOL    HW2  580   0.225   1.328   1.942
  188SOL     OW  581   0.079   1.240   0.653
  188SOL    HW1  582   0.078   1.193   0.741
  188SOL    HW2  583   0.161   1.212   0.602
  189SOL     OW  584   0.672   1.391   1.624
  189SOL    HW1  585   0.594   1.341   1.662
  189SOL    HW2  586   0.669   1.486   1.655
  190SOL     OW  587   1.824   0.192   1.227
  190SOL    HW1  588   1.820   0.102   1.271
  190SOL    HW2  589   1.827   0.181   1.128
  191SOL     OW  590   0.428   0.424   0.520
  191SOL    HW1  591   0.458   0.352   0.458
  191SOL    HW2  592   0.389   0.384   0.603
  192SOL     OW  593   1.705   1.487   1.104
  192SOL    HW1  594   1.612   1.462   1.077
  192SOL    HW2  595   1.731   1.437   1.186
  193SOL     OW  596   0.317   0.547   1.280
  193SOL    HW1  597   0.355   0.488   1.352
  193SOL    HW2  598   0.357   0.521   1.192
  194SOL     OW  599   0.812   1.586   0.687
  194SOL    HW1  600   0.844   1.596   0.593
  194SOL    HW2  601   0.733   1.524   0.689
  195SOL     OW  602   1.424   0.214   1.112
  195SOL    HW1  603   1.476   0.149   1.167
  195SOL    HW2  604   1.375   0.277   1.173
  196SOL     OW  605   1.001   0.034   1.154
  196SOL    HW1  606   0.938  -0.038   1.123
  196SOL    HW2  607   1.094  -0.002   1.154
  197SOL     OW  608   0.770   1.330   0.301
  197SOL    HW1  609   0.724   1.243   0.318
  197SOL    HW2  610   0.861   1.327   0.342
  198SOL     OW  611   0.618   1.567   1.284
  198SOL    HW1  612   0.613   1.649   1.341
  198SOL    HW2  613   0.707   1.564   1.239
  199SOL     OW  614   1.352   0.052   0.168
  199SOL    HW1  615   1.387   0.011   0.084
  199SOL    HW2  616   1.262   0.014   0.188
  200SOL     OW  617   1.300   0.453   0.691
  200SOL    HW1  618   1.241   0.533   0.695
  200SOL    HW2  619   1.315   0.418   0.784
  201SOL     OW  620   1.593   0.221   0.882
  201SOL    HW1  621   1.509   0.220   0.936
  201SOL    HW2  622   1.595   0.304   0.826
  202SOL     OW  623   0.039   1.077   0.300
  202SOL    HW1  624   0.138   1.066   0.291
  202SOL    HW2  625  -0.001   0.991   0.332
  203SOL     OW  626   0.875   1.646   0.337
  203SOL    HW1  627   0.798   1.611   0.283
  203SOL    HW2  628   0.843   1.717   0.399
  204SOL     OW  629   0.230   0.628   1.975
  204SOL    HW1  630   0.137   0.626   2.012
  204SOL    HW2  631   0.231   0.589   1.883
  205SOL     OW  632   0.225   0.275   2.858
  205SOL    HW1  633   0.260   0.258   2.950
  205SOL    HW2  634   0.137   0.230   2.846
  206SOL     OW  635   0.019   0.368   2.509
  206SOL    HW1  636  -0.063   0.411   2.548
  206SOL    HW2  637  -0.009   0.295   2.446
  207SOL     OW  638   1.555   1.511   2.565
  207SOL    HW1  639   1.498   1.495   2.646
  207SOL    HW2  640   1.496   1.521   2.485
  208SOL     OW  641   1.135   0.703   2.579
  208SOL    HW1  642   1.192   0.781   2.554
  208SOL    HW2  643   1.075   0.729   2.655
  209SOL     OW  644   1.755   0.607   2.093
  209SOL    HW1  645   1.743   0.594   1.994
  209SOL    HW2  646   1.725   0.526   2.142
  210SOL     OW  647   0.768   1.144   2.885
  210SOL    HW1  648   0.690   1.161   2.945
  210SOL    HW2  649   0.802   1.231   2.849
  211SOL     OW  650   0.685   1.012   2.527
  211SOL    HW1  651   0.754   0.996   2.597
  211SOL    HW2  652   0.612   1.069   2.565
  212SOL     OW  653   0.335   1.435   2.923
  212SOL    HW1  654   0.257   1.404   2.870
  212SOL    HW2  655   0.393   1.493   2.866
  213SOL     OW  656   1.603   0.447   2.599
  213SOL    HW1  657   1.529   0.493   2.549
  213SOL    HW2  658   1.654   0.515   2.652
  214SOL     OW  659   0.231   1.713   2.345
  214SOL    HW1  660   0.265   1.790   2.399
  214SOL    HW2  661   0.275   1.713   2.255
  215SOL     OW  662   0.230   1.434   2.400
  215SOL    HW1  663   0.204   1.530   2.400
  215SOL    HW2  664   0.159   1.380   2.445
  216SOL     OW  665   0.240   1.091   2.748
  216SOL    HW1  666   0.254   1.007   2.800
  216SOL    HW2  667   0.185   1.155   2.803
  217SOL     OW  668   0.606   0.964   1.985
  217SOL    HW1  669   0.613   1.048   1.931
  217SOL    HW2  670   0.652   0.977   2.073
  218SOL     OW  671   0.122   0.643   2.425
  218SOL    HW1  672   0.077   0.555   2.442
  218SOL    HW2  673   0.121   0.697   2.509
  219SOL     OW  674   1.842   1.767   2.221
  219SOL    HW1  675   1.896   1.738   2.301
  219SOL    HW2  676   1.872   1.857   2.192
  220SOL     OW  677   0.027   1.596   1.979
  220SOL    HW1  678   0.008   1.500   2.000
  220SOL    HW2  679  -0.006   1.654   2.054
  221SOL     OW  680   1.689   0.922   2.474
  221SOL    HW1  681   1.784   0.893   2.482
  221SOL    HW2  682   1.681   0.987   2.399
  222SOL     OW  683   1.641   1.108   2.294
  222SOL    HW1  684   1.727   1.110   2.242
  222SOL    HW2  685   1.655   1.155   2.382
  223SOL     OW  686   0.613   1.365   2.588
  223SOL    HW1  687   0.564   1.278   2.597
  223SOL    HW2  688   0.590   1.408   2.501
  224SOL     OW  689   0.809   0.004   2.364
  224SOL    HW1  690   0.849   0.095   2.355
  224SOL    HW2  691   0.709   0.012   2.370
  225SOL     OW  692   1.525   0.999   2.052
  225SOL    HW1  693   1.462   0.923   2.065
  225SOL    HW2  694   1.573   1.017   2.138
  226SOL     OW  695   1.466   1.417   2.815
  226SOL    HW1  696   1.407   1.423   2.895
  226SOL    HW2  697   1.451   1.329   2.769
  227SOL     OW  698   1.667   1.714   2.434
  227SOL    HW1  699   1.626   1.691   2.346
  227SOL    HW2  700   1.649   1.640   2.499
  228SOL     OW  701   0.598   0.729   2.132
  228SOL    HW1  702   0.622   0.798   2.064
  228SOL    HW2  703   0.520   0.762   2.186
  229SOL     OW  704   1.281   0.345   2.806
  229SOL    HW1  705   1.195   0.295   2.793
  229SOL    HW2  706   1.343   0.291   2.862
  230SOL     OW  707   1.576   1.662   2.169
  230SOL    HW1  708   1.665   1.708   2.172
  230SOL    HW2  709   1.555   1.638   2.074
  231SOL     OW  710   1.041   0.701   2.291
  231SOL    HW1  711   1.067   0.697   2.387
  231SOL    HW2  712   0.956   0.650   2.277
  232SOL     OW  713   0.076   0.811   2.651
  232SOL    HW1  714   0.175   0.799   2.660
  232SOL    HW2  715   0.052   0.906   2.672
  233SOL     OW  716   0.865   0.348   2.057
  233SOL    HW1  717   0.924   0.411   2.008
  233SOL    HW2  718   0.884   0.254   2.028
  234SOL     OW  719   1.362   1.144   2.407
  234SOL    HW1  720   1.445   1.115   2.359
  234SOL    HW2  721   1.313   1.211   2.351
  235SOL     OW  722   0.550   0.196   2.747
  235SOL    HW1  723   0.545   0.191   2.847
  235SOL    HW2  724   0.552   0.292   2.718
  236SOL     OW  725   1.008   1.456   2.339
  236SOL    HW1  726   0.962   1.528   2.287
  236SOL    HW2  727   1.004   1.476   2.437
  237SOL     OW  728   0.351   1.801   2.715
  237SOL    HW1  729   0.401   1.715   2.721
  237SOL    HW2  730   0.416   1.878   2.712
  238SOL     OW  731   1.795   1.066   2.735
  238SOL    HW1  732   1.733   1.051   2.659
  238SOL    HW2  733   1.743   1.077   2.820
  239SOL     OW  734   0.321   0.943   2.104
  239SOL    HW1  735   0.403   0.982   2.062
  239SOL    HW2  736   0.294   0.861   2.055
  240SOL     OW  737   1.458   0.735   2.590
  240SOL    HW1  738   1.453   0.670   2.665
  240SOL    HW2  739   1.538   0.794   2.603
  241SOL     OW  740   1.111   1.776   2.099
  241SOL    HW1  741   1.051   1.714   2.149
  241SOL    HW2  742   1.142   1.732   2.014
  242SOL     OW  743   1.632   1.377   1.943
  242SOL    HW1  744   1.600   1.471   1.933
  242SOL    HW2  745   1.556   1.314   1.931
  243SOL     OW  746   0.464   1.743   2.185
  243SOL    HW1  747   0.497   1.782   2.271
  243SOL    HW2  748   0.540   1.736   2.120
  244SOL     OW  749   1.400   0.107   2.288
  244SOL    HW1  750   1.376   0.070   2.198
  244SOL    HW2  751   1.499   0.123   2.292
  245SOL     OW  752   0.249   1.785   3.103
  245SOL    HW1  753   0.306   1.720   3.153
  245SOL    HW2  754   0.233   1.752   3.010
  246SOL     OW  755   0.940   1.698   2.766
  246SOL    HW1  756   1.020   1.641   2.787
  246SOL    HW2  757   0.891   1.658   2.689
  247SOL     OW  758   0.382   0.700   2.342
  247SOL    HW1  759   0.427   0.610   2.339
  247SOL    HW2  760   0.288   0.689   2.375
  248SOL     OW  761   0.614   0.122   1.979
  248SOL    HW1  762   0.712   0.100   1.986
  248SOL    HW2  763   0.583   0.105   1.886
  249SOL     OW  764   0.922   0.503   2.761
  249SOL    HW1  765   0.897   0.494   2.665
  249SOL    HW2  766   0.970   0.421   2.792
  250SOL     OW  767   0.539   0.064   2.374
  250SOL    HW1  768   0.458   0.065   2.432
  250SOL    HW2  769   0.542   0.147   2.319
  251SOL     OW  770   1.434   1.188   1.903
  251SOL    HW1  771   1.466   1.112   1.960
  251SOL    HW2  772   1.342   1.215   1.933
  252SOL     OW  773   0.297   0.035   2.033
  252SOL    HW1  774   0.346   0.119   2.012
  252SOL    HW2  775   0.359  -0.030   2.078
  253SOL     OW  776   0.935   0.236   2.342
  253SOL    HW1  777   0.887   0.277   2.264
  253SOL    HW2  778   1.034   0.234   2.323
  254SOL     OW  779   1.227   1.570   2.655
  254SOL    HW1  780   1.248   1.644   2.590
  254SOL    HW2  781   1.295   1.570   2.728
  255SOL     OW  782   0.459   1.152   2.603
  255SOL    HW1  783   0.388   1.125   2.668
  255SOL    HW2  784   0.433   1.124   2.510
  256SOL     OW  785   1.271   1.797   2.453
  256SOL    HW1  786   1.315   1.861   2.389
  256SOL    HW2  787   1.221   1.849   2.523
  257SOL     OW  788   1.032   0.549   1.878
  257SOL    HW1  789   0.991   0.631   1.839
  257SOL    HW2  790   1.096   0.575   1.951
  258SOL     OW  791   0.866   0.454   2.504
  258SOL    HW1  792   0.834   0.526   2.442
  258SOL    HW2  793   0.890   0.373   2.451
  259SOL     OW  794   1.017   0.039   2.615
  259SOL    HW1  795   0.945   0.044   2.546
  259SOL    HW2  796   0.993  -0.030   2.684
  260SOL     OW  797   1.429   1.173   2.729
  260SOL    HW1  798   1.374   1.089   2.722
  260SOL    HW2  799   1.455   1.202   2.637
  261SOL     OW  800   1.857   0.833   2.239
  261SOL    HW1  801   1.899   0.769   2.303
  261SOL    HW2  802   1.819   0.782   2.161
  262SOL     OW  803   0.488   1.385   2.036
  262SOL    HW1  804   0.401   1.370   2.083
  262SOL    HW2  805   0.471   1.411   1.941
  263SOL     OW  806   1.664   1.280   2.519
  263SOL    HW1  807   1.763   1.288   2.533
  263SOL    HW2  808   1.619   1.364   2.550
  264SOL     OW  809   1.390   0.575   1.940
  264SOL    HW1  810   1.336   0.554   2.021
  264SOL    HW2  811   1.481   0.534   1.949
  265SOL     OW  812   0.527   0.256   2.190
  265SOL    HW1  813   0.554   0.197   2.115
  265SOL    HW2  814   0.527   0.351   2.159
  266SOL     OW  815   1.638   1.099   2.941
  266SOL    HW1  816   1.643   1.180   3.000
  266SOL    HW2  817   1.552   1.101   2.890
  267SOL     OW  818   0.705   1.050   2.230
  267SOL    HW1  819   0.691   1.057   2.329
  267SOL    HW2  820   0.789   0.999   2.212
  268SOL     OW  821   0.367   1.100   2.363
  268SOL    HW1  822   0.360   1.183   2.307
  268SOL    HW2  823   0.371   1.020   2.303
  269SOL     OW  824   0.566   0.537   2.727
  269SOL    HW1  825   0.578   0.603   2.653
  269SOL    HW2  826   0.612   0.571   2.810
  270SOL     OW  827   1.252   1.348   2.250
  270SOL    HW1  828   1.302   1.425   2.290
  270SOL    HW2  829   1.157   1.350   2.282
  271SOL     OW  830   1.582   0.639   2.334
  271SOL    HW1  831   1.551   0.700   2.407
  271SOL    HW2  832   1.632   0.691   2.265
  272SOL     OW  833   0.573   0.870   2.891
  272SOL    HW1  834   0.617   0.959   2.882
  272SOL    HW2  835   0.510   0.870   2.968
  273SOL     OW  836   1.209   0.525   2.137
  273SOL    HW1  837   1.222   0.441   2.191
  273SOL    HW2  838   1.180   0.599   2.197
  274SOL     OW  839   0.732   0.634   2.926
  274SOL    HW1  840   0.791   0.608   2.850
  274SOL    HW2  841   0.704   0.730   2.915
  275SOL     OW  842   0.307   0.063   2.480
  275SOL    HW1  843   0.296   0.157   2.513
  275SOL    HW2  844   0.302   0.000   2.557
  276SOL     OW  845   1.622   0.367   2.236
  276SOL    HW1  846   1.624   0.291   2.300
  276SOL    HW2  847   1.574   0.444   2.276
  277SOL     OW  848   1.540   0.274   1.987
  277SOL    HW1  849   1.479   0.199   2.010
  277SOL    HW2  850   1.562   0.326   2.070
  278SOL     OW  851   1.303   0.838   1.904
  278SOL    HW1  852   1.337   0.745   1.919
  278SOL    HW2  853   1.321   0.865   1.809
  279SOL     OW  854   1.068   1.333   2.711
  279SOL    HW1  855   1.075   1.249   2.656
  279SOL    HW2  856   1.130   1.402   2.675
  280SOL     OW  857   0.319   0.810   2.811
  280SOL    HW1  858   0.412   0.846   2.816
  280SOL    HW2  859   0.313   0.725   2.863
  281SOL     OW  860   0.339   0.509   2.868
  281SOL    HW1  861   0.287   0.426   2.851
  281SOL    HW2  862   0.416   0.514   2.804
  282SOL     OW  863   0.008   1.326   2.062
  282SOL    HW1  864  -0.085   1.347   2.031
  282SOL    HW2  865   0.018   1.227   2.075
  283SOL     OW  866   0.088   1.801   2.789
  283SOL    HW1  867   0.046   1.715   2.762
  283SOL    HW2  868   0.182   1.804   2.755
  284SOL     OW  869   0.504   1.568   2.772
  284SOL    HW1  870   0.570   1.642   2.781
  284SOL    HW2  871   0.548   1.489   2.730
  285SOL     OW  872   0.815   0.572   2.187
  285SOL    HW1  873   0.822   0.483   2.141
  285SOL    HW2  874   0.721   0.606   2.179
  286SOL     OW  875   0.671   0.464   3.131
  286SOL    HW1  876   0.637   0.375   3.101
  286SOL    HW2  877   0.697   0.518   3.051
  287SOL     OW  878   0.473   0.500   2.053
  287SOL    HW1  879   0.534   0.580   2.057
  287SOL    HW2  880   0.378   0.531   2.060
  288SOL     OW  881   1.302   0.855   2.171
  288SOL    HW1  882   1.216   0.824   2.213
  288SOL    HW2  883   1.298   0.841   2.072
  289SOL     OW  884   1.759   1.747   3.016
  289SOL    HW1  885   1.820   1.777   2.943
  289SOL    HW2  886   1.721   1.658   2.994
  290SOL     OW  887   0.083   1.258   2.884
  290SOL    HW1  888   0.078   1.257   2.984
  290SOL    HW2  889   0.000   1.217   2.846
  291SOL     OW  890   1.726   0.135   2.385
  291SOL    HW1  891   1.799   0.118   2.318
  291SOL    HW2  892   1.695   0.048   2.423
  292SOL     OW  893   1.388   1.573   2.339
  292SOL    HW1  894   1.455   1.585   2.265
  292SOL    HW2  895   1.348   1.662   2.362
  293SOL     OW  896   1.280   0.927   2.534
  293SOL    HW1  897   1.340   0.846   2.536
  293SOL    HW2  898   1.320   0.996   2.474
  294SOL     OW  899   0.672   1.616   2.016
  294SOL    HW1  900   0.681   1.626   1.917
  294SOL    HW2  901   0.632   1.527   2.037
  295SOL     OW  902   1.841   0.175   2.825
  295SOL    HW1  903   1.880   0.090   2.789
  295SOL    HW2  904   1.743   0.177   2.806
  296SOL     OW  905   0.263   0.326   2.582
  296SOL    HW1  906   0.184   0.377   2.548
  296SOL    HW2  907   0.254   0.311   2.680
  297SOL     OW  908   1.194   1.612   1.893
  297SOL    HW1  909   1.200   1.519   1.930
  297SOL    HW2  910   1.135   1.612   1.813
  298SOL     OW  911   0.916   0.910   2.153
  298SOL    HW1  912   0.979   0.948   2.085
  298SOL    HW2  913   0.956   0.827   2.192
  299SOL     OW  914   1.504   1.607   1.906
  299SOL    HW1  915   1.412   1.644   1.913
  299SOL    HW2  916   1.542   1.627   1.816
  300SOL     OW  917   1.039   1.098   2.558
  300SOL    HW1  918   0.969   1.051   2.612
  300SOL    HW2  919   1.098   1.030   2.515
  301SOL     OW  920   0.590   1.487   2.353
  301SOL    HW1  921   0.632   1.429   2.283
  301SOL    HW2  922   0.546   1.566   2.309
  302SOL     OW  923   0.255   1.348   2.152
  302SOL    HW1  924   0.159   1.349   2.125
  302SOL    HW2  925   0.267   1.401   2.236
  303SOL     OW  926   0.075   0.345   1.895
  303SOL    HW1  927  -0.017   0.317   1.866
  303SOL    HW2  928   0.106   0.422   1.839
  304SOL     OW  929   0.072   0.166   2.180
  304SOL    HW1  930   0.055   0.249   2.126
  304SOL    HW2  931   0.162   0.129   2.158
  305SOL     OW  932   1.183   1.335   1.981
  305SOL    HW1  933   1.084   1.324   1.983
  305SOL    HW2  934   1.217   1.350   2.074
  306SOL     OW  935   1.674   0.883   3.116
  306SOL    HW1  936   1.647   0.794   3.079
  306SOL    HW2  937   1.675   0.951   3.043
  307SOL     OW  938   1.225   0.325   2.311
  307SOL    HW1  939   1.290   0.251   2.300
  307SOL    HW2  940   1.245   0.375   2.395
  308SOL     OW  941   0.594   0.745   2.514
  308SOL    HW1  942   0.644   0.830   2.495
  308SOL    HW2  943   0.506   0.747   2.466
  309SOL     OW  944   0.859   1.374   1.878
  309SOL    HW1  945   0.813   1.389   1.966
  309SOL    HW2  946   0.903   1.459   1.848
  310SOL     OW  947   0.661   1.790   2.815
  310SOL    HW1  948   0.615   1.878   2.802
  310SOL    HW2  949   0.760   1.802   2.808
  311SOL     OW  950   0.859   0.956   2.723
  311SOL    HW1  951   0.913   0.887   2.771
  311SOL    HW2  952   0.827   1.025   2.789
  312SOL     OW  953   1.083   0.984   1.949
  312SOL    HW1  954   1.060   1.037   1.867
  312SOL    HW2  955   1.164   0.928   1.930
  313SOL     OW  956   1.861   1.569   2.713
  313SOL    HW1  957   1.790   1.557   2.643
  313SOL    HW2  958   1.862   1.490   2.773
  314SOL     OW  959   0.079   1.240   2.515
  314SOL    HW1  960   0.078   1.193   2.603
  314SOL    HW2  961   0.161   1.212   2.464
  315SOL     OW  962   1.824   0.192   3.089
  315SOL    HW1  963   1.820   0.102   3.133
  315SOL    HW2  964   1.827   0.181   2.990
  316SOL     OW  965   0.428   0.424   2.382
  316SOL    HW1  966   0.458   0.352   2.320
  316SOL    HW2  967   0.389   0.384   2.465
  317SOL     OW  968   0.812   1.586   2.549
  317SOL    HW1  969   0.844   1.596   2.455
  317SOL    HW2  970   0.733   1.524   2.551
  318SOL     OW  971   0.770   1.330   2.163
  318SOL    HW1  972   0.724   1.243   2.180
  318SOL    HW2  973   0.861   1.327   2.204
  319SOL     OW  974   1.352   0.052   2.030
  319SOL    HW1  975   1.387   0.011   1.946
  319SOL    HW2  976   1.262   0.014   2.050
  320SOL     OW  977   1.300   0.453   2.553
  320SOL    HW1  978   1.241   0.533   2.557
  320SOL    HW2  979   1.315   0.418   2.646
  321SOL     OW  980   1.593   0.221   2.744
  321SOL    HW1  981   1.509   0.220   2.798
  321SOL    HW2  982   1.595   0.304   2.688
  322SOL     OW  983   0.039   1.077   2.162
  322SOL    HW1  984   0.138   1.066   2.153
  322SOL    HW2  985  -0.001   0.991   2.194
  323SOL     OW  986   0.875   1.646   2.199
  323SOL    HW1  987   0.798   1.611   2.145
  323SOL    HW2  988   0.843   1.717   2.261
  324SOL     OW  989   0.230   2.490   0.113
  324SOL    HW1  990   0.137   2.488   0.150
  324SOL    HW2  991   0.231   2.451   0.021
  325SOL     OW  992   0.225   2.137   0.996
  325SOL    HW1  993   0.260   2.120   1.088
  325SOL    HW2  994   0.137   2.092   0.984
  326SOL     OW  995   0.019   2.230   0.647
  326SOL    HW1  996  -0.063   2.273   0.686
  326SOL    HW2  997  -0.009   2.157   0.584
  327SOL     OW  998   1.135   2.565   0.717
  327SOL    HW1  999   1.192   2.643   0.692
  327SOL    HW2 1000   1.075   2.591   0.793
  328SOL     OW 1001   1.755   2.469   0.231
  328SOL    HW1 1002   1.743   2.456   0.132
  328SOL    HW2 1003   1.725   2.388   0.280
  329SOL     OW 1004   0.768   3.006   1.023
  329SOL    HW1 1005   0.690   3.023   1.083
  329SOL    HW2 1006   0.802   3.093   0.987
  330SOL     OW 1007   0.850   2.660   1.823
  330SOL    HW1 1008   0.846   2.736   1.888
  330SOL    HW2 1009   0.872   2.696   1.732
  331SOL     OW 1010   0.685   2.874   0.665
  331SOL    HW1 1011   0.754   2.858   0.735
  331SOL    HW2 1012   0.612   2.931   0.703
  332SOL     OW 1013   0.438   2.254   1.499
  332SOL    HW1 1014   0.520   2.198   1.508
  332SOL    HW2 1015   0.357   2.196   1.503
  333SOL     OW 1016   1.603   2.309   0.737
  333SOL    HW1 1017   1.529   2.355   0.687
  333SOL    HW2 1018   1.654   2.377   0.790
  334SOL     OW 1019   0.240   2.953   0.886
  334SOL    HW1 1020   0.254   2.869   0.938
  334SOL    HW2 1021   0.185   3.017   0.941
  335SOL     OW 1022   1.594   1.976   1.480
  335SOL    HW1 1023   1.576   2.043   1.408
  335SOL    HW2 1024   1.591   2.022   1.569
  336SOL     OW 1025   0.122   2.505   0.563
  336SOL    HW1 1026   0.077   2.417   0.580
  336SOL    HW2 1027   0.121   2.559   0.647
  337SOL     OW 1028   0.113   2.599   1.597
  337SOL    HW1 1029   0.201   2.586   1.642
  337SOL    HW2 1030   0.100   2.696   1.575
  338SOL     OW 1031   0.809   1.866   0.502
  338SOL    HW1 1032   0.849   1.957   0.493
  338SOL    HW2 1033   0.709   1.874   0.508
  339SOL     OW 1034   0.197   2.838   1.264
  339SOL    HW1 1035   0.286   2.793   1.250
  339SOL    HW2 1036   0.124   2.773   1.245
  340SOL     OW 1037   1.525   2.861   0.190
  340SOL    HW1 1038   1.462   2.785   0.203
  340SOL    HW2 1039   1.573   2.879   0.276
  341SOL     OW 1040   0.317   2.113   1.801
  341SOL    HW1 1041   0.388   2.184   1.807
  341SOL    HW2 1042   0.229   2.152   1.829
  342SOL     OW 1043   0.598   2.591   0.270
  342SOL    HW1 1044   0.622   2.660   0.202
  342SOL    HW2 1045   0.520   2.624   0.324
  343SOL     OW 1046   1.281   2.207   0.944
  343SOL    HW1 1047   1.195   2.157   0.931
  343SOL    HW2 1048   1.343   2.153   1.000
  344SOL     OW 1049   0.807   2.467   1.465
  344SOL    HW1 1050   0.760   2.464   1.554
  344SOL    HW2 1051   0.756   2.412   1.399
  345SOL     OW 1052   1.394   2.331   1.674
  345SOL    HW1 1053   1.374   2.374   1.762
  345SOL    HW2 1054   1.472   2.269   1.683
  346SOL     OW 1055   0.973   2.752   1.572
  346SOL    HW1 1056   1.019   2.668   1.543
  346SOL    HW2 1057   0.917   2.786   1.497
  347SOL     OW 1058   0.991   2.272   1.242
  347SOL    HW1 1059   0.914   2.306   1.296
  347SOL    HW2 1060   0.957   2.221   1.163
  348SOL     OW 1061   1.041   2.563   0.429
  348SOL    HW1 1062   1.067   2.559   0.525
  348SOL    HW2 1063   0.956   2.512   0.415
  349SOL     OW 1064   0.076   2.673   0.789
  349SOL    HW1 1065   0.175   2.661   0.798
  349SOL    HW2 1066   0.052   2.768   0.810
  350SOL     OW 1067   0.865   2.210   0.195
  350SOL    HW1 1068   0.924   2.273   0.146
  350SOL    HW2 1069   0.884   2.116   0.166
  351SOL     OW 1070   1.719   2.447   1.831
  351SOL    HW1 1071   1.693   2.536   1.795
  351SOL    HW2 1072   1.717   2.379   1.758
  352SOL     OW 1073   0.550   2.058   0.885
  352SOL    HW1 1074   0.545   2.053   0.985
  352SOL    HW2 1075   0.552   2.154   0.856
  353SOL     OW 1076   1.458   2.597   0.728
  353SOL    HW1 1077   1.453   2.532   0.803
  353SOL    HW2 1078   1.538   2.656   0.741
  354SOL     OW 1079   0.202   2.147   1.498
  354SOL    HW1 1080   0.122   2.207   1.485
  354SOL    HW2 1081   0.192   2.098   1.584
  355SOL     OW 1082   1.400   1.969   0.426
  355SOL    HW1 1083   1.376   1.932   0.336
  355SOL    HW2 1084   1.499   1.985   0.430
  356SOL     OW 1085   0.382   2.562   0.480
  356SOL    HW1 1086   0.427   2.472   0.477
  356SOL    HW2 1087   0.288   2.551   0.513
  357SOL     OW 1088   1.547   2.084   1.729
  357SOL    HW1 1089   1.542   2.121   1.821
  357SOL    HW2 1090   1.475   2.015   1.717
  358SOL     OW 1091   0.614   1.984   0.117
  358SOL    HW1 1092   0.712   1.962   0.124
  358SOL    HW2 1093   0.583   1.967   0.024
  359SOL     OW 1094   0.781   2.126   1.749
  359SOL    HW1 1095   0.848   2.065   1.792
  359SOL    HW2 1096   0.708   2.145   1.814
  360SOL     OW 1097   1.351   2.452   1.433
  360SOL    HW1 1098   1.379   2.409   1.518
  360SOL    HW2 1099   1.376   2.548   1.434
  361SOL     OW 1100   0.922   2.365   0.899
  361SOL    HW1 1101   0.897   2.356   0.803
  361SOL    HW2 1102   0.970   2.283   0.930
  362SOL     OW 1103   0.539   1.926   0.512
  362SOL    HW1 1104   0.458   1.927   0.570
  362SOL    HW2 1105   0.542   2.009   0.457
  363SOL     OW 1106   0.935   2.098   0.480
  363SOL    HW1 1107   0.887   2.139   0.402
  363SOL    HW2 1108   1.034   2.096   0.461
  364SOL     OW 1109   1.076   2.545   1.464
  364SOL    HW1 1110   0.996   2.484   1.467
  364SOL    HW2 1111   1.157   2.492   1.440
  365SOL     OW 1112   1.032   2.411   0.016
  365SOL    HW1 1113   0.991   2.493  -0.023
  365SOL    HW2 1114   1.096   2.437   0.089
  366SOL     OW 1115   0.078   2.418   1.386
  366SOL    HW1 1116   0.170   2.417   1.345
  366SOL    HW2 1117   0.072   2.492   1.453
  367SOL     OW 1118   0.561   2.084   1.147
  367SOL    HW1 1119   0.599   2.000   1.184
  367SOL    HW2 1120   0.473   2.103   1.191
  368SOL     OW 1121   0.866   2.316   0.642
  368SOL    HW1 1122   0.834   2.388   0.580
  368SOL    HW2 1123   0.890   2.235   0.589
  369SOL     OW 1124   1.017   1.901   0.753
  369SOL    HW1 1125   0.945   1.906   0.684
  369SOL    HW2 1126   0.993   1.832   0.822
  370SOL     OW 1127   1.429   3.035   0.867
  370SOL    HW1 1128   1.374   2.951   0.860
  370SOL    HW2 1129   1.455   3.064   0.775
  371SOL     OW 1130   1.466   2.452   0.992
  371SOL    HW1 1131   1.436   2.357   0.999
  371SOL    HW2 1132   1.539   2.468   1.058
  372SOL     OW 1133   1.857   2.695   0.377
  372SOL    HW1 1134   1.899   2.631   0.441
  372SOL    HW2 1135   1.819   2.644   0.299
  373SOL     OW 1136   1.390   2.437   0.078
  373SOL    HW1 1137   1.336   2.416   0.159
  373SOL    HW2 1138   1.481   2.396   0.087
  374SOL     OW 1139   0.527   2.118   0.328
  374SOL    HW1 1140   0.554   2.059   0.253
  374SOL    HW2 1141   0.527   2.213   0.297
  375SOL     OW 1142   1.638   2.961   1.079
  375SOL    HW1 1143   1.643   3.042   1.138
  375SOL    HW2 1144   1.552   2.963   1.028
  376SOL     OW 1145   0.915   1.951   1.402
  376SOL    HW1 1146   0.940   1.931   1.307
  376SOL    HW2 1147   0.987   2.007   1.444
  377SOL     OW 1148   0.410   2.675   1.251
  377SOL    HW1 1149   0.496   2.687   1.301
  377SOL    HW2 1150   0.368   2.588   1.278
  378SOL     OW 1151   1.274   2.248   1.262
  378SOL    HW1 1152   1.295   2.322   1.326
  378SOL    HW2 1153   1.185   2.265   1.219
  379SOL     OW 1154   0.566   2.399   0.865
  379SOL    HW1 1155   0.578   2.465   0.791
  379SOL    HW2 1156   0.612   2.433   0.948
  380SOL     OW 1157   1.582   2.501   0.472
  380SOL    HW1 1158   1.551   2.562   0.545
  380SOL    HW2 1159   1.632   2.553   0.403
  381SOL     OW 1160   0.402   2.613   1.598
  381SOL    HW1 1161   0.470   2.668   1.551
  381SOL    HW2 1162   0.442   2.525   1.625
  382SOL     OW 1163   1.587   2.641   1.670
  382SOL    HW1 1164   1.495   2.679   1.665
  382SOL    HW2 1165   1.647   2.688   1.605
  383SOL     OW 1166   1.013   1.967   1.770
  383SOL    HW1 1167   1.019   2.052   1.718
  383SOL    HW2 1168   1.045   1.891   1.713
  384SOL     OW 1169   0.504   1.912   1.740
  384SOL    HW1 1170   0.462   1.855   1.670
  384SOL    HW2 1171   0.438   1.981   1.772
  385SOL     OW 1172   0.573   2.732   1.029
  385SOL    HW1 1173   0.617   2.821   1.020
  385SOL    HW2 1174   0.510   2.732   1.106
  386SOL     OW 1175   1.360   2.724   1.045
  386SOL    HW1 1176   1.285   2.724   0.979
  386SOL    HW2 1177   1.397   2.632   1.054
  387SOL     OW 1178   1.209   2.387   0.275
  387SOL    HW1 1179   1.222   2.303   0.329
  387SOL    HW2 1180   1.180   2.461   0.335
  388SOL     OW 1181   0.307   2.075   1.231
  388SOL    HW1 1182   0.284   2.112   1.321
  388SOL    HW2 1183   0.277   1.980   1.225
  389SOL     OW 1184   0.037   3.172   1.282
  389SOL    HW1 1185   0.090   3.123   1.350
  389SOL    HW2 1186   0.059   3.270   1.287
  390SOL     OW 1187   0.732   2.496   1.064
  390SOL    HW1 1188   0.791   2.470   0.988
  390SOL    HW2 1189   0.704   2.592   1.053
  391SOL     OW 1190   1.728   2.797   1.854
  391SOL    HW1 1191   1.682   2.790   1.765
  391SOL    HW2 1192   1.666   2.841   1.920
  392SOL     OW 1193   0.307   1.925   0.618
  392SOL    HW1 1194   0.296   2.019   0.651
  392SOL    HW2 1195   0.302   1.862   0.695
  393SOL     OW 1196   1.622   2.229   0.374
  393SOL    HW1 1197   1.624   2.153   0.438
  393SOL    HW2 1198   1.574   2.306   0.414
  394SOL     OW 1199   1.023   2.628   0.966
  394SOL    HW1 1200   1.038   2.649   1.062
  394SOL    HW2 1201   0.993   2.533   0.957
  395SOL     OW 1202   0.350   2.760   1.804
  395SOL    HW1 1203   0.426   2.804   1.852
  395SOL    HW2 1204   0.385   2.713   1.722
  396SOL     OW 1205   1.540   2.136   0.125
  396SOL    HW1 1206   1.479   2.061   0.148
  396SOL    HW2 1207   1.562   2.188   0.208
  397SOL     OW 1208   1.303   2.700   0.042
  397SOL    HW1 1209   1.337   2.607   0.057
  397SOL    HW2 1210   1.321   2.727  -0.053
  398SOL     OW 1211   0.319   2.672   0.949
  398SOL    HW1 1212   0.412   2.708   0.954
  398SOL    HW2 1213   0.313   2.587   1.001
  399SOL     OW 1214   0.339   2.371   1.006
  399SOL    HW1 1215   0.287   2.288   0.989
  399SOL    HW2 1216   0.416   2.376   0.942
  400SOL     OW 1217   1.138   2.242   1.678
  400SOL    HW1 1218   1.093   2.305   1.742
  400SOL    HW2 1219   1.231   2.273   1.661
  401SOL     OW 1220   1.160   2.069   1.477
  401SOL    HW1 1221   1.160   2.133   1.554
  401SOL    HW2 1222   1.188   2.117   1.394
  402SOL     OW 1223   1.002   2.658   1.238
  402SOL    HW1 1224   1.043   2.626   1.324
  402SOL    HW2 1225   0.906   2.631   1.235
  403SOL     OW 1226   0.040   2.406   1.114
  403SOL    HW1 1227   0.125   2.373   1.073
  403SOL    HW2 1228   0.053   2.421   1.212
  404SOL     OW 1229   0.189   2.382   1.722
  404SOL    HW1 1230   0.248   2.342   1.652
  404SOL    HW2 1231   0.131   2.453   1.681
  405SOL     OW 1232   1.369   2.812   1.660
  405SOL    HW1 1233   1.408   2.901   1.680
  405SOL    HW2 1234   1.379   2.792   1.563
  406SOL     OW 1235   0.815   2.434   0.325
  406SOL    HW1 1236   0.822   2.345   0.279
  406SOL    HW2 1237   0.721   2.468   0.317
  407SOL     OW 1238   1.657   2.466   1.206
  407SOL    HW1 1239   1.619   2.397   1.268
  407SOL    HW2 1240   1.739   2.430   1.162
  408SOL     OW 1241   0.671   2.326   1.269
  408SOL    HW1 1242   0.637   2.237   1.239
  408SOL    HW2 1243   0.697   2.380   1.189
  409SOL     OW 1244   0.473   2.362   0.191
  409SOL    HW1 1245   0.534   2.442   0.195
  409SOL    HW2 1246   0.378   2.393   0.198
  410SOL     OW 1247   0.159   2.999   1.466
  410SOL    HW1 1248   0.181   2.938   1.542
  410SOL    HW2 1249   0.169   2.950   1.380
  411SOL     OW 1250   1.347   2.921   1.234
  411SOL    HW1 1251   1.371   2.858   1.160
  411SOL    HW2 1252   1.257   2.961   1.216
  412SOL     OW 1253   1.302   2.717   0.309
  412SOL    HW1 1254   1.216   2.686   0.351
  412SOL    HW2 1255   1.298   2.703   0.210
  413SOL     OW 1256   0.903   1.948   0.133
  413SOL    HW1 1257   0.954   1.949   0.047
  413SOL    HW2 1258   0.959   1.906   0.204
  414SOL     OW 1259   1.726   1.997   0.523
  414SOL    HW1 1260   1.799   1.980   0.456
  414SOL    HW2 1261   1.695   1.910   0.561
  415SOL     OW 1262   1.280   2.789   0.672
  415SOL    HW1 1263   1.340   2.708   0.674
  415SOL    HW2 1264   1.320   2.858   0.612
  416SOL     OW 1265   1.841   2.037   0.963
  416SOL    HW1 1266   1.880   1.952   0.927
  416SOL    HW2 1267   1.743   2.039   0.944
  417SOL     OW 1268   0.263   2.188   0.720
  417SOL    HW1 1269   0.184   2.239   0.686
  417SOL    HW2 1270   0.254   2.173   0.818
  418SOL     OW 1271   0.916   2.772   0.291
  418SOL    HW1 1272   0.979   2.810   0.223
  418SOL    HW2 1273   0.956   2.689   0.330
  419SOL     OW 1274   1.014   2.098   0.971
  419SOL    HW1 1275   1.006   2.062   0.878
  419SOL    HW2 1276   1.012   2.022   1.036
  420SOL     OW 1277   1.709   2.247   1.381
  420SOL    HW1 1278   1.782   2.316   1.385
  420SOL    HW2 1279   1.737   2.172   1.322
  421SOL     OW 1280   0.105   2.875   1.726
  421SOL    HW1 1281   0.028   2.842   1.780
  421SOL    HW2 1282   0.190   2.845   1.768
  422SOL     OW 1283   0.672   2.065   1.489
  422SOL    HW1 1284   0.762   2.049   1.449
  422SOL    HW2 1285   0.680   2.070   1.588
  423SOL     OW 1286   0.075   2.207   0.033
  423SOL    HW1 1287  -0.017   2.179   0.004
  423SOL    HW2 1288   0.106   2.284  -0.023
  424SOL     OW 1289   1.440   2.718   1.398
  424SOL    HW1 1290   1.383   2.770   1.335
  424SOL    HW2 1291   1.536   2.730   1.374
  425SOL     OW 1292   0.072   2.028   0.318
  425SOL    HW1 1293   0.055   2.111   0.264
  425SOL    HW2 1294   0.162   1.991   0.296
  426SOL     OW 1295   1.183   3.197   0.119
  426SOL    HW1 1296   1.084   3.186   0.121
  426SOL    HW2 1297   1.217   3.212   0.212
  427SOL     OW 1298   0.613   2.704   1.431
  427SOL    HW1 1299   0.669   2.785   1.414
  427SOL    HW2 1300   0.672   2.624   1.434
  428SOL     OW 1301   0.716   2.427   1.708
  428SOL    HW1 1302   0.735   2.492   1.782
  428SOL    HW2 1303   0.776   2.347   1.717
  429SOL     OW 1304   1.674   2.745   1.254
  429SOL    HW1 1305   1.647   2.656   1.217
  429SOL    HW2 1306   1.675   2.813   1.181
  430SOL     OW 1307   1.225   2.187   0.449
  430SOL    HW1 1308   1.290   2.113   0.438
  430SOL    HW2 1309   1.245   2.237   0.533
  431SOL     OW 1310   0.594   2.607   0.652
  431SOL    HW1 1311   0.644   2.692   0.633
  431SOL    HW2 1312   0.506   2.609   0.604
  432SOL     OW 1313   1.777   2.204   1.642
  432SOL    HW1 1314   1.760   2.235   1.548
  432SOL    HW2 1315   1.693   2.167   1.680
  433SOL     OW 1316   1.730   2.796   1.517
  433SOL    HW1 1317   1.768   2.887   1.532
  433SOL    HW2 1318   1.722   2.779   1.418
  434SOL     OW 1319   0.859   2.818   0.861
  434SOL    HW1 1320   0.913   2.749   0.909
  434SOL    HW2 1321   0.827   2.887   0.927
  435SOL     OW 1322   1.083   2.846   0.087
  435SOL    HW1 1323   1.060   2.899   0.005
  435SOL    HW2 1324   1.164   2.790   0.068
  436SOL     OW 1325   0.079   3.102   0.653
  436SOL    HW1 1326   0.078   3.055   0.741
  436SOL    HW2 1327   0.161   3.074   0.602
  437SOL     OW 1328   1.824   2.054   1.227
  437SOL    HW1 1329   1.820   1.964   1.271
  437SOL    HW2 1330   1.827   2.043   1.128
  438SOL     OW 1331   0.428   2.286   0.520
  438SOL    HW1 1332   0.458   2.214   0.458
  438SOL    HW2 1333   0.389   2.246   0.603
  439SOL     OW 1334   0.317   2.409   1.280
  439SOL    HW1 1335   0.355   2.350   1.352
  439SOL    HW2 1336   0.357   2.383   1.192
  440SOL     OW 1337   1.424   2.076   1.112
  440SOL    HW1 1338   1.476   2.011   1.167
  440SOL    HW2 1339   1.375   2.139   1.173
  441SOL     OW 1340   1.001   1.896   1.154
  441SOL    HW1 1341   0.938   1.824   1.123
  441SOL    HW2 1342   1.094   1.860   1.154
  442SOL     OW 1343   1.352   1.914   0.168
  442SOL    HW1 1344   1.387   1.873   0.084
  442SOL    HW2 1345   1.262   1.876   0.188
  443SOL     OW 1346   1.300   2.315   0.691
  443SOL    HW1 1347   1.241   2.395   0.695
  443SOL    HW2 1348   1.315   2.280   0.784
  444SOL     OW 1349   1.593   2.083   0.882
  444SOL    HW1 1350   1.509   2.082   0.936
  444SOL    HW2 1351   1.595   2.166   0.826
  445SOL     OW 1352   0.230   2.490   1.975
  445SOL    HW1 1353   0.137   2.488   2.012
  445SOL    HW2 1354   0.231   2.451   1.883
  446SOL     OW 1355   0.225   2.137   2.858
  446SOL    HW1 1356   0.260   2.120   2.950
  446SOL    HW2 1357   0.137   2.092   2.846
  447SOL     OW 1358   0.019   2.230   2.509
  447SOL    HW1 1359  -0.063   2.273   2.548
  447SOL    HW2 1360  -0.009   2.157   2.446
  448SOL     OW 1361   1.135   2.565   2.579
  448SOL    HW1 1362   1.192   2.643   2.554
  448SOL    HW2 1363   1.075   2.591   2.655
  449SOL     OW 1364   1.755   2.469   2.093
  449SOL    HW1 1365   1.743   2.456   1.994
  449SOL    HW2 1366   1.725   2.388   2.142
  450SOL     OW 1367   0.685   2.874   2.527
  450SOL    HW1 1368   0.754   2.858   2.597
  450SOL    HW2 1369   0.612   2.931   2.565
  451SOL     OW 1370   1.603   2.309   2.599
  451SOL    HW1 1371   1.529   2.355   2.549
  451SOL    HW2 1372   1.654   2.377   2.652
  452SOL     OW 1373   0.240   2.953   2.748
  452SOL    HW1 1374   0.254   2.869   2.800
  452SOL    HW2 1375   0.185   3.017   2.803
  453SOL     OW 1376   0.122   2.505   2.425
  453SOL    HW1 1377   0.077   2.417   2.442
  453SOL    HW2 1378   0.121   2.559   2.509
  454SOL     OW 1379   0.809   1.866   2.364
  454SOL    HW1 1380   0.849   1.957   2.355
  454SOL    HW2 1381   0.709   1.874   2.370
  455SOL     OW 1382   1.525   2.861   2.052
  455SOL    HW1 1383   1.462   2.785   2.065
  455SOL    HW2 1384   1.573   2.879   2.138
  456SOL     OW 1385   0.598   2.591   2.132
  456SOL    HW1 1386   0.622   2.660   2.064
  456SOL    HW2 1387   0.520   2.624   2.186
  457SOL     OW 1388   1.281   2.207   2.806
  457SOL    HW1 1389   1.195   2.157   2.793
  457SOL    HW2 1390   1.343   2.153   2.862
  458SOL     OW 1391   1.041   2.563   2.291
  458SOL    HW1 1392   1.067   2.559   2.387
  458SOL    HW2 1393   0.956   2.512   2.277
  459SOL     OW 1394   0.076   2.673   2.651
  459SOL    HW1 1395   0.175   2.661   2.660
  459SOL    HW2 1396   0.052   2.768   2.672
  460SOL     OW 1397   0.865   2.210   2.057
  460SOL    HW1 1398   0.924   2.273   2.008
  460SOL    HW2 1399   0.884   2.116   2.028
  461SOL     OW 1400   0.550   2.058   2.747
  461SOL    HW1 1401   0.545   2.053   2.847
  461SOL    HW2 1402   0.552   2.154   2.718
  462SOL     OW 1403   1.458   2.597   2.590
  462SOL    HW1 1404   1.453   2.532   2.665
  462SOL    HW2 1405   1.538   2.656   2.603
  463SOL     OW 1406   1.400   1.969   2.288
  463SOL    HW1 1407   1.376   1.932   2.198
  463SOL    HW2 1408   1.499   1.985   2.292
  464SOL     OW 1409   0.382   2.562   2.342
  464SOL    HW1 1410   0.427   2.472   2.339
  464SOL    HW2 1411   0.288   2.551   2.375
  465SOL     OW 1412   0.614   1.984   1.979
  465SOL    HW1 1413   0.712   1.962   1.986
  465SOL    HW2 1414   0.583   1.967   1.886
  466SOL     OW 1415   0.922   2.365   2.761
  466SOL    HW1 1416   0.897   2.356   2.665
  466SOL    HW2 1417   0.970   2.283   2.792
  467SOL     OW 1418   0.539   1.926   2.374
  467SOL    HW1 1419   0.458   1.927   2.432
  467SOL    HW2 1420   0.542   2.009   2.319
  468SOL     OW 1421   0.297   1.897   2.033
  468SOL    HW1 1422   0.346   1.981   2.012
  468SOL    HW2 1423   0.359   1.832   2.078
  469SOL     OW 1424   0.935   2.098   2.342
  469SOL    HW1 1425   0.887   2.139   2.264
  469SOL    HW2 1426   1.034   2.096   2.323
  470SOL     OW 1427   1.032   2.411   1.878
  470SOL    HW1 1428   0.991   2.493   1.839
  470SOL    HW2 1429   1.096   2.437   1.951
  471SOL     OW 1430   0.866   2.316   2.504
  471SOL    HW1 1431   0.834   2.388   2.442
  471SOL    HW2 1432   0.890   2.235   2.451
  472SOL     OW 1433   1.017   1.901   2.615
  472SOL    HW1 1434   0.945   1.906   2.546
  472SOL    HW2 1435   0.993   1.832   2.684
  473SOL     OW 1436   1.429   3.035   2.729
  473SOL    HW1 1437   1.374   2.951   2.722
  473SOL    HW2 1438   1.455   3.064   2.637
  474SOL     OW 1439   1.857   2.695   2.239
  474SOL    HW1 1440   1.899   2.631   2.303
  474SOL    HW2 1441   1.819   2.644   2.161
  475SOL     OW 1442   1.390   2.437   1.940
  475SOL    HW1 1443   1.336   2.416   2.021
  475SOL    HW2 1444   1.481   2.396   1.949
  476SOL     OW 1445   0.527   2.118   2.190
  476SOL    HW1 1446   0.554   2.059   2.115
  476SOL    HW2 1447   0.527   2.213   2.159
  477SOL     OW 1448   1.638   2.961   2.941
  477SOL    HW1 1449   1.643   3.042   3.000
  477SOL    HW2 1450   1.552   2.963   2.890
  478SOL     OW 1451   0.566   2.399   2.727
  478SOL    HW1 1452   0.578   2.465   2.653
  478SOL    HW2 1453   0.612   2.433   2.810
  479SOL     OW 1454   1.582   2.501   2.334
  479SOL    HW1 1455   1.551   2.562   2.407
  479SOL    HW2 1456   1.632   2.553   2.265
  480SOL     OW 1457   0.573   2.732   2.891
  480SOL    HW1 1458   0.617   2.821   2.882
  480SOL    HW2 1459   0.510   2.732   2.968
  481SOL     OW 1460   1.209   2.387   2.137
  481SOL    HW1 1461   1.222   2.303   2.191
  481SOL    HW2 1462   1.180   2.461   2.197
  482SOL     OW 1463   0.307   2.075   3.093
  482SOL    HW1 1464   0.284   2.112   3.183
  482SOL    HW2 1465   0.277   1.980   3.087
  483SOL     OW 1466   0.732   2.496   2.926
  483SOL    HW1 1467   0.791   2.470   2.850
  483SOL    HW2 1468   0.704   2.592   2.915
  484SOL     OW 1469   0.307   1.925   2.480
  484SOL    HW1 1470   0.296   2.019   2.513
  484SOL    HW2 1471   0.302   1.862   2.557
  485SOL     OW 1472   1.622   2.229   2.236
  485SOL    HW1 1473   1.624   2.153   2.300
  485SOL    HW2 1474   1.574   2.306   2.276
  486SOL     OW 1475   1.540   2.136   1.987
  486SOL    HW1 1476   1.479   2.061   2.010
  486SOL    HW2 1477   1.562   2.188   2.070
  487SOL     OW 1478   1.303   2.700   1.904
  487SOL    HW1 1479   1.337   2.607   1.919
  487SOL    HW2 1480   1.321   2.727   1.809
  488SOL     OW 1481   0.319   2.672   2.811
  488SOL    HW1 1482   0.412   2.708   2.816
  488SOL    HW2 1483   0.313   2.587   2.863
  489SOL     OW 1484   0.339   2.371   2.868
  489SOL    HW1 1485   0.287   2.288   2.851
  489SOL    HW2 1486   0.416   2.376   2.804
  490SOL     OW 1487   0.815   2.434   2.187
  490SOL    HW1 1488   0.822   2.345   2.141
  490SOL    HW2 1489   0.721   2.468   2.179
  491SOL     OW 1490   0.671   2.326   3.131
  491SOL    HW1 1491   0.637   2.237   3.101
  491SOL    HW2 1492   0.697   2.380   3.051
  492SOL     OW 1493   0.473   2.362   2.053
  492SOL    HW1 1494   0.534   2.442   2.057
  492SOL    HW2 1495   0.378   2.393   2.060
  493SOL     OW 1496   1.302   2.717   2.171
  493SOL    HW1 1497   1.216   2.686   2.213
  493SOL    HW2 1498   1.298   2.703   2.072
  494SOL     OW 1499   1.726   1.997   2.385
  494SOL    HW1 1500   1.799   1.980   2.318
  494SOL    HW2 1501   1.695   1.910   2.423
  495SOL     OW 1502   1.280   2.789   2.534
  495SOL    HW1 1503   1.340   2.708   2.536
  495SOL    HW2 1504   1.320   2.858   2.474
  496SOL     OW 1505   1.841   2.037   2.825
  496SOL    HW1 1506   1.880   1.952   2.789
  496SOL    HW2 1507   1.743   2.039   2.806
  497SOL     OW 1508   0.263   2.188   2.582
  497SOL    HW1 1509   0.184   2.239   2.548
  497SOL    HW2 1510   0.254   2.173   2.680
  498SOL     OW 1511   0.916   2.772   2.153
  498SOL    HW1 1512   0.979   2.810   2.085
  498SOL    HW2 1513   0.956   2.689   2.192
  499SOL     OW 1514   0.075   2.207   1.895
  499SOL    HW1 1515  -0.017   2.179   1.866
  499SOL    HW2 1516   0.106   2.284   1.839
  500SOL     OW 1517   0.072   2.028   2.180
  500SOL    HW1 1518   0.055   2.111   2.126
  500SOL    HW2 1519   0.162   1.991   2.158
  501SOL     OW 1520   1.183   3.197   1.981
  501SOL    HW1 1521   1.084   3.186   1.983
  501SOL    HW2 1522   1.217   3.212   2.074
  502SOL     OW 1523   1.674   2.745   3.116
  502SOL    HW1 1524   1.647   2.656   3.079
  502SOL    HW2 1525   1.675   2.813   3.043
  503SOL     OW 1526   1.225   2.187   2.311
  503SOL    HW1 1527   1.290   2.113   2.300
  503SOL    HW2 1528   1.245   2.237   2.395
  504SOL     OW 1529   0.594   2.607   2.514
  504SOL    HW1 1530   0.644   2.692   2.495
  504SOL    HW2 1531   0.506   2.609   2.466
  505SOL     OW 1532   0.859   2.818   2.723
  505SOL    HW1 1533   0.913   2.749   2.771
  505SOL    HW2 1534   0.827   2.887   2.789
  506SOL     OW 1535   1.083   2.846   1.949
  506SOL    HW1 1536   1.060   2.899   1.867
  506SOL    HW2 1537   1.164   2.790   1.930
  507SOL     OW 1538   0.079   3.102   2.515
  507SOL    HW1 1539   0.078   3.055   2.603
  507SOL    HW2 1540   0.161   3.074   2.464
  508SOL     OW 1541   1.824   2.054   3.089
  508SOL    HW1 1542   1.820   1.964   3.133
  508SOL    HW2 1543   1.827   2.043   2.990
  509SOL     OW 1544   0.428   2.286   2.382
  509SOL    HW1 1545   0.458   2.214   2.320
  509SOL    HW2 1546   0.389   2.246   2.465
  510SOL     OW 1547   1.352   1.914   2.030
  510SOL    HW1 1548   1.387   1.873   1.946
  510SOL    HW2 1549   1.262   1.876   2.050
  511SOL     OW 1550   1.300   2.315   2.553
  511SOL    HW1 1551   1.241   2.395   2.557
  511SOL    HW2 1552   1.315   2.280   2.646
  512SOL     OW 1553   1.593   2.083   2.744
  512SOL    HW1 1554   1.509   2.082   2.798
  512SOL    HW2 1555   1.595   2.166   2.688
  513SOL     OW 1556   2.092   0.628   0.113
  513SOL    HW1 1557   1.999   0.626   0.150
  513SOL    HW2 1558   2.093   0.589   0.021
  514SOL     OW 1559   2.087   0.275   0.996
  514SOL    HW1 1560   2.122   0.258   1.088
  514SOL    HW2 1561   1.999   0.230   0.984
  515SOL     OW 1562   1.881   0.368   0.647
  515SOL    HW1 1563   1.799   0.411   0.686
  515SOL    HW2 1564   1.853   0.295   0.584
  516SOL     OW 1565   2.431   1.275   1.165
  516SOL    HW1 1566   2.338   1.268   1.128
  516SOL    HW2 1567   2.442   1.364   1.209
  517SOL     OW 1568   2.630   1.144   1.023
  517SOL    HW1 1569   2.552   1.161   1.083
  517SOL    HW2 1570   2.664   1.231   0.987
  518SOL     OW 1571   2.712   0.798   1.823
  518SOL    HW1 1572   2.708   0.874   1.888
  518SOL    HW2 1573   2.734   0.834   1.732
  519SOL     OW 1574   2.547   1.012   0.665
  519SOL    HW1 1575   2.616   0.996   0.735
  519SOL    HW2 1576   2.474   1.069   0.703
  520SOL     OW 1577   2.548   1.161   1.803
  520SOL    HW1 1578   2.608   1.240   1.817
  520SOL    HW2 1579   2.462   1.192   1.762
  521SOL     OW 1580   2.197   1.435   1.061
  521SOL    HW1 1581   2.119   1.404   1.008
  521SOL    HW2 1582   2.255   1.493   1.004
  522SOL     OW 1583   2.300   0.392   1.499
  522SOL    HW1 1584   2.382   0.336   1.508
  522SOL    HW2 1585   2.219   0.334   1.503
  523SOL     OW 1586   2.093   1.713   0.483
  523SOL    HW1 1587   2.127   1.790   0.537
  523SOL    HW2 1588   2.137   1.713   0.393
  524SOL     OW 1589   2.092   1.434   0.538
  524SOL    HW1 1590   2.066   1.530   0.538
  524SOL    HW2 1591   2.021   1.380   0.583
  525SOL     OW 1592   2.102   1.091   0.886
  525SOL    HW1 1593   2.116   1.007   0.938
  525SOL    HW2 1594   2.047   1.155   0.941
  526SOL     OW 1595   2.482   1.786   1.439
  526SOL    HW1 1596   2.390   1.769   1.474
  526SOL    HW2 1597   2.510   1.878   1.465
  527SOL     OW 1598   2.468   0.964   0.123
  527SOL    HW1 1599   2.475   1.048   0.069
  527SOL    HW2 1600   2.514   0.977   0.211
  528SOL     OW 1601   1.984   0.643   0.563
  528SOL    HW1 1602   1.939   0.555   0.580
  528SOL    HW2 1603   1.983   0.697   0.647
  529SOL     OW 1604   1.889   1.596   0.117
  529SOL    HW1 1605   1.870   1.500   0.138
  529SOL    HW2 1606   1.856   1.654   0.192
  530SOL     OW 1607   1.975   0.737   1.597
  530SOL    HW1 1608   2.063   0.724   1.642
  530SOL    HW2 1609   1.962   0.834   1.575
  531SOL     OW 1610   2.475   1.365   0.726
  531SOL    HW1 1611   2.426   1.278   0.735
  531SOL    HW2 1612   2.452   1.408   0.639
  532SOL     OW 1613   2.671   0.004   0.502
  532SOL    HW1 1614   2.711   0.095   0.493
  532SOL    HW2 1615   2.571   0.012   0.508
  533SOL     OW 1616   2.059   0.976   1.264
  533SOL    HW1 1617   2.148   0.931   1.250
  533SOL    HW2 1618   1.986   0.911   1.245
  534SOL     OW 1619   2.179   0.251   1.801
  534SOL    HW1 1620   2.250   0.322   1.807
  534SOL    HW2 1621   2.091   0.290   1.829
  535SOL     OW 1622   2.460   0.729   0.270
  535SOL    HW1 1623   2.484   0.798   0.202
  535SOL    HW2 1624   2.382   0.762   0.324
  536SOL     OW 1625   2.669   0.605   1.465
  536SOL    HW1 1626   2.622   0.602   1.554
  536SOL    HW2 1627   2.618   0.550   1.399
  537SOL     OW 1628   2.835   0.890   1.572
  537SOL    HW1 1629   2.881   0.806   1.543
  537SOL    HW2 1630   2.779   0.924   1.497
  538SOL     OW 1631   2.853   0.410   1.242
  538SOL    HW1 1632   2.776   0.444   1.296
  538SOL    HW2 1633   2.819   0.359   1.163
  539SOL     OW 1634   1.938   0.811   0.789
  539SOL    HW1 1635   2.037   0.799   0.798
  539SOL    HW2 1636   1.914   0.906   0.810
  540SOL     OW 1637   1.992   1.821   1.571
  540SOL    HW1 1638   1.982   1.806   1.670
  540SOL    HW2 1639   1.906   1.857   1.535
  541SOL     OW 1640   2.727   0.348   0.195
  541SOL    HW1 1641   2.786   0.411   0.146
  541SOL    HW2 1642   2.746   0.254   0.166
  542SOL     OW 1643   2.412   0.196   0.885
  542SOL    HW1 1644   2.407   0.191   0.985
  542SOL    HW2 1645   2.414   0.292   0.856
  543SOL     OW 1646   2.870   1.456   0.477
  543SOL    HW1 1647   2.824   1.528   0.425
  543SOL    HW2 1648   2.866   1.476   0.575
  544SOL     OW 1649   2.213   1.801   0.853
  544SOL    HW1 1650   2.263   1.715   0.859
  544SOL    HW2 1651   2.278   1.878   0.850
  545SOL     OW 1652   2.183   0.943   0.242
  545SOL    HW1 1653   2.265   0.982   0.200
  545SOL    HW2 1654   2.156   0.861   0.193
  546SOL     OW 1655   2.323   1.266   1.727
  546SOL    HW1 1656   2.273   1.267   1.641
  546SOL    HW2 1657   2.260   1.248   1.803
  547SOL     OW 1658   2.064   0.285   1.498
  547SOL    HW1 1659   1.984   0.345   1.485
  547SOL    HW2 1660   2.054   0.236   1.584
  548SOL     OW 1661   2.326   1.743   0.323
  548SOL    HW1 1662   2.359   1.782   0.409
  548SOL    HW2 1663   2.402   1.736   0.258
  549SOL     OW 1664   2.111   1.785   1.241
  549SOL    HW1 1665   2.168   1.720   1.291
  549SOL    HW2 1666   2.095   1.752   1.148
  550SOL     OW 1667   2.244   0.700   0.480
  550SOL    HW1 1668   2.289   0.610   0.477
  550SOL    HW2 1669   2.150   0.689   0.513
  551SOL     OW 1670   2.476   0.122   0.117
  551SOL    HW1 1671   2.574   0.100   0.124
  551SOL    HW2 1672   2.445   0.105   0.024
  552SOL     OW 1673   2.643   0.264   1.749
  552SOL    HW1 1674   2.710   0.203   1.792
  552SOL    HW2 1675   2.570   0.283   1.814
  553SOL     OW 1676   2.750   1.514   1.195
  553SOL    HW1 1677   2.727   1.489   1.101
  553SOL    HW2 1678   2.811   1.445   1.234
  554SOL     OW 1679   2.665   1.402   0.924
  554SOL    HW1 1680   2.755   1.416   0.882
  554SOL    HW2 1681   2.594   1.404   0.853
  555SOL     OW 1682   2.784   0.503   0.899
  555SOL    HW1 1683   2.759   0.494   0.803
  555SOL    HW2 1684   2.832   0.421   0.930
  556SOL     OW 1685   2.401   0.064   0.512
  556SOL    HW1 1686   2.320   0.065   0.570
  556SOL    HW2 1687   2.404   0.147   0.457
  557SOL     OW 1688   2.159   0.035   0.171
  557SOL    HW1 1689   2.208   0.119   0.150
  557SOL    HW2 1690   2.221  -0.030   0.216
  558SOL     OW 1691   2.797   0.236   0.480
  558SOL    HW1 1692   2.749   0.277   0.402
  558SOL    HW2 1693   2.896   0.234   0.461
  559SOL     OW 1694   3.089   1.570   0.793
  559SOL    HW1 1695   3.110   1.644   0.728
  559SOL    HW2 1696   3.157   1.570   0.866
  560SOL     OW 1697   2.321   1.152   0.741
  560SOL    HW1 1698   2.250   1.125   0.806
  560SOL    HW2 1699   2.295   1.124   0.648
  561SOL     OW 1700   1.940   0.556   1.386
  561SOL    HW1 1701   2.032   0.555   1.345
  561SOL    HW2 1702   1.934   0.630   1.453
  562SOL     OW 1703   2.423   0.222   1.147
  562SOL    HW1 1704   2.461   0.138   1.184
  562SOL    HW2 1705   2.335   0.241   1.191
  563SOL     OW 1706   2.879   0.039   0.753
  563SOL    HW1 1707   2.807   0.044   0.684
  563SOL    HW2 1708   2.855  -0.030   0.822
  564SOL     OW 1709   2.350   1.385   0.174
  564SOL    HW1 1710   2.263   1.370   0.221
  564SOL    HW2 1711   2.333   1.411   0.079
  565SOL     OW 1712   2.389   0.256   0.328
  565SOL    HW1 1713   2.416   0.197   0.253
  565SOL    HW2 1714   2.389   0.351   0.297
  566SOL     OW 1715   2.777   0.089   1.402
  566SOL    HW1 1716   2.802   0.069   1.307
  566SOL    HW2 1717   2.849   0.145   1.444
  567SOL     OW 1718   2.842   1.116   1.719
  567SOL    HW1 1719   2.743   1.122   1.729
  567SOL    HW2 1720   2.865   1.036   1.663
  568SOL     OW 1721   2.567   1.050   0.368
  568SOL    HW1 1722   2.553   1.057   0.467
  568SOL    HW2 1723   2.651   0.999   0.350
  569SOL     OW 1724   2.272   0.813   1.251
  569SOL    HW1 1725   2.358   0.825   1.301
  569SOL    HW2 1726   2.230   0.726   1.278
  570SOL     OW 1727   2.229   1.100   0.501
  570SOL    HW1 1728   2.222   1.183   0.445
  570SOL    HW2 1729   2.233   1.020   0.441
  571SOL     OW 1730   2.428   0.537   0.865
  571SOL    HW1 1731   2.440   0.603   0.791
  571SOL    HW2 1732   2.474   0.571   0.948
  572SOL     OW 1733   2.216   1.510   1.329
  572SOL    HW1 1734   2.195   1.466   1.242
  572SOL    HW2 1735   2.313   1.536   1.332
  573SOL     OW 1736   2.264   0.751   1.598
  573SOL    HW1 1737   2.332   0.806   1.551
  573SOL    HW2 1738   2.304   0.663   1.625
  574SOL     OW 1739   2.366   0.050   1.740
  574SOL    HW1 1740   2.324  -0.007   1.670
  574SOL    HW2 1741   2.300   0.119   1.772
  575SOL     OW 1742   2.435   0.870   1.029
  575SOL    HW1 1743   2.479   0.959   1.020
  575SOL    HW2 1744   2.372   0.870   1.106
  576SOL     OW 1745   3.071   0.525   0.275
  576SOL    HW1 1746   3.084   0.441   0.329
  576SOL    HW2 1747   3.042   0.599   0.335
  577SOL     OW 1748   2.169   0.213   1.231
  577SOL    HW1 1749   2.146   0.250   1.321
  577SOL    HW2 1750   2.139   0.118   1.225
  578SOL     OW 1751   1.899   1.310   1.282
  578SOL    HW1 1752   1.952   1.261   1.350
  578SOL    HW2 1753   1.921   1.408   1.287
  579SOL     OW 1754   2.594   0.634   1.064
  579SOL    HW1 1755   2.653   0.608   0.988
  579SOL    HW2 1756   2.566   0.730   1.053
  580SOL     OW 1757   2.169   0.063   0.618
  580SOL    HW1 1758   2.158   0.157   0.651
  580SOL    HW2 1759   2.164   0.000   0.695
  581SOL     OW 1760   2.885   0.766   0.966
  581SOL    HW1 1761   2.900   0.787   1.062
  581SOL    HW2 1762   2.855   0.671   0.957
  582SOL     OW 1763   2.842   1.573   1.700
  582SOL    HW1 1764   2.822   1.617   1.612
  582SOL    HW2 1765   2.881   1.482   1.684
  583SOL     OW 1766   2.212   0.898   1.804
  583SOL    HW1 1767   2.288   0.942   1.852
  583SOL    HW2 1768   2.247   0.851   1.722
  584SOL     OW 1769   2.181   0.810   0.949
  584SOL    HW1 1770   2.274   0.846   0.954
  584SOL    HW2 1771   2.175   0.725   1.001
  585SOL     OW 1772   2.201   0.509   1.006
  585SOL    HW1 1773   2.149   0.426   0.989
  585SOL    HW2 1774   2.278   0.514   0.942
  586SOL     OW 1775   1.870   1.326   0.200
  586SOL    HW1 1776   1.777   1.347   0.169
  586SOL    HW2 1777   1.880   1.227   0.213
  587SOL     OW 1778   1.950   1.801   0.927
  587SOL    HW1 1779   1.908   1.715   0.900
  587SOL    HW2 1780   2.044   1.804   0.893
  588SOL     OW 1781   2.366   1.568   0.910
  588SOL    HW1 1782   2.432   1.642   0.919
  588SOL    HW2 1783   2.410   1.489   0.868
  589SOL     OW 1784   2.864   0.796   1.238
  589SOL    HW1 1785   2.905   0.764   1.324
  589SOL    HW2 1786   2.768   0.769   1.235
  590SOL     OW 1787   1.902   0.544   1.114
  590SOL    HW1 1788   1.987   0.511   1.073
  590SOL    HW2 1789   1.915   0.559   1.212
  591SOL     OW 1790   2.051   0.520   1.722
  591SOL    HW1 1791   2.110   0.480   1.652
  591SOL    HW2 1792   1.993   0.591   1.681
  592SOL     OW 1793   2.677   0.572   0.325
  592SOL    HW1 1794   2.684   0.483   0.279
  592SOL    HW2 1795   2.583   0.606   0.317
  593SOL     OW 1796   2.114   1.564   1.744
  593SOL    HW1 1797   2.084   1.621   1.820
  593SOL    HW2 1798   2.107   1.467   1.770
  594SOL     OW 1799   2.533   0.464   1.269
  594SOL    HW1 1800   2.499   0.375   1.239
  594SOL    HW2 1801   2.559   0.518   1.189
  595SOL     OW 1802   2.792   1.678   1.465
  595SOL    HW1 1803   2.768   1.660   1.370
  595SOL    HW2 1804   2.822   1.772   1.475
  596SOL     OW 1805   2.335   0.500   0.191
  596SOL    HW1 1806   2.396   0.580   0.195
  596SOL    HW2 1807   2.240   0.531   0.198
  597SOL     OW 1808   2.021   1.137   1.466
  597SOL    HW1 1809   2.043   1.076   1.542
  597SOL    HW2 1810   2.031   1.088   1.380
  598SOL     OW 1811   1.945   1.258   1.022
  598SOL    HW1 1812   1.940   1.257   1.122
  598SOL    HW2 1813   1.862   1.217   0.984
  599SOL     OW 1814   2.550   1.662   1.716
  599SOL    HW1 1815   2.494   1.743   1.725
  599SOL    HW2 1816   2.602   1.666   1.630
  600SOL     OW 1817   2.765   0.086   0.133
  600SOL    HW1 1818   2.816   0.087   0.047
  600SOL    HW2 1819   2.821   0.044   0.204
  601SOL     OW 1820   1.992   1.794   1.851
  601SOL    HW1 1821   1.951   1.720   1.904
  601SOL    HW2 1822   2.056   1.845   1.909
  602SOL     OW 1823   3.142   0.927   0.672
  602SOL    HW1 1824   3.202   0.846   0.674
  602SOL    HW2 1825   3.182   0.996   0.612
  603SOL     OW 1826   2.692   1.273   1.422
  603SOL    HW1 1827   2.687   1.306   1.517
  603SOL    HW2 1828   2.606   1.292   1.376
  604SOL     OW 1829   2.534   1.616   0.154
  604SOL    HW1 1830   2.543   1.626   0.055
  604SOL    HW2 1831   2.494   1.527   0.175
  605SOL     OW 1832   2.125   0.326   0.720
  605SOL    HW1 1833   2.046   0.377   0.686
  605SOL    HW2 1834   2.116   0.311   0.818
  606SOL     OW 1835   2.684   1.002   1.372
  606SOL    HW1 1836   2.724   1.001   1.280
  606SOL    HW2 1837   2.694   1.094   1.412
  607SOL     OW 1838   2.778   0.910   0.291
  607SOL    HW1 1839   2.841   0.948   0.223
  607SOL    HW2 1840   2.818   0.827   0.330
  608SOL     OW 1841   2.234   1.288   1.490
  608SOL    HW1 1842   2.221   1.381   1.456
  608SOL    HW2 1843   2.150   1.236   1.477
  609SOL     OW 1844   2.876   0.236   0.971
  609SOL    HW1 1845   2.868   0.200   0.878
  609SOL    HW2 1846   2.874   0.160   1.036
  610SOL     OW 1847   2.452   1.487   0.491
  610SOL    HW1 1848   2.494   1.429   0.421
  610SOL    HW2 1849   2.408   1.566   0.447
  611SOL     OW 1850   2.117   1.348   0.290
  611SOL    HW1 1851   2.021   1.349   0.263
  611SOL    HW2 1852   2.129   1.401   0.374
  612SOL     OW 1853   1.967   1.013   1.726
  612SOL    HW1 1854   1.890   0.980   1.780
  612SOL    HW2 1855   2.052   0.983   1.768
  613SOL     OW 1856   2.534   0.203   1.489
  613SOL    HW1 1857   2.624   0.187   1.449
  613SOL    HW2 1858   2.542   0.208   1.588
  614SOL     OW 1859   1.937   0.345   0.033
  614SOL    HW1 1860   1.845   0.317   0.004
  614SOL    HW2 1861   1.968   0.422  -0.023
  615SOL     OW 1862   2.475   0.842   1.431
  615SOL    HW1 1863   2.531   0.923   1.414
  615SOL    HW2 1864   2.534   0.762   1.434
  616SOL     OW 1865   2.578   0.565   1.708
  616SOL    HW1 1866   2.597   0.630   1.782
  616SOL    HW2 1867   2.638   0.485   1.717
  617SOL     OW 1868   2.252   1.741   1.560
  617SOL    HW1 1869   2.161   1.782   1.558
  617SOL    HW2 1870   2.245   1.647   1.592
  618SOL     OW 1871   3.087   0.325   0.449
  618SOL    HW1 1872   3.152   0.251   0.438
  618SOL    HW2 1873   3.107   0.375   0.533
  619SOL     OW 1874   2.456   0.745   0.652
  619SOL    HW1 1875   2.506   0.830   0.633
  619SOL    HW2 1876   2.368   0.747   0.604
  620SOL     OW 1877   2.721   1.374   0.016
  620SOL    HW1 1878   2.675   1.389   0.104
  620SOL    HW2 1879   2.765   1.459  -0.014
  621SOL     OW 1880   2.523   1.790   0.953
  621SOL    HW1 1881   2.477   1.878   0.940
  621SOL    HW2 1882   2.622   1.802   0.946
  622SOL     OW 1883   2.721   0.956   0.861
  622SOL    HW1 1884   2.775   0.887   0.909
  622SOL    HW2 1885   2.689   1.025   0.927
  623SOL     OW 1886   2.945   0.984   0.087
  623SOL    HW1 1887   2.922   1.037   0.005
  623SOL    HW2 1888   3.026   0.928   0.068
  624SOL     OW 1889   2.083   1.314   1.844
  624SOL    HW1 1890   2.018   1.241   1.823
  624SOL    HW2 1891   2.087   1.328   1.942
  625SOL     OW 1892   1.941   1.240   0.653
  625SOL    HW1 1893   1.940   1.193   0.741
  625SOL    HW2 1894   2.023   1.212   0.602
  626SOL     OW 1895   2.534   1.391   1.624
  626SOL    HW1 1896   2.456   1.341   1.662
  626SOL    HW2 1897   2.531   1.486   1.655
  627SOL     OW 1898   2.290   0.424   0.520
  627SOL    HW1 1899   2.320   0.352   0.458
  627SOL    HW2 1900   2.251   0.384   0.603
  628SOL     OW 1901   2.179   0.547   1.280
  628SOL    HW1 1902   2.217   0.488   1.352
  628SOL    HW2 1903   2.219   0.521   1.192
  629SOL     OW 1904   2.674   1.586   0.687
  629SOL    HW1 1905   2.706   1.596   0.593
  629SOL    HW2 1906   2.595   1.524   0.689
  630SOL     OW 1907   2.863   0.034   1.154
  630SOL    HW1 1908   2.800  -0.038   1.123
  630SOL    HW2 1909   2.956  -0.002   1.154
  631SOL     OW 1910   2.632   1.330   0.301
  631SOL    HW1 1911   2.586   1.243   0.318
  631SOL    HW2 1912   2.723   1.327   0.342
  632SOL     OW 1913   2.480   1.567   1.284
  632SOL    HW1 1914   2.475   1.649   1.341
  632SOL    HW2 1915   2.569   1.564   1.239
  633SOL     OW 1916   1.901   1.077   0.300
  633SOL    HW1 1917   2.000   1.066   0.291
  633SOL    HW2 1918   1.861   0.991   0.332
  634SOL     OW 1919   2.737   1.646   0.337
  634SOL    HW1 1920   2.660   1.611   0.283
  634SOL    HW2 1921   2.705   1.717   0.399
  635SOL     OW 1922   2.092   0.628   1.975
  635SOL    HW1 1923   1.999   0.626   2.012
  635SOL    HW2 1924   2.093   0.589   1.883
  636SOL     OW 1925   2.087   0.275   2.858
  636SOL    HW1 1926   2.122   0.258   2.950
  636SOL    HW2 1927   1.999   0.230   2.846
  637SOL     OW 1928   1.881   0.368   2.509
  637SOL    HW1 1929   1.799   0.411   2.548
  637SOL    HW2 1930   1.853   0.295   2.446
  638SOL     OW 1931   2.630   1.144   2.885
  638SOL    HW1 1932   2.552   1.161   2.945
  638SOL    HW2 1933   2.664   1.231   2.849
  639SOL     OW 1934   2.547   1.012   2.527
  639SOL    HW1 1935   2.616   0.996   2.597
  639SOL    HW2 1936   2.474   1.069   2.565
  640SOL     OW 1937   2.197   1.435   2.923
  640SOL    HW1 1938   2.119   1.404   2.870
  640SOL    HW2 1939   2.255   1.493   2.866
  641SOL     OW 1940   2.093   1.713   2.345
  641SOL    HW1 1941   2.127   1.790   2.399
  641SOL    HW2 1942   2.137   1.713   2.255
  642SOL     OW 1943   2.092   1.434   2.400
  642SOL    HW1 1944   2.066   1.530   2.400
  642SOL    HW2 1945   2.021   1.380   2.445
  643SOL     OW 1946   2.102   1.091   2.748
  643SOL    HW1 1947   2.116   1.007   2.800
  643SOL    HW2 1948   2.047   1.155   2.803
  644SOL     OW 1949   2.468   0.964   1.985
  644SOL    HW1 1950   2.475   1.048   1.931
  644SOL    HW2 1951   2.514   0.977   2.073
  645SOL     OW 1952   1.984   0.643   2.425
  645SOL    HW1 1953   1.939   0.555   2.442
  645SOL    HW2 1954   1.983   0.697   2.509
  646SOL     OW 1955   1.889   1.596   1.979
  646SOL    HW1 1956   1.870   1.500   2.000
  646SOL    HW2 1957   1.856   1.654   2.054
  647SOL     OW 1958   2.475   1.365   2.588
  647SOL    HW1 1959   2.426   1.278   2.597
  647SOL    HW2 1960   2.452   1.408   2.501
  648SOL     OW 1961   2.671   0.004   2.364
  648SOL    HW1 1962   2.711   0.095   2.355
  648SOL    HW2 1963   2.571   0.012   2.370
  649SOL     OW 1964   2.460   0.729   2.132
  649SOL    HW1 1965   2.484   0.798   2.064
  649SOL    HW2 1966   2.382   0.762   2.186
  650SOL     OW 1967   1.938   0.811   2.651
  650SOL    HW1 1968   2.037   0.799   2.660
  650SOL    HW2 1969   1.914   0.906   2.672
  651SOL     OW 1970   2.727   0.348   2.057
  651SOL    HW1 1971   2.786   0.411   2.008
  651SOL    HW2 1972   2.746   0.254   2.028
  652SOL     OW 1973   2.412   0.196   2.747
  652SOL    HW1 1974   2.407   0.191   2.847
  652SOL    HW2 1975   2.414   0.292   2.718
  653SOL     OW 1976   2.870   1.456   2.339
  653SOL    HW1 1977   2.824   1.528   2.287
  653SOL    HW2 1978   2.866   1.476   2.437
  654SOL     OW 1979   2.213   1.801   2.715
  654SOL    HW1 1980   2.263   1.715   2.721
  654SOL    HW2 1981   2.278   1.878   2.712
  655SOL     OW 1982   2.183   0.943   2.104
  655SOL    HW1 1983   2.265   0.982   2.062
  655SOL    HW2 1984   2.156   0.861   2.055
  656SOL     OW 1985   2.326   1.743   2.185
  656SOL    HW1 1986   2.359   1.782   2.271
  656SOL    HW2 1987   2.402   1.736   2.120
  657SOL     OW 1988   2.111   1.785   3.103
  657SOL    HW1 1989   2.168   1.720   3.153
  657SOL    HW2 1990   2.095   1.752   3.010
  658SOL     OW 1991   2.244   0.700   2.342
  658SOL    HW1 1992   2.289   0.610   2.339
  658SOL    HW2 1993   2.150   0.689   2.375
  659SOL     OW 1994   2.476   0.122   1.979
  659SOL    HW1 1995   2.574   0.100   1.986
  659SOL    HW2 1996   2.445   0.105   1.886
  660SOL     OW 1997   2.784   0.503   2.761
  660SOL    HW1 1998   2.759   0.494   2.665
  660SOL    HW2 1999   2.832   0.421   2.792
  661SOL     OW 2000   2.401   0.064   2.374
  661SOL    HW1 2001   2.320   0.065   2.432
  661SOL    HW2 2002   2.404   0.147   2.319
  662SOL     OW 2003   2.159   0.035   2.033
  662SOL    HW1 2004   2.208   0.119   2.012
  662SOL    HW2 2005   2.221  -0.030   2.078
  663SOL     OW 2006   2.797   0.236   2.342
  663SOL    HW1 2007   2.749   0.277   2.264
  663SOL    HW2 2008   2.896   0.234   2.323
  664SOL     OW 2009   3.089   1.570   2.655
  664SOL    HW1 2010   3.110   1.644   2.590
  664SOL    HW2 2011   3.157   1.570   2.728
  665SOL     OW 2012   2.321   1.152   2.603
  665SOL    HW1 2013   2.250   1.125   2.668
  665SOL    HW2 2014   2.295   1.124   2.510
  666SOL     OW 2015   2.879   0.039   2.615
  666SOL    HW1 2016   2.807   0.044   2.546
  666SOL    HW2 2017   2.855  -0.030   2.684
  667SOL     OW 2018   2.350   1.385   2.036
  667SOL    HW1 2019   2.263   1.370   2.083
  667SOL    HW2 2020   2.333   1.411   1.941
  668SOL     OW 2021   2.389   0.256   2.190
  668SOL    HW1 2022   2.416   0.197   2.115
  668SOL    HW2 2023   2.389   0.351   2.159
  669SOL     OW 2024   2.567   1.050   2.230
  669SOL    HW1 2025   2.553   1.057   2.329
  669SOL    HW2 2026   2.651   0.999   2.212
  670SOL     OW 2027   2.229   1.100   2.363
  670SOL    HW1 2028   2.222   1.183   2.307
  670SOL    HW2 2029   2.233   1.020   2.303
  671SOL     OW 2030   2.428   0.537   2.727
  671SOL    HW1 2031   2.440   0.603   2.653
  671SOL    HW2 2032   2.474   0.571   2.810
  672SOL     OW 2033   2.435   0.870   2.891
  672SOL    HW1 2034   2.479   0.959   2.882
  672SOL    HW2 2035   2.372   0.870   2.968
  673SOL     OW 2036   3.071   0.525   2.137
  673SOL    HW1 2037   3.084   0.441   2.191
  673SOL    HW2 2038   3.042   0.599   2.197
  674SOL     OW 2039   2.594   0.634   2.926
  674SOL    HW1 2040   2.653   0.608   2.850
  674SOL    HW2 2041   2.566   0.730   2.915
  675SOL     OW 2042   2.169   0.063   2.480
  675SOL    HW1 2043   2.158   0.157   2.513
  675SOL    HW2 2044   2.164   0.000   2.557
  676SOL     OW 2045   2.885   0.766   2.828
  676SOL    HW1 2046   2.900   0.787   2.924
  676SOL    HW2 2047   2.855   0.671   2.819
  677SOL     OW 2048   2.181   0.810   2.811
  677SOL    HW1 2049   2.274   0.846   2.816
  677SOL    HW2 2050   2.175   0.725   2.863
  678SOL     OW 2051   2.201   0.509   2.868
  678SOL    HW1 2052   2.149   0.426   2.851
  678SOL    HW2 2053   2.278   0.514   2.804
  679SOL     OW 2054   1.870   1.326   2.062
  679SOL    HW1 2055   1.777   1.347   2.031
  679SOL    HW2 2056   1.880   1.227   2.075
  680SOL     OW 2057   1.950   1.801   2.789
  680SOL    HW1 2058   1.908   1.715   2.762
  680SOL    HW2 2059   2.044   1.804   2.755
  681SOL     OW 2060   2.366   1.568   2.772
  681SOL    HW1 2061   2.432   1.642   2.781
  681SOL    HW2 2062   2.410   1.489   2.730
  682SOL     OW 2063   2.677   0.572   2.187
  682SOL    HW1 2064   2.684   0.483   2.141
  682SOL    HW2 2065   2.583   0.606   2.179
  683SOL     OW 2066   2.533   0.464   3.131
  683SOL    HW1 2067   2.499   0.375   3.101
  683SOL    HW2 2068   2.559   0.518   3.051
  684SOL     OW 2069   2.335   0.500   2.053
  684SOL    HW1 2070   2.396   0.580   2.057
  684SOL    HW2 2071   2.240   0.531   2.060
  685SOL     OW 2072   1.945   1.258   2.884
  685SOL    HW1 2073   1.940   1.257   2.984
  685SOL    HW2 2074   1.862   1.217   2.846
  686SOL     OW 2075   2.765   0.086   1.995
  686SOL    HW1 2076   2.816   0.087   1.909
  686SOL    HW2 2077   2.821   0.044   2.066
  687SOL     OW 2078   3.142   0.927   2.534
  687SOL    HW1 2079   3.202   0.846   2.536
  687SOL    HW2 2080   3.182   0.996   2.474
  688SOL     OW 2081   2.534   1.616   2.016
  688SOL    HW1 2082   2.543   1.626   1.917
  688SOL    HW2 2083   2.494   1.527   2.037
  689SOL     OW 2084   2.125   0.326   2.582
  689SOL    HW1 2085   2.046   0.377   2.548
  689SOL    HW2 2086   2.116   0.311   2.680
  690SOL     OW 2087   2.778   0.910   2.153
  690SOL    HW1 2088   2.841   0.948   2.085
  690SOL    HW2 2089   2.818   0.827   2.192
  691SOL     OW 2090   2.452   1.487   2.353
  691SOL    HW1 2091   2.494   1.429   2.283
  691SOL    HW2 2092   2.408   1.566   2.309
  692SOL     OW 2093   2.117   1.348   2.152
  692SOL    HW1 2094   2.021   1.349   2.125
  692SOL    HW2 2095   2.129   1.401   2.236
  693SOL     OW 2096   1.937   0.345   1.895
  693SOL    HW1 2097   1.845   0.317   1.866
  693SOL    HW2 2098   1.968   0.422   1.839
  694SOL     OW 2099   1.934   0.166   2.180
  694SOL    HW1 2100   1.917   0.249   2.126
  694SOL    HW2 2101   2.024   0.129   2.158
  695SOL     OW 2102   3.087   0.325   2.311
  695SOL    HW1 2103   3.152   0.251   2.300
  695SOL    HW2 2104   3.107   0.375   2.395
  696SOL     OW 2105   2.456   0.745   2.514
  696SOL    HW1 2106   2.506   0.830   2.495
  696SOL    HW2 2107   2.368   0.747   2.466
  697SOL     OW 2108   2.721   1.374   1.878
  697SOL    HW1 2109   2.675   1.389   1.966
  697SOL    HW2 2110   2.765   1.459   1.848
  698SOL     OW 2111   2.523   1.790   2.815
  698SOL    HW1 2112   2.477   1.878   2.802
  698SOL    HW2 2113   2.622   1.802   2.808
  699SOL     OW 2114   2.721   0.956   2.723
  699SOL    HW1 2115   2.775   0.887   2.771
  699SOL    HW2 2116   2.689   1.025   2.789
  700SOL     OW 2117   1.941   1.240   2.515
  700SOL    HW1 2118   1.940   1.193   2.603
  700SOL    HW2 2119   2.023   1.212   2.464
  701SOL     OW 2120   2.290   0.424   2.382
  701SOL    HW1 2121   2.320   0.352   2.320
  701SOL    HW2 2122   2.251   0.384   2.465
  702SOL     OW 2123   2.674   1.586   2.549
  702SOL    HW1 2124   2.706   1.596   2.455
  702SOL    HW2 2125   2.595   1.524   2.551
  703SOL     OW 2126   2.632   1.330   2.163
  703SOL    HW1 2127   2.586   1.243   2.180
  703SOL    HW2 2128   2.723   1.327   2.204
  704SOL     OW 2129   1.901   1.077   2.162
  704SOL    HW1 2130   2.000   1.066   2.153
  704SOL    HW2 2131   1.861   0.991   2.194
  705SOL     OW 2132   2.737   1.646   2.199
  705SOL    HW1 2133   2.660   1.611   2.145
  705SOL    HW2 2134   2.705   1.717   2.261
  706SOL     OW 2135   2.092   2.490   0.113
  706SOL    HW1 2136   1.999   2.488   0.150
  706SOL    HW2 2137   2.093   2.451   0.021
  707SOL     OW 2138   2.087   2.137   0.996
  707SOL    HW1 2139   2.122   2.120   1.088
  707SOL    HW2 2140   1.999   2.092   0.984
  708SOL     OW 2141   1.881   2.230   0.647
  708SOL    HW1 2142   1.799   2.273   0.686
  708SOL    HW2 2143   1.853   2.157   0.584
  709SOL     OW 2144   2.630   3.006   1.023
  709SOL    HW1 2145   2.552   3.023   1.083
  709SOL    HW2 2146   2.664   3.093   0.987
  710SOL     OW 2147   2.712   2.660   1.823
  710SOL    HW1 2148   2.708   2.736   1.888
  710SOL    HW2 2149   2.734   2.696   1.732
  711SOL     OW 2150   2.547   2.874   0.665
  711SOL    HW1 2151   2.616   2.858   0.735
  711SOL    HW2 2152   2.474   2.931   0.703
  712SOL     OW 2153   2.300   2.254   1.499
  712SOL    HW1 2154   2.382   2.198   1.508
  712SOL    HW2 2155   2.219   2.196   1.503
  713SOL     OW 2156   2.102   2.953   0.886
  713SOL    HW1 2157   2.116   2.869   0.938
  713SOL    HW2 2158   2.047   3.017   0.941
  714SOL     OW 2159   1.984   2.505   0.563
  714SOL    HW1 2160   1.939   2.417   0.580
  714SOL    HW2 2161   1.983   2.559   0.647
  715SOL     OW 2162   1.975   2.599   1.597
  715SOL    HW1 2163   2.063   2.586   1.642
  715SOL    HW2 2164   1.962   2.696   1.575
  716SOL     OW 2165   2.671   1.866   0.502
  716SOL    HW1 2166   2.711   1.957   0.493
  716SOL    HW2 2167   2.571   1.874   0.508
  717SOL     OW 2168   2.059   2.838   1.264
  717SOL    HW1 2169   2.148   2.793   1.250
  717SOL    HW2 2170   1.986   2.773   1.245
  718SOL     OW 2171   2.179   2.113   1.801
  718SOL    HW1 2172   2.250   2.184   1.807
  718SOL    HW2 2173   2.091   2.152   1.829
  719SOL     OW 2174   2.460   2.591   0.270
  719SOL    HW1 2175   2.484   2.660   0.202
  719SOL    HW2 2176   2.382   2.624   0.324
  720SOL     OW 2177   2.669   2.467   1.465
  720SOL    HW1 2178   2.622   2.464   1.554
  720SOL    HW2 2179   2.618   2.412   1.399
  721SOL     OW 2180   2.835   2.752   1.572
  721SOL    HW1 2181   2.881   2.668   1.543
  721SOL    HW2 2182   2.779   2.786   1.497
  722SOL     OW 2183   2.853   2.272   1.242
  722SOL    HW1 2184   2.776   2.306   1.296
  722SOL    HW2 2185   2.819   2.221   1.163
  723SOL     OW 2186   1.938   2.673   0.789
  723SOL    HW1 2187   2.037   2.661   0.798
  723SOL    HW2 2188   1.914   2.768   0.810
  724SOL     OW 2189   2.727   2.210   0.195
  724SOL    HW1 2190   2.786   2.273   0.146
  724SOL    HW2 2191   2.746   2.116   0.166
  725SOL     OW 2192   2.412   2.058   0.885
  725SOL    HW1 2193   2.407   2.053   0.985
  725SOL    HW2 2194   2.414   2.154   0.856
  726SOL     OW 2195   2.064   2.147   1.498
  726SOL    HW1 2196   1.984   2.207   1.485
  726SOL    HW2 2197   2.054   2.098   1.584
  727SOL     OW 2198   2.244   2.562   0.480
  727SOL    HW1 2199   2.289   2.472   0.477
  727SOL    HW2 2200   2.150   2.551   0.513
  728SOL     OW 2201   2.476   1.984   0.117
  728SOL    HW1 2202   2.574   1.962   0.124
  728SOL    HW2 2203   2.445   1.967   0.024
  729SOL     OW 2204   2.643   2.126   1.749
  729SOL    HW1 2205   2.710   2.065   1.792
  729SOL    HW2 2206   2.570   2.145   1.814
  730SOL     OW 2207   2.784   2.365   0.899
  730SOL    HW1 2208   2.759   2.356   0.803
  730SOL    HW2 2209   2.832   2.283   0.930
  731SOL     OW 2210   2.401   1.926   0.512
  731SOL    HW1 2211   2.320   1.927   0.570
  731SOL    HW2 2212   2.404   2.009   0.457
  732SOL     OW 2213   2.797   2.098   0.480
  732SOL    HW1 2214   2.749   2.139   0.402
  732SOL    HW2 2215   2.896   2.096   0.461
  733SOL     OW 2216   1.940   2.418   1.386
  733SOL    HW1 2217   2.032   2.417   1.345
  733SOL    HW2 2218   1.934   2.492   1.453
  734SOL     OW 2219   2.423   2.084   1.147
  734SOL    HW1 2220   2.461   2.000   1.184
  734SOL    HW2 2221   2.335   2.103   1.191
  735SOL     OW 2222   2.879   1.901   0.753
  735SOL    HW1 2223   2.807   1.906   0.684
  735SOL    HW2 2224   2.855   1.832   0.822
  736SOL     OW 2225   2.389   2.118   0.328
  736SOL    HW1 2226   2.416   2.059   0.253
  736SOL    HW2 2227   2.389   2.213   0.297
  737SOL     OW 2228   2.777   1.951   1.402
  737SOL    HW1 2229   2.802   1.931   1.307
  737SOL    HW2 2230   2.849   2.007   1.444
  738SOL     OW 2231   2.842   2.978   1.719
  738SOL    HW1 2232   2.743   2.984   1.729
  738SOL    HW2 2233   2.865   2.898   1.663
  739SOL     OW 2234   2.272   2.675   1.251
  739SOL    HW1 2235   2.358   2.687   1.301
  739SOL    HW2 2236   2.230   2.588   1.278
  740SOL     OW 2237   2.428   2.399   0.865
  740SOL    HW1 2238   2.440   2.465   0.791
  740SOL    HW2 2239   2.474   2.433   0.948
  741SOL     OW 2240   2.264   2.613   1.598
  741SOL    HW1 2241   2.332   2.668   1.551
  741SOL    HW2 2242   2.304   2.525   1.625
  742SOL     OW 2243   2.875   1.967   1.770
  742SOL    HW1 2244   2.881   2.052   1.718
  742SOL    HW2 2245   2.907   1.891   1.713
  743SOL     OW 2246   2.366   1.912   1.740
  743SOL    HW1 2247   2.324   1.855   1.670
  743SOL    HW2 2248   2.300   1.981   1.772
  744SOL     OW 2249   2.435   2.732   1.029
  744SOL    HW1 2250   2.479   2.821   1.020
  744SOL    HW2 2251   2.372   2.732   1.106
  745SOL     OW 2252   3.071   2.387   0.275
  745SOL    HW1 2253   3.084   2.303   0.329
  745SOL    HW2 2254   3.042   2.461   0.335
  746SOL     OW 2255   2.169   2.075   1.231
  746SOL    HW1 2256   2.146   2.112   1.321
  746SOL    HW2 2257   2.139   1.980   1.225
  747SOL     OW 2258   2.594   2.496   1.064
  747SOL    HW1 2259   2.653   2.470   0.988
  747SOL    HW2 2260   2.566   2.592   1.053
  748SOL     OW 2261   2.169   1.925   0.618
  748SOL    HW1 2262   2.158   2.019   0.651
  748SOL    HW2 2263   2.164   1.862   0.695
  749SOL     OW 2264   2.885   2.628   0.966
  749SOL    HW1 2265   2.900   2.649   1.062
  749SOL    HW2 2266   2.855   2.533   0.957
  750SOL     OW 2267   2.212   2.760   1.804
  750SOL    HW1 2268   2.288   2.804   1.852
  750SOL    HW2 2269   2.247   2.713   1.722
  751SOL     OW 2270   2.181   2.672   0.949
  751SOL    HW1 2271   2.274   2.708   0.954
  751SOL    HW2 2272   2.175   2.587   1.001
  752SOL     OW 2273   2.201   2.371   1.006
  752SOL    HW1 2274   2.149   2.288   0.989
  752SOL    HW2 2275   2.278   2.376   0.942
  753SOL     OW 2276   2.864   2.658   1.238
  753SOL    HW1 2277   2.905   2.626   1.324
  753SOL    HW2 2278   2.768   2.631   1.235
  754SOL     OW 2279   1.902   2.406   1.114
  754SOL    HW1 2280   1.987   2.373   1.073
  754SOL    HW2 2281   1.915   2.421   1.212
  755SOL     OW 2282   2.051   2.382   1.722
  755SOL    HW1 2283   2.110   2.342   1.652
  755SOL    HW2 2284   1.993   2.453   1.681
  756SOL     OW 2285   2.677   2.434   0.325
  756SOL    HW1 2286   2.684   2.345   0.279
  756SOL    HW2 2287   2.583   2.468   0.317
  757SOL     OW 2288   2.533   2.326   1.269
  757SOL    HW1 2289   2.499   2.237   1.239
  757SOL    HW2 2290   2.559   2.380   1.189
  758SOL     OW 2291   2.335   2.362   0.191
  758SOL    HW1 2292   2.396   2.442   0.195
  758SOL    HW2 2293   2.240   2.393   0.198
  759SOL     OW 2294   2.021   2.999   1.466
  759SOL    HW1 2295   2.043   2.938   1.542
  759SOL    HW2 2296   2.031   2.950   1.380
  760SOL     OW 2297   3.164   2.717   0.309
  760SOL    HW1 2298   3.078   2.686   0.351
  760SOL    HW2 2299   3.160   2.703   0.210
  761SOL     OW 2300   2.765   1.948   0.133
  761SOL    HW1 2301   2.816   1.949   0.047
  761SOL    HW2 2302   2.821   1.906   0.204
  762SOL     OW 2303   2.125   2.188   0.720
  762SOL    HW1 2304   2.046   2.239   0.686
  762SOL    HW2 2305   2.116   2.173   0.818
  763SOL     OW 2306   2.778   2.772   0.291
  763SOL    HW1 2307   2.841   2.810   0.223
  763SOL    HW2 2308   2.818   2.689   0.330
  764SOL     OW 2309   2.876   2.098   0.971
  764SOL    HW1 2310   2.868   2.062   0.878
  764SOL    HW2 2311   2.874   2.022   1.036
  765SOL     OW 2312   1.967   2.875   1.726
  765SOL    HW1 2313   1.890   2.842   1.780
  765SOL    HW2 2314   2.052   2.845   1.768
  766SOL     OW 2315   2.534   2.065   1.489
  766SOL    HW1 2316   2.624   2.049   1.449
  766SOL    HW2 2317   2.542   2.070   1.588
  767SOL     OW 2318   1.937   2.207   0.033
  767SOL    HW1 2319   1.845   2.179   0.004
  767SOL    HW2 2320   1.968   2.284  -0.023
  768SOL     OW 2321   2.475   2.704   1.431
  768SOL    HW1 2322   2.531   2.785   1.414
  768SOL    HW2 2323   2.534   2.624   1.434
  769SOL     OW 2324   2.578   2.427   1.708
  769SOL    HW1 2325   2.597   2.492   1.782
  769SOL    HW2 2326   2.638   2.347   1.717
  770SOL     OW 2327   3.087   2.187   0.449
  770SOL    HW1 2328   3.152   2.113   0.438
  770SOL    HW2 2329   3.107   2.237   0.533
  771SOL     OW 2330   2.456   2.607   0.652
  771SOL    HW1 2331   2.506   2.692   0.633
  771SOL    HW2 2332   2.368   2.609   0.604
  772SOL     OW 2333   2.721   2.818   0.861
  772SOL    HW1 2334   2.775   2.749   0.909
  772SOL    HW2 2335   2.689   2.887   0.927
  773SOL     OW 2336   2.945   2.846   0.087
  773SOL    HW1 2337   2.922   2.899   0.005
  773SOL    HW2 2338   3.026   2.790   0.068
  774SOL     OW 2339   1.941   3.102   0.653
  774SOL    HW1 2340   1.940   3.055   0.741
  774SOL    HW2 2341   2.023   3.074   0.602
  775SOL     OW 2342   2.290   2.286   0.520
  775SOL    HW1 2343   2.320   2.214   0.458
  775SOL    HW2 2344   2.251   2.246   0.603
  776SOL     OW 2345   2.179   2.409   1.280
  776SOL    HW1 2346   2.217   2.350   1.352
  776SOL    HW2 2347   2.219   2.383   1.192
  777SOL     OW 2348   2.863   1.896   1.154
  777SOL    HW1 2349   2.800   1.824   1.123
  777SOL    HW2 2350   2.956   1.860   1.154
  778SOL     OW 2351   1.901   2.939   0.300
  778SOL    HW1 2352   2.000   2.928   0.291
  778SOL    HW2 2353   1.861   2.853   0.332
  779SOL     OW 2354   2.092   2.490   1.975
  779SOL    HW1 2355   1.999   2.488   2.012
  779SOL    HW2 2356   2.093   2.451   1.883
  780SOL     OW 2357   2.087   2.137   2.858
  780SOL    HW1 2358   2.122   2.120   2.950
  780SOL    HW2 2359   1.999   2.092   2.846
  781SOL     OW 2360   1.881   2.230   2.509
  781SOL    HW1 2361   1.799   2.273   2.548
  781SOL    HW2 2362   1.853   2.157   2.446
  782SOL     OW 2363   2.547   2.874   2.527
  782SOL    HW1 2364   2.616   2.858   2.597
  782SOL    HW2 2365   2.474   2.931   2.565
  783SOL     OW 2366   2.102   2.953   2.748
  783SOL    HW1 2367   2.116   2.869   2.800
  783SOL    HW2 2368   2.047   3.017   2.803
  784SOL     OW 2369   1.984   2.505   2.425
  784SOL    HW1 2370   1.939   2.417   2.442
  784SOL    HW2 2371   1.983   2.559   2.509
  785SOL     OW 2372   2.671   1.866   2.364
  785SOL    HW1 2373   2.711   1.957   2.355
  785SOL    HW2 2374   2.571   1.874   2.370
  786SOL     OW 2375   2.460   2.591   2.132
  786SOL    HW1 2376   2.484   2.660   2.064
  786SOL    HW2 2377   2.382   2.624   2.186
  787SOL     OW 2378   1.938   2.673   2.651
  787SOL    HW1 2379   2.037   2.661   2.660
  787SOL    HW2 2380   1.914   2.768   2.672
  788SOL     OW 2381   2.727   2.210   2.057
  788SOL    HW1 2382   2.786   2.273   2.008
  788SOL    HW2 2383   2.746   2.116   2.028
  789SOL     OW 2384   2.412   2.058   2.747
  789SOL    HW1 2385   2.407   2.053   2.847
  789SOL    HW2 2386   2.414   2.154   2.718
  790SOL     OW 2387   2.244   2.562   2.342
  790SOL    HW1 2388   2.289   2.472   2.339
  790SOL    HW2 2389   2.150   2.551   2.375
  791SOL     OW 2390   2.476   1.984   1.979
  791SOL    HW1 2391   2.574   1.962   1.986
  791SOL    HW2 2392   2.445   1.967   1.886
  792SOL     OW 2393   2.784   2.365   2.761
  792SOL    HW1 2394   2.759   2.356   2.665
  792SOL    HW2 2395   2.832   2.283   2.792
  793SOL     OW 2396   2.401   1.926   2.374
  793SOL    HW1 2397   2.320   1.927   2.432
  793SOL    HW2 2398   2.404   2.009   2.319
  794SOL     OW 2399   2.159   1.897   2.033
  794SOL    HW1 2400   2.208   1.981   2.012
  794SOL    HW2 2401   2.221   1.832   2.078
  795SOL     OW 2402   2.797   2.098   2.342
  795SOL    HW1 2403   2.749   2.139   2.264
  795SOL    HW2 2404   2.896   2.096   2.323
  796SOL     OW 2405   2.879   1.901   2.615
  796SOL    HW1 2406   2.807   1.906   2.546
  796SOL    HW2 2407   2.855   1.832   2.684
  797SOL     OW 2408   2.389   2.118   2.190
  797SOL    HW1 2409   2.416   2.059   2.115
  797SOL    HW2 2410   2.389   2.213   2.159
  798SOL     OW 2411   2.973   3.057   2.962
  798SOL    HW1 2412   2.933   3.101   3.043
  798SOL    HW2 2413   2.932   3.094   2.879
  799SOL     OW 2414   2.428   2.399   2.727
  799SOL    HW1 2415   2.440   2.465   2.653
  799SOL    HW2 2416   2.474   2.433   2.810
  800SOL     OW 2417   2.435   2.732   2.891
  800SOL    HW1 2418   2.479   2.821   2.882
  800SOL    HW2 2419   2.372   2.732   2.968
  801SOL     OW 2420   3.071   2.387   2.137
  801SOL    HW1 2421   3.084   2.303   2.191
  801SOL    HW2 2422   3.042   2.461   2.197
  802SOL     OW 2423   2.169   2.075   3.093
  802SOL    HW1 2424   2.146   2.112   3.183
  802SOL    HW2 2425   2.139   1.980   3.087
  803SOL     OW 2426   2.594   2.496   2.926
  803SOL    HW1 2427   2.653   2.470   2.850
  803SOL    HW2 2428   2.566   2.592   2.915
  804SOL     OW 2429   2.169   1.925   2.480
  804SOL    HW1 2430   2.158   2.019   2.513
  804SOL    HW2 2431   2.164   1.862   2.557
  805SOL     OW 2432   2.885   2.628   2.828
  805SOL    HW1 2433   2.900   2.649   2.924
  805SOL    HW2 2434   2.855   2.533   2.819
  806SOL     OW 2435   2.181   2.672   2.811
  806SOL    HW1 2436   2.274   2.708   2.816
  806SOL    HW2 2437   2.175   2.587   2.863
  807SOL     OW 2438   2.201   2.371   2.868
  807SOL    HW1 2439   2.149   2.288   2.851
  807SOL    HW2 2440   2.278   2.376   2.804
  808SOL     OW 2441   2.677   2.434   2.187
  808SOL    HW1 2442   2.684   2.345   2.141
  808SOL    HW2 2443   2.583   2.468   2.179
  809SOL     OW 2444   2.533   2.326   3.131
  809SOL    HW1 2445   2.499   2.237   3.101
  809SOL    HW2 2446   2.559   2.380   3.051
  810SOL     OW 2447   2.335   2.362   2.053
  810SOL    HW1 2448   2.396   2.442   2.057
  810SOL    HW2 2449   2.240   2.393   2.060
  811SOL     OW 2450   3.164   2.717   2.171
  811SOL    HW1 2451   3.078   2.686   2.213
  811SOL    HW2 2452   3.160   2.703   2.072
  812SOL     OW 2453   2.125   2.188   2.582
  812SOL    HW1 2454   2.046   2.239   2.548
  812SOL    HW2 2455   2.116   2.173   2.680
  813SOL     OW 2456   2.778   2.772   2.153
  813SOL    HW1 2457   2.841   2.810   2.085
  813SOL    HW2 2458   2.818   2.689   2.192
  814SOL     OW 2459   1.937   2.207   1.895
  814SOL    HW1 2460   1.845   2.179   1.866
  814SOL    HW2 2461   1.968   2.284   1.839
  815SOL     OW 2462   1.934   2.028   2.180
  815SOL    HW1 2463   1.917   2.111   2.126
  815SOL    HW2 2464   2.024   1.991   2.158
  816SOL     OW 2465   3.087   2.187   2.311
  816SOL    HW1 2466   3.152   2.113   2.300
  816SOL    HW2 2467   3.107   2.237   2.395
  817SOL     OW 2468   2.456   2.607   2.514
  817SOL    HW1 2469   2.506   2.692   2.495
  817SOL    HW2 2470   2.368   2.609   2.466
  818SOL     OW 2471   2.721   2.818   2.723
  818SOL    HW1 2472   2.775   2.749   2.771
  818SOL    HW2 2473   2.689   2.887   2.789
  819SOL     OW 2474   1.941   3.102   2.515
  819SOL    HW1 2475   1.940   3.055   2.603
  819SOL    HW2 2476   2.023   3.074   2.464
  820SOL     OW 2477   2.290   2.286   2.382
  820SOL    HW1 2478   2.320   2.214   2.320
  820SOL    HW2 2479   2.251   2.246   2.465
   2.92984   2.92984   2.92984
