; mobley_8899867_GMX.itp created by acpype (v: 2023.10.27) on Thu May 14 14:01:27 2026

[ atomtypes ]
;name   bond_type     mass     charge   ptype   sigma         epsilon       Amb
 c5       c5          0.00000  0.00000   A     3.39771e-01   4.51035e-01 ; 1.91  0.1078
 oh       oh          0.00000  0.00000   A     3.24287e-01   3.89112e-01 ; 1.82  0.0930
 hc       hc          0.00000  0.00000   A     2.60018e-01   8.70272e-02 ; 1.46  0.0208
 h1       h1          0.00000  0.00000   A     2.42200e-01   8.70272e-02 ; 1.36  0.0208
 ho       ho          0.00000  0.00000   A     5.37925e-02   1.96648e-02 ; 0.30  0.0047

[ moleculetype ]
;name            nrexcl
 mobley_8899867   3

[ atoms ]
;   nr  type  resi  res  atom  cgnr     charge      mass       ; qtot   bond_type
     1   c5     1   MOL    C1    1    -0.076900     12.01000 ; qtot -0.077
     2   c5     1   MOL    C2    2    -0.076900     12.01000 ; qtot -0.154
     3   c5     1   MOL    C3    3    -0.097400     12.01000 ; qtot -0.251
     4   c5     1   MOL    C4    4    -0.097400     12.01000 ; qtot -0.349
     5   c5     1   MOL    C5    5     0.140100     12.01000 ; qtot -0.208
     6   oh     1   MOL    O1    6    -0.600800     16.00000 ; qtot -0.809
     7   hc     1   MOL    H1    7     0.042450      1.00800 ; qtot -0.767
     8   hc     1   MOL    H2    8     0.042450      1.00800 ; qtot -0.724
     9   hc     1   MOL    H3    9     0.042450      1.00800 ; qtot -0.682
    10   hc     1   MOL    H4   10     0.042450      1.00800 ; qtot -0.639
    11   hc     1   MOL    H5   11     0.052200      1.00800 ; qtot -0.587
    12   hc     1   MOL    H6   12     0.052200      1.00800 ; qtot -0.535
    13   hc     1   MOL    H7   13     0.052200      1.00800 ; qtot -0.483
    14   hc     1   MOL    H8   14     0.052200      1.00800 ; qtot -0.431
    15   h1     1   MOL    H9   15     0.032700      1.00800 ; qtot -0.398
    16   ho     1   MOL   H10   16     0.398000      1.00800 ; qtot 0.000

[ bonds ]
;   ai     aj funct   r             k
     1      2   1    1.5483e-01    1.8418e+05 ;     C1 - C2    
     1      3   1    1.5483e-01    1.8418e+05 ;     C1 - C3    
     1      7   1    1.0954e-01    2.8989e+05 ;     C1 - H1    
     1      8   1    1.0954e-01    2.8989e+05 ;     C1 - H2    
     2      4   1    1.5483e-01    1.8418e+05 ;     C2 - C4    
     2      9   1    1.0954e-01    2.8989e+05 ;     C2 - H3    
     2     10   1    1.0954e-01    2.8989e+05 ;     C2 - H4    
     3      5   1    1.5483e-01    1.8418e+05 ;     C3 - C5    
     3     11   1    1.0954e-01    2.8989e+05 ;     C3 - H5    
     3     12   1    1.0954e-01    2.8989e+05 ;     C3 - H6    
     4      5   1    1.5483e-01    1.8418e+05 ;     C4 - C5    
     4     13   1    1.0954e-01    2.8989e+05 ;     C4 - H7    
     4     14   1    1.0954e-01    2.8989e+05 ;     C4 - H8    
     5      6   1    1.4194e-01    2.4241e+05 ;     C5 - O1    
     5     15   1    1.0972e-01    2.8768e+05 ;     C5 - H9    
     6     16   1    9.7250e-02    4.4811e+05 ;     O1 - H10   

[ pairs ]
;   ai     aj    funct
     1      6      1 ;     C1 - O1    
     1     13      1 ;     C1 - H7    
     1     14      1 ;     C1 - H8    
     1     15      1 ;     C1 - H9    
     2      6      1 ;     C2 - O1    
     2     11      1 ;     C2 - H5    
     2     12      1 ;     C2 - H6    
     2     15      1 ;     C2 - H9    
     3      9      1 ;     C3 - H3    
     3     10      1 ;     C3 - H4    
     3     13      1 ;     C3 - H7    
     3     14      1 ;     C3 - H8    
     3     16      1 ;     C3 - H10   
     4     11      1 ;     C4 - H5    
     4     12      1 ;     C4 - H6    
     4     16      1 ;     C4 - H10   
     5      9      1 ;     C5 - H3    
     5     10      1 ;     C5 - H4    
     6     11      1 ;     O1 - H5    
     6     12      1 ;     O1 - H6    
     6     13      1 ;     O1 - H7    
     6     14      1 ;     O1 - H8    
     7      4      1 ;     H1 - C4    
     7      5      1 ;     H1 - C5    
     7      9      1 ;     H1 - H3    
     7     10      1 ;     H1 - H4    
     7     11      1 ;     H1 - H5    
     7     12      1 ;     H1 - H6    
     8      4      1 ;     H2 - C4    
     8      5      1 ;     H2 - C5    
     8      9      1 ;     H2 - H3    
     8     10      1 ;     H2 - H4    
     8     11      1 ;     H2 - H5    
     8     12      1 ;     H2 - H6    
     9     13      1 ;     H3 - H7    
     9     14      1 ;     H3 - H8    
    10     13      1 ;     H4 - H7    
    10     14      1 ;     H4 - H8    
    11     15      1 ;     H5 - H9    
    12     15      1 ;     H6 - H9    
    13     15      1 ;     H7 - H9    
    14     15      1 ;     H8 - H9    
    15     16      1 ;     H9 - H10   

[ angles ]
;   ai     aj     ak    funct   theta         cth
     1      2      4      1    1.0383e+02    5.1748e+02 ;     C1 - C2     - C4    
     1      2      9      1    1.1117e+02    3.5690e+02 ;     C1 - C2     - H3    
     1      2     10      1    1.1117e+02    3.5690e+02 ;     C1 - C2     - H4    
     1      3      5      1    1.0383e+02    5.1748e+02 ;     C1 - C3     - C5    
     1      3     11      1    1.1117e+02    3.5690e+02 ;     C1 - C3     - H5    
     1      3     12      1    1.1117e+02    3.5690e+02 ;     C1 - C3     - H6    
     2      1      3      1    1.0383e+02    5.1748e+02 ;     C2 - C1     - C3    
     2      1      7      1    1.1117e+02    3.5690e+02 ;     C2 - C1     - H1    
     2      1      8      1    1.1117e+02    3.5690e+02 ;     C2 - C1     - H2    
     2      4      5      1    1.0383e+02    5.1748e+02 ;     C2 - C4     - C5    
     2      4     13      1    1.1117e+02    3.5690e+02 ;     C2 - C4     - H7    
     2      4     14      1    1.1117e+02    3.5690e+02 ;     C2 - C4     - H8    
     3      1      7      1    1.1117e+02    3.5690e+02 ;     C3 - C1     - H1    
     3      1      8      1    1.1117e+02    3.5690e+02 ;     C3 - C1     - H2    
     3      5      4      1    1.0383e+02    5.1748e+02 ;     C3 - C5     - C4    
     3      5      6      1    1.1162e+02    6.3455e+02 ;     C3 - C5     - O1    
     3      5     15      1    1.1117e+02    3.5690e+02 ;     C3 - C5     - H9    
     4      2      9      1    1.1117e+02    3.5690e+02 ;     C4 - C2     - H3    
     4      2     10      1    1.1117e+02    3.5690e+02 ;     C4 - C2     - H4    
     4      5      6      1    1.1162e+02    6.3455e+02 ;     C4 - C5     - O1    
     4      5     15      1    1.1117e+02    3.5690e+02 ;     C4 - C5     - H9    
     5      3     11      1    1.1117e+02    3.5690e+02 ;     C5 - C3     - H5    
     5      3     12      1    1.1117e+02    3.5690e+02 ;     C5 - C3     - H6    
     5      4     13      1    1.1117e+02    3.5690e+02 ;     C5 - C4     - H7    
     5      4     14      1    1.1117e+02    3.5690e+02 ;     C5 - C4     - H8    
     5      6     16      1    1.0717e+02    5.4727e+02 ;     C5 - O1     - H10   
     6      5     15      1    1.1027e+02    4.7254e+02 ;     O1 - C5     - H9    
     7      1      8      1    1.0722e+02    3.0049e+02 ;     H1 - C1     - H2    
     9      2     10      1    1.0722e+02    3.0049e+02 ;     H3 - C2     - H4    
    11      3     12      1    1.0722e+02    3.0049e+02 ;     H5 - C3     - H6    
    13      4     14      1    1.0722e+02    3.0049e+02 ;     H7 - C4     - H8    

[ dihedrals ] ; propers
; for gromacs 4.5 or higher, using funct 9
;    i      j      k      l   func   phase     kd      pn
     1      2      4      5      9     0.00   2.17568   3 ;     C1-    C2-    C4-    C5
     1      2      4     13      9     0.00   0.54392   3 ;     C1-    C2-    C4-    H7
     1      2      4     14      9     0.00   0.54392   3 ;     C1-    C2-    C4-    H8
     1      3      5      4      9     0.00   2.17568   3 ;     C1-    C3-    C5-    C4
     1      3      5      6      9     0.00   0.75312   3 ;     C1-    C3-    C5-    O1
     1      3      5     15      9     0.00   0.65084   3 ;     C1-    C3-    C5-    H9
     2      1      3      5      9     0.00   2.17568   3 ;     C2-    C1-    C3-    C5
     2      1      3     11      9     0.00   0.54392   3 ;     C2-    C1-    C3-    H5
     2      1      3     12      9     0.00   0.54392   3 ;     C2-    C1-    C3-    H6
     2      4      5      3      9     0.00   2.17568   3 ;     C2-    C4-    C5-    C3
     2      4      5      6      9     0.00   0.75312   3 ;     C2-    C4-    C5-    O1
     2      4      5     15      9     0.00   0.65084   3 ;     C2-    C4-    C5-    H9
     3      1      2      4      9     0.00   2.17568   3 ;     C3-    C1-    C2-    C4
     3      1      2      9      9     0.00   0.54392   3 ;     C3-    C1-    C2-    H3
     3      1      2     10      9     0.00   0.54392   3 ;     C3-    C1-    C2-    H4
     3      5      4     13      9     0.00   0.54392   3 ;     C3-    C5-    C4-    H7
     3      5      4     14      9     0.00   0.54392   3 ;     C3-    C5-    C4-    H8
     3      5      6     16      9     0.00   0.25104   3 ;     C3-    C5-    O1-   H10
     4      5      3     11      9     0.00   0.54392   3 ;     C4-    C5-    C3-    H5
     4      5      3     12      9     0.00   0.54392   3 ;     C4-    C5-    C3-    H6
     4      5      6     16      9     0.00   0.25104   3 ;     C4-    C5-    O1-   H10
     5      4      2      9      9     0.00   0.54392   3 ;     C5-    C4-    C2-    H3
     5      4      2     10      9     0.00   0.54392   3 ;     C5-    C4-    C2-    H4
     6      5      3     11      9     0.00   0.37656   3 ;     O1-    C5-    C3-    H5
     6      5      3     12      9     0.00   0.37656   3 ;     O1-    C5-    C3-    H6
     6      5      4     13      9     0.00   0.37656   3 ;     O1-    C5-    C4-    H7
     6      5      4     14      9     0.00   0.37656   3 ;     O1-    C5-    C4-    H8
     7      1      2      4      9     0.00   0.54392   3 ;     H1-    C1-    C2-    C4
     7      1      2      9      9     0.00   0.50208   3 ;     H1-    C1-    C2-    H3
     7      1      2     10      9     0.00   0.50208   3 ;     H1-    C1-    C2-    H4
     7      1      3      5      9     0.00   0.54392   3 ;     H1-    C1-    C3-    C5
     7      1      3     11      9     0.00   0.50208   3 ;     H1-    C1-    C3-    H5
     7      1      3     12      9     0.00   0.50208   3 ;     H1-    C1-    C3-    H6
     8      1      2      4      9     0.00   0.54392   3 ;     H2-    C1-    C2-    C4
     8      1      2      9      9     0.00   0.50208   3 ;     H2-    C1-    C2-    H3
     8      1      2     10      9     0.00   0.50208   3 ;     H2-    C1-    C2-    H4
     8      1      3      5      9     0.00   0.54392   3 ;     H2-    C1-    C3-    C5
     8      1      3     11      9     0.00   0.50208   3 ;     H2-    C1-    C3-    H5
     8      1      3     12      9     0.00   0.50208   3 ;     H2-    C1-    C3-    H6
     9      2      4     13      9     0.00   0.50208   3 ;     H3-    C2-    C4-    H7
     9      2      4     14      9     0.00   0.50208   3 ;     H3-    C2-    C4-    H8
    10      2      4     13      9     0.00   0.50208   3 ;     H4-    C2-    C4-    H7
    10      2      4     14      9     0.00   0.50208   3 ;     H4-    C2-    C4-    H8
    11      3      5     15      9     0.00   0.65084   3 ;     H5-    C3-    C5-    H9
    12      3      5     15      9     0.00   0.65084   3 ;     H6-    C3-    C5-    H9
    13      4      5     15      9     0.00   0.65084   3 ;     H7-    C4-    C5-    H9
    14      4      5     15      9     0.00   0.65084   3 ;     H8-    C4-    C5-    H9
    15      5      6     16      9     0.00   0.51463   3 ;     H9-    C5-    O1-   H10
