mobley_1636752_GMX.gro created by acpype (v: 2023.10.27) on Thu May 14 13:16:56 2026
 1143
    1MOL     C1    1   1.149   1.113   1.164
    1MOL     O1    2   1.090   1.236   1.128
    1MOL     H1    3   1.258   1.124   1.167
    1MOL     H2    4   1.121   1.036   1.092
    1MOL     H3    5   1.114   1.084   1.264
    1MOL     H4    6   1.123   1.259   1.040
    2SOL     OW    7   0.230   0.628   0.113
    2SOL    HW1    8   0.137   0.626   0.150
    2SOL    HW2    9   0.231   0.589   0.021
    3SOL     OW   10   0.225   0.275   0.996
    3SOL    HW1   11   0.260   0.258   1.088
    3SOL    HW2   12   0.137   0.230   0.984
    4SOL     OW   13   0.019   0.368   0.647
    4SOL    HW1   14  -0.063   0.411   0.686
    4SOL    HW2   15  -0.009   0.295   0.584
    5SOL     OW   16   0.569   1.275   1.165
    5SOL    HW1   17   0.476   1.268   1.128
    5SOL    HW2   18   0.580   1.364   1.209
    6SOL     OW   19   1.555   1.511   0.703
    6SOL    HW1   20   1.498   1.495   0.784
    6SOL    HW2   21   1.496   1.521   0.623
    7SOL     OW   22   1.135   0.703   0.717
    7SOL    HW1   23   1.192   0.781   0.692
    7SOL    HW2   24   1.075   0.729   0.793
    8SOL     OW   25   1.755   0.607   0.231
    8SOL    HW1   26   1.743   0.594   0.132
    8SOL    HW2   27   1.725   0.526   0.280
    9SOL     OW   28   0.768   1.144   1.023
    9SOL    HW1   29   0.690   1.161   1.083
    9SOL    HW2   30   0.802   1.231   0.987
   10SOL     OW   31   0.850   0.798   1.823
   10SOL    HW1   32   0.846   0.874   1.888
   10SOL    HW2   33   0.872   0.834   1.732
   11SOL     OW   34   0.685   1.012   0.665
   11SOL    HW1   35   0.754   0.996   0.735
   11SOL    HW2   36   0.612   1.069   0.703
   12SOL     OW   37   0.686   1.161   1.803
   12SOL    HW1   38   0.746   1.240   1.817
   12SOL    HW2   39   0.600   1.192   1.762
   13SOL     OW   40   0.335   1.435   1.061
   13SOL    HW1   41   0.257   1.404   1.008
   13SOL    HW2   42   0.393   1.493   1.004
   14SOL     OW   43   1.460   1.505   1.339
   14SOL    HW1   44   1.484   1.599   1.365
   14SOL    HW2   45   1.444   1.451   1.421
   15SOL     OW   46   0.438   0.392   1.499
   15SOL    HW1   47   0.520   0.336   1.508
   15SOL    HW2   48   0.357   0.334   1.503
   16SOL     OW   49   1.603   0.447   0.737
   16SOL    HW1   50   1.529   0.493   0.687
   16SOL    HW2   51   1.654   0.515   0.790
   17SOL     OW   52   0.231   1.713   0.483
   17SOL    HW1   53   0.265   1.790   0.537
   17SOL    HW2   54   0.275   1.713   0.393
   18SOL     OW   55   1.127   1.341   1.690
   18SOL    HW1   56   1.174   1.341   1.778
   18SOL    HW2   57   1.079   1.254   1.679
   19SOL     OW   58   0.230   1.434   0.538
   19SOL    HW1   59   0.204   1.530   0.538
   19SOL    HW2   60   0.159   1.380   0.583
   20SOL     OW   61   0.240   1.091   0.886
   20SOL    HW1   62   0.254   1.007   0.938
   20SOL    HW2   63   0.185   1.155   0.941
   21SOL     OW   64   0.620   1.786   1.439
   21SOL    HW1   65   0.528   1.769   1.474
   21SOL    HW2   66   0.648   1.878   1.465
   22SOL     OW   67   0.606   0.964   0.123
   22SOL    HW1   68   0.613   1.048   0.069
   22SOL    HW2   69   0.652   0.977   0.211
   23SOL     OW   70   1.594   0.114   1.480
   23SOL    HW1   71   1.576   0.181   1.408
   23SOL    HW2   72   1.591   0.160   1.569
   24SOL     OW   73   0.122   0.643   0.563
   24SOL    HW1   74   0.077   0.555   0.580
   24SOL    HW2   75   0.121   0.697   0.647
   25SOL     OW   76   1.842   1.767   0.359
   25SOL    HW1   77   1.896   1.738   0.439
   25SOL    HW2   78   1.872   1.857   0.330
   26SOL     OW   79   0.027   1.596   0.117
   26SOL    HW1   80   0.008   1.500   0.138
   26SOL    HW2   81  -0.006   1.654   0.192
   27SOL     OW   82   1.689   0.922   0.612
   27SOL    HW1   83   1.784   0.893   0.620
   27SOL    HW2   84   1.681   0.987   0.537
   28SOL     OW   85   1.641   1.108   0.432
   28SOL    HW1   86   1.727   1.110   0.380
   28SOL    HW2   87   1.655   1.155   0.520
   29SOL     OW   88   0.113   0.737   1.597
   29SOL    HW1   89   0.201   0.724   1.642
   29SOL    HW2   90   0.100   0.834   1.575
   30SOL     OW   91   0.613   1.365   0.726
   30SOL    HW1   92   0.564   1.278   0.735
   30SOL    HW2   93   0.590   1.408   0.639
   31SOL     OW   94   1.293   1.228   1.423
   31SOL    HW1   95   1.330   1.155   1.365
   31SOL    HW2   96   1.345   1.233   1.508
   32SOL     OW   97   0.809   0.004   0.502
   32SOL    HW1   98   0.849   0.095   0.493
   32SOL    HW2   99   0.709   0.012   0.508
   33SOL     OW  100   0.197   0.976   1.264
   33SOL    HW1  101   0.286   0.931   1.250
   33SOL    HW2  102   0.124   0.911   1.245
   34SOL     OW  103   1.525   0.999   0.190
   34SOL    HW1  104   1.462   0.923   0.203
   34SOL    HW2  105   1.573   1.017   0.276
   35SOL     OW  106   1.187   1.792   1.616
   35SOL    HW1  107   1.211   1.852   1.540
   35SOL    HW2  108   1.194   1.697   1.586
   36SOL     OW  109   0.317   0.251   1.801
   36SOL    HW1  110   0.388   0.322   1.807
   36SOL    HW2  111   0.229   0.290   1.829
   37SOL     OW  112   1.466   1.417   0.953
   37SOL    HW1  113   1.407   1.423   1.033
   37SOL    HW2  114   1.451   1.329   0.907
   38SOL     OW  115   1.667   1.714   0.572
   38SOL    HW1  116   1.626   1.691   0.484
   38SOL    HW2  117   1.649   1.640   0.637
   39SOL     OW  118   0.598   0.729   0.270
   39SOL    HW1  119   0.622   0.798   0.202
   39SOL    HW2  120   0.520   0.762   0.324
   40SOL     OW  121   1.281   0.345   0.944
   40SOL    HW1  122   1.195   0.295   0.931
   40SOL    HW2  123   1.343   0.291   1.000
   41SOL     OW  124   1.576   1.662   0.307
   41SOL    HW1  125   1.665   1.708   0.310
   41SOL    HW2  126   1.555   1.638   0.212
   42SOL     OW  127   0.807   0.605   1.465
   42SOL    HW1  128   0.760   0.602   1.554
   42SOL    HW2  129   0.756   0.550   1.399
   43SOL     OW  130   1.394   0.469   1.674
   43SOL    HW1  131   1.374   0.512   1.762
   43SOL    HW2  132   1.472   0.407   1.683
   44SOL     OW  133   0.973   0.890   1.572
   44SOL    HW1  134   1.019   0.806   1.543
   44SOL    HW2  135   0.917   0.924   1.497
   45SOL     OW  136   0.991   0.410   1.242
   45SOL    HW1  137   0.914   0.444   1.296
   45SOL    HW2  138   0.957   0.359   1.163
   46SOL     OW  139   1.041   0.701   0.429
   46SOL    HW1  140   1.067   0.697   0.525
   46SOL    HW2  141   0.956   0.650   0.415
   47SOL     OW  142   0.076   0.811   0.789
   47SOL    HW1  143   0.175   0.799   0.798
   47SOL    HW2  144   0.052   0.906   0.810
   48SOL     OW  145   0.130   1.821   1.571
   48SOL    HW1  146   0.120   1.806   1.670
   48SOL    HW2  147   0.044   1.857   1.535
   49SOL     OW  148   0.865   0.348   0.195
   49SOL    HW1  149   0.924   0.411   0.146
   49SOL    HW2  150   0.884   0.254   0.166
   50SOL     OW  151   1.719   0.585   1.831
   50SOL    HW1  152   1.693   0.674   1.795
   50SOL    HW2  153   1.717   0.517   1.758
   51SOL     OW  154   1.362   1.144   0.545
   51SOL    HW1  155   1.445   1.115   0.497
   51SOL    HW2  156   1.313   1.211   0.489
   52SOL     OW  157   0.550   0.196   0.885
   52SOL    HW1  158   0.545   0.191   0.985
   52SOL    HW2  159   0.552   0.292   0.856
   53SOL     OW  160   1.008   1.456   0.477
   53SOL    HW1  161   0.962   1.528   0.425
   53SOL    HW2  162   1.004   1.476   0.575
   54SOL     OW  163   0.351   1.801   0.853
   54SOL    HW1  164   0.401   1.715   0.859
   54SOL    HW2  165   0.416   1.878   0.850
   55SOL     OW  166   1.795   1.066   0.873
   55SOL    HW1  167   1.733   1.051   0.797
   55SOL    HW2  168   1.743   1.077   0.958
   56SOL     OW  169   1.227   1.550   1.506
   56SOL    HW1  170   1.233   1.473   1.570
   56SOL    HW2  171   1.175   1.524   1.426
   57SOL     OW  172   0.321   0.943   0.242
   57SOL    HW1  173   0.403   0.982   0.200
   57SOL    HW2  174   0.294   0.861   0.193
   58SOL     OW  175   1.458   0.735   0.728
   58SOL    HW1  176   1.453   0.670   0.803
   58SOL    HW2  177   1.538   0.794   0.741
   59SOL     OW  178   0.461   1.266   1.727
   59SOL    HW1  179   0.411   1.267   1.641
   59SOL    HW2  180   0.398   1.248   1.803
   60SOL     OW  181   1.111   1.776   0.237
   60SOL    HW1  182   1.051   1.714   0.287
   60SOL    HW2  183   1.142   1.732   0.152
   61SOL     OW  184   0.202   0.285   1.498
   61SOL    HW1  185   0.122   0.345   1.485
   61SOL    HW2  186   0.192   0.236   1.584
   62SOL     OW  187   1.632   1.377   0.081
   62SOL    HW1  188   1.600   1.471   0.071
   62SOL    HW2  189   1.556   1.314   0.069
   63SOL     OW  190   0.464   1.743   0.323
   63SOL    HW1  191   0.497   1.782   0.409
   63SOL    HW2  192   0.540   1.736   0.258
   64SOL     OW  193   1.400   0.107   0.426
   64SOL    HW1  194   1.376   0.070   0.336
   64SOL    HW2  195   1.499   0.123   0.430
   65SOL     OW  196   0.249   1.785   1.241
   65SOL    HW1  197   0.306   1.720   1.291
   65SOL    HW2  198   0.233   1.752   1.148
   66SOL     OW  199   0.940   1.698   0.904
   66SOL    HW1  200   1.020   1.641   0.925
   66SOL    HW2  201   0.891   1.658   0.827
   67SOL     OW  202   0.382   0.700   0.480
   67SOL    HW1  203   0.427   0.610   0.477
   67SOL    HW2  204   0.288   0.689   0.513
   68SOL     OW  205   1.547   0.222   1.729
   68SOL    HW1  206   1.542   0.259   1.821
   68SOL    HW2  207   1.475   0.153   1.717
   69SOL     OW  208   0.614   0.122   0.117
   69SOL    HW1  209   0.712   0.100   0.124
   69SOL    HW2  210   0.583   0.105   0.024
   70SOL     OW  211   0.781   0.264   1.749
   70SOL    HW1  212   0.848   0.203   1.792
   70SOL    HW2  213   0.708   0.283   1.814
   71SOL     OW  214   0.888   1.514   1.195
   71SOL    HW1  215   0.865   1.489   1.101
   71SOL    HW2  216   0.949   1.445   1.234
   72SOL     OW  217   1.351   0.590   1.433
   72SOL    HW1  218   1.379   0.547   1.518
   72SOL    HW2  219   1.376   0.686   1.434
   73SOL     OW  220   0.803   1.402   0.924
   73SOL    HW1  221   0.893   1.416   0.882
   73SOL    HW2  222   0.732   1.404   0.853
   74SOL     OW  223   0.922   0.503   0.899
   74SOL    HW1  224   0.897   0.494   0.803
   74SOL    HW2  225   0.970   0.421   0.930
   75SOL     OW  226   0.539   0.064   0.512
   75SOL    HW1  227   0.458   0.065   0.570
   75SOL    HW2  228   0.542   0.147   0.457
   76SOL     OW  229   1.434   1.188   0.041
   76SOL    HW1  230   1.466   1.112   0.098
   76SOL    HW2  231   1.342   1.215   0.071
   77SOL     OW  232   0.297   0.035   0.171
   77SOL    HW1  233   0.346   0.119   0.150
   77SOL    HW2  234   0.359  -0.030   0.216
   78SOL     OW  235   0.935   0.236   0.480
   78SOL    HW1  236   0.887   0.277   0.402
   78SOL    HW2  237   1.034   0.234   0.461
   79SOL     OW  238   1.076   0.683   1.464
   79SOL    HW1  239   0.996   0.622   1.467
   79SOL    HW2  240   1.157   0.630   1.440
   80SOL     OW  241   1.227   1.570   0.793
   80SOL    HW1  242   1.248   1.644   0.728
   80SOL    HW2  243   1.295   1.570   0.866
   81SOL     OW  244   0.459   1.152   0.741
   81SOL    HW1  245   0.388   1.125   0.806
   81SOL    HW2  246   0.433   1.124   0.648
   82SOL     OW  247   1.271   1.797   0.591
   82SOL    HW1  248   1.315   1.861   0.527
   82SOL    HW2  249   1.221   1.849   0.661
   83SOL     OW  250   1.032   0.549   0.016
   83SOL    HW1  251   0.991   0.631  -0.023
   83SOL    HW2  252   1.096   0.575   0.089
   84SOL     OW  253   0.078   0.556   1.386
   84SOL    HW1  254   0.170   0.555   1.345
   84SOL    HW2  255   0.072   0.630   1.453
   85SOL     OW  256   0.561   0.222   1.147
   85SOL    HW1  257   0.599   0.138   1.184
   85SOL    HW2  258   0.473   0.241   1.191
   86SOL     OW  259   0.866   0.454   0.642
   86SOL    HW1  260   0.834   0.526   0.580
   86SOL    HW2  261   0.890   0.373   0.589
   87SOL     OW  262   1.017   0.039   0.753
   87SOL    HW1  263   0.945   0.044   0.684
   87SOL    HW2  264   0.993  -0.030   0.822
   88SOL     OW  265   1.429   1.173   0.867
   88SOL    HW1  266   1.374   1.089   0.860
   88SOL    HW2  267   1.455   1.202   0.775
   89SOL     OW  268   1.466   0.590   0.992
   89SOL    HW1  269   1.436   0.495   0.999
   89SOL    HW2  270   1.539   0.606   1.058
   90SOL     OW  271   1.857   0.833   0.377
   90SOL    HW1  272   1.899   0.769   0.441
   90SOL    HW2  273   1.819   0.782   0.299
   91SOL     OW  274   0.488   1.385   0.174
   91SOL    HW1  275   0.401   1.370   0.221
   91SOL    HW2  276   0.471   1.411   0.079
   92SOL     OW  277   1.664   1.280   0.657
   92SOL    HW1  278   1.763   1.288   0.671
   92SOL    HW2  279   1.619   1.364   0.688
   93SOL     OW  280   1.390   0.575   0.078
   93SOL    HW1  281   1.336   0.554   0.159
   93SOL    HW2  282   1.481   0.534   0.087
   94SOL     OW  283   0.527   0.256   0.328
   94SOL    HW1  284   0.554   0.197   0.253
   94SOL    HW2  285   0.527   0.351   0.297
   95SOL     OW  286   1.754   1.223   1.588
   95SOL    HW1  287   1.845   1.184   1.575
   95SOL    HW2  288   1.762   1.319   1.612
   96SOL     OW  289   1.064   1.347   1.340
   96SOL    HW1  290   0.984   1.324   1.395
   96SOL    HW2  291   1.147   1.321   1.389
   97SOL     OW  292   1.592   1.629   1.625
   97SOL    HW1  293   1.619   1.663   1.535
   97SOL    HW2  294   1.671   1.591   1.671
   98SOL     OW  295   1.638   1.099   1.079
   98SOL    HW1  296   1.643   1.180   1.138
   98SOL    HW2  297   1.552   1.101   1.028
   99SOL     OW  298   0.915   0.089   1.402
   99SOL    HW1  299   0.940   0.069   1.307
   99SOL    HW2  300   0.987   0.145   1.444
  100SOL     OW  301   0.980   1.116   1.719
  100SOL    HW1  302   0.881   1.122   1.729
  100SOL    HW2  303   1.003   1.036   1.663
  101SOL     OW  304   0.705   1.050   0.368
  101SOL    HW1  305   0.691   1.057   0.467
  101SOL    HW2  306   0.789   0.999   0.350
  102SOL     OW  307   0.410   0.813   1.251
  102SOL    HW1  308   0.496   0.825   1.301
  102SOL    HW2  309   0.368   0.726   1.278
  103SOL     OW  310   1.274   0.386   1.262
  103SOL    HW1  311   1.295   0.460   1.326
  103SOL    HW2  312   1.185   0.403   1.219
  104SOL     OW  313   0.064   1.564   1.331
  104SOL    HW1  314   0.018   1.646   1.297
  104SOL    HW2  315   0.162   1.583   1.340
  105SOL     OW  316   0.367   1.100   0.501
  105SOL    HW1  317   0.360   1.183   0.445
  105SOL    HW2  318   0.371   1.020   0.441
  106SOL     OW  319   0.566   0.537   0.865
  106SOL    HW1  320   0.578   0.603   0.791
  106SOL    HW2  321   0.612   0.571   0.948
  107SOL     OW  322   1.252   1.348   0.388
  107SOL    HW1  323   1.302   1.425   0.428
  107SOL    HW2  324   1.157   1.350   0.420
  108SOL     OW  325   1.272   1.445   1.142
  108SOL    HW1  326   1.319   1.458   1.229
  108SOL    HW2  327   1.206   1.371   1.151
  109SOL     OW  328   1.582   0.639   0.472
  109SOL    HW1  329   1.551   0.700   0.545
  109SOL    HW2  330   1.632   0.691   0.403
  110SOL     OW  331   0.354   1.510   1.329
  110SOL    HW1  332   0.333   1.466   1.242
  110SOL    HW2  333   0.451   1.536   1.332
  111SOL     OW  334   0.402   0.751   1.598
  111SOL    HW1  335   0.470   0.806   1.551
  111SOL    HW2  336   0.442   0.663   1.625
  112SOL     OW  337   1.587   0.779   1.670
  112SOL    HW1  338   1.495   0.817   1.665
  112SOL    HW2  339   1.647   0.826   1.605
  113SOL     OW  340   1.013   0.105   1.770
  113SOL    HW1  341   1.019   0.190   1.718
  113SOL    HW2  342   1.045   0.029   1.713
  114SOL     OW  343   0.504   0.050   1.740
  114SOL    HW1  344   0.462  -0.007   1.670
  114SOL    HW2  345   0.438   0.119   1.772
  115SOL     OW  346   0.573   0.870   1.029
  115SOL    HW1  347   0.617   0.959   1.020
  115SOL    HW2  348   0.510   0.870   1.106
  116SOL     OW  349   1.360   0.862   1.045
  116SOL    HW1  350   1.285   0.862   0.979
  116SOL    HW2  351   1.397   0.770   1.054
  117SOL     OW  352   1.209   0.525   0.275
  117SOL    HW1  353   1.222   0.441   0.329
  117SOL    HW2  354   1.180   0.599   0.335
  118SOL     OW  355   0.307   0.213   1.231
  118SOL    HW1  356   0.284   0.250   1.321
  118SOL    HW2  357   0.277   0.118   1.225
  119SOL     OW  358   0.037   1.310   1.282
  119SOL    HW1  359   0.090   1.261   1.350
  119SOL    HW2  360   0.059   1.408   1.287
  120SOL     OW  361   0.732   0.634   1.064
  120SOL    HW1  362   0.791   0.608   0.988
  120SOL    HW2  363   0.704   0.730   1.053
  121SOL     OW  364   1.728   0.935   1.854
  121SOL    HW1  365   1.682   0.928   1.765
  121SOL    HW2  366   1.666   0.979   1.920
  122SOL     OW  367   0.307   0.063   0.618
  122SOL    HW1  368   0.296   0.157   0.651
  122SOL    HW2  369   0.302   0.000   0.695
  123SOL     OW  370   1.622   0.367   0.374
  123SOL    HW1  371   1.624   0.291   0.438
  123SOL    HW2  372   1.574   0.444   0.414
  124SOL     OW  373   1.023   0.766   0.966
  124SOL    HW1  374   1.038   0.787   1.062
  124SOL    HW2  375   0.993   0.671   0.957
  125SOL     OW  376   0.980   1.573   1.700
  125SOL    HW1  377   0.960   1.617   1.612
  125SOL    HW2  378   1.019   1.482   1.684
  126SOL     OW  379   1.859   1.518   1.605
  126SOL    HW1  380   1.873   1.545   1.510
  126SOL    HW2  381   1.942   1.540   1.658
  127SOL     OW  382   0.350   0.898   1.804
  127SOL    HW1  383   0.426   0.942   1.852
  127SOL    HW2  384   0.385   0.851   1.722
  128SOL     OW  385   1.540   0.274   0.125
  128SOL    HW1  386   1.479   0.199   0.148
  128SOL    HW2  387   1.562   0.326   0.208
  129SOL     OW  388   1.303   0.838   0.042
  129SOL    HW1  389   1.337   0.745   0.057
  129SOL    HW2  390   1.321   0.865  -0.053
  130SOL     OW  391   1.068   1.333   0.849
  130SOL    HW1  392   1.075   1.249   0.794
  130SOL    HW2  393   1.130   1.402   0.813
  131SOL     OW  394   0.319   0.810   0.949
  131SOL    HW1  395   0.412   0.846   0.954
  131SOL    HW2  396   0.313   0.725   1.001
  132SOL     OW  397   0.339   0.509   1.006
  132SOL    HW1  398   0.287   0.426   0.989
  132SOL    HW2  399   0.416   0.514   0.942
  133SOL     OW  400   1.138   0.380   1.678
  133SOL    HW1  401   1.093   0.443   1.742
  133SOL    HW2  402   1.231   0.411   1.661
  134SOL     OW  403   1.160   0.207   1.477
  134SOL    HW1  404   1.160   0.271   1.554
  134SOL    HW2  405   1.188   0.255   1.394
  135SOL     OW  406   0.008   1.326   0.200
  135SOL    HW1  407  -0.085   1.347   0.169
  135SOL    HW2  408   0.018   1.227   0.213
  136SOL     OW  409   0.088   1.801   0.927
  136SOL    HW1  410   0.046   1.715   0.900
  136SOL    HW2  411   0.182   1.804   0.893
  137SOL     OW  412   0.504   1.568   0.910
  137SOL    HW1  413   0.570   1.642   0.919
  137SOL    HW2  414   0.548   1.489   0.868
  138SOL     OW  415   1.002   0.796   1.238
  138SOL    HW1  416   1.043   0.764   1.324
  138SOL    HW2  417   0.906   0.769   1.235
  139SOL     OW  418   0.040   0.544   1.114
  139SOL    HW1  419   0.125   0.511   1.073
  139SOL    HW2  420   0.053   0.559   1.212
  140SOL     OW  421   0.189   0.520   1.722
  140SOL    HW1  422   0.248   0.480   1.652
  140SOL    HW2  423   0.131   0.591   1.681
  141SOL     OW  424   1.369   0.950   1.660
  141SOL    HW1  425   1.408   1.039   1.680
  141SOL    HW2  426   1.379   0.930   1.563
  142SOL     OW  427   0.815   0.572   0.325
  142SOL    HW1  428   0.822   0.483   0.279
  142SOL    HW2  429   0.721   0.606   0.317
  143SOL     OW  430   1.657   0.604   1.206
  143SOL    HW1  431   1.619   0.535   1.268
  143SOL    HW2  432   1.739   0.568   1.162
  144SOL     OW  433   0.252   1.564   1.744
  144SOL    HW1  434   0.222   1.621   1.820
  144SOL    HW2  435   0.245   1.467   1.770
  145SOL     OW  436   0.671   0.464   1.269
  145SOL    HW1  437   0.637   0.375   1.239
  145SOL    HW2  438   0.697   0.518   1.189
  146SOL     OW  439   0.930   1.678   1.465
  146SOL    HW1  440   0.906   1.660   1.370
  146SOL    HW2  441   0.960   1.772   1.475
  147SOL     OW  442   0.473   0.500   0.191
  147SOL    HW1  443   0.534   0.580   0.195
  147SOL    HW2  444   0.378   0.531   0.198
  148SOL     OW  445   0.159   1.137   1.466
  148SOL    HW1  446   0.181   1.076   1.542
  148SOL    HW2  447   0.169   1.088   1.380
  149SOL     OW  448   1.302   0.855   0.309
  149SOL    HW1  449   1.216   0.824   0.351
  149SOL    HW2  450   1.298   0.841   0.210
  150SOL     OW  451   1.759   1.747   1.154
  150SOL    HW1  452   1.820   1.777   1.081
  150SOL    HW2  453   1.721   1.658   1.132
  151SOL     OW  454   1.252   1.731   1.128
  151SOL    HW1  455   1.336   1.736   1.074
  151SOL    HW2  456   1.229   1.635   1.146
  152SOL     OW  457   0.083   1.258   1.022
  152SOL    HW1  458   0.078   1.257   1.122
  152SOL    HW2  459   0.000   1.217   0.984
  153SOL     OW  460   0.688   1.662   1.716
  153SOL    HW1  461   0.632   1.743   1.725
  153SOL    HW2  462   0.740   1.666   1.630
  154SOL     OW  463   0.903   0.086   0.133
  154SOL    HW1  464   0.954   0.087   0.047
  154SOL    HW2  465   0.959   0.044   0.204
  155SOL     OW  466   1.726   0.135   0.523
  155SOL    HW1  467   1.799   0.118   0.456
  155SOL    HW2  468   1.695   0.048   0.561
  156SOL     OW  469   1.388   1.573   0.477
  156SOL    HW1  470   1.455   1.585   0.403
  156SOL    HW2  471   1.348   1.662   0.500
  157SOL     OW  472   0.130   1.794   1.851
  157SOL    HW1  473   0.089   1.720   1.904
  157SOL    HW2  474   0.194   1.845   1.909
  158SOL     OW  475   1.280   0.927   0.672
  158SOL    HW1  476   1.340   0.846   0.674
  158SOL    HW2  477   1.320   0.996   0.612
  159SOL     OW  478   0.830   1.273   1.422
  159SOL    HW1  479   0.825   1.306   1.517
  159SOL    HW2  480   0.744   1.292   1.376
  160SOL     OW  481   0.672   1.616   0.154
  160SOL    HW1  482   0.681   1.626   0.055
  160SOL    HW2  483   0.632   1.527   0.175
  161SOL     OW  484   1.650   1.720   1.394
  161SOL    HW1  485   1.703   1.730   1.310
  161SOL    HW2  486   1.623   1.810   1.428
  162SOL     OW  487   1.841   0.175   0.963
  162SOL    HW1  488   1.880   0.090   0.927
  162SOL    HW2  489   1.743   0.177   0.944
  163SOL     OW  490   0.263   0.326   0.720
  163SOL    HW1  491   0.184   0.377   0.686
  163SOL    HW2  492   0.254   0.311   0.818
  164SOL     OW  493   1.194   1.612   0.031
  164SOL    HW1  494   1.200   1.519   0.068
  164SOL    HW2  495   1.135   1.612  -0.049
  165SOL     OW  496   0.822   1.002   1.372
  165SOL    HW1  497   0.862   1.001   1.280
  165SOL    HW2  498   0.832   1.094   1.412
  166SOL     OW  499   0.916   0.910   0.291
  166SOL    HW1  500   0.979   0.948   0.223
  166SOL    HW2  501   0.956   0.827   0.330
  167SOL     OW  502   1.504   1.607   0.044
  167SOL    HW1  503   1.412   1.644   0.051
  167SOL    HW2  504   1.542   1.627  -0.046
  168SOL     OW  505   0.372   1.288   1.490
  168SOL    HW1  506   0.359   1.381   1.456
  168SOL    HW2  507   0.288   1.236   1.477
  169SOL     OW  508   1.614   1.292   1.289
  169SOL    HW1  509   1.674   1.295   1.369
  169SOL    HW2  510   1.539   1.356   1.302
  170SOL     OW  511   1.039   1.098   0.696
  170SOL    HW1  512   0.969   1.051   0.750
  170SOL    HW2  513   1.098   1.030   0.653
  171SOL     OW  514   1.014   0.236   0.971
  171SOL    HW1  515   1.006   0.200   0.878
  171SOL    HW2  516   1.012   0.160   1.036
  172SOL     OW  517   0.590   1.487   0.491
  172SOL    HW1  518   0.632   1.429   0.421
  172SOL    HW2  519   0.546   1.566   0.447
  173SOL     OW  520   1.709   0.385   1.381
  173SOL    HW1  521   1.782   0.454   1.385
  173SOL    HW2  522   1.737   0.310   1.322
  174SOL     OW  523   0.255   1.348   0.290
  174SOL    HW1  524   0.159   1.349   0.263
  174SOL    HW2  525   0.267   1.401   0.374
  175SOL     OW  526   0.105   1.013   1.726
  175SOL    HW1  527   0.028   0.980   1.780
  175SOL    HW2  528   0.190   0.983   1.768
  176SOL     OW  529   0.672   0.203   1.489
  176SOL    HW1  530   0.762   0.187   1.449
  176SOL    HW2  531   0.680   0.208   1.588
  177SOL     OW  532   0.075   0.345   0.033
  177SOL    HW1  533  -0.017   0.317   0.004
  177SOL    HW2  534   0.106   0.422  -0.023
  178SOL     OW  535   1.440   0.856   1.398
  178SOL    HW1  536   1.383   0.908   1.335
  178SOL    HW2  537   1.536   0.868   1.374
  179SOL     OW  538   0.072   0.166   0.318
  179SOL    HW1  539   0.055   0.249   0.264
  179SOL    HW2  540   0.162   0.129   0.296
  180SOL     OW  541   1.183   1.335   0.119
  180SOL    HW1  542   1.084   1.324   0.121
  180SOL    HW2  543   1.217   1.350   0.212
  181SOL     OW  544   0.613   0.842   1.431
  181SOL    HW1  545   0.669   0.923   1.414
  181SOL    HW2  546   0.672   0.762   1.434
  182SOL     OW  547   1.493   1.767   0.959
  182SOL    HW1  548   1.526   1.831   0.890
  182SOL    HW2  549   1.559   1.761   1.034
  183SOL     OW  550   0.716   0.565   1.708
  183SOL    HW1  551   0.735   0.630   1.782
  183SOL    HW2  552   0.776   0.485   1.717
  184SOL     OW  553   1.450   1.220   1.633
  184SOL    HW1  554   1.441   1.210   1.732
  184SOL    HW2  555   1.546   1.213   1.607
  185SOL     OW  556   0.390   1.741   1.560
  185SOL    HW1  557   0.299   1.782   1.558
  185SOL    HW2  558   0.383   1.647   1.592
  186SOL     OW  559   1.674   0.883   1.254
  186SOL    HW1  560   1.647   0.794   1.217
  186SOL    HW2  561   1.675   0.951   1.181
  187SOL     OW  562   1.225   0.325   0.449
  187SOL    HW1  563   1.290   0.251   0.438
  187SOL    HW2  564   1.245   0.375   0.533
  188SOL     OW  565   0.594   0.745   0.652
  188SOL    HW1  566   0.644   0.830   0.633
  188SOL    HW2  567   0.506   0.747   0.604
  189SOL     OW  568   1.777   0.342   1.642
  189SOL    HW1  569   1.760   0.373   1.548
  189SOL    HW2  570   1.693   0.305   1.680
  190SOL     OW  571   1.730   0.934   1.517
  190SOL    HW1  572   1.768   1.025   1.532
  190SOL    HW2  573   1.722   0.917   1.418
  191SOL     OW  574   0.859   1.374   0.016
  191SOL    HW1  575   0.813   1.389   0.104
  191SOL    HW2  576   0.903   1.459  -0.014
  192SOL     OW  577   0.661   1.790   0.953
  192SOL    HW1  578   0.615   1.878   0.940
  192SOL    HW2  579   0.760   1.802   0.946
  193SOL     OW  580   0.859   0.956   0.861
  193SOL    HW1  581   0.913   0.887   0.909
  193SOL    HW2  582   0.827   1.025   0.927
  194SOL     OW  583   1.083   0.984   0.087
  194SOL    HW1  584   1.060   1.037   0.005
  194SOL    HW2  585   1.164   0.928   0.068
  195SOL     OW  586   1.861   1.569   0.851
  195SOL    HW1  587   1.790   1.557   0.781
  195SOL    HW2  588   1.862   1.490   0.911
  196SOL     OW  589   0.221   1.314   1.844
  196SOL    HW1  590   0.156   1.241   1.823
  196SOL    HW2  591   0.225   1.328   1.942
  197SOL     OW  592   0.079   1.240   0.653
  197SOL    HW1  593   0.078   1.193   0.741
  197SOL    HW2  594   0.161   1.212   0.602
  198SOL     OW  595   0.672   1.391   1.624
  198SOL    HW1  596   0.594   1.341   1.662
  198SOL    HW2  597   0.669   1.486   1.655
  199SOL     OW  598   1.824   0.192   1.227
  199SOL    HW1  599   1.820   0.102   1.271
  199SOL    HW2  600   1.827   0.181   1.128
  200SOL     OW  601   0.428   0.424   0.520
  200SOL    HW1  602   0.458   0.352   0.458
  200SOL    HW2  603   0.389   0.384   0.603
  201SOL     OW  604   1.705   1.487   1.104
  201SOL    HW1  605   1.612   1.462   1.077
  201SOL    HW2  606   1.731   1.437   1.186
  202SOL     OW  607   0.317   0.547   1.280
  202SOL    HW1  608   0.355   0.488   1.352
  202SOL    HW2  609   0.357   0.521   1.192
  203SOL     OW  610   0.812   1.586   0.687
  203SOL    HW1  611   0.844   1.596   0.593
  203SOL    HW2  612   0.733   1.524   0.689
  204SOL     OW  613   1.424   0.214   1.112
  204SOL    HW1  614   1.476   0.149   1.167
  204SOL    HW2  615   1.375   0.277   1.173
  205SOL     OW  616   1.001   0.034   1.154
  205SOL    HW1  617   0.938  -0.038   1.123
  205SOL    HW2  618   1.094  -0.002   1.154
  206SOL     OW  619   0.770   1.330   0.301
  206SOL    HW1  620   0.724   1.243   0.318
  206SOL    HW2  621   0.861   1.327   0.342
  207SOL     OW  622   0.618   1.567   1.284
  207SOL    HW1  623   0.613   1.649   1.341
  207SOL    HW2  624   0.707   1.564   1.239
  208SOL     OW  625   1.352   0.052   0.168
  208SOL    HW1  626   1.387   0.011   0.084
  208SOL    HW2  627   1.262   0.014   0.188
  209SOL     OW  628   1.300   0.453   0.691
  209SOL    HW1  629   1.241   0.533   0.695
  209SOL    HW2  630   1.315   0.418   0.784
  210SOL     OW  631   1.593   0.221   0.882
  210SOL    HW1  632   1.509   0.220   0.936
  210SOL    HW2  633   1.595   0.304   0.826
  211SOL     OW  634   0.039   1.077   0.300
  211SOL    HW1  635   0.138   1.066   0.291
  211SOL    HW2  636  -0.001   0.991   0.332
  212SOL     OW  637   0.875   1.646   0.337
  212SOL    HW1  638   0.798   1.611   0.283
  212SOL    HW2  639   0.843   1.717   0.399
  213SOL     OW  640   0.230   0.628   1.975
  213SOL    HW1  641   0.137   0.626   2.012
  213SOL    HW2  642   0.231   0.589   1.883
  214SOL     OW  643   1.755   0.607   2.093
  214SOL    HW1  644   1.743   0.594   1.994
  214SOL    HW2  645   1.725   0.526   2.142
  215SOL     OW  646   0.231   1.713   2.345
  215SOL    HW1  647   0.265   1.790   2.399
  215SOL    HW2  648   0.275   1.713   2.255
  216SOL     OW  649   0.606   0.964   1.985
  216SOL    HW1  650   0.613   1.048   1.931
  216SOL    HW2  651   0.652   0.977   2.073
  217SOL     OW  652   1.842   1.767   2.221
  217SOL    HW1  653   1.896   1.738   2.301
  217SOL    HW2  654   1.872   1.857   2.192
  218SOL     OW  655   0.027   1.596   1.979
  218SOL    HW1  656   0.008   1.500   2.000
  218SOL    HW2  657  -0.006   1.654   2.054
  219SOL     OW  658   1.689   0.922   2.474
  219SOL    HW1  659   1.784   0.893   2.482
  219SOL    HW2  660   1.681   0.987   2.399
  220SOL     OW  661   1.641   1.108   2.294
  220SOL    HW1  662   1.727   1.110   2.242
  220SOL    HW2  663   1.655   1.155   2.382
  221SOL     OW  664   1.525   0.999   2.052
  221SOL    HW1  665   1.462   0.923   2.065
  221SOL    HW2  666   1.573   1.017   2.138
  222SOL     OW  667   0.598   0.729   2.132
  222SOL    HW1  668   0.622   0.798   2.064
  222SOL    HW2  669   0.520   0.762   2.186
  223SOL     OW  670   0.865   0.348   2.057
  223SOL    HW1  671   0.924   0.411   2.008
  223SOL    HW2  672   0.884   0.254   2.028
  224SOL     OW  673   0.321   0.943   2.104
  224SOL    HW1  674   0.403   0.982   2.062
  224SOL    HW2  675   0.294   0.861   2.055
  225SOL     OW  676   1.111   1.776   2.099
  225SOL    HW1  677   1.051   1.714   2.149
  225SOL    HW2  678   1.142   1.732   2.014
  226SOL     OW  679   1.632   1.377   1.943
  226SOL    HW1  680   1.600   1.471   1.933
  226SOL    HW2  681   1.556   1.314   1.931
  227SOL     OW  682   0.464   1.743   2.185
  227SOL    HW1  683   0.497   1.782   2.271
  227SOL    HW2  684   0.540   1.736   2.120
  228SOL     OW  685   0.614   0.122   1.979
  228SOL    HW1  686   0.712   0.100   1.986
  228SOL    HW2  687   0.583   0.105   1.886
  229SOL     OW  688   1.434   1.188   1.903
  229SOL    HW1  689   1.466   1.112   1.960
  229SOL    HW2  690   1.342   1.215   1.933
  230SOL     OW  691   0.297   0.035   2.033
  230SOL    HW1  692   0.346   0.119   2.012
  230SOL    HW2  693   0.359  -0.030   2.078
  231SOL     OW  694   1.032   0.549   1.878
  231SOL    HW1  695   0.991   0.631   1.839
  231SOL    HW2  696   1.096   0.575   1.951
  232SOL     OW  697   1.857   0.833   2.239
  232SOL    HW1  698   1.899   0.769   2.303
  232SOL    HW2  699   1.819   0.782   2.161
  233SOL     OW  700   0.488   1.385   2.036
  233SOL    HW1  701   0.401   1.370   2.083
  233SOL    HW2  702   0.471   1.411   1.941
  234SOL     OW  703   1.664   1.280   2.519
  234SOL    HW1  704   1.763   1.288   2.533
  234SOL    HW2  705   1.619   1.364   2.550
  235SOL     OW  706   1.390   0.575   1.940
  235SOL    HW1  707   1.336   0.554   2.021
  235SOL    HW2  708   1.481   0.534   1.949
  236SOL     OW  709   0.527   0.256   2.190
  236SOL    HW1  710   0.554   0.197   2.115
  236SOL    HW2  711   0.527   0.351   2.159
  237SOL     OW  712   0.367   1.100   2.363
  237SOL    HW1  713   0.360   1.183   2.307
  237SOL    HW2  714   0.371   1.020   2.303
  238SOL     OW  715   1.209   0.525   2.137
  238SOL    HW1  716   1.222   0.441   2.191
  238SOL    HW2  717   1.180   0.599   2.197
  239SOL     OW  718   1.540   0.274   1.987
  239SOL    HW1  719   1.479   0.199   2.010
  239SOL    HW2  720   1.562   0.326   2.070
  240SOL     OW  721   1.303   0.838   1.904
  240SOL    HW1  722   1.337   0.745   1.919
  240SOL    HW2  723   1.321   0.865   1.809
  241SOL     OW  724   0.008   1.326   2.062
  241SOL    HW1  725  -0.085   1.347   2.031
  241SOL    HW2  726   0.018   1.227   2.075
  242SOL     OW  727   0.815   0.572   2.187
  242SOL    HW1  728   0.822   0.483   2.141
  242SOL    HW2  729   0.721   0.606   2.179
  243SOL     OW  730   0.473   0.500   2.053
  243SOL    HW1  731   0.534   0.580   2.057
  243SOL    HW2  732   0.378   0.531   2.060
  244SOL     OW  733   1.726   0.135   2.385
  244SOL    HW1  734   1.799   0.118   2.318
  244SOL    HW2  735   1.695   0.048   2.423
  245SOL     OW  736   0.672   1.616   2.016
  245SOL    HW1  737   0.681   1.626   1.917
  245SOL    HW2  738   0.632   1.527   2.037
  246SOL     OW  739   1.194   1.612   1.893
  246SOL    HW1  740   1.200   1.519   1.930
  246SOL    HW2  741   1.135   1.612   1.813
  247SOL     OW  742   0.916   0.910   2.153
  247SOL    HW1  743   0.979   0.948   2.085
  247SOL    HW2  744   0.956   0.827   2.192
  248SOL     OW  745   1.504   1.607   1.906
  248SOL    HW1  746   1.412   1.644   1.913
  248SOL    HW2  747   1.542   1.627   1.816
  249SOL     OW  748   0.255   1.348   2.152
  249SOL    HW1  749   0.159   1.349   2.125
  249SOL    HW2  750   0.267   1.401   2.236
  250SOL     OW  751   0.075   0.345   1.895
  250SOL    HW1  752  -0.017   0.317   1.866
  250SOL    HW2  753   0.106   0.422   1.839
  251SOL     OW  754   0.072   0.166   2.180
  251SOL    HW1  755   0.055   0.249   2.126
  251SOL    HW2  756   0.162   0.129   2.158
  252SOL     OW  757   1.183   1.335   1.981
  252SOL    HW1  758   1.084   1.324   1.983
  252SOL    HW2  759   1.217   1.350   2.074
  253SOL     OW  760   1.225   0.325   2.311
  253SOL    HW1  761   1.290   0.251   2.300
  253SOL    HW2  762   1.245   0.375   2.395
  254SOL     OW  763   0.859   1.374   1.878
  254SOL    HW1  764   0.813   1.389   1.966
  254SOL    HW2  765   0.903   1.459   1.848
  255SOL     OW  766   1.083   0.984   1.949
  255SOL    HW1  767   1.060   1.037   1.867
  255SOL    HW2  768   1.164   0.928   1.930
  256SOL     OW  769   1.352   0.052   2.030
  256SOL    HW1  770   1.387   0.011   1.946
  256SOL    HW2  771   1.262   0.014   2.050
  257SOL     OW  772   0.039   1.077   2.162
  257SOL    HW1  773   0.138   1.066   2.153
  257SOL    HW2  774  -0.001   0.991   2.194
  258SOL     OW  775   0.875   1.646   2.199
  258SOL    HW1  776   0.798   1.611   2.145
  258SOL    HW2  777   0.843   1.717   2.261
  259SOL     OW  778   0.225   2.137   0.996
  259SOL    HW1  779   0.260   2.120   1.088
  259SOL    HW2  780   0.137   2.092   0.984
  260SOL     OW  781   0.019   2.230   0.647
  260SOL    HW1  782  -0.063   2.273   0.686
  260SOL    HW2  783  -0.009   2.157   0.584
  261SOL     OW  784   0.438   2.254   1.499
  261SOL    HW1  785   0.520   2.198   1.508
  261SOL    HW2  786   0.357   2.196   1.503
  262SOL     OW  787   1.603   2.309   0.737
  262SOL    HW1  788   1.529   2.355   0.687
  262SOL    HW2  789   1.654   2.377   0.790
  263SOL     OW  790   1.594   1.976   1.480
  263SOL    HW1  791   1.576   2.043   1.408
  263SOL    HW2  792   1.591   2.022   1.569
  264SOL     OW  793   0.809   1.866   0.502
  264SOL    HW1  794   0.849   1.957   0.493
  264SOL    HW2  795   0.709   1.874   0.508
  265SOL     OW  796   0.317   2.113   1.801
  265SOL    HW1  797   0.388   2.184   1.807
  265SOL    HW2  798   0.229   2.152   1.829
  266SOL     OW  799   1.281   2.207   0.944
  266SOL    HW1  800   1.195   2.157   0.931
  266SOL    HW2  801   1.343   2.153   1.000
  267SOL     OW  802   0.550   2.058   0.885
  267SOL    HW1  803   0.545   2.053   0.985
  267SOL    HW2  804   0.552   2.154   0.856
  268SOL     OW  805   0.202   2.147   1.498
  268SOL    HW1  806   0.122   2.207   1.485
  268SOL    HW2  807   0.192   2.098   1.584
  269SOL     OW  808   1.400   1.969   0.426
  269SOL    HW1  809   1.376   1.932   0.336
  269SOL    HW2  810   1.499   1.985   0.430
  270SOL     OW  811   1.547   2.084   1.729
  270SOL    HW1  812   1.542   2.121   1.821
  270SOL    HW2  813   1.475   2.015   1.717
  271SOL     OW  814   0.614   1.984   0.117
  271SOL    HW1  815   0.712   1.962   0.124
  271SOL    HW2  816   0.583   1.967   0.024
  272SOL     OW  817   0.781   2.126   1.749
  272SOL    HW1  818   0.848   2.065   1.792
  272SOL    HW2  819   0.708   2.145   1.814
  273SOL     OW  820   1.351   2.452   1.433
  273SOL    HW1  821   1.379   2.409   1.518
  273SOL    HW2  822   1.376   2.548   1.434
  274SOL     OW  823   0.539   1.926   0.512
  274SOL    HW1  824   0.458   1.927   0.570
  274SOL    HW2  825   0.542   2.009   0.457
  275SOL     OW  826   0.935   2.098   0.480
  275SOL    HW1  827   0.887   2.139   0.402
  275SOL    HW2  828   1.034   2.096   0.461
  276SOL     OW  829   0.078   2.418   1.386
  276SOL    HW1  830   0.170   2.417   1.345
  276SOL    HW2  831   0.072   2.492   1.453
  277SOL     OW  832   0.561   2.084   1.147
  277SOL    HW1  833   0.599   2.000   1.184
  277SOL    HW2  834   0.473   2.103   1.191
  278SOL     OW  835   1.017   1.901   0.753
  278SOL    HW1  836   0.945   1.906   0.684
  278SOL    HW2  837   0.993   1.832   0.822
  279SOL     OW  838   0.527   2.118   0.328
  279SOL    HW1  839   0.554   2.059   0.253
  279SOL    HW2  840   0.527   2.213   0.297
  280SOL     OW  841   0.915   1.951   1.402
  280SOL    HW1  842   0.940   1.931   1.307
  280SOL    HW2  843   0.987   2.007   1.444
  281SOL     OW  844   1.013   1.967   1.770
  281SOL    HW1  845   1.019   2.052   1.718
  281SOL    HW2  846   1.045   1.891   1.713
  282SOL     OW  847   0.504   1.912   1.740
  282SOL    HW1  848   0.462   1.855   1.670
  282SOL    HW2  849   0.438   1.981   1.772
  283SOL     OW  850   0.307   2.075   1.231
  283SOL    HW1  851   0.284   2.112   1.321
  283SOL    HW2  852   0.277   1.980   1.225
  284SOL     OW  853   0.732   2.496   1.064
  284SOL    HW1  854   0.791   2.470   0.988
  284SOL    HW2  855   0.704   2.592   1.053
  285SOL     OW  856   0.307   1.925   0.618
  285SOL    HW1  857   0.296   2.019   0.651
  285SOL    HW2  858   0.302   1.862   0.695
  286SOL     OW  859   1.540   2.136   0.125
  286SOL    HW1  860   1.479   2.061   0.148
  286SOL    HW2  861   1.562   2.188   0.208
  287SOL     OW  862   0.339   2.371   1.006
  287SOL    HW1  863   0.287   2.288   0.989
  287SOL    HW2  864   0.416   2.376   0.942
  288SOL     OW  865   1.160   2.069   1.477
  288SOL    HW1  866   1.160   2.133   1.554
  288SOL    HW2  867   1.188   2.117   1.394
  289SOL     OW  868   0.040   2.406   1.114
  289SOL    HW1  869   0.125   2.373   1.073
  289SOL    HW2  870   0.053   2.421   1.212
  290SOL     OW  871   0.815   2.434   0.325
  290SOL    HW1  872   0.822   2.345   0.279
  290SOL    HW2  873   0.721   2.468   0.317
  291SOL     OW  874   0.903   1.948   0.133
  291SOL    HW1  875   0.954   1.949   0.047
  291SOL    HW2  876   0.959   1.906   0.204
  292SOL     OW  877   1.726   1.997   0.523
  292SOL    HW1  878   1.799   1.980   0.456
  292SOL    HW2  879   1.695   1.910   0.561
  293SOL     OW  880   1.841   2.037   0.963
  293SOL    HW1  881   1.880   1.952   0.927
  293SOL    HW2  882   1.743   2.039   0.944
  294SOL     OW  883   1.014   2.098   0.971
  294SOL    HW1  884   1.006   2.062   0.878
  294SOL    HW2  885   1.012   2.022   1.036
  295SOL     OW  886   1.709   2.247   1.381
  295SOL    HW1  887   1.782   2.316   1.385
  295SOL    HW2  888   1.737   2.172   1.322
  296SOL     OW  889   0.672   2.065   1.489
  296SOL    HW1  890   0.762   2.049   1.449
  296SOL    HW2  891   0.680   2.070   1.588
  297SOL     OW  892   0.075   2.207   0.033
  297SOL    HW1  893  -0.017   2.179   0.004
  297SOL    HW2  894   0.106   2.284  -0.023
  298SOL     OW  895   0.072   2.028   0.318
  298SOL    HW1  896   0.055   2.111   0.264
  298SOL    HW2  897   0.162   1.991   0.296
  299SOL     OW  898   1.225   2.187   0.449
  299SOL    HW1  899   1.290   2.113   0.438
  299SOL    HW2  900   1.245   2.237   0.533
  300SOL     OW  901   1.777   2.204   1.642
  300SOL    HW1  902   1.760   2.235   1.548
  300SOL    HW2  903   1.693   2.167   1.680
  301SOL     OW  904   1.824   2.054   1.227
  301SOL    HW1  905   1.820   1.964   1.271
  301SOL    HW2  906   1.827   2.043   1.128
  302SOL     OW  907   1.424   2.076   1.112
  302SOL    HW1  908   1.476   2.011   1.167
  302SOL    HW2  909   1.375   2.139   1.173
  303SOL     OW  910   1.001   1.896   1.154
  303SOL    HW1  911   0.938   1.824   1.123
  303SOL    HW2  912   1.094   1.860   1.154
  304SOL     OW  913   1.352   1.914   0.168
  304SOL    HW1  914   1.387   1.873   0.084
  304SOL    HW2  915   1.262   1.876   0.188
  305SOL     OW  916   1.300   2.315   0.691
  305SOL    HW1  917   1.241   2.395   0.695
  305SOL    HW2  918   1.315   2.280   0.784
  306SOL     OW  919   1.593   2.083   0.882
  306SOL    HW1  920   1.509   2.082   0.936
  306SOL    HW2  921   1.595   2.166   0.826
  307SOL     OW  922   1.755   2.469   2.093
  307SOL    HW1  923   1.743   2.456   1.994
  307SOL    HW2  924   1.725   2.388   2.142
  308SOL     OW  925   1.041   2.563   2.291
  308SOL    HW1  926   1.067   2.559   2.387
  308SOL    HW2  927   0.956   2.512   2.277
  309SOL     OW  928   0.865   2.210   2.057
  309SOL    HW1  929   0.924   2.273   2.008
  309SOL    HW2  930   0.884   2.116   2.028
  310SOL     OW  931   0.382   2.562   2.342
  310SOL    HW1  932   0.427   2.472   2.339
  310SOL    HW2  933   0.288   2.551   2.375
  311SOL     OW  934   0.614   1.984   1.979
  311SOL    HW1  935   0.712   1.962   1.986
  311SOL    HW2  936   0.583   1.967   1.886
  312SOL     OW  937   0.297   1.897   2.033
  312SOL    HW1  938   0.346   1.981   2.012
  312SOL    HW2  939   0.359   1.832   2.078
  313SOL     OW  940   0.527   2.118   2.190
  313SOL    HW1  941   0.554   2.059   2.115
  313SOL    HW2  942   0.527   2.213   2.159
  314SOL     OW  943   0.307   1.925   2.480
  314SOL    HW1  944   0.296   2.019   2.513
  314SOL    HW2  945   0.302   1.862   2.557
  315SOL     OW  946   1.540   2.136   1.987
  315SOL    HW1  947   1.479   2.061   2.010
  315SOL    HW2  948   1.562   2.188   2.070
  316SOL     OW  949   0.815   2.434   2.187
  316SOL    HW1  950   0.822   2.345   2.141
  316SOL    HW2  951   0.721   2.468   2.179
  317SOL     OW  952   1.726   1.997   2.385
  317SOL    HW1  953   1.799   1.980   2.318
  317SOL    HW2  954   1.695   1.910   2.423
  318SOL     OW  955   0.075   2.207   1.895
  318SOL    HW1  956  -0.017   2.179   1.866
  318SOL    HW2  957   0.106   2.284   1.839
  319SOL     OW  958   0.072   2.028   2.180
  319SOL    HW1  959   0.055   2.111   2.126
  319SOL    HW2  960   0.162   1.991   2.158
  320SOL     OW  961   1.352   1.914   2.030
  320SOL    HW1  962   1.387   1.873   1.946
  320SOL    HW2  963   1.262   1.876   2.050
  321SOL     OW  964   2.092   0.628   0.113
  321SOL    HW1  965   1.999   0.626   0.150
  321SOL    HW2  966   2.093   0.589   0.021
  322SOL     OW  967   2.087   0.275   0.996
  322SOL    HW1  968   2.122   0.258   1.088
  322SOL    HW2  969   1.999   0.230   0.984
  323SOL     OW  970   1.881   0.368   0.647
  323SOL    HW1  971   1.799   0.411   0.686
  323SOL    HW2  972   1.853   0.295   0.584
  324SOL     OW  973   2.547   1.012   0.665
  324SOL    HW1  974   2.616   0.996   0.735
  324SOL    HW2  975   2.474   1.069   0.703
  325SOL     OW  976   2.197   1.435   1.061
  325SOL    HW1  977   2.119   1.404   1.008
  325SOL    HW2  978   2.255   1.493   1.004
  326SOL     OW  979   2.093   1.713   0.483
  326SOL    HW1  980   2.127   1.790   0.537
  326SOL    HW2  981   2.137   1.713   0.393
  327SOL     OW  982   2.092   1.434   0.538
  327SOL    HW1  983   2.066   1.530   0.538
  327SOL    HW2  984   2.021   1.380   0.583
  328SOL     OW  985   2.102   1.091   0.886
  328SOL    HW1  986   2.116   1.007   0.938
  328SOL    HW2  987   2.047   1.155   0.941
  329SOL     OW  988   1.984   0.643   0.563
  329SOL    HW1  989   1.939   0.555   0.580
  329SOL    HW2  990   1.983   0.697   0.647
  330SOL     OW  991   1.889   1.596   0.117
  330SOL    HW1  992   1.870   1.500   0.138
  330SOL    HW2  993   1.856   1.654   0.192
  331SOL     OW  994   1.975   0.737   1.597
  331SOL    HW1  995   2.063   0.724   1.642
  331SOL    HW2  996   1.962   0.834   1.575
  332SOL     OW  997   2.059   0.976   1.264
  332SOL    HW1  998   2.148   0.931   1.250
  332SOL    HW2  999   1.986   0.911   1.245
  333SOL     OW 1000   1.938   0.811   0.789
  333SOL    HW1 1001   2.037   0.799   0.798
  333SOL    HW2 1002   1.914   0.906   0.810
  334SOL     OW 1003   1.992   1.821   1.571
  334SOL    HW1 1004   1.982   1.806   1.670
  334SOL    HW2 1005   1.906   1.857   1.535
  335SOL     OW 1006   2.064   0.285   1.498
  335SOL    HW1 1007   1.984   0.345   1.485
  335SOL    HW2 1008   2.054   0.236   1.584
  336SOL     OW 1009   2.326   1.743   0.323
  336SOL    HW1 1010   2.359   1.782   0.409
  336SOL    HW2 1011   2.402   1.736   0.258
  337SOL     OW 1012   2.111   1.785   1.241
  337SOL    HW1 1013   2.168   1.720   1.291
  337SOL    HW2 1014   2.095   1.752   1.148
  338SOL     OW 1015   2.159   0.035   0.171
  338SOL    HW1 1016   2.208   0.119   0.150
  338SOL    HW2 1017   2.221  -0.030   0.216
  339SOL     OW 1018   1.940   0.556   1.386
  339SOL    HW1 1019   2.032   0.555   1.345
  339SOL    HW2 1020   1.934   0.630   1.453
  340SOL     OW 1021   1.926   1.564   1.331
  340SOL    HW1 1022   1.880   1.646   1.297
  340SOL    HW2 1023   2.024   1.583   1.340
  341SOL     OW 1024   2.428   0.537   0.865
  341SOL    HW1 1025   2.440   0.603   0.791
  341SOL    HW2 1026   2.474   0.571   0.948
  342SOL     OW 1027   2.169   0.213   1.231
  342SOL    HW1 1028   2.146   0.250   1.321
  342SOL    HW2 1029   2.139   0.118   1.225
  343SOL     OW 1030   1.899   1.310   1.282
  343SOL    HW1 1031   1.952   1.261   1.350
  343SOL    HW2 1032   1.921   1.408   1.287
  344SOL     OW 1033   2.181   0.810   0.949
  344SOL    HW1 1034   2.274   0.846   0.954
  344SOL    HW2 1035   2.175   0.725   1.001
  345SOL     OW 1036   1.950   1.801   0.927
  345SOL    HW1 1037   1.908   1.715   0.900
  345SOL    HW2 1038   2.044   1.804   0.893
  346SOL     OW 1039   1.902   0.544   1.114
  346SOL    HW1 1040   1.987   0.511   1.073
  346SOL    HW2 1041   1.915   0.559   1.212
  347SOL     OW 1042   2.051   0.520   1.722
  347SOL    HW1 1043   2.110   0.480   1.652
  347SOL    HW2 1044   1.993   0.591   1.681
  348SOL     OW 1045   2.114   1.564   1.744
  348SOL    HW1 1046   2.084   1.621   1.820
  348SOL    HW2 1047   2.107   1.467   1.770
  349SOL     OW 1048   2.021   1.137   1.466
  349SOL    HW1 1049   2.043   1.076   1.542
  349SOL    HW2 1050   2.031   1.088   1.380
  350SOL     OW 1051   1.945   1.258   1.022
  350SOL    HW1 1052   1.940   1.257   1.122
  350SOL    HW2 1053   1.862   1.217   0.984
  351SOL     OW 1054   1.992   1.794   1.851
  351SOL    HW1 1055   1.951   1.720   1.904
  351SOL    HW2 1056   2.056   1.845   1.909
  352SOL     OW 1057   2.234   1.288   1.490
  352SOL    HW1 1058   2.221   1.381   1.456
  352SOL    HW2 1059   2.150   1.236   1.477
  353SOL     OW 1060   1.967   1.013   1.726
  353SOL    HW1 1061   1.890   0.980   1.780
  353SOL    HW2 1062   2.052   0.983   1.768
  354SOL     OW 1063   1.937   0.345   0.033
  354SOL    HW1 1064   1.845   0.317   0.004
  354SOL    HW2 1065   1.968   0.422  -0.023
  355SOL     OW 1066   1.934   0.166   0.318
  355SOL    HW1 1067   1.917   0.249   0.264
  355SOL    HW2 1068   2.024   0.129   0.296
  356SOL     OW 1069   2.475   0.842   1.431
  356SOL    HW1 1070   2.531   0.923   1.414
  356SOL    HW2 1071   2.534   0.762   1.434
  357SOL     OW 1072   2.083   1.314   1.844
  357SOL    HW1 1073   2.018   1.241   1.823
  357SOL    HW2 1074   2.087   1.328   1.942
  358SOL     OW 1075   1.941   1.240   0.653
  358SOL    HW1 1076   1.940   1.193   0.741
  358SOL    HW2 1077   2.023   1.212   0.602
  359SOL     OW 1078   1.901   1.077   0.300
  359SOL    HW1 1079   2.000   1.066   0.291
  359SOL    HW2 1080   1.861   0.991   0.332
  360SOL     OW 1081   2.092   0.628   1.975
  360SOL    HW1 1082   1.999   0.626   2.012
  360SOL    HW2 1083   2.093   0.589   1.883
  361SOL     OW 1084   2.093   1.713   2.345
  361SOL    HW1 1085   2.127   1.790   2.399
  361SOL    HW2 1086   2.137   1.713   2.255
  362SOL     OW 1087   1.889   1.596   1.979
  362SOL    HW1 1088   1.870   1.500   2.000
  362SOL    HW2 1089   1.856   1.654   2.054
  363SOL     OW 1090   2.326   1.743   2.185
  363SOL    HW1 1091   2.359   1.782   2.271
  363SOL    HW2 1092   2.402   1.736   2.120
  364SOL     OW 1093   2.159   0.035   2.033
  364SOL    HW1 1094   2.208   0.119   2.012
  364SOL    HW2 1095   2.221  -0.030   2.078
  365SOL     OW 1096   1.870   1.326   2.062
  365SOL    HW1 1097   1.777   1.347   2.031
  365SOL    HW2 1098   1.880   1.227   2.075
  366SOL     OW 1099   1.937   0.345   1.895
  366SOL    HW1 1100   1.845   0.317   1.866
  366SOL    HW2 1101   1.968   0.422   1.839
  367SOL     OW 1102   1.934   0.166   2.180
  367SOL    HW1 1103   1.917   0.249   2.126
  367SOL    HW2 1104   2.024   0.129   2.158
  368SOL     OW 1105   1.901   1.077   2.162
  368SOL    HW1 1106   2.000   1.066   2.153
  368SOL    HW2 1107   1.861   0.991   2.194
  369SOL     OW 1108   2.087   2.137   0.996
  369SOL    HW1 1109   2.122   2.120   1.088
  369SOL    HW2 1110   1.999   2.092   0.984
  370SOL     OW 1111   1.881   2.230   0.647
  370SOL    HW1 1112   1.799   2.273   0.686
  370SOL    HW2 1113   1.853   2.157   0.584
  371SOL     OW 1114   2.064   2.147   1.498
  371SOL    HW1 1115   1.984   2.207   1.485
  371SOL    HW2 1116   2.054   2.098   1.584
  372SOL     OW 1117   1.940   2.418   1.386
  372SOL    HW1 1118   2.032   2.417   1.345
  372SOL    HW2 1119   1.934   2.492   1.453
  373SOL     OW 1120   2.169   2.075   1.231
  373SOL    HW1 1121   2.146   2.112   1.321
  373SOL    HW2 1122   2.139   1.980   1.225
  374SOL     OW 1123   2.169   1.925   0.618
  374SOL    HW1 1124   2.158   2.019   0.651
  374SOL    HW2 1125   2.164   1.862   0.695
  375SOL     OW 1126   1.937   2.207   0.033
  375SOL    HW1 1127   1.845   2.179   0.004
  375SOL    HW2 1128   1.968   2.284  -0.023
  376SOL     OW 1129   1.934   2.028   0.318
  376SOL    HW1 1130   1.917   2.111   0.264
  376SOL    HW2 1131   2.024   1.991   0.296
  377SOL     OW 1132   2.159   1.897   2.033
  377SOL    HW1 1133   2.208   1.981   2.012
  377SOL    HW2 1134   2.221   1.832   2.078
  378SOL     OW 1135   2.169   1.925   2.480
  378SOL    HW1 1136   2.158   2.019   2.513
  378SOL    HW2 1137   2.164   1.862   2.557
  379SOL     OW 1138   1.937   2.207   1.895
  379SOL    HW1 1139   1.845   2.179   1.866
  379SOL    HW2 1140   1.968   2.284   1.839
  380SOL     OW 1141   1.934   2.028   2.180
  380SOL    HW1 1142   1.917   2.111   2.126
  380SOL    HW2 1143   2.024   1.991   2.158
   2.28440   2.28440   2.28440
