mobley_2607611_GMX.gro created by acpype (v: 2023.10.27) on Thu May 14 13:42:50 2026
 3041
    1MOL     C1    1   1.295   1.609   1.865
    1MOL     C2    2   1.172   1.693   1.879
    1MOL     C3    3   1.920   1.554   1.262
    1MOL     C4    4   1.856   1.501   1.389
    1MOL     C5    5   1.730   1.579   1.425
    1MOL     C6    6   1.665   1.535   1.556
    1MOL     C7    7   1.537   1.611   1.590
    1MOL     C8    8   1.479   1.566   1.723
    1MOL     O1    9   1.331   1.526   1.948
    1MOL     O2   10   1.360   1.639   1.749
    1MOL     H1   11   1.104   1.673   1.796
    1MOL     H2   12   1.200   1.799   1.880
    1MOL     H3   13   1.122   1.669   1.973
    1MOL     H4   14   2.011   1.497   1.238
    1MOL     H5   15   1.852   1.546   1.177
    1MOL     H6   16   1.949   1.659   1.273
    1MOL     H7   17   1.929   1.509   1.471
    1MOL     H8   18   1.833   1.395   1.375
    1MOL     H9   19   1.657   1.570   1.343
    1MOL    H10   20   1.755   1.686   1.433
    1MOL    H11   21   1.738   1.550   1.637
    1MOL    H12   22   1.644   1.427   1.552
    1MOL    H13   23   1.462   1.597   1.512
    1MOL    H14   24   1.557   1.719   1.594
    1MOL    H15   25   1.454   1.459   1.721
    1MOL    H16   26   1.549   1.584   1.805
    2SOL     OW   27   0.230   0.628   0.113
    2SOL    HW1   28   0.137   0.626   0.150
    2SOL    HW2   29   0.231   0.589   0.021
    3SOL     OW   30   0.225   0.275   0.996
    3SOL    HW1   31   0.260   0.258   1.088
    3SOL    HW2   32   0.137   0.230   0.984
    4SOL     OW   33   0.019   0.368   0.647
    4SOL    HW1   34  -0.063   0.411   0.686
    4SOL    HW2   35  -0.009   0.295   0.584
    5SOL     OW   36   0.569   1.275   1.165
    5SOL    HW1   37   0.476   1.268   1.128
    5SOL    HW2   38   0.580   1.364   1.209
    6SOL     OW   39   1.555   1.511   0.703
    6SOL    HW1   40   1.498   1.495   0.784
    6SOL    HW2   41   1.496   1.521   0.623
    7SOL     OW   42   1.135   0.703   0.717
    7SOL    HW1   43   1.192   0.781   0.692
    7SOL    HW2   44   1.075   0.729   0.793
    8SOL     OW   45   1.755   0.607   0.231
    8SOL    HW1   46   1.743   0.594   0.132
    8SOL    HW2   47   1.725   0.526   0.280
    9SOL     OW   48   0.768   1.144   1.023
    9SOL    HW1   49   0.690   1.161   1.083
    9SOL    HW2   50   0.802   1.231   0.987
   10SOL     OW   51   0.850   0.798   1.823
   10SOL    HW1   52   0.846   0.874   1.888
   10SOL    HW2   53   0.872   0.834   1.732
   11SOL     OW   54   0.685   1.012   0.665
   11SOL    HW1   55   0.754   0.996   0.735
   11SOL    HW2   56   0.612   1.069   0.703
   12SOL     OW   57   0.686   1.161   1.803
   12SOL    HW1   58   0.746   1.240   1.817
   12SOL    HW2   59   0.600   1.192   1.762
   13SOL     OW   60   0.335   1.435   1.061
   13SOL    HW1   61   0.257   1.404   1.008
   13SOL    HW2   62   0.393   1.493   1.004
   14SOL     OW   63   1.460   1.505   1.339
   14SOL    HW1   64   1.484   1.599   1.365
   14SOL    HW2   65   1.444   1.451   1.421
   15SOL     OW   66   0.438   0.392   1.499
   15SOL    HW1   67   0.520   0.336   1.508
   15SOL    HW2   68   0.357   0.334   1.503
   16SOL     OW   69   1.603   0.447   0.737
   16SOL    HW1   70   1.529   0.493   0.687
   16SOL    HW2   71   1.654   0.515   0.790
   17SOL     OW   72   0.231   1.713   0.483
   17SOL    HW1   73   0.265   1.790   0.537
   17SOL    HW2   74   0.275   1.713   0.393
   18SOL     OW   75   1.127   1.341   1.690
   18SOL    HW1   76   1.174   1.341   1.778
   18SOL    HW2   77   1.079   1.254   1.679
   19SOL     OW   78   0.230   1.434   0.538
   19SOL    HW1   79   0.204   1.530   0.538
   19SOL    HW2   80   0.159   1.380   0.583
   20SOL     OW   81   0.240   1.091   0.886
   20SOL    HW1   82   0.254   1.007   0.938
   20SOL    HW2   83   0.185   1.155   0.941
   21SOL     OW   84   0.620   1.786   1.439
   21SOL    HW1   85   0.528   1.769   1.474
   21SOL    HW2   86   0.648   1.878   1.465
   22SOL     OW   87   0.606   0.964   0.123
   22SOL    HW1   88   0.613   1.048   0.069
   22SOL    HW2   89   0.652   0.977   0.211
   23SOL     OW   90   1.594   0.114   1.480
   23SOL    HW1   91   1.576   0.181   1.408
   23SOL    HW2   92   1.591   0.160   1.569
   24SOL     OW   93   0.122   0.643   0.563
   24SOL    HW1   94   0.077   0.555   0.580
   24SOL    HW2   95   0.121   0.697   0.647
   25SOL     OW   96   1.842   1.767   0.359
   25SOL    HW1   97   1.896   1.738   0.439
   25SOL    HW2   98   1.872   1.857   0.330
   26SOL     OW   99   0.027   1.596   0.117
   26SOL    HW1  100   0.008   1.500   0.138
   26SOL    HW2  101  -0.006   1.654   0.192
   27SOL     OW  102   1.689   0.922   0.612
   27SOL    HW1  103   1.784   0.893   0.620
   27SOL    HW2  104   1.681   0.987   0.537
   28SOL     OW  105   1.641   1.108   0.432
   28SOL    HW1  106   1.727   1.110   0.380
   28SOL    HW2  107   1.655   1.155   0.520
   29SOL     OW  108   0.113   0.737   1.597
   29SOL    HW1  109   0.201   0.724   1.642
   29SOL    HW2  110   0.100   0.834   1.575
   30SOL     OW  111   0.613   1.365   0.726
   30SOL    HW1  112   0.564   1.278   0.735
   30SOL    HW2  113   0.590   1.408   0.639
   31SOL     OW  114   1.293   1.228   1.423
   31SOL    HW1  115   1.330   1.155   1.365
   31SOL    HW2  116   1.345   1.233   1.508
   32SOL     OW  117   0.809   0.004   0.502
   32SOL    HW1  118   0.849   0.095   0.493
   32SOL    HW2  119   0.709   0.012   0.508
   33SOL     OW  120   0.197   0.976   1.264
   33SOL    HW1  121   0.286   0.931   1.250
   33SOL    HW2  122   0.124   0.911   1.245
   34SOL     OW  123   1.525   0.999   0.190
   34SOL    HW1  124   1.462   0.923   0.203
   34SOL    HW2  125   1.573   1.017   0.276
   35SOL     OW  126   1.187   1.792   1.616
   35SOL    HW1  127   1.211   1.852   1.540
   35SOL    HW2  128   1.194   1.697   1.586
   36SOL     OW  129   0.317   0.251   1.801
   36SOL    HW1  130   0.388   0.322   1.807
   36SOL    HW2  131   0.229   0.290   1.829
   37SOL     OW  132   1.466   1.417   0.953
   37SOL    HW1  133   1.407   1.423   1.033
   37SOL    HW2  134   1.451   1.329   0.907
   38SOL     OW  135   1.667   1.714   0.572
   38SOL    HW1  136   1.626   1.691   0.484
   38SOL    HW2  137   1.649   1.640   0.637
   39SOL     OW  138   0.598   0.729   0.270
   39SOL    HW1  139   0.622   0.798   0.202
   39SOL    HW2  140   0.520   0.762   0.324
   40SOL     OW  141   1.281   0.345   0.944
   40SOL    HW1  142   1.195   0.295   0.931
   40SOL    HW2  143   1.343   0.291   1.000
   41SOL     OW  144   1.576   1.662   0.307
   41SOL    HW1  145   1.665   1.708   0.310
   41SOL    HW2  146   1.555   1.638   0.212
   42SOL     OW  147   0.807   0.605   1.465
   42SOL    HW1  148   0.760   0.602   1.554
   42SOL    HW2  149   0.756   0.550   1.399
   43SOL     OW  150   1.394   0.469   1.674
   43SOL    HW1  151   1.374   0.512   1.762
   43SOL    HW2  152   1.472   0.407   1.683
   44SOL     OW  153   0.973   0.890   1.572
   44SOL    HW1  154   1.019   0.806   1.543
   44SOL    HW2  155   0.917   0.924   1.497
   45SOL     OW  156   0.991   0.410   1.242
   45SOL    HW1  157   0.914   0.444   1.296
   45SOL    HW2  158   0.957   0.359   1.163
   46SOL     OW  159   1.041   0.701   0.429
   46SOL    HW1  160   1.067   0.697   0.525
   46SOL    HW2  161   0.956   0.650   0.415
   47SOL     OW  162   0.076   0.811   0.789
   47SOL    HW1  163   0.175   0.799   0.798
   47SOL    HW2  164   0.052   0.906   0.810
   48SOL     OW  165   0.130   1.821   1.571
   48SOL    HW1  166   0.120   1.806   1.670
   48SOL    HW2  167   0.044   1.857   1.535
   49SOL     OW  168   0.865   0.348   0.195
   49SOL    HW1  169   0.924   0.411   0.146
   49SOL    HW2  170   0.884   0.254   0.166
   50SOL     OW  171   1.719   0.585   1.831
   50SOL    HW1  172   1.693   0.674   1.795
   50SOL    HW2  173   1.717   0.517   1.758
   51SOL     OW  174   1.362   1.144   0.545
   51SOL    HW1  175   1.445   1.115   0.497
   51SOL    HW2  176   1.313   1.211   0.489
   52SOL     OW  177   0.550   0.196   0.885
   52SOL    HW1  178   0.545   0.191   0.985
   52SOL    HW2  179   0.552   0.292   0.856
   53SOL     OW  180   1.008   1.456   0.477
   53SOL    HW1  181   0.962   1.528   0.425
   53SOL    HW2  182   1.004   1.476   0.575
   54SOL     OW  183   0.351   1.801   0.853
   54SOL    HW1  184   0.401   1.715   0.859
   54SOL    HW2  185   0.416   1.878   0.850
   55SOL     OW  186   1.795   1.066   0.873
   55SOL    HW1  187   1.733   1.051   0.797
   55SOL    HW2  188   1.743   1.077   0.958
   56SOL     OW  189   1.227   1.550   1.506
   56SOL    HW1  190   1.233   1.473   1.570
   56SOL    HW2  191   1.175   1.524   1.426
   57SOL     OW  192   0.321   0.943   0.242
   57SOL    HW1  193   0.403   0.982   0.200
   57SOL    HW2  194   0.294   0.861   0.193
   58SOL     OW  195   1.458   0.735   0.728
   58SOL    HW1  196   1.453   0.670   0.803
   58SOL    HW2  197   1.538   0.794   0.741
   59SOL     OW  198   0.461   1.266   1.727
   59SOL    HW1  199   0.411   1.267   1.641
   59SOL    HW2  200   0.398   1.248   1.803
   60SOL     OW  201   1.111   1.776   0.237
   60SOL    HW1  202   1.051   1.714   0.287
   60SOL    HW2  203   1.142   1.732   0.152
   61SOL     OW  204   0.202   0.285   1.498
   61SOL    HW1  205   0.122   0.345   1.485
   61SOL    HW2  206   0.192   0.236   1.584
   62SOL     OW  207   1.632   1.377   0.081
   62SOL    HW1  208   1.600   1.471   0.071
   62SOL    HW2  209   1.556   1.314   0.069
   63SOL     OW  210   0.464   1.743   0.323
   63SOL    HW1  211   0.497   1.782   0.409
   63SOL    HW2  212   0.540   1.736   0.258
   64SOL     OW  213   1.400   0.107   0.426
   64SOL    HW1  214   1.376   0.070   0.336
   64SOL    HW2  215   1.499   0.123   0.430
   65SOL     OW  216   0.249   1.785   1.241
   65SOL    HW1  217   0.306   1.720   1.291
   65SOL    HW2  218   0.233   1.752   1.148
   66SOL     OW  219   0.940   1.698   0.904
   66SOL    HW1  220   1.020   1.641   0.925
   66SOL    HW2  221   0.891   1.658   0.827
   67SOL     OW  222   0.382   0.700   0.480
   67SOL    HW1  223   0.427   0.610   0.477
   67SOL    HW2  224   0.288   0.689   0.513
   68SOL     OW  225   1.547   0.222   1.729
   68SOL    HW1  226   1.542   0.259   1.821
   68SOL    HW2  227   1.475   0.153   1.717
   69SOL     OW  228   0.614   0.122   0.117
   69SOL    HW1  229   0.712   0.100   0.124
   69SOL    HW2  230   0.583   0.105   0.024
   70SOL     OW  231   0.781   0.264   1.749
   70SOL    HW1  232   0.848   0.203   1.792
   70SOL    HW2  233   0.708   0.283   1.814
   71SOL     OW  234   0.888   1.514   1.195
   71SOL    HW1  235   0.865   1.489   1.101
   71SOL    HW2  236   0.949   1.445   1.234
   72SOL     OW  237   1.351   0.590   1.433
   72SOL    HW1  238   1.379   0.547   1.518
   72SOL    HW2  239   1.376   0.686   1.434
   73SOL     OW  240   0.803   1.402   0.924
   73SOL    HW1  241   0.893   1.416   0.882
   73SOL    HW2  242   0.732   1.404   0.853
   74SOL     OW  243   0.922   0.503   0.899
   74SOL    HW1  244   0.897   0.494   0.803
   74SOL    HW2  245   0.970   0.421   0.930
   75SOL     OW  246   0.539   0.064   0.512
   75SOL    HW1  247   0.458   0.065   0.570
   75SOL    HW2  248   0.542   0.147   0.457
   76SOL     OW  249   1.434   1.188   0.041
   76SOL    HW1  250   1.466   1.112   0.098
   76SOL    HW2  251   1.342   1.215   0.071
   77SOL     OW  252   0.297   0.035   0.171
   77SOL    HW1  253   0.346   0.119   0.150
   77SOL    HW2  254   0.359  -0.030   0.216
   78SOL     OW  255   0.935   0.236   0.480
   78SOL    HW1  256   0.887   0.277   0.402
   78SOL    HW2  257   1.034   0.234   0.461
   79SOL     OW  258   1.076   0.683   1.464
   79SOL    HW1  259   0.996   0.622   1.467
   79SOL    HW2  260   1.157   0.630   1.440
   80SOL     OW  261   1.227   1.570   0.793
   80SOL    HW1  262   1.248   1.644   0.728
   80SOL    HW2  263   1.295   1.570   0.866
   81SOL     OW  264   0.459   1.152   0.741
   81SOL    HW1  265   0.388   1.125   0.806
   81SOL    HW2  266   0.433   1.124   0.648
   82SOL     OW  267   1.271   1.797   0.591
   82SOL    HW1  268   1.315   1.861   0.527
   82SOL    HW2  269   1.221   1.849   0.661
   83SOL     OW  270   1.032   0.549   0.016
   83SOL    HW1  271   0.991   0.631  -0.023
   83SOL    HW2  272   1.096   0.575   0.089
   84SOL     OW  273   0.078   0.556   1.386
   84SOL    HW1  274   0.170   0.555   1.345
   84SOL    HW2  275   0.072   0.630   1.453
   85SOL     OW  276   0.561   0.222   1.147
   85SOL    HW1  277   0.599   0.138   1.184
   85SOL    HW2  278   0.473   0.241   1.191
   86SOL     OW  279   0.866   0.454   0.642
   86SOL    HW1  280   0.834   0.526   0.580
   86SOL    HW2  281   0.890   0.373   0.589
   87SOL     OW  282   1.017   0.039   0.753
   87SOL    HW1  283   0.945   0.044   0.684
   87SOL    HW2  284   0.993  -0.030   0.822
   88SOL     OW  285   1.429   1.173   0.867
   88SOL    HW1  286   1.374   1.089   0.860
   88SOL    HW2  287   1.455   1.202   0.775
   89SOL     OW  288   1.466   0.590   0.992
   89SOL    HW1  289   1.436   0.495   0.999
   89SOL    HW2  290   1.539   0.606   1.058
   90SOL     OW  291   1.857   0.833   0.377
   90SOL    HW1  292   1.899   0.769   0.441
   90SOL    HW2  293   1.819   0.782   0.299
   91SOL     OW  294   0.488   1.385   0.174
   91SOL    HW1  295   0.401   1.370   0.221
   91SOL    HW2  296   0.471   1.411   0.079
   92SOL     OW  297   1.664   1.280   0.657
   92SOL    HW1  298   1.763   1.288   0.671
   92SOL    HW2  299   1.619   1.364   0.688
   93SOL     OW  300   1.390   0.575   0.078
   93SOL    HW1  301   1.336   0.554   0.159
   93SOL    HW2  302   1.481   0.534   0.087
   94SOL     OW  303   0.527   0.256   0.328
   94SOL    HW1  304   0.554   0.197   0.253
   94SOL    HW2  305   0.527   0.351   0.297
   95SOL     OW  306   1.754   1.223   1.588
   95SOL    HW1  307   1.845   1.184   1.575
   95SOL    HW2  308   1.762   1.319   1.612
   96SOL     OW  309   1.064   1.347   1.340
   96SOL    HW1  310   0.984   1.324   1.395
   96SOL    HW2  311   1.147   1.321   1.389
   97SOL     OW  312   1.111   1.195   1.100
   97SOL    HW1  313   1.071   1.239   1.181
   97SOL    HW2  314   1.070   1.232   1.017
   98SOL     OW  315   1.638   1.099   1.079
   98SOL    HW1  316   1.643   1.180   1.138
   98SOL    HW2  317   1.552   1.101   1.028
   99SOL     OW  318   0.915   0.089   1.402
   99SOL    HW1  319   0.940   0.069   1.307
   99SOL    HW2  320   0.987   0.145   1.444
  100SOL     OW  321   0.980   1.116   1.719
  100SOL    HW1  322   0.881   1.122   1.729
  100SOL    HW2  323   1.003   1.036   1.663
  101SOL     OW  324   0.705   1.050   0.368
  101SOL    HW1  325   0.691   1.057   0.467
  101SOL    HW2  326   0.789   0.999   0.350
  102SOL     OW  327   0.410   0.813   1.251
  102SOL    HW1  328   0.496   0.825   1.301
  102SOL    HW2  329   0.368   0.726   1.278
  103SOL     OW  330   1.274   0.386   1.262
  103SOL    HW1  331   1.295   0.460   1.326
  103SOL    HW2  332   1.185   0.403   1.219
  104SOL     OW  333   0.064   1.564   1.331
  104SOL    HW1  334   0.018   1.646   1.297
  104SOL    HW2  335   0.162   1.583   1.340
  105SOL     OW  336   0.367   1.100   0.501
  105SOL    HW1  337   0.360   1.183   0.445
  105SOL    HW2  338   0.371   1.020   0.441
  106SOL     OW  339   0.566   0.537   0.865
  106SOL    HW1  340   0.578   0.603   0.791
  106SOL    HW2  341   0.612   0.571   0.948
  107SOL     OW  342   1.252   1.348   0.388
  107SOL    HW1  343   1.302   1.425   0.428
  107SOL    HW2  344   1.157   1.350   0.420
  108SOL     OW  345   1.272   1.445   1.142
  108SOL    HW1  346   1.319   1.458   1.229
  108SOL    HW2  347   1.206   1.371   1.151
  109SOL     OW  348   1.582   0.639   0.472
  109SOL    HW1  349   1.551   0.700   0.545
  109SOL    HW2  350   1.632   0.691   0.403
  110SOL     OW  351   0.354   1.510   1.329
  110SOL    HW1  352   0.333   1.466   1.242
  110SOL    HW2  353   0.451   1.536   1.332
  111SOL     OW  354   0.402   0.751   1.598
  111SOL    HW1  355   0.470   0.806   1.551
  111SOL    HW2  356   0.442   0.663   1.625
  112SOL     OW  357   1.587   0.779   1.670
  112SOL    HW1  358   1.495   0.817   1.665
  112SOL    HW2  359   1.647   0.826   1.605
  113SOL     OW  360   1.013   0.105   1.770
  113SOL    HW1  361   1.019   0.190   1.718
  113SOL    HW2  362   1.045   0.029   1.713
  114SOL     OW  363   0.504   0.050   1.740
  114SOL    HW1  364   0.462  -0.007   1.670
  114SOL    HW2  365   0.438   0.119   1.772
  115SOL     OW  366   0.573   0.870   1.029
  115SOL    HW1  367   0.617   0.959   1.020
  115SOL    HW2  368   0.510   0.870   1.106
  116SOL     OW  369   1.360   0.862   1.045
  116SOL    HW1  370   1.285   0.862   0.979
  116SOL    HW2  371   1.397   0.770   1.054
  117SOL     OW  372   1.209   0.525   0.275
  117SOL    HW1  373   1.222   0.441   0.329
  117SOL    HW2  374   1.180   0.599   0.335
  118SOL     OW  375   0.307   0.213   1.231
  118SOL    HW1  376   0.284   0.250   1.321
  118SOL    HW2  377   0.277   0.118   1.225
  119SOL     OW  378   0.037   1.310   1.282
  119SOL    HW1  379   0.090   1.261   1.350
  119SOL    HW2  380   0.059   1.408   1.287
  120SOL     OW  381   0.732   0.634   1.064
  120SOL    HW1  382   0.791   0.608   0.988
  120SOL    HW2  383   0.704   0.730   1.053
  121SOL     OW  384   1.728   0.935   1.854
  121SOL    HW1  385   1.682   0.928   1.765
  121SOL    HW2  386   1.666   0.979   1.920
  122SOL     OW  387   0.307   0.063   0.618
  122SOL    HW1  388   0.296   0.157   0.651
  122SOL    HW2  389   0.302   0.000   0.695
  123SOL     OW  390   1.622   0.367   0.374
  123SOL    HW1  391   1.624   0.291   0.438
  123SOL    HW2  392   1.574   0.444   0.414
  124SOL     OW  393   1.023   0.766   0.966
  124SOL    HW1  394   1.038   0.787   1.062
  124SOL    HW2  395   0.993   0.671   0.957
  125SOL     OW  396   0.980   1.573   1.700
  125SOL    HW1  397   0.960   1.617   1.612
  125SOL    HW2  398   1.019   1.482   1.684
  126SOL     OW  399   0.350   0.898   1.804
  126SOL    HW1  400   0.426   0.942   1.852
  126SOL    HW2  401   0.385   0.851   1.722
  127SOL     OW  402   1.540   0.274   0.125
  127SOL    HW1  403   1.479   0.199   0.148
  127SOL    HW2  404   1.562   0.326   0.208
  128SOL     OW  405   1.303   0.838   0.042
  128SOL    HW1  406   1.337   0.745   0.057
  128SOL    HW2  407   1.321   0.865  -0.053
  129SOL     OW  408   1.068   1.333   0.849
  129SOL    HW1  409   1.075   1.249   0.794
  129SOL    HW2  410   1.130   1.402   0.813
  130SOL     OW  411   0.319   0.810   0.949
  130SOL    HW1  412   0.412   0.846   0.954
  130SOL    HW2  413   0.313   0.725   1.001
  131SOL     OW  414   0.339   0.509   1.006
  131SOL    HW1  415   0.287   0.426   0.989
  131SOL    HW2  416   0.416   0.514   0.942
  132SOL     OW  417   1.138   0.380   1.678
  132SOL    HW1  418   1.093   0.443   1.742
  132SOL    HW2  419   1.231   0.411   1.661
  133SOL     OW  420   1.160   0.207   1.477
  133SOL    HW1  421   1.160   0.271   1.554
  133SOL    HW2  422   1.188   0.255   1.394
  134SOL     OW  423   0.008   1.326   0.200
  134SOL    HW1  424  -0.085   1.347   0.169
  134SOL    HW2  425   0.018   1.227   0.213
  135SOL     OW  426   0.088   1.801   0.927
  135SOL    HW1  427   0.046   1.715   0.900
  135SOL    HW2  428   0.182   1.804   0.893
  136SOL     OW  429   0.504   1.568   0.910
  136SOL    HW1  430   0.570   1.642   0.919
  136SOL    HW2  431   0.548   1.489   0.868
  137SOL     OW  432   1.002   0.796   1.238
  137SOL    HW1  433   1.043   0.764   1.324
  137SOL    HW2  434   0.906   0.769   1.235
  138SOL     OW  435   0.040   0.544   1.114
  138SOL    HW1  436   0.125   0.511   1.073
  138SOL    HW2  437   0.053   0.559   1.212
  139SOL     OW  438   0.189   0.520   1.722
  139SOL    HW1  439   0.248   0.480   1.652
  139SOL    HW2  440   0.131   0.591   1.681
  140SOL     OW  441   1.369   0.950   1.660
  140SOL    HW1  442   1.408   1.039   1.680
  140SOL    HW2  443   1.379   0.930   1.563
  141SOL     OW  444   0.815   0.572   0.325
  141SOL    HW1  445   0.822   0.483   0.279
  141SOL    HW2  446   0.721   0.606   0.317
  142SOL     OW  447   1.657   0.604   1.206
  142SOL    HW1  448   1.619   0.535   1.268
  142SOL    HW2  449   1.739   0.568   1.162
  143SOL     OW  450   0.252   1.564   1.744
  143SOL    HW1  451   0.222   1.621   1.820
  143SOL    HW2  452   0.245   1.467   1.770
  144SOL     OW  453   0.671   0.464   1.269
  144SOL    HW1  454   0.637   0.375   1.239
  144SOL    HW2  455   0.697   0.518   1.189
  145SOL     OW  456   0.930   1.678   1.465
  145SOL    HW1  457   0.906   1.660   1.370
  145SOL    HW2  458   0.960   1.772   1.475
  146SOL     OW  459   0.473   0.500   0.191
  146SOL    HW1  460   0.534   0.580   0.195
  146SOL    HW2  461   0.378   0.531   0.198
  147SOL     OW  462   0.159   1.137   1.466
  147SOL    HW1  463   0.181   1.076   1.542
  147SOL    HW2  464   0.169   1.088   1.380
  148SOL     OW  465   1.347   1.059   1.234
  148SOL    HW1  466   1.371   0.996   1.160
  148SOL    HW2  467   1.257   1.099   1.216
  149SOL     OW  468   1.302   0.855   0.309
  149SOL    HW1  469   1.216   0.824   0.351
  149SOL    HW2  470   1.298   0.841   0.210
  150SOL     OW  471   1.759   1.747   1.154
  150SOL    HW1  472   1.820   1.777   1.081
  150SOL    HW2  473   1.721   1.658   1.132
  151SOL     OW  474   1.252   1.731   1.128
  151SOL    HW1  475   1.336   1.736   1.074
  151SOL    HW2  476   1.229   1.635   1.146
  152SOL     OW  477   0.083   1.258   1.022
  152SOL    HW1  478   0.078   1.257   1.122
  152SOL    HW2  479   0.000   1.217   0.984
  153SOL     OW  480   0.688   1.662   1.716
  153SOL    HW1  481   0.632   1.743   1.725
  153SOL    HW2  482   0.740   1.666   1.630
  154SOL     OW  483   0.903   0.086   0.133
  154SOL    HW1  484   0.954   0.087   0.047
  154SOL    HW2  485   0.959   0.044   0.204
  155SOL     OW  486   1.726   0.135   0.523
  155SOL    HW1  487   1.799   0.118   0.456
  155SOL    HW2  488   1.695   0.048   0.561
  156SOL     OW  489   1.388   1.573   0.477
  156SOL    HW1  490   1.455   1.585   0.403
  156SOL    HW2  491   1.348   1.662   0.500
  157SOL     OW  492   0.130   1.794   1.851
  157SOL    HW1  493   0.089   1.720   1.904
  157SOL    HW2  494   0.194   1.845   1.909
  158SOL     OW  495   1.280   0.927   0.672
  158SOL    HW1  496   1.340   0.846   0.674
  158SOL    HW2  497   1.320   0.996   0.612
  159SOL     OW  498   0.830   1.273   1.422
  159SOL    HW1  499   0.825   1.306   1.517
  159SOL    HW2  500   0.744   1.292   1.376
  160SOL     OW  501   0.672   1.616   0.154
  160SOL    HW1  502   0.681   1.626   0.055
  160SOL    HW2  503   0.632   1.527   0.175
  161SOL     OW  504   1.841   0.175   0.963
  161SOL    HW1  505   1.880   0.090   0.927
  161SOL    HW2  506   1.743   0.177   0.944
  162SOL     OW  507   0.263   0.326   0.720
  162SOL    HW1  508   0.184   0.377   0.686
  162SOL    HW2  509   0.254   0.311   0.818
  163SOL     OW  510   1.194   1.612   0.031
  163SOL    HW1  511   1.200   1.519   0.068
  163SOL    HW2  512   1.135   1.612  -0.049
  164SOL     OW  513   0.822   1.002   1.372
  164SOL    HW1  514   0.862   1.001   1.280
  164SOL    HW2  515   0.832   1.094   1.412
  165SOL     OW  516   0.916   0.910   0.291
  165SOL    HW1  517   0.979   0.948   0.223
  165SOL    HW2  518   0.956   0.827   0.330
  166SOL     OW  519   1.504   1.607   0.044
  166SOL    HW1  520   1.412   1.644   0.051
  166SOL    HW2  521   1.542   1.627  -0.046
  167SOL     OW  522   0.372   1.288   1.490
  167SOL    HW1  523   0.359   1.381   1.456
  167SOL    HW2  524   0.288   1.236   1.477
  168SOL     OW  525   1.614   1.292   1.289
  168SOL    HW1  526   1.674   1.295   1.369
  168SOL    HW2  527   1.539   1.356   1.302
  169SOL     OW  528   1.039   1.098   0.696
  169SOL    HW1  529   0.969   1.051   0.750
  169SOL    HW2  530   1.098   1.030   0.653
  170SOL     OW  531   1.014   0.236   0.971
  170SOL    HW1  532   1.006   0.200   0.878
  170SOL    HW2  533   1.012   0.160   1.036
  171SOL     OW  534   0.590   1.487   0.491
  171SOL    HW1  535   0.632   1.429   0.421
  171SOL    HW2  536   0.546   1.566   0.447
  172SOL     OW  537   1.709   0.385   1.381
  172SOL    HW1  538   1.782   0.454   1.385
  172SOL    HW2  539   1.737   0.310   1.322
  173SOL     OW  540   0.255   1.348   0.290
  173SOL    HW1  541   0.159   1.349   0.263
  173SOL    HW2  542   0.267   1.401   0.374
  174SOL     OW  543   0.105   1.013   1.726
  174SOL    HW1  544   0.028   0.980   1.780
  174SOL    HW2  545   0.190   0.983   1.768
  175SOL     OW  546   0.672   0.203   1.489
  175SOL    HW1  547   0.762   0.187   1.449
  175SOL    HW2  548   0.680   0.208   1.588
  176SOL     OW  549   0.075   0.345   0.033
  176SOL    HW1  550  -0.017   0.317   0.004
  176SOL    HW2  551   0.106   0.422  -0.023
  177SOL     OW  552   1.440   0.856   1.398
  177SOL    HW1  553   1.383   0.908   1.335
  177SOL    HW2  554   1.536   0.868   1.374
  178SOL     OW  555   0.072   0.166   0.318
  178SOL    HW1  556   0.055   0.249   0.264
  178SOL    HW2  557   0.162   0.129   0.296
  179SOL     OW  558   1.183   1.335   0.119
  179SOL    HW1  559   1.084   1.324   0.121
  179SOL    HW2  560   1.217   1.350   0.212
  180SOL     OW  561   0.613   0.842   1.431
  180SOL    HW1  562   0.669   0.923   1.414
  180SOL    HW2  563   0.672   0.762   1.434
  181SOL     OW  564   1.493   1.767   0.959
  181SOL    HW1  565   1.526   1.831   0.890
  181SOL    HW2  566   1.559   1.761   1.034
  182SOL     OW  567   0.716   0.565   1.708
  182SOL    HW1  568   0.735   0.630   1.782
  182SOL    HW2  569   0.776   0.485   1.717
  183SOL     OW  570   1.450   1.220   1.633
  183SOL    HW1  571   1.441   1.210   1.732
  183SOL    HW2  572   1.546   1.213   1.607
  184SOL     OW  573   0.390   1.741   1.560
  184SOL    HW1  574   0.299   1.782   1.558
  184SOL    HW2  575   0.383   1.647   1.592
  185SOL     OW  576   1.674   0.883   1.254
  185SOL    HW1  577   1.647   0.794   1.217
  185SOL    HW2  578   1.675   0.951   1.181
  186SOL     OW  579   1.225   0.325   0.449
  186SOL    HW1  580   1.290   0.251   0.438
  186SOL    HW2  581   1.245   0.375   0.533
  187SOL     OW  582   0.594   0.745   0.652
  187SOL    HW1  583   0.644   0.830   0.633
  187SOL    HW2  584   0.506   0.747   0.604
  188SOL     OW  585   1.777   0.342   1.642
  188SOL    HW1  586   1.760   0.373   1.548
  188SOL    HW2  587   1.693   0.305   1.680
  189SOL     OW  588   1.730   0.934   1.517
  189SOL    HW1  589   1.768   1.025   1.532
  189SOL    HW2  590   1.722   0.917   1.418
  190SOL     OW  591   0.859   1.374   0.016
  190SOL    HW1  592   0.813   1.389   0.104
  190SOL    HW2  593   0.903   1.459  -0.014
  191SOL     OW  594   0.661   1.790   0.953
  191SOL    HW1  595   0.615   1.878   0.940
  191SOL    HW2  596   0.760   1.802   0.946
  192SOL     OW  597   0.859   0.956   0.861
  192SOL    HW1  598   0.913   0.887   0.909
  192SOL    HW2  599   0.827   1.025   0.927
  193SOL     OW  600   1.083   0.984   0.087
  193SOL    HW1  601   1.060   1.037   0.005
  193SOL    HW2  602   1.164   0.928   0.068
  194SOL     OW  603   1.861   1.569   0.851
  194SOL    HW1  604   1.790   1.557   0.781
  194SOL    HW2  605   1.862   1.490   0.911
  195SOL     OW  606   0.221   1.314   1.844
  195SOL    HW1  607   0.156   1.241   1.823
  195SOL    HW2  608   0.225   1.328   1.942
  196SOL     OW  609   0.079   1.240   0.653
  196SOL    HW1  610   0.078   1.193   0.741
  196SOL    HW2  611   0.161   1.212   0.602
  197SOL     OW  612   0.672   1.391   1.624
  197SOL    HW1  613   0.594   1.341   1.662
  197SOL    HW2  614   0.669   1.486   1.655
  198SOL     OW  615   1.824   0.192   1.227
  198SOL    HW1  616   1.820   0.102   1.271
  198SOL    HW2  617   1.827   0.181   1.128
  199SOL     OW  618   0.428   0.424   0.520
  199SOL    HW1  619   0.458   0.352   0.458
  199SOL    HW2  620   0.389   0.384   0.603
  200SOL     OW  621   1.705   1.487   1.104
  200SOL    HW1  622   1.612   1.462   1.077
  200SOL    HW2  623   1.731   1.437   1.186
  201SOL     OW  624   0.317   0.547   1.280
  201SOL    HW1  625   0.355   0.488   1.352
  201SOL    HW2  626   0.357   0.521   1.192
  202SOL     OW  627   0.812   1.586   0.687
  202SOL    HW1  628   0.844   1.596   0.593
  202SOL    HW2  629   0.733   1.524   0.689
  203SOL     OW  630   1.424   0.214   1.112
  203SOL    HW1  631   1.476   0.149   1.167
  203SOL    HW2  632   1.375   0.277   1.173
  204SOL     OW  633   1.001   0.034   1.154
  204SOL    HW1  634   0.938  -0.038   1.123
  204SOL    HW2  635   1.094  -0.002   1.154
  205SOL     OW  636   0.770   1.330   0.301
  205SOL    HW1  637   0.724   1.243   0.318
  205SOL    HW2  638   0.861   1.327   0.342
  206SOL     OW  639   0.618   1.567   1.284
  206SOL    HW1  640   0.613   1.649   1.341
  206SOL    HW2  641   0.707   1.564   1.239
  207SOL     OW  642   1.352   0.052   0.168
  207SOL    HW1  643   1.387   0.011   0.084
  207SOL    HW2  644   1.262   0.014   0.188
  208SOL     OW  645   1.300   0.453   0.691
  208SOL    HW1  646   1.241   0.533   0.695
  208SOL    HW2  647   1.315   0.418   0.784
  209SOL     OW  648   1.593   0.221   0.882
  209SOL    HW1  649   1.509   0.220   0.936
  209SOL    HW2  650   1.595   0.304   0.826
  210SOL     OW  651   0.039   1.077   0.300
  210SOL    HW1  652   0.138   1.066   0.291
  210SOL    HW2  653  -0.001   0.991   0.332
  211SOL     OW  654   0.875   1.646   0.337
  211SOL    HW1  655   0.798   1.611   0.283
  211SOL    HW2  656   0.843   1.717   0.399
  212SOL     OW  657   0.230   0.628   1.975
  212SOL    HW1  658   0.137   0.626   2.012
  212SOL    HW2  659   0.231   0.589   1.883
  213SOL     OW  660   0.225   0.275   2.858
  213SOL    HW1  661   0.260   0.258   2.950
  213SOL    HW2  662   0.137   0.230   2.846
  214SOL     OW  663   0.019   0.368   2.509
  214SOL    HW1  664  -0.063   0.411   2.548
  214SOL    HW2  665  -0.009   0.295   2.446
  215SOL     OW  666   0.569   1.275   3.027
  215SOL    HW1  667   0.476   1.268   2.990
  215SOL    HW2  668   0.580   1.364   3.071
  216SOL     OW  669   1.555   1.511   2.565
  216SOL    HW1  670   1.498   1.495   2.646
  216SOL    HW2  671   1.496   1.521   2.485
  217SOL     OW  672   1.135   0.703   2.579
  217SOL    HW1  673   1.192   0.781   2.554
  217SOL    HW2  674   1.075   0.729   2.655
  218SOL     OW  675   1.755   0.607   2.093
  218SOL    HW1  676   1.743   0.594   1.994
  218SOL    HW2  677   1.725   0.526   2.142
  219SOL     OW  678   0.768   1.144   2.885
  219SOL    HW1  679   0.690   1.161   2.945
  219SOL    HW2  680   0.802   1.231   2.849
  220SOL     OW  681   0.685   1.012   2.527
  220SOL    HW1  682   0.754   0.996   2.597
  220SOL    HW2  683   0.612   1.069   2.565
  221SOL     OW  684   0.335   1.435   2.923
  221SOL    HW1  685   0.257   1.404   2.870
  221SOL    HW2  686   0.393   1.493   2.866
  222SOL     OW  687   1.603   0.447   2.599
  222SOL    HW1  688   1.529   0.493   2.549
  222SOL    HW2  689   1.654   0.515   2.652
  223SOL     OW  690   0.231   1.713   2.345
  223SOL    HW1  691   0.265   1.790   2.399
  223SOL    HW2  692   0.275   1.713   2.255
  224SOL     OW  693   0.230   1.434   2.400
  224SOL    HW1  694   0.204   1.530   2.400
  224SOL    HW2  695   0.159   1.380   2.445
  225SOL     OW  696   0.240   1.091   2.748
  225SOL    HW1  697   0.254   1.007   2.800
  225SOL    HW2  698   0.185   1.155   2.803
  226SOL     OW  699   0.606   0.964   1.985
  226SOL    HW1  700   0.613   1.048   1.931
  226SOL    HW2  701   0.652   0.977   2.073
  227SOL     OW  702   0.122   0.643   2.425
  227SOL    HW1  703   0.077   0.555   2.442
  227SOL    HW2  704   0.121   0.697   2.509
  228SOL     OW  705   1.842   1.767   2.221
  228SOL    HW1  706   1.896   1.738   2.301
  228SOL    HW2  707   1.872   1.857   2.192
  229SOL     OW  708   0.027   1.596   1.979
  229SOL    HW1  709   0.008   1.500   2.000
  229SOL    HW2  710  -0.006   1.654   2.054
  230SOL     OW  711   1.689   0.922   2.474
  230SOL    HW1  712   1.784   0.893   2.482
  230SOL    HW2  713   1.681   0.987   2.399
  231SOL     OW  714   1.641   1.108   2.294
  231SOL    HW1  715   1.727   1.110   2.242
  231SOL    HW2  716   1.655   1.155   2.382
  232SOL     OW  717   0.613   1.365   2.588
  232SOL    HW1  718   0.564   1.278   2.597
  232SOL    HW2  719   0.590   1.408   2.501
  233SOL     OW  720   0.809   0.004   2.364
  233SOL    HW1  721   0.849   0.095   2.355
  233SOL    HW2  722   0.709   0.012   2.370
  234SOL     OW  723   0.197   0.976   3.126
  234SOL    HW1  724   0.286   0.931   3.112
  234SOL    HW2  725   0.124   0.911   3.107
  235SOL     OW  726   1.525   0.999   2.052
  235SOL    HW1  727   1.462   0.923   2.065
  235SOL    HW2  728   1.573   1.017   2.138
  236SOL     OW  729   1.466   1.417   2.815
  236SOL    HW1  730   1.407   1.423   2.895
  236SOL    HW2  731   1.451   1.329   2.769
  237SOL     OW  732   1.667   1.714   2.434
  237SOL    HW1  733   1.626   1.691   2.346
  237SOL    HW2  734   1.649   1.640   2.499
  238SOL     OW  735   0.598   0.729   2.132
  238SOL    HW1  736   0.622   0.798   2.064
  238SOL    HW2  737   0.520   0.762   2.186
  239SOL     OW  738   1.281   0.345   2.806
  239SOL    HW1  739   1.195   0.295   2.793
  239SOL    HW2  740   1.343   0.291   2.862
  240SOL     OW  741   1.576   1.662   2.169
  240SOL    HW1  742   1.665   1.708   2.172
  240SOL    HW2  743   1.555   1.638   2.074
  241SOL     OW  744   1.041   0.701   2.291
  241SOL    HW1  745   1.067   0.697   2.387
  241SOL    HW2  746   0.956   0.650   2.277
  242SOL     OW  747   0.076   0.811   2.651
  242SOL    HW1  748   0.175   0.799   2.660
  242SOL    HW2  749   0.052   0.906   2.672
  243SOL     OW  750   0.130   1.821   3.433
  243SOL    HW1  751   0.120   1.806   3.532
  243SOL    HW2  752   0.044   1.857   3.397
  244SOL     OW  753   0.865   0.348   2.057
  244SOL    HW1  754   0.924   0.411   2.008
  244SOL    HW2  755   0.884   0.254   2.028
  245SOL     OW  756   1.362   1.144   2.407
  245SOL    HW1  757   1.445   1.115   2.359
  245SOL    HW2  758   1.313   1.211   2.351
  246SOL     OW  759   0.550   0.196   2.747
  246SOL    HW1  760   0.545   0.191   2.847
  246SOL    HW2  761   0.552   0.292   2.718
  247SOL     OW  762   1.008   1.456   2.339
  247SOL    HW1  763   0.962   1.528   2.287
  247SOL    HW2  764   1.004   1.476   2.437
  248SOL     OW  765   0.351   1.801   2.715
  248SOL    HW1  766   0.401   1.715   2.721
  248SOL    HW2  767   0.416   1.878   2.712
  249SOL     OW  768   1.795   1.066   2.735
  249SOL    HW1  769   1.733   1.051   2.659
  249SOL    HW2  770   1.743   1.077   2.820
  250SOL     OW  771   0.321   0.943   2.104
  250SOL    HW1  772   0.403   0.982   2.062
  250SOL    HW2  773   0.294   0.861   2.055
  251SOL     OW  774   1.458   0.735   2.590
  251SOL    HW1  775   1.453   0.670   2.665
  251SOL    HW2  776   1.538   0.794   2.603
  252SOL     OW  777   1.632   1.377   1.943
  252SOL    HW1  778   1.600   1.471   1.933
  252SOL    HW2  779   1.556   1.314   1.931
  253SOL     OW  780   0.464   1.743   2.185
  253SOL    HW1  781   0.497   1.782   2.271
  253SOL    HW2  782   0.540   1.736   2.120
  254SOL     OW  783   1.400   0.107   2.288
  254SOL    HW1  784   1.376   0.070   2.198
  254SOL    HW2  785   1.499   0.123   2.292
  255SOL     OW  786   0.249   1.785   3.103
  255SOL    HW1  787   0.306   1.720   3.153
  255SOL    HW2  788   0.233   1.752   3.010
  256SOL     OW  789   0.940   1.698   2.766
  256SOL    HW1  790   1.020   1.641   2.787
  256SOL    HW2  791   0.891   1.658   2.689
  257SOL     OW  792   0.382   0.700   2.342
  257SOL    HW1  793   0.427   0.610   2.339
  257SOL    HW2  794   0.288   0.689   2.375
  258SOL     OW  795   0.614   0.122   1.979
  258SOL    HW1  796   0.712   0.100   1.986
  258SOL    HW2  797   0.583   0.105   1.886
  259SOL     OW  798   0.803   1.402   2.786
  259SOL    HW1  799   0.893   1.416   2.744
  259SOL    HW2  800   0.732   1.404   2.715
  260SOL     OW  801   0.922   0.503   2.761
  260SOL    HW1  802   0.897   0.494   2.665
  260SOL    HW2  803   0.970   0.421   2.792
  261SOL     OW  804   0.539   0.064   2.374
  261SOL    HW1  805   0.458   0.065   2.432
  261SOL    HW2  806   0.542   0.147   2.319
  262SOL     OW  807   1.434   1.188   1.903
  262SOL    HW1  808   1.466   1.112   1.960
  262SOL    HW2  809   1.342   1.215   1.933
  263SOL     OW  810   0.297   0.035   2.033
  263SOL    HW1  811   0.346   0.119   2.012
  263SOL    HW2  812   0.359  -0.030   2.078
  264SOL     OW  813   0.935   0.236   2.342
  264SOL    HW1  814   0.887   0.277   2.264
  264SOL    HW2  815   1.034   0.234   2.323
  265SOL     OW  816   1.227   1.570   2.655
  265SOL    HW1  817   1.248   1.644   2.590
  265SOL    HW2  818   1.295   1.570   2.728
  266SOL     OW  819   0.459   1.152   2.603
  266SOL    HW1  820   0.388   1.125   2.668
  266SOL    HW2  821   0.433   1.124   2.510
  267SOL     OW  822   1.271   1.797   2.453
  267SOL    HW1  823   1.315   1.861   2.389
  267SOL    HW2  824   1.221   1.849   2.523
  268SOL     OW  825   1.032   0.549   1.878
  268SOL    HW1  826   0.991   0.631   1.839
  268SOL    HW2  827   1.096   0.575   1.951
  269SOL     OW  828   0.561   0.222   3.009
  269SOL    HW1  829   0.599   0.138   3.046
  269SOL    HW2  830   0.473   0.241   3.053
  270SOL     OW  831   0.866   0.454   2.504
  270SOL    HW1  832   0.834   0.526   2.442
  270SOL    HW2  833   0.890   0.373   2.451
  271SOL     OW  834   1.017   0.039   2.615
  271SOL    HW1  835   0.945   0.044   2.546
  271SOL    HW2  836   0.993  -0.030   2.684
  272SOL     OW  837   1.429   1.173   2.729
  272SOL    HW1  838   1.374   1.089   2.722
  272SOL    HW2  839   1.455   1.202   2.637
  273SOL     OW  840   1.466   0.590   2.854
  273SOL    HW1  841   1.436   0.495   2.861
  273SOL    HW2  842   1.539   0.606   2.920
  274SOL     OW  843   1.857   0.833   2.239
  274SOL    HW1  844   1.899   0.769   2.303
  274SOL    HW2  845   1.819   0.782   2.161
  275SOL     OW  846   0.488   1.385   2.036
  275SOL    HW1  847   0.401   1.370   2.083
  275SOL    HW2  848   0.471   1.411   1.941
  276SOL     OW  849   1.664   1.280   2.519
  276SOL    HW1  850   1.763   1.288   2.533
  276SOL    HW2  851   1.619   1.364   2.550
  277SOL     OW  852   1.390   0.575   1.940
  277SOL    HW1  853   1.336   0.554   2.021
  277SOL    HW2  854   1.481   0.534   1.949
  278SOL     OW  855   0.527   0.256   2.190
  278SOL    HW1  856   0.554   0.197   2.115
  278SOL    HW2  857   0.527   0.351   2.159
  279SOL     OW  858   1.111   1.195   2.962
  279SOL    HW1  859   1.071   1.239   3.043
  279SOL    HW2  860   1.070   1.232   2.879
  280SOL     OW  861   1.638   1.099   2.941
  280SOL    HW1  862   1.643   1.180   3.000
  280SOL    HW2  863   1.552   1.101   2.890
  281SOL     OW  864   0.705   1.050   2.230
  281SOL    HW1  865   0.691   1.057   2.329
  281SOL    HW2  866   0.789   0.999   2.212
  282SOL     OW  867   0.410   0.813   3.113
  282SOL    HW1  868   0.496   0.825   3.163
  282SOL    HW2  869   0.368   0.726   3.140
  283SOL     OW  870   1.274   0.386   3.124
  283SOL    HW1  871   1.295   0.460   3.188
  283SOL    HW2  872   1.185   0.403   3.081
  284SOL     OW  873   0.367   1.100   2.363
  284SOL    HW1  874   0.360   1.183   2.307
  284SOL    HW2  875   0.371   1.020   2.303
  285SOL     OW  876   0.566   0.537   2.727
  285SOL    HW1  877   0.578   0.603   2.653
  285SOL    HW2  878   0.612   0.571   2.810
  286SOL     OW  879   1.252   1.348   2.250
  286SOL    HW1  880   1.302   1.425   2.290
  286SOL    HW2  881   1.157   1.350   2.282
  287SOL     OW  882   1.272   1.445   3.004
  287SOL    HW1  883   1.319   1.458   3.091
  287SOL    HW2  884   1.206   1.371   3.013
  288SOL     OW  885   1.582   0.639   2.334
  288SOL    HW1  886   1.551   0.700   2.407
  288SOL    HW2  887   1.632   0.691   2.265
  289SOL     OW  888   0.573   0.870   2.891
  289SOL    HW1  889   0.617   0.959   2.882
  289SOL    HW2  890   0.510   0.870   2.968
  290SOL     OW  891   1.360   0.862   2.907
  290SOL    HW1  892   1.285   0.862   2.841
  290SOL    HW2  893   1.397   0.770   2.916
  291SOL     OW  894   1.209   0.525   2.137
  291SOL    HW1  895   1.222   0.441   2.191
  291SOL    HW2  896   1.180   0.599   2.197
  292SOL     OW  897   0.307   0.213   3.093
  292SOL    HW1  898   0.284   0.250   3.183
  292SOL    HW2  899   0.277   0.118   3.087
  293SOL     OW  900   0.037   1.310   3.144
  293SOL    HW1  901   0.090   1.261   3.212
  293SOL    HW2  902   0.059   1.408   3.149
  294SOL     OW  903   0.732   0.634   2.926
  294SOL    HW1  904   0.791   0.608   2.850
  294SOL    HW2  905   0.704   0.730   2.915
  295SOL     OW  906   0.307   0.063   2.480
  295SOL    HW1  907   0.296   0.157   2.513
  295SOL    HW2  908   0.302   0.000   2.557
  296SOL     OW  909   1.622   0.367   2.236
  296SOL    HW1  910   1.624   0.291   2.300
  296SOL    HW2  911   1.574   0.444   2.276
  297SOL     OW  912   1.023   0.766   2.828
  297SOL    HW1  913   1.038   0.787   2.924
  297SOL    HW2  914   0.993   0.671   2.819
  298SOL     OW  915   1.540   0.274   1.987
  298SOL    HW1  916   1.479   0.199   2.010
  298SOL    HW2  917   1.562   0.326   2.070
  299SOL     OW  918   1.303   0.838   1.904
  299SOL    HW1  919   1.337   0.745   1.919
  299SOL    HW2  920   1.321   0.865   1.809
  300SOL     OW  921   1.068   1.333   2.711
  300SOL    HW1  922   1.075   1.249   2.656
  300SOL    HW2  923   1.130   1.402   2.675
  301SOL     OW  924   0.319   0.810   2.811
  301SOL    HW1  925   0.412   0.846   2.816
  301SOL    HW2  926   0.313   0.725   2.863
  302SOL     OW  927   0.339   0.509   2.868
  302SOL    HW1  928   0.287   0.426   2.851
  302SOL    HW2  929   0.416   0.514   2.804
  303SOL     OW  930   1.160   0.207   3.339
  303SOL    HW1  931   1.160   0.271   3.416
  303SOL    HW2  932   1.188   0.255   3.256
  304SOL     OW  933   0.008   1.326   2.062
  304SOL    HW1  934  -0.085   1.347   2.031
  304SOL    HW2  935   0.018   1.227   2.075
  305SOL     OW  936   0.088   1.801   2.789
  305SOL    HW1  937   0.046   1.715   2.762
  305SOL    HW2  938   0.182   1.804   2.755
  306SOL     OW  939   0.504   1.568   2.772
  306SOL    HW1  940   0.570   1.642   2.781
  306SOL    HW2  941   0.548   1.489   2.730
  307SOL     OW  942   1.002   0.796   3.100
  307SOL    HW1  943   1.043   0.764   3.186
  307SOL    HW2  944   0.906   0.769   3.097
  308SOL     OW  945   0.040   0.544   2.976
  308SOL    HW1  946   0.125   0.511   2.935
  308SOL    HW2  947   0.053   0.559   3.074
  309SOL     OW  948   0.815   0.572   2.187
  309SOL    HW1  949   0.822   0.483   2.141
  309SOL    HW2  950   0.721   0.606   2.179
  310SOL     OW  951   1.657   0.604   3.068
  310SOL    HW1  952   1.619   0.535   3.130
  310SOL    HW2  953   1.739   0.568   3.024
  311SOL     OW  954   0.671   0.464   3.131
  311SOL    HW1  955   0.637   0.375   3.101
  311SOL    HW2  956   0.697   0.518   3.051
  312SOL     OW  957   0.930   1.678   3.327
  312SOL    HW1  958   0.906   1.660   3.232
  312SOL    HW2  959   0.960   1.772   3.337
  313SOL     OW  960   0.473   0.500   2.053
  313SOL    HW1  961   0.534   0.580   2.057
  313SOL    HW2  962   0.378   0.531   2.060
  314SOL     OW  963   1.347   1.059   3.096
  314SOL    HW1  964   1.371   0.996   3.022
  314SOL    HW2  965   1.257   1.099   3.078
  315SOL     OW  966   1.302   0.855   2.171
  315SOL    HW1  967   1.216   0.824   2.213
  315SOL    HW2  968   1.298   0.841   2.072
  316SOL     OW  969   1.759   1.747   3.016
  316SOL    HW1  970   1.820   1.777   2.943
  316SOL    HW2  971   1.721   1.658   2.994
  317SOL     OW  972   1.252   1.731   2.990
  317SOL    HW1  973   1.336   1.736   2.936
  317SOL    HW2  974   1.229   1.635   3.008
  318SOL     OW  975   0.083   1.258   2.884
  318SOL    HW1  976   0.078   1.257   2.984
  318SOL    HW2  977   0.000   1.217   2.846
  319SOL     OW  978   1.726   0.135   2.385
  319SOL    HW1  979   1.799   0.118   2.318
  319SOL    HW2  980   1.695   0.048   2.423
  320SOL     OW  981   1.388   1.573   2.339
  320SOL    HW1  982   1.455   1.585   2.265
  320SOL    HW2  983   1.348   1.662   2.362
  321SOL     OW  984   1.280   0.927   2.534
  321SOL    HW1  985   1.340   0.846   2.536
  321SOL    HW2  986   1.320   0.996   2.474
  322SOL     OW  987   0.672   1.616   2.016
  322SOL    HW1  988   0.681   1.626   1.917
  322SOL    HW2  989   0.632   1.527   2.037
  323SOL     OW  990   1.650   1.720   3.256
  323SOL    HW1  991   1.703   1.730   3.172
  323SOL    HW2  992   1.623   1.810   3.290
  324SOL     OW  993   1.841   0.175   2.825
  324SOL    HW1  994   1.880   0.090   2.789
  324SOL    HW2  995   1.743   0.177   2.806
  325SOL     OW  996   0.263   0.326   2.582
  325SOL    HW1  997   0.184   0.377   2.548
  325SOL    HW2  998   0.254   0.311   2.680
  326SOL     OW  999   0.822   1.002   3.234
  326SOL    HW1 1000   0.862   1.001   3.142
  326SOL    HW2 1001   0.832   1.094   3.274
  327SOL     OW 1002   0.916   0.910   2.153
  327SOL    HW1 1003   0.979   0.948   2.085
  327SOL    HW2 1004   0.956   0.827   2.192
  328SOL     OW 1005   1.039   1.098   2.558
  328SOL    HW1 1006   0.969   1.051   2.612
  328SOL    HW2 1007   1.098   1.030   2.515
  329SOL     OW 1008   1.014   0.236   2.833
  329SOL    HW1 1009   1.006   0.200   2.740
  329SOL    HW2 1010   1.012   0.160   2.898
  330SOL     OW 1011   0.590   1.487   2.353
  330SOL    HW1 1012   0.632   1.429   2.283
  330SOL    HW2 1013   0.546   1.566   2.309
  331SOL     OW 1014   1.709   0.385   3.243
  331SOL    HW1 1015   1.782   0.454   3.247
  331SOL    HW2 1016   1.737   0.310   3.184
  332SOL     OW 1017   0.255   1.348   2.152
  332SOL    HW1 1018   0.159   1.349   2.125
  332SOL    HW2 1019   0.267   1.401   2.236
  333SOL     OW 1020   0.075   0.345   1.895
  333SOL    HW1 1021  -0.017   0.317   1.866
  333SOL    HW2 1022   0.106   0.422   1.839
  334SOL     OW 1023   0.072   0.166   2.180
  334SOL    HW1 1024   0.055   0.249   2.126
  334SOL    HW2 1025   0.162   0.129   2.158
  335SOL     OW 1026   1.183   1.335   1.981
  335SOL    HW1 1027   1.084   1.324   1.983
  335SOL    HW2 1028   1.217   1.350   2.074
  336SOL     OW 1029   1.493   1.767   2.821
  336SOL    HW1 1030   1.526   1.831   2.752
  336SOL    HW2 1031   1.559   1.761   2.896
  337SOL     OW 1032   1.674   0.883   3.116
  337SOL    HW1 1033   1.647   0.794   3.079
  337SOL    HW2 1034   1.675   0.951   3.043
  338SOL     OW 1035   1.225   0.325   2.311
  338SOL    HW1 1036   1.290   0.251   2.300
  338SOL    HW2 1037   1.245   0.375   2.395
  339SOL     OW 1038   0.594   0.745   2.514
  339SOL    HW1 1039   0.644   0.830   2.495
  339SOL    HW2 1040   0.506   0.747   2.466
  340SOL     OW 1041   1.730   0.934   3.379
  340SOL    HW1 1042   1.768   1.025   3.394
  340SOL    HW2 1043   1.722   0.917   3.280
  341SOL     OW 1044   0.859   1.374   1.878
  341SOL    HW1 1045   0.813   1.389   1.966
  341SOL    HW2 1046   0.903   1.459   1.848
  342SOL     OW 1047   0.661   1.790   2.815
  342SOL    HW1 1048   0.615   1.878   2.802
  342SOL    HW2 1049   0.760   1.802   2.808
  343SOL     OW 1050   0.859   0.956   2.723
  343SOL    HW1 1051   0.913   0.887   2.771
  343SOL    HW2 1052   0.827   1.025   2.789
  344SOL     OW 1053   1.083   0.984   1.949
  344SOL    HW1 1054   1.060   1.037   1.867
  344SOL    HW2 1055   1.164   0.928   1.930
  345SOL     OW 1056   1.861   1.569   2.713
  345SOL    HW1 1057   1.790   1.557   2.643
  345SOL    HW2 1058   1.862   1.490   2.773
  346SOL     OW 1059   0.079   1.240   2.515
  346SOL    HW1 1060   0.078   1.193   2.603
  346SOL    HW2 1061   0.161   1.212   2.464
  347SOL     OW 1062   1.824   0.192   3.089
  347SOL    HW1 1063   1.820   0.102   3.133
  347SOL    HW2 1064   1.827   0.181   2.990
  348SOL     OW 1065   0.428   0.424   2.382
  348SOL    HW1 1066   0.458   0.352   2.320
  348SOL    HW2 1067   0.389   0.384   2.465
  349SOL     OW 1068   1.705   1.487   2.966
  349SOL    HW1 1069   1.612   1.462   2.939
  349SOL    HW2 1070   1.731   1.437   3.048
  350SOL     OW 1071   0.812   1.586   2.549
  350SOL    HW1 1072   0.844   1.596   2.455
  350SOL    HW2 1073   0.733   1.524   2.551
  351SOL     OW 1074   1.424   0.214   2.974
  351SOL    HW1 1075   1.476   0.149   3.029
  351SOL    HW2 1076   1.375   0.277   3.035
  352SOL     OW 1077   1.001   0.034   3.016
  352SOL    HW1 1078   0.938  -0.038   2.985
  352SOL    HW2 1079   1.094  -0.002   3.016
  353SOL     OW 1080   0.770   1.330   2.163
  353SOL    HW1 1081   0.724   1.243   2.180
  353SOL    HW2 1082   0.861   1.327   2.204
  354SOL     OW 1083   1.352   0.052   2.030
  354SOL    HW1 1084   1.387   0.011   1.946
  354SOL    HW2 1085   1.262   0.014   2.050
  355SOL     OW 1086   1.300   0.453   2.553
  355SOL    HW1 1087   1.241   0.533   2.557
  355SOL    HW2 1088   1.315   0.418   2.646
  356SOL     OW 1089   1.593   0.221   2.744
  356SOL    HW1 1090   1.509   0.220   2.798
  356SOL    HW2 1091   1.595   0.304   2.688
  357SOL     OW 1092   0.039   1.077   2.162
  357SOL    HW1 1093   0.138   1.066   2.153
  357SOL    HW2 1094  -0.001   0.991   2.194
  358SOL     OW 1095   0.875   1.646   2.199
  358SOL    HW1 1096   0.798   1.611   2.145
  358SOL    HW2 1097   0.843   1.717   2.261
  359SOL     OW 1098   0.230   2.490   0.113
  359SOL    HW1 1099   0.137   2.488   0.150
  359SOL    HW2 1100   0.231   2.451   0.021
  360SOL     OW 1101   0.225   2.137   0.996
  360SOL    HW1 1102   0.260   2.120   1.088
  360SOL    HW2 1103   0.137   2.092   0.984
  361SOL     OW 1104   0.019   2.230   0.647
  361SOL    HW1 1105  -0.063   2.273   0.686
  361SOL    HW2 1106  -0.009   2.157   0.584
  362SOL     OW 1107   1.135   2.565   0.717
  362SOL    HW1 1108   1.192   2.643   0.692
  362SOL    HW2 1109   1.075   2.591   0.793
  363SOL     OW 1110   1.755   2.469   0.231
  363SOL    HW1 1111   1.743   2.456   0.132
  363SOL    HW2 1112   1.725   2.388   0.280
  364SOL     OW 1113   0.768   3.006   1.023
  364SOL    HW1 1114   0.690   3.023   1.083
  364SOL    HW2 1115   0.802   3.093   0.987
  365SOL     OW 1116   0.850   2.660   1.823
  365SOL    HW1 1117   0.846   2.736   1.888
  365SOL    HW2 1118   0.872   2.696   1.732
  366SOL     OW 1119   0.685   2.874   0.665
  366SOL    HW1 1120   0.754   2.858   0.735
  366SOL    HW2 1121   0.612   2.931   0.703
  367SOL     OW 1122   0.686   3.023   1.803
  367SOL    HW1 1123   0.746   3.102   1.817
  367SOL    HW2 1124   0.600   3.054   1.762
  368SOL     OW 1125   0.438   2.254   1.499
  368SOL    HW1 1126   0.520   2.198   1.508
  368SOL    HW2 1127   0.357   2.196   1.503
  369SOL     OW 1128   1.603   2.309   0.737
  369SOL    HW1 1129   1.529   2.355   0.687
  369SOL    HW2 1130   1.654   2.377   0.790
  370SOL     OW 1131   0.240   2.953   0.886
  370SOL    HW1 1132   0.254   2.869   0.938
  370SOL    HW2 1133   0.185   3.017   0.941
  371SOL     OW 1134   0.606   2.826   0.123
  371SOL    HW1 1135   0.613   2.910   0.069
  371SOL    HW2 1136   0.652   2.839   0.211
  372SOL     OW 1137   1.594   1.976   1.480
  372SOL    HW1 1138   1.576   2.043   1.408
  372SOL    HW2 1139   1.591   2.022   1.569
  373SOL     OW 1140   0.122   2.505   0.563
  373SOL    HW1 1141   0.077   2.417   0.580
  373SOL    HW2 1142   0.121   2.559   0.647
  374SOL     OW 1143   1.689   2.784   0.612
  374SOL    HW1 1144   1.784   2.755   0.620
  374SOL    HW2 1145   1.681   2.849   0.537
  375SOL     OW 1146   1.641   2.970   0.432
  375SOL    HW1 1147   1.727   2.972   0.380
  375SOL    HW2 1148   1.655   3.017   0.520
  376SOL     OW 1149   0.113   2.599   1.597
  376SOL    HW1 1150   0.201   2.586   1.642
  376SOL    HW2 1151   0.100   2.696   1.575
  377SOL     OW 1152   1.293   3.090   1.423
  377SOL    HW1 1153   1.330   3.017   1.365
  377SOL    HW2 1154   1.345   3.095   1.508
  378SOL     OW 1155   0.809   1.866   0.502
  378SOL    HW1 1156   0.849   1.957   0.493
  378SOL    HW2 1157   0.709   1.874   0.508
  379SOL     OW 1158   0.197   2.838   1.264
  379SOL    HW1 1159   0.286   2.793   1.250
  379SOL    HW2 1160   0.124   2.773   1.245
  380SOL     OW 1161   1.525   2.861   0.190
  380SOL    HW1 1162   1.462   2.785   0.203
  380SOL    HW2 1163   1.573   2.879   0.276
  381SOL     OW 1164   0.317   2.113   1.801
  381SOL    HW1 1165   0.388   2.184   1.807
  381SOL    HW2 1166   0.229   2.152   1.829
  382SOL     OW 1167   0.598   2.591   0.270
  382SOL    HW1 1168   0.622   2.660   0.202
  382SOL    HW2 1169   0.520   2.624   0.324
  383SOL     OW 1170   1.281   2.207   0.944
  383SOL    HW1 1171   1.195   2.157   0.931
  383SOL    HW2 1172   1.343   2.153   1.000
  384SOL     OW 1173   0.807   2.467   1.465
  384SOL    HW1 1174   0.760   2.464   1.554
  384SOL    HW2 1175   0.756   2.412   1.399
  385SOL     OW 1176   1.394   2.331   1.674
  385SOL    HW1 1177   1.374   2.374   1.762
  385SOL    HW2 1178   1.472   2.269   1.683
  386SOL     OW 1179   0.973   2.752   1.572
  386SOL    HW1 1180   1.019   2.668   1.543
  386SOL    HW2 1181   0.917   2.786   1.497
  387SOL     OW 1182   0.991   2.272   1.242
  387SOL    HW1 1183   0.914   2.306   1.296
  387SOL    HW2 1184   0.957   2.221   1.163
  388SOL     OW 1185   1.041   2.563   0.429
  388SOL    HW1 1186   1.067   2.559   0.525
  388SOL    HW2 1187   0.956   2.512   0.415
  389SOL     OW 1188   0.076   2.673   0.789
  389SOL    HW1 1189   0.175   2.661   0.798
  389SOL    HW2 1190   0.052   2.768   0.810
  390SOL     OW 1191   0.865   2.210   0.195
  390SOL    HW1 1192   0.924   2.273   0.146
  390SOL    HW2 1193   0.884   2.116   0.166
  391SOL     OW 1194   1.719   2.447   1.831
  391SOL    HW1 1195   1.693   2.536   1.795
  391SOL    HW2 1196   1.717   2.379   1.758
  392SOL     OW 1197   1.362   3.006   0.545
  392SOL    HW1 1198   1.445   2.977   0.497
  392SOL    HW2 1199   1.313   3.073   0.489
  393SOL     OW 1200   0.550   2.058   0.885
  393SOL    HW1 1201   0.545   2.053   0.985
  393SOL    HW2 1202   0.552   2.154   0.856
  394SOL     OW 1203   1.795   2.928   0.873
  394SOL    HW1 1204   1.733   2.913   0.797
  394SOL    HW2 1205   1.743   2.939   0.958
  395SOL     OW 1206   0.321   2.805   0.242
  395SOL    HW1 1207   0.403   2.844   0.200
  395SOL    HW2 1208   0.294   2.723   0.193
  396SOL     OW 1209   1.458   2.597   0.728
  396SOL    HW1 1210   1.453   2.532   0.803
  396SOL    HW2 1211   1.538   2.656   0.741
  397SOL     OW 1212   0.202   2.147   1.498
  397SOL    HW1 1213   0.122   2.207   1.485
  397SOL    HW2 1214   0.192   2.098   1.584
  398SOL     OW 1215   1.400   1.969   0.426
  398SOL    HW1 1216   1.376   1.932   0.336
  398SOL    HW2 1217   1.499   1.985   0.430
  399SOL     OW 1218   0.382   2.562   0.480
  399SOL    HW1 1219   0.427   2.472   0.477
  399SOL    HW2 1220   0.288   2.551   0.513
  400SOL     OW 1221   1.547   2.084   1.729
  400SOL    HW1 1222   1.542   2.121   1.821
  400SOL    HW2 1223   1.475   2.015   1.717
  401SOL     OW 1224   0.614   1.984   0.117
  401SOL    HW1 1225   0.712   1.962   0.124
  401SOL    HW2 1226   0.583   1.967   0.024
  402SOL     OW 1227   0.781   2.126   1.749
  402SOL    HW1 1228   0.848   2.065   1.792
  402SOL    HW2 1229   0.708   2.145   1.814
  403SOL     OW 1230   1.351   2.452   1.433
  403SOL    HW1 1231   1.379   2.409   1.518
  403SOL    HW2 1232   1.376   2.548   1.434
  404SOL     OW 1233   0.803   3.264   0.924
  404SOL    HW1 1234   0.893   3.278   0.882
  404SOL    HW2 1235   0.732   3.266   0.853
  405SOL     OW 1236   0.922   2.365   0.899
  405SOL    HW1 1237   0.897   2.356   0.803
  405SOL    HW2 1238   0.970   2.283   0.930
  406SOL     OW 1239   0.539   1.926   0.512
  406SOL    HW1 1240   0.458   1.927   0.570
  406SOL    HW2 1241   0.542   2.009   0.457
  407SOL     OW 1242   0.297   1.897   0.171
  407SOL    HW1 1243   0.346   1.981   0.150
  407SOL    HW2 1244   0.359   1.832   0.216
  408SOL     OW 1245   0.935   2.098   0.480
  408SOL    HW1 1246   0.887   2.139   0.402
  408SOL    HW2 1247   1.034   2.096   0.461
  409SOL     OW 1248   1.076   2.545   1.464
  409SOL    HW1 1249   0.996   2.484   1.467
  409SOL    HW2 1250   1.157   2.492   1.440
  410SOL     OW 1251   0.459   3.014   0.741
  410SOL    HW1 1252   0.388   2.987   0.806
  410SOL    HW2 1253   0.433   2.986   0.648
  411SOL     OW 1254   1.032   2.411   0.016
  411SOL    HW1 1255   0.991   2.493  -0.023
  411SOL    HW2 1256   1.096   2.437   0.089
  412SOL     OW 1257   0.078   2.418   1.386
  412SOL    HW1 1258   0.170   2.417   1.345
  412SOL    HW2 1259   0.072   2.492   1.453
  413SOL     OW 1260   0.561   2.084   1.147
  413SOL    HW1 1261   0.599   2.000   1.184
  413SOL    HW2 1262   0.473   2.103   1.191
  414SOL     OW 1263   0.866   2.316   0.642
  414SOL    HW1 1264   0.834   2.388   0.580
  414SOL    HW2 1265   0.890   2.235   0.589
  415SOL     OW 1266   1.017   1.901   0.753
  415SOL    HW1 1267   0.945   1.906   0.684
  415SOL    HW2 1268   0.993   1.832   0.822
  416SOL     OW 1269   1.429   3.035   0.867
  416SOL    HW1 1270   1.374   2.951   0.860
  416SOL    HW2 1271   1.455   3.064   0.775
  417SOL     OW 1272   1.466   2.452   0.992
  417SOL    HW1 1273   1.436   2.357   0.999
  417SOL    HW2 1274   1.539   2.468   1.058
  418SOL     OW 1275   1.857   2.695   0.377
  418SOL    HW1 1276   1.899   2.631   0.441
  418SOL    HW2 1277   1.819   2.644   0.299
  419SOL     OW 1278   1.390   2.437   0.078
  419SOL    HW1 1279   1.336   2.416   0.159
  419SOL    HW2 1280   1.481   2.396   0.087
  420SOL     OW 1281   0.527   2.118   0.328
  420SOL    HW1 1282   0.554   2.059   0.253
  420SOL    HW2 1283   0.527   2.213   0.297
  421SOL     OW 1284   1.754   3.085   1.588
  421SOL    HW1 1285   1.845   3.046   1.575
  421SOL    HW2 1286   1.762   3.181   1.612
  422SOL     OW 1287   1.638   2.961   1.079
  422SOL    HW1 1288   1.643   3.042   1.138
  422SOL    HW2 1289   1.552   2.963   1.028
  423SOL     OW 1290   0.915   1.951   1.402
  423SOL    HW1 1291   0.940   1.931   1.307
  423SOL    HW2 1292   0.987   2.007   1.444
  424SOL     OW 1293   0.980   2.978   1.719
  424SOL    HW1 1294   0.881   2.984   1.729
  424SOL    HW2 1295   1.003   2.898   1.663
  425SOL     OW 1296   0.705   2.912   0.368
  425SOL    HW1 1297   0.691   2.919   0.467
  425SOL    HW2 1298   0.789   2.861   0.350
  426SOL     OW 1299   0.410   2.675   1.251
  426SOL    HW1 1300   0.496   2.687   1.301
  426SOL    HW2 1301   0.368   2.588   1.278
  427SOL     OW 1302   1.274   2.248   1.262
  427SOL    HW1 1303   1.295   2.322   1.326
  427SOL    HW2 1304   1.185   2.265   1.219
  428SOL     OW 1305   0.367   2.962   0.501
  428SOL    HW1 1306   0.360   3.045   0.445
  428SOL    HW2 1307   0.371   2.882   0.441
  429SOL     OW 1308   0.566   2.399   0.865
  429SOL    HW1 1309   0.578   2.465   0.791
  429SOL    HW2 1310   0.612   2.433   0.948
  430SOL     OW 1311   1.582   2.501   0.472
  430SOL    HW1 1312   1.551   2.562   0.545
  430SOL    HW2 1313   1.632   2.553   0.403
  431SOL     OW 1314   0.402   2.613   1.598
  431SOL    HW1 1315   0.470   2.668   1.551
  431SOL    HW2 1316   0.442   2.525   1.625
  432SOL     OW 1317   1.587   2.641   1.670
  432SOL    HW1 1318   1.495   2.679   1.665
  432SOL    HW2 1319   1.647   2.688   1.605
  433SOL     OW 1320   1.013   1.967   1.770
  433SOL    HW1 1321   1.019   2.052   1.718
  433SOL    HW2 1322   1.045   1.891   1.713
  434SOL     OW 1323   0.504   1.912   1.740
  434SOL    HW1 1324   0.462   1.855   1.670
  434SOL    HW2 1325   0.438   1.981   1.772
  435SOL     OW 1326   0.573   2.732   1.029
  435SOL    HW1 1327   0.617   2.821   1.020
  435SOL    HW2 1328   0.510   2.732   1.106
  436SOL     OW 1329   1.360   2.724   1.045
  436SOL    HW1 1330   1.285   2.724   0.979
  436SOL    HW2 1331   1.397   2.632   1.054
  437SOL     OW 1332   1.209   2.387   0.275
  437SOL    HW1 1333   1.222   2.303   0.329
  437SOL    HW2 1334   1.180   2.461   0.335
  438SOL     OW 1335   0.307   2.075   1.231
  438SOL    HW1 1336   0.284   2.112   1.321
  438SOL    HW2 1337   0.277   1.980   1.225
  439SOL     OW 1338   0.037   3.172   1.282
  439SOL    HW1 1339   0.090   3.123   1.350
  439SOL    HW2 1340   0.059   3.270   1.287
  440SOL     OW 1341   0.732   2.496   1.064
  440SOL    HW1 1342   0.791   2.470   0.988
  440SOL    HW2 1343   0.704   2.592   1.053
  441SOL     OW 1344   1.728   2.797   1.854
  441SOL    HW1 1345   1.682   2.790   1.765
  441SOL    HW2 1346   1.666   2.841   1.920
  442SOL     OW 1347   0.307   1.925   0.618
  442SOL    HW1 1348   0.296   2.019   0.651
  442SOL    HW2 1349   0.302   1.862   0.695
  443SOL     OW 1350   1.622   2.229   0.374
  443SOL    HW1 1351   1.624   2.153   0.438
  443SOL    HW2 1352   1.574   2.306   0.414
  444SOL     OW 1353   1.023   2.628   0.966
  444SOL    HW1 1354   1.038   2.649   1.062
  444SOL    HW2 1355   0.993   2.533   0.957
  445SOL     OW 1356   0.350   2.760   1.804
  445SOL    HW1 1357   0.426   2.804   1.852
  445SOL    HW2 1358   0.385   2.713   1.722
  446SOL     OW 1359   1.540   2.136   0.125
  446SOL    HW1 1360   1.479   2.061   0.148
  446SOL    HW2 1361   1.562   2.188   0.208
  447SOL     OW 1362   1.303   2.700   0.042
  447SOL    HW1 1363   1.337   2.607   0.057
  447SOL    HW2 1364   1.321   2.727  -0.053
  448SOL     OW 1365   0.319   2.672   0.949
  448SOL    HW1 1366   0.412   2.708   0.954
  448SOL    HW2 1367   0.313   2.587   1.001
  449SOL     OW 1368   0.339   2.371   1.006
  449SOL    HW1 1369   0.287   2.288   0.989
  449SOL    HW2 1370   0.416   2.376   0.942
  450SOL     OW 1371   1.138   2.242   1.678
  450SOL    HW1 1372   1.093   2.305   1.742
  450SOL    HW2 1373   1.231   2.273   1.661
  451SOL     OW 1374   1.160   2.069   1.477
  451SOL    HW1 1375   1.160   2.133   1.554
  451SOL    HW2 1376   1.188   2.117   1.394
  452SOL     OW 1377   0.008   3.188   0.200
  452SOL    HW1 1378  -0.085   3.209   0.169
  452SOL    HW2 1379   0.018   3.089   0.213
  453SOL     OW 1380   1.002   2.658   1.238
  453SOL    HW1 1381   1.043   2.626   1.324
  453SOL    HW2 1382   0.906   2.631   1.235
  454SOL     OW 1383   0.040   2.406   1.114
  454SOL    HW1 1384   0.125   2.373   1.073
  454SOL    HW2 1385   0.053   2.421   1.212
  455SOL     OW 1386   0.189   2.382   1.722
  455SOL    HW1 1387   0.248   2.342   1.652
  455SOL    HW2 1388   0.131   2.453   1.681
  456SOL     OW 1389   1.369   2.812   1.660
  456SOL    HW1 1390   1.408   2.901   1.680
  456SOL    HW2 1391   1.379   2.792   1.563
  457SOL     OW 1392   0.815   2.434   0.325
  457SOL    HW1 1393   0.822   2.345   0.279
  457SOL    HW2 1394   0.721   2.468   0.317
  458SOL     OW 1395   1.657   2.466   1.206
  458SOL    HW1 1396   1.619   2.397   1.268
  458SOL    HW2 1397   1.739   2.430   1.162
  459SOL     OW 1398   0.671   2.326   1.269
  459SOL    HW1 1399   0.637   2.237   1.239
  459SOL    HW2 1400   0.697   2.380   1.189
  460SOL     OW 1401   0.473   2.362   0.191
  460SOL    HW1 1402   0.534   2.442   0.195
  460SOL    HW2 1403   0.378   2.393   0.198
  461SOL     OW 1404   0.159   2.999   1.466
  461SOL    HW1 1405   0.181   2.938   1.542
  461SOL    HW2 1406   0.169   2.950   1.380
  462SOL     OW 1407   1.347   2.921   1.234
  462SOL    HW1 1408   1.371   2.858   1.160
  462SOL    HW2 1409   1.257   2.961   1.216
  463SOL     OW 1410   1.302   2.717   0.309
  463SOL    HW1 1411   1.216   2.686   0.351
  463SOL    HW2 1412   1.298   2.703   0.210
  464SOL     OW 1413   0.083   3.120   1.022
  464SOL    HW1 1414   0.078   3.119   1.122
  464SOL    HW2 1415   0.000   3.079   0.984
  465SOL     OW 1416   0.903   1.948   0.133
  465SOL    HW1 1417   0.954   1.949   0.047
  465SOL    HW2 1418   0.959   1.906   0.204
  466SOL     OW 1419   1.726   1.997   0.523
  466SOL    HW1 1420   1.799   1.980   0.456
  466SOL    HW2 1421   1.695   1.910   0.561
  467SOL     OW 1422   1.280   2.789   0.672
  467SOL    HW1 1423   1.340   2.708   0.674
  467SOL    HW2 1424   1.320   2.858   0.612
  468SOL     OW 1425   1.841   2.037   0.963
  468SOL    HW1 1426   1.880   1.952   0.927
  468SOL    HW2 1427   1.743   2.039   0.944
  469SOL     OW 1428   0.263   2.188   0.720
  469SOL    HW1 1429   0.184   2.239   0.686
  469SOL    HW2 1430   0.254   2.173   0.818
  470SOL     OW 1431   0.822   2.864   1.372
  470SOL    HW1 1432   0.862   2.863   1.280
  470SOL    HW2 1433   0.832   2.956   1.412
  471SOL     OW 1434   0.916   2.772   0.291
  471SOL    HW1 1435   0.979   2.810   0.223
  471SOL    HW2 1436   0.956   2.689   0.330
  472SOL     OW 1437   0.372   3.150   1.490
  472SOL    HW1 1438   0.359   3.243   1.456
  472SOL    HW2 1439   0.288   3.098   1.477
  473SOL     OW 1440   1.614   3.154   1.289
  473SOL    HW1 1441   1.674   3.157   1.369
  473SOL    HW2 1442   1.539   3.218   1.302
  474SOL     OW 1443   1.039   2.960   0.696
  474SOL    HW1 1444   0.969   2.913   0.750
  474SOL    HW2 1445   1.098   2.892   0.653
  475SOL     OW 1446   1.014   2.098   0.971
  475SOL    HW1 1447   1.006   2.062   0.878
  475SOL    HW2 1448   1.012   2.022   1.036
  476SOL     OW 1449   1.709   2.247   1.381
  476SOL    HW1 1450   1.782   2.316   1.385
  476SOL    HW2 1451   1.737   2.172   1.322
  477SOL     OW 1452   0.105   2.875   1.726
  477SOL    HW1 1453   0.028   2.842   1.780
  477SOL    HW2 1454   0.190   2.845   1.768
  478SOL     OW 1455   0.672   2.065   1.489
  478SOL    HW1 1456   0.762   2.049   1.449
  478SOL    HW2 1457   0.680   2.070   1.588
  479SOL     OW 1458   0.075   2.207   0.033
  479SOL    HW1 1459  -0.017   2.179   0.004
  479SOL    HW2 1460   0.106   2.284  -0.023
  480SOL     OW 1461   1.440   2.718   1.398
  480SOL    HW1 1462   1.383   2.770   1.335
  480SOL    HW2 1463   1.536   2.730   1.374
  481SOL     OW 1464   0.072   2.028   0.318
  481SOL    HW1 1465   0.055   2.111   0.264
  481SOL    HW2 1466   0.162   1.991   0.296
  482SOL     OW 1467   0.613   2.704   1.431
  482SOL    HW1 1468   0.669   2.785   1.414
  482SOL    HW2 1469   0.672   2.624   1.434
  483SOL     OW 1470   0.716   2.427   1.708
  483SOL    HW1 1471   0.735   2.492   1.782
  483SOL    HW2 1472   0.776   2.347   1.717
  484SOL     OW 1473   1.450   3.082   1.633
  484SOL    HW1 1474   1.441   3.072   1.732
  484SOL    HW2 1475   1.546   3.075   1.607
  485SOL     OW 1476   1.674   2.745   1.254
  485SOL    HW1 1477   1.647   2.656   1.217
  485SOL    HW2 1478   1.675   2.813   1.181
  486SOL     OW 1479   1.225   2.187   0.449
  486SOL    HW1 1480   1.290   2.113   0.438
  486SOL    HW2 1481   1.245   2.237   0.533
  487SOL     OW 1482   0.594   2.607   0.652
  487SOL    HW1 1483   0.644   2.692   0.633
  487SOL    HW2 1484   0.506   2.609   0.604
  488SOL     OW 1485   1.777   2.204   1.642
  488SOL    HW1 1486   1.760   2.235   1.548
  488SOL    HW2 1487   1.693   2.167   1.680
  489SOL     OW 1488   1.730   2.796   1.517
  489SOL    HW1 1489   1.768   2.887   1.532
  489SOL    HW2 1490   1.722   2.779   1.418
  490SOL     OW 1491   0.859   2.818   0.861
  490SOL    HW1 1492   0.913   2.749   0.909
  490SOL    HW2 1493   0.827   2.887   0.927
  491SOL     OW 1494   1.083   2.846   0.087
  491SOL    HW1 1495   1.060   2.899   0.005
  491SOL    HW2 1496   1.164   2.790   0.068
  492SOL     OW 1497   0.079   3.102   0.653
  492SOL    HW1 1498   0.078   3.055   0.741
  492SOL    HW2 1499   0.161   3.074   0.602
  493SOL     OW 1500   1.824   2.054   1.227
  493SOL    HW1 1501   1.820   1.964   1.271
  493SOL    HW2 1502   1.827   2.043   1.128
  494SOL     OW 1503   0.428   2.286   0.520
  494SOL    HW1 1504   0.458   2.214   0.458
  494SOL    HW2 1505   0.389   2.246   0.603
  495SOL     OW 1506   0.317   2.409   1.280
  495SOL    HW1 1507   0.355   2.350   1.352
  495SOL    HW2 1508   0.357   2.383   1.192
  496SOL     OW 1509   1.424   2.076   1.112
  496SOL    HW1 1510   1.476   2.011   1.167
  496SOL    HW2 1511   1.375   2.139   1.173
  497SOL     OW 1512   1.001   1.896   1.154
  497SOL    HW1 1513   0.938   1.824   1.123
  497SOL    HW2 1514   1.094   1.860   1.154
  498SOL     OW 1515   0.770   3.192   0.301
  498SOL    HW1 1516   0.724   3.105   0.318
  498SOL    HW2 1517   0.861   3.189   0.342
  499SOL     OW 1518   1.352   1.914   0.168
  499SOL    HW1 1519   1.387   1.873   0.084
  499SOL    HW2 1520   1.262   1.876   0.188
  500SOL     OW 1521   1.300   2.315   0.691
  500SOL    HW1 1522   1.241   2.395   0.695
  500SOL    HW2 1523   1.315   2.280   0.784
  501SOL     OW 1524   1.593   2.083   0.882
  501SOL    HW1 1525   1.509   2.082   0.936
  501SOL    HW2 1526   1.595   2.166   0.826
  502SOL     OW 1527   0.039   2.939   0.300
  502SOL    HW1 1528   0.138   2.928   0.291
  502SOL    HW2 1529  -0.001   2.853   0.332
  503SOL     OW 1530   0.230   2.490   1.975
  503SOL    HW1 1531   0.137   2.488   2.012
  503SOL    HW2 1532   0.231   2.451   1.883
  504SOL     OW 1533   0.225   2.137   2.858
  504SOL    HW1 1534   0.260   2.120   2.950
  504SOL    HW2 1535   0.137   2.092   2.846
  505SOL     OW 1536   0.019   2.230   2.509
  505SOL    HW1 1537  -0.063   2.273   2.548
  505SOL    HW2 1538  -0.009   2.157   2.446
  506SOL     OW 1539   1.135   2.565   2.579
  506SOL    HW1 1540   1.192   2.643   2.554
  506SOL    HW2 1541   1.075   2.591   2.655
  507SOL     OW 1542   1.755   2.469   2.093
  507SOL    HW1 1543   1.743   2.456   1.994
  507SOL    HW2 1544   1.725   2.388   2.142
  508SOL     OW 1545   0.768   3.006   2.885
  508SOL    HW1 1546   0.690   3.023   2.945
  508SOL    HW2 1547   0.802   3.093   2.849
  509SOL     OW 1548   0.685   2.874   2.527
  509SOL    HW1 1549   0.754   2.858   2.597
  509SOL    HW2 1550   0.612   2.931   2.565
  510SOL     OW 1551   1.603   2.309   2.599
  510SOL    HW1 1552   1.529   2.355   2.549
  510SOL    HW2 1553   1.654   2.377   2.652
  511SOL     OW 1554   0.240   2.953   2.748
  511SOL    HW1 1555   0.254   2.869   2.800
  511SOL    HW2 1556   0.185   3.017   2.803
  512SOL     OW 1557   0.606   2.826   1.985
  512SOL    HW1 1558   0.613   2.910   1.931
  512SOL    HW2 1559   0.652   2.839   2.073
  513SOL     OW 1560   0.122   2.505   2.425
  513SOL    HW1 1561   0.077   2.417   2.442
  513SOL    HW2 1562   0.121   2.559   2.509
  514SOL     OW 1563   1.689   2.784   2.474
  514SOL    HW1 1564   1.784   2.755   2.482
  514SOL    HW2 1565   1.681   2.849   2.399
  515SOL     OW 1566   1.641   2.970   2.294
  515SOL    HW1 1567   1.727   2.972   2.242
  515SOL    HW2 1568   1.655   3.017   2.382
  516SOL     OW 1569   0.809   1.866   2.364
  516SOL    HW1 1570   0.849   1.957   2.355
  516SOL    HW2 1571   0.709   1.874   2.370
  517SOL     OW 1572   0.197   2.838   3.126
  517SOL    HW1 1573   0.286   2.793   3.112
  517SOL    HW2 1574   0.124   2.773   3.107
  518SOL     OW 1575   1.525   2.861   2.052
  518SOL    HW1 1576   1.462   2.785   2.065
  518SOL    HW2 1577   1.573   2.879   2.138
  519SOL     OW 1578   0.598   2.591   2.132
  519SOL    HW1 1579   0.622   2.660   2.064
  519SOL    HW2 1580   0.520   2.624   2.186
  520SOL     OW 1581   1.281   2.207   2.806
  520SOL    HW1 1582   1.195   2.157   2.793
  520SOL    HW2 1583   1.343   2.153   2.862
  521SOL     OW 1584   1.041   2.563   2.291
  521SOL    HW1 1585   1.067   2.559   2.387
  521SOL    HW2 1586   0.956   2.512   2.277
  522SOL     OW 1587   0.076   2.673   2.651
  522SOL    HW1 1588   0.175   2.661   2.660
  522SOL    HW2 1589   0.052   2.768   2.672
  523SOL     OW 1590   0.865   2.210   2.057
  523SOL    HW1 1591   0.924   2.273   2.008
  523SOL    HW2 1592   0.884   2.116   2.028
  524SOL     OW 1593   1.362   3.006   2.407
  524SOL    HW1 1594   1.445   2.977   2.359
  524SOL    HW2 1595   1.313   3.073   2.351
  525SOL     OW 1596   0.550   2.058   2.747
  525SOL    HW1 1597   0.545   2.053   2.847
  525SOL    HW2 1598   0.552   2.154   2.718
  526SOL     OW 1599   1.795   2.928   2.735
  526SOL    HW1 1600   1.733   2.913   2.659
  526SOL    HW2 1601   1.743   2.939   2.820
  527SOL     OW 1602   0.321   2.805   2.104
  527SOL    HW1 1603   0.403   2.844   2.062
  527SOL    HW2 1604   0.294   2.723   2.055
  528SOL     OW 1605   1.458   2.597   2.590
  528SOL    HW1 1606   1.453   2.532   2.665
  528SOL    HW2 1607   1.538   2.656   2.603
  529SOL     OW 1608   1.400   1.969   2.288
  529SOL    HW1 1609   1.376   1.932   2.198
  529SOL    HW2 1610   1.499   1.985   2.292
  530SOL     OW 1611   0.382   2.562   2.342
  530SOL    HW1 1612   0.427   2.472   2.339
  530SOL    HW2 1613   0.288   2.551   2.375
  531SOL     OW 1614   0.614   1.984   1.979
  531SOL    HW1 1615   0.712   1.962   1.986
  531SOL    HW2 1616   0.583   1.967   1.886
  532SOL     OW 1617   0.803   3.264   2.786
  532SOL    HW1 1618   0.893   3.278   2.744
  532SOL    HW2 1619   0.732   3.266   2.715
  533SOL     OW 1620   0.922   2.365   2.761
  533SOL    HW1 1621   0.897   2.356   2.665
  533SOL    HW2 1622   0.970   2.283   2.792
  534SOL     OW 1623   0.539   1.926   2.374
  534SOL    HW1 1624   0.458   1.927   2.432
  534SOL    HW2 1625   0.542   2.009   2.319
  535SOL     OW 1626   0.297   1.897   2.033
  535SOL    HW1 1627   0.346   1.981   2.012
  535SOL    HW2 1628   0.359   1.832   2.078
  536SOL     OW 1629   0.935   2.098   2.342
  536SOL    HW1 1630   0.887   2.139   2.264
  536SOL    HW2 1631   1.034   2.096   2.323
  537SOL     OW 1632   0.459   3.014   2.603
  537SOL    HW1 1633   0.388   2.987   2.668
  537SOL    HW2 1634   0.433   2.986   2.510
  538SOL     OW 1635   1.032   2.411   1.878
  538SOL    HW1 1636   0.991   2.493   1.839
  538SOL    HW2 1637   1.096   2.437   1.951
  539SOL     OW 1638   0.561   2.084   3.009
  539SOL    HW1 1639   0.599   2.000   3.046
  539SOL    HW2 1640   0.473   2.103   3.053
  540SOL     OW 1641   0.866   2.316   2.504
  540SOL    HW1 1642   0.834   2.388   2.442
  540SOL    HW2 1643   0.890   2.235   2.451
  541SOL     OW 1644   1.017   1.901   2.615
  541SOL    HW1 1645   0.945   1.906   2.546
  541SOL    HW2 1646   0.993   1.832   2.684
  542SOL     OW 1647   1.429   3.035   2.729
  542SOL    HW1 1648   1.374   2.951   2.722
  542SOL    HW2 1649   1.455   3.064   2.637
  543SOL     OW 1650   1.466   2.452   2.854
  543SOL    HW1 1651   1.436   2.357   2.861
  543SOL    HW2 1652   1.539   2.468   2.920
  544SOL     OW 1653   1.857   2.695   2.239
  544SOL    HW1 1654   1.899   2.631   2.303
  544SOL    HW2 1655   1.819   2.644   2.161
  545SOL     OW 1656   1.390   2.437   1.940
  545SOL    HW1 1657   1.336   2.416   2.021
  545SOL    HW2 1658   1.481   2.396   1.949
  546SOL     OW 1659   0.527   2.118   2.190
  546SOL    HW1 1660   0.554   2.059   2.115
  546SOL    HW2 1661   0.527   2.213   2.159
  547SOL     OW 1662   1.638   2.961   2.941
  547SOL    HW1 1663   1.643   3.042   3.000
  547SOL    HW2 1664   1.552   2.963   2.890
  548SOL     OW 1665   0.705   2.912   2.230
  548SOL    HW1 1666   0.691   2.919   2.329
  548SOL    HW2 1667   0.789   2.861   2.212
  549SOL     OW 1668   0.410   2.675   3.113
  549SOL    HW1 1669   0.496   2.687   3.163
  549SOL    HW2 1670   0.368   2.588   3.140
  550SOL     OW 1671   1.274   2.248   3.124
  550SOL    HW1 1672   1.295   2.322   3.188
  550SOL    HW2 1673   1.185   2.265   3.081
  551SOL     OW 1674   0.367   2.962   2.363
  551SOL    HW1 1675   0.360   3.045   2.307
  551SOL    HW2 1676   0.371   2.882   2.303
  552SOL     OW 1677   0.566   2.399   2.727
  552SOL    HW1 1678   0.578   2.465   2.653
  552SOL    HW2 1679   0.612   2.433   2.810
  553SOL     OW 1680   1.582   2.501   2.334
  553SOL    HW1 1681   1.551   2.562   2.407
  553SOL    HW2 1682   1.632   2.553   2.265
  554SOL     OW 1683   0.573   2.732   2.891
  554SOL    HW1 1684   0.617   2.821   2.882
  554SOL    HW2 1685   0.510   2.732   2.968
  555SOL     OW 1686   1.360   2.724   2.907
  555SOL    HW1 1687   1.285   2.724   2.841
  555SOL    HW2 1688   1.397   2.632   2.916
  556SOL     OW 1689   1.209   2.387   2.137
  556SOL    HW1 1690   1.222   2.303   2.191
  556SOL    HW2 1691   1.180   2.461   2.197
  557SOL     OW 1692   0.307   2.075   3.093
  557SOL    HW1 1693   0.284   2.112   3.183
  557SOL    HW2 1694   0.277   1.980   3.087
  558SOL     OW 1695   0.037   3.172   3.144
  558SOL    HW1 1696   0.090   3.123   3.212
  558SOL    HW2 1697   0.059   3.270   3.149
  559SOL     OW 1698   0.732   2.496   2.926
  559SOL    HW1 1699   0.791   2.470   2.850
  559SOL    HW2 1700   0.704   2.592   2.915
  560SOL     OW 1701   0.307   1.925   2.480
  560SOL    HW1 1702   0.296   2.019   2.513
  560SOL    HW2 1703   0.302   1.862   2.557
  561SOL     OW 1704   1.622   2.229   2.236
  561SOL    HW1 1705   1.624   2.153   2.300
  561SOL    HW2 1706   1.574   2.306   2.276
  562SOL     OW 1707   1.023   2.628   2.828
  562SOL    HW1 1708   1.038   2.649   2.924
  562SOL    HW2 1709   0.993   2.533   2.819
  563SOL     OW 1710   1.540   2.136   1.987
  563SOL    HW1 1711   1.479   2.061   2.010
  563SOL    HW2 1712   1.562   2.188   2.070
  564SOL     OW 1713   1.303   2.700   1.904
  564SOL    HW1 1714   1.337   2.607   1.919
  564SOL    HW2 1715   1.321   2.727   1.809
  565SOL     OW 1716   0.319   2.672   2.811
  565SOL    HW1 1717   0.412   2.708   2.816
  565SOL    HW2 1718   0.313   2.587   2.863
  566SOL     OW 1719   0.339   2.371   2.868
  566SOL    HW1 1720   0.287   2.288   2.851
  566SOL    HW2 1721   0.416   2.376   2.804
  567SOL     OW 1722   1.160   2.069   3.339
  567SOL    HW1 1723   1.160   2.133   3.416
  567SOL    HW2 1724   1.188   2.117   3.256
  568SOL     OW 1725   0.008   3.188   2.062
  568SOL    HW1 1726  -0.085   3.209   2.031
  568SOL    HW2 1727   0.018   3.089   2.075
  569SOL     OW 1728   1.002   2.658   3.100
  569SOL    HW1 1729   1.043   2.626   3.186
  569SOL    HW2 1730   0.906   2.631   3.097
  570SOL     OW 1731   0.040   2.406   2.976
  570SOL    HW1 1732   0.125   2.373   2.935
  570SOL    HW2 1733   0.053   2.421   3.074
  571SOL     OW 1734   0.815   2.434   2.187
  571SOL    HW1 1735   0.822   2.345   2.141
  571SOL    HW2 1736   0.721   2.468   2.179
  572SOL     OW 1737   1.657   2.466   3.068
  572SOL    HW1 1738   1.619   2.397   3.130
  572SOL    HW2 1739   1.739   2.430   3.024
  573SOL     OW 1740   0.671   2.326   3.131
  573SOL    HW1 1741   0.637   2.237   3.101
  573SOL    HW2 1742   0.697   2.380   3.051
  574SOL     OW 1743   0.473   2.362   2.053
  574SOL    HW1 1744   0.534   2.442   2.057
  574SOL    HW2 1745   0.378   2.393   2.060
  575SOL     OW 1746   1.347   2.921   3.096
  575SOL    HW1 1747   1.371   2.858   3.022
  575SOL    HW2 1748   1.257   2.961   3.078
  576SOL     OW 1749   1.302   2.717   2.171
  576SOL    HW1 1750   1.216   2.686   2.213
  576SOL    HW2 1751   1.298   2.703   2.072
  577SOL     OW 1752   0.083   3.120   2.884
  577SOL    HW1 1753   0.078   3.119   2.984
  577SOL    HW2 1754   0.000   3.079   2.846
  578SOL     OW 1755   1.726   1.997   2.385
  578SOL    HW1 1756   1.799   1.980   2.318
  578SOL    HW2 1757   1.695   1.910   2.423
  579SOL     OW 1758   1.280   2.789   2.534
  579SOL    HW1 1759   1.340   2.708   2.536
  579SOL    HW2 1760   1.320   2.858   2.474
  580SOL     OW 1761   1.841   2.037   2.825
  580SOL    HW1 1762   1.880   1.952   2.789
  580SOL    HW2 1763   1.743   2.039   2.806
  581SOL     OW 1764   0.263   2.188   2.582
  581SOL    HW1 1765   0.184   2.239   2.548
  581SOL    HW2 1766   0.254   2.173   2.680
  582SOL     OW 1767   0.822   2.864   3.234
  582SOL    HW1 1768   0.862   2.863   3.142
  582SOL    HW2 1769   0.832   2.956   3.274
  583SOL     OW 1770   0.916   2.772   2.153
  583SOL    HW1 1771   0.979   2.810   2.085
  583SOL    HW2 1772   0.956   2.689   2.192
  584SOL     OW 1773   1.614   3.154   3.151
  584SOL    HW1 1774   1.674   3.157   3.231
  584SOL    HW2 1775   1.539   3.218   3.164
  585SOL     OW 1776   1.039   2.960   2.558
  585SOL    HW1 1777   0.969   2.913   2.612
  585SOL    HW2 1778   1.098   2.892   2.515
  586SOL     OW 1779   1.014   2.098   2.833
  586SOL    HW1 1780   1.006   2.062   2.740
  586SOL    HW2 1781   1.012   2.022   2.898
  587SOL     OW 1782   1.709   2.247   3.243
  587SOL    HW1 1783   1.782   2.316   3.247
  587SOL    HW2 1784   1.737   2.172   3.184
  588SOL     OW 1785   0.075   2.207   1.895
  588SOL    HW1 1786  -0.017   2.179   1.866
  588SOL    HW2 1787   0.106   2.284   1.839
  589SOL     OW 1788   0.072   2.028   2.180
  589SOL    HW1 1789   0.055   2.111   2.126
  589SOL    HW2 1790   0.162   1.991   2.158
  590SOL     OW 1791   1.674   2.745   3.116
  590SOL    HW1 1792   1.647   2.656   3.079
  590SOL    HW2 1793   1.675   2.813   3.043
  591SOL     OW 1794   1.225   2.187   2.311
  591SOL    HW1 1795   1.290   2.113   2.300
  591SOL    HW2 1796   1.245   2.237   2.395
  592SOL     OW 1797   0.594   2.607   2.514
  592SOL    HW1 1798   0.644   2.692   2.495
  592SOL    HW2 1799   0.506   2.609   2.466
  593SOL     OW 1800   1.730   2.796   3.379
  593SOL    HW1 1801   1.768   2.887   3.394
  593SOL    HW2 1802   1.722   2.779   3.280
  594SOL     OW 1803   0.859   2.818   2.723
  594SOL    HW1 1804   0.913   2.749   2.771
  594SOL    HW2 1805   0.827   2.887   2.789
  595SOL     OW 1806   1.083   2.846   1.949
  595SOL    HW1 1807   1.060   2.899   1.867
  595SOL    HW2 1808   1.164   2.790   1.930
  596SOL     OW 1809   0.079   3.102   2.515
  596SOL    HW1 1810   0.078   3.055   2.603
  596SOL    HW2 1811   0.161   3.074   2.464
  597SOL     OW 1812   1.824   2.054   3.089
  597SOL    HW1 1813   1.820   1.964   3.133
  597SOL    HW2 1814   1.827   2.043   2.990
  598SOL     OW 1815   0.428   2.286   2.382
  598SOL    HW1 1816   0.458   2.214   2.320
  598SOL    HW2 1817   0.389   2.246   2.465
  599SOL     OW 1818   1.424   2.076   2.974
  599SOL    HW1 1819   1.476   2.011   3.029
  599SOL    HW2 1820   1.375   2.139   3.035
  600SOL     OW 1821   1.001   1.896   3.016
  600SOL    HW1 1822   0.938   1.824   2.985
  600SOL    HW2 1823   1.094   1.860   3.016
  601SOL     OW 1824   0.770   3.192   2.163
  601SOL    HW1 1825   0.724   3.105   2.180
  601SOL    HW2 1826   0.861   3.189   2.204
  602SOL     OW 1827   1.352   1.914   2.030
  602SOL    HW1 1828   1.387   1.873   1.946
  602SOL    HW2 1829   1.262   1.876   2.050
  603SOL     OW 1830   1.300   2.315   2.553
  603SOL    HW1 1831   1.241   2.395   2.557
  603SOL    HW2 1832   1.315   2.280   2.646
  604SOL     OW 1833   1.593   2.083   2.744
  604SOL    HW1 1834   1.509   2.082   2.798
  604SOL    HW2 1835   1.595   2.166   2.688
  605SOL     OW 1836   0.039   2.939   2.162
  605SOL    HW1 1837   0.138   2.928   2.153
  605SOL    HW2 1838  -0.001   2.853   2.194
  606SOL     OW 1839   2.092   0.628   0.113
  606SOL    HW1 1840   1.999   0.626   0.150
  606SOL    HW2 1841   2.093   0.589   0.021
  607SOL     OW 1842   2.087   0.275   0.996
  607SOL    HW1 1843   2.122   0.258   1.088
  607SOL    HW2 1844   1.999   0.230   0.984
  608SOL     OW 1845   1.881   0.368   0.647
  608SOL    HW1 1846   1.799   0.411   0.686
  608SOL    HW2 1847   1.853   0.295   0.584
  609SOL     OW 1848   2.431   1.275   1.165
  609SOL    HW1 1849   2.338   1.268   1.128
  609SOL    HW2 1850   2.442   1.364   1.209
  610SOL     OW 1851   2.997   0.703   0.717
  610SOL    HW1 1852   3.054   0.781   0.692
  610SOL    HW2 1853   2.937   0.729   0.793
  611SOL     OW 1854   2.630   1.144   1.023
  611SOL    HW1 1855   2.552   1.161   1.083
  611SOL    HW2 1856   2.664   1.231   0.987
  612SOL     OW 1857   2.712   0.798   1.823
  612SOL    HW1 1858   2.708   0.874   1.888
  612SOL    HW2 1859   2.734   0.834   1.732
  613SOL     OW 1860   2.547   1.012   0.665
  613SOL    HW1 1861   2.616   0.996   0.735
  613SOL    HW2 1862   2.474   1.069   0.703
  614SOL     OW 1863   2.548   1.161   1.803
  614SOL    HW1 1864   2.608   1.240   1.817
  614SOL    HW2 1865   2.462   1.192   1.762
  615SOL     OW 1866   2.197   1.435   1.061
  615SOL    HW1 1867   2.119   1.404   1.008
  615SOL    HW2 1868   2.255   1.493   1.004
  616SOL     OW 1869   2.300   0.392   1.499
  616SOL    HW1 1870   2.382   0.336   1.508
  616SOL    HW2 1871   2.219   0.334   1.503
  617SOL     OW 1872   2.093   1.713   0.483
  617SOL    HW1 1873   2.127   1.790   0.537
  617SOL    HW2 1874   2.137   1.713   0.393
  618SOL     OW 1875   2.989   1.341   1.690
  618SOL    HW1 1876   3.036   1.341   1.778
  618SOL    HW2 1877   2.941   1.254   1.679
  619SOL     OW 1878   2.092   1.434   0.538
  619SOL    HW1 1879   2.066   1.530   0.538
  619SOL    HW2 1880   2.021   1.380   0.583
  620SOL     OW 1881   2.102   1.091   0.886
  620SOL    HW1 1882   2.116   1.007   0.938
  620SOL    HW2 1883   2.047   1.155   0.941
  621SOL     OW 1884   2.482   1.786   1.439
  621SOL    HW1 1885   2.390   1.769   1.474
  621SOL    HW2 1886   2.510   1.878   1.465
  622SOL     OW 1887   2.468   0.964   0.123
  622SOL    HW1 1888   2.475   1.048   0.069
  622SOL    HW2 1889   2.514   0.977   0.211
  623SOL     OW 1890   1.984   0.643   0.563
  623SOL    HW1 1891   1.939   0.555   0.580
  623SOL    HW2 1892   1.983   0.697   0.647
  624SOL     OW 1893   1.889   1.596   0.117
  624SOL    HW1 1894   1.870   1.500   0.138
  624SOL    HW2 1895   1.856   1.654   0.192
  625SOL     OW 1896   1.975   0.737   1.597
  625SOL    HW1 1897   2.063   0.724   1.642
  625SOL    HW2 1898   1.962   0.834   1.575
  626SOL     OW 1899   2.475   1.365   0.726
  626SOL    HW1 1900   2.426   1.278   0.735
  626SOL    HW2 1901   2.452   1.408   0.639
  627SOL     OW 1902   2.671   0.004   0.502
  627SOL    HW1 1903   2.711   0.095   0.493
  627SOL    HW2 1904   2.571   0.012   0.508
  628SOL     OW 1905   2.059   0.976   1.264
  628SOL    HW1 1906   2.148   0.931   1.250
  628SOL    HW2 1907   1.986   0.911   1.245
  629SOL     OW 1908   3.049   1.792   1.616
  629SOL    HW1 1909   3.073   1.852   1.540
  629SOL    HW2 1910   3.056   1.697   1.586
  630SOL     OW 1911   2.179   0.251   1.801
  630SOL    HW1 1912   2.250   0.322   1.807
  630SOL    HW2 1913   2.091   0.290   1.829
  631SOL     OW 1914   2.460   0.729   0.270
  631SOL    HW1 1915   2.484   0.798   0.202
  631SOL    HW2 1916   2.382   0.762   0.324
  632SOL     OW 1917   2.669   0.605   1.465
  632SOL    HW1 1918   2.622   0.602   1.554
  632SOL    HW2 1919   2.618   0.550   1.399
  633SOL     OW 1920   2.835   0.890   1.572
  633SOL    HW1 1921   2.881   0.806   1.543
  633SOL    HW2 1922   2.779   0.924   1.497
  634SOL     OW 1923   2.853   0.410   1.242
  634SOL    HW1 1924   2.776   0.444   1.296
  634SOL    HW2 1925   2.819   0.359   1.163
  635SOL     OW 1926   2.903   0.701   0.429
  635SOL    HW1 1927   2.929   0.697   0.525
  635SOL    HW2 1928   2.818   0.650   0.415
  636SOL     OW 1929   1.938   0.811   0.789
  636SOL    HW1 1930   2.037   0.799   0.798
  636SOL    HW2 1931   1.914   0.906   0.810
  637SOL     OW 1932   1.992   1.821   1.571
  637SOL    HW1 1933   1.982   1.806   1.670
  637SOL    HW2 1934   1.906   1.857   1.535
  638SOL     OW 1935   2.727   0.348   0.195
  638SOL    HW1 1936   2.786   0.411   0.146
  638SOL    HW2 1937   2.746   0.254   0.166
  639SOL     OW 1938   2.412   0.196   0.885
  639SOL    HW1 1939   2.407   0.191   0.985
  639SOL    HW2 1940   2.414   0.292   0.856
  640SOL     OW 1941   2.870   1.456   0.477
  640SOL    HW1 1942   2.824   1.528   0.425
  640SOL    HW2 1943   2.866   1.476   0.575
  641SOL     OW 1944   2.213   1.801   0.853
  641SOL    HW1 1945   2.263   1.715   0.859
  641SOL    HW2 1946   2.278   1.878   0.850
  642SOL     OW 1947   3.089   1.550   1.506
  642SOL    HW1 1948   3.095   1.473   1.570
  642SOL    HW2 1949   3.037   1.524   1.426
  643SOL     OW 1950   2.183   0.943   0.242
  643SOL    HW1 1951   2.265   0.982   0.200
  643SOL    HW2 1952   2.156   0.861   0.193
  644SOL     OW 1953   2.323   1.266   1.727
  644SOL    HW1 1954   2.273   1.267   1.641
  644SOL    HW2 1955   2.260   1.248   1.803
  645SOL     OW 1956   2.973   1.776   0.237
  645SOL    HW1 1957   2.913   1.714   0.287
  645SOL    HW2 1958   3.004   1.732   0.152
  646SOL     OW 1959   2.064   0.285   1.498
  646SOL    HW1 1960   1.984   0.345   1.485
  646SOL    HW2 1961   2.054   0.236   1.584
  647SOL     OW 1962   2.326   1.743   0.323
  647SOL    HW1 1963   2.359   1.782   0.409
  647SOL    HW2 1964   2.402   1.736   0.258
  648SOL     OW 1965   2.111   1.785   1.241
  648SOL    HW1 1966   2.168   1.720   1.291
  648SOL    HW2 1967   2.095   1.752   1.148
  649SOL     OW 1968   2.802   1.698   0.904
  649SOL    HW1 1969   2.882   1.641   0.925
  649SOL    HW2 1970   2.753   1.658   0.827
  650SOL     OW 1971   2.244   0.700   0.480
  650SOL    HW1 1972   2.289   0.610   0.477
  650SOL    HW2 1973   2.150   0.689   0.513
  651SOL     OW 1974   2.476   0.122   0.117
  651SOL    HW1 1975   2.574   0.100   0.124
  651SOL    HW2 1976   2.445   0.105   0.024
  652SOL     OW 1977   2.643   0.264   1.749
  652SOL    HW1 1978   2.710   0.203   1.792
  652SOL    HW2 1979   2.570   0.283   1.814
  653SOL     OW 1980   2.750   1.514   1.195
  653SOL    HW1 1981   2.727   1.489   1.101
  653SOL    HW2 1982   2.811   1.445   1.234
  654SOL     OW 1983   2.665   1.402   0.924
  654SOL    HW1 1984   2.755   1.416   0.882
  654SOL    HW2 1985   2.594   1.404   0.853
  655SOL     OW 1986   2.784   0.503   0.899
  655SOL    HW1 1987   2.759   0.494   0.803
  655SOL    HW2 1988   2.832   0.421   0.930
  656SOL     OW 1989   2.401   0.064   0.512
  656SOL    HW1 1990   2.320   0.065   0.570
  656SOL    HW2 1991   2.404   0.147   0.457
  657SOL     OW 1992   2.159   0.035   0.171
  657SOL    HW1 1993   2.208   0.119   0.150
  657SOL    HW2 1994   2.221  -0.030   0.216
  658SOL     OW 1995   2.797   0.236   0.480
  658SOL    HW1 1996   2.749   0.277   0.402
  658SOL    HW2 1997   2.896   0.234   0.461
  659SOL     OW 1998   2.938   0.683   1.464
  659SOL    HW1 1999   2.858   0.622   1.467
  659SOL    HW2 2000   3.019   0.630   1.440
  660SOL     OW 2001   3.089   1.570   0.793
  660SOL    HW1 2002   3.110   1.644   0.728
  660SOL    HW2 2003   3.157   1.570   0.866
  661SOL     OW 2004   2.321   1.152   0.741
  661SOL    HW1 2005   2.250   1.125   0.806
  661SOL    HW2 2006   2.295   1.124   0.648
  662SOL     OW 2007   3.133   1.797   0.591
  662SOL    HW1 2008   3.177   1.861   0.527
  662SOL    HW2 2009   3.083   1.849   0.661
  663SOL     OW 2010   2.894   0.549   0.016
  663SOL    HW1 2011   2.853   0.631  -0.023
  663SOL    HW2 2012   2.958   0.575   0.089
  664SOL     OW 2013   1.940   0.556   1.386
  664SOL    HW1 2014   2.032   0.555   1.345
  664SOL    HW2 2015   1.934   0.630   1.453
  665SOL     OW 2016   2.423   0.222   1.147
  665SOL    HW1 2017   2.461   0.138   1.184
  665SOL    HW2 2018   2.335   0.241   1.191
  666SOL     OW 2019   2.728   0.454   0.642
  666SOL    HW1 2020   2.696   0.526   0.580
  666SOL    HW2 2021   2.752   0.373   0.589
  667SOL     OW 2022   2.879   0.039   0.753
  667SOL    HW1 2023   2.807   0.044   0.684
  667SOL    HW2 2024   2.855  -0.030   0.822
  668SOL     OW 2025   2.350   1.385   0.174
  668SOL    HW1 2026   2.263   1.370   0.221
  668SOL    HW2 2027   2.333   1.411   0.079
  669SOL     OW 2028   2.389   0.256   0.328
  669SOL    HW1 2029   2.416   0.197   0.253
  669SOL    HW2 2030   2.389   0.351   0.297
  670SOL     OW 2031   2.926   1.347   1.340
  670SOL    HW1 2032   2.846   1.324   1.395
  670SOL    HW2 2033   3.009   1.321   1.389
  671SOL     OW 2034   2.973   1.195   1.100
  671SOL    HW1 2035   2.933   1.239   1.181
  671SOL    HW2 2036   2.932   1.232   1.017
  672SOL     OW 2037   2.777   0.089   1.402
  672SOL    HW1 2038   2.802   0.069   1.307
  672SOL    HW2 2039   2.849   0.145   1.444
  673SOL     OW 2040   2.842   1.116   1.719
  673SOL    HW1 2041   2.743   1.122   1.729
  673SOL    HW2 2042   2.865   1.036   1.663
  674SOL     OW 2043   2.567   1.050   0.368
  674SOL    HW1 2044   2.553   1.057   0.467
  674SOL    HW2 2045   2.651   0.999   0.350
  675SOL     OW 2046   2.272   0.813   1.251
  675SOL    HW1 2047   2.358   0.825   1.301
  675SOL    HW2 2048   2.230   0.726   1.278
  676SOL     OW 2049   2.229   1.100   0.501
  676SOL    HW1 2050   2.222   1.183   0.445
  676SOL    HW2 2051   2.233   1.020   0.441
  677SOL     OW 2052   2.428   0.537   0.865
  677SOL    HW1 2053   2.440   0.603   0.791
  677SOL    HW2 2054   2.474   0.571   0.948
  678SOL     OW 2055   3.114   1.348   0.388
  678SOL    HW1 2056   3.164   1.425   0.428
  678SOL    HW2 2057   3.019   1.350   0.420
  679SOL     OW 2058   2.216   1.510   1.329
  679SOL    HW1 2059   2.195   1.466   1.242
  679SOL    HW2 2060   2.313   1.536   1.332
  680SOL     OW 2061   2.264   0.751   1.598
  680SOL    HW1 2062   2.332   0.806   1.551
  680SOL    HW2 2063   2.304   0.663   1.625
  681SOL     OW 2064   2.875   0.105   1.770
  681SOL    HW1 2065   2.881   0.190   1.718
  681SOL    HW2 2066   2.907   0.029   1.713
  682SOL     OW 2067   2.366   0.050   1.740
  682SOL    HW1 2068   2.324  -0.007   1.670
  682SOL    HW2 2069   2.300   0.119   1.772
  683SOL     OW 2070   2.435   0.870   1.029
  683SOL    HW1 2071   2.479   0.959   1.020
  683SOL    HW2 2072   2.372   0.870   1.106
  684SOL     OW 2073   3.222   0.862   1.045
  684SOL    HW1 2074   3.147   0.862   0.979
  684SOL    HW2 2075   3.259   0.770   1.054
  685SOL     OW 2076   3.071   0.525   0.275
  685SOL    HW1 2077   3.084   0.441   0.329
  685SOL    HW2 2078   3.042   0.599   0.335
  686SOL     OW 2079   2.169   0.213   1.231
  686SOL    HW1 2080   2.146   0.250   1.321
  686SOL    HW2 2081   2.139   0.118   1.225
  687SOL     OW 2082   2.594   0.634   1.064
  687SOL    HW1 2083   2.653   0.608   0.988
  687SOL    HW2 2084   2.566   0.730   1.053
  688SOL     OW 2085   2.169   0.063   0.618
  688SOL    HW1 2086   2.158   0.157   0.651
  688SOL    HW2 2087   2.164   0.000   0.695
  689SOL     OW 2088   2.885   0.766   0.966
  689SOL    HW1 2089   2.900   0.787   1.062
  689SOL    HW2 2090   2.855   0.671   0.957
  690SOL     OW 2091   2.842   1.573   1.700
  690SOL    HW1 2092   2.822   1.617   1.612
  690SOL    HW2 2093   2.881   1.482   1.684
  691SOL     OW 2094   2.212   0.898   1.804
  691SOL    HW1 2095   2.288   0.942   1.852
  691SOL    HW2 2096   2.247   0.851   1.722
  692SOL     OW 2097   2.930   1.333   0.849
  692SOL    HW1 2098   2.937   1.249   0.794
  692SOL    HW2 2099   2.992   1.402   0.813
  693SOL     OW 2100   2.181   0.810   0.949
  693SOL    HW1 2101   2.274   0.846   0.954
  693SOL    HW2 2102   2.175   0.725   1.001
  694SOL     OW 2103   2.201   0.509   1.006
  694SOL    HW1 2104   2.149   0.426   0.989
  694SOL    HW2 2105   2.278   0.514   0.942
  695SOL     OW 2106   3.000   0.380   1.678
  695SOL    HW1 2107   2.955   0.443   1.742
  695SOL    HW2 2108   3.093   0.411   1.661
  696SOL     OW 2109   3.022   0.207   1.477
  696SOL    HW1 2110   3.022   0.271   1.554
  696SOL    HW2 2111   3.050   0.255   1.394
  697SOL     OW 2112   1.870   1.326   0.200
  697SOL    HW1 2113   1.777   1.347   0.169
  697SOL    HW2 2114   1.880   1.227   0.213
  698SOL     OW 2115   1.950   1.801   0.927
  698SOL    HW1 2116   1.908   1.715   0.900
  698SOL    HW2 2117   2.044   1.804   0.893
  699SOL     OW 2118   2.366   1.568   0.910
  699SOL    HW1 2119   2.432   1.642   0.919
  699SOL    HW2 2120   2.410   1.489   0.868
  700SOL     OW 2121   2.864   0.796   1.238
  700SOL    HW1 2122   2.905   0.764   1.324
  700SOL    HW2 2123   2.768   0.769   1.235
  701SOL     OW 2124   1.902   0.544   1.114
  701SOL    HW1 2125   1.987   0.511   1.073
  701SOL    HW2 2126   1.915   0.559   1.212
  702SOL     OW 2127   2.051   0.520   1.722
  702SOL    HW1 2128   2.110   0.480   1.652
  702SOL    HW2 2129   1.993   0.591   1.681
  703SOL     OW 2130   2.677   0.572   0.325
  703SOL    HW1 2131   2.684   0.483   0.279
  703SOL    HW2 2132   2.583   0.606   0.317
  704SOL     OW 2133   2.114   1.564   1.744
  704SOL    HW1 2134   2.084   1.621   1.820
  704SOL    HW2 2135   2.107   1.467   1.770
  705SOL     OW 2136   2.533   0.464   1.269
  705SOL    HW1 2137   2.499   0.375   1.239
  705SOL    HW2 2138   2.559   0.518   1.189
  706SOL     OW 2139   2.792   1.678   1.465
  706SOL    HW1 2140   2.768   1.660   1.370
  706SOL    HW2 2141   2.822   1.772   1.475
  707SOL     OW 2142   2.335   0.500   0.191
  707SOL    HW1 2143   2.396   0.580   0.195
  707SOL    HW2 2144   2.240   0.531   0.198
  708SOL     OW 2145   2.021   1.137   1.466
  708SOL    HW1 2146   2.043   1.076   1.542
  708SOL    HW2 2147   2.031   1.088   1.380
  709SOL     OW 2148   3.114   1.731   1.128
  709SOL    HW1 2149   3.198   1.736   1.074
  709SOL    HW2 2150   3.091   1.635   1.146
  710SOL     OW 2151   1.945   1.258   1.022
  710SOL    HW1 2152   1.940   1.257   1.122
  710SOL    HW2 2153   1.862   1.217   0.984
  711SOL     OW 2154   2.550   1.662   1.716
  711SOL    HW1 2155   2.494   1.743   1.725
  711SOL    HW2 2156   2.602   1.666   1.630
  712SOL     OW 2157   2.765   0.086   0.133
  712SOL    HW1 2158   2.816   0.087   0.047
  712SOL    HW2 2159   2.821   0.044   0.204
  713SOL     OW 2160   1.992   1.794   1.851
  713SOL    HW1 2161   1.951   1.720   1.904
  713SOL    HW2 2162   2.056   1.845   1.909
  714SOL     OW 2163   2.692   1.273   1.422
  714SOL    HW1 2164   2.687   1.306   1.517
  714SOL    HW2 2165   2.606   1.292   1.376
  715SOL     OW 2166   2.534   1.616   0.154
  715SOL    HW1 2167   2.543   1.626   0.055
  715SOL    HW2 2168   2.494   1.527   0.175
  716SOL     OW 2169   2.125   0.326   0.720
  716SOL    HW1 2170   2.046   0.377   0.686
  716SOL    HW2 2171   2.116   0.311   0.818
  717SOL     OW 2172   2.684   1.002   1.372
  717SOL    HW1 2173   2.724   1.001   1.280
  717SOL    HW2 2174   2.694   1.094   1.412
  718SOL     OW 2175   2.778   0.910   0.291
  718SOL    HW1 2176   2.841   0.948   0.223
  718SOL    HW2 2177   2.818   0.827   0.330
  719SOL     OW 2178   2.234   1.288   1.490
  719SOL    HW1 2179   2.221   1.381   1.456
  719SOL    HW2 2180   2.150   1.236   1.477
  720SOL     OW 2181   2.901   1.098   0.696
  720SOL    HW1 2182   2.831   1.051   0.750
  720SOL    HW2 2183   2.960   1.030   0.653
  721SOL     OW 2184   2.876   0.236   0.971
  721SOL    HW1 2185   2.868   0.200   0.878
  721SOL    HW2 2186   2.874   0.160   1.036
  722SOL     OW 2187   2.452   1.487   0.491
  722SOL    HW1 2188   2.494   1.429   0.421
  722SOL    HW2 2189   2.408   1.566   0.447
  723SOL     OW 2190   2.117   1.348   0.290
  723SOL    HW1 2191   2.021   1.349   0.263
  723SOL    HW2 2192   2.129   1.401   0.374
  724SOL     OW 2193   1.967   1.013   1.726
  724SOL    HW1 2194   1.890   0.980   1.780
  724SOL    HW2 2195   2.052   0.983   1.768
  725SOL     OW 2196   2.534   0.203   1.489
  725SOL    HW1 2197   2.624   0.187   1.449
  725SOL    HW2 2198   2.542   0.208   1.588
  726SOL     OW 2199   1.934   0.166   0.318
  726SOL    HW1 2200   1.917   0.249   0.264
  726SOL    HW2 2201   2.024   0.129   0.296
  727SOL     OW 2202   2.475   0.842   1.431
  727SOL    HW1 2203   2.531   0.923   1.414
  727SOL    HW2 2204   2.534   0.762   1.434
  728SOL     OW 2205   2.578   0.565   1.708
  728SOL    HW1 2206   2.597   0.630   1.782
  728SOL    HW2 2207   2.638   0.485   1.717
  729SOL     OW 2208   2.252   1.741   1.560
  729SOL    HW1 2209   2.161   1.782   1.558
  729SOL    HW2 2210   2.245   1.647   1.592
  730SOL     OW 2211   2.456   0.745   0.652
  730SOL    HW1 2212   2.506   0.830   0.633
  730SOL    HW2 2213   2.368   0.747   0.604
  731SOL     OW 2214   2.721   1.374   0.016
  731SOL    HW1 2215   2.675   1.389   0.104
  731SOL    HW2 2216   2.765   1.459  -0.014
  732SOL     OW 2217   2.523   1.790   0.953
  732SOL    HW1 2218   2.477   1.878   0.940
  732SOL    HW2 2219   2.622   1.802   0.946
  733SOL     OW 2220   2.721   0.956   0.861
  733SOL    HW1 2221   2.775   0.887   0.909
  733SOL    HW2 2222   2.689   1.025   0.927
  734SOL     OW 2223   2.945   0.984   0.087
  734SOL    HW1 2224   2.922   1.037   0.005
  734SOL    HW2 2225   3.026   0.928   0.068
  735SOL     OW 2226   2.083   1.314   1.844
  735SOL    HW1 2227   2.018   1.241   1.823
  735SOL    HW2 2228   2.087   1.328   1.942
  736SOL     OW 2229   1.941   1.240   0.653
  736SOL    HW1 2230   1.940   1.193   0.741
  736SOL    HW2 2231   2.023   1.212   0.602
  737SOL     OW 2232   2.534   1.391   1.624
  737SOL    HW1 2233   2.456   1.341   1.662
  737SOL    HW2 2234   2.531   1.486   1.655
  738SOL     OW 2235   2.290   0.424   0.520
  738SOL    HW1 2236   2.320   0.352   0.458
  738SOL    HW2 2237   2.251   0.384   0.603
  739SOL     OW 2238   2.179   0.547   1.280
  739SOL    HW1 2239   2.217   0.488   1.352
  739SOL    HW2 2240   2.219   0.521   1.192
  740SOL     OW 2241   2.674   1.586   0.687
  740SOL    HW1 2242   2.706   1.596   0.593
  740SOL    HW2 2243   2.595   1.524   0.689
  741SOL     OW 2244   2.863   0.034   1.154
  741SOL    HW1 2245   2.800  -0.038   1.123
  741SOL    HW2 2246   2.956  -0.002   1.154
  742SOL     OW 2247   2.632   1.330   0.301
  742SOL    HW1 2248   2.586   1.243   0.318
  742SOL    HW2 2249   2.723   1.327   0.342
  743SOL     OW 2250   2.480   1.567   1.284
  743SOL    HW1 2251   2.475   1.649   1.341
  743SOL    HW2 2252   2.569   1.564   1.239
  744SOL     OW 2253   1.901   1.077   0.300
  744SOL    HW1 2254   2.000   1.066   0.291
  744SOL    HW2 2255   1.861   0.991   0.332
  745SOL     OW 2256   2.737   1.646   0.337
  745SOL    HW1 2257   2.660   1.611   0.283
  745SOL    HW2 2258   2.705   1.717   0.399
  746SOL     OW 2259   2.092   0.628   1.975
  746SOL    HW1 2260   1.999   0.626   2.012
  746SOL    HW2 2261   2.093   0.589   1.883
  747SOL     OW 2262   2.087   0.275   2.858
  747SOL    HW1 2263   2.122   0.258   2.950
  747SOL    HW2 2264   1.999   0.230   2.846
  748SOL     OW 2265   1.881   0.368   2.509
  748SOL    HW1 2266   1.799   0.411   2.548
  748SOL    HW2 2267   1.853   0.295   2.446
  749SOL     OW 2268   2.431   1.275   3.027
  749SOL    HW1 2269   2.338   1.268   2.990
  749SOL    HW2 2270   2.442   1.364   3.071
  750SOL     OW 2271   2.997   0.703   2.579
  750SOL    HW1 2272   3.054   0.781   2.554
  750SOL    HW2 2273   2.937   0.729   2.655
  751SOL     OW 2274   2.630   1.144   2.885
  751SOL    HW1 2275   2.552   1.161   2.945
  751SOL    HW2 2276   2.664   1.231   2.849
  752SOL     OW 2277   2.547   1.012   2.527
  752SOL    HW1 2278   2.616   0.996   2.597
  752SOL    HW2 2279   2.474   1.069   2.565
  753SOL     OW 2280   2.197   1.435   2.923
  753SOL    HW1 2281   2.119   1.404   2.870
  753SOL    HW2 2282   2.255   1.493   2.866
  754SOL     OW 2283   2.093   1.713   2.345
  754SOL    HW1 2284   2.127   1.790   2.399
  754SOL    HW2 2285   2.137   1.713   2.255
  755SOL     OW 2286   2.092   1.434   2.400
  755SOL    HW1 2287   2.066   1.530   2.400
  755SOL    HW2 2288   2.021   1.380   2.445
  756SOL     OW 2289   2.102   1.091   2.748
  756SOL    HW1 2290   2.116   1.007   2.800
  756SOL    HW2 2291   2.047   1.155   2.803
  757SOL     OW 2292   2.468   0.964   1.985
  757SOL    HW1 2293   2.475   1.048   1.931
  757SOL    HW2 2294   2.514   0.977   2.073
  758SOL     OW 2295   1.984   0.643   2.425
  758SOL    HW1 2296   1.939   0.555   2.442
  758SOL    HW2 2297   1.983   0.697   2.509
  759SOL     OW 2298   1.889   1.596   1.979
  759SOL    HW1 2299   1.870   1.500   2.000
  759SOL    HW2 2300   1.856   1.654   2.054
  760SOL     OW 2301   2.475   1.365   2.588
  760SOL    HW1 2302   2.426   1.278   2.597
  760SOL    HW2 2303   2.452   1.408   2.501
  761SOL     OW 2304   2.671   0.004   2.364
  761SOL    HW1 2305   2.711   0.095   2.355
  761SOL    HW2 2306   2.571   0.012   2.370
  762SOL     OW 2307   2.059   0.976   3.126
  762SOL    HW1 2308   2.148   0.931   3.112
  762SOL    HW2 2309   1.986   0.911   3.107
  763SOL     OW 2310   2.460   0.729   2.132
  763SOL    HW1 2311   2.484   0.798   2.064
  763SOL    HW2 2312   2.382   0.762   2.186
  764SOL     OW 2313   2.903   0.701   2.291
  764SOL    HW1 2314   2.929   0.697   2.387
  764SOL    HW2 2315   2.818   0.650   2.277
  765SOL     OW 2316   1.938   0.811   2.651
  765SOL    HW1 2317   2.037   0.799   2.660
  765SOL    HW2 2318   1.914   0.906   2.672
  766SOL     OW 2319   2.727   0.348   2.057
  766SOL    HW1 2320   2.786   0.411   2.008
  766SOL    HW2 2321   2.746   0.254   2.028
  767SOL     OW 2322   2.412   0.196   2.747
  767SOL    HW1 2323   2.407   0.191   2.847
  767SOL    HW2 2324   2.414   0.292   2.718
  768SOL     OW 2325   2.870   1.456   2.339
  768SOL    HW1 2326   2.824   1.528   2.287
  768SOL    HW2 2327   2.866   1.476   2.437
  769SOL     OW 2328   2.213   1.801   2.715
  769SOL    HW1 2329   2.263   1.715   2.721
  769SOL    HW2 2330   2.278   1.878   2.712
  770SOL     OW 2331   2.183   0.943   2.104
  770SOL    HW1 2332   2.265   0.982   2.062
  770SOL    HW2 2333   2.156   0.861   2.055
  771SOL     OW 2334   2.973   1.776   2.099
  771SOL    HW1 2335   2.913   1.714   2.149
  771SOL    HW2 2336   3.004   1.732   2.014
  772SOL     OW 2337   2.326   1.743   2.185
  772SOL    HW1 2338   2.359   1.782   2.271
  772SOL    HW2 2339   2.402   1.736   2.120
  773SOL     OW 2340   2.111   1.785   3.103
  773SOL    HW1 2341   2.168   1.720   3.153
  773SOL    HW2 2342   2.095   1.752   3.010
  774SOL     OW 2343   2.802   1.698   2.766
  774SOL    HW1 2344   2.882   1.641   2.787
  774SOL    HW2 2345   2.753   1.658   2.689
  775SOL     OW 2346   2.244   0.700   2.342
  775SOL    HW1 2347   2.289   0.610   2.339
  775SOL    HW2 2348   2.150   0.689   2.375
  776SOL     OW 2349   2.476   0.122   1.979
  776SOL    HW1 2350   2.574   0.100   1.986
  776SOL    HW2 2351   2.445   0.105   1.886
  777SOL     OW 2352   2.665   1.402   2.786
  777SOL    HW1 2353   2.755   1.416   2.744
  777SOL    HW2 2354   2.594   1.404   2.715
  778SOL     OW 2355   2.784   0.503   2.761
  778SOL    HW1 2356   2.759   0.494   2.665
  778SOL    HW2 2357   2.832   0.421   2.792
  779SOL     OW 2358   2.401   0.064   2.374
  779SOL    HW1 2359   2.320   0.065   2.432
  779SOL    HW2 2360   2.404   0.147   2.319
  780SOL     OW 2361   2.159   0.035   2.033
  780SOL    HW1 2362   2.208   0.119   2.012
  780SOL    HW2 2363   2.221  -0.030   2.078
  781SOL     OW 2364   2.797   0.236   2.342
  781SOL    HW1 2365   2.749   0.277   2.264
  781SOL    HW2 2366   2.896   0.234   2.323
  782SOL     OW 2367   3.089   1.570   2.655
  782SOL    HW1 2368   3.110   1.644   2.590
  782SOL    HW2 2369   3.157   1.570   2.728
  783SOL     OW 2370   2.321   1.152   2.603
  783SOL    HW1 2371   2.250   1.125   2.668
  783SOL    HW2 2372   2.295   1.124   2.510
  784SOL     OW 2373   3.133   1.797   2.453
  784SOL    HW1 2374   3.177   1.861   2.389
  784SOL    HW2 2375   3.083   1.849   2.523
  785SOL     OW 2376   2.894   0.549   1.878
  785SOL    HW1 2377   2.853   0.631   1.839
  785SOL    HW2 2378   2.958   0.575   1.951
  786SOL     OW 2379   2.423   0.222   3.009
  786SOL    HW1 2380   2.461   0.138   3.046
  786SOL    HW2 2381   2.335   0.241   3.053
  787SOL     OW 2382   2.728   0.454   2.504
  787SOL    HW1 2383   2.696   0.526   2.442
  787SOL    HW2 2384   2.752   0.373   2.451
  788SOL     OW 2385   2.879   0.039   2.615
  788SOL    HW1 2386   2.807   0.044   2.546
  788SOL    HW2 2387   2.855  -0.030   2.684
  789SOL     OW 2388   2.350   1.385   2.036
  789SOL    HW1 2389   2.263   1.370   2.083
  789SOL    HW2 2390   2.333   1.411   1.941
  790SOL     OW 2391   2.389   0.256   2.190
  790SOL    HW1 2392   2.416   0.197   2.115
  790SOL    HW2 2393   2.389   0.351   2.159
  791SOL     OW 2394   2.973   1.195   2.962
  791SOL    HW1 2395   2.933   1.239   3.043
  791SOL    HW2 2396   2.932   1.232   2.879
  792SOL     OW 2397   2.567   1.050   2.230
  792SOL    HW1 2398   2.553   1.057   2.329
  792SOL    HW2 2399   2.651   0.999   2.212
  793SOL     OW 2400   2.272   0.813   3.113
  793SOL    HW1 2401   2.358   0.825   3.163
  793SOL    HW2 2402   2.230   0.726   3.140
  794SOL     OW 2403   2.229   1.100   2.363
  794SOL    HW1 2404   2.222   1.183   2.307
  794SOL    HW2 2405   2.233   1.020   2.303
  795SOL     OW 2406   2.428   0.537   2.727
  795SOL    HW1 2407   2.440   0.603   2.653
  795SOL    HW2 2408   2.474   0.571   2.810
  796SOL     OW 2409   3.114   1.348   2.250
  796SOL    HW1 2410   3.164   1.425   2.290
  796SOL    HW2 2411   3.019   1.350   2.282
  797SOL     OW 2412   2.435   0.870   2.891
  797SOL    HW1 2413   2.479   0.959   2.882
  797SOL    HW2 2414   2.372   0.870   2.968
  798SOL     OW 2415   3.222   0.862   2.907
  798SOL    HW1 2416   3.147   0.862   2.841
  798SOL    HW2 2417   3.259   0.770   2.916
  799SOL     OW 2418   3.071   0.525   2.137
  799SOL    HW1 2419   3.084   0.441   2.191
  799SOL    HW2 2420   3.042   0.599   2.197
  800SOL     OW 2421   2.169   0.213   3.093
  800SOL    HW1 2422   2.146   0.250   3.183
  800SOL    HW2 2423   2.139   0.118   3.087
  801SOL     OW 2424   1.899   1.310   3.144
  801SOL    HW1 2425   1.952   1.261   3.212
  801SOL    HW2 2426   1.921   1.408   3.149
  802SOL     OW 2427   2.594   0.634   2.926
  802SOL    HW1 2428   2.653   0.608   2.850
  802SOL    HW2 2429   2.566   0.730   2.915
  803SOL     OW 2430   2.169   0.063   2.480
  803SOL    HW1 2431   2.158   0.157   2.513
  803SOL    HW2 2432   2.164   0.000   2.557
  804SOL     OW 2433   2.885   0.766   2.828
  804SOL    HW1 2434   2.900   0.787   2.924
  804SOL    HW2 2435   2.855   0.671   2.819
  805SOL     OW 2436   3.402   0.274   1.987
  805SOL    HW1 2437   3.341   0.199   2.010
  805SOL    HW2 2438   3.424   0.326   2.070
  806SOL     OW 2439   2.930   1.333   2.711
  806SOL    HW1 2440   2.937   1.249   2.656
  806SOL    HW2 2441   2.992   1.402   2.675
  807SOL     OW 2442   2.181   0.810   2.811
  807SOL    HW1 2443   2.274   0.846   2.816
  807SOL    HW2 2444   2.175   0.725   2.863
  808SOL     OW 2445   2.201   0.509   2.868
  808SOL    HW1 2446   2.149   0.426   2.851
  808SOL    HW2 2447   2.278   0.514   2.804
  809SOL     OW 2448   3.022   0.207   3.339
  809SOL    HW1 2449   3.022   0.271   3.416
  809SOL    HW2 2450   3.050   0.255   3.256
  810SOL     OW 2451   1.870   1.326   2.062
  810SOL    HW1 2452   1.777   1.347   2.031
  810SOL    HW2 2453   1.880   1.227   2.075
  811SOL     OW 2454   1.950   1.801   2.789
  811SOL    HW1 2455   1.908   1.715   2.762
  811SOL    HW2 2456   2.044   1.804   2.755
  812SOL     OW 2457   2.366   1.568   2.772
  812SOL    HW1 2458   2.432   1.642   2.781
  812SOL    HW2 2459   2.410   1.489   2.730
  813SOL     OW 2460   2.864   0.796   3.100
  813SOL    HW1 2461   2.905   0.764   3.186
  813SOL    HW2 2462   2.768   0.769   3.097
  814SOL     OW 2463   1.902   0.544   2.976
  814SOL    HW1 2464   1.987   0.511   2.935
  814SOL    HW2 2465   1.915   0.559   3.074
  815SOL     OW 2466   2.677   0.572   2.187
  815SOL    HW1 2467   2.684   0.483   2.141
  815SOL    HW2 2468   2.583   0.606   2.179
  816SOL     OW 2469   2.533   0.464   3.131
  816SOL    HW1 2470   2.499   0.375   3.101
  816SOL    HW2 2471   2.559   0.518   3.051
  817SOL     OW 2472   2.792   1.678   3.327
  817SOL    HW1 2473   2.768   1.660   3.232
  817SOL    HW2 2474   2.822   1.772   3.337
  818SOL     OW 2475   2.335   0.500   2.053
  818SOL    HW1 2476   2.396   0.580   2.057
  818SOL    HW2 2477   2.240   0.531   2.060
  819SOL     OW 2478   3.114   1.731   2.990
  819SOL    HW1 2479   3.198   1.736   2.936
  819SOL    HW2 2480   3.091   1.635   3.008
  820SOL     OW 2481   1.945   1.258   2.884
  820SOL    HW1 2482   1.940   1.257   2.984
  820SOL    HW2 2483   1.862   1.217   2.846
  821SOL     OW 2484   2.534   1.616   2.016
  821SOL    HW1 2485   2.543   1.626   1.917
  821SOL    HW2 2486   2.494   1.527   2.037
  822SOL     OW 2487   2.125   0.326   2.582
  822SOL    HW1 2488   2.046   0.377   2.548
  822SOL    HW2 2489   2.116   0.311   2.680
  823SOL     OW 2490   2.684   1.002   3.234
  823SOL    HW1 2491   2.724   1.001   3.142
  823SOL    HW2 2492   2.694   1.094   3.274
  824SOL     OW 2493   2.778   0.910   2.153
  824SOL    HW1 2494   2.841   0.948   2.085
  824SOL    HW2 2495   2.818   0.827   2.192
  825SOL     OW 2496   3.476   1.292   3.151
  825SOL    HW1 2497   3.536   1.295   3.231
  825SOL    HW2 2498   3.401   1.356   3.164
  826SOL     OW 2499   2.901   1.098   2.558
  826SOL    HW1 2500   2.831   1.051   2.612
  826SOL    HW2 2501   2.960   1.030   2.515
  827SOL     OW 2502   2.876   0.236   2.833
  827SOL    HW1 2503   2.868   0.200   2.740
  827SOL    HW2 2504   2.874   0.160   2.898
  828SOL     OW 2505   2.452   1.487   2.353
  828SOL    HW1 2506   2.494   1.429   2.283
  828SOL    HW2 2507   2.408   1.566   2.309
  829SOL     OW 2508   2.117   1.348   2.152
  829SOL    HW1 2509   2.021   1.349   2.125
  829SOL    HW2 2510   2.129   1.401   2.236
  830SOL     OW 2511   1.937   0.345   1.895
  830SOL    HW1 2512   1.845   0.317   1.866
  830SOL    HW2 2513   1.968   0.422   1.839
  831SOL     OW 2514   1.934   0.166   2.180
  831SOL    HW1 2515   1.917   0.249   2.126
  831SOL    HW2 2516   2.024   0.129   2.158
  832SOL     OW 2517   2.456   0.745   2.514
  832SOL    HW1 2518   2.506   0.830   2.495
  832SOL    HW2 2519   2.368   0.747   2.466
  833SOL     OW 2520   2.721   1.374   1.878
  833SOL    HW1 2521   2.675   1.389   1.966
  833SOL    HW2 2522   2.765   1.459   1.848
  834SOL     OW 2523   2.523   1.790   2.815
  834SOL    HW1 2524   2.477   1.878   2.802
  834SOL    HW2 2525   2.622   1.802   2.808
  835SOL     OW 2526   2.721   0.956   2.723
  835SOL    HW1 2527   2.775   0.887   2.771
  835SOL    HW2 2528   2.689   1.025   2.789
  836SOL     OW 2529   2.945   0.984   1.949
  836SOL    HW1 2530   2.922   1.037   1.867
  836SOL    HW2 2531   3.026   0.928   1.930
  837SOL     OW 2532   1.941   1.240   2.515
  837SOL    HW1 2533   1.940   1.193   2.603
  837SOL    HW2 2534   2.023   1.212   2.464
  838SOL     OW 2535   2.290   0.424   2.382
  838SOL    HW1 2536   2.320   0.352   2.320
  838SOL    HW2 2537   2.251   0.384   2.465
  839SOL     OW 2538   2.674   1.586   2.549
  839SOL    HW1 2539   2.706   1.596   2.455
  839SOL    HW2 2540   2.595   1.524   2.551
  840SOL     OW 2541   2.863   0.034   3.016
  840SOL    HW1 2542   2.800  -0.038   2.985
  840SOL    HW2 2543   2.956  -0.002   3.016
  841SOL     OW 2544   2.632   1.330   2.163
  841SOL    HW1 2545   2.586   1.243   2.180
  841SOL    HW2 2546   2.723   1.327   2.204
  842SOL     OW 2547   1.901   1.077   2.162
  842SOL    HW1 2548   2.000   1.066   2.153
  842SOL    HW2 2549   1.861   0.991   2.194
  843SOL     OW 2550   2.737   1.646   2.199
  843SOL    HW1 2551   2.660   1.611   2.145
  843SOL    HW2 2552   2.705   1.717   2.261
  844SOL     OW 2553   2.092   2.490   0.113
  844SOL    HW1 2554   1.999   2.488   0.150
  844SOL    HW2 2555   2.093   2.451   0.021
  845SOL     OW 2556   2.087   2.137   0.996
  845SOL    HW1 2557   2.122   2.120   1.088
  845SOL    HW2 2558   1.999   2.092   0.984
  846SOL     OW 2559   1.881   2.230   0.647
  846SOL    HW1 2560   1.799   2.273   0.686
  846SOL    HW2 2561   1.853   2.157   0.584
  847SOL     OW 2562   2.997   2.565   0.717
  847SOL    HW1 2563   3.054   2.643   0.692
  847SOL    HW2 2564   2.937   2.591   0.793
  848SOL     OW 2565   2.630   3.006   1.023
  848SOL    HW1 2566   2.552   3.023   1.083
  848SOL    HW2 2567   2.664   3.093   0.987
  849SOL     OW 2568   2.712   2.660   1.823
  849SOL    HW1 2569   2.708   2.736   1.888
  849SOL    HW2 2570   2.734   2.696   1.732
  850SOL     OW 2571   2.547   2.874   0.665
  850SOL    HW1 2572   2.616   2.858   0.735
  850SOL    HW2 2573   2.474   2.931   0.703
  851SOL     OW 2574   2.548   3.023   1.803
  851SOL    HW1 2575   2.608   3.102   1.817
  851SOL    HW2 2576   2.462   3.054   1.762
  852SOL     OW 2577   2.300   2.254   1.499
  852SOL    HW1 2578   2.382   2.198   1.508
  852SOL    HW2 2579   2.219   2.196   1.503
  853SOL     OW 2580   2.102   2.953   0.886
  853SOL    HW1 2581   2.116   2.869   0.938
  853SOL    HW2 2582   2.047   3.017   0.941
  854SOL     OW 2583   2.468   2.826   0.123
  854SOL    HW1 2584   2.475   2.910   0.069
  854SOL    HW2 2585   2.514   2.839   0.211
  855SOL     OW 2586   1.984   2.505   0.563
  855SOL    HW1 2587   1.939   2.417   0.580
  855SOL    HW2 2588   1.983   2.559   0.647
  856SOL     OW 2589   1.889   3.458   0.117
  856SOL    HW1 2590   1.870   3.362   0.138
  856SOL    HW2 2591   1.856   3.516   0.192
  857SOL     OW 2592   1.975   2.599   1.597
  857SOL    HW1 2593   2.063   2.586   1.642
  857SOL    HW2 2594   1.962   2.696   1.575
  858SOL     OW 2595   2.671   1.866   0.502
  858SOL    HW1 2596   2.711   1.957   0.493
  858SOL    HW2 2597   2.571   1.874   0.508
  859SOL     OW 2598   2.059   2.838   1.264
  859SOL    HW1 2599   2.148   2.793   1.250
  859SOL    HW2 2600   1.986   2.773   1.245
  860SOL     OW 2601   2.179   2.113   1.801
  860SOL    HW1 2602   2.250   2.184   1.807
  860SOL    HW2 2603   2.091   2.152   1.829
  861SOL     OW 2604   2.460   2.591   0.270
  861SOL    HW1 2605   2.484   2.660   0.202
  861SOL    HW2 2606   2.382   2.624   0.324
  862SOL     OW 2607   2.669   2.467   1.465
  862SOL    HW1 2608   2.622   2.464   1.554
  862SOL    HW2 2609   2.618   2.412   1.399
  863SOL     OW 2610   2.835   2.752   1.572
  863SOL    HW1 2611   2.881   2.668   1.543
  863SOL    HW2 2612   2.779   2.786   1.497
  864SOL     OW 2613   2.853   2.272   1.242
  864SOL    HW1 2614   2.776   2.306   1.296
  864SOL    HW2 2615   2.819   2.221   1.163
  865SOL     OW 2616   2.903   2.563   0.429
  865SOL    HW1 2617   2.929   2.559   0.525
  865SOL    HW2 2618   2.818   2.512   0.415
  866SOL     OW 2619   1.938   2.673   0.789
  866SOL    HW1 2620   2.037   2.661   0.798
  866SOL    HW2 2621   1.914   2.768   0.810
  867SOL     OW 2622   2.727   2.210   0.195
  867SOL    HW1 2623   2.786   2.273   0.146
  867SOL    HW2 2624   2.746   2.116   0.166
  868SOL     OW 2625   2.412   2.058   0.885
  868SOL    HW1 2626   2.407   2.053   0.985
  868SOL    HW2 2627   2.414   2.154   0.856
  869SOL     OW 2628   2.183   2.805   0.242
  869SOL    HW1 2629   2.265   2.844   0.200
  869SOL    HW2 2630   2.156   2.723   0.193
  870SOL     OW 2631   2.064   2.147   1.498
  870SOL    HW1 2632   1.984   2.207   1.485
  870SOL    HW2 2633   2.054   2.098   1.584
  871SOL     OW 2634   2.244   2.562   0.480
  871SOL    HW1 2635   2.289   2.472   0.477
  871SOL    HW2 2636   2.150   2.551   0.513
  872SOL     OW 2637   2.476   1.984   0.117
  872SOL    HW1 2638   2.574   1.962   0.124
  872SOL    HW2 2639   2.445   1.967   0.024
  873SOL     OW 2640   2.643   2.126   1.749
  873SOL    HW1 2641   2.710   2.065   1.792
  873SOL    HW2 2642   2.570   2.145   1.814
  874SOL     OW 2643   2.665   3.264   0.924
  874SOL    HW1 2644   2.755   3.278   0.882
  874SOL    HW2 2645   2.594   3.266   0.853
  875SOL     OW 2646   2.784   2.365   0.899
  875SOL    HW1 2647   2.759   2.356   0.803
  875SOL    HW2 2648   2.832   2.283   0.930
  876SOL     OW 2649   2.401   1.926   0.512
  876SOL    HW1 2650   2.320   1.927   0.570
  876SOL    HW2 2651   2.404   2.009   0.457
  877SOL     OW 2652   2.159   1.897   0.171
  877SOL    HW1 2653   2.208   1.981   0.150
  877SOL    HW2 2654   2.221   1.832   0.216
  878SOL     OW 2655   2.797   2.098   0.480
  878SOL    HW1 2656   2.749   2.139   0.402
  878SOL    HW2 2657   2.896   2.096   0.461
  879SOL     OW 2658   2.938   2.545   1.464
  879SOL    HW1 2659   2.858   2.484   1.467
  879SOL    HW2 2660   3.019   2.492   1.440
  880SOL     OW 2661   2.321   3.014   0.741
  880SOL    HW1 2662   2.250   2.987   0.806
  880SOL    HW2 2663   2.295   2.986   0.648
  881SOL     OW 2664   2.894   2.411   0.016
  881SOL    HW1 2665   2.853   2.493  -0.023
  881SOL    HW2 2666   2.958   2.437   0.089
  882SOL     OW 2667   1.940   2.418   1.386
  882SOL    HW1 2668   2.032   2.417   1.345
  882SOL    HW2 2669   1.934   2.492   1.453
  883SOL     OW 2670   2.423   2.084   1.147
  883SOL    HW1 2671   2.461   2.000   1.184
  883SOL    HW2 2672   2.335   2.103   1.191
  884SOL     OW 2673   2.728   2.316   0.642
  884SOL    HW1 2674   2.696   2.388   0.580
  884SOL    HW2 2675   2.752   2.235   0.589
  885SOL     OW 2676   2.879   1.901   0.753
  885SOL    HW1 2677   2.807   1.906   0.684
  885SOL    HW2 2678   2.855   1.832   0.822
  886SOL     OW 2679   2.389   2.118   0.328
  886SOL    HW1 2680   2.416   2.059   0.253
  886SOL    HW2 2681   2.389   2.213   0.297
  887SOL     OW 2682   2.777   1.951   1.402
  887SOL    HW1 2683   2.802   1.931   1.307
  887SOL    HW2 2684   2.849   2.007   1.444
  888SOL     OW 2685   2.842   2.978   1.719
  888SOL    HW1 2686   2.743   2.984   1.729
  888SOL    HW2 2687   2.865   2.898   1.663
  889SOL     OW 2688   2.567   2.912   0.368
  889SOL    HW1 2689   2.553   2.919   0.467
  889SOL    HW2 2690   2.651   2.861   0.350
  890SOL     OW 2691   2.272   2.675   1.251
  890SOL    HW1 2692   2.358   2.687   1.301
  890SOL    HW2 2693   2.230   2.588   1.278
  891SOL     OW 2694   2.229   2.962   0.501
  891SOL    HW1 2695   2.222   3.045   0.445
  891SOL    HW2 2696   2.233   2.882   0.441
  892SOL     OW 2697   2.428   2.399   0.865
  892SOL    HW1 2698   2.440   2.465   0.791
  892SOL    HW2 2699   2.474   2.433   0.948
  893SOL     OW 2700   2.264   2.613   1.598
  893SOL    HW1 2701   2.332   2.668   1.551
  893SOL    HW2 2702   2.304   2.525   1.625
  894SOL     OW 2703   2.875   1.967   1.770
  894SOL    HW1 2704   2.881   2.052   1.718
  894SOL    HW2 2705   2.907   1.891   1.713
  895SOL     OW 2706   2.366   1.912   1.740
  895SOL    HW1 2707   2.324   1.855   1.670
  895SOL    HW2 2708   2.300   1.981   1.772
  896SOL     OW 2709   2.435   2.732   1.029
  896SOL    HW1 2710   2.479   2.821   1.020
  896SOL    HW2 2711   2.372   2.732   1.106
  897SOL     OW 2712   3.222   2.724   1.045
  897SOL    HW1 2713   3.147   2.724   0.979
  897SOL    HW2 2714   3.259   2.632   1.054
  898SOL     OW 2715   3.071   2.387   0.275
  898SOL    HW1 2716   3.084   2.303   0.329
  898SOL    HW2 2717   3.042   2.461   0.335
  899SOL     OW 2718   2.169   2.075   1.231
  899SOL    HW1 2719   2.146   2.112   1.321
  899SOL    HW2 2720   2.139   1.980   1.225
  900SOL     OW 2721   2.594   2.496   1.064
  900SOL    HW1 2722   2.653   2.470   0.988
  900SOL    HW2 2723   2.566   2.592   1.053
  901SOL     OW 2724   2.169   1.925   0.618
  901SOL    HW1 2725   2.158   2.019   0.651
  901SOL    HW2 2726   2.164   1.862   0.695
  902SOL     OW 2727   2.885   2.628   0.966
  902SOL    HW1 2728   2.900   2.649   1.062
  902SOL    HW2 2729   2.855   2.533   0.957
  903SOL     OW 2730   2.212   2.760   1.804
  903SOL    HW1 2731   2.288   2.804   1.852
  903SOL    HW2 2732   2.247   2.713   1.722
  904SOL     OW 2733   2.181   2.672   0.949
  904SOL    HW1 2734   2.274   2.708   0.954
  904SOL    HW2 2735   2.175   2.587   1.001
  905SOL     OW 2736   2.201   2.371   1.006
  905SOL    HW1 2737   2.149   2.288   0.989
  905SOL    HW2 2738   2.278   2.376   0.942
  906SOL     OW 2739   3.000   2.242   1.678
  906SOL    HW1 2740   2.955   2.305   1.742
  906SOL    HW2 2741   3.093   2.273   1.661
  907SOL     OW 2742   3.022   2.069   1.477
  907SOL    HW1 2743   3.022   2.133   1.554
  907SOL    HW2 2744   3.050   2.117   1.394
  908SOL     OW 2745   1.870   3.188   0.200
  908SOL    HW1 2746   1.777   3.209   0.169
  908SOL    HW2 2747   1.880   3.089   0.213
  909SOL     OW 2748   2.864   2.658   1.238
  909SOL    HW1 2749   2.905   2.626   1.324
  909SOL    HW2 2750   2.768   2.631   1.235
  910SOL     OW 2751   1.902   2.406   1.114
  910SOL    HW1 2752   1.987   2.373   1.073
  910SOL    HW2 2753   1.915   2.421   1.212
  911SOL     OW 2754   2.051   2.382   1.722
  911SOL    HW1 2755   2.110   2.342   1.652
  911SOL    HW2 2756   1.993   2.453   1.681
  912SOL     OW 2757   2.677   2.434   0.325
  912SOL    HW1 2758   2.684   2.345   0.279
  912SOL    HW2 2759   2.583   2.468   0.317
  913SOL     OW 2760   2.533   2.326   1.269
  913SOL    HW1 2761   2.499   2.237   1.239
  913SOL    HW2 2762   2.559   2.380   1.189
  914SOL     OW 2763   2.335   2.362   0.191
  914SOL    HW1 2764   2.396   2.442   0.195
  914SOL    HW2 2765   2.240   2.393   0.198
  915SOL     OW 2766   2.021   2.999   1.466
  915SOL    HW1 2767   2.043   2.938   1.542
  915SOL    HW2 2768   2.031   2.950   1.380
  916SOL     OW 2769   1.945   3.120   1.022
  916SOL    HW1 2770   1.940   3.119   1.122
  916SOL    HW2 2771   1.862   3.079   0.984
  917SOL     OW 2772   2.765   1.948   0.133
  917SOL    HW1 2773   2.816   1.949   0.047
  917SOL    HW2 2774   2.821   1.906   0.204
  918SOL     OW 2775   2.125   2.188   0.720
  918SOL    HW1 2776   2.046   2.239   0.686
  918SOL    HW2 2777   2.116   2.173   0.818
  919SOL     OW 2778   2.684   2.864   1.372
  919SOL    HW1 2779   2.724   2.863   1.280
  919SOL    HW2 2780   2.694   2.956   1.412
  920SOL     OW 2781   2.778   2.772   0.291
  920SOL    HW1 2782   2.841   2.810   0.223
  920SOL    HW2 2783   2.818   2.689   0.330
  921SOL     OW 2784   2.234   3.150   1.490
  921SOL    HW1 2785   2.221   3.243   1.456
  921SOL    HW2 2786   2.150   3.098   1.477
  922SOL     OW 2787   2.901   2.960   0.696
  922SOL    HW1 2788   2.831   2.913   0.750
  922SOL    HW2 2789   2.960   2.892   0.653
  923SOL     OW 2790   2.876   2.098   0.971
  923SOL    HW1 2791   2.868   2.062   0.878
  923SOL    HW2 2792   2.874   2.022   1.036
  924SOL     OW 2793   1.967   2.875   1.726
  924SOL    HW1 2794   1.890   2.842   1.780
  924SOL    HW2 2795   2.052   2.845   1.768
  925SOL     OW 2796   2.534   2.065   1.489
  925SOL    HW1 2797   2.624   2.049   1.449
  925SOL    HW2 2798   2.542   2.070   1.588
  926SOL     OW 2799   1.934   2.028   0.318
  926SOL    HW1 2800   1.917   2.111   0.264
  926SOL    HW2 2801   2.024   1.991   0.296
  927SOL     OW 2802   2.475   2.704   1.431
  927SOL    HW1 2803   2.531   2.785   1.414
  927SOL    HW2 2804   2.534   2.624   1.434
  928SOL     OW 2805   2.578   2.427   1.708
  928SOL    HW1 2806   2.597   2.492   1.782
  928SOL    HW2 2807   2.638   2.347   1.717
  929SOL     OW 2808   3.312   3.082   1.633
  929SOL    HW1 2809   3.303   3.072   1.732
  929SOL    HW2 2810   3.408   3.075   1.607
  930SOL     OW 2811   2.456   2.607   0.652
  930SOL    HW1 2812   2.506   2.692   0.633
  930SOL    HW2 2813   2.368   2.609   0.604
  931SOL     OW 2814   2.721   2.818   0.861
  931SOL    HW1 2815   2.775   2.749   0.909
  931SOL    HW2 2816   2.689   2.887   0.927
  932SOL     OW 2817   2.945   2.846   0.087
  932SOL    HW1 2818   2.922   2.899   0.005
  932SOL    HW2 2819   3.026   2.790   0.068
  933SOL     OW 2820   1.941   3.102   0.653
  933SOL    HW1 2821   1.940   3.055   0.741
  933SOL    HW2 2822   2.023   3.074   0.602
  934SOL     OW 2823   2.290   2.286   0.520
  934SOL    HW1 2824   2.320   2.214   0.458
  934SOL    HW2 2825   2.251   2.246   0.603
  935SOL     OW 2826   2.179   2.409   1.280
  935SOL    HW1 2827   2.217   2.350   1.352
  935SOL    HW2 2828   2.219   2.383   1.192
  936SOL     OW 2829   2.863   1.896   1.154
  936SOL    HW1 2830   2.800   1.824   1.123
  936SOL    HW2 2831   2.956   1.860   1.154
  937SOL     OW 2832   2.632   3.192   0.301
  937SOL    HW1 2833   2.586   3.105   0.318
  937SOL    HW2 2834   2.723   3.189   0.342
  938SOL     OW 2835   1.901   2.939   0.300
  938SOL    HW1 2836   2.000   2.928   0.291
  938SOL    HW2 2837   1.861   2.853   0.332
  939SOL     OW 2838   2.092   2.490   1.975
  939SOL    HW1 2839   1.999   2.488   2.012
  939SOL    HW2 2840   2.093   2.451   1.883
  940SOL     OW 2841   2.087   2.137   2.858
  940SOL    HW1 2842   2.122   2.120   2.950
  940SOL    HW2 2843   1.999   2.092   2.846
  941SOL     OW 2844   1.881   2.230   2.509
  941SOL    HW1 2845   1.799   2.273   2.548
  941SOL    HW2 2846   1.853   2.157   2.446
  942SOL     OW 2847   2.997   2.565   2.579
  942SOL    HW1 2848   3.054   2.643   2.554
  942SOL    HW2 2849   2.937   2.591   2.655
  943SOL     OW 2850   2.630   3.006   2.885
  943SOL    HW1 2851   2.552   3.023   2.945
  943SOL    HW2 2852   2.664   3.093   2.849
  944SOL     OW 2853   2.547   2.874   2.527
  944SOL    HW1 2854   2.616   2.858   2.597
  944SOL    HW2 2855   2.474   2.931   2.565
  945SOL     OW 2856   2.102   2.953   2.748
  945SOL    HW1 2857   2.116   2.869   2.800
  945SOL    HW2 2858   2.047   3.017   2.803
  946SOL     OW 2859   2.468   2.826   1.985
  946SOL    HW1 2860   2.475   2.910   1.931
  946SOL    HW2 2861   2.514   2.839   2.073
  947SOL     OW 2862   1.984   2.505   2.425
  947SOL    HW1 2863   1.939   2.417   2.442
  947SOL    HW2 2864   1.983   2.559   2.509
  948SOL     OW 2865   2.671   1.866   2.364
  948SOL    HW1 2866   2.711   1.957   2.355
  948SOL    HW2 2867   2.571   1.874   2.370
  949SOL     OW 2868   2.059   2.838   3.126
  949SOL    HW1 2869   2.148   2.793   3.112
  949SOL    HW2 2870   1.986   2.773   3.107
  950SOL     OW 2871   2.460   2.591   2.132
  950SOL    HW1 2872   2.484   2.660   2.064
  950SOL    HW2 2873   2.382   2.624   2.186
  951SOL     OW 2874   2.903   2.563   2.291
  951SOL    HW1 2875   2.929   2.559   2.387
  951SOL    HW2 2876   2.818   2.512   2.277
  952SOL     OW 2877   1.938   2.673   2.651
  952SOL    HW1 2878   2.037   2.661   2.660
  952SOL    HW2 2879   1.914   2.768   2.672
  953SOL     OW 2880   2.727   2.210   2.057
  953SOL    HW1 2881   2.786   2.273   2.008
  953SOL    HW2 2882   2.746   2.116   2.028
  954SOL     OW 2883   2.412   2.058   2.747
  954SOL    HW1 2884   2.407   2.053   2.847
  954SOL    HW2 2885   2.414   2.154   2.718
  955SOL     OW 2886   2.183   2.805   2.104
  955SOL    HW1 2887   2.265   2.844   2.062
  955SOL    HW2 2888   2.156   2.723   2.055
  956SOL     OW 2889   2.244   2.562   2.342
  956SOL    HW1 2890   2.289   2.472   2.339
  956SOL    HW2 2891   2.150   2.551   2.375
  957SOL     OW 2892   2.476   1.984   1.979
  957SOL    HW1 2893   2.574   1.962   1.986
  957SOL    HW2 2894   2.445   1.967   1.886
  958SOL     OW 2895   2.665   3.264   2.786
  958SOL    HW1 2896   2.755   3.278   2.744
  958SOL    HW2 2897   2.594   3.266   2.715
  959SOL     OW 2898   2.784   2.365   2.761
  959SOL    HW1 2899   2.759   2.356   2.665
  959SOL    HW2 2900   2.832   2.283   2.792
  960SOL     OW 2901   2.401   1.926   2.374
  960SOL    HW1 2902   2.320   1.927   2.432
  960SOL    HW2 2903   2.404   2.009   2.319
  961SOL     OW 2904   3.296   3.050   1.903
  961SOL    HW1 2905   3.328   2.974   1.960
  961SOL    HW2 2906   3.204   3.077   1.933
  962SOL     OW 2907   2.159   1.897   2.033
  962SOL    HW1 2908   2.208   1.981   2.012
  962SOL    HW2 2909   2.221   1.832   2.078
  963SOL     OW 2910   2.797   2.098   2.342
  963SOL    HW1 2911   2.749   2.139   2.264
  963SOL    HW2 2912   2.896   2.096   2.323
  964SOL     OW 2913   2.321   3.014   2.603
  964SOL    HW1 2914   2.250   2.987   2.668
  964SOL    HW2 2915   2.295   2.986   2.510
  965SOL     OW 2916   2.894   2.411   1.878
  965SOL    HW1 2917   2.853   2.493   1.839
  965SOL    HW2 2918   2.958   2.437   1.951
  966SOL     OW 2919   2.423   2.084   3.009
  966SOL    HW1 2920   2.461   2.000   3.046
  966SOL    HW2 2921   2.335   2.103   3.053
  967SOL     OW 2922   2.728   2.316   2.504
  967SOL    HW1 2923   2.696   2.388   2.442
  967SOL    HW2 2924   2.752   2.235   2.451
  968SOL     OW 2925   2.879   1.901   2.615
  968SOL    HW1 2926   2.807   1.906   2.546
  968SOL    HW2 2927   2.855   1.832   2.684
  969SOL     OW 2928   2.389   2.118   2.190
  969SOL    HW1 2929   2.416   2.059   2.115
  969SOL    HW2 2930   2.389   2.213   2.159
  970SOL     OW 2931   2.567   2.912   2.230
  970SOL    HW1 2932   2.553   2.919   2.329
  970SOL    HW2 2933   2.651   2.861   2.212
  971SOL     OW 2934   2.272   2.675   3.113
  971SOL    HW1 2935   2.358   2.687   3.163
  971SOL    HW2 2936   2.230   2.588   3.140
  972SOL     OW 2937   2.229   2.962   2.363
  972SOL    HW1 2938   2.222   3.045   2.307
  972SOL    HW2 2939   2.233   2.882   2.303
  973SOL     OW 2940   2.428   2.399   2.727
  973SOL    HW1 2941   2.440   2.465   2.653
  973SOL    HW2 2942   2.474   2.433   2.810
  974SOL     OW 2943   2.435   2.732   2.891
  974SOL    HW1 2944   2.479   2.821   2.882
  974SOL    HW2 2945   2.372   2.732   2.968
  975SOL     OW 2946   3.222   2.724   2.907
  975SOL    HW1 2947   3.147   2.724   2.841
  975SOL    HW2 2948   3.259   2.632   2.916
  976SOL     OW 2949   3.071   2.387   2.137
  976SOL    HW1 2950   3.084   2.303   2.191
  976SOL    HW2 2951   3.042   2.461   2.197
  977SOL     OW 2952   2.169   2.075   3.093
  977SOL    HW1 2953   2.146   2.112   3.183
  977SOL    HW2 2954   2.139   1.980   3.087
  978SOL     OW 2955   2.594   2.496   2.926
  978SOL    HW1 2956   2.653   2.470   2.850
  978SOL    HW2 2957   2.566   2.592   2.915
  979SOL     OW 2958   2.169   1.925   2.480
  979SOL    HW1 2959   2.158   2.019   2.513
  979SOL    HW2 2960   2.164   1.862   2.557
  980SOL     OW 2961   2.885   2.628   2.828
  980SOL    HW1 2962   2.900   2.649   2.924
  980SOL    HW2 2963   2.855   2.533   2.819
  981SOL     OW 2964   3.402   2.136   1.987
  981SOL    HW1 2965   3.341   2.061   2.010
  981SOL    HW2 2966   3.424   2.188   2.070
  982SOL     OW 2967   2.181   2.672   2.811
  982SOL    HW1 2968   2.274   2.708   2.816
  982SOL    HW2 2969   2.175   2.587   2.863
  983SOL     OW 2970   2.201   2.371   2.868
  983SOL    HW1 2971   2.149   2.288   2.851
  983SOL    HW2 2972   2.278   2.376   2.804
  984SOL     OW 2973   3.022   2.069   3.339
  984SOL    HW1 2974   3.022   2.133   3.416
  984SOL    HW2 2975   3.050   2.117   3.256
  985SOL     OW 2976   1.870   3.188   2.062
  985SOL    HW1 2977   1.777   3.209   2.031
  985SOL    HW2 2978   1.880   3.089   2.075
  986SOL     OW 2979   2.864   2.658   3.100
  986SOL    HW1 2980   2.905   2.626   3.186
  986SOL    HW2 2981   2.768   2.631   3.097
  987SOL     OW 2982   1.902   2.406   2.976
  987SOL    HW1 2983   1.987   2.373   2.935
  987SOL    HW2 2984   1.915   2.421   3.074
  988SOL     OW 2985   2.677   2.434   2.187
  988SOL    HW1 2986   2.684   2.345   2.141
  988SOL    HW2 2987   2.583   2.468   2.179
  989SOL     OW 2988   2.533   2.326   3.131
  989SOL    HW1 2989   2.499   2.237   3.101
  989SOL    HW2 2990   2.559   2.380   3.051
  990SOL     OW 2991   2.335   2.362   2.053
  990SOL    HW1 2992   2.396   2.442   2.057
  990SOL    HW2 2993   2.240   2.393   2.060
  991SOL     OW 2994   1.945   3.120   2.884
  991SOL    HW1 2995   1.940   3.119   2.984
  991SOL    HW2 2996   1.862   3.079   2.846
  992SOL     OW 2997   2.125   2.188   2.582
  992SOL    HW1 2998   2.046   2.239   2.548
  992SOL    HW2 2999   2.116   2.173   2.680
  993SOL     OW 3000   2.684   2.864   3.234
  993SOL    HW1 3001   2.724   2.863   3.142
  993SOL    HW2 3002   2.694   2.956   3.274
  994SOL     OW 3003   2.778   2.772   2.153
  994SOL    HW1 3004   2.841   2.810   2.085
  994SOL    HW2 3005   2.818   2.689   2.192
  995SOL     OW 3006   2.901   2.960   2.558
  995SOL    HW1 3007   2.831   2.913   2.612
  995SOL    HW2 3008   2.960   2.892   2.515
  996SOL     OW 3009   2.876   2.098   2.833
  996SOL    HW1 3010   2.868   2.062   2.740
  996SOL    HW2 3011   2.874   2.022   2.898
  997SOL     OW 3012   1.937   2.207   1.895
  997SOL    HW1 3013   1.845   2.179   1.866
  997SOL    HW2 3014   1.968   2.284   1.839
  998SOL     OW 3015   1.934   2.028   2.180
  998SOL    HW1 3016   1.917   2.111   2.126
  998SOL    HW2 3017   2.024   1.991   2.158
  999SOL     OW 3018   2.456   2.607   2.514
  999SOL    HW1 3019   2.506   2.692   2.495
  999SOL    HW2 3020   2.368   2.609   2.466
 1000SOL     OW 3021   2.721   2.818   2.723
 1000SOL    HW1 3022   2.775   2.749   2.771
 1000SOL    HW2 3023   2.689   2.887   2.789
 1001SOL     OW 3024   2.945   2.846   1.949
 1001SOL    HW1 3025   2.922   2.899   1.867
 1001SOL    HW2 3026   3.026   2.790   1.930
 1002SOL     OW 3027   1.941   3.102   2.515
 1002SOL    HW1 3028   1.940   3.055   2.603
 1002SOL    HW2 3029   2.023   3.074   2.464
 1003SOL     OW 3030   2.290   2.286   2.382
 1003SOL    HW1 3031   2.320   2.214   2.320
 1003SOL    HW2 3032   2.251   2.246   2.465
 1004SOL     OW 3033   2.863   1.896   3.016
 1004SOL    HW1 3034   2.800   1.824   2.985
 1004SOL    HW2 3035   2.956   1.860   3.016
 1005SOL     OW 3036   2.632   3.192   2.163
 1005SOL    HW1 3037   2.586   3.105   2.180
 1005SOL    HW2 3038   2.723   3.189   2.204
 1006SOL     OW 3039   1.901   2.939   2.162
 1006SOL    HW1 3040   2.000   2.928   2.153
 1006SOL    HW2 3041   1.861   2.853   2.194
   3.16625   3.16625   3.16625
