; mobley_468867_GMX.itp created by acpype (v: 2023.10.27) on Thu May 14 13:20:15 2026

[ atomtypes ]
;name   bond_type     mass     charge   ptype   sigma         epsilon       Amb
 c2       c2          0.00000  0.00000   A     3.31521e-01   4.13379e-01 ; 1.86  0.0988
 c5       c5          0.00000  0.00000   A     3.39771e-01   4.51035e-01 ; 1.91  0.1078
 cl       cl          0.00000  0.00000   A     3.46595e-01   1.10374e+00 ; 1.95  0.2638
 ha       ha          0.00000  0.00000   A     2.62548e-01   6.73624e-02 ; 1.47  0.0161
 hc       hc          0.00000  0.00000   A     2.60018e-01   8.70272e-02 ; 1.46  0.0208
 h1       h1          0.00000  0.00000   A     2.42200e-01   8.70272e-02 ; 1.36  0.0208

[ moleculetype ]
;name            nrexcl
 mobley_468867    3

[ atoms ]
;   nr  type  resi  res  atom  cgnr     charge      mass       ; qtot   bond_type
     1   c2     1   MOL    C1    1    -0.152200     12.01000 ; qtot -0.152
     2   c2     1   MOL    C2    2    -0.163200     12.01000 ; qtot -0.315
     3   c2     1   MOL    C3    3    -0.024800     12.01000 ; qtot -0.340
     4   c2     1   MOL    C4    4    -0.043800     12.01000 ; qtot -0.384
     5   c5     1   MOL    C5    5    -0.044500     12.01000 ; qtot -0.428
     6   c5     1   MOL    C6    6     0.080900     12.01000 ; qtot -0.348
     7   c5     1   MOL    C7    7    -0.079700     12.01000 ; qtot -0.427
     8   c5     1   MOL    C8    8     0.083600     12.01000 ; qtot -0.344
     9   c5     1   MOL    C9    9     0.082600     12.01000 ; qtot -0.261
    10   c5     1   MOL   C10   10     0.132800     12.01000 ; qtot -0.128
    11   cl     1   MOL   CL1   11    -0.003400     35.45000 ; qtot -0.132
    12   cl     1   MOL   CL2   12    -0.007400     35.45000 ; qtot -0.139
    13   cl     1   MOL   CL3   13    -0.170400     35.45000 ; qtot -0.309
    14   cl     1   MOL   CL4   14    -0.074400     35.45000 ; qtot -0.384
    15   cl     1   MOL   CL5   15    -0.070400     35.45000 ; qtot -0.454
    16   cl     1   MOL   CL6   16    -0.089900     35.45000 ; qtot -0.544
    17   cl     1   MOL   CL7   17    -0.089900     35.45000 ; qtot -0.634
    18   ha     1   MOL    H1   18     0.159000      1.00800 ; qtot -0.475
    19   ha     1   MOL    H2   19     0.161000      1.00800 ; qtot -0.314
    20   hc     1   MOL    H3   20     0.103700      1.00800 ; qtot -0.210
    21   h1     1   MOL    H4   21     0.098700      1.00800 ; qtot -0.112
    22   hc     1   MOL    H5   22     0.111700      1.00800 ; qtot -0.000

[ bonds ]
;   ai     aj funct   r             k
     1      2   1    1.3379e-01    3.6484e+05 ;     C1 - C2    
     1      5   1    1.5154e-01    2.0366e+05 ;     C1 - C5    
     1     18   1    1.0882e-01    2.9898e+05 ;     C1 - H1    
     2      6   1    1.5154e-01    2.0366e+05 ;     C2 - C6    
     2     19   1    1.0882e-01    2.9898e+05 ;     C2 - H2    
     3      4   1    1.3379e-01    3.6484e+05 ;     C3 - C4    
     3      8   1    1.5154e-01    2.0366e+05 ;     C3 - C8    
     3     11   1    1.7415e-01    1.6405e+05 ;     C3 - CL1   
     4      9   1    1.5154e-01    2.0366e+05 ;     C4 - C9    
     4     12   1    1.7415e-01    1.6405e+05 ;     C4 - CL2   
     5      7   1    1.5483e-01    1.8418e+05 ;     C5 - C7    
     5      8   1    1.5483e-01    1.8418e+05 ;     C5 - C8    
     5     20   1    1.0954e-01    2.8989e+05 ;     C5 - H3    
     6      7   1    1.5483e-01    1.8418e+05 ;     C6 - C7    
     6     13   1    1.8093e-01    1.3720e+05 ;     C6 - CL3   
     6     21   1    1.0972e-01    2.8768e+05 ;     C6 - H4    
     7      9   1    1.5483e-01    1.8418e+05 ;     C7 - C9    
     7     22   1    1.0954e-01    2.8989e+05 ;     C7 - H5    
     8     10   1    1.5483e-01    1.8418e+05 ;     C8 - C10   
     8     14   1    1.8093e-01    1.3720e+05 ;     C8 - CL4   
     9     10   1    1.5483e-01    1.8418e+05 ;     C9 - C10   
     9     15   1    1.8093e-01    1.3720e+05 ;     C9 - CL5   
    10     16   1    1.8093e-01    1.3720e+05 ;    C10 - CL6   
    10     17   1    1.8093e-01    1.3720e+05 ;    C10 - CL7   

[ pairs ]
;   ai     aj    funct
     1      3      1 ;     C1 - C3    
     1      9      1 ;     C1 - C9    
     1     10      1 ;     C1 - C10   
     1     13      1 ;     C1 - CL3   
     1     14      1 ;     C1 - CL4   
     1     21      1 ;     C1 - H4    
     1     22      1 ;     C1 - H5    
     2      8      1 ;     C2 - C8    
     2      9      1 ;     C2 - C9    
     2     20      1 ;     C2 - H3    
     2     22      1 ;     C2 - H5    
     3      7      1 ;     C3 - C7    
     3     15      1 ;     C3 - CL5   
     3     16      1 ;     C3 - CL6   
     3     17      1 ;     C3 - CL7   
     3     20      1 ;     C3 - H3    
     4      5      1 ;     C4 - C5    
     4      6      1 ;     C4 - C6    
     4     14      1 ;     C4 - CL4   
     4     16      1 ;     C4 - CL6   
     4     17      1 ;     C4 - CL7   
     4     22      1 ;     C4 - H5    
     5     11      1 ;     C5 - CL1   
     5     13      1 ;     C5 - CL3   
     5     15      1 ;     C5 - CL5   
     5     16      1 ;     C5 - CL6   
     5     17      1 ;     C5 - CL7   
     5     19      1 ;     C5 - H2    
     5     21      1 ;     C5 - H4    
     6      8      1 ;     C6 - C8    
     6     10      1 ;     C6 - C10   
     6     15      1 ;     C6 - CL5   
     6     20      1 ;     C6 - H3    
     7     12      1 ;     C7 - CL2   
     7     14      1 ;     C7 - CL4   
     7     16      1 ;     C7 - CL6   
     7     17      1 ;     C7 - CL7   
     7     19      1 ;     C7 - H2    
     8     12      1 ;     C8 - CL2   
     8     15      1 ;     C8 - CL5   
     8     22      1 ;     C8 - H5    
     9     11      1 ;     C9 - CL1   
     9     13      1 ;     C9 - CL3   
     9     14      1 ;     C9 - CL4   
     9     20      1 ;     C9 - H3    
     9     21      1 ;     C9 - H4    
    10     11      1 ;    C10 - CL1   
    10     12      1 ;    C10 - CL2   
    10     20      1 ;    C10 - H3    
    10     22      1 ;    C10 - H5    
    11     12      1 ;    CL1 - CL2   
    11     14      1 ;    CL1 - CL4   
    12     15      1 ;    CL2 - CL5   
    13     19      1 ;    CL3 - H2    
    13     22      1 ;    CL3 - H5    
    14     16      1 ;    CL4 - CL6   
    14     17      1 ;    CL4 - CL7   
    14     20      1 ;    CL4 - H3    
    15     16      1 ;    CL5 - CL6   
    15     17      1 ;    CL5 - CL7   
    15     22      1 ;    CL5 - H5    
    18      6      1 ;     H1 - C6    
    18      7      1 ;     H1 - C7    
    18      8      1 ;     H1 - C8    
    18     19      1 ;     H1 - H2    
    18     20      1 ;     H1 - H3    
    19     21      1 ;     H2 - H4    
    20     22      1 ;     H3 - H5    
    21     22      1 ;     H4 - H5    

[ angles ]
;   ai     aj     ak    funct   theta         cth
     1      2      6      1    1.1893e+02    5.2066e+02 ;     C1 - C2     - C6    
     1      2     19      1    1.2039e+02    3.8802e+02 ;     C1 - C2     - H2    
     1      5      7      1    1.0794e+02    5.1287e+02 ;     C1 - C5     - C7    
     1      5      8      1    1.0794e+02    5.1287e+02 ;     C1 - C5     - C8    
     1      5     20      1    1.1072e+02    3.6468e+02 ;     C1 - C5     - H3    
     2      1      5      1    1.1893e+02    5.2066e+02 ;     C2 - C1     - C5    
     2      1     18      1    1.2039e+02    3.8802e+02 ;     C2 - C1     - H1    
     2      6      7      1    1.0794e+02    5.1287e+02 ;     C2 - C6     - C7    
     2      6     13      1    1.1366e+02    5.2677e+02 ;     C2 - C6     - CL3   
     2      6     21      1    1.1143e+02    3.6342e+02 ;     C2 - C6     - H4    
     3      4      9      1    1.1893e+02    5.2066e+02 ;     C3 - C4     - C9    
     3      4     12      1    1.2318e+02    5.3622e+02 ;     C3 - C4     - CL2   
     3      8      5      1    1.0794e+02    5.1287e+02 ;     C3 - C8     - C5    
     3      8     10      1    1.0794e+02    5.1287e+02 ;     C3 - C8     - C10   
     3      8     14      1    1.1366e+02    5.2677e+02 ;     C3 - C8     - CL4   
     4      3      8      1    1.1893e+02    5.2066e+02 ;     C4 - C3     - C8    
     4      3     11      1    1.2318e+02    5.3622e+02 ;     C4 - C3     - CL1   
     4      9      7      1    1.0794e+02    5.1287e+02 ;     C4 - C9     - C7    
     4      9     10      1    1.0794e+02    5.1287e+02 ;     C4 - C9     - C10   
     4      9     15      1    1.1366e+02    5.2677e+02 ;     C4 - C9     - CL5   
     5      1     18      1    1.2133e+02    3.4861e+02 ;     C5 - C1     - H1    
     5      7      6      1    1.0383e+02    5.1748e+02 ;     C5 - C7     - C6    
     5      7      9      1    1.0383e+02    5.1748e+02 ;     C5 - C7     - C9    
     5      7     22      1    1.1117e+02    3.5690e+02 ;     C5 - C7     - H5    
     5      8     10      1    1.0383e+02    5.1748e+02 ;     C5 - C8     - C10   
     5      8     14      1    1.1339e+02    5.2409e+02 ;     C5 - C8     - CL4   
     6      2     19      1    1.2133e+02    3.4861e+02 ;     C6 - C2     - H2    
     6      7      9      1    1.0383e+02    5.1748e+02 ;     C6 - C7     - C9    
     6      7     22      1    1.1117e+02    3.5690e+02 ;     C6 - C7     - H5    
     7      5      8      1    1.0383e+02    5.1748e+02 ;     C7 - C5     - C8    
     7      5     20      1    1.1117e+02    3.5690e+02 ;     C7 - C5     - H3    
     7      6     13      1    1.1339e+02    5.2409e+02 ;     C7 - C6     - CL3   
     7      6     21      1    1.1117e+02    3.5690e+02 ;     C7 - C6     - H4    
     7      9     10      1    1.0383e+02    5.1748e+02 ;     C7 - C9     - C10   
     7      9     15      1    1.1339e+02    5.2409e+02 ;     C7 - C9     - CL5   
     8      3     11      1    1.2291e+02    5.2024e+02 ;     C8 - C3     - CL1   
     8      5     20      1    1.1117e+02    3.5690e+02 ;     C8 - C5     - H3    
     8     10      9      1    1.0383e+02    5.1748e+02 ;     C8 - C10    - C9    
     8     10     16      1    1.1339e+02    5.2409e+02 ;     C8 - C10    - CL6   
     8     10     17      1    1.1339e+02    5.2409e+02 ;     C8 - C10    - CL7   
     9      4     12      1    1.2291e+02    5.2024e+02 ;     C9 - C4     - CL2   
     9      7     22      1    1.1117e+02    3.5690e+02 ;     C9 - C7     - H5    
     9     10     16      1    1.1339e+02    5.2409e+02 ;     C9 - C10    - CL6   
     9     10     17      1    1.1339e+02    5.2409e+02 ;     C9 - C10    - CL7   
    10      8     14      1    1.1339e+02    5.2409e+02 ;    C10 - C8     - CL4   
    10      9     15      1    1.1339e+02    5.2409e+02 ;    C10 - C9     - CL5   
    13      6     21      1    1.0478e+02    3.6535e+02 ;    CL3 - C6     - H4    
    16     10     17      1    1.0869e+02    5.8392e+02 ;    CL6 - C10    - CL7   

[ dihedrals ] ; propers
; for gromacs 4.5 or higher, using funct 9
;    i      j      k      l   func   phase     kd      pn
     1      2      6      7      9     0.00   0.00000   0 ;     C1-    C2-    C6-    C7
     1      2      6     13      9     0.00   0.00000   0 ;     C1-    C2-    C6-   CL3
     1      2      6     21      9     0.00   0.00000   0 ;     C1-    C2-    C6-    H4
     1      5      7      6      9     0.00   0.65084   3 ;     C1-    C5-    C7-    C6
     1      5      7      9      9     0.00   0.65084   3 ;     C1-    C5-    C7-    C9
     1      5      7     22      9     0.00   0.65084   3 ;     C1-    C5-    C7-    H5
     1      5      8      3      9     0.00   0.65084   3 ;     C1-    C5-    C8-    C3
     1      5      8     10      9     0.00   0.65084   3 ;     C1-    C5-    C8-   C10
     1      5      8     14      9     0.00   0.65084   3 ;     C1-    C5-    C8-   CL4
     2      1      5      7      9     0.00   0.00000   0 ;     C2-    C1-    C5-    C7
     2      1      5      8      9     0.00   0.00000   0 ;     C2-    C1-    C5-    C8
     2      1      5     20      9   180.00   1.08784   3 ;     C2-    C1-    C5-    H3
     2      6      7      5      9     0.00   0.65084   3 ;     C2-    C6-    C7-    C5
     2      6      7      9      9     0.00   0.65084   3 ;     C2-    C6-    C7-    C9
     2      6      7     22      9     0.00   0.65084   3 ;     C2-    C6-    C7-    H5
     3      4      9      7      9     0.00   0.00000   0 ;     C3-    C4-    C9-    C7
     3      4      9     10      9     0.00   0.00000   0 ;     C3-    C4-    C9-   C10
     3      4      9     15      9     0.00   0.00000   0 ;     C3-    C4-    C9-   CL5
     3      8      5      7      9     0.00   0.65084   3 ;     C3-    C8-    C5-    C7
     3      8      5     20      9     0.00   0.65084   3 ;     C3-    C8-    C5-    H3
     3      8     10      9      9     0.00   0.65084   3 ;     C3-    C8-   C10-    C9
     3      8     10     16      9     0.00   0.65084   3 ;     C3-    C8-   C10-   CL6
     3      8     10     17      9     0.00   0.65084   3 ;     C3-    C8-   C10-   CL7
     4      3      8      5      9     0.00   0.00000   0 ;     C4-    C3-    C8-    C5
     4      3      8     10      9     0.00   0.00000   0 ;     C4-    C3-    C8-   C10
     4      3      8     14      9     0.00   0.00000   0 ;     C4-    C3-    C8-   CL4
     4      9      7      5      9     0.00   0.65084   3 ;     C4-    C9-    C7-    C5
     4      9      7      6      9     0.00   0.65084   3 ;     C4-    C9-    C7-    C6
     4      9      7     22      9     0.00   0.65084   3 ;     C4-    C9-    C7-    H5
     4      9     10      8      9     0.00   0.65084   3 ;     C4-    C9-   C10-    C8
     4      9     10     16      9     0.00   0.65084   3 ;     C4-    C9-   C10-   CL6
     4      9     10     17      9     0.00   0.65084   3 ;     C4-    C9-   C10-   CL7
     5      1      2      6      9     0.00   0.62760   1 ;     C5-    C1-    C2-    C6
     5      1      2      6      9   180.00   5.56472   3 ;     C5-    C1-    C2-    C6
     5      1      2      6      9   180.00  24.18352   2 ;     C5-    C1-    C2-    C6
     5      1      2     19      9   180.00  27.82360   2 ;     C5-    C1-    C2-    H2
     5      7      6     13      9     0.00   0.65084   3 ;     C5-    C7-    C6-   CL3
     5      7      6     21      9     0.00   0.65084   3 ;     C5-    C7-    C6-    H4
     5      7      9     10      9     0.00   2.17568   3 ;     C5-    C7-    C9-   C10
     5      7      9     15      9     0.00   0.65084   3 ;     C5-    C7-    C9-   CL5
     5      8      3     11      9     0.00   0.00000   0 ;     C5-    C8-    C3-   CL1
     5      8     10      9      9     0.00   2.17568   3 ;     C5-    C8-   C10-    C9
     5      8     10     16      9     0.00   0.65084   3 ;     C5-    C8-   C10-   CL6
     5      8     10     17      9     0.00   0.65084   3 ;     C5-    C8-   C10-   CL7
     6      7      5      8      9     0.00   2.17568   3 ;     C6-    C7-    C5-    C8
     6      7      5     20      9     0.00   0.54392   3 ;     C6-    C7-    C5-    H3
     6      7      9     10      9     0.00   2.17568   3 ;     C6-    C7-    C9-   C10
     6      7      9     15      9     0.00   0.65084   3 ;     C6-    C7-    C9-   CL5
     7      5      8     10      9     0.00   2.17568   3 ;     C7-    C5-    C8-   C10
     7      5      8     14      9     0.00   0.65084   3 ;     C7-    C5-    C8-   CL4
     7      6      2     19      9     0.00   0.00000   0 ;     C7-    C6-    C2-    H2
     7      9      4     12      9     0.00   0.00000   0 ;     C7-    C9-    C4-   CL2
     7      9     10      8      9     0.00   2.17568   3 ;     C7-    C9-   C10-    C8
     7      9     10     16      9     0.00   0.65084   3 ;     C7-    C9-   C10-   CL6
     7      9     10     17      9     0.00   0.65084   3 ;     C7-    C9-   C10-   CL7
     8      3      4      9      9     0.00   0.62760   1 ;     C8-    C3-    C4-    C9
     8      3      4      9      9   180.00   5.56472   3 ;     C8-    C3-    C4-    C9
     8      3      4      9      9   180.00  24.18352   2 ;     C8-    C3-    C4-    C9
     8      3      4     12      9   180.00  27.82360   2 ;     C8-    C3-    C4-   CL2
     8      5      7      9      9     0.00   2.17568   3 ;     C8-    C5-    C7-    C9
     8      5      7     22      9     0.00   0.54392   3 ;     C8-    C5-    C7-    H5
     8     10      9     15      9     0.00   0.65084   3 ;     C8-   C10-    C9-   CL5
     9      4      3     11      9   180.00  27.82360   2 ;     C9-    C4-    C3-   CL1
     9      7      5     20      9     0.00   0.54392   3 ;     C9-    C7-    C5-    H3
     9      7      6     13      9     0.00   0.65084   3 ;     C9-    C7-    C6-   CL3
     9      7      6     21      9     0.00   0.65084   3 ;     C9-    C7-    C6-    H4
     9     10      8     14      9     0.00   0.65084   3 ;     C9-   C10-    C8-   CL4
    10      8      3     11      9     0.00   0.00000   0 ;    C10-    C8-    C3-   CL1
    10      8      5     20      9     0.00   0.54392   3 ;    C10-    C8-    C5-    H3
    10      9      4     12      9     0.00   0.00000   0 ;    C10-    C9-    C4-   CL2
    10      9      7     22      9     0.00   0.54392   3 ;    C10-    C9-    C7-    H5
    11      3      4     12      9   180.00  27.82360   2 ;    CL1-    C3-    C4-   CL2
    11      3      8     14      9     0.00   0.00000   0 ;    CL1-    C3-    C8-   CL4
    12      4      9     15      9     0.00   0.00000   0 ;    CL2-    C4-    C9-   CL5
    13      6      2     19      9     0.00   0.00000   0 ;    CL3-    C6-    C2-    H2
    13      6      7     22      9     0.00   0.75312   3 ;    CL3-    C6-    C7-    H5
    14      8      5     20      9     0.00   0.75312   3 ;    CL4-    C8-    C5-    H3
    14      8     10     16      9     0.00   5.94128   3 ;    CL4-    C8-   C10-   CL6
    14      8     10     17      9     0.00   5.94128   3 ;    CL4-    C8-   C10-   CL7
    15      9      7     22      9     0.00   0.75312   3 ;    CL5-    C9-    C7-    H5
    15      9     10     16      9     0.00   5.94128   3 ;    CL5-    C9-   C10-   CL6
    15      9     10     17      9     0.00   5.94128   3 ;    CL5-    C9-   C10-   CL7
    18      1      2      6      9   180.00  27.82360   2 ;     H1-    C1-    C2-    C6
    18      1      2     19      9   180.00  27.82360   2 ;     H1-    C1-    C2-    H2
    18      1      5      7      9     0.00   0.00000   0 ;     H1-    C1-    C5-    C7
    18      1      5      8      9     0.00   0.00000   0 ;     H1-    C1-    C5-    C8
    18      1      5     20      9     0.00   0.00000   0 ;     H1-    C1-    C5-    H3
    19      2      6     21      9     0.00   0.00000   0 ;     H2-    C2-    C6-    H4
    20      5      7     22      9     0.00   0.50208   3 ;     H3-    C5-    C7-    H5
    21      6      7     22      9     0.00   0.65084   3 ;     H4-    C6-    C7-    H5

[ dihedrals ] ; impropers
; treated as propers in GROMACS to use correct AMBER analytical function
;    i      j      k      l   func   phase     kd      pn
     1      6      2     19      4   180.00   4.60240   2 ;     C1-    C6-    C2-    H2
     3      9      4     12      4   180.00   4.60240   2 ;     C3-    C9-    C4-   CL2
     4      8      3     11      4   180.00   4.60240   2 ;     C4-    C8-    C3-   CL1
    18      1      5      2      4   180.00   4.60240   2 ;     H1-    C1-    C5-    C2
