; mobley_1449384_GMX.itp created by acpype (v: 2023.10.27) on Thu May 14 13:17:41 2026

[ atomtypes ]
;name   bond_type     mass     charge   ptype   sigma         epsilon       Amb
 ca       ca          0.00000  0.00000   A     3.31521e-01   4.13379e-01 ; 1.86  0.0988
 c3       c3          0.00000  0.00000   A     3.39771e-01   4.51035e-01 ; 1.91  0.1078
 ha       ha          0.00000  0.00000   A     2.62548e-01   6.73624e-02 ; 1.47  0.0161
 hc       hc          0.00000  0.00000   A     2.60018e-01   8.70272e-02 ; 1.46  0.0208

[ moleculetype ]
;name            nrexcl
 mobley_1449384   3

[ atoms ]
;   nr  type  resi  res  atom  cgnr     charge      mass       ; qtot   bond_type
     1   ca     1   MOL    C1    1    -0.129500     12.01000 ; qtot -0.130
     2   ca     1   MOL    C2    2    -0.129500     12.01000 ; qtot -0.259
     3   ca     1   MOL    C3    3    -0.123000     12.01000 ; qtot -0.382
     4   ca     1   MOL    C4    4    -0.123000     12.01000 ; qtot -0.505
     5   ca     1   MOL    C5    5    -0.080300     12.01000 ; qtot -0.585
     6   ca     1   MOL    C6    6    -0.078300     12.01000 ; qtot -0.664
     7   c3     1   MOL    C7    7    -0.052800     12.01000 ; qtot -0.716
     8   c3     1   MOL    C8    8    -0.088100     12.01000 ; qtot -0.804
     9   c3     1   MOL    C9    9    -0.088100     12.01000 ; qtot -0.893
    10   c3     1   MOL   C10   10    -0.023400     12.01000 ; qtot -0.916
    11   ha     1   MOL    H1   11     0.130000      1.00800 ; qtot -0.786
    12   ha     1   MOL    H2   12     0.130000      1.00800 ; qtot -0.656
    13   ha     1   MOL    H3   13     0.131500      1.00800 ; qtot -0.524
    14   ha     1   MOL    H4   14     0.131500      1.00800 ; qtot -0.393
    15   hc     1   MOL    H5   15     0.043033      1.00800 ; qtot -0.350
    16   hc     1   MOL    H6   16     0.043033      1.00800 ; qtot -0.307
    17   hc     1   MOL    H7   17     0.043033      1.00800 ; qtot -0.264
    18   hc     1   MOL    H8   18     0.035700      1.00800 ; qtot -0.228
    19   hc     1   MOL    H9   19     0.035700      1.00800 ; qtot -0.192
    20   hc     1   MOL   H10   20     0.035700      1.00800 ; qtot -0.157
    21   hc     1   MOL   H11   21     0.035700      1.00800 ; qtot -0.121
    22   hc     1   MOL   H12   22     0.035700      1.00800 ; qtot -0.085
    23   hc     1   MOL   H13   23     0.035700      1.00800 ; qtot -0.050
    24   hc     1   MOL   H14   24     0.049700      1.00800 ; qtot 0.000

[ bonds ]
;   ai     aj funct   r             k
     1      3   1    1.3986e-01    2.9644e+05 ;     C1 - C3    
     1      5   1    1.3986e-01    2.9644e+05 ;     C1 - C5    
     1     11   1    1.0860e-01    3.0183e+05 ;     C1 - H1    
     2      4   1    1.3986e-01    2.9644e+05 ;     C2 - C4    
     2      5   1    1.3986e-01    2.9644e+05 ;     C2 - C5    
     2     12   1    1.0860e-01    3.0183e+05 ;     C2 - H2    
     3      6   1    1.3986e-01    2.9644e+05 ;     C3 - C6    
     3     13   1    1.0860e-01    3.0183e+05 ;     C3 - H3    
     4      6   1    1.3986e-01    2.9644e+05 ;     C4 - C6    
     4     14   1    1.0860e-01    3.0183e+05 ;     C4 - H4    
     5      7   1    1.5147e-01    2.0410e+05 ;     C5 - C7    
     6     10   1    1.5147e-01    2.0410e+05 ;     C6 - C10   
     7     15   1    1.0962e-01    2.8891e+05 ;     C7 - H5    
     7     16   1    1.0962e-01    2.8891e+05 ;     C7 - H6    
     7     17   1    1.0962e-01    2.8891e+05 ;     C7 - H7    
     8     10   1    1.5354e-01    1.9154e+05 ;     C8 - C10   
     8     18   1    1.0962e-01    2.8891e+05 ;     C8 - H8    
     8     19   1    1.0962e-01    2.8891e+05 ;     C8 - H9    
     8     20   1    1.0962e-01    2.8891e+05 ;     C8 - H10   
     9     10   1    1.5354e-01    1.9154e+05 ;     C9 - C10   
     9     21   1    1.0962e-01    2.8891e+05 ;     C9 - H11   
     9     22   1    1.0962e-01    2.8891e+05 ;     C9 - H12   
     9     23   1    1.0962e-01    2.8891e+05 ;     C9 - H13   
    10     24   1    1.0962e-01    2.8891e+05 ;    C10 - H14   

[ pairs ]
;   ai     aj    funct
     1      4      1 ;     C1 - C4    
     1     10      1 ;     C1 - C10   
     1     12      1 ;     C1 - H2    
     1     15      1 ;     C1 - H5    
     1     16      1 ;     C1 - H6    
     1     17      1 ;     C1 - H7    
     2      3      1 ;     C2 - C3    
     2     10      1 ;     C2 - C10   
     2     15      1 ;     C2 - H5    
     2     16      1 ;     C2 - H6    
     2     17      1 ;     C2 - H7    
     3      7      1 ;     C3 - C7    
     3      8      1 ;     C3 - C8    
     3      9      1 ;     C3 - C9    
     3     14      1 ;     C3 - H4    
     3     24      1 ;     C3 - H14   
     4      7      1 ;     C4 - C7    
     4      8      1 ;     C4 - C8    
     4      9      1 ;     C4 - C9    
     4     13      1 ;     C4 - H3    
     4     24      1 ;     C4 - H14   
     5      6      1 ;     C5 - C6    
     5     13      1 ;     C5 - H3    
     5     14      1 ;     C5 - H4    
     6     12      1 ;     C6 - H2    
     6     18      1 ;     C6 - H8    
     6     19      1 ;     C6 - H9    
     6     20      1 ;     C6 - H10   
     6     21      1 ;     C6 - H11   
     6     22      1 ;     C6 - H12   
     6     23      1 ;     C6 - H13   
     7     12      1 ;     C7 - H2    
     8     21      1 ;     C8 - H11   
     8     22      1 ;     C8 - H12   
     8     23      1 ;     C8 - H13   
     9     18      1 ;     C9 - H8    
     9     19      1 ;     C9 - H9    
     9     20      1 ;     C9 - H10   
    10     13      1 ;    C10 - H3    
    10     14      1 ;    C10 - H4    
    11      2      1 ;     H1 - C2    
    11      6      1 ;     H1 - C6    
    11      7      1 ;     H1 - C7    
    11     13      1 ;     H1 - H3    
    12     14      1 ;     H2 - H4    
    18     24      1 ;     H8 - H14   
    19     24      1 ;     H9 - H14   
    20     24      1 ;    H10 - H14   
    21     24      1 ;    H11 - H14   
    22     24      1 ;    H12 - H14   
    23     24      1 ;    H13 - H14   

[ angles ]
;   ai     aj     ak    funct   theta         cth
     1      3      6      1    1.2002e+02    5.3279e+02 ;     C1 - C3     - C6    
     1      3     13      1    1.1988e+02    3.7572e+02 ;     C1 - C3     - H3    
     1      5      2      1    1.2002e+02    5.3279e+02 ;     C1 - C5     - C2    
     1      5      7      1    1.2083e+02    5.0827e+02 ;     C1 - C5     - C7    
     2      4      6      1    1.2002e+02    5.3279e+02 ;     C2 - C4     - C6    
     2      4     14      1    1.1988e+02    3.7572e+02 ;     C2 - C4     - H4    
     2      5      7      1    1.2083e+02    5.0827e+02 ;     C2 - C5     - C7    
     3      1      5      1    1.2002e+02    5.3279e+02 ;     C3 - C1     - C5    
     3      1     11      1    1.1988e+02    3.7572e+02 ;     C3 - C1     - H1    
     3      6      4      1    1.2002e+02    5.3279e+02 ;     C3 - C6     - C4    
     3      6     10      1    1.2083e+02    5.0827e+02 ;     C3 - C6     - C10   
     4      2      5      1    1.2002e+02    5.3279e+02 ;     C4 - C2     - C5    
     4      2     12      1    1.1988e+02    3.7572e+02 ;     C4 - C2     - H2    
     4      6     10      1    1.2083e+02    5.0827e+02 ;     C4 - C6     - C10   
     5      1     11      1    1.1988e+02    3.7572e+02 ;     C5 - C1     - H1    
     5      2     12      1    1.1988e+02    3.7572e+02 ;     C5 - C2     - H2    
     5      7     15      1    1.1063e+02    3.6493e+02 ;     C5 - C7     - H5    
     5      7     16      1    1.1063e+02    3.6493e+02 ;     C5 - C7     - H6    
     5      7     17      1    1.1063e+02    3.6493e+02 ;     C5 - C7     - H7    
     6      3     13      1    1.1988e+02    3.7572e+02 ;     C6 - C3     - H3    
     6      4     14      1    1.1988e+02    3.7572e+02 ;     C6 - C4     - H4    
     6     10      8      1    1.1242e+02    5.0484e+02 ;     C6 - C10    - C8    
     6     10      9      1    1.1242e+02    5.0484e+02 ;     C6 - C10    - C9    
     6     10     24      1    1.1063e+02    3.6493e+02 ;     C6 - C10    - H14   
     8     10      9      1    1.1263e+02    5.0099e+02 ;     C8 - C10    - C9    
     8     10     24      1    1.0968e+02    3.6208e+02 ;     C8 - C10    - H14   
     9     10     24      1    1.0968e+02    3.6208e+02 ;     C9 - C10    - H14   
    10      8     18      1    1.0968e+02    3.6208e+02 ;    C10 - C8     - H8    
    10      8     19      1    1.0968e+02    3.6208e+02 ;    C10 - C8     - H9    
    10      8     20      1    1.0968e+02    3.6208e+02 ;    C10 - C8     - H10   
    10      9     21      1    1.0968e+02    3.6208e+02 ;    C10 - C9     - H11   
    10      9     22      1    1.0968e+02    3.6208e+02 ;    C10 - C9     - H12   
    10      9     23      1    1.0968e+02    3.6208e+02 ;    C10 - C9     - H13   
    15      7     16      1    1.0773e+02    2.9957e+02 ;     H5 - C7     - H6    
    15      7     17      1    1.0773e+02    2.9957e+02 ;     H5 - C7     - H7    
    16      7     17      1    1.0773e+02    2.9957e+02 ;     H6 - C7     - H7    
    18      8     19      1    1.0773e+02    2.9957e+02 ;     H8 - C8     - H9    
    18      8     20      1    1.0773e+02    2.9957e+02 ;     H8 - C8     - H10   
    19      8     20      1    1.0773e+02    2.9957e+02 ;     H9 - C8     - H10   
    21      9     22      1    1.0773e+02    2.9957e+02 ;    H11 - C9     - H12   
    21      9     23      1    1.0773e+02    2.9957e+02 ;    H11 - C9     - H13   
    22      9     23      1    1.0773e+02    2.9957e+02 ;    H12 - C9     - H13   

[ dihedrals ] ; propers
; for gromacs 4.5 or higher, using funct 9
;    i      j      k      l   func   phase     kd      pn
     1      3      6      4      9   180.00  15.16700   2 ;     C1-    C3-    C6-    C4
     1      3      6     10      9   180.00  15.16700   2 ;     C1-    C3-    C6-   C10
     1      5      2      4      9   180.00  15.16700   2 ;     C1-    C5-    C2-    C4
     1      5      2     12      9   180.00  15.16700   2 ;     C1-    C5-    C2-    H2
     1      5      7     15      9     0.00   0.00000   0 ;     C1-    C5-    C7-    H5
     1      5      7     16      9     0.00   0.00000   0 ;     C1-    C5-    C7-    H6
     1      5      7     17      9     0.00   0.00000   0 ;     C1-    C5-    C7-    H7
     2      4      6      3      9   180.00  15.16700   2 ;     C2-    C4-    C6-    C3
     2      4      6     10      9   180.00  15.16700   2 ;     C2-    C4-    C6-   C10
     2      5      7     15      9     0.00   0.00000   0 ;     C2-    C5-    C7-    H5
     2      5      7     16      9     0.00   0.00000   0 ;     C2-    C5-    C7-    H6
     2      5      7     17      9     0.00   0.00000   0 ;     C2-    C5-    C7-    H7
     3      1      5      2      9   180.00  15.16700   2 ;     C3-    C1-    C5-    C2
     3      1      5      7      9   180.00  15.16700   2 ;     C3-    C1-    C5-    C7
     3      6      4     14      9   180.00  15.16700   2 ;     C3-    C6-    C4-    H4
     3      6     10      8      9   180.00   1.00416   2 ;     C3-    C6-   C10-    C8
     3      6     10      9      9   180.00   1.00416   2 ;     C3-    C6-   C10-    C9
     3      6     10     24      9     0.00   0.00000   0 ;     C3-    C6-   C10-   H14
     4      2      5      7      9   180.00  15.16700   2 ;     C4-    C2-    C5-    C7
     4      6      3     13      9   180.00  15.16700   2 ;     C4-    C6-    C3-    H3
     4      6     10      8      9   180.00   1.00416   2 ;     C4-    C6-   C10-    C8
     4      6     10      9      9   180.00   1.00416   2 ;     C4-    C6-   C10-    C9
     4      6     10     24      9     0.00   0.00000   0 ;     C4-    C6-   C10-   H14
     5      1      3      6      9   180.00  15.16700   2 ;     C5-    C1-    C3-    C6
     5      1      3     13      9   180.00  15.16700   2 ;     C5-    C1-    C3-    H3
     5      2      4      6      9   180.00  15.16700   2 ;     C5-    C2-    C4-    C6
     5      2      4     14      9   180.00  15.16700   2 ;     C5-    C2-    C4-    H4
     6      4      2     12      9   180.00  15.16700   2 ;     C6-    C4-    C2-    H2
     6     10      8     18      9     0.00   0.65084   3 ;     C6-   C10-    C8-    H8
     6     10      8     19      9     0.00   0.65084   3 ;     C6-   C10-    C8-    H9
     6     10      8     20      9     0.00   0.65084   3 ;     C6-   C10-    C8-   H10
     6     10      9     21      9     0.00   0.65084   3 ;     C6-   C10-    C9-   H11
     6     10      9     22      9     0.00   0.65084   3 ;     C6-   C10-    C9-   H12
     6     10      9     23      9     0.00   0.65084   3 ;     C6-   C10-    C9-   H13
     7      5      2     12      9   180.00  15.16700   2 ;     C7-    C5-    C2-    H2
     8     10      9     21      9     0.00   0.54392   3 ;     C8-   C10-    C9-   H11
     8     10      9     22      9     0.00   0.54392   3 ;     C8-   C10-    C9-   H12
     8     10      9     23      9     0.00   0.54392   3 ;     C8-   C10-    C9-   H13
     9     10      8     18      9     0.00   0.54392   3 ;     C9-   C10-    C8-    H8
     9     10      8     19      9     0.00   0.54392   3 ;     C9-   C10-    C8-    H9
     9     10      8     20      9     0.00   0.54392   3 ;     C9-   C10-    C8-   H10
    10      6      3     13      9   180.00  15.16700   2 ;    C10-    C6-    C3-    H3
    10      6      4     14      9   180.00  15.16700   2 ;    C10-    C6-    C4-    H4
    11      1      3      6      9   180.00  15.16700   2 ;     H1-    C1-    C3-    C6
    11      1      3     13      9   180.00  15.16700   2 ;     H1-    C1-    C3-    H3
    11      1      5      2      9   180.00  15.16700   2 ;     H1-    C1-    C5-    C2
    11      1      5      7      9   180.00  15.16700   2 ;     H1-    C1-    C5-    C7
    12      2      4     14      9   180.00  15.16700   2 ;     H2-    C2-    C4-    H4
    18      8     10     24      9     0.00   0.50208   3 ;     H8-    C8-   C10-   H14
    19      8     10     24      9     0.00   0.50208   3 ;     H9-    C8-   C10-   H14
    20      8     10     24      9     0.00   0.50208   3 ;    H10-    C8-   C10-   H14
    21      9     10     24      9     0.00   0.50208   3 ;    H11-    C9-   C10-   H14
    22      9     10     24      9     0.00   0.50208   3 ;    H12-    C9-   C10-   H14
    23      9     10     24      9     0.00   0.50208   3 ;    H13-    C9-   C10-   H14

[ dihedrals ] ; impropers
; treated as propers in GROMACS to use correct AMBER analytical function
;    i      j      k      l   func   phase     kd      pn
     1      2      5      7      4   180.00   4.60240   2 ;     C1-    C2-    C5-    C7
     1      6      3     13      4   180.00   4.60240   2 ;     C1-    C6-    C3-    H3
     2      6      4     14      4   180.00   4.60240   2 ;     C2-    C6-    C4-    H4
     4      5      2     12      4   180.00   4.60240   2 ;     C4-    C5-    C2-    H2
    10      3      6      4      4   180.00   4.60240   2 ;    C10-    C3-    C6-    C4
    11      1      5      3      4   180.00   4.60240   2 ;     H1-    C1-    C5-    C3
