mobley_7794077_GMX.gro created by acpype (v: 2023.10.27) on Thu May 14 13:41:31 2026
 1749
    1MOL     C1    1   1.293   1.426   1.328
    1MOL     C2    2   1.255   1.314   1.265
    1MOL     C3    3   1.331   1.188   1.293
    1MOL     C4    4   1.473   1.318   1.449
    1MOL     C5    5   1.142   1.308   1.168
    1MOL     N1    6   1.397   1.429   1.417
    1MOL     N2    7   1.435   1.201   1.384
    1MOL     O1    8   1.301   1.082   1.239
    1MOL     O2    9   1.567   1.322   1.529
    1MOL     F1   10   1.084   1.429   1.154
    1MOL     F2   11   1.184   1.267   1.046
    1MOL     F3   12   1.046   1.222   1.210
    1MOL     H1   13   1.243   1.521   1.313
    1MOL     H2   14   1.419   1.519   1.460
    1MOL     H3   15   1.488   1.117   1.405
    2SOL     OW   16   0.230   0.628   0.113
    2SOL    HW1   17   0.137   0.626   0.150
    2SOL    HW2   18   0.231   0.589   0.021
    3SOL     OW   19   0.225   0.275   0.996
    3SOL    HW1   20   0.260   0.258   1.088
    3SOL    HW2   21   0.137   0.230   0.984
    4SOL     OW   22   0.019   0.368   0.647
    4SOL    HW1   23  -0.063   0.411   0.686
    4SOL    HW2   24  -0.009   0.295   0.584
    5SOL     OW   25   0.569   1.275   1.165
    5SOL    HW1   26   0.476   1.268   1.128
    5SOL    HW2   27   0.580   1.364   1.209
    6SOL     OW   28   1.555   1.511   0.703
    6SOL    HW1   29   1.498   1.495   0.784
    6SOL    HW2   30   1.496   1.521   0.623
    7SOL     OW   31   1.135   0.703   0.717
    7SOL    HW1   32   1.192   0.781   0.692
    7SOL    HW2   33   1.075   0.729   0.793
    8SOL     OW   34   1.755   0.607   0.231
    8SOL    HW1   35   1.743   0.594   0.132
    8SOL    HW2   36   1.725   0.526   0.280
    9SOL     OW   37   0.768   1.144   1.023
    9SOL    HW1   38   0.690   1.161   1.083
    9SOL    HW2   39   0.802   1.231   0.987
   10SOL     OW   40   0.850   0.798   1.823
   10SOL    HW1   41   0.846   0.874   1.888
   10SOL    HW2   42   0.872   0.834   1.732
   11SOL     OW   43   0.685   1.012   0.665
   11SOL    HW1   44   0.754   0.996   0.735
   11SOL    HW2   45   0.612   1.069   0.703
   12SOL     OW   46   0.686   1.161   1.803
   12SOL    HW1   47   0.746   1.240   1.817
   12SOL    HW2   48   0.600   1.192   1.762
   13SOL     OW   49   0.335   1.435   1.061
   13SOL    HW1   50   0.257   1.404   1.008
   13SOL    HW2   51   0.393   1.493   1.004
   14SOL     OW   52   0.438   0.392   1.499
   14SOL    HW1   53   0.520   0.336   1.508
   14SOL    HW2   54   0.357   0.334   1.503
   15SOL     OW   55   1.603   0.447   0.737
   15SOL    HW1   56   1.529   0.493   0.687
   15SOL    HW2   57   1.654   0.515   0.790
   16SOL     OW   58   0.231   1.713   0.483
   16SOL    HW1   59   0.265   1.790   0.537
   16SOL    HW2   60   0.275   1.713   0.393
   17SOL     OW   61   1.127   1.341   1.690
   17SOL    HW1   62   1.174   1.341   1.778
   17SOL    HW2   63   1.079   1.254   1.679
   18SOL     OW   64   0.230   1.434   0.538
   18SOL    HW1   65   0.204   1.530   0.538
   18SOL    HW2   66   0.159   1.380   0.583
   19SOL     OW   67   0.240   1.091   0.886
   19SOL    HW1   68   0.254   1.007   0.938
   19SOL    HW2   69   0.185   1.155   0.941
   20SOL     OW   70   0.620   1.786   1.439
   20SOL    HW1   71   0.528   1.769   1.474
   20SOL    HW2   72   0.648   1.878   1.465
   21SOL     OW   73   0.606   0.964   0.123
   21SOL    HW1   74   0.613   1.048   0.069
   21SOL    HW2   75   0.652   0.977   0.211
   22SOL     OW   76   1.594   0.114   1.480
   22SOL    HW1   77   1.576   0.181   1.408
   22SOL    HW2   78   1.591   0.160   1.569
   23SOL     OW   79   0.122   0.643   0.563
   23SOL    HW1   80   0.077   0.555   0.580
   23SOL    HW2   81   0.121   0.697   0.647
   24SOL     OW   82   1.842   1.767   0.359
   24SOL    HW1   83   1.896   1.738   0.439
   24SOL    HW2   84   1.872   1.857   0.330
   25SOL     OW   85   0.027   1.596   0.117
   25SOL    HW1   86   0.008   1.500   0.138
   25SOL    HW2   87  -0.006   1.654   0.192
   26SOL     OW   88   1.689   0.922   0.612
   26SOL    HW1   89   1.784   0.893   0.620
   26SOL    HW2   90   1.681   0.987   0.537
   27SOL     OW   91   1.641   1.108   0.432
   27SOL    HW1   92   1.727   1.110   0.380
   27SOL    HW2   93   1.655   1.155   0.520
   28SOL     OW   94   0.113   0.737   1.597
   28SOL    HW1   95   0.201   0.724   1.642
   28SOL    HW2   96   0.100   0.834   1.575
   29SOL     OW   97   0.613   1.365   0.726
   29SOL    HW1   98   0.564   1.278   0.735
   29SOL    HW2   99   0.590   1.408   0.639
   30SOL     OW  100   0.809   0.004   0.502
   30SOL    HW1  101   0.849   0.095   0.493
   30SOL    HW2  102   0.709   0.012   0.508
   31SOL     OW  103   0.197   0.976   1.264
   31SOL    HW1  104   0.286   0.931   1.250
   31SOL    HW2  105   0.124   0.911   1.245
   32SOL     OW  106   1.525   0.999   0.190
   32SOL    HW1  107   1.462   0.923   0.203
   32SOL    HW2  108   1.573   1.017   0.276
   33SOL     OW  109   1.187   1.792   1.616
   33SOL    HW1  110   1.211   1.852   1.540
   33SOL    HW2  111   1.194   1.697   1.586
   34SOL     OW  112   0.317   0.251   1.801
   34SOL    HW1  113   0.388   0.322   1.807
   34SOL    HW2  114   0.229   0.290   1.829
   35SOL     OW  115   1.466   1.417   0.953
   35SOL    HW1  116   1.407   1.423   1.033
   35SOL    HW2  117   1.451   1.329   0.907
   36SOL     OW  118   1.667   1.714   0.572
   36SOL    HW1  119   1.626   1.691   0.484
   36SOL    HW2  120   1.649   1.640   0.637
   37SOL     OW  121   0.598   0.729   0.270
   37SOL    HW1  122   0.622   0.798   0.202
   37SOL    HW2  123   0.520   0.762   0.324
   38SOL     OW  124   1.281   0.345   0.944
   38SOL    HW1  125   1.195   0.295   0.931
   38SOL    HW2  126   1.343   0.291   1.000
   39SOL     OW  127   1.576   1.662   0.307
   39SOL    HW1  128   1.665   1.708   0.310
   39SOL    HW2  129   1.555   1.638   0.212
   40SOL     OW  130   0.807   0.605   1.465
   40SOL    HW1  131   0.760   0.602   1.554
   40SOL    HW2  132   0.756   0.550   1.399
   41SOL     OW  133   1.394   0.469   1.674
   41SOL    HW1  134   1.374   0.512   1.762
   41SOL    HW2  135   1.472   0.407   1.683
   42SOL     OW  136   0.973   0.890   1.572
   42SOL    HW1  137   1.019   0.806   1.543
   42SOL    HW2  138   0.917   0.924   1.497
   43SOL     OW  139   0.991   0.410   1.242
   43SOL    HW1  140   0.914   0.444   1.296
   43SOL    HW2  141   0.957   0.359   1.163
   44SOL     OW  142   1.041   0.701   0.429
   44SOL    HW1  143   1.067   0.697   0.525
   44SOL    HW2  144   0.956   0.650   0.415
   45SOL     OW  145   0.076   0.811   0.789
   45SOL    HW1  146   0.175   0.799   0.798
   45SOL    HW2  147   0.052   0.906   0.810
   46SOL     OW  148   0.130   1.821   1.571
   46SOL    HW1  149   0.120   1.806   1.670
   46SOL    HW2  150   0.044   1.857   1.535
   47SOL     OW  151   0.865   0.348   0.195
   47SOL    HW1  152   0.924   0.411   0.146
   47SOL    HW2  153   0.884   0.254   0.166
   48SOL     OW  154   1.719   0.585   1.831
   48SOL    HW1  155   1.693   0.674   1.795
   48SOL    HW2  156   1.717   0.517   1.758
   49SOL     OW  157   1.362   1.144   0.545
   49SOL    HW1  158   1.445   1.115   0.497
   49SOL    HW2  159   1.313   1.211   0.489
   50SOL     OW  160   0.550   0.196   0.885
   50SOL    HW1  161   0.545   0.191   0.985
   50SOL    HW2  162   0.552   0.292   0.856
   51SOL     OW  163   1.008   1.456   0.477
   51SOL    HW1  164   0.962   1.528   0.425
   51SOL    HW2  165   1.004   1.476   0.575
   52SOL     OW  166   0.351   1.801   0.853
   52SOL    HW1  167   0.401   1.715   0.859
   52SOL    HW2  168   0.416   1.878   0.850
   53SOL     OW  169   1.795   1.066   0.873
   53SOL    HW1  170   1.733   1.051   0.797
   53SOL    HW2  171   1.743   1.077   0.958
   54SOL     OW  172   0.321   0.943   0.242
   54SOL    HW1  173   0.403   0.982   0.200
   54SOL    HW2  174   0.294   0.861   0.193
   55SOL     OW  175   1.458   0.735   0.728
   55SOL    HW1  176   1.453   0.670   0.803
   55SOL    HW2  177   1.538   0.794   0.741
   56SOL     OW  178   0.461   1.266   1.727
   56SOL    HW1  179   0.411   1.267   1.641
   56SOL    HW2  180   0.398   1.248   1.803
   57SOL     OW  181   1.111   1.776   0.237
   57SOL    HW1  182   1.051   1.714   0.287
   57SOL    HW2  183   1.142   1.732   0.152
   58SOL     OW  184   0.202   0.285   1.498
   58SOL    HW1  185   0.122   0.345   1.485
   58SOL    HW2  186   0.192   0.236   1.584
   59SOL     OW  187   1.632   1.377   0.081
   59SOL    HW1  188   1.600   1.471   0.071
   59SOL    HW2  189   1.556   1.314   0.069
   60SOL     OW  190   0.464   1.743   0.323
   60SOL    HW1  191   0.497   1.782   0.409
   60SOL    HW2  192   0.540   1.736   0.258
   61SOL     OW  193   1.400   0.107   0.426
   61SOL    HW1  194   1.376   0.070   0.336
   61SOL    HW2  195   1.499   0.123   0.430
   62SOL     OW  196   0.249   1.785   1.241
   62SOL    HW1  197   0.306   1.720   1.291
   62SOL    HW2  198   0.233   1.752   1.148
   63SOL     OW  199   0.940   1.698   0.904
   63SOL    HW1  200   1.020   1.641   0.925
   63SOL    HW2  201   0.891   1.658   0.827
   64SOL     OW  202   0.382   0.700   0.480
   64SOL    HW1  203   0.427   0.610   0.477
   64SOL    HW2  204   0.288   0.689   0.513
   65SOL     OW  205   1.547   0.222   1.729
   65SOL    HW1  206   1.542   0.259   1.821
   65SOL    HW2  207   1.475   0.153   1.717
   66SOL     OW  208   0.614   0.122   0.117
   66SOL    HW1  209   0.712   0.100   0.124
   66SOL    HW2  210   0.583   0.105   0.024
   67SOL     OW  211   0.781   0.264   1.749
   67SOL    HW1  212   0.848   0.203   1.792
   67SOL    HW2  213   0.708   0.283   1.814
   68SOL     OW  214   0.888   1.514   1.195
   68SOL    HW1  215   0.865   1.489   1.101
   68SOL    HW2  216   0.949   1.445   1.234
   69SOL     OW  217   1.351   0.590   1.433
   69SOL    HW1  218   1.379   0.547   1.518
   69SOL    HW2  219   1.376   0.686   1.434
   70SOL     OW  220   0.803   1.402   0.924
   70SOL    HW1  221   0.893   1.416   0.882
   70SOL    HW2  222   0.732   1.404   0.853
   71SOL     OW  223   0.922   0.503   0.899
   71SOL    HW1  224   0.897   0.494   0.803
   71SOL    HW2  225   0.970   0.421   0.930
   72SOL     OW  226   0.539   0.064   0.512
   72SOL    HW1  227   0.458   0.065   0.570
   72SOL    HW2  228   0.542   0.147   0.457
   73SOL     OW  229   1.434   1.188   0.041
   73SOL    HW1  230   1.466   1.112   0.098
   73SOL    HW2  231   1.342   1.215   0.071
   74SOL     OW  232   0.297   0.035   0.171
   74SOL    HW1  233   0.346   0.119   0.150
   74SOL    HW2  234   0.359  -0.030   0.216
   75SOL     OW  235   0.935   0.236   0.480
   75SOL    HW1  236   0.887   0.277   0.402
   75SOL    HW2  237   1.034   0.234   0.461
   76SOL     OW  238   1.076   0.683   1.464
   76SOL    HW1  239   0.996   0.622   1.467
   76SOL    HW2  240   1.157   0.630   1.440
   77SOL     OW  241   1.227   1.570   0.793
   77SOL    HW1  242   1.248   1.644   0.728
   77SOL    HW2  243   1.295   1.570   0.866
   78SOL     OW  244   0.459   1.152   0.741
   78SOL    HW1  245   0.388   1.125   0.806
   78SOL    HW2  246   0.433   1.124   0.648
   79SOL     OW  247   1.271   1.797   0.591
   79SOL    HW1  248   1.315   1.861   0.527
   79SOL    HW2  249   1.221   1.849   0.661
   80SOL     OW  250   1.032   0.549   0.016
   80SOL    HW1  251   0.991   0.631  -0.023
   80SOL    HW2  252   1.096   0.575   0.089
   81SOL     OW  253   0.078   0.556   1.386
   81SOL    HW1  254   0.170   0.555   1.345
   81SOL    HW2  255   0.072   0.630   1.453
   82SOL     OW  256   0.561   0.222   1.147
   82SOL    HW1  257   0.599   0.138   1.184
   82SOL    HW2  258   0.473   0.241   1.191
   83SOL     OW  259   0.866   0.454   0.642
   83SOL    HW1  260   0.834   0.526   0.580
   83SOL    HW2  261   0.890   0.373   0.589
   84SOL     OW  262   1.017   0.039   0.753
   84SOL    HW1  263   0.945   0.044   0.684
   84SOL    HW2  264   0.993  -0.030   0.822
   85SOL     OW  265   1.429   1.173   0.867
   85SOL    HW1  266   1.374   1.089   0.860
   85SOL    HW2  267   1.455   1.202   0.775
   86SOL     OW  268   1.466   0.590   0.992
   86SOL    HW1  269   1.436   0.495   0.999
   86SOL    HW2  270   1.539   0.606   1.058
   87SOL     OW  271   1.857   0.833   0.377
   87SOL    HW1  272   1.899   0.769   0.441
   87SOL    HW2  273   1.819   0.782   0.299
   88SOL     OW  274   0.488   1.385   0.174
   88SOL    HW1  275   0.401   1.370   0.221
   88SOL    HW2  276   0.471   1.411   0.079
   89SOL     OW  277   1.664   1.280   0.657
   89SOL    HW1  278   1.763   1.288   0.671
   89SOL    HW2  279   1.619   1.364   0.688
   90SOL     OW  280   1.390   0.575   0.078
   90SOL    HW1  281   1.336   0.554   0.159
   90SOL    HW2  282   1.481   0.534   0.087
   91SOL     OW  283   0.527   0.256   0.328
   91SOL    HW1  284   0.554   0.197   0.253
   91SOL    HW2  285   0.527   0.351   0.297
   92SOL     OW  286   1.754   1.223   1.588
   92SOL    HW1  287   1.845   1.184   1.575
   92SOL    HW2  288   1.762   1.319   1.612
   93SOL     OW  289   1.592   1.629   1.625
   93SOL    HW1  290   1.619   1.663   1.535
   93SOL    HW2  291   1.671   1.591   1.671
   94SOL     OW  292   1.638   1.099   1.079
   94SOL    HW1  293   1.643   1.180   1.138
   94SOL    HW2  294   1.552   1.101   1.028
   95SOL     OW  295   0.915   0.089   1.402
   95SOL    HW1  296   0.940   0.069   1.307
   95SOL    HW2  297   0.987   0.145   1.444
   96SOL     OW  298   0.980   1.116   1.719
   96SOL    HW1  299   0.881   1.122   1.729
   96SOL    HW2  300   1.003   1.036   1.663
   97SOL     OW  301   0.705   1.050   0.368
   97SOL    HW1  302   0.691   1.057   0.467
   97SOL    HW2  303   0.789   0.999   0.350
   98SOL     OW  304   0.410   0.813   1.251
   98SOL    HW1  305   0.496   0.825   1.301
   98SOL    HW2  306   0.368   0.726   1.278
   99SOL     OW  307   1.274   0.386   1.262
   99SOL    HW1  308   1.295   0.460   1.326
   99SOL    HW2  309   1.185   0.403   1.219
  100SOL     OW  310   0.064   1.564   1.331
  100SOL    HW1  311   0.018   1.646   1.297
  100SOL    HW2  312   0.162   1.583   1.340
  101SOL     OW  313   0.367   1.100   0.501
  101SOL    HW1  314   0.360   1.183   0.445
  101SOL    HW2  315   0.371   1.020   0.441
  102SOL     OW  316   0.566   0.537   0.865
  102SOL    HW1  317   0.578   0.603   0.791
  102SOL    HW2  318   0.612   0.571   0.948
  103SOL     OW  319   1.252   1.348   0.388
  103SOL    HW1  320   1.302   1.425   0.428
  103SOL    HW2  321   1.157   1.350   0.420
  104SOL     OW  322   1.582   0.639   0.472
  104SOL    HW1  323   1.551   0.700   0.545
  104SOL    HW2  324   1.632   0.691   0.403
  105SOL     OW  325   0.354   1.510   1.329
  105SOL    HW1  326   0.333   1.466   1.242
  105SOL    HW2  327   0.451   1.536   1.332
  106SOL     OW  328   0.402   0.751   1.598
  106SOL    HW1  329   0.470   0.806   1.551
  106SOL    HW2  330   0.442   0.663   1.625
  107SOL     OW  331   1.587   0.779   1.670
  107SOL    HW1  332   1.495   0.817   1.665
  107SOL    HW2  333   1.647   0.826   1.605
  108SOL     OW  334   1.013   0.105   1.770
  108SOL    HW1  335   1.019   0.190   1.718
  108SOL    HW2  336   1.045   0.029   1.713
  109SOL     OW  337   0.504   0.050   1.740
  109SOL    HW1  338   0.462  -0.007   1.670
  109SOL    HW2  339   0.438   0.119   1.772
  110SOL     OW  340   0.573   0.870   1.029
  110SOL    HW1  341   0.617   0.959   1.020
  110SOL    HW2  342   0.510   0.870   1.106
  111SOL     OW  343   1.360   0.862   1.045
  111SOL    HW1  344   1.285   0.862   0.979
  111SOL    HW2  345   1.397   0.770   1.054
  112SOL     OW  346   1.209   0.525   0.275
  112SOL    HW1  347   1.222   0.441   0.329
  112SOL    HW2  348   1.180   0.599   0.335
  113SOL     OW  349   0.307   0.213   1.231
  113SOL    HW1  350   0.284   0.250   1.321
  113SOL    HW2  351   0.277   0.118   1.225
  114SOL     OW  352   0.037   1.310   1.282
  114SOL    HW1  353   0.090   1.261   1.350
  114SOL    HW2  354   0.059   1.408   1.287
  115SOL     OW  355   0.732   0.634   1.064
  115SOL    HW1  356   0.791   0.608   0.988
  115SOL    HW2  357   0.704   0.730   1.053
  116SOL     OW  358   1.728   0.935   1.854
  116SOL    HW1  359   1.682   0.928   1.765
  116SOL    HW2  360   1.666   0.979   1.920
  117SOL     OW  361   0.307   0.063   0.618
  117SOL    HW1  362   0.296   0.157   0.651
  117SOL    HW2  363   0.302   0.000   0.695
  118SOL     OW  364   1.622   0.367   0.374
  118SOL    HW1  365   1.624   0.291   0.438
  118SOL    HW2  366   1.574   0.444   0.414
  119SOL     OW  367   1.023   0.766   0.966
  119SOL    HW1  368   1.038   0.787   1.062
  119SOL    HW2  369   0.993   0.671   0.957
  120SOL     OW  370   0.980   1.573   1.700
  120SOL    HW1  371   0.960   1.617   1.612
  120SOL    HW2  372   1.019   1.482   1.684
  121SOL     OW  373   1.859   1.518   1.605
  121SOL    HW1  374   1.873   1.545   1.510
  121SOL    HW2  375   1.942   1.540   1.658
  122SOL     OW  376   0.350   0.898   1.804
  122SOL    HW1  377   0.426   0.942   1.852
  122SOL    HW2  378   0.385   0.851   1.722
  123SOL     OW  379   1.540   0.274   0.125
  123SOL    HW1  380   1.479   0.199   0.148
  123SOL    HW2  381   1.562   0.326   0.208
  124SOL     OW  382   1.303   0.838   0.042
  124SOL    HW1  383   1.337   0.745   0.057
  124SOL    HW2  384   1.321   0.865  -0.053
  125SOL     OW  385   1.068   1.333   0.849
  125SOL    HW1  386   1.075   1.249   0.794
  125SOL    HW2  387   1.130   1.402   0.813
  126SOL     OW  388   0.319   0.810   0.949
  126SOL    HW1  389   0.412   0.846   0.954
  126SOL    HW2  390   0.313   0.725   1.001
  127SOL     OW  391   0.339   0.509   1.006
  127SOL    HW1  392   0.287   0.426   0.989
  127SOL    HW2  393   0.416   0.514   0.942
  128SOL     OW  394   1.138   0.380   1.678
  128SOL    HW1  395   1.093   0.443   1.742
  128SOL    HW2  396   1.231   0.411   1.661
  129SOL     OW  397   1.160   0.207   1.477
  129SOL    HW1  398   1.160   0.271   1.554
  129SOL    HW2  399   1.188   0.255   1.394
  130SOL     OW  400   0.008   1.326   0.200
  130SOL    HW1  401  -0.085   1.347   0.169
  130SOL    HW2  402   0.018   1.227   0.213
  131SOL     OW  403   0.088   1.801   0.927
  131SOL    HW1  404   0.046   1.715   0.900
  131SOL    HW2  405   0.182   1.804   0.893
  132SOL     OW  406   0.504   1.568   0.910
  132SOL    HW1  407   0.570   1.642   0.919
  132SOL    HW2  408   0.548   1.489   0.868
  133SOL     OW  409   1.002   0.796   1.238
  133SOL    HW1  410   1.043   0.764   1.324
  133SOL    HW2  411   0.906   0.769   1.235
  134SOL     OW  412   0.040   0.544   1.114
  134SOL    HW1  413   0.125   0.511   1.073
  134SOL    HW2  414   0.053   0.559   1.212
  135SOL     OW  415   0.189   0.520   1.722
  135SOL    HW1  416   0.248   0.480   1.652
  135SOL    HW2  417   0.131   0.591   1.681
  136SOL     OW  418   1.369   0.950   1.660
  136SOL    HW1  419   1.408   1.039   1.680
  136SOL    HW2  420   1.379   0.930   1.563
  137SOL     OW  421   0.815   0.572   0.325
  137SOL    HW1  422   0.822   0.483   0.279
  137SOL    HW2  423   0.721   0.606   0.317
  138SOL     OW  424   1.657   0.604   1.206
  138SOL    HW1  425   1.619   0.535   1.268
  138SOL    HW2  426   1.739   0.568   1.162
  139SOL     OW  427   0.252   1.564   1.744
  139SOL    HW1  428   0.222   1.621   1.820
  139SOL    HW2  429   0.245   1.467   1.770
  140SOL     OW  430   0.671   0.464   1.269
  140SOL    HW1  431   0.637   0.375   1.239
  140SOL    HW2  432   0.697   0.518   1.189
  141SOL     OW  433   0.930   1.678   1.465
  141SOL    HW1  434   0.906   1.660   1.370
  141SOL    HW2  435   0.960   1.772   1.475
  142SOL     OW  436   0.473   0.500   0.191
  142SOL    HW1  437   0.534   0.580   0.195
  142SOL    HW2  438   0.378   0.531   0.198
  143SOL     OW  439   0.159   1.137   1.466
  143SOL    HW1  440   0.181   1.076   1.542
  143SOL    HW2  441   0.169   1.088   1.380
  144SOL     OW  442   1.302   0.855   0.309
  144SOL    HW1  443   1.216   0.824   0.351
  144SOL    HW2  444   1.298   0.841   0.210
  145SOL     OW  445   1.759   1.747   1.154
  145SOL    HW1  446   1.820   1.777   1.081
  145SOL    HW2  447   1.721   1.658   1.132
  146SOL     OW  448   1.252   1.731   1.128
  146SOL    HW1  449   1.336   1.736   1.074
  146SOL    HW2  450   1.229   1.635   1.146
  147SOL     OW  451   0.083   1.258   1.022
  147SOL    HW1  452   0.078   1.257   1.122
  147SOL    HW2  453   0.000   1.217   0.984
  148SOL     OW  454   0.688   1.662   1.716
  148SOL    HW1  455   0.632   1.743   1.725
  148SOL    HW2  456   0.740   1.666   1.630
  149SOL     OW  457   0.903   0.086   0.133
  149SOL    HW1  458   0.954   0.087   0.047
  149SOL    HW2  459   0.959   0.044   0.204
  150SOL     OW  460   1.726   0.135   0.523
  150SOL    HW1  461   1.799   0.118   0.456
  150SOL    HW2  462   1.695   0.048   0.561
  151SOL     OW  463   1.388   1.573   0.477
  151SOL    HW1  464   1.455   1.585   0.403
  151SOL    HW2  465   1.348   1.662   0.500
  152SOL     OW  466   0.130   1.794   1.851
  152SOL    HW1  467   0.089   1.720   1.904
  152SOL    HW2  468   0.194   1.845   1.909
  153SOL     OW  469   1.280   0.927   0.672
  153SOL    HW1  470   1.340   0.846   0.674
  153SOL    HW2  471   1.320   0.996   0.612
  154SOL     OW  472   0.830   1.273   1.422
  154SOL    HW1  473   0.825   1.306   1.517
  154SOL    HW2  474   0.744   1.292   1.376
  155SOL     OW  475   0.672   1.616   0.154
  155SOL    HW1  476   0.681   1.626   0.055
  155SOL    HW2  477   0.632   1.527   0.175
  156SOL     OW  478   1.650   1.720   1.394
  156SOL    HW1  479   1.703   1.730   1.310
  156SOL    HW2  480   1.623   1.810   1.428
  157SOL     OW  481   1.841   0.175   0.963
  157SOL    HW1  482   1.880   0.090   0.927
  157SOL    HW2  483   1.743   0.177   0.944
  158SOL     OW  484   0.263   0.326   0.720
  158SOL    HW1  485   0.184   0.377   0.686
  158SOL    HW2  486   0.254   0.311   0.818
  159SOL     OW  487   1.194   1.612   0.031
  159SOL    HW1  488   1.200   1.519   0.068
  159SOL    HW2  489   1.135   1.612  -0.049
  160SOL     OW  490   0.822   1.002   1.372
  160SOL    HW1  491   0.862   1.001   1.280
  160SOL    HW2  492   0.832   1.094   1.412
  161SOL     OW  493   0.916   0.910   0.291
  161SOL    HW1  494   0.979   0.948   0.223
  161SOL    HW2  495   0.956   0.827   0.330
  162SOL     OW  496   1.504   1.607   0.044
  162SOL    HW1  497   1.412   1.644   0.051
  162SOL    HW2  498   1.542   1.627  -0.046
  163SOL     OW  499   0.372   1.288   1.490
  163SOL    HW1  500   0.359   1.381   1.456
  163SOL    HW2  501   0.288   1.236   1.477
  164SOL     OW  502   1.614   1.292   1.289
  164SOL    HW1  503   1.674   1.295   1.369
  164SOL    HW2  504   1.539   1.356   1.302
  165SOL     OW  505   1.039   1.098   0.696
  165SOL    HW1  506   0.969   1.051   0.750
  165SOL    HW2  507   1.098   1.030   0.653
  166SOL     OW  508   1.014   0.236   0.971
  166SOL    HW1  509   1.006   0.200   0.878
  166SOL    HW2  510   1.012   0.160   1.036
  167SOL     OW  511   0.590   1.487   0.491
  167SOL    HW1  512   0.632   1.429   0.421
  167SOL    HW2  513   0.546   1.566   0.447
  168SOL     OW  514   1.709   0.385   1.381
  168SOL    HW1  515   1.782   0.454   1.385
  168SOL    HW2  516   1.737   0.310   1.322
  169SOL     OW  517   0.255   1.348   0.290
  169SOL    HW1  518   0.159   1.349   0.263
  169SOL    HW2  519   0.267   1.401   0.374
  170SOL     OW  520   0.105   1.013   1.726
  170SOL    HW1  521   0.028   0.980   1.780
  170SOL    HW2  522   0.190   0.983   1.768
  171SOL     OW  523   0.672   0.203   1.489
  171SOL    HW1  524   0.762   0.187   1.449
  171SOL    HW2  525   0.680   0.208   1.588
  172SOL     OW  526   0.075   0.345   0.033
  172SOL    HW1  527  -0.017   0.317   0.004
  172SOL    HW2  528   0.106   0.422  -0.023
  173SOL     OW  529   1.440   0.856   1.398
  173SOL    HW1  530   1.383   0.908   1.335
  173SOL    HW2  531   1.536   0.868   1.374
  174SOL     OW  532   0.072   0.166   0.318
  174SOL    HW1  533   0.055   0.249   0.264
  174SOL    HW2  534   0.162   0.129   0.296
  175SOL     OW  535   1.183   1.335   0.119
  175SOL    HW1  536   1.084   1.324   0.121
  175SOL    HW2  537   1.217   1.350   0.212
  176SOL     OW  538   0.613   0.842   1.431
  176SOL    HW1  539   0.669   0.923   1.414
  176SOL    HW2  540   0.672   0.762   1.434
  177SOL     OW  541   1.493   1.767   0.959
  177SOL    HW1  542   1.526   1.831   0.890
  177SOL    HW2  543   1.559   1.761   1.034
  178SOL     OW  544   0.716   0.565   1.708
  178SOL    HW1  545   0.735   0.630   1.782
  178SOL    HW2  546   0.776   0.485   1.717
  179SOL     OW  547   0.390   1.741   1.560
  179SOL    HW1  548   0.299   1.782   1.558
  179SOL    HW2  549   0.383   1.647   1.592
  180SOL     OW  550   1.674   0.883   1.254
  180SOL    HW1  551   1.647   0.794   1.217
  180SOL    HW2  552   1.675   0.951   1.181
  181SOL     OW  553   1.225   0.325   0.449
  181SOL    HW1  554   1.290   0.251   0.438
  181SOL    HW2  555   1.245   0.375   0.533
  182SOL     OW  556   0.594   0.745   0.652
  182SOL    HW1  557   0.644   0.830   0.633
  182SOL    HW2  558   0.506   0.747   0.604
  183SOL     OW  559   1.777   0.342   1.642
  183SOL    HW1  560   1.760   0.373   1.548
  183SOL    HW2  561   1.693   0.305   1.680
  184SOL     OW  562   1.730   0.934   1.517
  184SOL    HW1  563   1.768   1.025   1.532
  184SOL    HW2  564   1.722   0.917   1.418
  185SOL     OW  565   0.859   1.374   0.016
  185SOL    HW1  566   0.813   1.389   0.104
  185SOL    HW2  567   0.903   1.459  -0.014
  186SOL     OW  568   0.661   1.790   0.953
  186SOL    HW1  569   0.615   1.878   0.940
  186SOL    HW2  570   0.760   1.802   0.946
  187SOL     OW  571   0.859   0.956   0.861
  187SOL    HW1  572   0.913   0.887   0.909
  187SOL    HW2  573   0.827   1.025   0.927
  188SOL     OW  574   1.083   0.984   0.087
  188SOL    HW1  575   1.060   1.037   0.005
  188SOL    HW2  576   1.164   0.928   0.068
  189SOL     OW  577   1.861   1.569   0.851
  189SOL    HW1  578   1.790   1.557   0.781
  189SOL    HW2  579   1.862   1.490   0.911
  190SOL     OW  580   0.221   1.314   1.844
  190SOL    HW1  581   0.156   1.241   1.823
  190SOL    HW2  582   0.225   1.328   1.942
  191SOL     OW  583   0.079   1.240   0.653
  191SOL    HW1  584   0.078   1.193   0.741
  191SOL    HW2  585   0.161   1.212   0.602
  192SOL     OW  586   0.672   1.391   1.624
  192SOL    HW1  587   0.594   1.341   1.662
  192SOL    HW2  588   0.669   1.486   1.655
  193SOL     OW  589   1.824   0.192   1.227
  193SOL    HW1  590   1.820   0.102   1.271
  193SOL    HW2  591   1.827   0.181   1.128
  194SOL     OW  592   0.428   0.424   0.520
  194SOL    HW1  593   0.458   0.352   0.458
  194SOL    HW2  594   0.389   0.384   0.603
  195SOL     OW  595   1.705   1.487   1.104
  195SOL    HW1  596   1.612   1.462   1.077
  195SOL    HW2  597   1.731   1.437   1.186
  196SOL     OW  598   0.317   0.547   1.280
  196SOL    HW1  599   0.355   0.488   1.352
  196SOL    HW2  600   0.357   0.521   1.192
  197SOL     OW  601   0.812   1.586   0.687
  197SOL    HW1  602   0.844   1.596   0.593
  197SOL    HW2  603   0.733   1.524   0.689
  198SOL     OW  604   1.424   0.214   1.112
  198SOL    HW1  605   1.476   0.149   1.167
  198SOL    HW2  606   1.375   0.277   1.173
  199SOL     OW  607   1.001   0.034   1.154
  199SOL    HW1  608   0.938  -0.038   1.123
  199SOL    HW2  609   1.094  -0.002   1.154
  200SOL     OW  610   0.770   1.330   0.301
  200SOL    HW1  611   0.724   1.243   0.318
  200SOL    HW2  612   0.861   1.327   0.342
  201SOL     OW  613   0.618   1.567   1.284
  201SOL    HW1  614   0.613   1.649   1.341
  201SOL    HW2  615   0.707   1.564   1.239
  202SOL     OW  616   1.352   0.052   0.168
  202SOL    HW1  617   1.387   0.011   0.084
  202SOL    HW2  618   1.262   0.014   0.188
  203SOL     OW  619   1.300   0.453   0.691
  203SOL    HW1  620   1.241   0.533   0.695
  203SOL    HW2  621   1.315   0.418   0.784
  204SOL     OW  622   1.593   0.221   0.882
  204SOL    HW1  623   1.509   0.220   0.936
  204SOL    HW2  624   1.595   0.304   0.826
  205SOL     OW  625   0.039   1.077   0.300
  205SOL    HW1  626   0.138   1.066   0.291
  205SOL    HW2  627  -0.001   0.991   0.332
  206SOL     OW  628   0.875   1.646   0.337
  206SOL    HW1  629   0.798   1.611   0.283
  206SOL    HW2  630   0.843   1.717   0.399
  207SOL     OW  631   0.230   0.628   1.975
  207SOL    HW1  632   0.137   0.626   2.012
  207SOL    HW2  633   0.231   0.589   1.883
  208SOL     OW  634   1.135   0.703   2.579
  208SOL    HW1  635   1.192   0.781   2.554
  208SOL    HW2  636   1.075   0.729   2.655
  209SOL     OW  637   1.755   0.607   2.093
  209SOL    HW1  638   1.743   0.594   1.994
  209SOL    HW2  639   1.725   0.526   2.142
  210SOL     OW  640   1.603   0.447   2.599
  210SOL    HW1  641   1.529   0.493   2.549
  210SOL    HW2  642   1.654   0.515   2.652
  211SOL     OW  643   0.231   1.713   2.345
  211SOL    HW1  644   0.265   1.790   2.399
  211SOL    HW2  645   0.275   1.713   2.255
  212SOL     OW  646   0.230   1.434   2.400
  212SOL    HW1  647   0.204   1.530   2.400
  212SOL    HW2  648   0.159   1.380   2.445
  213SOL     OW  649   0.606   0.964   1.985
  213SOL    HW1  650   0.613   1.048   1.931
  213SOL    HW2  651   0.652   0.977   2.073
  214SOL     OW  652   0.122   0.643   2.425
  214SOL    HW1  653   0.077   0.555   2.442
  214SOL    HW2  654   0.121   0.697   2.509
  215SOL     OW  655   1.842   1.767   2.221
  215SOL    HW1  656   1.896   1.738   2.301
  215SOL    HW2  657   1.872   1.857   2.192
  216SOL     OW  658   0.027   1.596   1.979
  216SOL    HW1  659   0.008   1.500   2.000
  216SOL    HW2  660  -0.006   1.654   2.054
  217SOL     OW  661   1.689   0.922   2.474
  217SOL    HW1  662   1.784   0.893   2.482
  217SOL    HW2  663   1.681   0.987   2.399
  218SOL     OW  664   1.641   1.108   2.294
  218SOL    HW1  665   1.727   1.110   2.242
  218SOL    HW2  666   1.655   1.155   2.382
  219SOL     OW  667   0.613   1.365   2.588
  219SOL    HW1  668   0.564   1.278   2.597
  219SOL    HW2  669   0.590   1.408   2.501
  220SOL     OW  670   0.809   0.004   2.364
  220SOL    HW1  671   0.849   0.095   2.355
  220SOL    HW2  672   0.709   0.012   2.370
  221SOL     OW  673   1.525   0.999   2.052
  221SOL    HW1  674   1.462   0.923   2.065
  221SOL    HW2  675   1.573   1.017   2.138
  222SOL     OW  676   0.598   0.729   2.132
  222SOL    HW1  677   0.622   0.798   2.064
  222SOL    HW2  678   0.520   0.762   2.186
  223SOL     OW  679   1.281   0.345   2.806
  223SOL    HW1  680   1.195   0.295   2.793
  223SOL    HW2  681   1.343   0.291   2.862
  224SOL     OW  682   1.576   1.662   2.169
  224SOL    HW1  683   1.665   1.708   2.172
  224SOL    HW2  684   1.555   1.638   2.074
  225SOL     OW  685   1.041   0.701   2.291
  225SOL    HW1  686   1.067   0.697   2.387
  225SOL    HW2  687   0.956   0.650   2.277
  226SOL     OW  688   0.076   0.811   2.651
  226SOL    HW1  689   0.175   0.799   2.660
  226SOL    HW2  690   0.052   0.906   2.672
  227SOL     OW  691   0.865   0.348   2.057
  227SOL    HW1  692   0.924   0.411   2.008
  227SOL    HW2  693   0.884   0.254   2.028
  228SOL     OW  694   1.362   1.144   2.407
  228SOL    HW1  695   1.445   1.115   2.359
  228SOL    HW2  696   1.313   1.211   2.351
  229SOL     OW  697   1.008   1.456   2.339
  229SOL    HW1  698   0.962   1.528   2.287
  229SOL    HW2  699   1.004   1.476   2.437
  230SOL     OW  700   0.351   1.801   2.715
  230SOL    HW1  701   0.401   1.715   2.721
  230SOL    HW2  702   0.416   1.878   2.712
  231SOL     OW  703   1.795   1.066   2.735
  231SOL    HW1  704   1.733   1.051   2.659
  231SOL    HW2  705   1.743   1.077   2.820
  232SOL     OW  706   0.321   0.943   2.104
  232SOL    HW1  707   0.403   0.982   2.062
  232SOL    HW2  708   0.294   0.861   2.055
  233SOL     OW  709   1.111   1.776   2.099
  233SOL    HW1  710   1.051   1.714   2.149
  233SOL    HW2  711   1.142   1.732   2.014
  234SOL     OW  712   1.632   1.377   1.943
  234SOL    HW1  713   1.600   1.471   1.933
  234SOL    HW2  714   1.556   1.314   1.931
  235SOL     OW  715   0.464   1.743   2.185
  235SOL    HW1  716   0.497   1.782   2.271
  235SOL    HW2  717   0.540   1.736   2.120
  236SOL     OW  718   1.400   0.107   2.288
  236SOL    HW1  719   1.376   0.070   2.198
  236SOL    HW2  720   1.499   0.123   2.292
  237SOL     OW  721   0.940   1.698   2.766
  237SOL    HW1  722   1.020   1.641   2.787
  237SOL    HW2  723   0.891   1.658   2.689
  238SOL     OW  724   0.382   0.700   2.342
  238SOL    HW1  725   0.427   0.610   2.339
  238SOL    HW2  726   0.288   0.689   2.375
  239SOL     OW  727   0.614   0.122   1.979
  239SOL    HW1  728   0.712   0.100   1.986
  239SOL    HW2  729   0.583   0.105   1.886
  240SOL     OW  730   0.539   0.064   2.374
  240SOL    HW1  731   0.458   0.065   2.432
  240SOL    HW2  732   0.542   0.147   2.319
  241SOL     OW  733   1.434   1.188   1.903
  241SOL    HW1  734   1.466   1.112   1.960
  241SOL    HW2  735   1.342   1.215   1.933
  242SOL     OW  736   0.297   0.035   2.033
  242SOL    HW1  737   0.346   0.119   2.012
  242SOL    HW2  738   0.359  -0.030   2.078
  243SOL     OW  739   0.935   0.236   2.342
  243SOL    HW1  740   0.887   0.277   2.264
  243SOL    HW2  741   1.034   0.234   2.323
  244SOL     OW  742   0.459   1.152   2.603
  244SOL    HW1  743   0.388   1.125   2.668
  244SOL    HW2  744   0.433   1.124   2.510
  245SOL     OW  745   1.271   1.797   2.453
  245SOL    HW1  746   1.315   1.861   2.389
  245SOL    HW2  747   1.221   1.849   2.523
  246SOL     OW  748   1.032   0.549   1.878
  246SOL    HW1  749   0.991   0.631   1.839
  246SOL    HW2  750   1.096   0.575   1.951
  247SOL     OW  751   0.866   0.454   2.504
  247SOL    HW1  752   0.834   0.526   2.442
  247SOL    HW2  753   0.890   0.373   2.451
  248SOL     OW  754   1.857   0.833   2.239
  248SOL    HW1  755   1.899   0.769   2.303
  248SOL    HW2  756   1.819   0.782   2.161
  249SOL     OW  757   0.488   1.385   2.036
  249SOL    HW1  758   0.401   1.370   2.083
  249SOL    HW2  759   0.471   1.411   1.941
  250SOL     OW  760   1.390   0.575   1.940
  250SOL    HW1  761   1.336   0.554   2.021
  250SOL    HW2  762   1.481   0.534   1.949
  251SOL     OW  763   0.527   0.256   2.190
  251SOL    HW1  764   0.554   0.197   2.115
  251SOL    HW2  765   0.527   0.351   2.159
  252SOL     OW  766   1.111   1.195   2.962
  252SOL    HW1  767   1.071   1.239   3.043
  252SOL    HW2  768   1.070   1.232   2.879
  253SOL     OW  769   0.705   1.050   2.230
  253SOL    HW1  770   0.691   1.057   2.329
  253SOL    HW2  771   0.789   0.999   2.212
  254SOL     OW  772   0.367   1.100   2.363
  254SOL    HW1  773   0.360   1.183   2.307
  254SOL    HW2  774   0.371   1.020   2.303
  255SOL     OW  775   1.252   1.348   2.250
  255SOL    HW1  776   1.302   1.425   2.290
  255SOL    HW2  777   1.157   1.350   2.282
  256SOL     OW  778   1.582   0.639   2.334
  256SOL    HW1  779   1.551   0.700   2.407
  256SOL    HW2  780   1.632   0.691   2.265
  257SOL     OW  781   1.209   0.525   2.137
  257SOL    HW1  782   1.222   0.441   2.191
  257SOL    HW2  783   1.180   0.599   2.197
  258SOL     OW  784   0.307   0.063   2.480
  258SOL    HW1  785   0.296   0.157   2.513
  258SOL    HW2  786   0.302   0.000   2.557
  259SOL     OW  787   1.622   0.367   2.236
  259SOL    HW1  788   1.624   0.291   2.300
  259SOL    HW2  789   1.574   0.444   2.276
  260SOL     OW  790   1.540   0.274   1.987
  260SOL    HW1  791   1.479   0.199   2.010
  260SOL    HW2  792   1.562   0.326   2.070
  261SOL     OW  793   1.303   0.838   1.904
  261SOL    HW1  794   1.337   0.745   1.919
  261SOL    HW2  795   1.321   0.865   1.809
  262SOL     OW  796   0.008   1.326   2.062
  262SOL    HW1  797  -0.085   1.347   2.031
  262SOL    HW2  798   0.018   1.227   2.075
  263SOL     OW  799   0.815   0.572   2.187
  263SOL    HW1  800   0.822   0.483   2.141
  263SOL    HW2  801   0.721   0.606   2.179
  264SOL     OW  802   0.473   0.500   2.053
  264SOL    HW1  803   0.534   0.580   2.057
  264SOL    HW2  804   0.378   0.531   2.060
  265SOL     OW  805   1.302   0.855   2.171
  265SOL    HW1  806   1.216   0.824   2.213
  265SOL    HW2  807   1.298   0.841   2.072
  266SOL     OW  808   1.726   0.135   2.385
  266SOL    HW1  809   1.799   0.118   2.318
  266SOL    HW2  810   1.695   0.048   2.423
  267SOL     OW  811   1.388   1.573   2.339
  267SOL    HW1  812   1.455   1.585   2.265
  267SOL    HW2  813   1.348   1.662   2.362
  268SOL     OW  814   0.672   1.616   2.016
  268SOL    HW1  815   0.681   1.626   1.917
  268SOL    HW2  816   0.632   1.527   2.037
  269SOL     OW  817   1.841   0.175   2.825
  269SOL    HW1  818   1.880   0.090   2.789
  269SOL    HW2  819   1.743   0.177   2.806
  270SOL     OW  820   1.194   1.612   1.893
  270SOL    HW1  821   1.200   1.519   1.930
  270SOL    HW2  822   1.135   1.612   1.813
  271SOL     OW  823   0.916   0.910   2.153
  271SOL    HW1  824   0.979   0.948   2.085
  271SOL    HW2  825   0.956   0.827   2.192
  272SOL     OW  826   1.504   1.607   1.906
  272SOL    HW1  827   1.412   1.644   1.913
  272SOL    HW2  828   1.542   1.627   1.816
  273SOL     OW  829   0.590   1.487   2.353
  273SOL    HW1  830   0.632   1.429   2.283
  273SOL    HW2  831   0.546   1.566   2.309
  274SOL     OW  832   0.255   1.348   2.152
  274SOL    HW1  833   0.159   1.349   2.125
  274SOL    HW2  834   0.267   1.401   2.236
  275SOL     OW  835   0.075   0.345   1.895
  275SOL    HW1  836  -0.017   0.317   1.866
  275SOL    HW2  837   0.106   0.422   1.839
  276SOL     OW  838   0.072   0.166   2.180
  276SOL    HW1  839   0.055   0.249   2.126
  276SOL    HW2  840   0.162   0.129   2.158
  277SOL     OW  841   1.183   1.335   1.981
  277SOL    HW1  842   1.084   1.324   1.983
  277SOL    HW2  843   1.217   1.350   2.074
  278SOL     OW  844   1.225   0.325   2.311
  278SOL    HW1  845   1.290   0.251   2.300
  278SOL    HW2  846   1.245   0.375   2.395
  279SOL     OW  847   0.594   0.745   2.514
  279SOL    HW1  848   0.644   0.830   2.495
  279SOL    HW2  849   0.506   0.747   2.466
  280SOL     OW  850   0.859   1.374   1.878
  280SOL    HW1  851   0.813   1.389   1.966
  280SOL    HW2  852   0.903   1.459   1.848
  281SOL     OW  853   1.083   0.984   1.949
  281SOL    HW1  854   1.060   1.037   1.867
  281SOL    HW2  855   1.164   0.928   1.930
  282SOL     OW  856   0.079   1.240   2.515
  282SOL    HW1  857   0.078   1.193   2.603
  282SOL    HW2  858   0.161   1.212   2.464
  283SOL     OW  859   0.428   0.424   2.382
  283SOL    HW1  860   0.458   0.352   2.320
  283SOL    HW2  861   0.389   0.384   2.465
  284SOL     OW  862   0.812   1.586   2.549
  284SOL    HW1  863   0.844   1.596   2.455
  284SOL    HW2  864   0.733   1.524   2.551
  285SOL     OW  865   0.770   1.330   2.163
  285SOL    HW1  866   0.724   1.243   2.180
  285SOL    HW2  867   0.861   1.327   2.204
  286SOL     OW  868   1.352   0.052   2.030
  286SOL    HW1  869   1.387   0.011   1.946
  286SOL    HW2  870   1.262   0.014   2.050
  287SOL     OW  871   1.300   0.453   2.553
  287SOL    HW1  872   1.241   0.533   2.557
  287SOL    HW2  873   1.315   0.418   2.646
  288SOL     OW  874   0.039   1.077   2.162
  288SOL    HW1  875   0.138   1.066   2.153
  288SOL    HW2  876  -0.001   0.991   2.194
  289SOL     OW  877   0.875   1.646   2.199
  289SOL    HW1  878   0.798   1.611   2.145
  289SOL    HW2  879   0.843   1.717   2.261
  290SOL     OW  880   0.230   2.490   0.113
  290SOL    HW1  881   0.137   2.488   0.150
  290SOL    HW2  882   0.231   2.451   0.021
  291SOL     OW  883   0.225   2.137   0.996
  291SOL    HW1  884   0.260   2.120   1.088
  291SOL    HW2  885   0.137   2.092   0.984
  292SOL     OW  886   0.019   2.230   0.647
  292SOL    HW1  887  -0.063   2.273   0.686
  292SOL    HW2  888  -0.009   2.157   0.584
  293SOL     OW  889   1.755   2.469   0.231
  293SOL    HW1  890   1.743   2.456   0.132
  293SOL    HW2  891   1.725   2.388   0.280
  294SOL     OW  892   0.685   2.874   0.665
  294SOL    HW1  893   0.754   2.858   0.735
  294SOL    HW2  894   0.612   2.931   0.703
  295SOL     OW  895   0.438   2.254   1.499
  295SOL    HW1  896   0.520   2.198   1.508
  295SOL    HW2  897   0.357   2.196   1.503
  296SOL     OW  898   1.603   2.309   0.737
  296SOL    HW1  899   1.529   2.355   0.687
  296SOL    HW2  900   1.654   2.377   0.790
  297SOL     OW  901   1.594   1.976   1.480
  297SOL    HW1  902   1.576   2.043   1.408
  297SOL    HW2  903   1.591   2.022   1.569
  298SOL     OW  904   0.122   2.505   0.563
  298SOL    HW1  905   0.077   2.417   0.580
  298SOL    HW2  906   0.121   2.559   0.647
  299SOL     OW  907   0.113   2.599   1.597
  299SOL    HW1  908   0.201   2.586   1.642
  299SOL    HW2  909   0.100   2.696   1.575
  300SOL     OW  910   0.809   1.866   0.502
  300SOL    HW1  911   0.849   1.957   0.493
  300SOL    HW2  912   0.709   1.874   0.508
  301SOL     OW  913   0.317   2.113   1.801
  301SOL    HW1  914   0.388   2.184   1.807
  301SOL    HW2  915   0.229   2.152   1.829
  302SOL     OW  916   1.281   2.207   0.944
  302SOL    HW1  917   1.195   2.157   0.931
  302SOL    HW2  918   1.343   2.153   1.000
  303SOL     OW  919   0.807   2.467   1.465
  303SOL    HW1  920   0.760   2.464   1.554
  303SOL    HW2  921   0.756   2.412   1.399
  304SOL     OW  922   1.394   2.331   1.674
  304SOL    HW1  923   1.374   2.374   1.762
  304SOL    HW2  924   1.472   2.269   1.683
  305SOL     OW  925   0.991   2.272   1.242
  305SOL    HW1  926   0.914   2.306   1.296
  305SOL    HW2  927   0.957   2.221   1.163
  306SOL     OW  928   1.041   2.563   0.429
  306SOL    HW1  929   1.067   2.559   0.525
  306SOL    HW2  930   0.956   2.512   0.415
  307SOL     OW  931   0.076   2.673   0.789
  307SOL    HW1  932   0.175   2.661   0.798
  307SOL    HW2  933   0.052   2.768   0.810
  308SOL     OW  934   0.865   2.210   0.195
  308SOL    HW1  935   0.924   2.273   0.146
  308SOL    HW2  936   0.884   2.116   0.166
  309SOL     OW  937   1.719   2.447   1.831
  309SOL    HW1  938   1.693   2.536   1.795
  309SOL    HW2  939   1.717   2.379   1.758
  310SOL     OW  940   0.550   2.058   0.885
  310SOL    HW1  941   0.545   2.053   0.985
  310SOL    HW2  942   0.552   2.154   0.856
  311SOL     OW  943   1.458   2.597   0.728
  311SOL    HW1  944   1.453   2.532   0.803
  311SOL    HW2  945   1.538   2.656   0.741
  312SOL     OW  946   0.202   2.147   1.498
  312SOL    HW1  947   0.122   2.207   1.485
  312SOL    HW2  948   0.192   2.098   1.584
  313SOL     OW  949   1.400   1.969   0.426
  313SOL    HW1  950   1.376   1.932   0.336
  313SOL    HW2  951   1.499   1.985   0.430
  314SOL     OW  952   0.382   2.562   0.480
  314SOL    HW1  953   0.427   2.472   0.477
  314SOL    HW2  954   0.288   2.551   0.513
  315SOL     OW  955   1.547   2.084   1.729
  315SOL    HW1  956   1.542   2.121   1.821
  315SOL    HW2  957   1.475   2.015   1.717
  316SOL     OW  958   0.614   1.984   0.117
  316SOL    HW1  959   0.712   1.962   0.124
  316SOL    HW2  960   0.583   1.967   0.024
  317SOL     OW  961   0.781   2.126   1.749
  317SOL    HW1  962   0.848   2.065   1.792
  317SOL    HW2  963   0.708   2.145   1.814
  318SOL     OW  964   1.351   2.452   1.433
  318SOL    HW1  965   1.379   2.409   1.518
  318SOL    HW2  966   1.376   2.548   1.434
  319SOL     OW  967   0.922   2.365   0.899
  319SOL    HW1  968   0.897   2.356   0.803
  319SOL    HW2  969   0.970   2.283   0.930
  320SOL     OW  970   0.539   1.926   0.512
  320SOL    HW1  971   0.458   1.927   0.570
  320SOL    HW2  972   0.542   2.009   0.457
  321SOL     OW  973   0.935   2.098   0.480
  321SOL    HW1  974   0.887   2.139   0.402
  321SOL    HW2  975   1.034   2.096   0.461
  322SOL     OW  976   1.076   2.545   1.464
  322SOL    HW1  977   0.996   2.484   1.467
  322SOL    HW2  978   1.157   2.492   1.440
  323SOL     OW  979   1.032   2.411   0.016
  323SOL    HW1  980   0.991   2.493  -0.023
  323SOL    HW2  981   1.096   2.437   0.089
  324SOL     OW  982   0.078   2.418   1.386
  324SOL    HW1  983   0.170   2.417   1.345
  324SOL    HW2  984   0.072   2.492   1.453
  325SOL     OW  985   0.561   2.084   1.147
  325SOL    HW1  986   0.599   2.000   1.184
  325SOL    HW2  987   0.473   2.103   1.191
  326SOL     OW  988   0.866   2.316   0.642
  326SOL    HW1  989   0.834   2.388   0.580
  326SOL    HW2  990   0.890   2.235   0.589
  327SOL     OW  991   1.017   1.901   0.753
  327SOL    HW1  992   0.945   1.906   0.684
  327SOL    HW2  993   0.993   1.832   0.822
  328SOL     OW  994   1.466   2.452   0.992
  328SOL    HW1  995   1.436   2.357   0.999
  328SOL    HW2  996   1.539   2.468   1.058
  329SOL     OW  997   1.390   2.437   0.078
  329SOL    HW1  998   1.336   2.416   0.159
  329SOL    HW2  999   1.481   2.396   0.087
  330SOL     OW 1000   0.527   2.118   0.328
  330SOL    HW1 1001   0.554   2.059   0.253
  330SOL    HW2 1002   0.527   2.213   0.297
  331SOL     OW 1003   0.915   1.951   1.402
  331SOL    HW1 1004   0.940   1.931   1.307
  331SOL    HW2 1005   0.987   2.007   1.444
  332SOL     OW 1006   1.274   2.248   1.262
  332SOL    HW1 1007   1.295   2.322   1.326
  332SOL    HW2 1008   1.185   2.265   1.219
  333SOL     OW 1009   0.566   2.399   0.865
  333SOL    HW1 1010   0.578   2.465   0.791
  333SOL    HW2 1011   0.612   2.433   0.948
  334SOL     OW 1012   1.582   2.501   0.472
  334SOL    HW1 1013   1.551   2.562   0.545
  334SOL    HW2 1014   1.632   2.553   0.403
  335SOL     OW 1015   1.013   1.967   1.770
  335SOL    HW1 1016   1.019   2.052   1.718
  335SOL    HW2 1017   1.045   1.891   1.713
  336SOL     OW 1018   0.504   1.912   1.740
  336SOL    HW1 1019   0.462   1.855   1.670
  336SOL    HW2 1020   0.438   1.981   1.772
  337SOL     OW 1021   1.209   2.387   0.275
  337SOL    HW1 1022   1.222   2.303   0.329
  337SOL    HW2 1023   1.180   2.461   0.335
  338SOL     OW 1024   0.307   2.075   1.231
  338SOL    HW1 1025   0.284   2.112   1.321
  338SOL    HW2 1026   0.277   1.980   1.225
  339SOL     OW 1027   0.732   2.496   1.064
  339SOL    HW1 1028   0.791   2.470   0.988
  339SOL    HW2 1029   0.704   2.592   1.053
  340SOL     OW 1030   0.307   1.925   0.618
  340SOL    HW1 1031   0.296   2.019   0.651
  340SOL    HW2 1032   0.302   1.862   0.695
  341SOL     OW 1033   1.622   2.229   0.374
  341SOL    HW1 1034   1.624   2.153   0.438
  341SOL    HW2 1035   1.574   2.306   0.414
  342SOL     OW 1036   1.540   2.136   0.125
  342SOL    HW1 1037   1.479   2.061   0.148
  342SOL    HW2 1038   1.562   2.188   0.208
  343SOL     OW 1039   0.319   2.672   0.949
  343SOL    HW1 1040   0.412   2.708   0.954
  343SOL    HW2 1041   0.313   2.587   1.001
  344SOL     OW 1042   0.339   2.371   1.006
  344SOL    HW1 1043   0.287   2.288   0.989
  344SOL    HW2 1044   0.416   2.376   0.942
  345SOL     OW 1045   1.138   2.242   1.678
  345SOL    HW1 1046   1.093   2.305   1.742
  345SOL    HW2 1047   1.231   2.273   1.661
  346SOL     OW 1048   1.160   2.069   1.477
  346SOL    HW1 1049   1.160   2.133   1.554
  346SOL    HW2 1050   1.188   2.117   1.394
  347SOL     OW 1051   0.040   2.406   1.114
  347SOL    HW1 1052   0.125   2.373   1.073
  347SOL    HW2 1053   0.053   2.421   1.212
  348SOL     OW 1054   0.189   2.382   1.722
  348SOL    HW1 1055   0.248   2.342   1.652
  348SOL    HW2 1056   0.131   2.453   1.681
  349SOL     OW 1057   0.815   2.434   0.325
  349SOL    HW1 1058   0.822   2.345   0.279
  349SOL    HW2 1059   0.721   2.468   0.317
  350SOL     OW 1060   1.657   2.466   1.206
  350SOL    HW1 1061   1.619   2.397   1.268
  350SOL    HW2 1062   1.739   2.430   1.162
  351SOL     OW 1063   0.671   2.326   1.269
  351SOL    HW1 1064   0.637   2.237   1.239
  351SOL    HW2 1065   0.697   2.380   1.189
  352SOL     OW 1066   0.473   2.362   0.191
  352SOL    HW1 1067   0.534   2.442   0.195
  352SOL    HW2 1068   0.378   2.393   0.198
  353SOL     OW 1069   0.903   1.948   0.133
  353SOL    HW1 1070   0.954   1.949   0.047
  353SOL    HW2 1071   0.959   1.906   0.204
  354SOL     OW 1072   1.726   1.997   0.523
  354SOL    HW1 1073   1.799   1.980   0.456
  354SOL    HW2 1074   1.695   1.910   0.561
  355SOL     OW 1075   1.280   2.789   0.672
  355SOL    HW1 1076   1.340   2.708   0.674
  355SOL    HW2 1077   1.320   2.858   0.612
  356SOL     OW 1078   1.841   2.037   0.963
  356SOL    HW1 1079   1.880   1.952   0.927
  356SOL    HW2 1080   1.743   2.039   0.944
  357SOL     OW 1081   0.263   2.188   0.720
  357SOL    HW1 1082   0.184   2.239   0.686
  357SOL    HW2 1083   0.254   2.173   0.818
  358SOL     OW 1084   1.014   2.098   0.971
  358SOL    HW1 1085   1.006   2.062   0.878
  358SOL    HW2 1086   1.012   2.022   1.036
  359SOL     OW 1087   1.709   2.247   1.381
  359SOL    HW1 1088   1.782   2.316   1.385
  359SOL    HW2 1089   1.737   2.172   1.322
  360SOL     OW 1090   0.672   2.065   1.489
  360SOL    HW1 1091   0.762   2.049   1.449
  360SOL    HW2 1092   0.680   2.070   1.588
  361SOL     OW 1093   0.075   2.207   0.033
  361SOL    HW1 1094  -0.017   2.179   0.004
  361SOL    HW2 1095   0.106   2.284  -0.023
  362SOL     OW 1096   0.072   2.028   0.318
  362SOL    HW1 1097   0.055   2.111   0.264
  362SOL    HW2 1098   0.162   1.991   0.296
  363SOL     OW 1099   0.716   2.427   1.708
  363SOL    HW1 1100   0.735   2.492   1.782
  363SOL    HW2 1101   0.776   2.347   1.717
  364SOL     OW 1102   1.225   2.187   0.449
  364SOL    HW1 1103   1.290   2.113   0.438
  364SOL    HW2 1104   1.245   2.237   0.533
  365SOL     OW 1105   1.777   2.204   1.642
  365SOL    HW1 1106   1.760   2.235   1.548
  365SOL    HW2 1107   1.693   2.167   1.680
  366SOL     OW 1108   1.083   2.846   0.087
  366SOL    HW1 1109   1.060   2.899   0.005
  366SOL    HW2 1110   1.164   2.790   0.068
  367SOL     OW 1111   1.824   2.054   1.227
  367SOL    HW1 1112   1.820   1.964   1.271
  367SOL    HW2 1113   1.827   2.043   1.128
  368SOL     OW 1114   0.428   2.286   0.520
  368SOL    HW1 1115   0.458   2.214   0.458
  368SOL    HW2 1116   0.389   2.246   0.603
  369SOL     OW 1117   0.317   2.409   1.280
  369SOL    HW1 1118   0.355   2.350   1.352
  369SOL    HW2 1119   0.357   2.383   1.192
  370SOL     OW 1120   1.424   2.076   1.112
  370SOL    HW1 1121   1.476   2.011   1.167
  370SOL    HW2 1122   1.375   2.139   1.173
  371SOL     OW 1123   1.001   1.896   1.154
  371SOL    HW1 1124   0.938   1.824   1.123
  371SOL    HW2 1125   1.094   1.860   1.154
  372SOL     OW 1126   1.352   1.914   0.168
  372SOL    HW1 1127   1.387   1.873   0.084
  372SOL    HW2 1128   1.262   1.876   0.188
  373SOL     OW 1129   1.300   2.315   0.691
  373SOL    HW1 1130   1.241   2.395   0.695
  373SOL    HW2 1131   1.315   2.280   0.784
  374SOL     OW 1132   1.593   2.083   0.882
  374SOL    HW1 1133   1.509   2.082   0.936
  374SOL    HW2 1134   1.595   2.166   0.826
  375SOL     OW 1135   0.230   2.490   1.975
  375SOL    HW1 1136   0.137   2.488   2.012
  375SOL    HW2 1137   0.231   2.451   1.883
  376SOL     OW 1138   1.135   2.565   2.579
  376SOL    HW1 1139   1.192   2.643   2.554
  376SOL    HW2 1140   1.075   2.591   2.655
  377SOL     OW 1141   1.755   2.469   2.093
  377SOL    HW1 1142   1.743   2.456   1.994
  377SOL    HW2 1143   1.725   2.388   2.142
  378SOL     OW 1144   0.685   2.874   2.527
  378SOL    HW1 1145   0.754   2.858   2.597
  378SOL    HW2 1146   0.612   2.931   2.565
  379SOL     OW 1147   1.603   2.309   2.599
  379SOL    HW1 1148   1.529   2.355   2.549
  379SOL    HW2 1149   1.654   2.377   2.652
  380SOL     OW 1150   0.240   2.953   2.748
  380SOL    HW1 1151   0.254   2.869   2.800
  380SOL    HW2 1152   0.185   3.017   2.803
  381SOL     OW 1153   0.122   2.505   2.425
  381SOL    HW1 1154   0.077   2.417   2.442
  381SOL    HW2 1155   0.121   2.559   2.509
  382SOL     OW 1156   0.809   1.866   2.364
  382SOL    HW1 1157   0.849   1.957   2.355
  382SOL    HW2 1158   0.709   1.874   2.370
  383SOL     OW 1159   1.281   2.207   2.806
  383SOL    HW1 1160   1.195   2.157   2.793
  383SOL    HW2 1161   1.343   2.153   2.862
  384SOL     OW 1162   1.041   2.563   2.291
  384SOL    HW1 1163   1.067   2.559   2.387
  384SOL    HW2 1164   0.956   2.512   2.277
  385SOL     OW 1165   0.076   2.673   2.651
  385SOL    HW1 1166   0.175   2.661   2.660
  385SOL    HW2 1167   0.052   2.768   2.672
  386SOL     OW 1168   0.865   2.210   2.057
  386SOL    HW1 1169   0.924   2.273   2.008
  386SOL    HW2 1170   0.884   2.116   2.028
  387SOL     OW 1171   1.400   1.969   2.288
  387SOL    HW1 1172   1.376   1.932   2.198
  387SOL    HW2 1173   1.499   1.985   2.292
  388SOL     OW 1174   0.382   2.562   2.342
  388SOL    HW1 1175   0.427   2.472   2.339
  388SOL    HW2 1176   0.288   2.551   2.375
  389SOL     OW 1177   0.614   1.984   1.979
  389SOL    HW1 1178   0.712   1.962   1.986
  389SOL    HW2 1179   0.583   1.967   1.886
  390SOL     OW 1180   0.539   1.926   2.374
  390SOL    HW1 1181   0.458   1.927   2.432
  390SOL    HW2 1182   0.542   2.009   2.319
  391SOL     OW 1183   0.297   1.897   2.033
  391SOL    HW1 1184   0.346   1.981   2.012
  391SOL    HW2 1185   0.359   1.832   2.078
  392SOL     OW 1186   0.935   2.098   2.342
  392SOL    HW1 1187   0.887   2.139   2.264
  392SOL    HW2 1188   1.034   2.096   2.323
  393SOL     OW 1189   1.032   2.411   1.878
  393SOL    HW1 1190   0.991   2.493   1.839
  393SOL    HW2 1191   1.096   2.437   1.951
  394SOL     OW 1192   0.866   2.316   2.504
  394SOL    HW1 1193   0.834   2.388   2.442
  394SOL    HW2 1194   0.890   2.235   2.451
  395SOL     OW 1195   1.390   2.437   1.940
  395SOL    HW1 1196   1.336   2.416   2.021
  395SOL    HW2 1197   1.481   2.396   1.949
  396SOL     OW 1198   0.527   2.118   2.190
  396SOL    HW1 1199   0.554   2.059   2.115
  396SOL    HW2 1200   0.527   2.213   2.159
  397SOL     OW 1201   1.582   2.501   2.334
  397SOL    HW1 1202   1.551   2.562   2.407
  397SOL    HW2 1203   1.632   2.553   2.265
  398SOL     OW 1204   1.209   2.387   2.137
  398SOL    HW1 1205   1.222   2.303   2.191
  398SOL    HW2 1206   1.180   2.461   2.197
  399SOL     OW 1207   0.307   1.925   2.480
  399SOL    HW1 1208   0.296   2.019   2.513
  399SOL    HW2 1209   0.302   1.862   2.557
  400SOL     OW 1210   1.622   2.229   2.236
  400SOL    HW1 1211   1.624   2.153   2.300
  400SOL    HW2 1212   1.574   2.306   2.276
  401SOL     OW 1213   1.540   2.136   1.987
  401SOL    HW1 1214   1.479   2.061   2.010
  401SOL    HW2 1215   1.562   2.188   2.070
  402SOL     OW 1216   0.815   2.434   2.187
  402SOL    HW1 1217   0.822   2.345   2.141
  402SOL    HW2 1218   0.721   2.468   2.179
  403SOL     OW 1219   0.473   2.362   2.053
  403SOL    HW1 1220   0.534   2.442   2.057
  403SOL    HW2 1221   0.378   2.393   2.060
  404SOL     OW 1222   1.726   1.997   2.385
  404SOL    HW1 1223   1.799   1.980   2.318
  404SOL    HW2 1224   1.695   1.910   2.423
  405SOL     OW 1225   1.280   2.789   2.534
  405SOL    HW1 1226   1.340   2.708   2.536
  405SOL    HW2 1227   1.320   2.858   2.474
  406SOL     OW 1228   1.841   2.037   2.825
  406SOL    HW1 1229   1.880   1.952   2.789
  406SOL    HW2 1230   1.743   2.039   2.806
  407SOL     OW 1231   0.075   2.207   1.895
  407SOL    HW1 1232  -0.017   2.179   1.866
  407SOL    HW2 1233   0.106   2.284   1.839
  408SOL     OW 1234   0.072   2.028   2.180
  408SOL    HW1 1235   0.055   2.111   2.126
  408SOL    HW2 1236   0.162   1.991   2.158
  409SOL     OW 1237   1.225   2.187   2.311
  409SOL    HW1 1238   1.290   2.113   2.300
  409SOL    HW2 1239   1.245   2.237   2.395
  410SOL     OW 1240   1.083   2.846   1.949
  410SOL    HW1 1241   1.060   2.899   1.867
  410SOL    HW2 1242   1.164   2.790   1.930
  411SOL     OW 1243   0.428   2.286   2.382
  411SOL    HW1 1244   0.458   2.214   2.320
  411SOL    HW2 1245   0.389   2.246   2.465
  412SOL     OW 1246   1.352   1.914   2.030
  412SOL    HW1 1247   1.387   1.873   1.946
  412SOL    HW2 1248   1.262   1.876   2.050
  413SOL     OW 1249   1.300   2.315   2.553
  413SOL    HW1 1250   1.241   2.395   2.557
  413SOL    HW2 1251   1.315   2.280   2.646
  414SOL     OW 1252   2.092   0.628   0.113
  414SOL    HW1 1253   1.999   0.626   0.150
  414SOL    HW2 1254   2.093   0.589   0.021
  415SOL     OW 1255   2.087   0.275   0.996
  415SOL    HW1 1256   2.122   0.258   1.088
  415SOL    HW2 1257   1.999   0.230   0.984
  416SOL     OW 1258   1.881   0.368   0.647
  416SOL    HW1 1259   1.799   0.411   0.686
  416SOL    HW2 1260   1.853   0.295   0.584
  417SOL     OW 1261   2.431   1.275   1.165
  417SOL    HW1 1262   2.338   1.268   1.128
  417SOL    HW2 1263   2.442   1.364   1.209
  418SOL     OW 1264   2.712   0.798   1.823
  418SOL    HW1 1265   2.708   0.874   1.888
  418SOL    HW2 1266   2.734   0.834   1.732
  419SOL     OW 1267   2.548   1.161   1.803
  419SOL    HW1 1268   2.608   1.240   1.817
  419SOL    HW2 1269   2.462   1.192   1.762
  420SOL     OW 1270   2.197   1.435   1.061
  420SOL    HW1 1271   2.119   1.404   1.008
  420SOL    HW2 1272   2.255   1.493   1.004
  421SOL     OW 1273   2.300   0.392   1.499
  421SOL    HW1 1274   2.382   0.336   1.508
  421SOL    HW2 1275   2.219   0.334   1.503
  422SOL     OW 1276   2.093   1.713   0.483
  422SOL    HW1 1277   2.127   1.790   0.537
  422SOL    HW2 1278   2.137   1.713   0.393
  423SOL     OW 1279   2.092   1.434   0.538
  423SOL    HW1 1280   2.066   1.530   0.538
  423SOL    HW2 1281   2.021   1.380   0.583
  424SOL     OW 1282   2.102   1.091   0.886
  424SOL    HW1 1283   2.116   1.007   0.938
  424SOL    HW2 1284   2.047   1.155   0.941
  425SOL     OW 1285   2.482   1.786   1.439
  425SOL    HW1 1286   2.390   1.769   1.474
  425SOL    HW2 1287   2.510   1.878   1.465
  426SOL     OW 1288   2.468   0.964   0.123
  426SOL    HW1 1289   2.475   1.048   0.069
  426SOL    HW2 1290   2.514   0.977   0.211
  427SOL     OW 1291   1.984   0.643   0.563
  427SOL    HW1 1292   1.939   0.555   0.580
  427SOL    HW2 1293   1.983   0.697   0.647
  428SOL     OW 1294   1.889   1.596   0.117
  428SOL    HW1 1295   1.870   1.500   0.138
  428SOL    HW2 1296   1.856   1.654   0.192
  429SOL     OW 1297   1.975   0.737   1.597
  429SOL    HW1 1298   2.063   0.724   1.642
  429SOL    HW2 1299   1.962   0.834   1.575
  430SOL     OW 1300   2.475   1.365   0.726
  430SOL    HW1 1301   2.426   1.278   0.735
  430SOL    HW2 1302   2.452   1.408   0.639
  431SOL     OW 1303   2.059   0.976   1.264
  431SOL    HW1 1304   2.148   0.931   1.250
  431SOL    HW2 1305   1.986   0.911   1.245
  432SOL     OW 1306   2.179   0.251   1.801
  432SOL    HW1 1307   2.250   0.322   1.807
  432SOL    HW2 1308   2.091   0.290   1.829
  433SOL     OW 1309   2.460   0.729   0.270
  433SOL    HW1 1310   2.484   0.798   0.202
  433SOL    HW2 1311   2.382   0.762   0.324
  434SOL     OW 1312   1.938   0.811   0.789
  434SOL    HW1 1313   2.037   0.799   0.798
  434SOL    HW2 1314   1.914   0.906   0.810
  435SOL     OW 1315   1.992   1.821   1.571
  435SOL    HW1 1316   1.982   1.806   1.670
  435SOL    HW2 1317   1.906   1.857   1.535
  436SOL     OW 1318   2.412   0.196   0.885
  436SOL    HW1 1319   2.407   0.191   0.985
  436SOL    HW2 1320   2.414   0.292   0.856
  437SOL     OW 1321   2.213   1.801   0.853
  437SOL    HW1 1322   2.263   1.715   0.859
  437SOL    HW2 1323   2.278   1.878   0.850
  438SOL     OW 1324   2.183   0.943   0.242
  438SOL    HW1 1325   2.265   0.982   0.200
  438SOL    HW2 1326   2.156   0.861   0.193
  439SOL     OW 1327   2.323   1.266   1.727
  439SOL    HW1 1328   2.273   1.267   1.641
  439SOL    HW2 1329   2.260   1.248   1.803
  440SOL     OW 1330   2.064   0.285   1.498
  440SOL    HW1 1331   1.984   0.345   1.485
  440SOL    HW2 1332   2.054   0.236   1.584
  441SOL     OW 1333   2.326   1.743   0.323
  441SOL    HW1 1334   2.359   1.782   0.409
  441SOL    HW2 1335   2.402   1.736   0.258
  442SOL     OW 1336   2.111   1.785   1.241
  442SOL    HW1 1337   2.168   1.720   1.291
  442SOL    HW2 1338   2.095   1.752   1.148
  443SOL     OW 1339   2.244   0.700   0.480
  443SOL    HW1 1340   2.289   0.610   0.477
  443SOL    HW2 1341   2.150   0.689   0.513
  444SOL     OW 1342   2.665   1.402   0.924
  444SOL    HW1 1343   2.755   1.416   0.882
  444SOL    HW2 1344   2.594   1.404   0.853
  445SOL     OW 1345   2.401   0.064   0.512
  445SOL    HW1 1346   2.320   0.065   0.570
  445SOL    HW2 1347   2.404   0.147   0.457
  446SOL     OW 1348   2.159   0.035   0.171
  446SOL    HW1 1349   2.208   0.119   0.150
  446SOL    HW2 1350   2.221  -0.030   0.216
  447SOL     OW 1351   2.321   1.152   0.741
  447SOL    HW1 1352   2.250   1.125   0.806
  447SOL    HW2 1353   2.295   1.124   0.648
  448SOL     OW 1354   1.940   0.556   1.386
  448SOL    HW1 1355   2.032   0.555   1.345
  448SOL    HW2 1356   1.934   0.630   1.453
  449SOL     OW 1357   2.423   0.222   1.147
  449SOL    HW1 1358   2.461   0.138   1.184
  449SOL    HW2 1359   2.335   0.241   1.191
  450SOL     OW 1360   2.350   1.385   0.174
  450SOL    HW1 1361   2.263   1.370   0.221
  450SOL    HW2 1362   2.333   1.411   0.079
  451SOL     OW 1363   2.389   0.256   0.328
  451SOL    HW1 1364   2.416   0.197   0.253
  451SOL    HW2 1365   2.389   0.351   0.297
  452SOL     OW 1366   2.272   0.813   1.251
  452SOL    HW1 1367   2.358   0.825   1.301
  452SOL    HW2 1368   2.230   0.726   1.278
  453SOL     OW 1369   1.926   1.564   1.331
  453SOL    HW1 1370   1.880   1.646   1.297
  453SOL    HW2 1371   2.024   1.583   1.340
  454SOL     OW 1372   2.229   1.100   0.501
  454SOL    HW1 1373   2.222   1.183   0.445
  454SOL    HW2 1374   2.233   1.020   0.441
  455SOL     OW 1375   2.428   0.537   0.865
  455SOL    HW1 1376   2.440   0.603   0.791
  455SOL    HW2 1377   2.474   0.571   0.948
  456SOL     OW 1378   2.216   1.510   1.329
  456SOL    HW1 1379   2.195   1.466   1.242
  456SOL    HW2 1380   2.313   1.536   1.332
  457SOL     OW 1381   2.264   0.751   1.598
  457SOL    HW1 1382   2.332   0.806   1.551
  457SOL    HW2 1383   2.304   0.663   1.625
  458SOL     OW 1384   2.366   0.050   1.740
  458SOL    HW1 1385   2.324  -0.007   1.670
  458SOL    HW2 1386   2.300   0.119   1.772
  459SOL     OW 1387   2.435   0.870   1.029
  459SOL    HW1 1388   2.479   0.959   1.020
  459SOL    HW2 1389   2.372   0.870   1.106
  460SOL     OW 1390   2.169   0.213   1.231
  460SOL    HW1 1391   2.146   0.250   1.321
  460SOL    HW2 1392   2.139   0.118   1.225
  461SOL     OW 1393   1.899   1.310   1.282
  461SOL    HW1 1394   1.952   1.261   1.350
  461SOL    HW2 1395   1.921   1.408   1.287
  462SOL     OW 1396   2.169   0.063   0.618
  462SOL    HW1 1397   2.158   0.157   0.651
  462SOL    HW2 1398   2.164   0.000   0.695
  463SOL     OW 1399   2.212   0.898   1.804
  463SOL    HW1 1400   2.288   0.942   1.852
  463SOL    HW2 1401   2.247   0.851   1.722
  464SOL     OW 1402   2.181   0.810   0.949
  464SOL    HW1 1403   2.274   0.846   0.954
  464SOL    HW2 1404   2.175   0.725   1.001
  465SOL     OW 1405   2.201   0.509   1.006
  465SOL    HW1 1406   2.149   0.426   0.989
  465SOL    HW2 1407   2.278   0.514   0.942
  466SOL     OW 1408   1.870   1.326   0.200
  466SOL    HW1 1409   1.777   1.347   0.169
  466SOL    HW2 1410   1.880   1.227   0.213
  467SOL     OW 1411   1.950   1.801   0.927
  467SOL    HW1 1412   1.908   1.715   0.900
  467SOL    HW2 1413   2.044   1.804   0.893
  468SOL     OW 1414   2.366   1.568   0.910
  468SOL    HW1 1415   2.432   1.642   0.919
  468SOL    HW2 1416   2.410   1.489   0.868
  469SOL     OW 1417   1.902   0.544   1.114
  469SOL    HW1 1418   1.987   0.511   1.073
  469SOL    HW2 1419   1.915   0.559   1.212
  470SOL     OW 1420   2.051   0.520   1.722
  470SOL    HW1 1421   2.110   0.480   1.652
  470SOL    HW2 1422   1.993   0.591   1.681
  471SOL     OW 1423   2.677   0.572   0.325
  471SOL    HW1 1424   2.684   0.483   0.279
  471SOL    HW2 1425   2.583   0.606   0.317
  472SOL     OW 1426   2.114   1.564   1.744
  472SOL    HW1 1427   2.084   1.621   1.820
  472SOL    HW2 1428   2.107   1.467   1.770
  473SOL     OW 1429   2.335   0.500   0.191
  473SOL    HW1 1430   2.396   0.580   0.195
  473SOL    HW2 1431   2.240   0.531   0.198
  474SOL     OW 1432   2.021   1.137   1.466
  474SOL    HW1 1433   2.043   1.076   1.542
  474SOL    HW2 1434   2.031   1.088   1.380
  475SOL     OW 1435   1.945   1.258   1.022
  475SOL    HW1 1436   1.940   1.257   1.122
  475SOL    HW2 1437   1.862   1.217   0.984
  476SOL     OW 1438   2.550   1.662   1.716
  476SOL    HW1 1439   2.494   1.743   1.725
  476SOL    HW2 1440   2.602   1.666   1.630
  477SOL     OW 1441   1.992   1.794   1.851
  477SOL    HW1 1442   1.951   1.720   1.904
  477SOL    HW2 1443   2.056   1.845   1.909
  478SOL     OW 1444   2.125   0.326   0.720
  478SOL    HW1 1445   2.046   0.377   0.686
  478SOL    HW2 1446   2.116   0.311   0.818
  479SOL     OW 1447   2.234   1.288   1.490
  479SOL    HW1 1448   2.221   1.381   1.456
  479SOL    HW2 1449   2.150   1.236   1.477
  480SOL     OW 1450   2.452   1.487   0.491
  480SOL    HW1 1451   2.494   1.429   0.421
  480SOL    HW2 1452   2.408   1.566   0.447
  481SOL     OW 1453   2.117   1.348   0.290
  481SOL    HW1 1454   2.021   1.349   0.263
  481SOL    HW2 1455   2.129   1.401   0.374
  482SOL     OW 1456   1.967   1.013   1.726
  482SOL    HW1 1457   1.890   0.980   1.780
  482SOL    HW2 1458   2.052   0.983   1.768
  483SOL     OW 1459   2.534   0.203   1.489
  483SOL    HW1 1460   2.624   0.187   1.449
  483SOL    HW2 1461   2.542   0.208   1.588
  484SOL     OW 1462   1.937   0.345   0.033
  484SOL    HW1 1463   1.845   0.317   0.004
  484SOL    HW2 1464   1.968   0.422  -0.023
  485SOL     OW 1465   2.475   0.842   1.431
  485SOL    HW1 1466   2.531   0.923   1.414
  485SOL    HW2 1467   2.534   0.762   1.434
  486SOL     OW 1468   2.578   0.565   1.708
  486SOL    HW1 1469   2.597   0.630   1.782
  486SOL    HW2 1470   2.638   0.485   1.717
  487SOL     OW 1471   2.252   1.741   1.560
  487SOL    HW1 1472   2.161   1.782   1.558
  487SOL    HW2 1473   2.245   1.647   1.592
  488SOL     OW 1474   2.456   0.745   0.652
  488SOL    HW1 1475   2.506   0.830   0.633
  488SOL    HW2 1476   2.368   0.747   0.604
  489SOL     OW 1477   2.083   1.314   1.844
  489SOL    HW1 1478   2.018   1.241   1.823
  489SOL    HW2 1479   2.087   1.328   1.942
  490SOL     OW 1480   1.941   1.240   0.653
  490SOL    HW1 1481   1.940   1.193   0.741
  490SOL    HW2 1482   2.023   1.212   0.602
  491SOL     OW 1483   2.534   1.391   1.624
  491SOL    HW1 1484   2.456   1.341   1.662
  491SOL    HW2 1485   2.531   1.486   1.655
  492SOL     OW 1486   2.290   0.424   0.520
  492SOL    HW1 1487   2.320   0.352   0.458
  492SOL    HW2 1488   2.251   0.384   0.603
  493SOL     OW 1489   2.179   0.547   1.280
  493SOL    HW1 1490   2.217   0.488   1.352
  493SOL    HW2 1491   2.219   0.521   1.192
  494SOL     OW 1492   2.674   1.586   0.687
  494SOL    HW1 1493   2.706   1.596   0.593
  494SOL    HW2 1494   2.595   1.524   0.689
  495SOL     OW 1495   1.901   1.077   0.300
  495SOL    HW1 1496   2.000   1.066   0.291
  495SOL    HW2 1497   1.861   0.991   0.332
  496SOL     OW 1498   2.092   0.628   1.975
  496SOL    HW1 1499   1.999   0.626   2.012
  496SOL    HW2 1500   2.093   0.589   1.883
  497SOL     OW 1501   2.087   0.275   2.858
  497SOL    HW1 1502   2.122   0.258   2.950
  497SOL    HW2 1503   1.999   0.230   2.846
  498SOL     OW 1504   2.093   1.713   2.345
  498SOL    HW1 1505   2.127   1.790   2.399
  498SOL    HW2 1506   2.137   1.713   2.255
  499SOL     OW 1507   2.092   1.434   2.400
  499SOL    HW1 1508   2.066   1.530   2.400
  499SOL    HW2 1509   2.021   1.380   2.445
  500SOL     OW 1510   2.468   0.964   1.985
  500SOL    HW1 1511   2.475   1.048   1.931
  500SOL    HW2 1512   2.514   0.977   2.073
  501SOL     OW 1513   1.984   0.643   2.425
  501SOL    HW1 1514   1.939   0.555   2.442
  501SOL    HW2 1515   1.983   0.697   2.509
  502SOL     OW 1516   1.889   1.596   1.979
  502SOL    HW1 1517   1.870   1.500   2.000
  502SOL    HW2 1518   1.856   1.654   2.054
  503SOL     OW 1519   2.475   1.365   2.588
  503SOL    HW1 1520   2.426   1.278   2.597
  503SOL    HW2 1521   2.452   1.408   2.501
  504SOL     OW 1522   2.460   0.729   2.132
  504SOL    HW1 1523   2.484   0.798   2.064
  504SOL    HW2 1524   2.382   0.762   2.186
  505SOL     OW 1525   1.938   0.811   2.651
  505SOL    HW1 1526   2.037   0.799   2.660
  505SOL    HW2 1527   1.914   0.906   2.672
  506SOL     OW 1528   2.213   1.801   2.715
  506SOL    HW1 1529   2.263   1.715   2.721
  506SOL    HW2 1530   2.278   1.878   2.712
  507SOL     OW 1531   2.183   0.943   2.104
  507SOL    HW1 1532   2.265   0.982   2.062
  507SOL    HW2 1533   2.156   0.861   2.055
  508SOL     OW 1534   2.326   1.743   2.185
  508SOL    HW1 1535   2.359   1.782   2.271
  508SOL    HW2 1536   2.402   1.736   2.120
  509SOL     OW 1537   2.244   0.700   2.342
  509SOL    HW1 1538   2.289   0.610   2.339
  509SOL    HW2 1539   2.150   0.689   2.375
  510SOL     OW 1540   2.476   0.122   1.979
  510SOL    HW1 1541   2.574   0.100   1.986
  510SOL    HW2 1542   2.445   0.105   1.886
  511SOL     OW 1543   2.401   0.064   2.374
  511SOL    HW1 1544   2.320   0.065   2.432
  511SOL    HW2 1545   2.404   0.147   2.319
  512SOL     OW 1546   2.159   0.035   2.033
  512SOL    HW1 1547   2.208   0.119   2.012
  512SOL    HW2 1548   2.221  -0.030   2.078
  513SOL     OW 1549   2.321   1.152   2.603
  513SOL    HW1 1550   2.250   1.125   2.668
  513SOL    HW2 1551   2.295   1.124   2.510
  514SOL     OW 1552   2.350   1.385   2.036
  514SOL    HW1 1553   2.263   1.370   2.083
  514SOL    HW2 1554   2.333   1.411   1.941
  515SOL     OW 1555   2.389   0.256   2.190
  515SOL    HW1 1556   2.416   0.197   2.115
  515SOL    HW2 1557   2.389   0.351   2.159
  516SOL     OW 1558   2.229   1.100   2.363
  516SOL    HW1 1559   2.222   1.183   2.307
  516SOL    HW2 1560   2.233   1.020   2.303
  517SOL     OW 1561   2.169   0.063   2.480
  517SOL    HW1 1562   2.158   0.157   2.513
  517SOL    HW2 1563   2.164   0.000   2.557
  518SOL     OW 1564   1.870   1.326   2.062
  518SOL    HW1 1565   1.777   1.347   2.031
  518SOL    HW2 1566   1.880   1.227   2.075
  519SOL     OW 1567   2.677   0.572   2.187
  519SOL    HW1 1568   2.684   0.483   2.141
  519SOL    HW2 1569   2.583   0.606   2.179
  520SOL     OW 1570   2.335   0.500   2.053
  520SOL    HW1 1571   2.396   0.580   2.057
  520SOL    HW2 1572   2.240   0.531   2.060
  521SOL     OW 1573   2.452   1.487   2.353
  521SOL    HW1 1574   2.494   1.429   2.283
  521SOL    HW2 1575   2.408   1.566   2.309
  522SOL     OW 1576   2.117   1.348   2.152
  522SOL    HW1 1577   2.021   1.349   2.125
  522SOL    HW2 1578   2.129   1.401   2.236
  523SOL     OW 1579   1.937   0.345   1.895
  523SOL    HW1 1580   1.845   0.317   1.866
  523SOL    HW2 1581   1.968   0.422   1.839
  524SOL     OW 1582   1.934   0.166   2.180
  524SOL    HW1 1583   1.917   0.249   2.126
  524SOL    HW2 1584   2.024   0.129   2.158
  525SOL     OW 1585   2.456   0.745   2.514
  525SOL    HW1 1586   2.506   0.830   2.495
  525SOL    HW2 1587   2.368   0.747   2.466
  526SOL     OW 1588   1.941   1.240   2.515
  526SOL    HW1 1589   1.940   1.193   2.603
  526SOL    HW2 1590   2.023   1.212   2.464
  527SOL     OW 1591   2.290   0.424   2.382
  527SOL    HW1 1592   2.320   0.352   2.320
  527SOL    HW2 1593   2.251   0.384   2.465
  528SOL     OW 1594   2.674   1.586   2.549
  528SOL    HW1 1595   2.706   1.596   2.455
  528SOL    HW2 1596   2.595   1.524   2.551
  529SOL     OW 1597   1.901   1.077   2.162
  529SOL    HW1 1598   2.000   1.066   2.153
  529SOL    HW2 1599   1.861   0.991   2.194
  530SOL     OW 1600   2.092   2.490   0.113
  530SOL    HW1 1601   1.999   2.488   0.150
  530SOL    HW2 1602   2.093   2.451   0.021
  531SOL     OW 1603   2.087   2.137   0.996
  531SOL    HW1 1604   2.122   2.120   1.088
  531SOL    HW2 1605   1.999   2.092   0.984
  532SOL     OW 1606   1.881   2.230   0.647
  532SOL    HW1 1607   1.799   2.273   0.686
  532SOL    HW2 1608   1.853   2.157   0.584
  533SOL     OW 1609   2.712   2.660   1.823
  533SOL    HW1 1610   2.708   2.736   1.888
  533SOL    HW2 1611   2.734   2.696   1.732
  534SOL     OW 1612   2.300   2.254   1.499
  534SOL    HW1 1613   2.382   2.198   1.508
  534SOL    HW2 1614   2.219   2.196   1.503
  535SOL     OW 1615   1.984   2.505   0.563
  535SOL    HW1 1616   1.939   2.417   0.580
  535SOL    HW2 1617   1.983   2.559   0.647
  536SOL     OW 1618   1.975   2.599   1.597
  536SOL    HW1 1619   2.063   2.586   1.642
  536SOL    HW2 1620   1.962   2.696   1.575
  537SOL     OW 1621   2.671   1.866   0.502
  537SOL    HW1 1622   2.711   1.957   0.493
  537SOL    HW2 1623   2.571   1.874   0.508
  538SOL     OW 1624   2.179   2.113   1.801
  538SOL    HW1 1625   2.250   2.184   1.807
  538SOL    HW2 1626   2.091   2.152   1.829
  539SOL     OW 1627   2.460   2.591   0.270
  539SOL    HW1 1628   2.484   2.660   0.202
  539SOL    HW2 1629   2.382   2.624   0.324
  540SOL     OW 1630   2.412   2.058   0.885
  540SOL    HW1 1631   2.407   2.053   0.985
  540SOL    HW2 1632   2.414   2.154   0.856
  541SOL     OW 1633   2.064   2.147   1.498
  541SOL    HW1 1634   1.984   2.207   1.485
  541SOL    HW2 1635   2.054   2.098   1.584
  542SOL     OW 1636   2.244   2.562   0.480
  542SOL    HW1 1637   2.289   2.472   0.477
  542SOL    HW2 1638   2.150   2.551   0.513
  543SOL     OW 1639   2.476   1.984   0.117
  543SOL    HW1 1640   2.574   1.962   0.124
  543SOL    HW2 1641   2.445   1.967   0.024
  544SOL     OW 1642   2.401   1.926   0.512
  544SOL    HW1 1643   2.320   1.927   0.570
  544SOL    HW2 1644   2.404   2.009   0.457
  545SOL     OW 1645   2.938   2.545   1.464
  545SOL    HW1 1646   2.858   2.484   1.467
  545SOL    HW2 1647   3.019   2.492   1.440
  546SOL     OW 1648   1.940   2.418   1.386
  546SOL    HW1 1649   2.032   2.417   1.345
  546SOL    HW2 1650   1.934   2.492   1.453
  547SOL     OW 1651   2.423   2.084   1.147
  547SOL    HW1 1652   2.461   2.000   1.184
  547SOL    HW2 1653   2.335   2.103   1.191
  548SOL     OW 1654   2.389   2.118   0.328
  548SOL    HW1 1655   2.416   2.059   0.253
  548SOL    HW2 1656   2.389   2.213   0.297
  549SOL     OW 1657   2.428   2.399   0.865
  549SOL    HW1 1658   2.440   2.465   0.791
  549SOL    HW2 1659   2.474   2.433   0.948
  550SOL     OW 1660   2.366   1.912   1.740
  550SOL    HW1 1661   2.324   1.855   1.670
  550SOL    HW2 1662   2.300   1.981   1.772
  551SOL     OW 1663   2.169   2.075   1.231
  551SOL    HW1 1664   2.146   2.112   1.321
  551SOL    HW2 1665   2.139   1.980   1.225
  552SOL     OW 1666   2.169   1.925   0.618
  552SOL    HW1 1667   2.158   2.019   0.651
  552SOL    HW2 1668   2.164   1.862   0.695
  553SOL     OW 1669   2.181   2.672   0.949
  553SOL    HW1 1670   2.274   2.708   0.954
  553SOL    HW2 1671   2.175   2.587   1.001
  554SOL     OW 1672   2.201   2.371   1.006
  554SOL    HW1 1673   2.149   2.288   0.989
  554SOL    HW2 1674   2.278   2.376   0.942
  555SOL     OW 1675   1.902   2.406   1.114
  555SOL    HW1 1676   1.987   2.373   1.073
  555SOL    HW2 1677   1.915   2.421   1.212
  556SOL     OW 1678   2.051   2.382   1.722
  556SOL    HW1 1679   2.110   2.342   1.652
  556SOL    HW2 1680   1.993   2.453   1.681
  557SOL     OW 1681   2.677   2.434   0.325
  557SOL    HW1 1682   2.684   2.345   0.279
  557SOL    HW2 1683   2.583   2.468   0.317
  558SOL     OW 1684   2.335   2.362   0.191
  558SOL    HW1 1685   2.396   2.442   0.195
  558SOL    HW2 1686   2.240   2.393   0.198
  559SOL     OW 1687   2.125   2.188   0.720
  559SOL    HW1 1688   2.046   2.239   0.686
  559SOL    HW2 1689   2.116   2.173   0.818
  560SOL     OW 1690   2.534   2.065   1.489
  560SOL    HW1 1691   2.624   2.049   1.449
  560SOL    HW2 1692   2.542   2.070   1.588
  561SOL     OW 1693   1.937   2.207   0.033
  561SOL    HW1 1694   1.845   2.179   0.004
  561SOL    HW2 1695   1.968   2.284  -0.023
  562SOL     OW 1696   2.578   2.427   1.708
  562SOL    HW1 1697   2.597   2.492   1.782
  562SOL    HW2 1698   2.638   2.347   1.717
  563SOL     OW 1699   2.290   2.286   0.520
  563SOL    HW1 1700   2.320   2.214   0.458
  563SOL    HW2 1701   2.251   2.246   0.603
  564SOL     OW 1702   2.179   2.409   1.280
  564SOL    HW1 1703   2.217   2.350   1.352
  564SOL    HW2 1704   2.219   2.383   1.192
  565SOL     OW 1705   2.092   2.490   1.975
  565SOL    HW1 1706   1.999   2.488   2.012
  565SOL    HW2 1707   2.093   2.451   1.883
  566SOL     OW 1708   2.087   2.137   2.858
  566SOL    HW1 1709   2.122   2.120   2.950
  566SOL    HW2 1710   1.999   2.092   2.846
  567SOL     OW 1711   1.984   2.505   2.425
  567SOL    HW1 1712   1.939   2.417   2.442
  567SOL    HW2 1713   1.983   2.559   2.509
  568SOL     OW 1714   2.671   1.866   2.364
  568SOL    HW1 1715   2.711   1.957   2.355
  568SOL    HW2 1716   2.571   1.874   2.370
  569SOL     OW 1717   2.244   2.562   2.342
  569SOL    HW1 1718   2.289   2.472   2.339
  569SOL    HW2 1719   2.150   2.551   2.375
  570SOL     OW 1720   2.476   1.984   1.979
  570SOL    HW1 1721   2.574   1.962   1.986
  570SOL    HW2 1722   2.445   1.967   1.886
  571SOL     OW 1723   2.401   1.926   2.374
  571SOL    HW1 1724   2.320   1.927   2.432
  571SOL    HW2 1725   2.404   2.009   2.319
  572SOL     OW 1726   2.159   1.897   2.033
  572SOL    HW1 1727   2.208   1.981   2.012
  572SOL    HW2 1728   2.221   1.832   2.078
  573SOL     OW 1729   2.389   2.118   2.190
  573SOL    HW1 1730   2.416   2.059   2.115
  573SOL    HW2 1731   2.389   2.213   2.159
  574SOL     OW 1732   2.169   1.925   2.480
  574SOL    HW1 1733   2.158   2.019   2.513
  574SOL    HW2 1734   2.164   1.862   2.557
  575SOL     OW 1735   2.677   2.434   2.187
  575SOL    HW1 1736   2.684   2.345   2.141
  575SOL    HW2 1737   2.583   2.468   2.179
  576SOL     OW 1738   2.335   2.362   2.053
  576SOL    HW1 1739   2.396   2.442   2.057
  576SOL    HW2 1740   2.240   2.393   2.060
  577SOL     OW 1741   1.937   2.207   1.895
  577SOL    HW1 1742   1.845   2.179   1.866
  577SOL    HW2 1743   1.968   2.284   1.839
  578SOL     OW 1744   1.934   2.028   2.180
  578SOL    HW1 1745   1.917   2.111   2.126
  578SOL    HW2 1746   2.024   1.991   2.158
  579SOL     OW 1747   2.290   2.286   2.382
  579SOL    HW1 1748   2.320   2.214   2.320
  579SOL    HW2 1749   2.251   2.246   2.465
   2.62078   2.62078   2.62078
