mobley_2099370_GMX.gro created by acpype (v: 2023.10.27) on Thu May 14 13:38:02 2026
 2730
    1MOL     C1    1   1.775   1.151   1.326
    1MOL     C2    2   1.835   1.254   1.253
    1MOL     C3    3   1.659   1.176   1.400
    1MOL     C4    4   1.238   1.587   1.415
    1MOL     C5    5   1.778   1.382   1.253
    1MOL     C6    6   1.602   1.303   1.400
    1MOL     C7    7   1.354   1.556   1.344
    1MOL     C8    8   1.247   1.631   1.547
    1MOL     C9    9   1.488   1.616   1.536
    1MOL    C10   10   1.662   1.406   1.327
    1MOL    C11   11   1.479   1.571   1.404
    1MOL    C12   12   1.372   1.646   1.607
    1MOL    C13   13   1.602   1.539   1.327
    1MOL    C14   14   1.444   1.590   1.842
    1MOL    C15   15   1.458   1.827   1.763
    1MOL    C16   16   1.382   1.694   1.748
    1MOL     O1   17   1.655   1.631   1.262
    1MOL     O2   18   1.484   1.480   1.805
    1MOL     O3   19   1.450   1.631   1.971
    1MOL     H1   20   1.820   1.052   1.326
    1MOL     H2   21   1.925   1.235   1.195
    1MOL     H3   22   1.613   1.096   1.457
    1MOL     H4   23   1.140   1.575   1.368
    1MOL     H5   24   1.825   1.461   1.196
    1MOL     H6   25   1.512   1.321   1.457
    1MOL     H7   26   1.345   1.522   1.241
    1MOL     H8   27   1.156   1.655   1.602
    1MOL     H9   28   1.585   1.627   1.583
    1MOL    H10   29   1.561   1.819   1.727
    1MOL    H11   30   1.409   1.907   1.707
    1MOL    H12   31   1.464   1.859   1.868
    1MOL    H13   32   1.279   1.712   1.787
    1MOL    H14   33   1.489   1.566   2.034
    2SOL     OW   34   0.230   0.628   0.113
    2SOL    HW1   35   0.137   0.626   0.150
    2SOL    HW2   36   0.231   0.589   0.021
    3SOL     OW   37   0.225   0.275   0.996
    3SOL    HW1   38   0.260   0.258   1.088
    3SOL    HW2   39   0.137   0.230   0.984
    4SOL     OW   40   0.019   0.368   0.647
    4SOL    HW1   41  -0.063   0.411   0.686
    4SOL    HW2   42  -0.009   0.295   0.584
    5SOL     OW   43   0.569   1.275   1.165
    5SOL    HW1   44   0.476   1.268   1.128
    5SOL    HW2   45   0.580   1.364   1.209
    6SOL     OW   46   1.555   1.511   0.703
    6SOL    HW1   47   1.498   1.495   0.784
    6SOL    HW2   48   1.496   1.521   0.623
    7SOL     OW   49   1.135   0.703   0.717
    7SOL    HW1   50   1.192   0.781   0.692
    7SOL    HW2   51   1.075   0.729   0.793
    8SOL     OW   52   1.755   0.607   0.231
    8SOL    HW1   53   1.743   0.594   0.132
    8SOL    HW2   54   1.725   0.526   0.280
    9SOL     OW   55   0.768   1.144   1.023
    9SOL    HW1   56   0.690   1.161   1.083
    9SOL    HW2   57   0.802   1.231   0.987
   10SOL     OW   58   0.850   0.798   1.823
   10SOL    HW1   59   0.846   0.874   1.888
   10SOL    HW2   60   0.872   0.834   1.732
   11SOL     OW   61   0.685   1.012   0.665
   11SOL    HW1   62   0.754   0.996   0.735
   11SOL    HW2   63   0.612   1.069   0.703
   12SOL     OW   64   0.686   1.161   1.803
   12SOL    HW1   65   0.746   1.240   1.817
   12SOL    HW2   66   0.600   1.192   1.762
   13SOL     OW   67   0.335   1.435   1.061
   13SOL    HW1   68   0.257   1.404   1.008
   13SOL    HW2   69   0.393   1.493   1.004
   14SOL     OW   70   0.438   0.392   1.499
   14SOL    HW1   71   0.520   0.336   1.508
   14SOL    HW2   72   0.357   0.334   1.503
   15SOL     OW   73   1.603   0.447   0.737
   15SOL    HW1   74   1.529   0.493   0.687
   15SOL    HW2   75   1.654   0.515   0.790
   16SOL     OW   76   0.231   1.713   0.483
   16SOL    HW1   77   0.265   1.790   0.537
   16SOL    HW2   78   0.275   1.713   0.393
   17SOL     OW   79   1.127   1.341   1.690
   17SOL    HW1   80   1.174   1.341   1.778
   17SOL    HW2   81   1.079   1.254   1.679
   18SOL     OW   82   0.230   1.434   0.538
   18SOL    HW1   83   0.204   1.530   0.538
   18SOL    HW2   84   0.159   1.380   0.583
   19SOL     OW   85   0.240   1.091   0.886
   19SOL    HW1   86   0.254   1.007   0.938
   19SOL    HW2   87   0.185   1.155   0.941
   20SOL     OW   88   0.620   1.786   1.439
   20SOL    HW1   89   0.528   1.769   1.474
   20SOL    HW2   90   0.648   1.878   1.465
   21SOL     OW   91   0.606   0.964   0.123
   21SOL    HW1   92   0.613   1.048   0.069
   21SOL    HW2   93   0.652   0.977   0.211
   22SOL     OW   94   1.594   0.114   1.480
   22SOL    HW1   95   1.576   0.181   1.408
   22SOL    HW2   96   1.591   0.160   1.569
   23SOL     OW   97   0.122   0.643   0.563
   23SOL    HW1   98   0.077   0.555   0.580
   23SOL    HW2   99   0.121   0.697   0.647
   24SOL     OW  100   1.842   1.767   0.359
   24SOL    HW1  101   1.896   1.738   0.439
   24SOL    HW2  102   1.872   1.857   0.330
   25SOL     OW  103   0.027   1.596   0.117
   25SOL    HW1  104   0.008   1.500   0.138
   25SOL    HW2  105  -0.006   1.654   0.192
   26SOL     OW  106   1.689   0.922   0.612
   26SOL    HW1  107   1.784   0.893   0.620
   26SOL    HW2  108   1.681   0.987   0.537
   27SOL     OW  109   1.641   1.108   0.432
   27SOL    HW1  110   1.727   1.110   0.380
   27SOL    HW2  111   1.655   1.155   0.520
   28SOL     OW  112   0.113   0.737   1.597
   28SOL    HW1  113   0.201   0.724   1.642
   28SOL    HW2  114   0.100   0.834   1.575
   29SOL     OW  115   0.613   1.365   0.726
   29SOL    HW1  116   0.564   1.278   0.735
   29SOL    HW2  117   0.590   1.408   0.639
   30SOL     OW  118   1.293   1.228   1.423
   30SOL    HW1  119   1.330   1.155   1.365
   30SOL    HW2  120   1.345   1.233   1.508
   31SOL     OW  121   0.809   0.004   0.502
   31SOL    HW1  122   0.849   0.095   0.493
   31SOL    HW2  123   0.709   0.012   0.508
   32SOL     OW  124   0.197   0.976   1.264
   32SOL    HW1  125   0.286   0.931   1.250
   32SOL    HW2  126   0.124   0.911   1.245
   33SOL     OW  127   1.525   0.999   0.190
   33SOL    HW1  128   1.462   0.923   0.203
   33SOL    HW2  129   1.573   1.017   0.276
   34SOL     OW  130   0.317   0.251   1.801
   34SOL    HW1  131   0.388   0.322   1.807
   34SOL    HW2  132   0.229   0.290   1.829
   35SOL     OW  133   1.466   1.417   0.953
   35SOL    HW1  134   1.407   1.423   1.033
   35SOL    HW2  135   1.451   1.329   0.907
   36SOL     OW  136   1.667   1.714   0.572
   36SOL    HW1  137   1.626   1.691   0.484
   36SOL    HW2  138   1.649   1.640   0.637
   37SOL     OW  139   0.598   0.729   0.270
   37SOL    HW1  140   0.622   0.798   0.202
   37SOL    HW2  141   0.520   0.762   0.324
   38SOL     OW  142   1.281   0.345   0.944
   38SOL    HW1  143   1.195   0.295   0.931
   38SOL    HW2  144   1.343   0.291   1.000
   39SOL     OW  145   1.576   1.662   0.307
   39SOL    HW1  146   1.665   1.708   0.310
   39SOL    HW2  147   1.555   1.638   0.212
   40SOL     OW  148   0.807   0.605   1.465
   40SOL    HW1  149   0.760   0.602   1.554
   40SOL    HW2  150   0.756   0.550   1.399
   41SOL     OW  151   1.394   0.469   1.674
   41SOL    HW1  152   1.374   0.512   1.762
   41SOL    HW2  153   1.472   0.407   1.683
   42SOL     OW  154   0.973   0.890   1.572
   42SOL    HW1  155   1.019   0.806   1.543
   42SOL    HW2  156   0.917   0.924   1.497
   43SOL     OW  157   0.991   0.410   1.242
   43SOL    HW1  158   0.914   0.444   1.296
   43SOL    HW2  159   0.957   0.359   1.163
   44SOL     OW  160   1.041   0.701   0.429
   44SOL    HW1  161   1.067   0.697   0.525
   44SOL    HW2  162   0.956   0.650   0.415
   45SOL     OW  163   0.076   0.811   0.789
   45SOL    HW1  164   0.175   0.799   0.798
   45SOL    HW2  165   0.052   0.906   0.810
   46SOL     OW  166   0.130   1.821   1.571
   46SOL    HW1  167   0.120   1.806   1.670
   46SOL    HW2  168   0.044   1.857   1.535
   47SOL     OW  169   0.865   0.348   0.195
   47SOL    HW1  170   0.924   0.411   0.146
   47SOL    HW2  171   0.884   0.254   0.166
   48SOL     OW  172   1.719   0.585   1.831
   48SOL    HW1  173   1.693   0.674   1.795
   48SOL    HW2  174   1.717   0.517   1.758
   49SOL     OW  175   1.362   1.144   0.545
   49SOL    HW1  176   1.445   1.115   0.497
   49SOL    HW2  177   1.313   1.211   0.489
   50SOL     OW  178   0.550   0.196   0.885
   50SOL    HW1  179   0.545   0.191   0.985
   50SOL    HW2  180   0.552   0.292   0.856
   51SOL     OW  181   1.008   1.456   0.477
   51SOL    HW1  182   0.962   1.528   0.425
   51SOL    HW2  183   1.004   1.476   0.575
   52SOL     OW  184   0.351   1.801   0.853
   52SOL    HW1  185   0.401   1.715   0.859
   52SOL    HW2  186   0.416   1.878   0.850
   53SOL     OW  187   1.795   1.066   0.873
   53SOL    HW1  188   1.733   1.051   0.797
   53SOL    HW2  189   1.743   1.077   0.958
   54SOL     OW  190   0.321   0.943   0.242
   54SOL    HW1  191   0.403   0.982   0.200
   54SOL    HW2  192   0.294   0.861   0.193
   55SOL     OW  193   1.458   0.735   0.728
   55SOL    HW1  194   1.453   0.670   0.803
   55SOL    HW2  195   1.538   0.794   0.741
   56SOL     OW  196   0.461   1.266   1.727
   56SOL    HW1  197   0.411   1.267   1.641
   56SOL    HW2  198   0.398   1.248   1.803
   57SOL     OW  199   1.111   1.776   0.237
   57SOL    HW1  200   1.051   1.714   0.287
   57SOL    HW2  201   1.142   1.732   0.152
   58SOL     OW  202   0.202   0.285   1.498
   58SOL    HW1  203   0.122   0.345   1.485
   58SOL    HW2  204   0.192   0.236   1.584
   59SOL     OW  205   1.632   1.377   0.081
   59SOL    HW1  206   1.600   1.471   0.071
   59SOL    HW2  207   1.556   1.314   0.069
   60SOL     OW  208   0.464   1.743   0.323
   60SOL    HW1  209   0.497   1.782   0.409
   60SOL    HW2  210   0.540   1.736   0.258
   61SOL     OW  211   1.400   0.107   0.426
   61SOL    HW1  212   1.376   0.070   0.336
   61SOL    HW2  213   1.499   0.123   0.430
   62SOL     OW  214   0.249   1.785   1.241
   62SOL    HW1  215   0.306   1.720   1.291
   62SOL    HW2  216   0.233   1.752   1.148
   63SOL     OW  217   0.940   1.698   0.904
   63SOL    HW1  218   1.020   1.641   0.925
   63SOL    HW2  219   0.891   1.658   0.827
   64SOL     OW  220   0.382   0.700   0.480
   64SOL    HW1  221   0.427   0.610   0.477
   64SOL    HW2  222   0.288   0.689   0.513
   65SOL     OW  223   1.547   0.222   1.729
   65SOL    HW1  224   1.542   0.259   1.821
   65SOL    HW2  225   1.475   0.153   1.717
   66SOL     OW  226   0.614   0.122   0.117
   66SOL    HW1  227   0.712   0.100   0.124
   66SOL    HW2  228   0.583   0.105   0.024
   67SOL     OW  229   0.781   0.264   1.749
   67SOL    HW1  230   0.848   0.203   1.792
   67SOL    HW2  231   0.708   0.283   1.814
   68SOL     OW  232   0.888   1.514   1.195
   68SOL    HW1  233   0.865   1.489   1.101
   68SOL    HW2  234   0.949   1.445   1.234
   69SOL     OW  235   1.351   0.590   1.433
   69SOL    HW1  236   1.379   0.547   1.518
   69SOL    HW2  237   1.376   0.686   1.434
   70SOL     OW  238   0.803   1.402   0.924
   70SOL    HW1  239   0.893   1.416   0.882
   70SOL    HW2  240   0.732   1.404   0.853
   71SOL     OW  241   0.922   0.503   0.899
   71SOL    HW1  242   0.897   0.494   0.803
   71SOL    HW2  243   0.970   0.421   0.930
   72SOL     OW  244   0.539   0.064   0.512
   72SOL    HW1  245   0.458   0.065   0.570
   72SOL    HW2  246   0.542   0.147   0.457
   73SOL     OW  247   1.434   1.188   0.041
   73SOL    HW1  248   1.466   1.112   0.098
   73SOL    HW2  249   1.342   1.215   0.071
   74SOL     OW  250   0.297   0.035   0.171
   74SOL    HW1  251   0.346   0.119   0.150
   74SOL    HW2  252   0.359  -0.030   0.216
   75SOL     OW  253   0.935   0.236   0.480
   75SOL    HW1  254   0.887   0.277   0.402
   75SOL    HW2  255   1.034   0.234   0.461
   76SOL     OW  256   1.076   0.683   1.464
   76SOL    HW1  257   0.996   0.622   1.467
   76SOL    HW2  258   1.157   0.630   1.440
   77SOL     OW  259   1.227   1.570   0.793
   77SOL    HW1  260   1.248   1.644   0.728
   77SOL    HW2  261   1.295   1.570   0.866
   78SOL     OW  262   0.459   1.152   0.741
   78SOL    HW1  263   0.388   1.125   0.806
   78SOL    HW2  264   0.433   1.124   0.648
   79SOL     OW  265   1.271   1.797   0.591
   79SOL    HW1  266   1.315   1.861   0.527
   79SOL    HW2  267   1.221   1.849   0.661
   80SOL     OW  268   1.032   0.549   0.016
   80SOL    HW1  269   0.991   0.631  -0.023
   80SOL    HW2  270   1.096   0.575   0.089
   81SOL     OW  271   0.078   0.556   1.386
   81SOL    HW1  272   0.170   0.555   1.345
   81SOL    HW2  273   0.072   0.630   1.453
   82SOL     OW  274   0.561   0.222   1.147
   82SOL    HW1  275   0.599   0.138   1.184
   82SOL    HW2  276   0.473   0.241   1.191
   83SOL     OW  277   0.866   0.454   0.642
   83SOL    HW1  278   0.834   0.526   0.580
   83SOL    HW2  279   0.890   0.373   0.589
   84SOL     OW  280   1.017   0.039   0.753
   84SOL    HW1  281   0.945   0.044   0.684
   84SOL    HW2  282   0.993  -0.030   0.822
   85SOL     OW  283   1.429   1.173   0.867
   85SOL    HW1  284   1.374   1.089   0.860
   85SOL    HW2  285   1.455   1.202   0.775
   86SOL     OW  286   1.466   0.590   0.992
   86SOL    HW1  287   1.436   0.495   0.999
   86SOL    HW2  288   1.539   0.606   1.058
   87SOL     OW  289   1.857   0.833   0.377
   87SOL    HW1  290   1.899   0.769   0.441
   87SOL    HW2  291   1.819   0.782   0.299
   88SOL     OW  292   0.488   1.385   0.174
   88SOL    HW1  293   0.401   1.370   0.221
   88SOL    HW2  294   0.471   1.411   0.079
   89SOL     OW  295   1.664   1.280   0.657
   89SOL    HW1  296   1.763   1.288   0.671
   89SOL    HW2  297   1.619   1.364   0.688
   90SOL     OW  298   1.390   0.575   0.078
   90SOL    HW1  299   1.336   0.554   0.159
   90SOL    HW2  300   1.481   0.534   0.087
   91SOL     OW  301   0.527   0.256   0.328
   91SOL    HW1  302   0.554   0.197   0.253
   91SOL    HW2  303   0.527   0.351   0.297
   92SOL     OW  304   1.754   1.223   1.588
   92SOL    HW1  305   1.845   1.184   1.575
   92SOL    HW2  306   1.762   1.319   1.612
   93SOL     OW  307   1.064   1.347   1.340
   93SOL    HW1  308   0.984   1.324   1.395
   93SOL    HW2  309   1.147   1.321   1.389
   94SOL     OW  310   1.111   1.195   1.100
   94SOL    HW1  311   1.071   1.239   1.181
   94SOL    HW2  312   1.070   1.232   1.017
   95SOL     OW  313   1.638   1.099   1.079
   95SOL    HW1  314   1.643   1.180   1.138
   95SOL    HW2  315   1.552   1.101   1.028
   96SOL     OW  316   0.915   0.089   1.402
   96SOL    HW1  317   0.940   0.069   1.307
   96SOL    HW2  318   0.987   0.145   1.444
   97SOL     OW  319   0.980   1.116   1.719
   97SOL    HW1  320   0.881   1.122   1.729
   97SOL    HW2  321   1.003   1.036   1.663
   98SOL     OW  322   0.705   1.050   0.368
   98SOL    HW1  323   0.691   1.057   0.467
   98SOL    HW2  324   0.789   0.999   0.350
   99SOL     OW  325   0.410   0.813   1.251
   99SOL    HW1  326   0.496   0.825   1.301
   99SOL    HW2  327   0.368   0.726   1.278
  100SOL     OW  328   1.274   0.386   1.262
  100SOL    HW1  329   1.295   0.460   1.326
  100SOL    HW2  330   1.185   0.403   1.219
  101SOL     OW  331   0.064   1.564   1.331
  101SOL    HW1  332   0.018   1.646   1.297
  101SOL    HW2  333   0.162   1.583   1.340
  102SOL     OW  334   0.367   1.100   0.501
  102SOL    HW1  335   0.360   1.183   0.445
  102SOL    HW2  336   0.371   1.020   0.441
  103SOL     OW  337   0.566   0.537   0.865
  103SOL    HW1  338   0.578   0.603   0.791
  103SOL    HW2  339   0.612   0.571   0.948
  104SOL     OW  340   1.252   1.348   0.388
  104SOL    HW1  341   1.302   1.425   0.428
  104SOL    HW2  342   1.157   1.350   0.420
  105SOL     OW  343   1.582   0.639   0.472
  105SOL    HW1  344   1.551   0.700   0.545
  105SOL    HW2  345   1.632   0.691   0.403
  106SOL     OW  346   0.354   1.510   1.329
  106SOL    HW1  347   0.333   1.466   1.242
  106SOL    HW2  348   0.451   1.536   1.332
  107SOL     OW  349   0.402   0.751   1.598
  107SOL    HW1  350   0.470   0.806   1.551
  107SOL    HW2  351   0.442   0.663   1.625
  108SOL     OW  352   1.587   0.779   1.670
  108SOL    HW1  353   1.495   0.817   1.665
  108SOL    HW2  354   1.647   0.826   1.605
  109SOL     OW  355   1.013   0.105   1.770
  109SOL    HW1  356   1.019   0.190   1.718
  109SOL    HW2  357   1.045   0.029   1.713
  110SOL     OW  358   0.504   0.050   1.740
  110SOL    HW1  359   0.462  -0.007   1.670
  110SOL    HW2  360   0.438   0.119   1.772
  111SOL     OW  361   0.573   0.870   1.029
  111SOL    HW1  362   0.617   0.959   1.020
  111SOL    HW2  363   0.510   0.870   1.106
  112SOL     OW  364   1.360   0.862   1.045
  112SOL    HW1  365   1.285   0.862   0.979
  112SOL    HW2  366   1.397   0.770   1.054
  113SOL     OW  367   1.209   0.525   0.275
  113SOL    HW1  368   1.222   0.441   0.329
  113SOL    HW2  369   1.180   0.599   0.335
  114SOL     OW  370   0.307   0.213   1.231
  114SOL    HW1  371   0.284   0.250   1.321
  114SOL    HW2  372   0.277   0.118   1.225
  115SOL     OW  373   0.037   1.310   1.282
  115SOL    HW1  374   0.090   1.261   1.350
  115SOL    HW2  375   0.059   1.408   1.287
  116SOL     OW  376   0.732   0.634   1.064
  116SOL    HW1  377   0.791   0.608   0.988
  116SOL    HW2  378   0.704   0.730   1.053
  117SOL     OW  379   1.728   0.935   1.854
  117SOL    HW1  380   1.682   0.928   1.765
  117SOL    HW2  381   1.666   0.979   1.920
  118SOL     OW  382   0.307   0.063   0.618
  118SOL    HW1  383   0.296   0.157   0.651
  118SOL    HW2  384   0.302   0.000   0.695
  119SOL     OW  385   1.622   0.367   0.374
  119SOL    HW1  386   1.624   0.291   0.438
  119SOL    HW2  387   1.574   0.444   0.414
  120SOL     OW  388   1.023   0.766   0.966
  120SOL    HW1  389   1.038   0.787   1.062
  120SOL    HW2  390   0.993   0.671   0.957
  121SOL     OW  391   0.980   1.573   1.700
  121SOL    HW1  392   0.960   1.617   1.612
  121SOL    HW2  393   1.019   1.482   1.684
  122SOL     OW  394   1.859   1.518   1.605
  122SOL    HW1  395   1.873   1.545   1.510
  122SOL    HW2  396   1.942   1.540   1.658
  123SOL     OW  397   0.350   0.898   1.804
  123SOL    HW1  398   0.426   0.942   1.852
  123SOL    HW2  399   0.385   0.851   1.722
  124SOL     OW  400   1.540   0.274   0.125
  124SOL    HW1  401   1.479   0.199   0.148
  124SOL    HW2  402   1.562   0.326   0.208
  125SOL     OW  403   1.303   0.838   0.042
  125SOL    HW1  404   1.337   0.745   0.057
  125SOL    HW2  405   1.321   0.865  -0.053
  126SOL     OW  406   1.068   1.333   0.849
  126SOL    HW1  407   1.075   1.249   0.794
  126SOL    HW2  408   1.130   1.402   0.813
  127SOL     OW  409   0.319   0.810   0.949
  127SOL    HW1  410   0.412   0.846   0.954
  127SOL    HW2  411   0.313   0.725   1.001
  128SOL     OW  412   0.339   0.509   1.006
  128SOL    HW1  413   0.287   0.426   0.989
  128SOL    HW2  414   0.416   0.514   0.942
  129SOL     OW  415   1.138   0.380   1.678
  129SOL    HW1  416   1.093   0.443   1.742
  129SOL    HW2  417   1.231   0.411   1.661
  130SOL     OW  418   1.160   0.207   1.477
  130SOL    HW1  419   1.160   0.271   1.554
  130SOL    HW2  420   1.188   0.255   1.394
  131SOL     OW  421   0.008   1.326   0.200
  131SOL    HW1  422  -0.085   1.347   0.169
  131SOL    HW2  423   0.018   1.227   0.213
  132SOL     OW  424   0.088   1.801   0.927
  132SOL    HW1  425   0.046   1.715   0.900
  132SOL    HW2  426   0.182   1.804   0.893
  133SOL     OW  427   0.504   1.568   0.910
  133SOL    HW1  428   0.570   1.642   0.919
  133SOL    HW2  429   0.548   1.489   0.868
  134SOL     OW  430   1.002   0.796   1.238
  134SOL    HW1  431   1.043   0.764   1.324
  134SOL    HW2  432   0.906   0.769   1.235
  135SOL     OW  433   0.040   0.544   1.114
  135SOL    HW1  434   0.125   0.511   1.073
  135SOL    HW2  435   0.053   0.559   1.212
  136SOL     OW  436   0.189   0.520   1.722
  136SOL    HW1  437   0.248   0.480   1.652
  136SOL    HW2  438   0.131   0.591   1.681
  137SOL     OW  439   1.369   0.950   1.660
  137SOL    HW1  440   1.408   1.039   1.680
  137SOL    HW2  441   1.379   0.930   1.563
  138SOL     OW  442   0.815   0.572   0.325
  138SOL    HW1  443   0.822   0.483   0.279
  138SOL    HW2  444   0.721   0.606   0.317
  139SOL     OW  445   1.657   0.604   1.206
  139SOL    HW1  446   1.619   0.535   1.268
  139SOL    HW2  447   1.739   0.568   1.162
  140SOL     OW  448   0.252   1.564   1.744
  140SOL    HW1  449   0.222   1.621   1.820
  140SOL    HW2  450   0.245   1.467   1.770
  141SOL     OW  451   0.671   0.464   1.269
  141SOL    HW1  452   0.637   0.375   1.239
  141SOL    HW2  453   0.697   0.518   1.189
  142SOL     OW  454   0.930   1.678   1.465
  142SOL    HW1  455   0.906   1.660   1.370
  142SOL    HW2  456   0.960   1.772   1.475
  143SOL     OW  457   0.473   0.500   0.191
  143SOL    HW1  458   0.534   0.580   0.195
  143SOL    HW2  459   0.378   0.531   0.198
  144SOL     OW  460   0.159   1.137   1.466
  144SOL    HW1  461   0.181   1.076   1.542
  144SOL    HW2  462   0.169   1.088   1.380
  145SOL     OW  463   1.347   1.059   1.234
  145SOL    HW1  464   1.371   0.996   1.160
  145SOL    HW2  465   1.257   1.099   1.216
  146SOL     OW  466   1.302   0.855   0.309
  146SOL    HW1  467   1.216   0.824   0.351
  146SOL    HW2  468   1.298   0.841   0.210
  147SOL     OW  469   1.252   1.731   1.128
  147SOL    HW1  470   1.336   1.736   1.074
  147SOL    HW2  471   1.229   1.635   1.146
  148SOL     OW  472   0.083   1.258   1.022
  148SOL    HW1  473   0.078   1.257   1.122
  148SOL    HW2  474   0.000   1.217   0.984
  149SOL     OW  475   0.688   1.662   1.716
  149SOL    HW1  476   0.632   1.743   1.725
  149SOL    HW2  477   0.740   1.666   1.630
  150SOL     OW  478   0.903   0.086   0.133
  150SOL    HW1  479   0.954   0.087   0.047
  150SOL    HW2  480   0.959   0.044   0.204
  151SOL     OW  481   1.726   0.135   0.523
  151SOL    HW1  482   1.799   0.118   0.456
  151SOL    HW2  483   1.695   0.048   0.561
  152SOL     OW  484   1.388   1.573   0.477
  152SOL    HW1  485   1.455   1.585   0.403
  152SOL    HW2  486   1.348   1.662   0.500
  153SOL     OW  487   0.130   1.794   1.851
  153SOL    HW1  488   0.089   1.720   1.904
  153SOL    HW2  489   0.194   1.845   1.909
  154SOL     OW  490   1.280   0.927   0.672
  154SOL    HW1  491   1.340   0.846   0.674
  154SOL    HW2  492   1.320   0.996   0.612
  155SOL     OW  493   0.830   1.273   1.422
  155SOL    HW1  494   0.825   1.306   1.517
  155SOL    HW2  495   0.744   1.292   1.376
  156SOL     OW  496   0.672   1.616   0.154
  156SOL    HW1  497   0.681   1.626   0.055
  156SOL    HW2  498   0.632   1.527   0.175
  157SOL     OW  499   1.841   0.175   0.963
  157SOL    HW1  500   1.880   0.090   0.927
  157SOL    HW2  501   1.743   0.177   0.944
  158SOL     OW  502   0.263   0.326   0.720
  158SOL    HW1  503   0.184   0.377   0.686
  158SOL    HW2  504   0.254   0.311   0.818
  159SOL     OW  505   1.194   1.612   0.031
  159SOL    HW1  506   1.200   1.519   0.068
  159SOL    HW2  507   1.135   1.612  -0.049
  160SOL     OW  508   0.822   1.002   1.372
  160SOL    HW1  509   0.862   1.001   1.280
  160SOL    HW2  510   0.832   1.094   1.412
  161SOL     OW  511   0.916   0.910   0.291
  161SOL    HW1  512   0.979   0.948   0.223
  161SOL    HW2  513   0.956   0.827   0.330
  162SOL     OW  514   1.504   1.607   0.044
  162SOL    HW1  515   1.412   1.644   0.051
  162SOL    HW2  516   1.542   1.627  -0.046
  163SOL     OW  517   0.372   1.288   1.490
  163SOL    HW1  518   0.359   1.381   1.456
  163SOL    HW2  519   0.288   1.236   1.477
  164SOL     OW  520   1.039   1.098   0.696
  164SOL    HW1  521   0.969   1.051   0.750
  164SOL    HW2  522   1.098   1.030   0.653
  165SOL     OW  523   1.014   0.236   0.971
  165SOL    HW1  524   1.006   0.200   0.878
  165SOL    HW2  525   1.012   0.160   1.036
  166SOL     OW  526   0.590   1.487   0.491
  166SOL    HW1  527   0.632   1.429   0.421
  166SOL    HW2  528   0.546   1.566   0.447
  167SOL     OW  529   1.709   0.385   1.381
  167SOL    HW1  530   1.782   0.454   1.385
  167SOL    HW2  531   1.737   0.310   1.322
  168SOL     OW  532   0.255   1.348   0.290
  168SOL    HW1  533   0.159   1.349   0.263
  168SOL    HW2  534   0.267   1.401   0.374
  169SOL     OW  535   0.105   1.013   1.726
  169SOL    HW1  536   0.028   0.980   1.780
  169SOL    HW2  537   0.190   0.983   1.768
  170SOL     OW  538   0.672   0.203   1.489
  170SOL    HW1  539   0.762   0.187   1.449
  170SOL    HW2  540   0.680   0.208   1.588
  171SOL     OW  541   0.075   0.345   0.033
  171SOL    HW1  542  -0.017   0.317   0.004
  171SOL    HW2  543   0.106   0.422  -0.023
  172SOL     OW  544   1.440   0.856   1.398
  172SOL    HW1  545   1.383   0.908   1.335
  172SOL    HW2  546   1.536   0.868   1.374
  173SOL     OW  547   0.072   0.166   0.318
  173SOL    HW1  548   0.055   0.249   0.264
  173SOL    HW2  549   0.162   0.129   0.296
  174SOL     OW  550   1.183   1.335   0.119
  174SOL    HW1  551   1.084   1.324   0.121
  174SOL    HW2  552   1.217   1.350   0.212
  175SOL     OW  553   0.613   0.842   1.431
  175SOL    HW1  554   0.669   0.923   1.414
  175SOL    HW2  555   0.672   0.762   1.434
  176SOL     OW  556   1.493   1.767   0.959
  176SOL    HW1  557   1.526   1.831   0.890
  176SOL    HW2  558   1.559   1.761   1.034
  177SOL     OW  559   0.716   0.565   1.708
  177SOL    HW1  560   0.735   0.630   1.782
  177SOL    HW2  561   0.776   0.485   1.717
  178SOL     OW  562   1.450   1.220   1.633
  178SOL    HW1  563   1.441   1.210   1.732
  178SOL    HW2  564   1.546   1.213   1.607
  179SOL     OW  565   0.390   1.741   1.560
  179SOL    HW1  566   0.299   1.782   1.558
  179SOL    HW2  567   0.383   1.647   1.592
  180SOL     OW  568   1.674   0.883   1.254
  180SOL    HW1  569   1.647   0.794   1.217
  180SOL    HW2  570   1.675   0.951   1.181
  181SOL     OW  571   1.225   0.325   0.449
  181SOL    HW1  572   1.290   0.251   0.438
  181SOL    HW2  573   1.245   0.375   0.533
  182SOL     OW  574   0.594   0.745   0.652
  182SOL    HW1  575   0.644   0.830   0.633
  182SOL    HW2  576   0.506   0.747   0.604
  183SOL     OW  577   1.777   0.342   1.642
  183SOL    HW1  578   1.760   0.373   1.548
  183SOL    HW2  579   1.693   0.305   1.680
  184SOL     OW  580   1.730   0.934   1.517
  184SOL    HW1  581   1.768   1.025   1.532
  184SOL    HW2  582   1.722   0.917   1.418
  185SOL     OW  583   0.859   1.374   0.016
  185SOL    HW1  584   0.813   1.389   0.104
  185SOL    HW2  585   0.903   1.459  -0.014
  186SOL     OW  586   0.661   1.790   0.953
  186SOL    HW1  587   0.615   1.878   0.940
  186SOL    HW2  588   0.760   1.802   0.946
  187SOL     OW  589   0.859   0.956   0.861
  187SOL    HW1  590   0.913   0.887   0.909
  187SOL    HW2  591   0.827   1.025   0.927
  188SOL     OW  592   1.083   0.984   0.087
  188SOL    HW1  593   1.060   1.037   0.005
  188SOL    HW2  594   1.164   0.928   0.068
  189SOL     OW  595   1.861   1.569   0.851
  189SOL    HW1  596   1.790   1.557   0.781
  189SOL    HW2  597   1.862   1.490   0.911
  190SOL     OW  598   0.221   1.314   1.844
  190SOL    HW1  599   0.156   1.241   1.823
  190SOL    HW2  600   0.225   1.328   1.942
  191SOL     OW  601   0.079   1.240   0.653
  191SOL    HW1  602   0.078   1.193   0.741
  191SOL    HW2  603   0.161   1.212   0.602
  192SOL     OW  604   0.672   1.391   1.624
  192SOL    HW1  605   0.594   1.341   1.662
  192SOL    HW2  606   0.669   1.486   1.655
  193SOL     OW  607   1.824   0.192   1.227
  193SOL    HW1  608   1.820   0.102   1.271
  193SOL    HW2  609   1.827   0.181   1.128
  194SOL     OW  610   0.428   0.424   0.520
  194SOL    HW1  611   0.458   0.352   0.458
  194SOL    HW2  612   0.389   0.384   0.603
  195SOL     OW  613   0.317   0.547   1.280
  195SOL    HW1  614   0.355   0.488   1.352
  195SOL    HW2  615   0.357   0.521   1.192
  196SOL     OW  616   0.812   1.586   0.687
  196SOL    HW1  617   0.844   1.596   0.593
  196SOL    HW2  618   0.733   1.524   0.689
  197SOL     OW  619   1.424   0.214   1.112
  197SOL    HW1  620   1.476   0.149   1.167
  197SOL    HW2  621   1.375   0.277   1.173
  198SOL     OW  622   1.001   0.034   1.154
  198SOL    HW1  623   0.938  -0.038   1.123
  198SOL    HW2  624   1.094  -0.002   1.154
  199SOL     OW  625   0.770   1.330   0.301
  199SOL    HW1  626   0.724   1.243   0.318
  199SOL    HW2  627   0.861   1.327   0.342
  200SOL     OW  628   0.618   1.567   1.284
  200SOL    HW1  629   0.613   1.649   1.341
  200SOL    HW2  630   0.707   1.564   1.239
  201SOL     OW  631   1.352   0.052   0.168
  201SOL    HW1  632   1.387   0.011   0.084
  201SOL    HW2  633   1.262   0.014   0.188
  202SOL     OW  634   1.300   0.453   0.691
  202SOL    HW1  635   1.241   0.533   0.695
  202SOL    HW2  636   1.315   0.418   0.784
  203SOL     OW  637   1.593   0.221   0.882
  203SOL    HW1  638   1.509   0.220   0.936
  203SOL    HW2  639   1.595   0.304   0.826
  204SOL     OW  640   0.039   1.077   0.300
  204SOL    HW1  641   0.138   1.066   0.291
  204SOL    HW2  642  -0.001   0.991   0.332
  205SOL     OW  643   0.875   1.646   0.337
  205SOL    HW1  644   0.798   1.611   0.283
  205SOL    HW2  645   0.843   1.717   0.399
  206SOL     OW  646   0.230   0.628   1.975
  206SOL    HW1  647   0.137   0.626   2.012
  206SOL    HW2  648   0.231   0.589   1.883
  207SOL     OW  649   0.225   0.275   2.858
  207SOL    HW1  650   0.260   0.258   2.950
  207SOL    HW2  651   0.137   0.230   2.846
  208SOL     OW  652   0.019   0.368   2.509
  208SOL    HW1  653  -0.063   0.411   2.548
  208SOL    HW2  654  -0.009   0.295   2.446
  209SOL     OW  655   1.555   1.511   2.565
  209SOL    HW1  656   1.498   1.495   2.646
  209SOL    HW2  657   1.496   1.521   2.485
  210SOL     OW  658   1.135   0.703   2.579
  210SOL    HW1  659   1.192   0.781   2.554
  210SOL    HW2  660   1.075   0.729   2.655
  211SOL     OW  661   1.755   0.607   2.093
  211SOL    HW1  662   1.743   0.594   1.994
  211SOL    HW2  663   1.725   0.526   2.142
  212SOL     OW  664   0.768   1.144   2.885
  212SOL    HW1  665   0.690   1.161   2.945
  212SOL    HW2  666   0.802   1.231   2.849
  213SOL     OW  667   0.685   1.012   2.527
  213SOL    HW1  668   0.754   0.996   2.597
  213SOL    HW2  669   0.612   1.069   2.565
  214SOL     OW  670   0.335   1.435   2.923
  214SOL    HW1  671   0.257   1.404   2.870
  214SOL    HW2  672   0.393   1.493   2.866
  215SOL     OW  673   1.603   0.447   2.599
  215SOL    HW1  674   1.529   0.493   2.549
  215SOL    HW2  675   1.654   0.515   2.652
  216SOL     OW  676   0.231   1.713   2.345
  216SOL    HW1  677   0.265   1.790   2.399
  216SOL    HW2  678   0.275   1.713   2.255
  217SOL     OW  679   0.230   1.434   2.400
  217SOL    HW1  680   0.204   1.530   2.400
  217SOL    HW2  681   0.159   1.380   2.445
  218SOL     OW  682   0.240   1.091   2.748
  218SOL    HW1  683   0.254   1.007   2.800
  218SOL    HW2  684   0.185   1.155   2.803
  219SOL     OW  685   0.606   0.964   1.985
  219SOL    HW1  686   0.613   1.048   1.931
  219SOL    HW2  687   0.652   0.977   2.073
  220SOL     OW  688   0.122   0.643   2.425
  220SOL    HW1  689   0.077   0.555   2.442
  220SOL    HW2  690   0.121   0.697   2.509
  221SOL     OW  691   1.842   1.767   2.221
  221SOL    HW1  692   1.896   1.738   2.301
  221SOL    HW2  693   1.872   1.857   2.192
  222SOL     OW  694   0.027   1.596   1.979
  222SOL    HW1  695   0.008   1.500   2.000
  222SOL    HW2  696  -0.006   1.654   2.054
  223SOL     OW  697   1.689   0.922   2.474
  223SOL    HW1  698   1.784   0.893   2.482
  223SOL    HW2  699   1.681   0.987   2.399
  224SOL     OW  700   1.641   1.108   2.294
  224SOL    HW1  701   1.727   1.110   2.242
  224SOL    HW2  702   1.655   1.155   2.382
  225SOL     OW  703   0.613   1.365   2.588
  225SOL    HW1  704   0.564   1.278   2.597
  225SOL    HW2  705   0.590   1.408   2.501
  226SOL     OW  706   0.809   0.004   2.364
  226SOL    HW1  707   0.849   0.095   2.355
  226SOL    HW2  708   0.709   0.012   2.370
  227SOL     OW  709   1.525   0.999   2.052
  227SOL    HW1  710   1.462   0.923   2.065
  227SOL    HW2  711   1.573   1.017   2.138
  228SOL     OW  712   1.466   1.417   2.815
  228SOL    HW1  713   1.407   1.423   2.895
  228SOL    HW2  714   1.451   1.329   2.769
  229SOL     OW  715   1.667   1.714   2.434
  229SOL    HW1  716   1.626   1.691   2.346
  229SOL    HW2  717   1.649   1.640   2.499
  230SOL     OW  718   0.598   0.729   2.132
  230SOL    HW1  719   0.622   0.798   2.064
  230SOL    HW2  720   0.520   0.762   2.186
  231SOL     OW  721   1.281   0.345   2.806
  231SOL    HW1  722   1.195   0.295   2.793
  231SOL    HW2  723   1.343   0.291   2.862
  232SOL     OW  724   1.041   0.701   2.291
  232SOL    HW1  725   1.067   0.697   2.387
  232SOL    HW2  726   0.956   0.650   2.277
  233SOL     OW  727   0.076   0.811   2.651
  233SOL    HW1  728   0.175   0.799   2.660
  233SOL    HW2  729   0.052   0.906   2.672
  234SOL     OW  730   0.865   0.348   2.057
  234SOL    HW1  731   0.924   0.411   2.008
  234SOL    HW2  732   0.884   0.254   2.028
  235SOL     OW  733   1.362   1.144   2.407
  235SOL    HW1  734   1.445   1.115   2.359
  235SOL    HW2  735   1.313   1.211   2.351
  236SOL     OW  736   0.550   0.196   2.747
  236SOL    HW1  737   0.545   0.191   2.847
  236SOL    HW2  738   0.552   0.292   2.718
  237SOL     OW  739   1.008   1.456   2.339
  237SOL    HW1  740   0.962   1.528   2.287
  237SOL    HW2  741   1.004   1.476   2.437
  238SOL     OW  742   0.351   1.801   2.715
  238SOL    HW1  743   0.401   1.715   2.721
  238SOL    HW2  744   0.416   1.878   2.712
  239SOL     OW  745   1.795   1.066   2.735
  239SOL    HW1  746   1.733   1.051   2.659
  239SOL    HW2  747   1.743   1.077   2.820
  240SOL     OW  748   0.321   0.943   2.104
  240SOL    HW1  749   0.403   0.982   2.062
  240SOL    HW2  750   0.294   0.861   2.055
  241SOL     OW  751   1.458   0.735   2.590
  241SOL    HW1  752   1.453   0.670   2.665
  241SOL    HW2  753   1.538   0.794   2.603
  242SOL     OW  754   1.111   1.776   2.099
  242SOL    HW1  755   1.051   1.714   2.149
  242SOL    HW2  756   1.142   1.732   2.014
  243SOL     OW  757   1.632   1.377   1.943
  243SOL    HW1  758   1.600   1.471   1.933
  243SOL    HW2  759   1.556   1.314   1.931
  244SOL     OW  760   0.464   1.743   2.185
  244SOL    HW1  761   0.497   1.782   2.271
  244SOL    HW2  762   0.540   1.736   2.120
  245SOL     OW  763   1.400   0.107   2.288
  245SOL    HW1  764   1.376   0.070   2.198
  245SOL    HW2  765   1.499   0.123   2.292
  246SOL     OW  766   0.249   1.785   3.103
  246SOL    HW1  767   0.306   1.720   3.153
  246SOL    HW2  768   0.233   1.752   3.010
  247SOL     OW  769   0.940   1.698   2.766
  247SOL    HW1  770   1.020   1.641   2.787
  247SOL    HW2  771   0.891   1.658   2.689
  248SOL     OW  772   0.382   0.700   2.342
  248SOL    HW1  773   0.427   0.610   2.339
  248SOL    HW2  774   0.288   0.689   2.375
  249SOL     OW  775   0.614   0.122   1.979
  249SOL    HW1  776   0.712   0.100   1.986
  249SOL    HW2  777   0.583   0.105   1.886
  250SOL     OW  778   0.803   1.402   2.786
  250SOL    HW1  779   0.893   1.416   2.744
  250SOL    HW2  780   0.732   1.404   2.715
  251SOL     OW  781   0.922   0.503   2.761
  251SOL    HW1  782   0.897   0.494   2.665
  251SOL    HW2  783   0.970   0.421   2.792
  252SOL     OW  784   0.539   0.064   2.374
  252SOL    HW1  785   0.458   0.065   2.432
  252SOL    HW2  786   0.542   0.147   2.319
  253SOL     OW  787   1.434   1.188   1.903
  253SOL    HW1  788   1.466   1.112   1.960
  253SOL    HW2  789   1.342   1.215   1.933
  254SOL     OW  790   0.297   0.035   2.033
  254SOL    HW1  791   0.346   0.119   2.012
  254SOL    HW2  792   0.359  -0.030   2.078
  255SOL     OW  793   0.935   0.236   2.342
  255SOL    HW1  794   0.887   0.277   2.264
  255SOL    HW2  795   1.034   0.234   2.323
  256SOL     OW  796   1.227   1.570   2.655
  256SOL    HW1  797   1.248   1.644   2.590
  256SOL    HW2  798   1.295   1.570   2.728
  257SOL     OW  799   0.459   1.152   2.603
  257SOL    HW1  800   0.388   1.125   2.668
  257SOL    HW2  801   0.433   1.124   2.510
  258SOL     OW  802   1.271   1.797   2.453
  258SOL    HW1  803   1.315   1.861   2.389
  258SOL    HW2  804   1.221   1.849   2.523
  259SOL     OW  805   1.032   0.549   1.878
  259SOL    HW1  806   0.991   0.631   1.839
  259SOL    HW2  807   1.096   0.575   1.951
  260SOL     OW  808   0.866   0.454   2.504
  260SOL    HW1  809   0.834   0.526   2.442
  260SOL    HW2  810   0.890   0.373   2.451
  261SOL     OW  811   1.017   0.039   2.615
  261SOL    HW1  812   0.945   0.044   2.546
  261SOL    HW2  813   0.993  -0.030   2.684
  262SOL     OW  814   1.429   1.173   2.729
  262SOL    HW1  815   1.374   1.089   2.722
  262SOL    HW2  816   1.455   1.202   2.637
  263SOL     OW  817   1.466   0.590   2.854
  263SOL    HW1  818   1.436   0.495   2.861
  263SOL    HW2  819   1.539   0.606   2.920
  264SOL     OW  820   1.857   0.833   2.239
  264SOL    HW1  821   1.899   0.769   2.303
  264SOL    HW2  822   1.819   0.782   2.161
  265SOL     OW  823   0.488   1.385   2.036
  265SOL    HW1  824   0.401   1.370   2.083
  265SOL    HW2  825   0.471   1.411   1.941
  266SOL     OW  826   1.664   1.280   2.519
  266SOL    HW1  827   1.763   1.288   2.533
  266SOL    HW2  828   1.619   1.364   2.550
  267SOL     OW  829   1.390   0.575   1.940
  267SOL    HW1  830   1.336   0.554   2.021
  267SOL    HW2  831   1.481   0.534   1.949
  268SOL     OW  832   0.527   0.256   2.190
  268SOL    HW1  833   0.554   0.197   2.115
  268SOL    HW2  834   0.527   0.351   2.159
  269SOL     OW  835   1.111   1.195   2.962
  269SOL    HW1  836   1.071   1.239   3.043
  269SOL    HW2  837   1.070   1.232   2.879
  270SOL     OW  838   1.638   1.099   2.941
  270SOL    HW1  839   1.643   1.180   3.000
  270SOL    HW2  840   1.552   1.101   2.890
  271SOL     OW  841   0.705   1.050   2.230
  271SOL    HW1  842   0.691   1.057   2.329
  271SOL    HW2  843   0.789   0.999   2.212
  272SOL     OW  844   0.410   0.813   3.113
  272SOL    HW1  845   0.496   0.825   3.163
  272SOL    HW2  846   0.368   0.726   3.140
  273SOL     OW  847   0.367   1.100   2.363
  273SOL    HW1  848   0.360   1.183   2.307
  273SOL    HW2  849   0.371   1.020   2.303
  274SOL     OW  850   0.566   0.537   2.727
  274SOL    HW1  851   0.578   0.603   2.653
  274SOL    HW2  852   0.612   0.571   2.810
  275SOL     OW  853   1.252   1.348   2.250
  275SOL    HW1  854   1.302   1.425   2.290
  275SOL    HW2  855   1.157   1.350   2.282
  276SOL     OW  856   1.582   0.639   2.334
  276SOL    HW1  857   1.551   0.700   2.407
  276SOL    HW2  858   1.632   0.691   2.265
  277SOL     OW  859   0.354   1.510   3.191
  277SOL    HW1  860   0.333   1.466   3.104
  277SOL    HW2  861   0.451   1.536   3.194
  278SOL     OW  862   0.573   0.870   2.891
  278SOL    HW1  863   0.617   0.959   2.882
  278SOL    HW2  864   0.510   0.870   2.968
  279SOL     OW  865   1.209   0.525   2.137
  279SOL    HW1  866   1.222   0.441   2.191
  279SOL    HW2  867   1.180   0.599   2.197
  280SOL     OW  868   0.732   0.634   2.926
  280SOL    HW1  869   0.791   0.608   2.850
  280SOL    HW2  870   0.704   0.730   2.915
  281SOL     OW  871   0.307   0.063   2.480
  281SOL    HW1  872   0.296   0.157   2.513
  281SOL    HW2  873   0.302   0.000   2.557
  282SOL     OW  874   1.622   0.367   2.236
  282SOL    HW1  875   1.624   0.291   2.300
  282SOL    HW2  876   1.574   0.444   2.276
  283SOL     OW  877   1.023   0.766   2.828
  283SOL    HW1  878   1.038   0.787   2.924
  283SOL    HW2  879   0.993   0.671   2.819
  284SOL     OW  880   1.540   0.274   1.987
  284SOL    HW1  881   1.479   0.199   2.010
  284SOL    HW2  882   1.562   0.326   2.070
  285SOL     OW  883   1.303   0.838   1.904
  285SOL    HW1  884   1.337   0.745   1.919
  285SOL    HW2  885   1.321   0.865   1.809
  286SOL     OW  886   1.068   1.333   2.711
  286SOL    HW1  887   1.075   1.249   2.656
  286SOL    HW2  888   1.130   1.402   2.675
  287SOL     OW  889   0.319   0.810   2.811
  287SOL    HW1  890   0.412   0.846   2.816
  287SOL    HW2  891   0.313   0.725   2.863
  288SOL     OW  892   0.339   0.509   2.868
  288SOL    HW1  893   0.287   0.426   2.851
  288SOL    HW2  894   0.416   0.514   2.804
  289SOL     OW  895   0.008   1.326   2.062
  289SOL    HW1  896  -0.085   1.347   2.031
  289SOL    HW2  897   0.018   1.227   2.075
  290SOL     OW  898   0.088   1.801   2.789
  290SOL    HW1  899   0.046   1.715   2.762
  290SOL    HW2  900   0.182   1.804   2.755
  291SOL     OW  901   0.504   1.568   2.772
  291SOL    HW1  902   0.570   1.642   2.781
  291SOL    HW2  903   0.548   1.489   2.730
  292SOL     OW  904   1.002   0.796   3.100
  292SOL    HW1  905   1.043   0.764   3.186
  292SOL    HW2  906   0.906   0.769   3.097
  293SOL     OW  907   0.815   0.572   2.187
  293SOL    HW1  908   0.822   0.483   2.141
  293SOL    HW2  909   0.721   0.606   2.179
  294SOL     OW  910   0.671   0.464   3.131
  294SOL    HW1  911   0.637   0.375   3.101
  294SOL    HW2  912   0.697   0.518   3.051
  295SOL     OW  913   0.473   0.500   2.053
  295SOL    HW1  914   0.534   0.580   2.057
  295SOL    HW2  915   0.378   0.531   2.060
  296SOL     OW  916   1.302   0.855   2.171
  296SOL    HW1  917   1.216   0.824   2.213
  296SOL    HW2  918   1.298   0.841   2.072
  297SOL     OW  919   1.759   1.747   3.016
  297SOL    HW1  920   1.820   1.777   2.943
  297SOL    HW2  921   1.721   1.658   2.994
  298SOL     OW  922   0.083   1.258   2.884
  298SOL    HW1  923   0.078   1.257   2.984
  298SOL    HW2  924   0.000   1.217   2.846
  299SOL     OW  925   1.726   0.135   2.385
  299SOL    HW1  926   1.799   0.118   2.318
  299SOL    HW2  927   1.695   0.048   2.423
  300SOL     OW  928   1.388   1.573   2.339
  300SOL    HW1  929   1.455   1.585   2.265
  300SOL    HW2  930   1.348   1.662   2.362
  301SOL     OW  931   1.280   0.927   2.534
  301SOL    HW1  932   1.340   0.846   2.536
  301SOL    HW2  933   1.320   0.996   2.474
  302SOL     OW  934   0.672   1.616   2.016
  302SOL    HW1  935   0.681   1.626   1.917
  302SOL    HW2  936   0.632   1.527   2.037
  303SOL     OW  937   1.841   0.175   2.825
  303SOL    HW1  938   1.880   0.090   2.789
  303SOL    HW2  939   1.743   0.177   2.806
  304SOL     OW  940   0.263   0.326   2.582
  304SOL    HW1  941   0.184   0.377   2.548
  304SOL    HW2  942   0.254   0.311   2.680
  305SOL     OW  943   1.194   1.612   1.893
  305SOL    HW1  944   1.200   1.519   1.930
  305SOL    HW2  945   1.135   1.612   1.813
  306SOL     OW  946   0.916   0.910   2.153
  306SOL    HW1  947   0.979   0.948   2.085
  306SOL    HW2  948   0.956   0.827   2.192
  307SOL     OW  949   1.039   1.098   2.558
  307SOL    HW1  950   0.969   1.051   2.612
  307SOL    HW2  951   1.098   1.030   2.515
  308SOL     OW  952   1.014   0.236   2.833
  308SOL    HW1  953   1.006   0.200   2.740
  308SOL    HW2  954   1.012   0.160   2.898
  309SOL     OW  955   0.590   1.487   2.353
  309SOL    HW1  956   0.632   1.429   2.283
  309SOL    HW2  957   0.546   1.566   2.309
  310SOL     OW  958   0.255   1.348   2.152
  310SOL    HW1  959   0.159   1.349   2.125
  310SOL    HW2  960   0.267   1.401   2.236
  311SOL     OW  961   0.075   0.345   1.895
  311SOL    HW1  962  -0.017   0.317   1.866
  311SOL    HW2  963   0.106   0.422   1.839
  312SOL     OW  964   0.072   0.166   2.180
  312SOL    HW1  965   0.055   0.249   2.126
  312SOL    HW2  966   0.162   0.129   2.158
  313SOL     OW  967   1.183   1.335   1.981
  313SOL    HW1  968   1.084   1.324   1.983
  313SOL    HW2  969   1.217   1.350   2.074
  314SOL     OW  970   1.493   1.767   2.821
  314SOL    HW1  971   1.526   1.831   2.752
  314SOL    HW2  972   1.559   1.761   2.896
  315SOL     OW  973   1.674   0.883   3.116
  315SOL    HW1  974   1.647   0.794   3.079
  315SOL    HW2  975   1.675   0.951   3.043
  316SOL     OW  976   1.225   0.325   2.311
  316SOL    HW1  977   1.290   0.251   2.300
  316SOL    HW2  978   1.245   0.375   2.395
  317SOL     OW  979   0.594   0.745   2.514
  317SOL    HW1  980   0.644   0.830   2.495
  317SOL    HW2  981   0.506   0.747   2.466
  318SOL     OW  982   0.859   1.374   1.878
  318SOL    HW1  983   0.813   1.389   1.966
  318SOL    HW2  984   0.903   1.459   1.848
  319SOL     OW  985   0.661   1.790   2.815
  319SOL    HW1  986   0.615   1.878   2.802
  319SOL    HW2  987   0.760   1.802   2.808
  320SOL     OW  988   0.859   0.956   2.723
  320SOL    HW1  989   0.913   0.887   2.771
  320SOL    HW2  990   0.827   1.025   2.789
  321SOL     OW  991   1.083   0.984   1.949
  321SOL    HW1  992   1.060   1.037   1.867
  321SOL    HW2  993   1.164   0.928   1.930
  322SOL     OW  994   1.861   1.569   2.713
  322SOL    HW1  995   1.790   1.557   2.643
  322SOL    HW2  996   1.862   1.490   2.773
  323SOL     OW  997   0.079   1.240   2.515
  323SOL    HW1  998   0.078   1.193   2.603
  323SOL    HW2  999   0.161   1.212   2.464
  324SOL     OW 1000   1.824   0.192   3.089
  324SOL    HW1 1001   1.820   0.102   3.133
  324SOL    HW2 1002   1.827   0.181   2.990
  325SOL     OW 1003   0.428   0.424   2.382
  325SOL    HW1 1004   0.458   0.352   2.320
  325SOL    HW2 1005   0.389   0.384   2.465
  326SOL     OW 1006   0.812   1.586   2.549
  326SOL    HW1 1007   0.844   1.596   2.455
  326SOL    HW2 1008   0.733   1.524   2.551
  327SOL     OW 1009   1.424   0.214   2.974
  327SOL    HW1 1010   1.476   0.149   3.029
  327SOL    HW2 1011   1.375   0.277   3.035
  328SOL     OW 1012   0.770   1.330   2.163
  328SOL    HW1 1013   0.724   1.243   2.180
  328SOL    HW2 1014   0.861   1.327   2.204
  329SOL     OW 1015   1.352   0.052   2.030
  329SOL    HW1 1016   1.387   0.011   1.946
  329SOL    HW2 1017   1.262   0.014   2.050
  330SOL     OW 1018   1.300   0.453   2.553
  330SOL    HW1 1019   1.241   0.533   2.557
  330SOL    HW2 1020   1.315   0.418   2.646
  331SOL     OW 1021   1.593   0.221   2.744
  331SOL    HW1 1022   1.509   0.220   2.798
  331SOL    HW2 1023   1.595   0.304   2.688
  332SOL     OW 1024   0.039   1.077   2.162
  332SOL    HW1 1025   0.138   1.066   2.153
  332SOL    HW2 1026  -0.001   0.991   2.194
  333SOL     OW 1027   0.875   1.646   2.199
  333SOL    HW1 1028   0.798   1.611   2.145
  333SOL    HW2 1029   0.843   1.717   2.261
  334SOL     OW 1030   0.230   2.490   0.113
  334SOL    HW1 1031   0.137   2.488   0.150
  334SOL    HW2 1032   0.231   2.451   0.021
  335SOL     OW 1033   0.225   2.137   0.996
  335SOL    HW1 1034   0.260   2.120   1.088
  335SOL    HW2 1035   0.137   2.092   0.984
  336SOL     OW 1036   0.019   2.230   0.647
  336SOL    HW1 1037  -0.063   2.273   0.686
  336SOL    HW2 1038  -0.009   2.157   0.584
  337SOL     OW 1039   1.135   2.565   0.717
  337SOL    HW1 1040   1.192   2.643   0.692
  337SOL    HW2 1041   1.075   2.591   0.793
  338SOL     OW 1042   1.755   2.469   0.231
  338SOL    HW1 1043   1.743   2.456   0.132
  338SOL    HW2 1044   1.725   2.388   0.280
  339SOL     OW 1045   0.768   3.006   1.023
  339SOL    HW1 1046   0.690   3.023   1.083
  339SOL    HW2 1047   0.802   3.093   0.987
  340SOL     OW 1048   0.850   2.660   1.823
  340SOL    HW1 1049   0.846   2.736   1.888
  340SOL    HW2 1050   0.872   2.696   1.732
  341SOL     OW 1051   0.685   2.874   0.665
  341SOL    HW1 1052   0.754   2.858   0.735
  341SOL    HW2 1053   0.612   2.931   0.703
  342SOL     OW 1054   0.438   2.254   1.499
  342SOL    HW1 1055   0.520   2.198   1.508
  342SOL    HW2 1056   0.357   2.196   1.503
  343SOL     OW 1057   1.603   2.309   0.737
  343SOL    HW1 1058   1.529   2.355   0.687
  343SOL    HW2 1059   1.654   2.377   0.790
  344SOL     OW 1060   0.230   3.296   0.538
  344SOL    HW1 1061   0.204   3.392   0.538
  344SOL    HW2 1062   0.159   3.242   0.583
  345SOL     OW 1063   0.240   2.953   0.886
  345SOL    HW1 1064   0.254   2.869   0.938
  345SOL    HW2 1065   0.185   3.017   0.941
  346SOL     OW 1066   0.606   2.826   0.123
  346SOL    HW1 1067   0.613   2.910   0.069
  346SOL    HW2 1068   0.652   2.839   0.211
  347SOL     OW 1069   1.594   1.976   1.480
  347SOL    HW1 1070   1.576   2.043   1.408
  347SOL    HW2 1071   1.591   2.022   1.569
  348SOL     OW 1072   0.122   2.505   0.563
  348SOL    HW1 1073   0.077   2.417   0.580
  348SOL    HW2 1074   0.121   2.559   0.647
  349SOL     OW 1075   1.689   2.784   0.612
  349SOL    HW1 1076   1.784   2.755   0.620
  349SOL    HW2 1077   1.681   2.849   0.537
  350SOL     OW 1078   0.113   2.599   1.597
  350SOL    HW1 1079   0.201   2.586   1.642
  350SOL    HW2 1080   0.100   2.696   1.575
  351SOL     OW 1081   1.293   3.090   1.423
  351SOL    HW1 1082   1.330   3.017   1.365
  351SOL    HW2 1083   1.345   3.095   1.508
  352SOL     OW 1084   0.809   1.866   0.502
  352SOL    HW1 1085   0.849   1.957   0.493
  352SOL    HW2 1086   0.709   1.874   0.508
  353SOL     OW 1087   0.197   2.838   1.264
  353SOL    HW1 1088   0.286   2.793   1.250
  353SOL    HW2 1089   0.124   2.773   1.245
  354SOL     OW 1090   1.525   2.861   0.190
  354SOL    HW1 1091   1.462   2.785   0.203
  354SOL    HW2 1092   1.573   2.879   0.276
  355SOL     OW 1093   0.317   2.113   1.801
  355SOL    HW1 1094   0.388   2.184   1.807
  355SOL    HW2 1095   0.229   2.152   1.829
  356SOL     OW 1096   0.598   2.591   0.270
  356SOL    HW1 1097   0.622   2.660   0.202
  356SOL    HW2 1098   0.520   2.624   0.324
  357SOL     OW 1099   1.281   2.207   0.944
  357SOL    HW1 1100   1.195   2.157   0.931
  357SOL    HW2 1101   1.343   2.153   1.000
  358SOL     OW 1102   0.807   2.467   1.465
  358SOL    HW1 1103   0.760   2.464   1.554
  358SOL    HW2 1104   0.756   2.412   1.399
  359SOL     OW 1105   1.394   2.331   1.674
  359SOL    HW1 1106   1.374   2.374   1.762
  359SOL    HW2 1107   1.472   2.269   1.683
  360SOL     OW 1108   0.973   2.752   1.572
  360SOL    HW1 1109   1.019   2.668   1.543
  360SOL    HW2 1110   0.917   2.786   1.497
  361SOL     OW 1111   0.991   2.272   1.242
  361SOL    HW1 1112   0.914   2.306   1.296
  361SOL    HW2 1113   0.957   2.221   1.163
  362SOL     OW 1114   1.041   2.563   0.429
  362SOL    HW1 1115   1.067   2.559   0.525
  362SOL    HW2 1116   0.956   2.512   0.415
  363SOL     OW 1117   0.076   2.673   0.789
  363SOL    HW1 1118   0.175   2.661   0.798
  363SOL    HW2 1119   0.052   2.768   0.810
  364SOL     OW 1120   0.865   2.210   0.195
  364SOL    HW1 1121   0.924   2.273   0.146
  364SOL    HW2 1122   0.884   2.116   0.166
  365SOL     OW 1123   1.719   2.447   1.831
  365SOL    HW1 1124   1.693   2.536   1.795
  365SOL    HW2 1125   1.717   2.379   1.758
  366SOL     OW 1126   0.550   2.058   0.885
  366SOL    HW1 1127   0.545   2.053   0.985
  366SOL    HW2 1128   0.552   2.154   0.856
  367SOL     OW 1129   1.795   2.928   0.873
  367SOL    HW1 1130   1.733   2.913   0.797
  367SOL    HW2 1131   1.743   2.939   0.958
  368SOL     OW 1132   0.321   2.805   0.242
  368SOL    HW1 1133   0.403   2.844   0.200
  368SOL    HW2 1134   0.294   2.723   0.193
  369SOL     OW 1135   1.458   2.597   0.728
  369SOL    HW1 1136   1.453   2.532   0.803
  369SOL    HW2 1137   1.538   2.656   0.741
  370SOL     OW 1138   0.202   2.147   1.498
  370SOL    HW1 1139   0.122   2.207   1.485
  370SOL    HW2 1140   0.192   2.098   1.584
  371SOL     OW 1141   1.400   1.969   0.426
  371SOL    HW1 1142   1.376   1.932   0.336
  371SOL    HW2 1143   1.499   1.985   0.430
  372SOL     OW 1144   0.382   2.562   0.480
  372SOL    HW1 1145   0.427   2.472   0.477
  372SOL    HW2 1146   0.288   2.551   0.513
  373SOL     OW 1147   0.614   1.984   0.117
  373SOL    HW1 1148   0.712   1.962   0.124
  373SOL    HW2 1149   0.583   1.967   0.024
  374SOL     OW 1150   0.781   2.126   1.749
  374SOL    HW1 1151   0.848   2.065   1.792
  374SOL    HW2 1152   0.708   2.145   1.814
  375SOL     OW 1153   1.351   2.452   1.433
  375SOL    HW1 1154   1.379   2.409   1.518
  375SOL    HW2 1155   1.376   2.548   1.434
  376SOL     OW 1156   0.922   2.365   0.899
  376SOL    HW1 1157   0.897   2.356   0.803
  376SOL    HW2 1158   0.970   2.283   0.930
  377SOL     OW 1159   0.539   1.926   0.512
  377SOL    HW1 1160   0.458   1.927   0.570
  377SOL    HW2 1161   0.542   2.009   0.457
  378SOL     OW 1162   0.935   2.098   0.480
  378SOL    HW1 1163   0.887   2.139   0.402
  378SOL    HW2 1164   1.034   2.096   0.461
  379SOL     OW 1165   1.076   2.545   1.464
  379SOL    HW1 1166   0.996   2.484   1.467
  379SOL    HW2 1167   1.157   2.492   1.440
  380SOL     OW 1168   0.459   3.014   0.741
  380SOL    HW1 1169   0.388   2.987   0.806
  380SOL    HW2 1170   0.433   2.986   0.648
  381SOL     OW 1171   1.032   2.411   0.016
  381SOL    HW1 1172   0.991   2.493  -0.023
  381SOL    HW2 1173   1.096   2.437   0.089
  382SOL     OW 1174   0.078   2.418   1.386
  382SOL    HW1 1175   0.170   2.417   1.345
  382SOL    HW2 1176   0.072   2.492   1.453
  383SOL     OW 1177   0.561   2.084   1.147
  383SOL    HW1 1178   0.599   2.000   1.184
  383SOL    HW2 1179   0.473   2.103   1.191
  384SOL     OW 1180   0.866   2.316   0.642
  384SOL    HW1 1181   0.834   2.388   0.580
  384SOL    HW2 1182   0.890   2.235   0.589
  385SOL     OW 1183   1.017   1.901   0.753
  385SOL    HW1 1184   0.945   1.906   0.684
  385SOL    HW2 1185   0.993   1.832   0.822
  386SOL     OW 1186   1.429   3.035   0.867
  386SOL    HW1 1187   1.374   2.951   0.860
  386SOL    HW2 1188   1.455   3.064   0.775
  387SOL     OW 1189   1.466   2.452   0.992
  387SOL    HW1 1190   1.436   2.357   0.999
  387SOL    HW2 1191   1.539   2.468   1.058
  388SOL     OW 1192   1.857   2.695   0.377
  388SOL    HW1 1193   1.899   2.631   0.441
  388SOL    HW2 1194   1.819   2.644   0.299
  389SOL     OW 1195   1.390   2.437   0.078
  389SOL    HW1 1196   1.336   2.416   0.159
  389SOL    HW2 1197   1.481   2.396   0.087
  390SOL     OW 1198   0.527   2.118   0.328
  390SOL    HW1 1199   0.554   2.059   0.253
  390SOL    HW2 1200   0.527   2.213   0.297
  391SOL     OW 1201   1.754   3.085   1.588
  391SOL    HW1 1202   1.845   3.046   1.575
  391SOL    HW2 1203   1.762   3.181   1.612
  392SOL     OW 1204   1.638   2.961   1.079
  392SOL    HW1 1205   1.643   3.042   1.138
  392SOL    HW2 1206   1.552   2.963   1.028
  393SOL     OW 1207   0.915   1.951   1.402
  393SOL    HW1 1208   0.940   1.931   1.307
  393SOL    HW2 1209   0.987   2.007   1.444
  394SOL     OW 1210   0.410   2.675   1.251
  394SOL    HW1 1211   0.496   2.687   1.301
  394SOL    HW2 1212   0.368   2.588   1.278
  395SOL     OW 1213   1.274   2.248   1.262
  395SOL    HW1 1214   1.295   2.322   1.326
  395SOL    HW2 1215   1.185   2.265   1.219
  396SOL     OW 1216   0.367   2.962   0.501
  396SOL    HW1 1217   0.360   3.045   0.445
  396SOL    HW2 1218   0.371   2.882   0.441
  397SOL     OW 1219   0.566   2.399   0.865
  397SOL    HW1 1220   0.578   2.465   0.791
  397SOL    HW2 1221   0.612   2.433   0.948
  398SOL     OW 1222   1.582   2.501   0.472
  398SOL    HW1 1223   1.551   2.562   0.545
  398SOL    HW2 1224   1.632   2.553   0.403
  399SOL     OW 1225   0.402   2.613   1.598
  399SOL    HW1 1226   0.470   2.668   1.551
  399SOL    HW2 1227   0.442   2.525   1.625
  400SOL     OW 1228   1.587   2.641   1.670
  400SOL    HW1 1229   1.495   2.679   1.665
  400SOL    HW2 1230   1.647   2.688   1.605
  401SOL     OW 1231   1.013   1.967   1.770
  401SOL    HW1 1232   1.019   2.052   1.718
  401SOL    HW2 1233   1.045   1.891   1.713
  402SOL     OW 1234   0.504   1.912   1.740
  402SOL    HW1 1235   0.462   1.855   1.670
  402SOL    HW2 1236   0.438   1.981   1.772
  403SOL     OW 1237   0.573   2.732   1.029
  403SOL    HW1 1238   0.617   2.821   1.020
  403SOL    HW2 1239   0.510   2.732   1.106
  404SOL     OW 1240   1.360   2.724   1.045
  404SOL    HW1 1241   1.285   2.724   0.979
  404SOL    HW2 1242   1.397   2.632   1.054
  405SOL     OW 1243   1.209   2.387   0.275
  405SOL    HW1 1244   1.222   2.303   0.329
  405SOL    HW2 1245   1.180   2.461   0.335
  406SOL     OW 1246   0.307   2.075   1.231
  406SOL    HW1 1247   0.284   2.112   1.321
  406SOL    HW2 1248   0.277   1.980   1.225
  407SOL     OW 1249   0.037   3.172   1.282
  407SOL    HW1 1250   0.090   3.123   1.350
  407SOL    HW2 1251   0.059   3.270   1.287
  408SOL     OW 1252   0.732   2.496   1.064
  408SOL    HW1 1253   0.791   2.470   0.988
  408SOL    HW2 1254   0.704   2.592   1.053
  409SOL     OW 1255   1.728   2.797   1.854
  409SOL    HW1 1256   1.682   2.790   1.765
  409SOL    HW2 1257   1.666   2.841   1.920
  410SOL     OW 1258   0.307   1.925   0.618
  410SOL    HW1 1259   0.296   2.019   0.651
  410SOL    HW2 1260   0.302   1.862   0.695
  411SOL     OW 1261   1.622   2.229   0.374
  411SOL    HW1 1262   1.624   2.153   0.438
  411SOL    HW2 1263   1.574   2.306   0.414
  412SOL     OW 1264   1.023   2.628   0.966
  412SOL    HW1 1265   1.038   2.649   1.062
  412SOL    HW2 1266   0.993   2.533   0.957
  413SOL     OW 1267   0.350   2.760   1.804
  413SOL    HW1 1268   0.426   2.804   1.852
  413SOL    HW2 1269   0.385   2.713   1.722
  414SOL     OW 1270   1.540   2.136   0.125
  414SOL    HW1 1271   1.479   2.061   0.148
  414SOL    HW2 1272   1.562   2.188   0.208
  415SOL     OW 1273   1.303   2.700   0.042
  415SOL    HW1 1274   1.337   2.607   0.057
  415SOL    HW2 1275   1.321   2.727  -0.053
  416SOL     OW 1276   0.319   2.672   0.949
  416SOL    HW1 1277   0.412   2.708   0.954
  416SOL    HW2 1278   0.313   2.587   1.001
  417SOL     OW 1279   0.339   2.371   1.006
  417SOL    HW1 1280   0.287   2.288   0.989
  417SOL    HW2 1281   0.416   2.376   0.942
  418SOL     OW 1282   1.138   2.242   1.678
  418SOL    HW1 1283   1.093   2.305   1.742
  418SOL    HW2 1284   1.231   2.273   1.661
  419SOL     OW 1285   1.160   2.069   1.477
  419SOL    HW1 1286   1.160   2.133   1.554
  419SOL    HW2 1287   1.188   2.117   1.394
  420SOL     OW 1288   1.002   2.658   1.238
  420SOL    HW1 1289   1.043   2.626   1.324
  420SOL    HW2 1290   0.906   2.631   1.235
  421SOL     OW 1291   0.040   2.406   1.114
  421SOL    HW1 1292   0.125   2.373   1.073
  421SOL    HW2 1293   0.053   2.421   1.212
  422SOL     OW 1294   0.189   2.382   1.722
  422SOL    HW1 1295   0.248   2.342   1.652
  422SOL    HW2 1296   0.131   2.453   1.681
  423SOL     OW 1297   1.369   2.812   1.660
  423SOL    HW1 1298   1.408   2.901   1.680
  423SOL    HW2 1299   1.379   2.792   1.563
  424SOL     OW 1300   0.815   2.434   0.325
  424SOL    HW1 1301   0.822   2.345   0.279
  424SOL    HW2 1302   0.721   2.468   0.317
  425SOL     OW 1303   1.657   2.466   1.206
  425SOL    HW1 1304   1.619   2.397   1.268
  425SOL    HW2 1305   1.739   2.430   1.162
  426SOL     OW 1306   0.671   2.326   1.269
  426SOL    HW1 1307   0.637   2.237   1.239
  426SOL    HW2 1308   0.697   2.380   1.189
  427SOL     OW 1309   0.473   2.362   0.191
  427SOL    HW1 1310   0.534   2.442   0.195
  427SOL    HW2 1311   0.378   2.393   0.198
  428SOL     OW 1312   0.159   2.999   1.466
  428SOL    HW1 1313   0.181   2.938   1.542
  428SOL    HW2 1314   0.169   2.950   1.380
  429SOL     OW 1315   1.347   2.921   1.234
  429SOL    HW1 1316   1.371   2.858   1.160
  429SOL    HW2 1317   1.257   2.961   1.216
  430SOL     OW 1318   1.302   2.717   0.309
  430SOL    HW1 1319   1.216   2.686   0.351
  430SOL    HW2 1320   1.298   2.703   0.210
  431SOL     OW 1321   0.083   3.120   1.022
  431SOL    HW1 1322   0.078   3.119   1.122
  431SOL    HW2 1323   0.000   3.079   0.984
  432SOL     OW 1324   0.903   1.948   0.133
  432SOL    HW1 1325   0.954   1.949   0.047
  432SOL    HW2 1326   0.959   1.906   0.204
  433SOL     OW 1327   1.726   1.997   0.523
  433SOL    HW1 1328   1.799   1.980   0.456
  433SOL    HW2 1329   1.695   1.910   0.561
  434SOL     OW 1330   1.280   2.789   0.672
  434SOL    HW1 1331   1.340   2.708   0.674
  434SOL    HW2 1332   1.320   2.858   0.612
  435SOL     OW 1333   1.841   2.037   0.963
  435SOL    HW1 1334   1.880   1.952   0.927
  435SOL    HW2 1335   1.743   2.039   0.944
  436SOL     OW 1336   0.263   2.188   0.720
  436SOL    HW1 1337   0.184   2.239   0.686
  436SOL    HW2 1338   0.254   2.173   0.818
  437SOL     OW 1339   0.822   2.864   1.372
  437SOL    HW1 1340   0.862   2.863   1.280
  437SOL    HW2 1341   0.832   2.956   1.412
  438SOL     OW 1342   0.916   2.772   0.291
  438SOL    HW1 1343   0.979   2.810   0.223
  438SOL    HW2 1344   0.956   2.689   0.330
  439SOL     OW 1345   1.014   2.098   0.971
  439SOL    HW1 1346   1.006   2.062   0.878
  439SOL    HW2 1347   1.012   2.022   1.036
  440SOL     OW 1348   1.709   2.247   1.381
  440SOL    HW1 1349   1.782   2.316   1.385
  440SOL    HW2 1350   1.737   2.172   1.322
  441SOL     OW 1351   0.105   2.875   1.726
  441SOL    HW1 1352   0.028   2.842   1.780
  441SOL    HW2 1353   0.190   2.845   1.768
  442SOL     OW 1354   0.672   2.065   1.489
  442SOL    HW1 1355   0.762   2.049   1.449
  442SOL    HW2 1356   0.680   2.070   1.588
  443SOL     OW 1357   0.075   2.207   0.033
  443SOL    HW1 1358  -0.017   2.179   0.004
  443SOL    HW2 1359   0.106   2.284  -0.023
  444SOL     OW 1360   1.440   2.718   1.398
  444SOL    HW1 1361   1.383   2.770   1.335
  444SOL    HW2 1362   1.536   2.730   1.374
  445SOL     OW 1363   0.072   2.028   0.318
  445SOL    HW1 1364   0.055   2.111   0.264
  445SOL    HW2 1365   0.162   1.991   0.296
  446SOL     OW 1366   1.183   3.197   0.119
  446SOL    HW1 1367   1.084   3.186   0.121
  446SOL    HW2 1368   1.217   3.212   0.212
  447SOL     OW 1369   0.613   2.704   1.431
  447SOL    HW1 1370   0.669   2.785   1.414
  447SOL    HW2 1371   0.672   2.624   1.434
  448SOL     OW 1372   0.716   2.427   1.708
  448SOL    HW1 1373   0.735   2.492   1.782
  448SOL    HW2 1374   0.776   2.347   1.717
  449SOL     OW 1375   1.674   2.745   1.254
  449SOL    HW1 1376   1.647   2.656   1.217
  449SOL    HW2 1377   1.675   2.813   1.181
  450SOL     OW 1378   1.225   2.187   0.449
  450SOL    HW1 1379   1.290   2.113   0.438
  450SOL    HW2 1380   1.245   2.237   0.533
  451SOL     OW 1381   0.594   2.607   0.652
  451SOL    HW1 1382   0.644   2.692   0.633
  451SOL    HW2 1383   0.506   2.609   0.604
  452SOL     OW 1384   1.777   2.204   1.642
  452SOL    HW1 1385   1.760   2.235   1.548
  452SOL    HW2 1386   1.693   2.167   1.680
  453SOL     OW 1387   1.730   2.796   1.517
  453SOL    HW1 1388   1.768   2.887   1.532
  453SOL    HW2 1389   1.722   2.779   1.418
  454SOL     OW 1390   0.859   2.818   0.861
  454SOL    HW1 1391   0.913   2.749   0.909
  454SOL    HW2 1392   0.827   2.887   0.927
  455SOL     OW 1393   1.083   2.846   0.087
  455SOL    HW1 1394   1.060   2.899   0.005
  455SOL    HW2 1395   1.164   2.790   0.068
  456SOL     OW 1396   1.824   2.054   1.227
  456SOL    HW1 1397   1.820   1.964   1.271
  456SOL    HW2 1398   1.827   2.043   1.128
  457SOL     OW 1399   0.428   2.286   0.520
  457SOL    HW1 1400   0.458   2.214   0.458
  457SOL    HW2 1401   0.389   2.246   0.603
  458SOL     OW 1402   0.317   2.409   1.280
  458SOL    HW1 1403   0.355   2.350   1.352
  458SOL    HW2 1404   0.357   2.383   1.192
  459SOL     OW 1405   1.424   2.076   1.112
  459SOL    HW1 1406   1.476   2.011   1.167
  459SOL    HW2 1407   1.375   2.139   1.173
  460SOL     OW 1408   1.001   1.896   1.154
  460SOL    HW1 1409   0.938   1.824   1.123
  460SOL    HW2 1410   1.094   1.860   1.154
  461SOL     OW 1411   0.770   3.192   0.301
  461SOL    HW1 1412   0.724   3.105   0.318
  461SOL    HW2 1413   0.861   3.189   0.342
  462SOL     OW 1414   1.352   1.914   0.168
  462SOL    HW1 1415   1.387   1.873   0.084
  462SOL    HW2 1416   1.262   1.876   0.188
  463SOL     OW 1417   1.300   2.315   0.691
  463SOL    HW1 1418   1.241   2.395   0.695
  463SOL    HW2 1419   1.315   2.280   0.784
  464SOL     OW 1420   1.593   2.083   0.882
  464SOL    HW1 1421   1.509   2.082   0.936
  464SOL    HW2 1422   1.595   2.166   0.826
  465SOL     OW 1423   0.039   2.939   0.300
  465SOL    HW1 1424   0.138   2.928   0.291
  465SOL    HW2 1425  -0.001   2.853   0.332
  466SOL     OW 1426   0.230   2.490   1.975
  466SOL    HW1 1427   0.137   2.488   2.012
  466SOL    HW2 1428   0.231   2.451   1.883
  467SOL     OW 1429   0.225   2.137   2.858
  467SOL    HW1 1430   0.260   2.120   2.950
  467SOL    HW2 1431   0.137   2.092   2.846
  468SOL     OW 1432   0.019   2.230   2.509
  468SOL    HW1 1433  -0.063   2.273   2.548
  468SOL    HW2 1434  -0.009   2.157   2.446
  469SOL     OW 1435   1.135   2.565   2.579
  469SOL    HW1 1436   1.192   2.643   2.554
  469SOL    HW2 1437   1.075   2.591   2.655
  470SOL     OW 1438   1.755   2.469   2.093
  470SOL    HW1 1439   1.743   2.456   1.994
  470SOL    HW2 1440   1.725   2.388   2.142
  471SOL     OW 1441   0.768   3.006   2.885
  471SOL    HW1 1442   0.690   3.023   2.945
  471SOL    HW2 1443   0.802   3.093   2.849
  472SOL     OW 1444   0.685   2.874   2.527
  472SOL    HW1 1445   0.754   2.858   2.597
  472SOL    HW2 1446   0.612   2.931   2.565
  473SOL     OW 1447   1.603   2.309   2.599
  473SOL    HW1 1448   1.529   2.355   2.549
  473SOL    HW2 1449   1.654   2.377   2.652
  474SOL     OW 1450   0.230   3.296   2.400
  474SOL    HW1 1451   0.204   3.392   2.400
  474SOL    HW2 1452   0.159   3.242   2.445
  475SOL     OW 1453   0.240   2.953   2.748
  475SOL    HW1 1454   0.254   2.869   2.800
  475SOL    HW2 1455   0.185   3.017   2.803
  476SOL     OW 1456   0.606   2.826   1.985
  476SOL    HW1 1457   0.613   2.910   1.931
  476SOL    HW2 1458   0.652   2.839   2.073
  477SOL     OW 1459   0.122   2.505   2.425
  477SOL    HW1 1460   0.077   2.417   2.442
  477SOL    HW2 1461   0.121   2.559   2.509
  478SOL     OW 1462   1.689   2.784   2.474
  478SOL    HW1 1463   1.784   2.755   2.482
  478SOL    HW2 1464   1.681   2.849   2.399
  479SOL     OW 1465   0.809   1.866   2.364
  479SOL    HW1 1466   0.849   1.957   2.355
  479SOL    HW2 1467   0.709   1.874   2.370
  480SOL     OW 1468   1.525   2.861   2.052
  480SOL    HW1 1469   1.462   2.785   2.065
  480SOL    HW2 1470   1.573   2.879   2.138
  481SOL     OW 1471   0.598   2.591   2.132
  481SOL    HW1 1472   0.622   2.660   2.064
  481SOL    HW2 1473   0.520   2.624   2.186
  482SOL     OW 1474   1.281   2.207   2.806
  482SOL    HW1 1475   1.195   2.157   2.793
  482SOL    HW2 1476   1.343   2.153   2.862
  483SOL     OW 1477   1.041   2.563   2.291
  483SOL    HW1 1478   1.067   2.559   2.387
  483SOL    HW2 1479   0.956   2.512   2.277
  484SOL     OW 1480   0.076   2.673   2.651
  484SOL    HW1 1481   0.175   2.661   2.660
  484SOL    HW2 1482   0.052   2.768   2.672
  485SOL     OW 1483   0.865   2.210   2.057
  485SOL    HW1 1484   0.924   2.273   2.008
  485SOL    HW2 1485   0.884   2.116   2.028
  486SOL     OW 1486   0.550   2.058   2.747
  486SOL    HW1 1487   0.545   2.053   2.847
  486SOL    HW2 1488   0.552   2.154   2.718
  487SOL     OW 1489   1.795   2.928   2.735
  487SOL    HW1 1490   1.733   2.913   2.659
  487SOL    HW2 1491   1.743   2.939   2.820
  488SOL     OW 1492   0.321   2.805   2.104
  488SOL    HW1 1493   0.403   2.844   2.062
  488SOL    HW2 1494   0.294   2.723   2.055
  489SOL     OW 1495   1.458   2.597   2.590
  489SOL    HW1 1496   1.453   2.532   2.665
  489SOL    HW2 1497   1.538   2.656   2.603
  490SOL     OW 1498   1.400   1.969   2.288
  490SOL    HW1 1499   1.376   1.932   2.198
  490SOL    HW2 1500   1.499   1.985   2.292
  491SOL     OW 1501   0.382   2.562   2.342
  491SOL    HW1 1502   0.427   2.472   2.339
  491SOL    HW2 1503   0.288   2.551   2.375
  492SOL     OW 1504   0.614   1.984   1.979
  492SOL    HW1 1505   0.712   1.962   1.986
  492SOL    HW2 1506   0.583   1.967   1.886
  493SOL     OW 1507   0.922   2.365   2.761
  493SOL    HW1 1508   0.897   2.356   2.665
  493SOL    HW2 1509   0.970   2.283   2.792
  494SOL     OW 1510   0.539   1.926   2.374
  494SOL    HW1 1511   0.458   1.927   2.432
  494SOL    HW2 1512   0.542   2.009   2.319
  495SOL     OW 1513   0.297   1.897   2.033
  495SOL    HW1 1514   0.346   1.981   2.012
  495SOL    HW2 1515   0.359   1.832   2.078
  496SOL     OW 1516   0.935   2.098   2.342
  496SOL    HW1 1517   0.887   2.139   2.264
  496SOL    HW2 1518   1.034   2.096   2.323
  497SOL     OW 1519   0.459   3.014   2.603
  497SOL    HW1 1520   0.388   2.987   2.668
  497SOL    HW2 1521   0.433   2.986   2.510
  498SOL     OW 1522   1.032   2.411   1.878
  498SOL    HW1 1523   0.991   2.493   1.839
  498SOL    HW2 1524   1.096   2.437   1.951
  499SOL     OW 1525   0.866   2.316   2.504
  499SOL    HW1 1526   0.834   2.388   2.442
  499SOL    HW2 1527   0.890   2.235   2.451
  500SOL     OW 1528   1.017   1.901   2.615
  500SOL    HW1 1529   0.945   1.906   2.546
  500SOL    HW2 1530   0.993   1.832   2.684
  501SOL     OW 1531   1.429   3.035   2.729
  501SOL    HW1 1532   1.374   2.951   2.722
  501SOL    HW2 1533   1.455   3.064   2.637
  502SOL     OW 1534   1.466   2.452   2.854
  502SOL    HW1 1535   1.436   2.357   2.861
  502SOL    HW2 1536   1.539   2.468   2.920
  503SOL     OW 1537   1.857   2.695   2.239
  503SOL    HW1 1538   1.899   2.631   2.303
  503SOL    HW2 1539   1.819   2.644   2.161
  504SOL     OW 1540   1.390   2.437   1.940
  504SOL    HW1 1541   1.336   2.416   2.021
  504SOL    HW2 1542   1.481   2.396   1.949
  505SOL     OW 1543   0.527   2.118   2.190
  505SOL    HW1 1544   0.554   2.059   2.115
  505SOL    HW2 1545   0.527   2.213   2.159
  506SOL     OW 1546   1.638   2.961   2.941
  506SOL    HW1 1547   1.643   3.042   3.000
  506SOL    HW2 1548   1.552   2.963   2.890
  507SOL     OW 1549   0.410   2.675   3.113
  507SOL    HW1 1550   0.496   2.687   3.163
  507SOL    HW2 1551   0.368   2.588   3.140
  508SOL     OW 1552   0.367   2.962   2.363
  508SOL    HW1 1553   0.360   3.045   2.307
  508SOL    HW2 1554   0.371   2.882   2.303
  509SOL     OW 1555   0.566   2.399   2.727
  509SOL    HW1 1556   0.578   2.465   2.653
  509SOL    HW2 1557   0.612   2.433   2.810
  510SOL     OW 1558   1.582   2.501   2.334
  510SOL    HW1 1559   1.551   2.562   2.407
  510SOL    HW2 1560   1.632   2.553   2.265
  511SOL     OW 1561   0.573   2.732   2.891
  511SOL    HW1 1562   0.617   2.821   2.882
  511SOL    HW2 1563   0.510   2.732   2.968
  512SOL     OW 1564   1.209   2.387   2.137
  512SOL    HW1 1565   1.222   2.303   2.191
  512SOL    HW2 1566   1.180   2.461   2.197
  513SOL     OW 1567   0.307   2.075   3.093
  513SOL    HW1 1568   0.284   2.112   3.183
  513SOL    HW2 1569   0.277   1.980   3.087
  514SOL     OW 1570   0.732   2.496   2.926
  514SOL    HW1 1571   0.791   2.470   2.850
  514SOL    HW2 1572   0.704   2.592   2.915
  515SOL     OW 1573   0.307   1.925   2.480
  515SOL    HW1 1574   0.296   2.019   2.513
  515SOL    HW2 1575   0.302   1.862   2.557
  516SOL     OW 1576   1.622   2.229   2.236
  516SOL    HW1 1577   1.624   2.153   2.300
  516SOL    HW2 1578   1.574   2.306   2.276
  517SOL     OW 1579   1.023   2.628   2.828
  517SOL    HW1 1580   1.038   2.649   2.924
  517SOL    HW2 1581   0.993   2.533   2.819
  518SOL     OW 1582   1.540   2.136   1.987
  518SOL    HW1 1583   1.479   2.061   2.010
  518SOL    HW2 1584   1.562   2.188   2.070
  519SOL     OW 1585   1.303   2.700   1.904
  519SOL    HW1 1586   1.337   2.607   1.919
  519SOL    HW2 1587   1.321   2.727   1.809
  520SOL     OW 1588   0.319   2.672   2.811
  520SOL    HW1 1589   0.412   2.708   2.816
  520SOL    HW2 1590   0.313   2.587   2.863
  521SOL     OW 1591   0.339   2.371   2.868
  521SOL    HW1 1592   0.287   2.288   2.851
  521SOL    HW2 1593   0.416   2.376   2.804
  522SOL     OW 1594   1.002   2.658   3.100
  522SOL    HW1 1595   1.043   2.626   3.186
  522SOL    HW2 1596   0.906   2.631   3.097
  523SOL     OW 1597   0.815   2.434   2.187
  523SOL    HW1 1598   0.822   2.345   2.141
  523SOL    HW2 1599   0.721   2.468   2.179
  524SOL     OW 1600   0.671   2.326   3.131
  524SOL    HW1 1601   0.637   2.237   3.101
  524SOL    HW2 1602   0.697   2.380   3.051
  525SOL     OW 1603   0.473   2.362   2.053
  525SOL    HW1 1604   0.534   2.442   2.057
  525SOL    HW2 1605   0.378   2.393   2.060
  526SOL     OW 1606   1.302   2.717   2.171
  526SOL    HW1 1607   1.216   2.686   2.213
  526SOL    HW2 1608   1.298   2.703   2.072
  527SOL     OW 1609   0.083   3.120   2.884
  527SOL    HW1 1610   0.078   3.119   2.984
  527SOL    HW2 1611   0.000   3.079   2.846
  528SOL     OW 1612   1.726   1.997   2.385
  528SOL    HW1 1613   1.799   1.980   2.318
  528SOL    HW2 1614   1.695   1.910   2.423
  529SOL     OW 1615   1.280   2.789   2.534
  529SOL    HW1 1616   1.340   2.708   2.536
  529SOL    HW2 1617   1.320   2.858   2.474
  530SOL     OW 1618   1.841   2.037   2.825
  530SOL    HW1 1619   1.880   1.952   2.789
  530SOL    HW2 1620   1.743   2.039   2.806
  531SOL     OW 1621   0.263   2.188   2.582
  531SOL    HW1 1622   0.184   2.239   2.548
  531SOL    HW2 1623   0.254   2.173   2.680
  532SOL     OW 1624   0.916   2.772   2.153
  532SOL    HW1 1625   0.979   2.810   2.085
  532SOL    HW2 1626   0.956   2.689   2.192
  533SOL     OW 1627   1.014   2.098   2.833
  533SOL    HW1 1628   1.006   2.062   2.740
  533SOL    HW2 1629   1.012   2.022   2.898
  534SOL     OW 1630   0.075   2.207   1.895
  534SOL    HW1 1631  -0.017   2.179   1.866
  534SOL    HW2 1632   0.106   2.284   1.839
  535SOL     OW 1633   0.072   2.028   2.180
  535SOL    HW1 1634   0.055   2.111   2.126
  535SOL    HW2 1635   0.162   1.991   2.158
  536SOL     OW 1636   1.183   3.197   1.981
  536SOL    HW1 1637   1.084   3.186   1.983
  536SOL    HW2 1638   1.217   3.212   2.074
  537SOL     OW 1639   1.674   2.745   3.116
  537SOL    HW1 1640   1.647   2.656   3.079
  537SOL    HW2 1641   1.675   2.813   3.043
  538SOL     OW 1642   1.225   2.187   2.311
  538SOL    HW1 1643   1.290   2.113   2.300
  538SOL    HW2 1644   1.245   2.237   2.395
  539SOL     OW 1645   0.594   2.607   2.514
  539SOL    HW1 1646   0.644   2.692   2.495
  539SOL    HW2 1647   0.506   2.609   2.466
  540SOL     OW 1648   0.859   2.818   2.723
  540SOL    HW1 1649   0.913   2.749   2.771
  540SOL    HW2 1650   0.827   2.887   2.789
  541SOL     OW 1651   1.083   2.846   1.949
  541SOL    HW1 1652   1.060   2.899   1.867
  541SOL    HW2 1653   1.164   2.790   1.930
  542SOL     OW 1654   1.824   2.054   3.089
  542SOL    HW1 1655   1.820   1.964   3.133
  542SOL    HW2 1656   1.827   2.043   2.990
  543SOL     OW 1657   0.428   2.286   2.382
  543SOL    HW1 1658   0.458   2.214   2.320
  543SOL    HW2 1659   0.389   2.246   2.465
  544SOL     OW 1660   1.424   2.076   2.974
  544SOL    HW1 1661   1.476   2.011   3.029
  544SOL    HW2 1662   1.375   2.139   3.035
  545SOL     OW 1663   0.770   3.192   2.163
  545SOL    HW1 1664   0.724   3.105   2.180
  545SOL    HW2 1665   0.861   3.189   2.204
  546SOL     OW 1666   1.300   2.315   2.553
  546SOL    HW1 1667   1.241   2.395   2.557
  546SOL    HW2 1668   1.315   2.280   2.646
  547SOL     OW 1669   1.593   2.083   2.744
  547SOL    HW1 1670   1.509   2.082   2.798
  547SOL    HW2 1671   1.595   2.166   2.688
  548SOL     OW 1672   0.039   2.939   2.162
  548SOL    HW1 1673   0.138   2.928   2.153
  548SOL    HW2 1674  -0.001   2.853   2.194
  549SOL     OW 1675   2.092   0.628   0.113
  549SOL    HW1 1676   1.999   0.626   0.150
  549SOL    HW2 1677   2.093   0.589   0.021
  550SOL     OW 1678   2.087   0.275   0.996
  550SOL    HW1 1679   2.122   0.258   1.088
  550SOL    HW2 1680   1.999   0.230   0.984
  551SOL     OW 1681   1.881   0.368   0.647
  551SOL    HW1 1682   1.799   0.411   0.686
  551SOL    HW2 1683   1.853   0.295   0.584
  552SOL     OW 1684   2.431   1.275   1.165
  552SOL    HW1 1685   2.338   1.268   1.128
  552SOL    HW2 1686   2.442   1.364   1.209
  553SOL     OW 1687   2.630   1.144   1.023
  553SOL    HW1 1688   2.552   1.161   1.083
  553SOL    HW2 1689   2.664   1.231   0.987
  554SOL     OW 1690   2.712   0.798   1.823
  554SOL    HW1 1691   2.708   0.874   1.888
  554SOL    HW2 1692   2.734   0.834   1.732
  555SOL     OW 1693   2.547   1.012   0.665
  555SOL    HW1 1694   2.616   0.996   0.735
  555SOL    HW2 1695   2.474   1.069   0.703
  556SOL     OW 1696   2.548   1.161   1.803
  556SOL    HW1 1697   2.608   1.240   1.817
  556SOL    HW2 1698   2.462   1.192   1.762
  557SOL     OW 1699   2.197   1.435   1.061
  557SOL    HW1 1700   2.119   1.404   1.008
  557SOL    HW2 1701   2.255   1.493   1.004
  558SOL     OW 1702   2.300   0.392   1.499
  558SOL    HW1 1703   2.382   0.336   1.508
  558SOL    HW2 1704   2.219   0.334   1.503
  559SOL     OW 1705   2.093   1.713   0.483
  559SOL    HW1 1706   2.127   1.790   0.537
  559SOL    HW2 1707   2.137   1.713   0.393
  560SOL     OW 1708   2.989   1.341   1.690
  560SOL    HW1 1709   3.036   1.341   1.778
  560SOL    HW2 1710   2.941   1.254   1.679
  561SOL     OW 1711   2.092   1.434   0.538
  561SOL    HW1 1712   2.066   1.530   0.538
  561SOL    HW2 1713   2.021   1.380   0.583
  562SOL     OW 1714   2.102   1.091   0.886
  562SOL    HW1 1715   2.116   1.007   0.938
  562SOL    HW2 1716   2.047   1.155   0.941
  563SOL     OW 1717   2.482   1.786   1.439
  563SOL    HW1 1718   2.390   1.769   1.474
  563SOL    HW2 1719   2.510   1.878   1.465
  564SOL     OW 1720   2.468   0.964   0.123
  564SOL    HW1 1721   2.475   1.048   0.069
  564SOL    HW2 1722   2.514   0.977   0.211
  565SOL     OW 1723   1.984   0.643   0.563
  565SOL    HW1 1724   1.939   0.555   0.580
  565SOL    HW2 1725   1.983   0.697   0.647
  566SOL     OW 1726   1.889   1.596   0.117
  566SOL    HW1 1727   1.870   1.500   0.138
  566SOL    HW2 1728   1.856   1.654   0.192
  567SOL     OW 1729   1.975   0.737   1.597
  567SOL    HW1 1730   2.063   0.724   1.642
  567SOL    HW2 1731   1.962   0.834   1.575
  568SOL     OW 1732   2.475   1.365   0.726
  568SOL    HW1 1733   2.426   1.278   0.735
  568SOL    HW2 1734   2.452   1.408   0.639
  569SOL     OW 1735   2.671   0.004   0.502
  569SOL    HW1 1736   2.711   0.095   0.493
  569SOL    HW2 1737   2.571   0.012   0.508
  570SOL     OW 1738   2.059   0.976   1.264
  570SOL    HW1 1739   2.148   0.931   1.250
  570SOL    HW2 1740   1.986   0.911   1.245
  571SOL     OW 1741   2.179   0.251   1.801
  571SOL    HW1 1742   2.250   0.322   1.807
  571SOL    HW2 1743   2.091   0.290   1.829
  572SOL     OW 1744   2.460   0.729   0.270
  572SOL    HW1 1745   2.484   0.798   0.202
  572SOL    HW2 1746   2.382   0.762   0.324
  573SOL     OW 1747   2.669   0.605   1.465
  573SOL    HW1 1748   2.622   0.602   1.554
  573SOL    HW2 1749   2.618   0.550   1.399
  574SOL     OW 1750   2.835   0.890   1.572
  574SOL    HW1 1751   2.881   0.806   1.543
  574SOL    HW2 1752   2.779   0.924   1.497
  575SOL     OW 1753   2.853   0.410   1.242
  575SOL    HW1 1754   2.776   0.444   1.296
  575SOL    HW2 1755   2.819   0.359   1.163
  576SOL     OW 1756   2.903   0.701   0.429
  576SOL    HW1 1757   2.929   0.697   0.525
  576SOL    HW2 1758   2.818   0.650   0.415
  577SOL     OW 1759   1.938   0.811   0.789
  577SOL    HW1 1760   2.037   0.799   0.798
  577SOL    HW2 1761   1.914   0.906   0.810
  578SOL     OW 1762   1.992   1.821   1.571
  578SOL    HW1 1763   1.982   1.806   1.670
  578SOL    HW2 1764   1.906   1.857   1.535
  579SOL     OW 1765   2.727   0.348   0.195
  579SOL    HW1 1766   2.786   0.411   0.146
  579SOL    HW2 1767   2.746   0.254   0.166
  580SOL     OW 1768   2.412   0.196   0.885
  580SOL    HW1 1769   2.407   0.191   0.985
  580SOL    HW2 1770   2.414   0.292   0.856
  581SOL     OW 1771   2.870   1.456   0.477
  581SOL    HW1 1772   2.824   1.528   0.425
  581SOL    HW2 1773   2.866   1.476   0.575
  582SOL     OW 1774   2.213   1.801   0.853
  582SOL    HW1 1775   2.263   1.715   0.859
  582SOL    HW2 1776   2.278   1.878   0.850
  583SOL     OW 1777   2.183   0.943   0.242
  583SOL    HW1 1778   2.265   0.982   0.200
  583SOL    HW2 1779   2.156   0.861   0.193
  584SOL     OW 1780   2.323   1.266   1.727
  584SOL    HW1 1781   2.273   1.267   1.641
  584SOL    HW2 1782   2.260   1.248   1.803
  585SOL     OW 1783   2.064   0.285   1.498
  585SOL    HW1 1784   1.984   0.345   1.485
  585SOL    HW2 1785   2.054   0.236   1.584
  586SOL     OW 1786   2.326   1.743   0.323
  586SOL    HW1 1787   2.359   1.782   0.409
  586SOL    HW2 1788   2.402   1.736   0.258
  587SOL     OW 1789   2.111   1.785   1.241
  587SOL    HW1 1790   2.168   1.720   1.291
  587SOL    HW2 1791   2.095   1.752   1.148
  588SOL     OW 1792   2.802   1.698   0.904
  588SOL    HW1 1793   2.882   1.641   0.925
  588SOL    HW2 1794   2.753   1.658   0.827
  589SOL     OW 1795   2.244   0.700   0.480
  589SOL    HW1 1796   2.289   0.610   0.477
  589SOL    HW2 1797   2.150   0.689   0.513
  590SOL     OW 1798   2.476   0.122   0.117
  590SOL    HW1 1799   2.574   0.100   0.124
  590SOL    HW2 1800   2.445   0.105   0.024
  591SOL     OW 1801   2.643   0.264   1.749
  591SOL    HW1 1802   2.710   0.203   1.792
  591SOL    HW2 1803   2.570   0.283   1.814
  592SOL     OW 1804   2.750   1.514   1.195
  592SOL    HW1 1805   2.727   1.489   1.101
  592SOL    HW2 1806   2.811   1.445   1.234
  593SOL     OW 1807   2.665   1.402   0.924
  593SOL    HW1 1808   2.755   1.416   0.882
  593SOL    HW2 1809   2.594   1.404   0.853
  594SOL     OW 1810   2.784   0.503   0.899
  594SOL    HW1 1811   2.759   0.494   0.803
  594SOL    HW2 1812   2.832   0.421   0.930
  595SOL     OW 1813   2.401   0.064   0.512
  595SOL    HW1 1814   2.320   0.065   0.570
  595SOL    HW2 1815   2.404   0.147   0.457
  596SOL     OW 1816   3.296   1.188   0.041
  596SOL    HW1 1817   3.328   1.112   0.098
  596SOL    HW2 1818   3.204   1.215   0.071
  597SOL     OW 1819   2.159   0.035   0.171
  597SOL    HW1 1820   2.208   0.119   0.150
  597SOL    HW2 1821   2.221  -0.030   0.216
  598SOL     OW 1822   2.797   0.236   0.480
  598SOL    HW1 1823   2.749   0.277   0.402
  598SOL    HW2 1824   2.896   0.234   0.461
  599SOL     OW 1825   3.089   1.570   0.793
  599SOL    HW1 1826   3.110   1.644   0.728
  599SOL    HW2 1827   3.157   1.570   0.866
  600SOL     OW 1828   2.321   1.152   0.741
  600SOL    HW1 1829   2.250   1.125   0.806
  600SOL    HW2 1830   2.295   1.124   0.648
  601SOL     OW 1831   3.133   1.797   0.591
  601SOL    HW1 1832   3.177   1.861   0.527
  601SOL    HW2 1833   3.083   1.849   0.661
  602SOL     OW 1834   2.894   0.549   0.016
  602SOL    HW1 1835   2.853   0.631  -0.023
  602SOL    HW2 1836   2.958   0.575   0.089
  603SOL     OW 1837   1.940   0.556   1.386
  603SOL    HW1 1838   2.032   0.555   1.345
  603SOL    HW2 1839   1.934   0.630   1.453
  604SOL     OW 1840   2.423   0.222   1.147
  604SOL    HW1 1841   2.461   0.138   1.184
  604SOL    HW2 1842   2.335   0.241   1.191
  605SOL     OW 1843   2.728   0.454   0.642
  605SOL    HW1 1844   2.696   0.526   0.580
  605SOL    HW2 1845   2.752   0.373   0.589
  606SOL     OW 1846   2.879   0.039   0.753
  606SOL    HW1 1847   2.807   0.044   0.684
  606SOL    HW2 1848   2.855  -0.030   0.822
  607SOL     OW 1849   2.350   1.385   0.174
  607SOL    HW1 1850   2.263   1.370   0.221
  607SOL    HW2 1851   2.333   1.411   0.079
  608SOL     OW 1852   2.389   0.256   0.328
  608SOL    HW1 1853   2.416   0.197   0.253
  608SOL    HW2 1854   2.389   0.351   0.297
  609SOL     OW 1855   2.777   0.089   1.402
  609SOL    HW1 1856   2.802   0.069   1.307
  609SOL    HW2 1857   2.849   0.145   1.444
  610SOL     OW 1858   2.842   1.116   1.719
  610SOL    HW1 1859   2.743   1.122   1.729
  610SOL    HW2 1860   2.865   1.036   1.663
  611SOL     OW 1861   2.567   1.050   0.368
  611SOL    HW1 1862   2.553   1.057   0.467
  611SOL    HW2 1863   2.651   0.999   0.350
  612SOL     OW 1864   2.272   0.813   1.251
  612SOL    HW1 1865   2.358   0.825   1.301
  612SOL    HW2 1866   2.230   0.726   1.278
  613SOL     OW 1867   1.926   1.564   1.331
  613SOL    HW1 1868   1.880   1.646   1.297
  613SOL    HW2 1869   2.024   1.583   1.340
  614SOL     OW 1870   2.229   1.100   0.501
  614SOL    HW1 1871   2.222   1.183   0.445
  614SOL    HW2 1872   2.233   1.020   0.441
  615SOL     OW 1873   2.428   0.537   0.865
  615SOL    HW1 1874   2.440   0.603   0.791
  615SOL    HW2 1875   2.474   0.571   0.948
  616SOL     OW 1876   2.216   1.510   1.329
  616SOL    HW1 1877   2.195   1.466   1.242
  616SOL    HW2 1878   2.313   1.536   1.332
  617SOL     OW 1879   2.264   0.751   1.598
  617SOL    HW1 1880   2.332   0.806   1.551
  617SOL    HW2 1881   2.304   0.663   1.625
  618SOL     OW 1882   2.875   0.105   1.770
  618SOL    HW1 1883   2.881   0.190   1.718
  618SOL    HW2 1884   2.907   0.029   1.713
  619SOL     OW 1885   2.366   0.050   1.740
  619SOL    HW1 1886   2.324  -0.007   1.670
  619SOL    HW2 1887   2.300   0.119   1.772
  620SOL     OW 1888   2.435   0.870   1.029
  620SOL    HW1 1889   2.479   0.959   1.020
  620SOL    HW2 1890   2.372   0.870   1.106
  621SOL     OW 1891   3.071   0.525   0.275
  621SOL    HW1 1892   3.084   0.441   0.329
  621SOL    HW2 1893   3.042   0.599   0.335
  622SOL     OW 1894   2.169   0.213   1.231
  622SOL    HW1 1895   2.146   0.250   1.321
  622SOL    HW2 1896   2.139   0.118   1.225
  623SOL     OW 1897   2.594   0.634   1.064
  623SOL    HW1 1898   2.653   0.608   0.988
  623SOL    HW2 1899   2.566   0.730   1.053
  624SOL     OW 1900   2.169   0.063   0.618
  624SOL    HW1 1901   2.158   0.157   0.651
  624SOL    HW2 1902   2.164   0.000   0.695
  625SOL     OW 1903   2.885   0.766   0.966
  625SOL    HW1 1904   2.900   0.787   1.062
  625SOL    HW2 1905   2.855   0.671   0.957
  626SOL     OW 1906   2.842   1.573   1.700
  626SOL    HW1 1907   2.822   1.617   1.612
  626SOL    HW2 1908   2.881   1.482   1.684
  627SOL     OW 1909   2.212   0.898   1.804
  627SOL    HW1 1910   2.288   0.942   1.852
  627SOL    HW2 1911   2.247   0.851   1.722
  628SOL     OW 1912   2.930   1.333   0.849
  628SOL    HW1 1913   2.937   1.249   0.794
  628SOL    HW2 1914   2.992   1.402   0.813
  629SOL     OW 1915   2.181   0.810   0.949
  629SOL    HW1 1916   2.274   0.846   0.954
  629SOL    HW2 1917   2.175   0.725   1.001
  630SOL     OW 1918   2.201   0.509   1.006
  630SOL    HW1 1919   2.149   0.426   0.989
  630SOL    HW2 1920   2.278   0.514   0.942
  631SOL     OW 1921   3.000   0.380   1.678
  631SOL    HW1 1922   2.955   0.443   1.742
  631SOL    HW2 1923   3.093   0.411   1.661
  632SOL     OW 1924   1.870   1.326   0.200
  632SOL    HW1 1925   1.777   1.347   0.169
  632SOL    HW2 1926   1.880   1.227   0.213
  633SOL     OW 1927   1.950   1.801   0.927
  633SOL    HW1 1928   1.908   1.715   0.900
  633SOL    HW2 1929   2.044   1.804   0.893
  634SOL     OW 1930   2.366   1.568   0.910
  634SOL    HW1 1931   2.432   1.642   0.919
  634SOL    HW2 1932   2.410   1.489   0.868
  635SOL     OW 1933   2.864   0.796   1.238
  635SOL    HW1 1934   2.905   0.764   1.324
  635SOL    HW2 1935   2.768   0.769   1.235
  636SOL     OW 1936   1.902   0.544   1.114
  636SOL    HW1 1937   1.987   0.511   1.073
  636SOL    HW2 1938   1.915   0.559   1.212
  637SOL     OW 1939   2.051   0.520   1.722
  637SOL    HW1 1940   2.110   0.480   1.652
  637SOL    HW2 1941   1.993   0.591   1.681
  638SOL     OW 1942   2.677   0.572   0.325
  638SOL    HW1 1943   2.684   0.483   0.279
  638SOL    HW2 1944   2.583   0.606   0.317
  639SOL     OW 1945   2.114   1.564   1.744
  639SOL    HW1 1946   2.084   1.621   1.820
  639SOL    HW2 1947   2.107   1.467   1.770
  640SOL     OW 1948   2.533   0.464   1.269
  640SOL    HW1 1949   2.499   0.375   1.239
  640SOL    HW2 1950   2.559   0.518   1.189
  641SOL     OW 1951   2.792   1.678   1.465
  641SOL    HW1 1952   2.768   1.660   1.370
  641SOL    HW2 1953   2.822   1.772   1.475
  642SOL     OW 1954   2.335   0.500   0.191
  642SOL    HW1 1955   2.396   0.580   0.195
  642SOL    HW2 1956   2.240   0.531   0.198
  643SOL     OW 1957   2.021   1.137   1.466
  643SOL    HW1 1958   2.043   1.076   1.542
  643SOL    HW2 1959   2.031   1.088   1.380
  644SOL     OW 1960   3.164   0.855   0.309
  644SOL    HW1 1961   3.078   0.824   0.351
  644SOL    HW2 1962   3.160   0.841   0.210
  645SOL     OW 1963   2.550   1.662   1.716
  645SOL    HW1 1964   2.494   1.743   1.725
  645SOL    HW2 1965   2.602   1.666   1.630
  646SOL     OW 1966   2.765   0.086   0.133
  646SOL    HW1 1967   2.816   0.087   0.047
  646SOL    HW2 1968   2.821   0.044   0.204
  647SOL     OW 1969   1.992   1.794   1.851
  647SOL    HW1 1970   1.951   1.720   1.904
  647SOL    HW2 1971   2.056   1.845   1.909
  648SOL     OW 1972   2.692   1.273   1.422
  648SOL    HW1 1973   2.687   1.306   1.517
  648SOL    HW2 1974   2.606   1.292   1.376
  649SOL     OW 1975   2.534   1.616   0.154
  649SOL    HW1 1976   2.543   1.626   0.055
  649SOL    HW2 1977   2.494   1.527   0.175
  650SOL     OW 1978   2.125   0.326   0.720
  650SOL    HW1 1979   2.046   0.377   0.686
  650SOL    HW2 1980   2.116   0.311   0.818
  651SOL     OW 1981   2.684   1.002   1.372
  651SOL    HW1 1982   2.724   1.001   1.280
  651SOL    HW2 1983   2.694   1.094   1.412
  652SOL     OW 1984   2.778   0.910   0.291
  652SOL    HW1 1985   2.841   0.948   0.223
  652SOL    HW2 1986   2.818   0.827   0.330
  653SOL     OW 1987   2.234   1.288   1.490
  653SOL    HW1 1988   2.221   1.381   1.456
  653SOL    HW2 1989   2.150   1.236   1.477
  654SOL     OW 1990   2.901   1.098   0.696
  654SOL    HW1 1991   2.831   1.051   0.750
  654SOL    HW2 1992   2.960   1.030   0.653
  655SOL     OW 1993   2.876   0.236   0.971
  655SOL    HW1 1994   2.868   0.200   0.878
  655SOL    HW2 1995   2.874   0.160   1.036
  656SOL     OW 1996   2.452   1.487   0.491
  656SOL    HW1 1997   2.494   1.429   0.421
  656SOL    HW2 1998   2.408   1.566   0.447
  657SOL     OW 1999   2.117   1.348   0.290
  657SOL    HW1 2000   2.021   1.349   0.263
  657SOL    HW2 2001   2.129   1.401   0.374
  658SOL     OW 2002   1.967   1.013   1.726
  658SOL    HW1 2003   1.890   0.980   1.780
  658SOL    HW2 2004   2.052   0.983   1.768
  659SOL     OW 2005   2.534   0.203   1.489
  659SOL    HW1 2006   2.624   0.187   1.449
  659SOL    HW2 2007   2.542   0.208   1.588
  660SOL     OW 2008   1.934   0.166   0.318
  660SOL    HW1 2009   1.917   0.249   0.264
  660SOL    HW2 2010   2.024   0.129   0.296
  661SOL     OW 2011   2.475   0.842   1.431
  661SOL    HW1 2012   2.531   0.923   1.414
  661SOL    HW2 2013   2.534   0.762   1.434
  662SOL     OW 2014   2.578   0.565   1.708
  662SOL    HW1 2015   2.597   0.630   1.782
  662SOL    HW2 2016   2.638   0.485   1.717
  663SOL     OW 2017   2.252   1.741   1.560
  663SOL    HW1 2018   2.161   1.782   1.558
  663SOL    HW2 2019   2.245   1.647   1.592
  664SOL     OW 2020   2.456   0.745   0.652
  664SOL    HW1 2021   2.506   0.830   0.633
  664SOL    HW2 2022   2.368   0.747   0.604
  665SOL     OW 2023   2.721   1.374   0.016
  665SOL    HW1 2024   2.675   1.389   0.104
  665SOL    HW2 2025   2.765   1.459  -0.014
  666SOL     OW 2026   2.523   1.790   0.953
  666SOL    HW1 2027   2.477   1.878   0.940
  666SOL    HW2 2028   2.622   1.802   0.946
  667SOL     OW 2029   2.721   0.956   0.861
  667SOL    HW1 2030   2.775   0.887   0.909
  667SOL    HW2 2031   2.689   1.025   0.927
  668SOL     OW 2032   2.945   0.984   0.087
  668SOL    HW1 2033   2.922   1.037   0.005
  668SOL    HW2 2034   3.026   0.928   0.068
  669SOL     OW 2035   2.083   1.314   1.844
  669SOL    HW1 2036   2.018   1.241   1.823
  669SOL    HW2 2037   2.087   1.328   1.942
  670SOL     OW 2038   1.941   1.240   0.653
  670SOL    HW1 2039   1.940   1.193   0.741
  670SOL    HW2 2040   2.023   1.212   0.602
  671SOL     OW 2041   2.534   1.391   1.624
  671SOL    HW1 2042   2.456   1.341   1.662
  671SOL    HW2 2043   2.531   1.486   1.655
  672SOL     OW 2044   2.290   0.424   0.520
  672SOL    HW1 2045   2.320   0.352   0.458
  672SOL    HW2 2046   2.251   0.384   0.603
  673SOL     OW 2047   2.179   0.547   1.280
  673SOL    HW1 2048   2.217   0.488   1.352
  673SOL    HW2 2049   2.219   0.521   1.192
  674SOL     OW 2050   2.674   1.586   0.687
  674SOL    HW1 2051   2.706   1.596   0.593
  674SOL    HW2 2052   2.595   1.524   0.689
  675SOL     OW 2053   2.863   0.034   1.154
  675SOL    HW1 2054   2.800  -0.038   1.123
  675SOL    HW2 2055   2.956  -0.002   1.154
  676SOL     OW 2056   2.632   1.330   0.301
  676SOL    HW1 2057   2.586   1.243   0.318
  676SOL    HW2 2058   2.723   1.327   0.342
  677SOL     OW 2059   2.480   1.567   1.284
  677SOL    HW1 2060   2.475   1.649   1.341
  677SOL    HW2 2061   2.569   1.564   1.239
  678SOL     OW 2062   1.901   1.077   0.300
  678SOL    HW1 2063   2.000   1.066   0.291
  678SOL    HW2 2064   1.861   0.991   0.332
  679SOL     OW 2065   2.737   1.646   0.337
  679SOL    HW1 2066   2.660   1.611   0.283
  679SOL    HW2 2067   2.705   1.717   0.399
  680SOL     OW 2068   2.092   0.628   1.975
  680SOL    HW1 2069   1.999   0.626   2.012
  680SOL    HW2 2070   2.093   0.589   1.883
  681SOL     OW 2071   2.087   0.275   2.858
  681SOL    HW1 2072   2.122   0.258   2.950
  681SOL    HW2 2073   1.999   0.230   2.846
  682SOL     OW 2074   1.881   0.368   2.509
  682SOL    HW1 2075   1.799   0.411   2.548
  682SOL    HW2 2076   1.853   0.295   2.446
  683SOL     OW 2077   2.630   1.144   2.885
  683SOL    HW1 2078   2.552   1.161   2.945
  683SOL    HW2 2079   2.664   1.231   2.849
  684SOL     OW 2080   2.547   1.012   2.527
  684SOL    HW1 2081   2.616   0.996   2.597
  684SOL    HW2 2082   2.474   1.069   2.565
  685SOL     OW 2083   2.197   1.435   2.923
  685SOL    HW1 2084   2.119   1.404   2.870
  685SOL    HW2 2085   2.255   1.493   2.866
  686SOL     OW 2086   2.093   1.713   2.345
  686SOL    HW1 2087   2.127   1.790   2.399
  686SOL    HW2 2088   2.137   1.713   2.255
  687SOL     OW 2089   2.092   1.434   2.400
  687SOL    HW1 2090   2.066   1.530   2.400
  687SOL    HW2 2091   2.021   1.380   2.445
  688SOL     OW 2092   2.102   1.091   2.748
  688SOL    HW1 2093   2.116   1.007   2.800
  688SOL    HW2 2094   2.047   1.155   2.803
  689SOL     OW 2095   2.468   0.964   1.985
  689SOL    HW1 2096   2.475   1.048   1.931
  689SOL    HW2 2097   2.514   0.977   2.073
  690SOL     OW 2098   1.984   0.643   2.425
  690SOL    HW1 2099   1.939   0.555   2.442
  690SOL    HW2 2100   1.983   0.697   2.509
  691SOL     OW 2101   1.889   1.596   1.979
  691SOL    HW1 2102   1.870   1.500   2.000
  691SOL    HW2 2103   1.856   1.654   2.054
  692SOL     OW 2104   2.475   1.365   2.588
  692SOL    HW1 2105   2.426   1.278   2.597
  692SOL    HW2 2106   2.452   1.408   2.501
  693SOL     OW 2107   2.671   0.004   2.364
  693SOL    HW1 2108   2.711   0.095   2.355
  693SOL    HW2 2109   2.571   0.012   2.370
  694SOL     OW 2110   2.460   0.729   2.132
  694SOL    HW1 2111   2.484   0.798   2.064
  694SOL    HW2 2112   2.382   0.762   2.186
  695SOL     OW 2113   2.903   0.701   2.291
  695SOL    HW1 2114   2.929   0.697   2.387
  695SOL    HW2 2115   2.818   0.650   2.277
  696SOL     OW 2116   1.938   0.811   2.651
  696SOL    HW1 2117   2.037   0.799   2.660
  696SOL    HW2 2118   1.914   0.906   2.672
  697SOL     OW 2119   2.727   0.348   2.057
  697SOL    HW1 2120   2.786   0.411   2.008
  697SOL    HW2 2121   2.746   0.254   2.028
  698SOL     OW 2122   2.412   0.196   2.747
  698SOL    HW1 2123   2.407   0.191   2.847
  698SOL    HW2 2124   2.414   0.292   2.718
  699SOL     OW 2125   2.870   1.456   2.339
  699SOL    HW1 2126   2.824   1.528   2.287
  699SOL    HW2 2127   2.866   1.476   2.437
  700SOL     OW 2128   2.213   1.801   2.715
  700SOL    HW1 2129   2.263   1.715   2.721
  700SOL    HW2 2130   2.278   1.878   2.712
  701SOL     OW 2131   2.183   0.943   2.104
  701SOL    HW1 2132   2.265   0.982   2.062
  701SOL    HW2 2133   2.156   0.861   2.055
  702SOL     OW 2134   2.326   1.743   2.185
  702SOL    HW1 2135   2.359   1.782   2.271
  702SOL    HW2 2136   2.402   1.736   2.120
  703SOL     OW 2137   2.111   1.785   3.103
  703SOL    HW1 2138   2.168   1.720   3.153
  703SOL    HW2 2139   2.095   1.752   3.010
  704SOL     OW 2140   2.802   1.698   2.766
  704SOL    HW1 2141   2.882   1.641   2.787
  704SOL    HW2 2142   2.753   1.658   2.689
  705SOL     OW 2143   2.244   0.700   2.342
  705SOL    HW1 2144   2.289   0.610   2.339
  705SOL    HW2 2145   2.150   0.689   2.375
  706SOL     OW 2146   2.476   0.122   1.979
  706SOL    HW1 2147   2.574   0.100   1.986
  706SOL    HW2 2148   2.445   0.105   1.886
  707SOL     OW 2149   2.665   1.402   2.786
  707SOL    HW1 2150   2.755   1.416   2.744
  707SOL    HW2 2151   2.594   1.404   2.715
  708SOL     OW 2152   2.784   0.503   2.761
  708SOL    HW1 2153   2.759   0.494   2.665
  708SOL    HW2 2154   2.832   0.421   2.792
  709SOL     OW 2155   2.401   0.064   2.374
  709SOL    HW1 2156   2.320   0.065   2.432
  709SOL    HW2 2157   2.404   0.147   2.319
  710SOL     OW 2158   2.159   0.035   2.033
  710SOL    HW1 2159   2.208   0.119   2.012
  710SOL    HW2 2160   2.221  -0.030   2.078
  711SOL     OW 2161   2.797   0.236   2.342
  711SOL    HW1 2162   2.749   0.277   2.264
  711SOL    HW2 2163   2.896   0.234   2.323
  712SOL     OW 2164   3.089   1.570   2.655
  712SOL    HW1 2165   3.110   1.644   2.590
  712SOL    HW2 2166   3.157   1.570   2.728
  713SOL     OW 2167   2.321   1.152   2.603
  713SOL    HW1 2168   2.250   1.125   2.668
  713SOL    HW2 2169   2.295   1.124   2.510
  714SOL     OW 2170   3.133   1.797   2.453
  714SOL    HW1 2171   3.177   1.861   2.389
  714SOL    HW2 2172   3.083   1.849   2.523
  715SOL     OW 2173   2.894   0.549   1.878
  715SOL    HW1 2174   2.853   0.631   1.839
  715SOL    HW2 2175   2.958   0.575   1.951
  716SOL     OW 2176   2.728   0.454   2.504
  716SOL    HW1 2177   2.696   0.526   2.442
  716SOL    HW2 2178   2.752   0.373   2.451
  717SOL     OW 2179   2.879   0.039   2.615
  717SOL    HW1 2180   2.807   0.044   2.546
  717SOL    HW2 2181   2.855  -0.030   2.684
  718SOL     OW 2182   2.350   1.385   2.036
  718SOL    HW1 2183   2.263   1.370   2.083
  718SOL    HW2 2184   2.333   1.411   1.941
  719SOL     OW 2185   2.389   0.256   2.190
  719SOL    HW1 2186   2.416   0.197   2.115
  719SOL    HW2 2187   2.389   0.351   2.159
  720SOL     OW 2188   2.567   1.050   2.230
  720SOL    HW1 2189   2.553   1.057   2.329
  720SOL    HW2 2190   2.651   0.999   2.212
  721SOL     OW 2191   2.272   0.813   3.113
  721SOL    HW1 2192   2.358   0.825   3.163
  721SOL    HW2 2193   2.230   0.726   3.140
  722SOL     OW 2194   2.229   1.100   2.363
  722SOL    HW1 2195   2.222   1.183   2.307
  722SOL    HW2 2196   2.233   1.020   2.303
  723SOL     OW 2197   2.428   0.537   2.727
  723SOL    HW1 2198   2.440   0.603   2.653
  723SOL    HW2 2199   2.474   0.571   2.810
  724SOL     OW 2200   2.216   1.510   3.191
  724SOL    HW1 2201   2.195   1.466   3.104
  724SOL    HW2 2202   2.313   1.536   3.194
  725SOL     OW 2203   2.435   0.870   2.891
  725SOL    HW1 2204   2.479   0.959   2.882
  725SOL    HW2 2205   2.372   0.870   2.968
  726SOL     OW 2206   3.071   0.525   2.137
  726SOL    HW1 2207   3.084   0.441   2.191
  726SOL    HW2 2208   3.042   0.599   2.197
  727SOL     OW 2209   2.594   0.634   2.926
  727SOL    HW1 2210   2.653   0.608   2.850
  727SOL    HW2 2211   2.566   0.730   2.915
  728SOL     OW 2212   2.169   0.063   2.480
  728SOL    HW1 2213   2.158   0.157   2.513
  728SOL    HW2 2214   2.164   0.000   2.557
  729SOL     OW 2215   2.885   0.766   2.828
  729SOL    HW1 2216   2.900   0.787   2.924
  729SOL    HW2 2217   2.855   0.671   2.819
  730SOL     OW 2218   2.930   1.333   2.711
  730SOL    HW1 2219   2.937   1.249   2.656
  730SOL    HW2 2220   2.992   1.402   2.675
  731SOL     OW 2221   2.181   0.810   2.811
  731SOL    HW1 2222   2.274   0.846   2.816
  731SOL    HW2 2223   2.175   0.725   2.863
  732SOL     OW 2224   2.201   0.509   2.868
  732SOL    HW1 2225   2.149   0.426   2.851
  732SOL    HW2 2226   2.278   0.514   2.804
  733SOL     OW 2227   1.870   1.326   2.062
  733SOL    HW1 2228   1.777   1.347   2.031
  733SOL    HW2 2229   1.880   1.227   2.075
  734SOL     OW 2230   1.950   1.801   2.789
  734SOL    HW1 2231   1.908   1.715   2.762
  734SOL    HW2 2232   2.044   1.804   2.755
  735SOL     OW 2233   2.366   1.568   2.772
  735SOL    HW1 2234   2.432   1.642   2.781
  735SOL    HW2 2235   2.410   1.489   2.730
  736SOL     OW 2236   2.864   0.796   3.100
  736SOL    HW1 2237   2.905   0.764   3.186
  736SOL    HW2 2238   2.768   0.769   3.097
  737SOL     OW 2239   1.902   0.544   2.976
  737SOL    HW1 2240   1.987   0.511   2.935
  737SOL    HW2 2241   1.915   0.559   3.074
  738SOL     OW 2242   2.677   0.572   2.187
  738SOL    HW1 2243   2.684   0.483   2.141
  738SOL    HW2 2244   2.583   0.606   2.179
  739SOL     OW 2245   2.533   0.464   3.131
  739SOL    HW1 2246   2.499   0.375   3.101
  739SOL    HW2 2247   2.559   0.518   3.051
  740SOL     OW 2248   2.335   0.500   2.053
  740SOL    HW1 2249   2.396   0.580   2.057
  740SOL    HW2 2250   2.240   0.531   2.060
  741SOL     OW 2251   3.164   0.855   2.171
  741SOL    HW1 2252   3.078   0.824   2.213
  741SOL    HW2 2253   3.160   0.841   2.072
  742SOL     OW 2254   1.945   1.258   2.884
  742SOL    HW1 2255   1.940   1.257   2.984
  742SOL    HW2 2256   1.862   1.217   2.846
  743SOL     OW 2257   2.534   1.616   2.016
  743SOL    HW1 2258   2.543   1.626   1.917
  743SOL    HW2 2259   2.494   1.527   2.037
  744SOL     OW 2260   2.125   0.326   2.582
  744SOL    HW1 2261   2.046   0.377   2.548
  744SOL    HW2 2262   2.116   0.311   2.680
  745SOL     OW 2263   2.778   0.910   2.153
  745SOL    HW1 2264   2.841   0.948   2.085
  745SOL    HW2 2265   2.818   0.827   2.192
  746SOL     OW 2266   2.901   1.098   2.558
  746SOL    HW1 2267   2.831   1.051   2.612
  746SOL    HW2 2268   2.960   1.030   2.515
  747SOL     OW 2269   2.876   0.236   2.833
  747SOL    HW1 2270   2.868   0.200   2.740
  747SOL    HW2 2271   2.874   0.160   2.898
  748SOL     OW 2272   2.452   1.487   2.353
  748SOL    HW1 2273   2.494   1.429   2.283
  748SOL    HW2 2274   2.408   1.566   2.309
  749SOL     OW 2275   2.117   1.348   2.152
  749SOL    HW1 2276   2.021   1.349   2.125
  749SOL    HW2 2277   2.129   1.401   2.236
  750SOL     OW 2278   1.937   0.345   1.895
  750SOL    HW1 2279   1.845   0.317   1.866
  750SOL    HW2 2280   1.968   0.422   1.839
  751SOL     OW 2281   1.934   0.166   2.180
  751SOL    HW1 2282   1.917   0.249   2.126
  751SOL    HW2 2283   2.024   0.129   2.158
  752SOL     OW 2284   2.456   0.745   2.514
  752SOL    HW1 2285   2.506   0.830   2.495
  752SOL    HW2 2286   2.368   0.747   2.466
  753SOL     OW 2287   2.721   1.374   1.878
  753SOL    HW1 2288   2.675   1.389   1.966
  753SOL    HW2 2289   2.765   1.459   1.848
  754SOL     OW 2290   2.523   1.790   2.815
  754SOL    HW1 2291   2.477   1.878   2.802
  754SOL    HW2 2292   2.622   1.802   2.808
  755SOL     OW 2293   2.721   0.956   2.723
  755SOL    HW1 2294   2.775   0.887   2.771
  755SOL    HW2 2295   2.689   1.025   2.789
  756SOL     OW 2296   2.945   0.984   1.949
  756SOL    HW1 2297   2.922   1.037   1.867
  756SOL    HW2 2298   3.026   0.928   1.930
  757SOL     OW 2299   1.941   1.240   2.515
  757SOL    HW1 2300   1.940   1.193   2.603
  757SOL    HW2 2301   2.023   1.212   2.464
  758SOL     OW 2302   2.290   0.424   2.382
  758SOL    HW1 2303   2.320   0.352   2.320
  758SOL    HW2 2304   2.251   0.384   2.465
  759SOL     OW 2305   2.674   1.586   2.549
  759SOL    HW1 2306   2.706   1.596   2.455
  759SOL    HW2 2307   2.595   1.524   2.551
  760SOL     OW 2308   2.632   1.330   2.163
  760SOL    HW1 2309   2.586   1.243   2.180
  760SOL    HW2 2310   2.723   1.327   2.204
  761SOL     OW 2311   1.901   1.077   2.162
  761SOL    HW1 2312   2.000   1.066   2.153
  761SOL    HW2 2313   1.861   0.991   2.194
  762SOL     OW 2314   2.737   1.646   2.199
  762SOL    HW1 2315   2.660   1.611   2.145
  762SOL    HW2 2316   2.705   1.717   2.261
  763SOL     OW 2317   2.092   2.490   0.113
  763SOL    HW1 2318   1.999   2.488   0.150
  763SOL    HW2 2319   2.093   2.451   0.021
  764SOL     OW 2320   2.087   2.137   0.996
  764SOL    HW1 2321   2.122   2.120   1.088
  764SOL    HW2 2322   1.999   2.092   0.984
  765SOL     OW 2323   1.881   2.230   0.647
  765SOL    HW1 2324   1.799   2.273   0.686
  765SOL    HW2 2325   1.853   2.157   0.584
  766SOL     OW 2326   2.630   3.006   1.023
  766SOL    HW1 2327   2.552   3.023   1.083
  766SOL    HW2 2328   2.664   3.093   0.987
  767SOL     OW 2329   2.712   2.660   1.823
  767SOL    HW1 2330   2.708   2.736   1.888
  767SOL    HW2 2331   2.734   2.696   1.732
  768SOL     OW 2332   2.547   2.874   0.665
  768SOL    HW1 2333   2.616   2.858   0.735
  768SOL    HW2 2334   2.474   2.931   0.703
  769SOL     OW 2335   2.300   2.254   1.499
  769SOL    HW1 2336   2.382   2.198   1.508
  769SOL    HW2 2337   2.219   2.196   1.503
  770SOL     OW 2338   2.092   3.296   0.538
  770SOL    HW1 2339   2.066   3.392   0.538
  770SOL    HW2 2340   2.021   3.242   0.583
  771SOL     OW 2341   2.102   2.953   0.886
  771SOL    HW1 2342   2.116   2.869   0.938
  771SOL    HW2 2343   2.047   3.017   0.941
  772SOL     OW 2344   2.468   2.826   0.123
  772SOL    HW1 2345   2.475   2.910   0.069
  772SOL    HW2 2346   2.514   2.839   0.211
  773SOL     OW 2347   1.984   2.505   0.563
  773SOL    HW1 2348   1.939   2.417   0.580
  773SOL    HW2 2349   1.983   2.559   0.647
  774SOL     OW 2350   1.975   2.599   1.597
  774SOL    HW1 2351   2.063   2.586   1.642
  774SOL    HW2 2352   1.962   2.696   1.575
  775SOL     OW 2353   2.671   1.866   0.502
  775SOL    HW1 2354   2.711   1.957   0.493
  775SOL    HW2 2355   2.571   1.874   0.508
  776SOL     OW 2356   2.059   2.838   1.264
  776SOL    HW1 2357   2.148   2.793   1.250
  776SOL    HW2 2358   1.986   2.773   1.245
  777SOL     OW 2359   2.179   2.113   1.801
  777SOL    HW1 2360   2.250   2.184   1.807
  777SOL    HW2 2361   2.091   2.152   1.829
  778SOL     OW 2362   2.460   2.591   0.270
  778SOL    HW1 2363   2.484   2.660   0.202
  778SOL    HW2 2364   2.382   2.624   0.324
  779SOL     OW 2365   2.669   2.467   1.465
  779SOL    HW1 2366   2.622   2.464   1.554
  779SOL    HW2 2367   2.618   2.412   1.399
  780SOL     OW 2368   2.835   2.752   1.572
  780SOL    HW1 2369   2.881   2.668   1.543
  780SOL    HW2 2370   2.779   2.786   1.497
  781SOL     OW 2371   2.853   2.272   1.242
  781SOL    HW1 2372   2.776   2.306   1.296
  781SOL    HW2 2373   2.819   2.221   1.163
  782SOL     OW 2374   2.903   2.563   0.429
  782SOL    HW1 2375   2.929   2.559   0.525
  782SOL    HW2 2376   2.818   2.512   0.415
  783SOL     OW 2377   1.938   2.673   0.789
  783SOL    HW1 2378   2.037   2.661   0.798
  783SOL    HW2 2379   1.914   2.768   0.810
  784SOL     OW 2380   2.727   2.210   0.195
  784SOL    HW1 2381   2.786   2.273   0.146
  784SOL    HW2 2382   2.746   2.116   0.166
  785SOL     OW 2383   2.412   2.058   0.885
  785SOL    HW1 2384   2.407   2.053   0.985
  785SOL    HW2 2385   2.414   2.154   0.856
  786SOL     OW 2386   2.183   2.805   0.242
  786SOL    HW1 2387   2.265   2.844   0.200
  786SOL    HW2 2388   2.156   2.723   0.193
  787SOL     OW 2389   2.064   2.147   1.498
  787SOL    HW1 2390   1.984   2.207   1.485
  787SOL    HW2 2391   2.054   2.098   1.584
  788SOL     OW 2392   2.244   2.562   0.480
  788SOL    HW1 2393   2.289   2.472   0.477
  788SOL    HW2 2394   2.150   2.551   0.513
  789SOL     OW 2395   2.476   1.984   0.117
  789SOL    HW1 2396   2.574   1.962   0.124
  789SOL    HW2 2397   2.445   1.967   0.024
  790SOL     OW 2398   2.643   2.126   1.749
  790SOL    HW1 2399   2.710   2.065   1.792
  790SOL    HW2 2400   2.570   2.145   1.814
  791SOL     OW 2401   2.784   2.365   0.899
  791SOL    HW1 2402   2.759   2.356   0.803
  791SOL    HW2 2403   2.832   2.283   0.930
  792SOL     OW 2404   2.401   1.926   0.512
  792SOL    HW1 2405   2.320   1.927   0.570
  792SOL    HW2 2406   2.404   2.009   0.457
  793SOL     OW 2407   2.797   2.098   0.480
  793SOL    HW1 2408   2.749   2.139   0.402
  793SOL    HW2 2409   2.896   2.096   0.461
  794SOL     OW 2410   2.321   3.014   0.741
  794SOL    HW1 2411   2.250   2.987   0.806
  794SOL    HW2 2412   2.295   2.986   0.648
  795SOL     OW 2413   2.894   2.411   0.016
  795SOL    HW1 2414   2.853   2.493  -0.023
  795SOL    HW2 2415   2.958   2.437   0.089
  796SOL     OW 2416   1.940   2.418   1.386
  796SOL    HW1 2417   2.032   2.417   1.345
  796SOL    HW2 2418   1.934   2.492   1.453
  797SOL     OW 2419   2.423   2.084   1.147
  797SOL    HW1 2420   2.461   2.000   1.184
  797SOL    HW2 2421   2.335   2.103   1.191
  798SOL     OW 2422   2.728   2.316   0.642
  798SOL    HW1 2423   2.696   2.388   0.580
  798SOL    HW2 2424   2.752   2.235   0.589
  799SOL     OW 2425   2.879   1.901   0.753
  799SOL    HW1 2426   2.807   1.906   0.684
  799SOL    HW2 2427   2.855   1.832   0.822
  800SOL     OW 2428   2.389   2.118   0.328
  800SOL    HW1 2429   2.416   2.059   0.253
  800SOL    HW2 2430   2.389   2.213   0.297
  801SOL     OW 2431   2.777   1.951   1.402
  801SOL    HW1 2432   2.802   1.931   1.307
  801SOL    HW2 2433   2.849   2.007   1.444
  802SOL     OW 2434   2.272   2.675   1.251
  802SOL    HW1 2435   2.358   2.687   1.301
  802SOL    HW2 2436   2.230   2.588   1.278
  803SOL     OW 2437   2.229   2.962   0.501
  803SOL    HW1 2438   2.222   3.045   0.445
  803SOL    HW2 2439   2.233   2.882   0.441
  804SOL     OW 2440   2.428   2.399   0.865
  804SOL    HW1 2441   2.440   2.465   0.791
  804SOL    HW2 2442   2.474   2.433   0.948
  805SOL     OW 2443   2.264   2.613   1.598
  805SOL    HW1 2444   2.332   2.668   1.551
  805SOL    HW2 2445   2.304   2.525   1.625
  806SOL     OW 2446   2.875   1.967   1.770
  806SOL    HW1 2447   2.881   2.052   1.718
  806SOL    HW2 2448   2.907   1.891   1.713
  807SOL     OW 2449   2.366   1.912   1.740
  807SOL    HW1 2450   2.324   1.855   1.670
  807SOL    HW2 2451   2.300   1.981   1.772
  808SOL     OW 2452   2.435   2.732   1.029
  808SOL    HW1 2453   2.479   2.821   1.020
  808SOL    HW2 2454   2.372   2.732   1.106
  809SOL     OW 2455   3.071   2.387   0.275
  809SOL    HW1 2456   3.084   2.303   0.329
  809SOL    HW2 2457   3.042   2.461   0.335
  810SOL     OW 2458   2.169   2.075   1.231
  810SOL    HW1 2459   2.146   2.112   1.321
  810SOL    HW2 2460   2.139   1.980   1.225
  811SOL     OW 2461   2.594   2.496   1.064
  811SOL    HW1 2462   2.653   2.470   0.988
  811SOL    HW2 2463   2.566   2.592   1.053
  812SOL     OW 2464   2.169   1.925   0.618
  812SOL    HW1 2465   2.158   2.019   0.651
  812SOL    HW2 2466   2.164   1.862   0.695
  813SOL     OW 2467   2.885   2.628   0.966
  813SOL    HW1 2468   2.900   2.649   1.062
  813SOL    HW2 2469   2.855   2.533   0.957
  814SOL     OW 2470   2.212   2.760   1.804
  814SOL    HW1 2471   2.288   2.804   1.852
  814SOL    HW2 2472   2.247   2.713   1.722
  815SOL     OW 2473   2.181   2.672   0.949
  815SOL    HW1 2474   2.274   2.708   0.954
  815SOL    HW2 2475   2.175   2.587   1.001
  816SOL     OW 2476   2.201   2.371   1.006
  816SOL    HW1 2477   2.149   2.288   0.989
  816SOL    HW2 2478   2.278   2.376   0.942
  817SOL     OW 2479   3.000   2.242   1.678
  817SOL    HW1 2480   2.955   2.305   1.742
  817SOL    HW2 2481   3.093   2.273   1.661
  818SOL     OW 2482   3.022   2.069   1.477
  818SOL    HW1 2483   3.022   2.133   1.554
  818SOL    HW2 2484   3.050   2.117   1.394
  819SOL     OW 2485   2.864   2.658   1.238
  819SOL    HW1 2486   2.905   2.626   1.324
  819SOL    HW2 2487   2.768   2.631   1.235
  820SOL     OW 2488   1.902   2.406   1.114
  820SOL    HW1 2489   1.987   2.373   1.073
  820SOL    HW2 2490   1.915   2.421   1.212
  821SOL     OW 2491   2.051   2.382   1.722
  821SOL    HW1 2492   2.110   2.342   1.652
  821SOL    HW2 2493   1.993   2.453   1.681
  822SOL     OW 2494   2.677   2.434   0.325
  822SOL    HW1 2495   2.684   2.345   0.279
  822SOL    HW2 2496   2.583   2.468   0.317
  823SOL     OW 2497   2.533   2.326   1.269
  823SOL    HW1 2498   2.499   2.237   1.239
  823SOL    HW2 2499   2.559   2.380   1.189
  824SOL     OW 2500   2.335   2.362   0.191
  824SOL    HW1 2501   2.396   2.442   0.195
  824SOL    HW2 2502   2.240   2.393   0.198
  825SOL     OW 2503   2.021   2.999   1.466
  825SOL    HW1 2504   2.043   2.938   1.542
  825SOL    HW2 2505   2.031   2.950   1.380
  826SOL     OW 2506   3.164   2.717   0.309
  826SOL    HW1 2507   3.078   2.686   0.351
  826SOL    HW2 2508   3.160   2.703   0.210
  827SOL     OW 2509   2.765   1.948   0.133
  827SOL    HW1 2510   2.816   1.949   0.047
  827SOL    HW2 2511   2.821   1.906   0.204
  828SOL     OW 2512   2.125   2.188   0.720
  828SOL    HW1 2513   2.046   2.239   0.686
  828SOL    HW2 2514   2.116   2.173   0.818
  829SOL     OW 2515   2.684   2.864   1.372
  829SOL    HW1 2516   2.724   2.863   1.280
  829SOL    HW2 2517   2.694   2.956   1.412
  830SOL     OW 2518   2.778   2.772   0.291
  830SOL    HW1 2519   2.841   2.810   0.223
  830SOL    HW2 2520   2.818   2.689   0.330
  831SOL     OW 2521   2.876   2.098   0.971
  831SOL    HW1 2522   2.868   2.062   0.878
  831SOL    HW2 2523   2.874   2.022   1.036
  832SOL     OW 2524   1.967   2.875   1.726
  832SOL    HW1 2525   1.890   2.842   1.780
  832SOL    HW2 2526   2.052   2.845   1.768
  833SOL     OW 2527   2.534   2.065   1.489
  833SOL    HW1 2528   2.624   2.049   1.449
  833SOL    HW2 2529   2.542   2.070   1.588
  834SOL     OW 2530   1.934   2.028   0.318
  834SOL    HW1 2531   1.917   2.111   0.264
  834SOL    HW2 2532   2.024   1.991   0.296
  835SOL     OW 2533   2.475   2.704   1.431
  835SOL    HW1 2534   2.531   2.785   1.414
  835SOL    HW2 2535   2.534   2.624   1.434
  836SOL     OW 2536   2.578   2.427   1.708
  836SOL    HW1 2537   2.597   2.492   1.782
  836SOL    HW2 2538   2.638   2.347   1.717
  837SOL     OW 2539   2.456   2.607   0.652
  837SOL    HW1 2540   2.506   2.692   0.633
  837SOL    HW2 2541   2.368   2.609   0.604
  838SOL     OW 2542   2.721   2.818   0.861
  838SOL    HW1 2543   2.775   2.749   0.909
  838SOL    HW2 2544   2.689   2.887   0.927
  839SOL     OW 2545   2.945   2.846   0.087
  839SOL    HW1 2546   2.922   2.899   0.005
  839SOL    HW2 2547   3.026   2.790   0.068
  840SOL     OW 2548   2.290   2.286   0.520
  840SOL    HW1 2549   2.320   2.214   0.458
  840SOL    HW2 2550   2.251   2.246   0.603
  841SOL     OW 2551   2.179   2.409   1.280
  841SOL    HW1 2552   2.217   2.350   1.352
  841SOL    HW2 2553   2.219   2.383   1.192
  842SOL     OW 2554   2.863   1.896   1.154
  842SOL    HW1 2555   2.800   1.824   1.123
  842SOL    HW2 2556   2.956   1.860   1.154
  843SOL     OW 2557   2.632   3.192   0.301
  843SOL    HW1 2558   2.586   3.105   0.318
  843SOL    HW2 2559   2.723   3.189   0.342
  844SOL     OW 2560   1.901   2.939   0.300
  844SOL    HW1 2561   2.000   2.928   0.291
  844SOL    HW2 2562   1.861   2.853   0.332
  845SOL     OW 2563   2.092   2.490   1.975
  845SOL    HW1 2564   1.999   2.488   2.012
  845SOL    HW2 2565   2.093   2.451   1.883
  846SOL     OW 2566   2.087   2.137   2.858
  846SOL    HW1 2567   2.122   2.120   2.950
  846SOL    HW2 2568   1.999   2.092   2.846
  847SOL     OW 2569   1.881   2.230   2.509
  847SOL    HW1 2570   1.799   2.273   2.548
  847SOL    HW2 2571   1.853   2.157   2.446
  848SOL     OW 2572   2.630   3.006   2.885
  848SOL    HW1 2573   2.552   3.023   2.945
  848SOL    HW2 2574   2.664   3.093   2.849
  849SOL     OW 2575   2.547   2.874   2.527
  849SOL    HW1 2576   2.616   2.858   2.597
  849SOL    HW2 2577   2.474   2.931   2.565
  850SOL     OW 2578   2.092   3.296   2.400
  850SOL    HW1 2579   2.066   3.392   2.400
  850SOL    HW2 2580   2.021   3.242   2.445
  851SOL     OW 2581   2.102   2.953   2.748
  851SOL    HW1 2582   2.116   2.869   2.800
  851SOL    HW2 2583   2.047   3.017   2.803
  852SOL     OW 2584   2.468   2.826   1.985
  852SOL    HW1 2585   2.475   2.910   1.931
  852SOL    HW2 2586   2.514   2.839   2.073
  853SOL     OW 2587   1.984   2.505   2.425
  853SOL    HW1 2588   1.939   2.417   2.442
  853SOL    HW2 2589   1.983   2.559   2.509
  854SOL     OW 2590   2.671   1.866   2.364
  854SOL    HW1 2591   2.711   1.957   2.355
  854SOL    HW2 2592   2.571   1.874   2.370
  855SOL     OW 2593   2.460   2.591   2.132
  855SOL    HW1 2594   2.484   2.660   2.064
  855SOL    HW2 2595   2.382   2.624   2.186
  856SOL     OW 2596   2.903   2.563   2.291
  856SOL    HW1 2597   2.929   2.559   2.387
  856SOL    HW2 2598   2.818   2.512   2.277
  857SOL     OW 2599   1.938   2.673   2.651
  857SOL    HW1 2600   2.037   2.661   2.660
  857SOL    HW2 2601   1.914   2.768   2.672
  858SOL     OW 2602   2.727   2.210   2.057
  858SOL    HW1 2603   2.786   2.273   2.008
  858SOL    HW2 2604   2.746   2.116   2.028
  859SOL     OW 2605   2.412   2.058   2.747
  859SOL    HW1 2606   2.407   2.053   2.847
  859SOL    HW2 2607   2.414   2.154   2.718
  860SOL     OW 2608   2.183   2.805   2.104
  860SOL    HW1 2609   2.265   2.844   2.062
  860SOL    HW2 2610   2.156   2.723   2.055
  861SOL     OW 2611   2.244   2.562   2.342
  861SOL    HW1 2612   2.289   2.472   2.339
  861SOL    HW2 2613   2.150   2.551   2.375
  862SOL     OW 2614   2.476   1.984   1.979
  862SOL    HW1 2615   2.574   1.962   1.986
  862SOL    HW2 2616   2.445   1.967   1.886
  863SOL     OW 2617   2.784   2.365   2.761
  863SOL    HW1 2618   2.759   2.356   2.665
  863SOL    HW2 2619   2.832   2.283   2.792
  864SOL     OW 2620   2.401   1.926   2.374
  864SOL    HW1 2621   2.320   1.927   2.432
  864SOL    HW2 2622   2.404   2.009   2.319
  865SOL     OW 2623   2.159   1.897   2.033
  865SOL    HW1 2624   2.208   1.981   2.012
  865SOL    HW2 2625   2.221   1.832   2.078
  866SOL     OW 2626   2.797   2.098   2.342
  866SOL    HW1 2627   2.749   2.139   2.264
  866SOL    HW2 2628   2.896   2.096   2.323
  867SOL     OW 2629   2.321   3.014   2.603
  867SOL    HW1 2630   2.250   2.987   2.668
  867SOL    HW2 2631   2.295   2.986   2.510
  868SOL     OW 2632   2.894   2.411   1.878
  868SOL    HW1 2633   2.853   2.493   1.839
  868SOL    HW2 2634   2.958   2.437   1.951
  869SOL     OW 2635   2.728   2.316   2.504
  869SOL    HW1 2636   2.696   2.388   2.442
  869SOL    HW2 2637   2.752   2.235   2.451
  870SOL     OW 2638   2.879   1.901   2.615
  870SOL    HW1 2639   2.807   1.906   2.546
  870SOL    HW2 2640   2.855   1.832   2.684
  871SOL     OW 2641   2.389   2.118   2.190
  871SOL    HW1 2642   2.416   2.059   2.115
  871SOL    HW2 2643   2.389   2.213   2.159
  872SOL     OW 2644   2.272   2.675   3.113
  872SOL    HW1 2645   2.358   2.687   3.163
  872SOL    HW2 2646   2.230   2.588   3.140
  873SOL     OW 2647   2.229   2.962   2.363
  873SOL    HW1 2648   2.222   3.045   2.307
  873SOL    HW2 2649   2.233   2.882   2.303
  874SOL     OW 2650   2.428   2.399   2.727
  874SOL    HW1 2651   2.440   2.465   2.653
  874SOL    HW2 2652   2.474   2.433   2.810
  875SOL     OW 2653   2.435   2.732   2.891
  875SOL    HW1 2654   2.479   2.821   2.882
  875SOL    HW2 2655   2.372   2.732   2.968
  876SOL     OW 2656   3.071   2.387   2.137
  876SOL    HW1 2657   3.084   2.303   2.191
  876SOL    HW2 2658   3.042   2.461   2.197
  877SOL     OW 2659   2.169   2.075   3.093
  877SOL    HW1 2660   2.146   2.112   3.183
  877SOL    HW2 2661   2.139   1.980   3.087
  878SOL     OW 2662   2.594   2.496   2.926
  878SOL    HW1 2663   2.653   2.470   2.850
  878SOL    HW2 2664   2.566   2.592   2.915
  879SOL     OW 2665   2.169   1.925   2.480
  879SOL    HW1 2666   2.158   2.019   2.513
  879SOL    HW2 2667   2.164   1.862   2.557
  880SOL     OW 2668   2.885   2.628   2.828
  880SOL    HW1 2669   2.900   2.649   2.924
  880SOL    HW2 2670   2.855   2.533   2.819
  881SOL     OW 2671   2.181   2.672   2.811
  881SOL    HW1 2672   2.274   2.708   2.816
  881SOL    HW2 2673   2.175   2.587   2.863
  882SOL     OW 2674   2.201   2.371   2.868
  882SOL    HW1 2675   2.149   2.288   2.851
  882SOL    HW2 2676   2.278   2.376   2.804
  883SOL     OW 2677   2.864   2.658   3.100
  883SOL    HW1 2678   2.905   2.626   3.186
  883SOL    HW2 2679   2.768   2.631   3.097
  884SOL     OW 2680   1.902   2.406   2.976
  884SOL    HW1 2681   1.987   2.373   2.935
  884SOL    HW2 2682   1.915   2.421   3.074
  885SOL     OW 2683   2.677   2.434   2.187
  885SOL    HW1 2684   2.684   2.345   2.141
  885SOL    HW2 2685   2.583   2.468   2.179
  886SOL     OW 2686   2.533   2.326   3.131
  886SOL    HW1 2687   2.499   2.237   3.101
  886SOL    HW2 2688   2.559   2.380   3.051
  887SOL     OW 2689   2.335   2.362   2.053
  887SOL    HW1 2690   2.396   2.442   2.057
  887SOL    HW2 2691   2.240   2.393   2.060
  888SOL     OW 2692   3.209   2.921   3.096
  888SOL    HW1 2693   3.233   2.858   3.022
  888SOL    HW2 2694   3.119   2.961   3.078
  889SOL     OW 2695   3.164   2.717   2.171
  889SOL    HW1 2696   3.078   2.686   2.213
  889SOL    HW2 2697   3.160   2.703   2.072
  890SOL     OW 2698   2.125   2.188   2.582
  890SOL    HW1 2699   2.046   2.239   2.548
  890SOL    HW2 2700   2.116   2.173   2.680
  891SOL     OW 2701   2.778   2.772   2.153
  891SOL    HW1 2702   2.841   2.810   2.085
  891SOL    HW2 2703   2.818   2.689   2.192
  892SOL     OW 2704   2.876   2.098   2.833
  892SOL    HW1 2705   2.868   2.062   2.740
  892SOL    HW2 2706   2.874   2.022   2.898
  893SOL     OW 2707   1.937   2.207   1.895
  893SOL    HW1 2708   1.845   2.179   1.866
  893SOL    HW2 2709   1.968   2.284   1.839
  894SOL     OW 2710   1.934   2.028   2.180
  894SOL    HW1 2711   1.917   2.111   2.126
  894SOL    HW2 2712   2.024   1.991   2.158
  895SOL     OW 2713   2.456   2.607   2.514
  895SOL    HW1 2714   2.506   2.692   2.495
  895SOL    HW2 2715   2.368   2.609   2.466
  896SOL     OW 2716   2.721   2.818   2.723
  896SOL    HW1 2717   2.775   2.749   2.771
  896SOL    HW2 2718   2.689   2.887   2.789
  897SOL     OW 2719   2.945   2.846   1.949
  897SOL    HW1 2720   2.922   2.899   1.867
  897SOL    HW2 2721   3.026   2.790   1.930
  898SOL     OW 2722   2.290   2.286   2.382
  898SOL    HW1 2723   2.320   2.214   2.320
  898SOL    HW2 2724   2.251   2.246   2.465
  899SOL     OW 2725   2.632   3.192   2.163
  899SOL    HW1 2726   2.586   3.105   2.180
  899SOL    HW2 2727   2.723   3.189   2.204
  900SOL     OW 2728   1.901   2.939   2.162
  900SOL    HW1 2729   2.000   2.928   2.153
  900SOL    HW2 2730   1.861   2.853   2.194
   3.03525   3.03525   3.03525
