; mobley_2049967_GMX.itp created by acpype (v: 2023.10.27) on Thu May 14 13:44:33 2026

[ atomtypes ]
;name   bond_type     mass     charge   ptype   sigma         epsilon       Amb
 h1       h1          0.00000  0.00000   A     2.42200e-01   8.70272e-02 ; 1.36  0.0208
 c3       c3          0.00000  0.00000   A     3.39771e-01   4.51035e-01 ; 1.91  0.1078
 hc       hc          0.00000  0.00000   A     2.60018e-01   8.70272e-02 ; 1.46  0.0208
 ss       ss          0.00000  0.00000   A     3.53241e-01   1.18156e+00 ; 1.98  0.2824

[ moleculetype ]
;name            nrexcl
 mobley_2049967   3

[ atoms ]
;   nr  type  resi  res  atom  cgnr     charge      mass       ; qtot   bond_type
     1   h1     1   MOL    H5    1     0.056700      1.00800 ; qtot 0.057
     2   c3     1   MOL    C1    2    -0.010300     12.01000 ; qtot 0.046
     3   h1     1   MOL    H6    3     0.056700      1.00800 ; qtot 0.103
     4   c3     1   MOL    C3    4    -0.085100     12.01000 ; qtot 0.018
     5   hc     1   MOL    H7    5     0.046033      1.00800 ; qtot 0.064
     6   hc     1   MOL    H8    6     0.046033      1.00800 ; qtot 0.110
     7   hc     1   MOL    H9    7     0.046033      1.00800 ; qtot 0.156
     8   ss     1   MOL    S2    8    -0.299199     32.06000 ; qtot -0.143
     9   c3     1   MOL    C4    9    -0.042000     12.01000 ; qtot -0.185
    10   h1     1   MOL   H10   10     0.061700      1.00800 ; qtot -0.123
    11   h1     1   MOL   H11   11     0.061700      1.00800 ; qtot -0.062
    12   h1     1   MOL   H12   12     0.061700      1.00800 ; qtot 0.000

[ bonds ]
;   ai     aj funct   r             k
     1      2   1    1.0969e-01    2.8804e+05 ;     H5 - C1    
     2      3   1    1.0969e-01    2.8804e+05 ;     C1 - H6    
     2      4   1    1.5354e-01    1.9154e+05 ;     C1 - C3    
     2      8   1    1.8407e-01    1.5459e+05 ;     C1 - S2    
     4      5   1    1.0962e-01    2.8891e+05 ;     C3 - H7    
     4      6   1    1.0962e-01    2.8891e+05 ;     C3 - H8    
     4      7   1    1.0962e-01    2.8891e+05 ;     C3 - H9    
     8      9   1    1.8407e-01    1.5459e+05 ;     S2 - C4    
     9     10   1    1.0969e-01    2.8804e+05 ;     C4 - H10   
     9     11   1    1.0969e-01    2.8804e+05 ;     C4 - H11   
     9     12   1    1.0969e-01    2.8804e+05 ;     C4 - H12   

[ pairs ]
;   ai     aj    funct
     1      5      1 ;     H5 - H7    
     1      6      1 ;     H5 - H8    
     1      7      1 ;     H5 - H9    
     1      9      1 ;     H5 - C4    
     2     10      1 ;     C1 - H10   
     2     11      1 ;     C1 - H11   
     2     12      1 ;     C1 - H12   
     3      5      1 ;     H6 - H7    
     3      6      1 ;     H6 - H8    
     3      7      1 ;     H6 - H9    
     3      9      1 ;     H6 - C4    
     4      9      1 ;     C3 - C4    
     5      8      1 ;     H7 - S2    
     6      8      1 ;     H8 - S2    
     7      8      1 ;     H9 - S2    

[ angles ]
;   ai     aj     ak    funct   theta         cth
     1      2      3      1    1.0855e+02    2.9824e+02 ;     H5 - C1     - H6    
     1      2      4      1    1.0959e+02    3.6217e+02 ;     H5 - C1     - C3    
     1      2      8      1    1.0873e+02    3.5196e+02 ;     H5 - C1     - S2    
     2      4      5      1    1.0968e+02    3.6208e+02 ;     C1 - C3     - H7    
     2      4      6      1    1.0968e+02    3.6208e+02 ;     C1 - C3     - H8    
     2      4      7      1    1.0968e+02    3.6208e+02 ;     C1 - C3     - H9    
     2      8      9      1    9.9640e+01    7.7546e+02 ;     C1 - S2     - C4    
     3      2      4      1    1.0959e+02    3.6217e+02 ;     H6 - C1     - C3    
     3      2      8      1    1.0873e+02    3.5196e+02 ;     H6 - C1     - S2    
     4      2      8      1    1.1018e+02    5.2651e+02 ;     C3 - C1     - S2    
     5      4      6      1    1.0773e+02    2.9957e+02 ;     H7 - C3     - H8    
     5      4      7      1    1.0773e+02    2.9957e+02 ;     H7 - C3     - H9    
     6      4      7      1    1.0773e+02    2.9957e+02 ;     H8 - C3     - H9    
     8      9     10      1    1.0873e+02    3.5196e+02 ;     S2 - C4     - H10   
     8      9     11      1    1.0873e+02    3.5196e+02 ;     S2 - C4     - H11   
     8      9     12      1    1.0873e+02    3.5196e+02 ;     S2 - C4     - H12   
    10      9     11      1    1.0855e+02    2.9824e+02 ;    H10 - C4     - H11   
    10      9     12      1    1.0855e+02    2.9824e+02 ;    H10 - C4     - H12   
    11      9     12      1    1.0855e+02    2.9824e+02 ;    H11 - C4     - H12   

[ dihedrals ] ; propers
; for gromacs 4.5 or higher, using funct 9
;    i      j      k      l   func   phase     kd      pn
     1      2      4      5      9     0.00   0.65084   3 ;     H5-    C1-    C3-    H7
     1      2      4      6      9     0.00   0.65084   3 ;     H5-    C1-    C3-    H8
     1      2      4      7      9     0.00   0.65084   3 ;     H5-    C1-    C3-    H9
     1      2      8      9      9     0.00   0.92048   3 ;     H5-    C1-    S2-    C4
     2      8      9     10      9     0.00   0.92048   3 ;     C1-    S2-    C4-   H10
     2      8      9     11      9     0.00   0.92048   3 ;     C1-    S2-    C4-   H11
     2      8      9     12      9     0.00   0.92048   3 ;     C1-    S2-    C4-   H12
     3      2      4      5      9     0.00   0.65084   3 ;     H6-    C1-    C3-    H7
     3      2      4      6      9     0.00   0.65084   3 ;     H6-    C1-    C3-    H8
     3      2      4      7      9     0.00   0.65084   3 ;     H6-    C1-    C3-    H9
     3      2      8      9      9     0.00   0.92048   3 ;     H6-    C1-    S2-    C4
     4      2      8      9      9   180.00   0.83680   1 ;     C3-    C1-    S2-    C4
     5      4      2      8      9     0.00   0.65084   3 ;     H7-    C3-    C1-    S2
     6      4      2      8      9     0.00   0.65084   3 ;     H8-    C3-    C1-    S2
     7      4      2      8      9     0.00   0.65084   3 ;     H9-    C3-    C1-    S2
