; mobley_4924862_GMX.itp created by acpype (v: 2023.10.27) on Thu May 14 13:48:15 2026

[ atomtypes ]
;name   bond_type     mass     charge   ptype   sigma         epsilon       Amb
 c        c           0.00000  0.00000   A     3.31521e-01   4.13379e-01 ; 1.86  0.0988
 c3       c3          0.00000  0.00000   A     3.39771e-01   4.51035e-01 ; 1.91  0.1078
 o        o           0.00000  0.00000   A     3.04812e-01   6.12119e-01 ; 1.71  0.1463
 os       os          0.00000  0.00000   A     3.15610e-01   3.03758e-01 ; 1.77  0.0726
 h5       h5          0.00000  0.00000   A     2.44730e-01   6.73624e-02 ; 1.37  0.0161
 hc       hc          0.00000  0.00000   A     2.60018e-01   8.70272e-02 ; 1.46  0.0208
 h1       h1          0.00000  0.00000   A     2.42200e-01   8.70272e-02 ; 1.36  0.0208

[ moleculetype ]
;name            nrexcl
 mobley_4924862   3

[ atoms ]
;   nr  type  resi  res  atom  cgnr     charge      mass       ; qtot   bond_type
     1    c     1   MOL    C1    1     0.628898     12.01000 ; qtot 0.629
     2   c3     1   MOL    C2    2    -0.094100     12.01000 ; qtot 0.535
     3   c3     1   MOL    C3    3    -0.094100     12.01000 ; qtot 0.441
     4   c3     1   MOL    C4    4    -0.081400     12.01000 ; qtot 0.359
     5   c3     1   MOL    C5    5     0.136400     12.01000 ; qtot 0.496
     6   c3     1   MOL    C6    6    -0.064700     12.01000 ; qtot 0.431
     7    o     1   MOL    O1    7    -0.541000     16.00000 ; qtot -0.110
     8   os     1   MOL    O2    8    -0.450900     16.00000 ; qtot -0.561
     9   h5     1   MOL    H1    9     0.079200      1.00800 ; qtot -0.482
    10   hc     1   MOL    H2   10     0.036367      1.00800 ; qtot -0.445
    11   hc     1   MOL    H3   11     0.036367      1.00800 ; qtot -0.409
    12   hc     1   MOL    H4   12     0.036367      1.00800 ; qtot -0.373
    13   hc     1   MOL    H5   13     0.036367      1.00800 ; qtot -0.336
    14   hc     1   MOL    H6   14     0.036367      1.00800 ; qtot -0.300
    15   hc     1   MOL    H7   15     0.036367      1.00800 ; qtot -0.264
    16   hc     1   MOL    H8   16     0.053700      1.00800 ; qtot -0.210
    17   hc     1   MOL    H9   17     0.053700      1.00800 ; qtot -0.156
    18   h1     1   MOL   H10   18     0.053700      1.00800 ; qtot -0.102
    19   h1     1   MOL   H11   19     0.053700      1.00800 ; qtot -0.049
    20   hc     1   MOL   H12   20     0.048700      1.00800 ; qtot -0.000

[ bonds ]
;   ai     aj funct   r             k
     1      7   1    1.2190e-01    4.9421e+05 ;     C1 - O1    
     1      8   1    1.3621e-01    2.9398e+05 ;     C1 - O2    
     1      9   1    1.1053e-01    2.7793e+05 ;     C1 - H1    
     2      6   1    1.5354e-01    1.9154e+05 ;     C2 - C6    
     2     10   1    1.0962e-01    2.8891e+05 ;     C2 - H2    
     2     11   1    1.0962e-01    2.8891e+05 ;     C2 - H3    
     2     12   1    1.0962e-01    2.8891e+05 ;     C2 - H4    
     3      6   1    1.5354e-01    1.9154e+05 ;     C3 - C6    
     3     13   1    1.0962e-01    2.8891e+05 ;     C3 - H5    
     3     14   1    1.0962e-01    2.8891e+05 ;     C3 - H6    
     3     15   1    1.0962e-01    2.8891e+05 ;     C3 - H7    
     4      5   1    1.5354e-01    1.9154e+05 ;     C4 - C5    
     4      6   1    1.5354e-01    1.9154e+05 ;     C4 - C6    
     4     16   1    1.0962e-01    2.8891e+05 ;     C4 - H8    
     4     17   1    1.0962e-01    2.8891e+05 ;     C4 - H9    
     5      8   1    1.4273e-01    2.3620e+05 ;     C5 - O2    
     5     18   1    1.0969e-01    2.8804e+05 ;     C5 - H10   
     5     19   1    1.0969e-01    2.8804e+05 ;     C5 - H11   
     6     20   1    1.0962e-01    2.8891e+05 ;     C6 - H12   

[ pairs ]
;   ai     aj    funct
     1      4      1 ;     C1 - C4    
     1     18      1 ;     C1 - H10   
     1     19      1 ;     C1 - H11   
     2      5      1 ;     C2 - C5    
     2     13      1 ;     C2 - H5    
     2     14      1 ;     C2 - H6    
     2     15      1 ;     C2 - H7    
     2     16      1 ;     C2 - H8    
     2     17      1 ;     C2 - H9    
     3      5      1 ;     C3 - C5    
     3     10      1 ;     C3 - H2    
     3     11      1 ;     C3 - H3    
     3     12      1 ;     C3 - H4    
     3     16      1 ;     C3 - H8    
     3     17      1 ;     C3 - H9    
     4     10      1 ;     C4 - H2    
     4     11      1 ;     C4 - H3    
     4     12      1 ;     C4 - H4    
     4     13      1 ;     C4 - H5    
     4     14      1 ;     C4 - H6    
     4     15      1 ;     C4 - H7    
     5     20      1 ;     C5 - H12   
     6      8      1 ;     C6 - O2    
     6     18      1 ;     C6 - H10   
     6     19      1 ;     C6 - H11   
     7      5      1 ;     O1 - C5    
     8     16      1 ;     O2 - H8    
     8     17      1 ;     O2 - H9    
     9      5      1 ;     H1 - C5    
    10     20      1 ;     H2 - H12   
    11     20      1 ;     H3 - H12   
    12     20      1 ;     H4 - H12   
    13     20      1 ;     H5 - H12   
    14     20      1 ;     H6 - H12   
    15     20      1 ;     H7 - H12   
    16     18      1 ;     H8 - H10   
    16     19      1 ;     H8 - H11   
    16     20      1 ;     H8 - H12   
    17     18      1 ;     H9 - H10   
    17     19      1 ;     H9 - H11   
    17     20      1 ;     H9 - H12   

[ angles ]
;   ai     aj     ak    funct   theta         cth
     1      8      5      1    1.1582e+02    7.4835e+02 ;     C1 - O2     - C5    
     2      6      3      1    1.1263e+02    5.0099e+02 ;     C2 - C6     - C3    
     2      6      4      1    1.1263e+02    5.0099e+02 ;     C2 - C6     - C4    
     2      6     20      1    1.0968e+02    3.6208e+02 ;     C2 - C6     - H12   
     3      6      4      1    1.1263e+02    5.0099e+02 ;     C3 - C6     - C4    
     3      6     20      1    1.0968e+02    3.6208e+02 ;     C3 - C6     - H12   
     4      5      8      1    1.0762e+02    6.4802e+02 ;     C4 - C5     - O2    
     4      5     18      1    1.0959e+02    3.6217e+02 ;     C4 - C5     - H10   
     4      5     19      1    1.0959e+02    3.6217e+02 ;     C4 - C5     - H11   
     4      6     20      1    1.0968e+02    3.6208e+02 ;     C4 - C6     - H12   
     5      4      6      1    1.1263e+02    5.0099e+02 ;     C5 - C4     - C6    
     5      4     16      1    1.0968e+02    3.6208e+02 ;     C5 - C4     - H8    
     5      4     17      1    1.0968e+02    3.6208e+02 ;     C5 - C4     - H9    
     6      2     10      1    1.0968e+02    3.6208e+02 ;     C6 - C2     - H2    
     6      2     11      1    1.0968e+02    3.6208e+02 ;     C6 - C2     - H3    
     6      2     12      1    1.0968e+02    3.6208e+02 ;     C6 - C2     - H4    
     6      3     13      1    1.0968e+02    3.6208e+02 ;     C6 - C3     - H5    
     6      3     14      1    1.0968e+02    3.6208e+02 ;     C6 - C3     - H6    
     6      3     15      1    1.0968e+02    3.6208e+02 ;     C6 - C3     - H7    
     6      4     16      1    1.0968e+02    3.6208e+02 ;     C6 - C4     - H8    
     6      4     17      1    1.0968e+02    3.6208e+02 ;     C6 - C4     - H9    
     7      1      8      1    1.2320e+02    8.4734e+02 ;     O1 - C1     - O2    
     7      1      9      1    1.2378e+02    4.9664e+02 ;     O1 - C1     - H1    
     8      1      9      1    1.1309e+02    4.8124e+02 ;     O2 - C1     - H1    
     8      5     18      1    1.1034e+02    4.7028e+02 ;     O2 - C5     - H10   
     8      5     19      1    1.1034e+02    4.7028e+02 ;     O2 - C5     - H11   
    10      2     11      1    1.0773e+02    2.9957e+02 ;     H2 - C2     - H3    
    10      2     12      1    1.0773e+02    2.9957e+02 ;     H2 - C2     - H4    
    11      2     12      1    1.0773e+02    2.9957e+02 ;     H3 - C2     - H4    
    13      3     14      1    1.0773e+02    2.9957e+02 ;     H5 - C3     - H6    
    13      3     15      1    1.0773e+02    2.9957e+02 ;     H5 - C3     - H7    
    14      3     15      1    1.0773e+02    2.9957e+02 ;     H6 - C3     - H7    
    16      4     17      1    1.0773e+02    2.9957e+02 ;     H8 - C4     - H9    
    18      5     19      1    1.0855e+02    2.9824e+02 ;    H10 - C5     - H11   

[ dihedrals ] ; propers
; for gromacs 4.5 or higher, using funct 9
;    i      j      k      l   func   phase     kd      pn
     1      8      5      4      9     0.00   1.60247   3 ;     C1-    O2-    C5-    C4
     1      8      5      4      9   180.00   3.34720   1 ;     C1-    O2-    C5-    C4
     1      8      5     18      9     0.00   1.60387   3 ;     C1-    O2-    C5-   H10
     1      8      5     19      9     0.00   1.60387   3 ;     C1-    O2-    C5-   H11
     2      6      3     13      9     0.00   0.54392   3 ;     C2-    C6-    C3-    H5
     2      6      3     14      9     0.00   0.54392   3 ;     C2-    C6-    C3-    H6
     2      6      3     15      9     0.00   0.54392   3 ;     C2-    C6-    C3-    H7
     2      6      4      5      9     0.00   2.17568   3 ;     C2-    C6-    C4-    C5
     2      6      4     16      9     0.00   0.54392   3 ;     C2-    C6-    C4-    H8
     2      6      4     17      9     0.00   0.54392   3 ;     C2-    C6-    C4-    H9
     3      6      2     10      9     0.00   0.54392   3 ;     C3-    C6-    C2-    H2
     3      6      2     11      9     0.00   0.54392   3 ;     C3-    C6-    C2-    H3
     3      6      2     12      9     0.00   0.54392   3 ;     C3-    C6-    C2-    H4
     3      6      4      5      9     0.00   2.17568   3 ;     C3-    C6-    C4-    C5
     3      6      4     16      9     0.00   0.54392   3 ;     C3-    C6-    C4-    H8
     3      6      4     17      9     0.00   0.54392   3 ;     C3-    C6-    C4-    H9
     4      6      2     10      9     0.00   0.54392   3 ;     C4-    C6-    C2-    H2
     4      6      2     11      9     0.00   0.54392   3 ;     C4-    C6-    C2-    H3
     4      6      2     12      9     0.00   0.54392   3 ;     C4-    C6-    C2-    H4
     4      6      3     13      9     0.00   0.54392   3 ;     C4-    C6-    C3-    H5
     4      6      3     14      9     0.00   0.54392   3 ;     C4-    C6-    C3-    H6
     4      6      3     15      9     0.00   0.54392   3 ;     C4-    C6-    C3-    H7
     5      4      6     20      9     0.00   0.54392   3 ;     C5-    C4-    C6-   H12
     6      4      5      8      9     0.00   0.65084   3 ;     C6-    C4-    C5-    O2
     6      4      5     18      9     0.00   0.65084   3 ;     C6-    C4-    C5-   H10
     6      4      5     19      9     0.00   0.65084   3 ;     C6-    C4-    C5-   H11
     7      1      8      5      9   180.00   5.85760   1 ;     O1-    C1-    O2-    C5
     7      1      8      5      9   180.00  11.29680   2 ;     O1-    C1-    O2-    C5
     8      5      4     16      9     0.00   0.00000   0 ;     O2-    C5-    C4-    H8
     8      5      4     16      9     0.00   1.04600   1 ;     O2-    C5-    C4-    H8
     8      5      4     17      9     0.00   0.00000   0 ;     O2-    C5-    C4-    H9
     8      5      4     17      9     0.00   1.04600   1 ;     O2-    C5-    C4-    H9
     9      1      8      5      9   180.00  11.29680   2 ;     H1-    C1-    O2-    C5
    10      2      6     20      9     0.00   0.50208   3 ;     H2-    C2-    C6-   H12
    11      2      6     20      9     0.00   0.50208   3 ;     H3-    C2-    C6-   H12
    12      2      6     20      9     0.00   0.50208   3 ;     H4-    C2-    C6-   H12
    13      3      6     20      9     0.00   0.50208   3 ;     H5-    C3-    C6-   H12
    14      3      6     20      9     0.00   0.50208   3 ;     H6-    C3-    C6-   H12
    15      3      6     20      9     0.00   0.50208   3 ;     H7-    C3-    C6-   H12
    16      4      5     18      9     0.00   0.65084   3 ;     H8-    C4-    C5-   H10
    16      4      5     19      9     0.00   0.65084   3 ;     H8-    C4-    C5-   H11
    16      4      6     20      9     0.00   0.50208   3 ;     H8-    C4-    C6-   H12
    17      4      5     18      9     0.00   0.65084   3 ;     H9-    C4-    C5-   H10
    17      4      5     19      9     0.00   0.65084   3 ;     H9-    C4-    C5-   H11
    17      4      6     20      9     0.00   0.50208   3 ;     H9-    C4-    C6-   H12

[ dihedrals ] ; impropers
; treated as propers in GROMACS to use correct AMBER analytical function
;    i      j      k      l   func   phase     kd      pn
     8      1      7      9      4   180.00   4.60240   2 ;     O2-    C1-    O1-    H1
