; mobley_8048190_GMX.itp created by acpype (v: 2023.10.27) on Thu May 14 13:53:36 2026

[ atomtypes ]
;name   bond_type     mass     charge   ptype   sigma         epsilon       Amb
 c        c           0.00000  0.00000   A     3.31521e-01   4.13379e-01 ; 1.86  0.0988
 c3       c3          0.00000  0.00000   A     3.39771e-01   4.51035e-01 ; 1.91  0.1078
 nt       nt          0.00000  0.00000   A     3.35904e-01   3.56058e-01 ; 1.89  0.0851
 o        o           0.00000  0.00000   A     3.04812e-01   6.12119e-01 ; 1.71  0.1463
 hc       hc          0.00000  0.00000   A     2.60018e-01   8.70272e-02 ; 1.46  0.0208
 hn       hn          0.00000  0.00000   A     1.10650e-01   4.18400e-02 ; 0.62  0.0100

[ moleculetype ]
;name            nrexcl
 mobley_8048190   3

[ atoms ]
;   nr  type  resi  res  atom  cgnr     charge      mass       ; qtot   bond_type
     1    c     1   MOL    C1    1     0.656100     12.01000 ; qtot 0.656
     2   c3     1   MOL    C2    2    -0.174100     12.01000 ; qtot 0.482
     3   nt     1   MOL    N1    3    -0.685001     14.01000 ; qtot -0.203
     4    o     1   MOL    O1    4    -0.613100     16.00000 ; qtot -0.816
     5   hc     1   MOL    H1    5     0.065367      1.00800 ; qtot -0.751
     6   hc     1   MOL    H2    6     0.065367      1.00800 ; qtot -0.685
     7   hc     1   MOL    H3    7     0.065367      1.00800 ; qtot -0.620
     8   hn     1   MOL    H4    8     0.310000      1.00800 ; qtot -0.310
     9   hn     1   MOL    H5    9     0.310000      1.00800 ; qtot -0.000

[ bonds ]
;   ai     aj funct   r             k
     1      2   1    1.5270e-01    1.9652e+05 ;     C1 - C2    
     1      3   1    1.3675e-01    2.9326e+05 ;     C1 - N1    
     1      4   1    1.2190e-01    4.9421e+05 ;     C1 - O1    
     2      5   1    1.0962e-01    2.8891e+05 ;     C2 - H1    
     2      6   1    1.0962e-01    2.8891e+05 ;     C2 - H2    
     2      7   1    1.0962e-01    2.8891e+05 ;     C2 - H3    
     3      8   1    1.0105e-01    4.0128e+05 ;     N1 - H4    
     3      9   1    1.0105e-01    4.0128e+05 ;     N1 - H5    

[ pairs ]
;   ai     aj    funct
     2      8      1 ;     C2 - H4    
     2      9      1 ;     C2 - H5    
     3      5      1 ;     N1 - H1    
     3      6      1 ;     N1 - H2    
     3      7      1 ;     N1 - H3    
     4      5      1 ;     O1 - H1    
     4      6      1 ;     O1 - H2    
     4      7      1 ;     O1 - H3    
     4      8      1 ;     O1 - H4    
     4      9      1 ;     O1 - H5    

[ angles ]
;   ai     aj     ak    funct   theta         cth
     1      2      5      1    1.0895e+02    3.6510e+02 ;     C1 - C2     - H1    
     1      2      6      1    1.0895e+02    3.6510e+02 ;     C1 - C2     - H2    
     1      2      7      1    1.0895e+02    3.6510e+02 ;     C1 - C2     - H3    
     1      3      8      1    1.1844e+02    4.8158e+02 ;     C1 - N1     - H4    
     1      3      9      1    1.1844e+02    4.8158e+02 ;     C1 - N1     - H5    
     2      1      3      1    1.1536e+02    5.5413e+02 ;     C2 - C1     - N1    
     2      1      4      1    1.2290e+02    6.3973e+02 ;     C2 - C1     - O1    
     3      1      4      1    1.2298e+02    7.3421e+02 ;     N1 - C1     - O1    
     5      2      6      1    1.0773e+02    2.9957e+02 ;     H1 - C2     - H2    
     5      2      7      1    1.0773e+02    2.9957e+02 ;     H1 - C2     - H3    
     6      2      7      1    1.0773e+02    2.9957e+02 ;     H2 - C2     - H3    
     8      3      9      1    1.1795e+02    3.8384e+02 ;     H4 - N1     - H5    

[ dihedrals ] ; propers
; for gromacs 4.5 or higher, using funct 9
;    i      j      k      l   func   phase     kd      pn
     2      1      3      8      9   180.00  10.46000   2 ;     C2-    C1-    N1-    H4
     2      1      3      9      9   180.00  10.46000   2 ;     C2-    C1-    N1-    H5
     3      1      2      5      9   180.00   0.00000   2 ;     N1-    C1-    C2-    H1
     3      1      2      6      9   180.00   0.00000   2 ;     N1-    C1-    C2-    H2
     3      1      2      7      9   180.00   0.00000   2 ;     N1-    C1-    C2-    H3
     4      1      2      5      9     0.00  16.86152   1 ;     O1-    C1-    C2-    H1
     4      1      2      5      9   180.00  15.31344   2 ;     O1-    C1-    C2-    H1
     4      1      2      6      9     0.00  16.86152   1 ;     O1-    C1-    C2-    H2
     4      1      2      6      9   180.00  15.31344   2 ;     O1-    C1-    C2-    H2
     4      1      2      7      9     0.00  16.86152   1 ;     O1-    C1-    C2-    H3
     4      1      2      7      9   180.00  15.31344   2 ;     O1-    C1-    C2-    H3
     4      1      3      8      9     0.00   8.36800   1 ;     O1-    C1-    N1-    H4
     4      1      3      8      9   180.00  10.46000   2 ;     O1-    C1-    N1-    H4
     4      1      3      9      9     0.00   8.36800   1 ;     O1-    C1-    N1-    H5
     4      1      3      9      9   180.00  10.46000   2 ;     O1-    C1-    N1-    H5

[ dihedrals ] ; impropers
; treated as propers in GROMACS to use correct AMBER analytical function
;    i      j      k      l   func   phase     kd      pn
     1      8      3      9      4   180.00   4.60240   2 ;     C1-    H4-    N1-    H5
     4      1      3      2      4   180.00  43.93200   2 ;     O1-    C1-    N1-    C2
