; mobley_8685905_GMX.itp created by acpype (v: 2023.10.27) on Thu May 14 13:39:12 2026

[ atomtypes ]
;name   bond_type     mass     charge   ptype   sigma         epsilon       Amb
 c3       c3          0.00000  0.00000   A     3.39771e-01   4.51035e-01 ; 1.91  0.1078
 f        f           0.00000  0.00000   A     3.03422e-01   3.48109e-01 ; 1.70  0.0832
 br       br          0.00000  0.00000   A     3.61259e-01   1.64515e+00 ; 2.03  0.3932
 h2       h2          0.00000  0.00000   A     2.24382e-01   8.70272e-02 ; 1.26  0.0208

[ moleculetype ]
;name            nrexcl
 mobley_8685905   3

[ atoms ]
;   nr  type  resi  res  atom  cgnr     charge      mass       ; qtot   bond_type
     1   c3     1   MOL    C1    1     0.200000     12.01000 ; qtot 0.200
     2   c3     1   MOL    C2    2     0.609901     12.01000 ; qtot 0.810
     3    f     1   MOL    F1    3    -0.174300     19.00000 ; qtot 0.636
     4    f     1   MOL    F2    4    -0.216967     19.00000 ; qtot 0.419
     5    f     1   MOL    F3    5    -0.216967     19.00000 ; qtot 0.202
     6    f     1   MOL    F4    6    -0.216967     19.00000 ; qtot -0.015
     7   br     1   MOL   BR1    7    -0.099400     79.90000 ; qtot -0.115
     8   h2     1   MOL    H1    8     0.114700      1.00800 ; qtot -0.000

[ bonds ]
;   ai     aj funct   r             k
     1      2   1    1.5354e-01    1.9154e+05 ;     C1 - C2    
     1      3   1    1.3512e-01    2.7973e+05 ;     C1 - F1    
     1      7   1    1.9805e-01    1.0319e+05 ;     C1 - BR1   
     1      8   1    1.0950e-01    2.9039e+05 ;     C1 - H1    
     2      4   1    1.3512e-01    2.7973e+05 ;     C2 - F2    
     2      5   1    1.3512e-01    2.7973e+05 ;     C2 - F3    
     2      6   1    1.3512e-01    2.7973e+05 ;     C2 - F4    

[ pairs ]
;   ai     aj    funct
     3      4      1 ;     F1 - F2    
     3      5      1 ;     F1 - F3    
     3      6      1 ;     F1 - F4    
     7      4      1 ;    BR1 - F2    
     7      5      1 ;    BR1 - F3    
     7      6      1 ;    BR1 - F4    
     8      4      1 ;     H1 - F2    
     8      5      1 ;     H1 - F3    
     8      6      1 ;     H1 - F4    

[ angles ]
;   ai     aj     ak    funct   theta         cth
     1      2      4      1    1.0948e+02    6.6408e+02 ;     C1 - C2     - F2    
     1      2      5      1    1.0948e+02    6.6408e+02 ;     C1 - C2     - F3    
     1      2      6      1    1.0948e+02    6.6408e+02 ;     C1 - C2     - F4    
     2      1      3      1    1.0948e+02    6.6408e+02 ;     C2 - C1     - F1    
     2      1      7      1    1.1047e+02    5.1020e+02 ;     C2 - C1     - BR1   
     2      1      8      1    1.1042e+02    3.6091e+02 ;     C2 - C1     - H1    
     3      1      7      1    1.0962e+02    6.4358e+02 ;     F1 - C1     - BR1   
     3      1      8      1    1.0907e+02    5.0032e+02 ;     F1 - C1     - H1    
     4      2      5      1    1.0737e+02    8.9437e+02 ;     F2 - C2     - F3    
     4      2      6      1    1.0737e+02    8.9437e+02 ;     F2 - C2     - F4    
     5      2      6      1    1.0737e+02    8.9437e+02 ;     F3 - C2     - F4    
     7      1      8      1    1.0695e+02    3.3505e+02 ;    BR1 - C1     - H1    

[ dihedrals ] ; propers
; for gromacs 4.5 or higher, using funct 9
;    i      j      k      l   func   phase     kd      pn
     3      1      2      4      9     0.00   7.57304   2 ;     F1-    C1-    C2-    F2
     3      1      2      5      9     0.00   7.57304   2 ;     F1-    C1-    C2-    F3
     3      1      2      6      9     0.00   7.57304   2 ;     F1-    C1-    C2-    F4
     7      1      2      4      9     0.00   0.65084   3 ;    BR1-    C1-    C2-    F2
     7      1      2      5      9     0.00   0.65084   3 ;    BR1-    C1-    C2-    F3
     7      1      2      6      9     0.00   0.65084   3 ;    BR1-    C1-    C2-    F4
     8      1      2      4      9     0.00   0.65084   3 ;     H1-    C1-    C2-    F2
     8      1      2      5      9     0.00   0.65084   3 ;     H1-    C1-    C2-    F3
     8      1      2      6      9     0.00   0.65084   3 ;     H1-    C1-    C2-    F4
