; mobley_2693089_GMX.itp created by acpype (v: 2023.10.27) on Thu May 14 13:34:49 2026

[ atomtypes ]
;name   bond_type     mass     charge   ptype   sigma         epsilon       Amb
 ca       ca          0.00000  0.00000   A     3.31521e-01   4.13379e-01 ; 1.86  0.0988
 c3       c3          0.00000  0.00000   A     3.39771e-01   4.51035e-01 ; 1.91  0.1078
 nb       nb          0.00000  0.00000   A     3.38417e-01   3.93714e-01 ; 1.90  0.0941
 h4       h4          0.00000  0.00000   A     2.53639e-01   6.73624e-02 ; 1.42  0.0161
 hc       hc          0.00000  0.00000   A     2.60018e-01   8.70272e-02 ; 1.46  0.0208

[ moleculetype ]
;name            nrexcl
 mobley_2693089   3

[ atoms ]
;   nr  type  resi  res  atom  cgnr     charge      mass       ; qtot   bond_type
     1   ca     1   MOL    C1    1     0.271900     12.01000 ; qtot 0.272
     2   ca     1   MOL    C2    2     0.283900     12.01000 ; qtot 0.556
     3   ca     1   MOL    C3    3     0.277900     12.01000 ; qtot 0.834
     4   ca     1   MOL    C4    4     0.306300     12.01000 ; qtot 1.140
     5   c3     1   MOL    C5    5    -0.092600     12.01000 ; qtot 1.047
     6   c3     1   MOL    C6    6    -0.092600     12.01000 ; qtot 0.955
     7   c3     1   MOL    C7    7    -0.126700     12.01000 ; qtot 0.828
     8   c3     1   MOL    C8    8    -0.060700     12.01000 ; qtot 0.767
     9   nb     1   MOL    N1    9    -0.628000     14.01000 ; qtot 0.139
    10   nb     1   MOL    N2   10    -0.631002     14.01000 ; qtot -0.492
    11   h4     1   MOL    H1   11     0.033100      1.00800 ; qtot -0.459
    12   h4     1   MOL    H2   12     0.032100      1.00800 ; qtot -0.426
    13   h4     1   MOL    H3   13     0.034100      1.00800 ; qtot -0.392
    14   hc     1   MOL    H4   14     0.037367      1.00800 ; qtot -0.355
    15   hc     1   MOL    H5   15     0.037367      1.00800 ; qtot -0.318
    16   hc     1   MOL    H6   16     0.037367      1.00800 ; qtot -0.280
    17   hc     1   MOL    H7   17     0.037367      1.00800 ; qtot -0.243
    18   hc     1   MOL    H8   18     0.037367      1.00800 ; qtot -0.205
    19   hc     1   MOL    H9   19     0.037367      1.00800 ; qtot -0.168
    20   hc     1   MOL   H10   20     0.059700      1.00800 ; qtot -0.108
    21   hc     1   MOL   H11   21     0.059700      1.00800 ; qtot -0.049
    22   hc     1   MOL   H12   22     0.048700      1.00800 ; qtot 0.000

[ bonds ]
;   ai     aj funct   r             k
     1      2   1    1.3986e-01    2.9644e+05 ;     C1 - C2    
     1      9   1    1.3392e-01    3.2341e+05 ;     C1 - N1    
     1     11   1    1.0885e-01    2.9859e+05 ;     C1 - H1    
     2     10   1    1.3392e-01    3.2341e+05 ;     C2 - N2    
     2     12   1    1.0885e-01    2.9859e+05 ;     C2 - H2    
     3      4   1    1.3986e-01    2.9644e+05 ;     C3 - C4    
     3      9   1    1.3392e-01    3.2341e+05 ;     C3 - N1    
     3     13   1    1.0885e-01    2.9859e+05 ;     C3 - H3    
     4      7   1    1.5147e-01    2.0410e+05 ;     C4 - C7    
     4     10   1    1.3392e-01    3.2341e+05 ;     C4 - N2    
     5      8   1    1.5354e-01    1.9154e+05 ;     C5 - C8    
     5     14   1    1.0962e-01    2.8891e+05 ;     C5 - H4    
     5     15   1    1.0962e-01    2.8891e+05 ;     C5 - H5    
     5     16   1    1.0962e-01    2.8891e+05 ;     C5 - H6    
     6      8   1    1.5354e-01    1.9154e+05 ;     C6 - C8    
     6     17   1    1.0962e-01    2.8891e+05 ;     C6 - H7    
     6     18   1    1.0962e-01    2.8891e+05 ;     C6 - H8    
     6     19   1    1.0962e-01    2.8891e+05 ;     C6 - H9    
     7      8   1    1.5354e-01    1.9154e+05 ;     C7 - C8    
     7     20   1    1.0962e-01    2.8891e+05 ;     C7 - H10   
     7     21   1    1.0962e-01    2.8891e+05 ;     C7 - H11   
     8     22   1    1.0962e-01    2.8891e+05 ;     C8 - H12   

[ pairs ]
;   ai     aj    funct
     1      4      1 ;     C1 - C4    
     1     13      1 ;     C1 - H3    
     2      3      1 ;     C2 - C3    
     2      7      1 ;     C2 - C7    
     3      8      1 ;     C3 - C8    
     3     20      1 ;     C3 - H10   
     3     21      1 ;     C3 - H11   
     4      5      1 ;     C4 - C5    
     4      6      1 ;     C4 - C6    
     4     12      1 ;     C4 - H2    
     4     22      1 ;     C4 - H12   
     5     17      1 ;     C5 - H7    
     5     18      1 ;     C5 - H8    
     5     19      1 ;     C5 - H9    
     5     20      1 ;     C5 - H10   
     5     21      1 ;     C5 - H11   
     6     14      1 ;     C6 - H4    
     6     15      1 ;     C6 - H5    
     6     16      1 ;     C6 - H6    
     6     20      1 ;     C6 - H10   
     6     21      1 ;     C6 - H11   
     7      9      1 ;     C7 - N1    
     7     13      1 ;     C7 - H3    
     7     14      1 ;     C7 - H4    
     7     15      1 ;     C7 - H5    
     7     16      1 ;     C7 - H6    
     7     17      1 ;     C7 - H7    
     7     18      1 ;     C7 - H8    
     7     19      1 ;     C7 - H9    
     8     10      1 ;     C8 - N2    
     9     10      1 ;     N1 - N2    
     9     12      1 ;     N1 - H2    
    10     13      1 ;     N2 - H3    
    10     20      1 ;     N2 - H10   
    10     21      1 ;     N2 - H11   
    11      3      1 ;     H1 - C3    
    11     10      1 ;     H1 - N2    
    11     12      1 ;     H1 - H2    
    14     22      1 ;     H4 - H12   
    15     22      1 ;     H5 - H12   
    16     22      1 ;     H6 - H12   
    17     22      1 ;     H7 - H12   
    18     22      1 ;     H8 - H12   
    19     22      1 ;     H9 - H12   
    20     22      1 ;    H10 - H12   
    21     22      1 ;    H11 - H12   

[ angles ]
;   ai     aj     ak    funct   theta         cth
     1      2     10      1    1.2294e+02    5.7045e+02 ;     C1 - C2     - N2    
     1      2     12      1    1.2032e+02    3.7489e+02 ;     C1 - C2     - H2    
     1      9      3      1    1.1724e+02    6.9580e+02 ;     C1 - N1     - C3    
     2      1      9      1    1.2294e+02    5.7045e+02 ;     C2 - C1     - N1    
     2      1     11      1    1.2032e+02    3.7489e+02 ;     C2 - C1     - H1    
     2     10      4      1    1.1724e+02    6.9580e+02 ;     C2 - N2     - C4    
     3      4      7      1    1.2083e+02    5.0827e+02 ;     C3 - C4     - C7    
     3      4     10      1    1.2294e+02    5.7045e+02 ;     C3 - C4     - N2    
     4      3      9      1    1.2294e+02    5.7045e+02 ;     C4 - C3     - N1    
     4      3     13      1    1.2032e+02    3.7489e+02 ;     C4 - C3     - H3    
     4      7      8      1    1.1242e+02    5.0484e+02 ;     C4 - C7     - C8    
     4      7     20      1    1.1063e+02    3.6493e+02 ;     C4 - C7     - H10   
     4      7     21      1    1.1063e+02    3.6493e+02 ;     C4 - C7     - H11   
     5      8      6      1    1.1263e+02    5.0099e+02 ;     C5 - C8     - C6    
     5      8      7      1    1.1263e+02    5.0099e+02 ;     C5 - C8     - C7    
     5      8     22      1    1.0968e+02    3.6208e+02 ;     C5 - C8     - H12   
     6      8      7      1    1.1263e+02    5.0099e+02 ;     C6 - C8     - C7    
     6      8     22      1    1.0968e+02    3.6208e+02 ;     C6 - C8     - H12   
     7      4     10      1    1.1664e+02    5.5815e+02 ;     C7 - C4     - N2    
     7      8     22      1    1.0968e+02    3.6208e+02 ;     C7 - C8     - H12   
     8      5     14      1    1.0968e+02    3.6208e+02 ;     C8 - C5     - H4    
     8      5     15      1    1.0968e+02    3.6208e+02 ;     C8 - C5     - H5    
     8      5     16      1    1.0968e+02    3.6208e+02 ;     C8 - C5     - H6    
     8      6     17      1    1.0968e+02    3.6208e+02 ;     C8 - C6     - H7    
     8      6     18      1    1.0968e+02    3.6208e+02 ;     C8 - C6     - H8    
     8      6     19      1    1.0968e+02    3.6208e+02 ;     C8 - C6     - H9    
     8      7     20      1    1.0968e+02    3.6208e+02 ;     C8 - C7     - H10   
     8      7     21      1    1.0968e+02    3.6208e+02 ;     C8 - C7     - H11   
     9      1     11      1    1.1602e+02    4.1924e+02 ;     N1 - C1     - H1    
     9      3     13      1    1.1602e+02    4.1924e+02 ;     N1 - C3     - H3    
    10      2     12      1    1.1602e+02    4.1924e+02 ;     N2 - C2     - H2    
    14      5     15      1    1.0773e+02    2.9957e+02 ;     H4 - C5     - H5    
    14      5     16      1    1.0773e+02    2.9957e+02 ;     H4 - C5     - H6    
    15      5     16      1    1.0773e+02    2.9957e+02 ;     H5 - C5     - H6    
    17      6     18      1    1.0773e+02    2.9957e+02 ;     H7 - C6     - H8    
    17      6     19      1    1.0773e+02    2.9957e+02 ;     H7 - C6     - H9    
    18      6     19      1    1.0773e+02    2.9957e+02 ;     H8 - C6     - H9    
    20      7     21      1    1.0773e+02    2.9957e+02 ;    H10 - C7     - H11   

[ dihedrals ] ; propers
; for gromacs 4.5 or higher, using funct 9
;    i      j      k      l   func   phase     kd      pn
     1      2     10      4      9   180.00  20.08320   2 ;     C1-    C2-    N2-    C4
     1      9      3      4      9   180.00  20.08320   2 ;     C1-    N1-    C3-    C4
     1      9      3     13      9   180.00  20.08320   2 ;     C1-    N1-    C3-    H3
     2      1      9      3      9   180.00  20.08320   2 ;     C2-    C1-    N1-    C3
     2     10      4      3      9   180.00  20.08320   2 ;     C2-    N2-    C4-    C3
     2     10      4      7      9   180.00  20.08320   2 ;     C2-    N2-    C4-    C7
     3      4      7      8      9   180.00   1.00416   2 ;     C3-    C4-    C7-    C8
     3      4      7     20      9     0.00   0.00000   0 ;     C3-    C4-    C7-   H10
     3      4      7     21      9     0.00   0.00000   0 ;     C3-    C4-    C7-   H11
     4      7      8      5      9     0.00   0.65084   3 ;     C4-    C7-    C8-    C5
     4      7      8      6      9     0.00   0.65084   3 ;     C4-    C7-    C8-    C6
     4      7      8     22      9     0.00   0.65084   3 ;     C4-    C7-    C8-   H12
     4     10      2     12      9   180.00  20.08320   2 ;     C4-    N2-    C2-    H2
     5      8      6     17      9     0.00   0.54392   3 ;     C5-    C8-    C6-    H7
     5      8      6     18      9     0.00   0.54392   3 ;     C5-    C8-    C6-    H8
     5      8      6     19      9     0.00   0.54392   3 ;     C5-    C8-    C6-    H9
     5      8      7     20      9     0.00   0.54392   3 ;     C5-    C8-    C7-   H10
     5      8      7     21      9     0.00   0.54392   3 ;     C5-    C8-    C7-   H11
     6      8      5     14      9     0.00   0.54392   3 ;     C6-    C8-    C5-    H4
     6      8      5     15      9     0.00   0.54392   3 ;     C6-    C8-    C5-    H5
     6      8      5     16      9     0.00   0.54392   3 ;     C6-    C8-    C5-    H6
     6      8      7     20      9     0.00   0.54392   3 ;     C6-    C8-    C7-   H10
     6      8      7     21      9     0.00   0.54392   3 ;     C6-    C8-    C7-   H11
     7      4      3      9      9   180.00  15.16700   2 ;     C7-    C4-    C3-    N1
     7      4      3     13      9   180.00  15.16700   2 ;     C7-    C4-    C3-    H3
     7      8      5     14      9     0.00   0.54392   3 ;     C7-    C8-    C5-    H4
     7      8      5     15      9     0.00   0.54392   3 ;     C7-    C8-    C5-    H5
     7      8      5     16      9     0.00   0.54392   3 ;     C7-    C8-    C5-    H6
     7      8      6     17      9     0.00   0.54392   3 ;     C7-    C8-    C6-    H7
     7      8      6     18      9     0.00   0.54392   3 ;     C7-    C8-    C6-    H8
     7      8      6     19      9     0.00   0.54392   3 ;     C7-    C8-    C6-    H9
     8      7      4     10      9     0.00   0.00000   0 ;     C8-    C7-    C4-    N2
     9      1      2     10      9   180.00  15.16700   2 ;     N1-    C1-    C2-    N2
     9      1      2     12      9   180.00  15.16700   2 ;     N1-    C1-    C2-    H2
     9      3      4     10      9   180.00  15.16700   2 ;     N1-    C3-    C4-    N2
    10      4      3     13      9   180.00  15.16700   2 ;     N2-    C4-    C3-    H3
    10      4      7     20      9     0.00   0.00000   0 ;     N2-    C4-    C7-   H10
    10      4      7     21      9     0.00   0.00000   0 ;     N2-    C4-    C7-   H11
    11      1      2     10      9   180.00  15.16700   2 ;     H1-    C1-    C2-    N2
    11      1      2     12      9   180.00  15.16700   2 ;     H1-    C1-    C2-    H2
    11      1      9      3      9   180.00  20.08320   2 ;     H1-    C1-    N1-    C3
    14      5      8     22      9     0.00   0.50208   3 ;     H4-    C5-    C8-   H12
    15      5      8     22      9     0.00   0.50208   3 ;     H5-    C5-    C8-   H12
    16      5      8     22      9     0.00   0.50208   3 ;     H6-    C5-    C8-   H12
    17      6      8     22      9     0.00   0.50208   3 ;     H7-    C6-    C8-   H12
    18      6      8     22      9     0.00   0.50208   3 ;     H8-    C6-    C8-   H12
    19      6      8     22      9     0.00   0.50208   3 ;     H9-    C6-    C8-   H12
    20      7      8     22      9     0.00   0.50208   3 ;    H10-    C7-    C8-   H12
    21      7      8     22      9     0.00   0.50208   3 ;    H11-    C7-    C8-   H12

[ dihedrals ] ; impropers
; treated as propers in GROMACS to use correct AMBER analytical function
;    i      j      k      l   func   phase     kd      pn
     1     12      2     10      4   180.00   4.60240   2 ;     C1-    H2-    C2-    N2
     4     13      3      9      4   180.00   4.60240   2 ;     C4-    H3-    C3-    N1
     7      3      4     10      4   180.00   4.60240   2 ;     C7-    C3-    C4-    N2
     9      1     11      2      4   180.00   4.60240   2 ;     N1-    C1-    H1-    C2
