mobley_1821184_GMX.gro created by acpype (v: 2023.10.27) on Thu May 14 13:39:24 2026
 1987
    1MOL     C1    1   1.545   1.515   1.280
    1MOL     C2    2   1.571   1.411   1.191
    1MOL     C3    3   1.443   1.504   1.375
    1MOL     C4    4   1.495   1.294   1.193
    1MOL     C5    5   1.221   1.216   1.416
    1MOL     C6    6   1.365   1.387   1.379
    1MOL     C7    7   1.256   1.342   1.459
    1MOL     C8    8   1.393   1.284   1.288
    1MOL     C9    9   1.192   1.417   1.569
    1MOL     N1   10   1.304   1.182   1.313
    1MOL     H1   11   1.605   1.605   1.277
    1MOL     H2   12   1.651   1.422   1.118
    1MOL     H3   13   1.424   1.586   1.444
    1MOL     H4   14   1.515   1.213   1.123
    1MOL     H5   15   1.144   1.148   1.450
    1MOL     H6   16   1.240   1.394   1.665
    1MOL     H7   17   1.197   1.526   1.555
    1MOL     H8   18   1.085   1.392   1.579
    1MOL     H9   19   1.300   1.095   1.262
    2SOL     OW   20   0.230   0.628   0.113
    2SOL    HW1   21   0.137   0.626   0.150
    2SOL    HW2   22   0.231   0.589   0.021
    3SOL     OW   23   0.225   0.275   0.996
    3SOL    HW1   24   0.260   0.258   1.088
    3SOL    HW2   25   0.137   0.230   0.984
    4SOL     OW   26   0.019   0.368   0.647
    4SOL    HW1   27  -0.063   0.411   0.686
    4SOL    HW2   28  -0.009   0.295   0.584
    5SOL     OW   29   0.569   1.275   1.165
    5SOL    HW1   30   0.476   1.268   1.128
    5SOL    HW2   31   0.580   1.364   1.209
    6SOL     OW   32   1.555   1.511   0.703
    6SOL    HW1   33   1.498   1.495   0.784
    6SOL    HW2   34   1.496   1.521   0.623
    7SOL     OW   35   1.135   0.703   0.717
    7SOL    HW1   36   1.192   0.781   0.692
    7SOL    HW2   37   1.075   0.729   0.793
    8SOL     OW   38   1.755   0.607   0.231
    8SOL    HW1   39   1.743   0.594   0.132
    8SOL    HW2   40   1.725   0.526   0.280
    9SOL     OW   41   0.768   1.144   1.023
    9SOL    HW1   42   0.690   1.161   1.083
    9SOL    HW2   43   0.802   1.231   0.987
   10SOL     OW   44   0.850   0.798   1.823
   10SOL    HW1   45   0.846   0.874   1.888
   10SOL    HW2   46   0.872   0.834   1.732
   11SOL     OW   47   0.685   1.012   0.665
   11SOL    HW1   48   0.754   0.996   0.735
   11SOL    HW2   49   0.612   1.069   0.703
   12SOL     OW   50   0.686   1.161   1.803
   12SOL    HW1   51   0.746   1.240   1.817
   12SOL    HW2   52   0.600   1.192   1.762
   13SOL     OW   53   0.335   1.435   1.061
   13SOL    HW1   54   0.257   1.404   1.008
   13SOL    HW2   55   0.393   1.493   1.004
   14SOL     OW   56   0.438   0.392   1.499
   14SOL    HW1   57   0.520   0.336   1.508
   14SOL    HW2   58   0.357   0.334   1.503
   15SOL     OW   59   1.603   0.447   0.737
   15SOL    HW1   60   1.529   0.493   0.687
   15SOL    HW2   61   1.654   0.515   0.790
   16SOL     OW   62   0.231   1.713   0.483
   16SOL    HW1   63   0.265   1.790   0.537
   16SOL    HW2   64   0.275   1.713   0.393
   17SOL     OW   65   0.230   1.434   0.538
   17SOL    HW1   66   0.204   1.530   0.538
   17SOL    HW2   67   0.159   1.380   0.583
   18SOL     OW   68   0.240   1.091   0.886
   18SOL    HW1   69   0.254   1.007   0.938
   18SOL    HW2   70   0.185   1.155   0.941
   19SOL     OW   71   0.620   1.786   1.439
   19SOL    HW1   72   0.528   1.769   1.474
   19SOL    HW2   73   0.648   1.878   1.465
   20SOL     OW   74   0.606   0.964   0.123
   20SOL    HW1   75   0.613   1.048   0.069
   20SOL    HW2   76   0.652   0.977   0.211
   21SOL     OW   77   1.594   0.114   1.480
   21SOL    HW1   78   1.576   0.181   1.408
   21SOL    HW2   79   1.591   0.160   1.569
   22SOL     OW   80   0.122   0.643   0.563
   22SOL    HW1   81   0.077   0.555   0.580
   22SOL    HW2   82   0.121   0.697   0.647
   23SOL     OW   83   1.842   1.767   0.359
   23SOL    HW1   84   1.896   1.738   0.439
   23SOL    HW2   85   1.872   1.857   0.330
   24SOL     OW   86   0.027   1.596   0.117
   24SOL    HW1   87   0.008   1.500   0.138
   24SOL    HW2   88  -0.006   1.654   0.192
   25SOL     OW   89   1.689   0.922   0.612
   25SOL    HW1   90   1.784   0.893   0.620
   25SOL    HW2   91   1.681   0.987   0.537
   26SOL     OW   92   1.641   1.108   0.432
   26SOL    HW1   93   1.727   1.110   0.380
   26SOL    HW2   94   1.655   1.155   0.520
   27SOL     OW   95   0.113   0.737   1.597
   27SOL    HW1   96   0.201   0.724   1.642
   27SOL    HW2   97   0.100   0.834   1.575
   28SOL     OW   98   0.613   1.365   0.726
   28SOL    HW1   99   0.564   1.278   0.735
   28SOL    HW2  100   0.590   1.408   0.639
   29SOL     OW  101   0.809   0.004   0.502
   29SOL    HW1  102   0.849   0.095   0.493
   29SOL    HW2  103   0.709   0.012   0.508
   30SOL     OW  104   0.197   0.976   1.264
   30SOL    HW1  105   0.286   0.931   1.250
   30SOL    HW2  106   0.124   0.911   1.245
   31SOL     OW  107   1.525   0.999   0.190
   31SOL    HW1  108   1.462   0.923   0.203
   31SOL    HW2  109   1.573   1.017   0.276
   32SOL     OW  110   1.187   1.792   1.616
   32SOL    HW1  111   1.211   1.852   1.540
   32SOL    HW2  112   1.194   1.697   1.586
   33SOL     OW  113   0.317   0.251   1.801
   33SOL    HW1  114   0.388   0.322   1.807
   33SOL    HW2  115   0.229   0.290   1.829
   34SOL     OW  116   1.466   1.417   0.953
   34SOL    HW1  117   1.407   1.423   1.033
   34SOL    HW2  118   1.451   1.329   0.907
   35SOL     OW  119   1.667   1.714   0.572
   35SOL    HW1  120   1.626   1.691   0.484
   35SOL    HW2  121   1.649   1.640   0.637
   36SOL     OW  122   0.598   0.729   0.270
   36SOL    HW1  123   0.622   0.798   0.202
   36SOL    HW2  124   0.520   0.762   0.324
   37SOL     OW  125   1.281   0.345   0.944
   37SOL    HW1  126   1.195   0.295   0.931
   37SOL    HW2  127   1.343   0.291   1.000
   38SOL     OW  128   1.576   1.662   0.307
   38SOL    HW1  129   1.665   1.708   0.310
   38SOL    HW2  130   1.555   1.638   0.212
   39SOL     OW  131   0.807   0.605   1.465
   39SOL    HW1  132   0.760   0.602   1.554
   39SOL    HW2  133   0.756   0.550   1.399
   40SOL     OW  134   1.394   0.469   1.674
   40SOL    HW1  135   1.374   0.512   1.762
   40SOL    HW2  136   1.472   0.407   1.683
   41SOL     OW  137   0.973   0.890   1.572
   41SOL    HW1  138   1.019   0.806   1.543
   41SOL    HW2  139   0.917   0.924   1.497
   42SOL     OW  140   0.991   0.410   1.242
   42SOL    HW1  141   0.914   0.444   1.296
   42SOL    HW2  142   0.957   0.359   1.163
   43SOL     OW  143   1.041   0.701   0.429
   43SOL    HW1  144   1.067   0.697   0.525
   43SOL    HW2  145   0.956   0.650   0.415
   44SOL     OW  146   0.076   0.811   0.789
   44SOL    HW1  147   0.175   0.799   0.798
   44SOL    HW2  148   0.052   0.906   0.810
   45SOL     OW  149   0.130   1.821   1.571
   45SOL    HW1  150   0.120   1.806   1.670
   45SOL    HW2  151   0.044   1.857   1.535
   46SOL     OW  152   0.865   0.348   0.195
   46SOL    HW1  153   0.924   0.411   0.146
   46SOL    HW2  154   0.884   0.254   0.166
   47SOL     OW  155   1.719   0.585   1.831
   47SOL    HW1  156   1.693   0.674   1.795
   47SOL    HW2  157   1.717   0.517   1.758
   48SOL     OW  158   1.362   1.144   0.545
   48SOL    HW1  159   1.445   1.115   0.497
   48SOL    HW2  160   1.313   1.211   0.489
   49SOL     OW  161   0.550   0.196   0.885
   49SOL    HW1  162   0.545   0.191   0.985
   49SOL    HW2  163   0.552   0.292   0.856
   50SOL     OW  164   1.008   1.456   0.477
   50SOL    HW1  165   0.962   1.528   0.425
   50SOL    HW2  166   1.004   1.476   0.575
   51SOL     OW  167   0.351   1.801   0.853
   51SOL    HW1  168   0.401   1.715   0.859
   51SOL    HW2  169   0.416   1.878   0.850
   52SOL     OW  170   1.795   1.066   0.873
   52SOL    HW1  171   1.733   1.051   0.797
   52SOL    HW2  172   1.743   1.077   0.958
   53SOL     OW  173   0.321   0.943   0.242
   53SOL    HW1  174   0.403   0.982   0.200
   53SOL    HW2  175   0.294   0.861   0.193
   54SOL     OW  176   1.458   0.735   0.728
   54SOL    HW1  177   1.453   0.670   0.803
   54SOL    HW2  178   1.538   0.794   0.741
   55SOL     OW  179   0.461   1.266   1.727
   55SOL    HW1  180   0.411   1.267   1.641
   55SOL    HW2  181   0.398   1.248   1.803
   56SOL     OW  182   1.111   1.776   0.237
   56SOL    HW1  183   1.051   1.714   0.287
   56SOL    HW2  184   1.142   1.732   0.152
   57SOL     OW  185   0.202   0.285   1.498
   57SOL    HW1  186   0.122   0.345   1.485
   57SOL    HW2  187   0.192   0.236   1.584
   58SOL     OW  188   1.632   1.377   0.081
   58SOL    HW1  189   1.600   1.471   0.071
   58SOL    HW2  190   1.556   1.314   0.069
   59SOL     OW  191   0.464   1.743   0.323
   59SOL    HW1  192   0.497   1.782   0.409
   59SOL    HW2  193   0.540   1.736   0.258
   60SOL     OW  194   1.400   0.107   0.426
   60SOL    HW1  195   1.376   0.070   0.336
   60SOL    HW2  196   1.499   0.123   0.430
   61SOL     OW  197   0.249   1.785   1.241
   61SOL    HW1  198   0.306   1.720   1.291
   61SOL    HW2  199   0.233   1.752   1.148
   62SOL     OW  200   0.940   1.698   0.904
   62SOL    HW1  201   1.020   1.641   0.925
   62SOL    HW2  202   0.891   1.658   0.827
   63SOL     OW  203   0.382   0.700   0.480
   63SOL    HW1  204   0.427   0.610   0.477
   63SOL    HW2  205   0.288   0.689   0.513
   64SOL     OW  206   1.547   0.222   1.729
   64SOL    HW1  207   1.542   0.259   1.821
   64SOL    HW2  208   1.475   0.153   1.717
   65SOL     OW  209   0.614   0.122   0.117
   65SOL    HW1  210   0.712   0.100   0.124
   65SOL    HW2  211   0.583   0.105   0.024
   66SOL     OW  212   0.781   0.264   1.749
   66SOL    HW1  213   0.848   0.203   1.792
   66SOL    HW2  214   0.708   0.283   1.814
   67SOL     OW  215   0.888   1.514   1.195
   67SOL    HW1  216   0.865   1.489   1.101
   67SOL    HW2  217   0.949   1.445   1.234
   68SOL     OW  218   1.351   0.590   1.433
   68SOL    HW1  219   1.379   0.547   1.518
   68SOL    HW2  220   1.376   0.686   1.434
   69SOL     OW  221   0.803   1.402   0.924
   69SOL    HW1  222   0.893   1.416   0.882
   69SOL    HW2  223   0.732   1.404   0.853
   70SOL     OW  224   0.922   0.503   0.899
   70SOL    HW1  225   0.897   0.494   0.803
   70SOL    HW2  226   0.970   0.421   0.930
   71SOL     OW  227   0.539   0.064   0.512
   71SOL    HW1  228   0.458   0.065   0.570
   71SOL    HW2  229   0.542   0.147   0.457
   72SOL     OW  230   1.434   1.188   0.041
   72SOL    HW1  231   1.466   1.112   0.098
   72SOL    HW2  232   1.342   1.215   0.071
   73SOL     OW  233   0.297   0.035   0.171
   73SOL    HW1  234   0.346   0.119   0.150
   73SOL    HW2  235   0.359  -0.030   0.216
   74SOL     OW  236   0.935   0.236   0.480
   74SOL    HW1  237   0.887   0.277   0.402
   74SOL    HW2  238   1.034   0.234   0.461
   75SOL     OW  239   1.076   0.683   1.464
   75SOL    HW1  240   0.996   0.622   1.467
   75SOL    HW2  241   1.157   0.630   1.440
   76SOL     OW  242   1.227   1.570   0.793
   76SOL    HW1  243   1.248   1.644   0.728
   76SOL    HW2  244   1.295   1.570   0.866
   77SOL     OW  245   0.459   1.152   0.741
   77SOL    HW1  246   0.388   1.125   0.806
   77SOL    HW2  247   0.433   1.124   0.648
   78SOL     OW  248   1.271   1.797   0.591
   78SOL    HW1  249   1.315   1.861   0.527
   78SOL    HW2  250   1.221   1.849   0.661
   79SOL     OW  251   1.032   0.549   0.016
   79SOL    HW1  252   0.991   0.631  -0.023
   79SOL    HW2  253   1.096   0.575   0.089
   80SOL     OW  254   0.078   0.556   1.386
   80SOL    HW1  255   0.170   0.555   1.345
   80SOL    HW2  256   0.072   0.630   1.453
   81SOL     OW  257   0.561   0.222   1.147
   81SOL    HW1  258   0.599   0.138   1.184
   81SOL    HW2  259   0.473   0.241   1.191
   82SOL     OW  260   0.866   0.454   0.642
   82SOL    HW1  261   0.834   0.526   0.580
   82SOL    HW2  262   0.890   0.373   0.589
   83SOL     OW  263   1.017   0.039   0.753
   83SOL    HW1  264   0.945   0.044   0.684
   83SOL    HW2  265   0.993  -0.030   0.822
   84SOL     OW  266   1.429   1.173   0.867
   84SOL    HW1  267   1.374   1.089   0.860
   84SOL    HW2  268   1.455   1.202   0.775
   85SOL     OW  269   1.466   0.590   0.992
   85SOL    HW1  270   1.436   0.495   0.999
   85SOL    HW2  271   1.539   0.606   1.058
   86SOL     OW  272   1.857   0.833   0.377
   86SOL    HW1  273   1.899   0.769   0.441
   86SOL    HW2  274   1.819   0.782   0.299
   87SOL     OW  275   0.488   1.385   0.174
   87SOL    HW1  276   0.401   1.370   0.221
   87SOL    HW2  277   0.471   1.411   0.079
   88SOL     OW  278   1.664   1.280   0.657
   88SOL    HW1  279   1.763   1.288   0.671
   88SOL    HW2  280   1.619   1.364   0.688
   89SOL     OW  281   1.390   0.575   0.078
   89SOL    HW1  282   1.336   0.554   0.159
   89SOL    HW2  283   1.481   0.534   0.087
   90SOL     OW  284   0.527   0.256   0.328
   90SOL    HW1  285   0.554   0.197   0.253
   90SOL    HW2  286   0.527   0.351   0.297
   91SOL     OW  287   1.754   1.223   1.588
   91SOL    HW1  288   1.845   1.184   1.575
   91SOL    HW2  289   1.762   1.319   1.612
   92SOL     OW  290   1.592   1.629   1.625
   92SOL    HW1  291   1.619   1.663   1.535
   92SOL    HW2  292   1.671   1.591   1.671
   93SOL     OW  293   1.111   1.195   1.100
   93SOL    HW1  294   1.071   1.239   1.181
   93SOL    HW2  295   1.070   1.232   1.017
   94SOL     OW  296   0.915   0.089   1.402
   94SOL    HW1  297   0.940   0.069   1.307
   94SOL    HW2  298   0.987   0.145   1.444
   95SOL     OW  299   0.980   1.116   1.719
   95SOL    HW1  300   0.881   1.122   1.729
   95SOL    HW2  301   1.003   1.036   1.663
   96SOL     OW  302   0.705   1.050   0.368
   96SOL    HW1  303   0.691   1.057   0.467
   96SOL    HW2  304   0.789   0.999   0.350
   97SOL     OW  305   0.410   0.813   1.251
   97SOL    HW1  306   0.496   0.825   1.301
   97SOL    HW2  307   0.368   0.726   1.278
   98SOL     OW  308   1.274   0.386   1.262
   98SOL    HW1  309   1.295   0.460   1.326
   98SOL    HW2  310   1.185   0.403   1.219
   99SOL     OW  311   0.064   1.564   1.331
   99SOL    HW1  312   0.018   1.646   1.297
   99SOL    HW2  313   0.162   1.583   1.340
  100SOL     OW  314   0.367   1.100   0.501
  100SOL    HW1  315   0.360   1.183   0.445
  100SOL    HW2  316   0.371   1.020   0.441
  101SOL     OW  317   0.566   0.537   0.865
  101SOL    HW1  318   0.578   0.603   0.791
  101SOL    HW2  319   0.612   0.571   0.948
  102SOL     OW  320   1.252   1.348   0.388
  102SOL    HW1  321   1.302   1.425   0.428
  102SOL    HW2  322   1.157   1.350   0.420
  103SOL     OW  323   1.272   1.445   1.142
  103SOL    HW1  324   1.319   1.458   1.229
  103SOL    HW2  325   1.206   1.371   1.151
  104SOL     OW  326   1.582   0.639   0.472
  104SOL    HW1  327   1.551   0.700   0.545
  104SOL    HW2  328   1.632   0.691   0.403
  105SOL     OW  329   0.354   1.510   1.329
  105SOL    HW1  330   0.333   1.466   1.242
  105SOL    HW2  331   0.451   1.536   1.332
  106SOL     OW  332   0.402   0.751   1.598
  106SOL    HW1  333   0.470   0.806   1.551
  106SOL    HW2  334   0.442   0.663   1.625
  107SOL     OW  335   1.587   0.779   1.670
  107SOL    HW1  336   1.495   0.817   1.665
  107SOL    HW2  337   1.647   0.826   1.605
  108SOL     OW  338   1.013   0.105   1.770
  108SOL    HW1  339   1.019   0.190   1.718
  108SOL    HW2  340   1.045   0.029   1.713
  109SOL     OW  341   0.504   0.050   1.740
  109SOL    HW1  342   0.462  -0.007   1.670
  109SOL    HW2  343   0.438   0.119   1.772
  110SOL     OW  344   0.573   0.870   1.029
  110SOL    HW1  345   0.617   0.959   1.020
  110SOL    HW2  346   0.510   0.870   1.106
  111SOL     OW  347   1.360   0.862   1.045
  111SOL    HW1  348   1.285   0.862   0.979
  111SOL    HW2  349   1.397   0.770   1.054
  112SOL     OW  350   1.209   0.525   0.275
  112SOL    HW1  351   1.222   0.441   0.329
  112SOL    HW2  352   1.180   0.599   0.335
  113SOL     OW  353   0.307   0.213   1.231
  113SOL    HW1  354   0.284   0.250   1.321
  113SOL    HW2  355   0.277   0.118   1.225
  114SOL     OW  356   0.037   1.310   1.282
  114SOL    HW1  357   0.090   1.261   1.350
  114SOL    HW2  358   0.059   1.408   1.287
  115SOL     OW  359   0.732   0.634   1.064
  115SOL    HW1  360   0.791   0.608   0.988
  115SOL    HW2  361   0.704   0.730   1.053
  116SOL     OW  362   1.728   0.935   1.854
  116SOL    HW1  363   1.682   0.928   1.765
  116SOL    HW2  364   1.666   0.979   1.920
  117SOL     OW  365   0.307   0.063   0.618
  117SOL    HW1  366   0.296   0.157   0.651
  117SOL    HW2  367   0.302   0.000   0.695
  118SOL     OW  368   1.622   0.367   0.374
  118SOL    HW1  369   1.624   0.291   0.438
  118SOL    HW2  370   1.574   0.444   0.414
  119SOL     OW  371   1.023   0.766   0.966
  119SOL    HW1  372   1.038   0.787   1.062
  119SOL    HW2  373   0.993   0.671   0.957
  120SOL     OW  374   0.980   1.573   1.700
  120SOL    HW1  375   0.960   1.617   1.612
  120SOL    HW2  376   1.019   1.482   1.684
  121SOL     OW  377   1.859   1.518   1.605
  121SOL    HW1  378   1.873   1.545   1.510
  121SOL    HW2  379   1.942   1.540   1.658
  122SOL     OW  380   0.350   0.898   1.804
  122SOL    HW1  381   0.426   0.942   1.852
  122SOL    HW2  382   0.385   0.851   1.722
  123SOL     OW  383   1.540   0.274   0.125
  123SOL    HW1  384   1.479   0.199   0.148
  123SOL    HW2  385   1.562   0.326   0.208
  124SOL     OW  386   1.303   0.838   0.042
  124SOL    HW1  387   1.337   0.745   0.057
  124SOL    HW2  388   1.321   0.865  -0.053
  125SOL     OW  389   1.068   1.333   0.849
  125SOL    HW1  390   1.075   1.249   0.794
  125SOL    HW2  391   1.130   1.402   0.813
  126SOL     OW  392   0.319   0.810   0.949
  126SOL    HW1  393   0.412   0.846   0.954
  126SOL    HW2  394   0.313   0.725   1.001
  127SOL     OW  395   0.339   0.509   1.006
  127SOL    HW1  396   0.287   0.426   0.989
  127SOL    HW2  397   0.416   0.514   0.942
  128SOL     OW  398   1.138   0.380   1.678
  128SOL    HW1  399   1.093   0.443   1.742
  128SOL    HW2  400   1.231   0.411   1.661
  129SOL     OW  401   1.160   0.207   1.477
  129SOL    HW1  402   1.160   0.271   1.554
  129SOL    HW2  403   1.188   0.255   1.394
  130SOL     OW  404   0.008   1.326   0.200
  130SOL    HW1  405  -0.085   1.347   0.169
  130SOL    HW2  406   0.018   1.227   0.213
  131SOL     OW  407   0.088   1.801   0.927
  131SOL    HW1  408   0.046   1.715   0.900
  131SOL    HW2  409   0.182   1.804   0.893
  132SOL     OW  410   0.504   1.568   0.910
  132SOL    HW1  411   0.570   1.642   0.919
  132SOL    HW2  412   0.548   1.489   0.868
  133SOL     OW  413   1.002   0.796   1.238
  133SOL    HW1  414   1.043   0.764   1.324
  133SOL    HW2  415   0.906   0.769   1.235
  134SOL     OW  416   0.040   0.544   1.114
  134SOL    HW1  417   0.125   0.511   1.073
  134SOL    HW2  418   0.053   0.559   1.212
  135SOL     OW  419   0.189   0.520   1.722
  135SOL    HW1  420   0.248   0.480   1.652
  135SOL    HW2  421   0.131   0.591   1.681
  136SOL     OW  422   1.369   0.950   1.660
  136SOL    HW1  423   1.408   1.039   1.680
  136SOL    HW2  424   1.379   0.930   1.563
  137SOL     OW  425   0.815   0.572   0.325
  137SOL    HW1  426   0.822   0.483   0.279
  137SOL    HW2  427   0.721   0.606   0.317
  138SOL     OW  428   1.657   0.604   1.206
  138SOL    HW1  429   1.619   0.535   1.268
  138SOL    HW2  430   1.739   0.568   1.162
  139SOL     OW  431   0.252   1.564   1.744
  139SOL    HW1  432   0.222   1.621   1.820
  139SOL    HW2  433   0.245   1.467   1.770
  140SOL     OW  434   0.671   0.464   1.269
  140SOL    HW1  435   0.637   0.375   1.239
  140SOL    HW2  436   0.697   0.518   1.189
  141SOL     OW  437   0.930   1.678   1.465
  141SOL    HW1  438   0.906   1.660   1.370
  141SOL    HW2  439   0.960   1.772   1.475
  142SOL     OW  440   0.473   0.500   0.191
  142SOL    HW1  441   0.534   0.580   0.195
  142SOL    HW2  442   0.378   0.531   0.198
  143SOL     OW  443   0.159   1.137   1.466
  143SOL    HW1  444   0.181   1.076   1.542
  143SOL    HW2  445   0.169   1.088   1.380
  144SOL     OW  446   1.302   0.855   0.309
  144SOL    HW1  447   1.216   0.824   0.351
  144SOL    HW2  448   1.298   0.841   0.210
  145SOL     OW  449   1.759   1.747   1.154
  145SOL    HW1  450   1.820   1.777   1.081
  145SOL    HW2  451   1.721   1.658   1.132
  146SOL     OW  452   1.252   1.731   1.128
  146SOL    HW1  453   1.336   1.736   1.074
  146SOL    HW2  454   1.229   1.635   1.146
  147SOL     OW  455   0.083   1.258   1.022
  147SOL    HW1  456   0.078   1.257   1.122
  147SOL    HW2  457   0.000   1.217   0.984
  148SOL     OW  458   0.688   1.662   1.716
  148SOL    HW1  459   0.632   1.743   1.725
  148SOL    HW2  460   0.740   1.666   1.630
  149SOL     OW  461   0.903   0.086   0.133
  149SOL    HW1  462   0.954   0.087   0.047
  149SOL    HW2  463   0.959   0.044   0.204
  150SOL     OW  464   1.726   0.135   0.523
  150SOL    HW1  465   1.799   0.118   0.456
  150SOL    HW2  466   1.695   0.048   0.561
  151SOL     OW  467   1.388   1.573   0.477
  151SOL    HW1  468   1.455   1.585   0.403
  151SOL    HW2  469   1.348   1.662   0.500
  152SOL     OW  470   0.130   1.794   1.851
  152SOL    HW1  471   0.089   1.720   1.904
  152SOL    HW2  472   0.194   1.845   1.909
  153SOL     OW  473   1.280   0.927   0.672
  153SOL    HW1  474   1.340   0.846   0.674
  153SOL    HW2  475   1.320   0.996   0.612
  154SOL     OW  476   0.830   1.273   1.422
  154SOL    HW1  477   0.825   1.306   1.517
  154SOL    HW2  478   0.744   1.292   1.376
  155SOL     OW  479   0.672   1.616   0.154
  155SOL    HW1  480   0.681   1.626   0.055
  155SOL    HW2  481   0.632   1.527   0.175
  156SOL     OW  482   1.650   1.720   1.394
  156SOL    HW1  483   1.703   1.730   1.310
  156SOL    HW2  484   1.623   1.810   1.428
  157SOL     OW  485   1.841   0.175   0.963
  157SOL    HW1  486   1.880   0.090   0.927
  157SOL    HW2  487   1.743   0.177   0.944
  158SOL     OW  488   0.263   0.326   0.720
  158SOL    HW1  489   0.184   0.377   0.686
  158SOL    HW2  490   0.254   0.311   0.818
  159SOL     OW  491   1.194   1.612   0.031
  159SOL    HW1  492   1.200   1.519   0.068
  159SOL    HW2  493   1.135   1.612  -0.049
  160SOL     OW  494   0.822   1.002   1.372
  160SOL    HW1  495   0.862   1.001   1.280
  160SOL    HW2  496   0.832   1.094   1.412
  161SOL     OW  497   0.916   0.910   0.291
  161SOL    HW1  498   0.979   0.948   0.223
  161SOL    HW2  499   0.956   0.827   0.330
  162SOL     OW  500   1.504   1.607   0.044
  162SOL    HW1  501   1.412   1.644   0.051
  162SOL    HW2  502   1.542   1.627  -0.046
  163SOL     OW  503   0.372   1.288   1.490
  163SOL    HW1  504   0.359   1.381   1.456
  163SOL    HW2  505   0.288   1.236   1.477
  164SOL     OW  506   1.039   1.098   0.696
  164SOL    HW1  507   0.969   1.051   0.750
  164SOL    HW2  508   1.098   1.030   0.653
  165SOL     OW  509   1.014   0.236   0.971
  165SOL    HW1  510   1.006   0.200   0.878
  165SOL    HW2  511   1.012   0.160   1.036
  166SOL     OW  512   0.590   1.487   0.491
  166SOL    HW1  513   0.632   1.429   0.421
  166SOL    HW2  514   0.546   1.566   0.447
  167SOL     OW  515   1.709   0.385   1.381
  167SOL    HW1  516   1.782   0.454   1.385
  167SOL    HW2  517   1.737   0.310   1.322
  168SOL     OW  518   0.255   1.348   0.290
  168SOL    HW1  519   0.159   1.349   0.263
  168SOL    HW2  520   0.267   1.401   0.374
  169SOL     OW  521   0.105   1.013   1.726
  169SOL    HW1  522   0.028   0.980   1.780
  169SOL    HW2  523   0.190   0.983   1.768
  170SOL     OW  524   0.672   0.203   1.489
  170SOL    HW1  525   0.762   0.187   1.449
  170SOL    HW2  526   0.680   0.208   1.588
  171SOL     OW  527   0.075   0.345   0.033
  171SOL    HW1  528  -0.017   0.317   0.004
  171SOL    HW2  529   0.106   0.422  -0.023
  172SOL     OW  530   1.440   0.856   1.398
  172SOL    HW1  531   1.383   0.908   1.335
  172SOL    HW2  532   1.536   0.868   1.374
  173SOL     OW  533   0.072   0.166   0.318
  173SOL    HW1  534   0.055   0.249   0.264
  173SOL    HW2  535   0.162   0.129   0.296
  174SOL     OW  536   1.183   1.335   0.119
  174SOL    HW1  537   1.084   1.324   0.121
  174SOL    HW2  538   1.217   1.350   0.212
  175SOL     OW  539   0.613   0.842   1.431
  175SOL    HW1  540   0.669   0.923   1.414
  175SOL    HW2  541   0.672   0.762   1.434
  176SOL     OW  542   1.493   1.767   0.959
  176SOL    HW1  543   1.526   1.831   0.890
  176SOL    HW2  544   1.559   1.761   1.034
  177SOL     OW  545   0.716   0.565   1.708
  177SOL    HW1  546   0.735   0.630   1.782
  177SOL    HW2  547   0.776   0.485   1.717
  178SOL     OW  548   1.450   1.220   1.633
  178SOL    HW1  549   1.441   1.210   1.732
  178SOL    HW2  550   1.546   1.213   1.607
  179SOL     OW  551   0.390   1.741   1.560
  179SOL    HW1  552   0.299   1.782   1.558
  179SOL    HW2  553   0.383   1.647   1.592
  180SOL     OW  554   1.674   0.883   1.254
  180SOL    HW1  555   1.647   0.794   1.217
  180SOL    HW2  556   1.675   0.951   1.181
  181SOL     OW  557   1.225   0.325   0.449
  181SOL    HW1  558   1.290   0.251   0.438
  181SOL    HW2  559   1.245   0.375   0.533
  182SOL     OW  560   0.594   0.745   0.652
  182SOL    HW1  561   0.644   0.830   0.633
  182SOL    HW2  562   0.506   0.747   0.604
  183SOL     OW  563   1.777   0.342   1.642
  183SOL    HW1  564   1.760   0.373   1.548
  183SOL    HW2  565   1.693   0.305   1.680
  184SOL     OW  566   1.730   0.934   1.517
  184SOL    HW1  567   1.768   1.025   1.532
  184SOL    HW2  568   1.722   0.917   1.418
  185SOL     OW  569   0.859   1.374   0.016
  185SOL    HW1  570   0.813   1.389   0.104
  185SOL    HW2  571   0.903   1.459  -0.014
  186SOL     OW  572   0.661   1.790   0.953
  186SOL    HW1  573   0.615   1.878   0.940
  186SOL    HW2  574   0.760   1.802   0.946
  187SOL     OW  575   0.859   0.956   0.861
  187SOL    HW1  576   0.913   0.887   0.909
  187SOL    HW2  577   0.827   1.025   0.927
  188SOL     OW  578   1.083   0.984   0.087
  188SOL    HW1  579   1.060   1.037   0.005
  188SOL    HW2  580   1.164   0.928   0.068
  189SOL     OW  581   1.861   1.569   0.851
  189SOL    HW1  582   1.790   1.557   0.781
  189SOL    HW2  583   1.862   1.490   0.911
  190SOL     OW  584   0.221   1.314   1.844
  190SOL    HW1  585   0.156   1.241   1.823
  190SOL    HW2  586   0.225   1.328   1.942
  191SOL     OW  587   0.079   1.240   0.653
  191SOL    HW1  588   0.078   1.193   0.741
  191SOL    HW2  589   0.161   1.212   0.602
  192SOL     OW  590   0.672   1.391   1.624
  192SOL    HW1  591   0.594   1.341   1.662
  192SOL    HW2  592   0.669   1.486   1.655
  193SOL     OW  593   1.824   0.192   1.227
  193SOL    HW1  594   1.820   0.102   1.271
  193SOL    HW2  595   1.827   0.181   1.128
  194SOL     OW  596   0.428   0.424   0.520
  194SOL    HW1  597   0.458   0.352   0.458
  194SOL    HW2  598   0.389   0.384   0.603
  195SOL     OW  599   0.317   0.547   1.280
  195SOL    HW1  600   0.355   0.488   1.352
  195SOL    HW2  601   0.357   0.521   1.192
  196SOL     OW  602   0.812   1.586   0.687
  196SOL    HW1  603   0.844   1.596   0.593
  196SOL    HW2  604   0.733   1.524   0.689
  197SOL     OW  605   1.424   0.214   1.112
  197SOL    HW1  606   1.476   0.149   1.167
  197SOL    HW2  607   1.375   0.277   1.173
  198SOL     OW  608   1.001   0.034   1.154
  198SOL    HW1  609   0.938  -0.038   1.123
  198SOL    HW2  610   1.094  -0.002   1.154
  199SOL     OW  611   0.770   1.330   0.301
  199SOL    HW1  612   0.724   1.243   0.318
  199SOL    HW2  613   0.861   1.327   0.342
  200SOL     OW  614   0.618   1.567   1.284
  200SOL    HW1  615   0.613   1.649   1.341
  200SOL    HW2  616   0.707   1.564   1.239
  201SOL     OW  617   1.352   0.052   0.168
  201SOL    HW1  618   1.387   0.011   0.084
  201SOL    HW2  619   1.262   0.014   0.188
  202SOL     OW  620   1.300   0.453   0.691
  202SOL    HW1  621   1.241   0.533   0.695
  202SOL    HW2  622   1.315   0.418   0.784
  203SOL     OW  623   1.593   0.221   0.882
  203SOL    HW1  624   1.509   0.220   0.936
  203SOL    HW2  625   1.595   0.304   0.826
  204SOL     OW  626   0.039   1.077   0.300
  204SOL    HW1  627   0.138   1.066   0.291
  204SOL    HW2  628  -0.001   0.991   0.332
  205SOL     OW  629   0.875   1.646   0.337
  205SOL    HW1  630   0.798   1.611   0.283
  205SOL    HW2  631   0.843   1.717   0.399
  206SOL     OW  632   0.230   0.628   1.975
  206SOL    HW1  633   0.137   0.626   2.012
  206SOL    HW2  634   0.231   0.589   1.883
  207SOL     OW  635   0.019   0.368   2.509
  207SOL    HW1  636  -0.063   0.411   2.548
  207SOL    HW2  637  -0.009   0.295   2.446
  208SOL     OW  638   1.555   1.511   2.565
  208SOL    HW1  639   1.498   1.495   2.646
  208SOL    HW2  640   1.496   1.521   2.485
  209SOL     OW  641   1.135   0.703   2.579
  209SOL    HW1  642   1.192   0.781   2.554
  209SOL    HW2  643   1.075   0.729   2.655
  210SOL     OW  644   1.755   0.607   2.093
  210SOL    HW1  645   1.743   0.594   1.994
  210SOL    HW2  646   1.725   0.526   2.142
  211SOL     OW  647   0.685   1.012   2.527
  211SOL    HW1  648   0.754   0.996   2.597
  211SOL    HW2  649   0.612   1.069   2.565
  212SOL     OW  650   1.603   0.447   2.599
  212SOL    HW1  651   1.529   0.493   2.549
  212SOL    HW2  652   1.654   0.515   2.652
  213SOL     OW  653   0.231   1.713   2.345
  213SOL    HW1  654   0.265   1.790   2.399
  213SOL    HW2  655   0.275   1.713   2.255
  214SOL     OW  656   0.230   1.434   2.400
  214SOL    HW1  657   0.204   1.530   2.400
  214SOL    HW2  658   0.159   1.380   2.445
  215SOL     OW  659   0.240   1.091   2.748
  215SOL    HW1  660   0.254   1.007   2.800
  215SOL    HW2  661   0.185   1.155   2.803
  216SOL     OW  662   0.606   0.964   1.985
  216SOL    HW1  663   0.613   1.048   1.931
  216SOL    HW2  664   0.652   0.977   2.073
  217SOL     OW  665   0.122   0.643   2.425
  217SOL    HW1  666   0.077   0.555   2.442
  217SOL    HW2  667   0.121   0.697   2.509
  218SOL     OW  668   1.842   1.767   2.221
  218SOL    HW1  669   1.896   1.738   2.301
  218SOL    HW2  670   1.872   1.857   2.192
  219SOL     OW  671   0.027   1.596   1.979
  219SOL    HW1  672   0.008   1.500   2.000
  219SOL    HW2  673  -0.006   1.654   2.054
  220SOL     OW  674   1.689   0.922   2.474
  220SOL    HW1  675   1.784   0.893   2.482
  220SOL    HW2  676   1.681   0.987   2.399
  221SOL     OW  677   1.641   1.108   2.294
  221SOL    HW1  678   1.727   1.110   2.242
  221SOL    HW2  679   1.655   1.155   2.382
  222SOL     OW  680   0.613   1.365   2.588
  222SOL    HW1  681   0.564   1.278   2.597
  222SOL    HW2  682   0.590   1.408   2.501
  223SOL     OW  683   0.809   0.004   2.364
  223SOL    HW1  684   0.849   0.095   2.355
  223SOL    HW2  685   0.709   0.012   2.370
  224SOL     OW  686   1.525   0.999   2.052
  224SOL    HW1  687   1.462   0.923   2.065
  224SOL    HW2  688   1.573   1.017   2.138
  225SOL     OW  689   1.667   1.714   2.434
  225SOL    HW1  690   1.626   1.691   2.346
  225SOL    HW2  691   1.649   1.640   2.499
  226SOL     OW  692   0.598   0.729   2.132
  226SOL    HW1  693   0.622   0.798   2.064
  226SOL    HW2  694   0.520   0.762   2.186
  227SOL     OW  695   1.281   0.345   2.806
  227SOL    HW1  696   1.195   0.295   2.793
  227SOL    HW2  697   1.343   0.291   2.862
  228SOL     OW  698   1.576   1.662   2.169
  228SOL    HW1  699   1.665   1.708   2.172
  228SOL    HW2  700   1.555   1.638   2.074
  229SOL     OW  701   1.041   0.701   2.291
  229SOL    HW1  702   1.067   0.697   2.387
  229SOL    HW2  703   0.956   0.650   2.277
  230SOL     OW  704   0.076   0.811   2.651
  230SOL    HW1  705   0.175   0.799   2.660
  230SOL    HW2  706   0.052   0.906   2.672
  231SOL     OW  707   0.865   0.348   2.057
  231SOL    HW1  708   0.924   0.411   2.008
  231SOL    HW2  709   0.884   0.254   2.028
  232SOL     OW  710   1.362   1.144   2.407
  232SOL    HW1  711   1.445   1.115   2.359
  232SOL    HW2  712   1.313   1.211   2.351
  233SOL     OW  713   1.008   1.456   2.339
  233SOL    HW1  714   0.962   1.528   2.287
  233SOL    HW2  715   1.004   1.476   2.437
  234SOL     OW  716   0.351   1.801   2.715
  234SOL    HW1  717   0.401   1.715   2.721
  234SOL    HW2  718   0.416   1.878   2.712
  235SOL     OW  719   1.795   1.066   2.735
  235SOL    HW1  720   1.733   1.051   2.659
  235SOL    HW2  721   1.743   1.077   2.820
  236SOL     OW  722   0.321   0.943   2.104
  236SOL    HW1  723   0.403   0.982   2.062
  236SOL    HW2  724   0.294   0.861   2.055
  237SOL     OW  725   1.458   0.735   2.590
  237SOL    HW1  726   1.453   0.670   2.665
  237SOL    HW2  727   1.538   0.794   2.603
  238SOL     OW  728   1.111   1.776   2.099
  238SOL    HW1  729   1.051   1.714   2.149
  238SOL    HW2  730   1.142   1.732   2.014
  239SOL     OW  731   1.632   1.377   1.943
  239SOL    HW1  732   1.600   1.471   1.933
  239SOL    HW2  733   1.556   1.314   1.931
  240SOL     OW  734   0.464   1.743   2.185
  240SOL    HW1  735   0.497   1.782   2.271
  240SOL    HW2  736   0.540   1.736   2.120
  241SOL     OW  737   1.400   0.107   2.288
  241SOL    HW1  738   1.376   0.070   2.198
  241SOL    HW2  739   1.499   0.123   2.292
  242SOL     OW  740   0.940   1.698   2.766
  242SOL    HW1  741   1.020   1.641   2.787
  242SOL    HW2  742   0.891   1.658   2.689
  243SOL     OW  743   0.382   0.700   2.342
  243SOL    HW1  744   0.427   0.610   2.339
  243SOL    HW2  745   0.288   0.689   2.375
  244SOL     OW  746   0.614   0.122   1.979
  244SOL    HW1  747   0.712   0.100   1.986
  244SOL    HW2  748   0.583   0.105   1.886
  245SOL     OW  749   0.539   0.064   2.374
  245SOL    HW1  750   0.458   0.065   2.432
  245SOL    HW2  751   0.542   0.147   2.319
  246SOL     OW  752   1.434   1.188   1.903
  246SOL    HW1  753   1.466   1.112   1.960
  246SOL    HW2  754   1.342   1.215   1.933
  247SOL     OW  755   0.297   0.035   2.033
  247SOL    HW1  756   0.346   0.119   2.012
  247SOL    HW2  757   0.359  -0.030   2.078
  248SOL     OW  758   0.935   0.236   2.342
  248SOL    HW1  759   0.887   0.277   2.264
  248SOL    HW2  760   1.034   0.234   2.323
  249SOL     OW  761   0.459   1.152   2.603
  249SOL    HW1  762   0.388   1.125   2.668
  249SOL    HW2  763   0.433   1.124   2.510
  250SOL     OW  764   1.271   1.797   2.453
  250SOL    HW1  765   1.315   1.861   2.389
  250SOL    HW2  766   1.221   1.849   2.523
  251SOL     OW  767   1.032   0.549   1.878
  251SOL    HW1  768   0.991   0.631   1.839
  251SOL    HW2  769   1.096   0.575   1.951
  252SOL     OW  770   0.866   0.454   2.504
  252SOL    HW1  771   0.834   0.526   2.442
  252SOL    HW2  772   0.890   0.373   2.451
  253SOL     OW  773   1.017   0.039   2.615
  253SOL    HW1  774   0.945   0.044   2.546
  253SOL    HW2  775   0.993  -0.030   2.684
  254SOL     OW  776   1.857   0.833   2.239
  254SOL    HW1  777   1.899   0.769   2.303
  254SOL    HW2  778   1.819   0.782   2.161
  255SOL     OW  779   0.488   1.385   2.036
  255SOL    HW1  780   0.401   1.370   2.083
  255SOL    HW2  781   0.471   1.411   1.941
  256SOL     OW  782   1.664   1.280   2.519
  256SOL    HW1  783   1.763   1.288   2.533
  256SOL    HW2  784   1.619   1.364   2.550
  257SOL     OW  785   1.390   0.575   1.940
  257SOL    HW1  786   1.336   0.554   2.021
  257SOL    HW2  787   1.481   0.534   1.949
  258SOL     OW  788   0.527   0.256   2.190
  258SOL    HW1  789   0.554   0.197   2.115
  258SOL    HW2  790   0.527   0.351   2.159
  259SOL     OW  791   0.705   1.050   2.230
  259SOL    HW1  792   0.691   1.057   2.329
  259SOL    HW2  793   0.789   0.999   2.212
  260SOL     OW  794   0.367   1.100   2.363
  260SOL    HW1  795   0.360   1.183   2.307
  260SOL    HW2  796   0.371   1.020   2.303
  261SOL     OW  797   0.566   0.537   2.727
  261SOL    HW1  798   0.578   0.603   2.653
  261SOL    HW2  799   0.612   0.571   2.810
  262SOL     OW  800   1.252   1.348   2.250
  262SOL    HW1  801   1.302   1.425   2.290
  262SOL    HW2  802   1.157   1.350   2.282
  263SOL     OW  803   1.582   0.639   2.334
  263SOL    HW1  804   1.551   0.700   2.407
  263SOL    HW2  805   1.632   0.691   2.265
  264SOL     OW  806   1.209   0.525   2.137
  264SOL    HW1  807   1.222   0.441   2.191
  264SOL    HW2  808   1.180   0.599   2.197
  265SOL     OW  809   0.307   0.063   2.480
  265SOL    HW1  810   0.296   0.157   2.513
  265SOL    HW2  811   0.302   0.000   2.557
  266SOL     OW  812   1.622   0.367   2.236
  266SOL    HW1  813   1.624   0.291   2.300
  266SOL    HW2  814   1.574   0.444   2.276
  267SOL     OW  815   1.540   0.274   1.987
  267SOL    HW1  816   1.479   0.199   2.010
  267SOL    HW2  817   1.562   0.326   2.070
  268SOL     OW  818   1.303   0.838   1.904
  268SOL    HW1  819   1.337   0.745   1.919
  268SOL    HW2  820   1.321   0.865   1.809
  269SOL     OW  821   0.008   1.326   2.062
  269SOL    HW1  822  -0.085   1.347   2.031
  269SOL    HW2  823   0.018   1.227   2.075
  270SOL     OW  824   0.815   0.572   2.187
  270SOL    HW1  825   0.822   0.483   2.141
  270SOL    HW2  826   0.721   0.606   2.179
  271SOL     OW  827   0.473   0.500   2.053
  271SOL    HW1  828   0.534   0.580   2.057
  271SOL    HW2  829   0.378   0.531   2.060
  272SOL     OW  830   1.302   0.855   2.171
  272SOL    HW1  831   1.216   0.824   2.213
  272SOL    HW2  832   1.298   0.841   2.072
  273SOL     OW  833   1.726   0.135   2.385
  273SOL    HW1  834   1.799   0.118   2.318
  273SOL    HW2  835   1.695   0.048   2.423
  274SOL     OW  836   1.388   1.573   2.339
  274SOL    HW1  837   1.455   1.585   2.265
  274SOL    HW2  838   1.348   1.662   2.362
  275SOL     OW  839   1.280   0.927   2.534
  275SOL    HW1  840   1.340   0.846   2.536
  275SOL    HW2  841   1.320   0.996   2.474
  276SOL     OW  842   0.672   1.616   2.016
  276SOL    HW1  843   0.681   1.626   1.917
  276SOL    HW2  844   0.632   1.527   2.037
  277SOL     OW  845   1.841   0.175   2.825
  277SOL    HW1  846   1.880   0.090   2.789
  277SOL    HW2  847   1.743   0.177   2.806
  278SOL     OW  848   0.263   0.326   2.582
  278SOL    HW1  849   0.184   0.377   2.548
  278SOL    HW2  850   0.254   0.311   2.680
  279SOL     OW  851   1.194   1.612   1.893
  279SOL    HW1  852   1.200   1.519   1.930
  279SOL    HW2  853   1.135   1.612   1.813
  280SOL     OW  854   0.916   0.910   2.153
  280SOL    HW1  855   0.979   0.948   2.085
  280SOL    HW2  856   0.956   0.827   2.192
  281SOL     OW  857   1.504   1.607   1.906
  281SOL    HW1  858   1.412   1.644   1.913
  281SOL    HW2  859   1.542   1.627   1.816
  282SOL     OW  860   1.039   1.098   2.558
  282SOL    HW1  861   0.969   1.051   2.612
  282SOL    HW2  862   1.098   1.030   2.515
  283SOL     OW  863   0.590   1.487   2.353
  283SOL    HW1  864   0.632   1.429   2.283
  283SOL    HW2  865   0.546   1.566   2.309
  284SOL     OW  866   0.255   1.348   2.152
  284SOL    HW1  867   0.159   1.349   2.125
  284SOL    HW2  868   0.267   1.401   2.236
  285SOL     OW  869   0.075   0.345   1.895
  285SOL    HW1  870  -0.017   0.317   1.866
  285SOL    HW2  871   0.106   0.422   1.839
  286SOL     OW  872   0.072   0.166   2.180
  286SOL    HW1  873   0.055   0.249   2.126
  286SOL    HW2  874   0.162   0.129   2.158
  287SOL     OW  875   1.183   1.335   1.981
  287SOL    HW1  876   1.084   1.324   1.983
  287SOL    HW2  877   1.217   1.350   2.074
  288SOL     OW  878   1.225   0.325   2.311
  288SOL    HW1  879   1.290   0.251   2.300
  288SOL    HW2  880   1.245   0.375   2.395
  289SOL     OW  881   0.594   0.745   2.514
  289SOL    HW1  882   0.644   0.830   2.495
  289SOL    HW2  883   0.506   0.747   2.466
  290SOL     OW  884   0.859   1.374   1.878
  290SOL    HW1  885   0.813   1.389   1.966
  290SOL    HW2  886   0.903   1.459   1.848
  291SOL     OW  887   0.661   1.790   2.815
  291SOL    HW1  888   0.615   1.878   2.802
  291SOL    HW2  889   0.760   1.802   2.808
  292SOL     OW  890   0.859   0.956   2.723
  292SOL    HW1  891   0.913   0.887   2.771
  292SOL    HW2  892   0.827   1.025   2.789
  293SOL     OW  893   1.083   0.984   1.949
  293SOL    HW1  894   1.060   1.037   1.867
  293SOL    HW2  895   1.164   0.928   1.930
  294SOL     OW  896   0.079   1.240   2.515
  294SOL    HW1  897   0.078   1.193   2.603
  294SOL    HW2  898   0.161   1.212   2.464
  295SOL     OW  899   0.428   0.424   2.382
  295SOL    HW1  900   0.458   0.352   2.320
  295SOL    HW2  901   0.389   0.384   2.465
  296SOL     OW  902   0.812   1.586   2.549
  296SOL    HW1  903   0.844   1.596   2.455
  296SOL    HW2  904   0.733   1.524   2.551
  297SOL     OW  905   0.770   1.330   2.163
  297SOL    HW1  906   0.724   1.243   2.180
  297SOL    HW2  907   0.861   1.327   2.204
  298SOL     OW  908   1.352   0.052   2.030
  298SOL    HW1  909   1.387   0.011   1.946
  298SOL    HW2  910   1.262   0.014   2.050
  299SOL     OW  911   1.300   0.453   2.553
  299SOL    HW1  912   1.241   0.533   2.557
  299SOL    HW2  913   1.315   0.418   2.646
  300SOL     OW  914   0.039   1.077   2.162
  300SOL    HW1  915   0.138   1.066   2.153
  300SOL    HW2  916  -0.001   0.991   2.194
  301SOL     OW  917   0.875   1.646   2.199
  301SOL    HW1  918   0.798   1.611   2.145
  301SOL    HW2  919   0.843   1.717   2.261
  302SOL     OW  920   0.230   2.490   0.113
  302SOL    HW1  921   0.137   2.488   0.150
  302SOL    HW2  922   0.231   2.451   0.021
  303SOL     OW  923   0.225   2.137   0.996
  303SOL    HW1  924   0.260   2.120   1.088
  303SOL    HW2  925   0.137   2.092   0.984
  304SOL     OW  926   0.019   2.230   0.647
  304SOL    HW1  927  -0.063   2.273   0.686
  304SOL    HW2  928  -0.009   2.157   0.584
  305SOL     OW  929   1.135   2.565   0.717
  305SOL    HW1  930   1.192   2.643   0.692
  305SOL    HW2  931   1.075   2.591   0.793
  306SOL     OW  932   1.755   2.469   0.231
  306SOL    HW1  933   1.743   2.456   0.132
  306SOL    HW2  934   1.725   2.388   0.280
  307SOL     OW  935   0.850   2.660   1.823
  307SOL    HW1  936   0.846   2.736   1.888
  307SOL    HW2  937   0.872   2.696   1.732
  308SOL     OW  938   0.685   2.874   0.665
  308SOL    HW1  939   0.754   2.858   0.735
  308SOL    HW2  940   0.612   2.931   0.703
  309SOL     OW  941   0.438   2.254   1.499
  309SOL    HW1  942   0.520   2.198   1.508
  309SOL    HW2  943   0.357   2.196   1.503
  310SOL     OW  944   1.603   2.309   0.737
  310SOL    HW1  945   1.529   2.355   0.687
  310SOL    HW2  946   1.654   2.377   0.790
  311SOL     OW  947   1.594   1.976   1.480
  311SOL    HW1  948   1.576   2.043   1.408
  311SOL    HW2  949   1.591   2.022   1.569
  312SOL     OW  950   0.122   2.505   0.563
  312SOL    HW1  951   0.077   2.417   0.580
  312SOL    HW2  952   0.121   2.559   0.647
  313SOL     OW  953   0.113   2.599   1.597
  313SOL    HW1  954   0.201   2.586   1.642
  313SOL    HW2  955   0.100   2.696   1.575
  314SOL     OW  956   0.809   1.866   0.502
  314SOL    HW1  957   0.849   1.957   0.493
  314SOL    HW2  958   0.709   1.874   0.508
  315SOL     OW  959   0.317   2.113   1.801
  315SOL    HW1  960   0.388   2.184   1.807
  315SOL    HW2  961   0.229   2.152   1.829
  316SOL     OW  962   0.598   2.591   0.270
  316SOL    HW1  963   0.622   2.660   0.202
  316SOL    HW2  964   0.520   2.624   0.324
  317SOL     OW  965   1.281   2.207   0.944
  317SOL    HW1  966   1.195   2.157   0.931
  317SOL    HW2  967   1.343   2.153   1.000
  318SOL     OW  968   0.807   2.467   1.465
  318SOL    HW1  969   0.760   2.464   1.554
  318SOL    HW2  970   0.756   2.412   1.399
  319SOL     OW  971   1.394   2.331   1.674
  319SOL    HW1  972   1.374   2.374   1.762
  319SOL    HW2  973   1.472   2.269   1.683
  320SOL     OW  974   0.991   2.272   1.242
  320SOL    HW1  975   0.914   2.306   1.296
  320SOL    HW2  976   0.957   2.221   1.163
  321SOL     OW  977   1.041   2.563   0.429
  321SOL    HW1  978   1.067   2.559   0.525
  321SOL    HW2  979   0.956   2.512   0.415
  322SOL     OW  980   0.076   2.673   0.789
  322SOL    HW1  981   0.175   2.661   0.798
  322SOL    HW2  982   0.052   2.768   0.810
  323SOL     OW  983   0.865   2.210   0.195
  323SOL    HW1  984   0.924   2.273   0.146
  323SOL    HW2  985   0.884   2.116   0.166
  324SOL     OW  986   1.719   2.447   1.831
  324SOL    HW1  987   1.693   2.536   1.795
  324SOL    HW2  988   1.717   2.379   1.758
  325SOL     OW  989   0.550   2.058   0.885
  325SOL    HW1  990   0.545   2.053   0.985
  325SOL    HW2  991   0.552   2.154   0.856
  326SOL     OW  992   1.458   2.597   0.728
  326SOL    HW1  993   1.453   2.532   0.803
  326SOL    HW2  994   1.538   2.656   0.741
  327SOL     OW  995   0.202   2.147   1.498
  327SOL    HW1  996   0.122   2.207   1.485
  327SOL    HW2  997   0.192   2.098   1.584
  328SOL     OW  998   1.400   1.969   0.426
  328SOL    HW1  999   1.376   1.932   0.336
  328SOL    HW2 1000   1.499   1.985   0.430
  329SOL     OW 1001   0.382   2.562   0.480
  329SOL    HW1 1002   0.427   2.472   0.477
  329SOL    HW2 1003   0.288   2.551   0.513
  330SOL     OW 1004   1.547   2.084   1.729
  330SOL    HW1 1005   1.542   2.121   1.821
  330SOL    HW2 1006   1.475   2.015   1.717
  331SOL     OW 1007   0.781   2.126   1.749
  331SOL    HW1 1008   0.848   2.065   1.792
  331SOL    HW2 1009   0.708   2.145   1.814
  332SOL     OW 1010   1.351   2.452   1.433
  332SOL    HW1 1011   1.379   2.409   1.518
  332SOL    HW2 1012   1.376   2.548   1.434
  333SOL     OW 1013   0.922   2.365   0.899
  333SOL    HW1 1014   0.897   2.356   0.803
  333SOL    HW2 1015   0.970   2.283   0.930
  334SOL     OW 1016   0.539   1.926   0.512
  334SOL    HW1 1017   0.458   1.927   0.570
  334SOL    HW2 1018   0.542   2.009   0.457
  335SOL     OW 1019   0.297   1.897   0.171
  335SOL    HW1 1020   0.346   1.981   0.150
  335SOL    HW2 1021   0.359   1.832   0.216
  336SOL     OW 1022   0.935   2.098   0.480
  336SOL    HW1 1023   0.887   2.139   0.402
  336SOL    HW2 1024   1.034   2.096   0.461
  337SOL     OW 1025   1.076   2.545   1.464
  337SOL    HW1 1026   0.996   2.484   1.467
  337SOL    HW2 1027   1.157   2.492   1.440
  338SOL     OW 1028   1.032   2.411   0.016
  338SOL    HW1 1029   0.991   2.493  -0.023
  338SOL    HW2 1030   1.096   2.437   0.089
  339SOL     OW 1031   0.078   2.418   1.386
  339SOL    HW1 1032   0.170   2.417   1.345
  339SOL    HW2 1033   0.072   2.492   1.453
  340SOL     OW 1034   0.561   2.084   1.147
  340SOL    HW1 1035   0.599   2.000   1.184
  340SOL    HW2 1036   0.473   2.103   1.191
  341SOL     OW 1037   0.866   2.316   0.642
  341SOL    HW1 1038   0.834   2.388   0.580
  341SOL    HW2 1039   0.890   2.235   0.589
  342SOL     OW 1040   1.017   1.901   0.753
  342SOL    HW1 1041   0.945   1.906   0.684
  342SOL    HW2 1042   0.993   1.832   0.822
  343SOL     OW 1043   1.466   2.452   0.992
  343SOL    HW1 1044   1.436   2.357   0.999
  343SOL    HW2 1045   1.539   2.468   1.058
  344SOL     OW 1046   1.857   2.695   0.377
  344SOL    HW1 1047   1.899   2.631   0.441
  344SOL    HW2 1048   1.819   2.644   0.299
  345SOL     OW 1049   1.390   2.437   0.078
  345SOL    HW1 1050   1.336   2.416   0.159
  345SOL    HW2 1051   1.481   2.396   0.087
  346SOL     OW 1052   0.527   2.118   0.328
  346SOL    HW1 1053   0.554   2.059   0.253
  346SOL    HW2 1054   0.527   2.213   0.297
  347SOL     OW 1055   0.915   1.951   1.402
  347SOL    HW1 1056   0.940   1.931   1.307
  347SOL    HW2 1057   0.987   2.007   1.444
  348SOL     OW 1058   0.705   2.912   0.368
  348SOL    HW1 1059   0.691   2.919   0.467
  348SOL    HW2 1060   0.789   2.861   0.350
  349SOL     OW 1061   0.410   2.675   1.251
  349SOL    HW1 1062   0.496   2.687   1.301
  349SOL    HW2 1063   0.368   2.588   1.278
  350SOL     OW 1064   1.274   2.248   1.262
  350SOL    HW1 1065   1.295   2.322   1.326
  350SOL    HW2 1066   1.185   2.265   1.219
  351SOL     OW 1067   0.566   2.399   0.865
  351SOL    HW1 1068   0.578   2.465   0.791
  351SOL    HW2 1069   0.612   2.433   0.948
  352SOL     OW 1070   1.582   2.501   0.472
  352SOL    HW1 1071   1.551   2.562   0.545
  352SOL    HW2 1072   1.632   2.553   0.403
  353SOL     OW 1073   1.587   2.641   1.670
  353SOL    HW1 1074   1.495   2.679   1.665
  353SOL    HW2 1075   1.647   2.688   1.605
  354SOL     OW 1076   1.013   1.967   1.770
  354SOL    HW1 1077   1.019   2.052   1.718
  354SOL    HW2 1078   1.045   1.891   1.713
  355SOL     OW 1079   0.504   1.912   1.740
  355SOL    HW1 1080   0.462   1.855   1.670
  355SOL    HW2 1081   0.438   1.981   1.772
  356SOL     OW 1082   1.360   2.724   1.045
  356SOL    HW1 1083   1.285   2.724   0.979
  356SOL    HW2 1084   1.397   2.632   1.054
  357SOL     OW 1085   1.209   2.387   0.275
  357SOL    HW1 1086   1.222   2.303   0.329
  357SOL    HW2 1087   1.180   2.461   0.335
  358SOL     OW 1088   0.307   2.075   1.231
  358SOL    HW1 1089   0.284   2.112   1.321
  358SOL    HW2 1090   0.277   1.980   1.225
  359SOL     OW 1091   0.732   2.496   1.064
  359SOL    HW1 1092   0.791   2.470   0.988
  359SOL    HW2 1093   0.704   2.592   1.053
  360SOL     OW 1094   1.728   2.797   1.854
  360SOL    HW1 1095   1.682   2.790   1.765
  360SOL    HW2 1096   1.666   2.841   1.920
  361SOL     OW 1097   0.307   1.925   0.618
  361SOL    HW1 1098   0.296   2.019   0.651
  361SOL    HW2 1099   0.302   1.862   0.695
  362SOL     OW 1100   1.622   2.229   0.374
  362SOL    HW1 1101   1.624   2.153   0.438
  362SOL    HW2 1102   1.574   2.306   0.414
  363SOL     OW 1103   1.540   2.136   0.125
  363SOL    HW1 1104   1.479   2.061   0.148
  363SOL    HW2 1105   1.562   2.188   0.208
  364SOL     OW 1106   0.319   2.672   0.949
  364SOL    HW1 1107   0.412   2.708   0.954
  364SOL    HW2 1108   0.313   2.587   1.001
  365SOL     OW 1109   0.339   2.371   1.006
  365SOL    HW1 1110   0.287   2.288   0.989
  365SOL    HW2 1111   0.416   2.376   0.942
  366SOL     OW 1112   1.138   2.242   1.678
  366SOL    HW1 1113   1.093   2.305   1.742
  366SOL    HW2 1114   1.231   2.273   1.661
  367SOL     OW 1115   1.160   2.069   1.477
  367SOL    HW1 1116   1.160   2.133   1.554
  367SOL    HW2 1117   1.188   2.117   1.394
  368SOL     OW 1118   0.040   2.406   1.114
  368SOL    HW1 1119   0.125   2.373   1.073
  368SOL    HW2 1120   0.053   2.421   1.212
  369SOL     OW 1121   0.189   2.382   1.722
  369SOL    HW1 1122   0.248   2.342   1.652
  369SOL    HW2 1123   0.131   2.453   1.681
  370SOL     OW 1124   0.815   2.434   0.325
  370SOL    HW1 1125   0.822   2.345   0.279
  370SOL    HW2 1126   0.721   2.468   0.317
  371SOL     OW 1127   1.657   2.466   1.206
  371SOL    HW1 1128   1.619   2.397   1.268
  371SOL    HW2 1129   1.739   2.430   1.162
  372SOL     OW 1130   0.671   2.326   1.269
  372SOL    HW1 1131   0.637   2.237   1.239
  372SOL    HW2 1132   0.697   2.380   1.189
  373SOL     OW 1133   0.473   2.362   0.191
  373SOL    HW1 1134   0.534   2.442   0.195
  373SOL    HW2 1135   0.378   2.393   0.198
  374SOL     OW 1136   0.903   1.948   0.133
  374SOL    HW1 1137   0.954   1.949   0.047
  374SOL    HW2 1138   0.959   1.906   0.204
  375SOL     OW 1139   1.726   1.997   0.523
  375SOL    HW1 1140   1.799   1.980   0.456
  375SOL    HW2 1141   1.695   1.910   0.561
  376SOL     OW 1142   1.280   2.789   0.672
  376SOL    HW1 1143   1.340   2.708   0.674
  376SOL    HW2 1144   1.320   2.858   0.612
  377SOL     OW 1145   1.841   2.037   0.963
  377SOL    HW1 1146   1.880   1.952   0.927
  377SOL    HW2 1147   1.743   2.039   0.944
  378SOL     OW 1148   0.263   2.188   0.720
  378SOL    HW1 1149   0.184   2.239   0.686
  378SOL    HW2 1150   0.254   2.173   0.818
  379SOL     OW 1151   1.014   2.098   0.971
  379SOL    HW1 1152   1.006   2.062   0.878
  379SOL    HW2 1153   1.012   2.022   1.036
  380SOL     OW 1154   1.709   2.247   1.381
  380SOL    HW1 1155   1.782   2.316   1.385
  380SOL    HW2 1156   1.737   2.172   1.322
  381SOL     OW 1157   0.105   2.875   1.726
  381SOL    HW1 1158   0.028   2.842   1.780
  381SOL    HW2 1159   0.190   2.845   1.768
  382SOL     OW 1160   0.672   2.065   1.489
  382SOL    HW1 1161   0.762   2.049   1.449
  382SOL    HW2 1162   0.680   2.070   1.588
  383SOL     OW 1163   0.075   2.207   0.033
  383SOL    HW1 1164  -0.017   2.179   0.004
  383SOL    HW2 1165   0.106   2.284  -0.023
  384SOL     OW 1166   1.440   2.718   1.398
  384SOL    HW1 1167   1.383   2.770   1.335
  384SOL    HW2 1168   1.536   2.730   1.374
  385SOL     OW 1169   0.072   2.028   0.318
  385SOL    HW1 1170   0.055   2.111   0.264
  385SOL    HW2 1171   0.162   1.991   0.296
  386SOL     OW 1172   0.613   2.704   1.431
  386SOL    HW1 1173   0.669   2.785   1.414
  386SOL    HW2 1174   0.672   2.624   1.434
  387SOL     OW 1175   0.716   2.427   1.708
  387SOL    HW1 1176   0.735   2.492   1.782
  387SOL    HW2 1177   0.776   2.347   1.717
  388SOL     OW 1178   1.674   2.745   1.254
  388SOL    HW1 1179   1.647   2.656   1.217
  388SOL    HW2 1180   1.675   2.813   1.181
  389SOL     OW 1181   1.225   2.187   0.449
  389SOL    HW1 1182   1.290   2.113   0.438
  389SOL    HW2 1183   1.245   2.237   0.533
  390SOL     OW 1184   0.594   2.607   0.652
  390SOL    HW1 1185   0.644   2.692   0.633
  390SOL    HW2 1186   0.506   2.609   0.604
  391SOL     OW 1187   1.777   2.204   1.642
  391SOL    HW1 1188   1.760   2.235   1.548
  391SOL    HW2 1189   1.693   2.167   1.680
  392SOL     OW 1190   1.824   2.054   1.227
  392SOL    HW1 1191   1.820   1.964   1.271
  392SOL    HW2 1192   1.827   2.043   1.128
  393SOL     OW 1193   0.428   2.286   0.520
  393SOL    HW1 1194   0.458   2.214   0.458
  393SOL    HW2 1195   0.389   2.246   0.603
  394SOL     OW 1196   0.317   2.409   1.280
  394SOL    HW1 1197   0.355   2.350   1.352
  394SOL    HW2 1198   0.357   2.383   1.192
  395SOL     OW 1199   1.424   2.076   1.112
  395SOL    HW1 1200   1.476   2.011   1.167
  395SOL    HW2 1201   1.375   2.139   1.173
  396SOL     OW 1202   1.001   1.896   1.154
  396SOL    HW1 1203   0.938   1.824   1.123
  396SOL    HW2 1204   1.094   1.860   1.154
  397SOL     OW 1205   1.352   1.914   0.168
  397SOL    HW1 1206   1.387   1.873   0.084
  397SOL    HW2 1207   1.262   1.876   0.188
  398SOL     OW 1208   1.300   2.315   0.691
  398SOL    HW1 1209   1.241   2.395   0.695
  398SOL    HW2 1210   1.315   2.280   0.784
  399SOL     OW 1211   1.593   2.083   0.882
  399SOL    HW1 1212   1.509   2.082   0.936
  399SOL    HW2 1213   1.595   2.166   0.826
  400SOL     OW 1214   0.230   2.490   1.975
  400SOL    HW1 1215   0.137   2.488   2.012
  400SOL    HW2 1216   0.231   2.451   1.883
  401SOL     OW 1217   0.019   2.230   2.509
  401SOL    HW1 1218  -0.063   2.273   2.548
  401SOL    HW2 1219  -0.009   2.157   2.446
  402SOL     OW 1220   1.135   2.565   2.579
  402SOL    HW1 1221   1.192   2.643   2.554
  402SOL    HW2 1222   1.075   2.591   2.655
  403SOL     OW 1223   1.755   2.469   2.093
  403SOL    HW1 1224   1.743   2.456   1.994
  403SOL    HW2 1225   1.725   2.388   2.142
  404SOL     OW 1226   0.685   2.874   2.527
  404SOL    HW1 1227   0.754   2.858   2.597
  404SOL    HW2 1228   0.612   2.931   2.565
  405SOL     OW 1229   1.603   2.309   2.599
  405SOL    HW1 1230   1.529   2.355   2.549
  405SOL    HW2 1231   1.654   2.377   2.652
  406SOL     OW 1232   0.122   2.505   2.425
  406SOL    HW1 1233   0.077   2.417   2.442
  406SOL    HW2 1234   0.121   2.559   2.509
  407SOL     OW 1235   0.809   1.866   2.364
  407SOL    HW1 1236   0.849   1.957   2.355
  407SOL    HW2 1237   0.709   1.874   2.370
  408SOL     OW 1238   0.598   2.591   2.132
  408SOL    HW1 1239   0.622   2.660   2.064
  408SOL    HW2 1240   0.520   2.624   2.186
  409SOL     OW 1241   1.281   2.207   2.806
  409SOL    HW1 1242   1.195   2.157   2.793
  409SOL    HW2 1243   1.343   2.153   2.862
  410SOL     OW 1244   1.041   2.563   2.291
  410SOL    HW1 1245   1.067   2.559   2.387
  410SOL    HW2 1246   0.956   2.512   2.277
  411SOL     OW 1247   0.076   2.673   2.651
  411SOL    HW1 1248   0.175   2.661   2.660
  411SOL    HW2 1249   0.052   2.768   2.672
  412SOL     OW 1250   0.865   2.210   2.057
  412SOL    HW1 1251   0.924   2.273   2.008
  412SOL    HW2 1252   0.884   2.116   2.028
  413SOL     OW 1253   0.550   2.058   2.747
  413SOL    HW1 1254   0.545   2.053   2.847
  413SOL    HW2 1255   0.552   2.154   2.718
  414SOL     OW 1256   1.458   2.597   2.590
  414SOL    HW1 1257   1.453   2.532   2.665
  414SOL    HW2 1258   1.538   2.656   2.603
  415SOL     OW 1259   1.400   1.969   2.288
  415SOL    HW1 1260   1.376   1.932   2.198
  415SOL    HW2 1261   1.499   1.985   2.292
  416SOL     OW 1262   0.382   2.562   2.342
  416SOL    HW1 1263   0.427   2.472   2.339
  416SOL    HW2 1264   0.288   2.551   2.375
  417SOL     OW 1265   0.614   1.984   1.979
  417SOL    HW1 1266   0.712   1.962   1.986
  417SOL    HW2 1267   0.583   1.967   1.886
  418SOL     OW 1268   0.539   1.926   2.374
  418SOL    HW1 1269   0.458   1.927   2.432
  418SOL    HW2 1270   0.542   2.009   2.319
  419SOL     OW 1271   0.297   1.897   2.033
  419SOL    HW1 1272   0.346   1.981   2.012
  419SOL    HW2 1273   0.359   1.832   2.078
  420SOL     OW 1274   0.935   2.098   2.342
  420SOL    HW1 1275   0.887   2.139   2.264
  420SOL    HW2 1276   1.034   2.096   2.323
  421SOL     OW 1277   0.459   3.014   2.603
  421SOL    HW1 1278   0.388   2.987   2.668
  421SOL    HW2 1279   0.433   2.986   2.510
  422SOL     OW 1280   1.032   2.411   1.878
  422SOL    HW1 1281   0.991   2.493   1.839
  422SOL    HW2 1282   1.096   2.437   1.951
  423SOL     OW 1283   0.866   2.316   2.504
  423SOL    HW1 1284   0.834   2.388   2.442
  423SOL    HW2 1285   0.890   2.235   2.451
  424SOL     OW 1286   1.017   1.901   2.615
  424SOL    HW1 1287   0.945   1.906   2.546
  424SOL    HW2 1288   0.993   1.832   2.684
  425SOL     OW 1289   1.857   2.695   2.239
  425SOL    HW1 1290   1.899   2.631   2.303
  425SOL    HW2 1291   1.819   2.644   2.161
  426SOL     OW 1292   1.390   2.437   1.940
  426SOL    HW1 1293   1.336   2.416   2.021
  426SOL    HW2 1294   1.481   2.396   1.949
  427SOL     OW 1295   0.527   2.118   2.190
  427SOL    HW1 1296   0.554   2.059   2.115
  427SOL    HW2 1297   0.527   2.213   2.159
  428SOL     OW 1298   0.705   2.912   2.230
  428SOL    HW1 1299   0.691   2.919   2.329
  428SOL    HW2 1300   0.789   2.861   2.212
  429SOL     OW 1301   0.566   2.399   2.727
  429SOL    HW1 1302   0.578   2.465   2.653
  429SOL    HW2 1303   0.612   2.433   2.810
  430SOL     OW 1304   1.582   2.501   2.334
  430SOL    HW1 1305   1.551   2.562   2.407
  430SOL    HW2 1306   1.632   2.553   2.265
  431SOL     OW 1307   1.209   2.387   2.137
  431SOL    HW1 1308   1.222   2.303   2.191
  431SOL    HW2 1309   1.180   2.461   2.197
  432SOL     OW 1310   0.307   1.925   2.480
  432SOL    HW1 1311   0.296   2.019   2.513
  432SOL    HW2 1312   0.302   1.862   2.557
  433SOL     OW 1313   1.622   2.229   2.236
  433SOL    HW1 1314   1.624   2.153   2.300
  433SOL    HW2 1315   1.574   2.306   2.276
  434SOL     OW 1316   1.540   2.136   1.987
  434SOL    HW1 1317   1.479   2.061   2.010
  434SOL    HW2 1318   1.562   2.188   2.070
  435SOL     OW 1319   0.815   2.434   2.187
  435SOL    HW1 1320   0.822   2.345   2.141
  435SOL    HW2 1321   0.721   2.468   2.179
  436SOL     OW 1322   0.473   2.362   2.053
  436SOL    HW1 1323   0.534   2.442   2.057
  436SOL    HW2 1324   0.378   2.393   2.060
  437SOL     OW 1325   1.726   1.997   2.385
  437SOL    HW1 1326   1.799   1.980   2.318
  437SOL    HW2 1327   1.695   1.910   2.423
  438SOL     OW 1328   1.280   2.789   2.534
  438SOL    HW1 1329   1.340   2.708   2.536
  438SOL    HW2 1330   1.320   2.858   2.474
  439SOL     OW 1331   1.841   2.037   2.825
  439SOL    HW1 1332   1.880   1.952   2.789
  439SOL    HW2 1333   1.743   2.039   2.806
  440SOL     OW 1334   0.263   2.188   2.582
  440SOL    HW1 1335   0.184   2.239   2.548
  440SOL    HW2 1336   0.254   2.173   2.680
  441SOL     OW 1337   0.916   2.772   2.153
  441SOL    HW1 1338   0.979   2.810   2.085
  441SOL    HW2 1339   0.956   2.689   2.192
  442SOL     OW 1340   0.075   2.207   1.895
  442SOL    HW1 1341  -0.017   2.179   1.866
  442SOL    HW2 1342   0.106   2.284   1.839
  443SOL     OW 1343   0.072   2.028   2.180
  443SOL    HW1 1344   0.055   2.111   2.126
  443SOL    HW2 1345   0.162   1.991   2.158
  444SOL     OW 1346   1.225   2.187   2.311
  444SOL    HW1 1347   1.290   2.113   2.300
  444SOL    HW2 1348   1.245   2.237   2.395
  445SOL     OW 1349   0.594   2.607   2.514
  445SOL    HW1 1350   0.644   2.692   2.495
  445SOL    HW2 1351   0.506   2.609   2.466
  446SOL     OW 1352   0.428   2.286   2.382
  446SOL    HW1 1353   0.458   2.214   2.320
  446SOL    HW2 1354   0.389   2.246   2.465
  447SOL     OW 1355   1.352   1.914   2.030
  447SOL    HW1 1356   1.387   1.873   1.946
  447SOL    HW2 1357   1.262   1.876   2.050
  448SOL     OW 1358   1.300   2.315   2.553
  448SOL    HW1 1359   1.241   2.395   2.557
  448SOL    HW2 1360   1.315   2.280   2.646
  449SOL     OW 1361   2.092   0.628   0.113
  449SOL    HW1 1362   1.999   0.626   0.150
  449SOL    HW2 1363   2.093   0.589   0.021
  450SOL     OW 1364   2.087   0.275   0.996
  450SOL    HW1 1365   2.122   0.258   1.088
  450SOL    HW2 1366   1.999   0.230   0.984
  451SOL     OW 1367   1.881   0.368   0.647
  451SOL    HW1 1368   1.799   0.411   0.686
  451SOL    HW2 1369   1.853   0.295   0.584
  452SOL     OW 1370   2.431   1.275   1.165
  452SOL    HW1 1371   2.338   1.268   1.128
  452SOL    HW2 1372   2.442   1.364   1.209
  453SOL     OW 1373   2.712   0.798   1.823
  453SOL    HW1 1374   2.708   0.874   1.888
  453SOL    HW2 1375   2.734   0.834   1.732
  454SOL     OW 1376   2.547   1.012   0.665
  454SOL    HW1 1377   2.616   0.996   0.735
  454SOL    HW2 1378   2.474   1.069   0.703
  455SOL     OW 1379   2.548   1.161   1.803
  455SOL    HW1 1380   2.608   1.240   1.817
  455SOL    HW2 1381   2.462   1.192   1.762
  456SOL     OW 1382   2.197   1.435   1.061
  456SOL    HW1 1383   2.119   1.404   1.008
  456SOL    HW2 1384   2.255   1.493   1.004
  457SOL     OW 1385   2.300   0.392   1.499
  457SOL    HW1 1386   2.382   0.336   1.508
  457SOL    HW2 1387   2.219   0.334   1.503
  458SOL     OW 1388   2.093   1.713   0.483
  458SOL    HW1 1389   2.127   1.790   0.537
  458SOL    HW2 1390   2.137   1.713   0.393
  459SOL     OW 1391   2.092   1.434   0.538
  459SOL    HW1 1392   2.066   1.530   0.538
  459SOL    HW2 1393   2.021   1.380   0.583
  460SOL     OW 1394   2.102   1.091   0.886
  460SOL    HW1 1395   2.116   1.007   0.938
  460SOL    HW2 1396   2.047   1.155   0.941
  461SOL     OW 1397   2.482   1.786   1.439
  461SOL    HW1 1398   2.390   1.769   1.474
  461SOL    HW2 1399   2.510   1.878   1.465
  462SOL     OW 1400   2.468   0.964   0.123
  462SOL    HW1 1401   2.475   1.048   0.069
  462SOL    HW2 1402   2.514   0.977   0.211
  463SOL     OW 1403   1.984   0.643   0.563
  463SOL    HW1 1404   1.939   0.555   0.580
  463SOL    HW2 1405   1.983   0.697   0.647
  464SOL     OW 1406   1.889   1.596   0.117
  464SOL    HW1 1407   1.870   1.500   0.138
  464SOL    HW2 1408   1.856   1.654   0.192
  465SOL     OW 1409   1.975   0.737   1.597
  465SOL    HW1 1410   2.063   0.724   1.642
  465SOL    HW2 1411   1.962   0.834   1.575
  466SOL     OW 1412   2.475   1.365   0.726
  466SOL    HW1 1413   2.426   1.278   0.735
  466SOL    HW2 1414   2.452   1.408   0.639
  467SOL     OW 1415   2.671   0.004   0.502
  467SOL    HW1 1416   2.711   0.095   0.493
  467SOL    HW2 1417   2.571   0.012   0.508
  468SOL     OW 1418   2.059   0.976   1.264
  468SOL    HW1 1419   2.148   0.931   1.250
  468SOL    HW2 1420   1.986   0.911   1.245
  469SOL     OW 1421   2.179   0.251   1.801
  469SOL    HW1 1422   2.250   0.322   1.807
  469SOL    HW2 1423   2.091   0.290   1.829
  470SOL     OW 1424   2.460   0.729   0.270
  470SOL    HW1 1425   2.484   0.798   0.202
  470SOL    HW2 1426   2.382   0.762   0.324
  471SOL     OW 1427   1.938   0.811   0.789
  471SOL    HW1 1428   2.037   0.799   0.798
  471SOL    HW2 1429   1.914   0.906   0.810
  472SOL     OW 1430   1.992   1.821   1.571
  472SOL    HW1 1431   1.982   1.806   1.670
  472SOL    HW2 1432   1.906   1.857   1.535
  473SOL     OW 1433   2.412   0.196   0.885
  473SOL    HW1 1434   2.407   0.191   0.985
  473SOL    HW2 1435   2.414   0.292   0.856
  474SOL     OW 1436   2.213   1.801   0.853
  474SOL    HW1 1437   2.263   1.715   0.859
  474SOL    HW2 1438   2.278   1.878   0.850
  475SOL     OW 1439   2.183   0.943   0.242
  475SOL    HW1 1440   2.265   0.982   0.200
  475SOL    HW2 1441   2.156   0.861   0.193
  476SOL     OW 1442   2.323   1.266   1.727
  476SOL    HW1 1443   2.273   1.267   1.641
  476SOL    HW2 1444   2.260   1.248   1.803
  477SOL     OW 1445   2.064   0.285   1.498
  477SOL    HW1 1446   1.984   0.345   1.485
  477SOL    HW2 1447   2.054   0.236   1.584
  478SOL     OW 1448   2.326   1.743   0.323
  478SOL    HW1 1449   2.359   1.782   0.409
  478SOL    HW2 1450   2.402   1.736   0.258
  479SOL     OW 1451   2.111   1.785   1.241
  479SOL    HW1 1452   2.168   1.720   1.291
  479SOL    HW2 1453   2.095   1.752   1.148
  480SOL     OW 1454   2.244   0.700   0.480
  480SOL    HW1 1455   2.289   0.610   0.477
  480SOL    HW2 1456   2.150   0.689   0.513
  481SOL     OW 1457   2.476   0.122   0.117
  481SOL    HW1 1458   2.574   0.100   0.124
  481SOL    HW2 1459   2.445   0.105   0.024
  482SOL     OW 1460   2.665   1.402   0.924
  482SOL    HW1 1461   2.755   1.416   0.882
  482SOL    HW2 1462   2.594   1.404   0.853
  483SOL     OW 1463   2.784   0.503   0.899
  483SOL    HW1 1464   2.759   0.494   0.803
  483SOL    HW2 1465   2.832   0.421   0.930
  484SOL     OW 1466   2.401   0.064   0.512
  484SOL    HW1 1467   2.320   0.065   0.570
  484SOL    HW2 1468   2.404   0.147   0.457
  485SOL     OW 1469   2.159   0.035   0.171
  485SOL    HW1 1470   2.208   0.119   0.150
  485SOL    HW2 1471   2.221  -0.030   0.216
  486SOL     OW 1472   2.321   1.152   0.741
  486SOL    HW1 1473   2.250   1.125   0.806
  486SOL    HW2 1474   2.295   1.124   0.648
  487SOL     OW 1475   1.940   0.556   1.386
  487SOL    HW1 1476   2.032   0.555   1.345
  487SOL    HW2 1477   1.934   0.630   1.453
  488SOL     OW 1478   2.423   0.222   1.147
  488SOL    HW1 1479   2.461   0.138   1.184
  488SOL    HW2 1480   2.335   0.241   1.191
  489SOL     OW 1481   2.350   1.385   0.174
  489SOL    HW1 1482   2.263   1.370   0.221
  489SOL    HW2 1483   2.333   1.411   0.079
  490SOL     OW 1484   2.389   0.256   0.328
  490SOL    HW1 1485   2.416   0.197   0.253
  490SOL    HW2 1486   2.389   0.351   0.297
  491SOL     OW 1487   2.777   0.089   1.402
  491SOL    HW1 1488   2.802   0.069   1.307
  491SOL    HW2 1489   2.849   0.145   1.444
  492SOL     OW 1490   2.272   0.813   1.251
  492SOL    HW1 1491   2.358   0.825   1.301
  492SOL    HW2 1492   2.230   0.726   1.278
  493SOL     OW 1493   1.926   1.564   1.331
  493SOL    HW1 1494   1.880   1.646   1.297
  493SOL    HW2 1495   2.024   1.583   1.340
  494SOL     OW 1496   2.229   1.100   0.501
  494SOL    HW1 1497   2.222   1.183   0.445
  494SOL    HW2 1498   2.233   1.020   0.441
  495SOL     OW 1499   2.428   0.537   0.865
  495SOL    HW1 1500   2.440   0.603   0.791
  495SOL    HW2 1501   2.474   0.571   0.948
  496SOL     OW 1502   2.216   1.510   1.329
  496SOL    HW1 1503   2.195   1.466   1.242
  496SOL    HW2 1504   2.313   1.536   1.332
  497SOL     OW 1505   2.264   0.751   1.598
  497SOL    HW1 1506   2.332   0.806   1.551
  497SOL    HW2 1507   2.304   0.663   1.625
  498SOL     OW 1508   2.366   0.050   1.740
  498SOL    HW1 1509   2.324  -0.007   1.670
  498SOL    HW2 1510   2.300   0.119   1.772
  499SOL     OW 1511   2.435   0.870   1.029
  499SOL    HW1 1512   2.479   0.959   1.020
  499SOL    HW2 1513   2.372   0.870   1.106
  500SOL     OW 1514   2.169   0.213   1.231
  500SOL    HW1 1515   2.146   0.250   1.321
  500SOL    HW2 1516   2.139   0.118   1.225
  501SOL     OW 1517   1.899   1.310   1.282
  501SOL    HW1 1518   1.952   1.261   1.350
  501SOL    HW2 1519   1.921   1.408   1.287
  502SOL     OW 1520   2.594   0.634   1.064
  502SOL    HW1 1521   2.653   0.608   0.988
  502SOL    HW2 1522   2.566   0.730   1.053
  503SOL     OW 1523   2.169   0.063   0.618
  503SOL    HW1 1524   2.158   0.157   0.651
  503SOL    HW2 1525   2.164   0.000   0.695
  504SOL     OW 1526   2.212   0.898   1.804
  504SOL    HW1 1527   2.288   0.942   1.852
  504SOL    HW2 1528   2.247   0.851   1.722
  505SOL     OW 1529   2.930   1.333   0.849
  505SOL    HW1 1530   2.937   1.249   0.794
  505SOL    HW2 1531   2.992   1.402   0.813
  506SOL     OW 1532   2.181   0.810   0.949
  506SOL    HW1 1533   2.274   0.846   0.954
  506SOL    HW2 1534   2.175   0.725   1.001
  507SOL     OW 1535   2.201   0.509   1.006
  507SOL    HW1 1536   2.149   0.426   0.989
  507SOL    HW2 1537   2.278   0.514   0.942
  508SOL     OW 1538   1.870   1.326   0.200
  508SOL    HW1 1539   1.777   1.347   0.169
  508SOL    HW2 1540   1.880   1.227   0.213
  509SOL     OW 1541   1.950   1.801   0.927
  509SOL    HW1 1542   1.908   1.715   0.900
  509SOL    HW2 1543   2.044   1.804   0.893
  510SOL     OW 1544   2.366   1.568   0.910
  510SOL    HW1 1545   2.432   1.642   0.919
  510SOL    HW2 1546   2.410   1.489   0.868
  511SOL     OW 1547   1.902   0.544   1.114
  511SOL    HW1 1548   1.987   0.511   1.073
  511SOL    HW2 1549   1.915   0.559   1.212
  512SOL     OW 1550   2.051   0.520   1.722
  512SOL    HW1 1551   2.110   0.480   1.652
  512SOL    HW2 1552   1.993   0.591   1.681
  513SOL     OW 1553   2.677   0.572   0.325
  513SOL    HW1 1554   2.684   0.483   0.279
  513SOL    HW2 1555   2.583   0.606   0.317
  514SOL     OW 1556   2.114   1.564   1.744
  514SOL    HW1 1557   2.084   1.621   1.820
  514SOL    HW2 1558   2.107   1.467   1.770
  515SOL     OW 1559   2.533   0.464   1.269
  515SOL    HW1 1560   2.499   0.375   1.239
  515SOL    HW2 1561   2.559   0.518   1.189
  516SOL     OW 1562   2.335   0.500   0.191
  516SOL    HW1 1563   2.396   0.580   0.195
  516SOL    HW2 1564   2.240   0.531   0.198
  517SOL     OW 1565   2.021   1.137   1.466
  517SOL    HW1 1566   2.043   1.076   1.542
  517SOL    HW2 1567   2.031   1.088   1.380
  518SOL     OW 1568   1.945   1.258   1.022
  518SOL    HW1 1569   1.940   1.257   1.122
  518SOL    HW2 1570   1.862   1.217   0.984
  519SOL     OW 1571   2.550   1.662   1.716
  519SOL    HW1 1572   2.494   1.743   1.725
  519SOL    HW2 1573   2.602   1.666   1.630
  520SOL     OW 1574   1.992   1.794   1.851
  520SOL    HW1 1575   1.951   1.720   1.904
  520SOL    HW2 1576   2.056   1.845   1.909
  521SOL     OW 1577   2.534   1.616   0.154
  521SOL    HW1 1578   2.543   1.626   0.055
  521SOL    HW2 1579   2.494   1.527   0.175
  522SOL     OW 1580   2.125   0.326   0.720
  522SOL    HW1 1581   2.046   0.377   0.686
  522SOL    HW2 1582   2.116   0.311   0.818
  523SOL     OW 1583   2.684   1.002   1.372
  523SOL    HW1 1584   2.724   1.001   1.280
  523SOL    HW2 1585   2.694   1.094   1.412
  524SOL     OW 1586   2.234   1.288   1.490
  524SOL    HW1 1587   2.221   1.381   1.456
  524SOL    HW2 1588   2.150   1.236   1.477
  525SOL     OW 1589   2.452   1.487   0.491
  525SOL    HW1 1590   2.494   1.429   0.421
  525SOL    HW2 1591   2.408   1.566   0.447
  526SOL     OW 1592   2.117   1.348   0.290
  526SOL    HW1 1593   2.021   1.349   0.263
  526SOL    HW2 1594   2.129   1.401   0.374
  527SOL     OW 1595   1.967   1.013   1.726
  527SOL    HW1 1596   1.890   0.980   1.780
  527SOL    HW2 1597   2.052   0.983   1.768
  528SOL     OW 1598   2.534   0.203   1.489
  528SOL    HW1 1599   2.624   0.187   1.449
  528SOL    HW2 1600   2.542   0.208   1.588
  529SOL     OW 1601   1.937   0.345   0.033
  529SOL    HW1 1602   1.845   0.317   0.004
  529SOL    HW2 1603   1.968   0.422  -0.023
  530SOL     OW 1604   1.934   0.166   0.318
  530SOL    HW1 1605   1.917   0.249   0.264
  530SOL    HW2 1606   2.024   0.129   0.296
  531SOL     OW 1607   2.475   0.842   1.431
  531SOL    HW1 1608   2.531   0.923   1.414
  531SOL    HW2 1609   2.534   0.762   1.434
  532SOL     OW 1610   2.578   0.565   1.708
  532SOL    HW1 1611   2.597   0.630   1.782
  532SOL    HW2 1612   2.638   0.485   1.717
  533SOL     OW 1613   2.252   1.741   1.560
  533SOL    HW1 1614   2.161   1.782   1.558
  533SOL    HW2 1615   2.245   1.647   1.592
  534SOL     OW 1616   2.456   0.745   0.652
  534SOL    HW1 1617   2.506   0.830   0.633
  534SOL    HW2 1618   2.368   0.747   0.604
  535SOL     OW 1619   2.523   1.790   0.953
  535SOL    HW1 1620   2.477   1.878   0.940
  535SOL    HW2 1621   2.622   1.802   0.946
  536SOL     OW 1622   2.083   1.314   1.844
  536SOL    HW1 1623   2.018   1.241   1.823
  536SOL    HW2 1624   2.087   1.328   1.942
  537SOL     OW 1625   1.941   1.240   0.653
  537SOL    HW1 1626   1.940   1.193   0.741
  537SOL    HW2 1627   2.023   1.212   0.602
  538SOL     OW 1628   2.534   1.391   1.624
  538SOL    HW1 1629   2.456   1.341   1.662
  538SOL    HW2 1630   2.531   1.486   1.655
  539SOL     OW 1631   2.290   0.424   0.520
  539SOL    HW1 1632   2.320   0.352   0.458
  539SOL    HW2 1633   2.251   0.384   0.603
  540SOL     OW 1634   2.179   0.547   1.280
  540SOL    HW1 1635   2.217   0.488   1.352
  540SOL    HW2 1636   2.219   0.521   1.192
  541SOL     OW 1637   2.674   1.586   0.687
  541SOL    HW1 1638   2.706   1.596   0.593
  541SOL    HW2 1639   2.595   1.524   0.689
  542SOL     OW 1640   2.863   0.034   1.154
  542SOL    HW1 1641   2.800  -0.038   1.123
  542SOL    HW2 1642   2.956  -0.002   1.154
  543SOL     OW 1643   2.480   1.567   1.284
  543SOL    HW1 1644   2.475   1.649   1.341
  543SOL    HW2 1645   2.569   1.564   1.239
  544SOL     OW 1646   1.901   1.077   0.300
  544SOL    HW1 1647   2.000   1.066   0.291
  544SOL    HW2 1648   1.861   0.991   0.332
  545SOL     OW 1649   2.092   0.628   1.975
  545SOL    HW1 1650   1.999   0.626   2.012
  545SOL    HW2 1651   2.093   0.589   1.883
  546SOL     OW 1652   1.881   0.368   2.509
  546SOL    HW1 1653   1.799   0.411   2.548
  546SOL    HW2 1654   1.853   0.295   2.446
  547SOL     OW 1655   2.547   1.012   2.527
  547SOL    HW1 1656   2.616   0.996   2.597
  547SOL    HW2 1657   2.474   1.069   2.565
  548SOL     OW 1658   2.093   1.713   2.345
  548SOL    HW1 1659   2.127   1.790   2.399
  548SOL    HW2 1660   2.137   1.713   2.255
  549SOL     OW 1661   2.092   1.434   2.400
  549SOL    HW1 1662   2.066   1.530   2.400
  549SOL    HW2 1663   2.021   1.380   2.445
  550SOL     OW 1664   2.102   1.091   2.748
  550SOL    HW1 1665   2.116   1.007   2.800
  550SOL    HW2 1666   2.047   1.155   2.803
  551SOL     OW 1667   2.468   0.964   1.985
  551SOL    HW1 1668   2.475   1.048   1.931
  551SOL    HW2 1669   2.514   0.977   2.073
  552SOL     OW 1670   1.984   0.643   2.425
  552SOL    HW1 1671   1.939   0.555   2.442
  552SOL    HW2 1672   1.983   0.697   2.509
  553SOL     OW 1673   1.889   1.596   1.979
  553SOL    HW1 1674   1.870   1.500   2.000
  553SOL    HW2 1675   1.856   1.654   2.054
  554SOL     OW 1676   2.475   1.365   2.588
  554SOL    HW1 1677   2.426   1.278   2.597
  554SOL    HW2 1678   2.452   1.408   2.501
  555SOL     OW 1679   2.671   0.004   2.364
  555SOL    HW1 1680   2.711   0.095   2.355
  555SOL    HW2 1681   2.571   0.012   2.370
  556SOL     OW 1682   2.460   0.729   2.132
  556SOL    HW1 1683   2.484   0.798   2.064
  556SOL    HW2 1684   2.382   0.762   2.186
  557SOL     OW 1685   1.938   0.811   2.651
  557SOL    HW1 1686   2.037   0.799   2.660
  557SOL    HW2 1687   1.914   0.906   2.672
  558SOL     OW 1688   2.213   1.801   2.715
  558SOL    HW1 1689   2.263   1.715   2.721
  558SOL    HW2 1690   2.278   1.878   2.712
  559SOL     OW 1691   2.183   0.943   2.104
  559SOL    HW1 1692   2.265   0.982   2.062
  559SOL    HW2 1693   2.156   0.861   2.055
  560SOL     OW 1694   2.326   1.743   2.185
  560SOL    HW1 1695   2.359   1.782   2.271
  560SOL    HW2 1696   2.402   1.736   2.120
  561SOL     OW 1697   2.244   0.700   2.342
  561SOL    HW1 1698   2.289   0.610   2.339
  561SOL    HW2 1699   2.150   0.689   2.375
  562SOL     OW 1700   2.476   0.122   1.979
  562SOL    HW1 1701   2.574   0.100   1.986
  562SOL    HW2 1702   2.445   0.105   1.886
  563SOL     OW 1703   2.401   0.064   2.374
  563SOL    HW1 1704   2.320   0.065   2.432
  563SOL    HW2 1705   2.404   0.147   2.319
  564SOL     OW 1706   2.159   0.035   2.033
  564SOL    HW1 1707   2.208   0.119   2.012
  564SOL    HW2 1708   2.221  -0.030   2.078
  565SOL     OW 1709   2.321   1.152   2.603
  565SOL    HW1 1710   2.250   1.125   2.668
  565SOL    HW2 1711   2.295   1.124   2.510
  566SOL     OW 1712   2.350   1.385   2.036
  566SOL    HW1 1713   2.263   1.370   2.083
  566SOL    HW2 1714   2.333   1.411   1.941
  567SOL     OW 1715   2.389   0.256   2.190
  567SOL    HW1 1716   2.416   0.197   2.115
  567SOL    HW2 1717   2.389   0.351   2.159
  568SOL     OW 1718   2.229   1.100   2.363
  568SOL    HW1 1719   2.222   1.183   2.307
  568SOL    HW2 1720   2.233   1.020   2.303
  569SOL     OW 1721   2.428   0.537   2.727
  569SOL    HW1 1722   2.440   0.603   2.653
  569SOL    HW2 1723   2.474   0.571   2.810
  570SOL     OW 1724   2.169   0.063   2.480
  570SOL    HW1 1725   2.158   0.157   2.513
  570SOL    HW2 1726   2.164   0.000   2.557
  571SOL     OW 1727   2.930   1.333   2.711
  571SOL    HW1 1728   2.937   1.249   2.656
  571SOL    HW2 1729   2.992   1.402   2.675
  572SOL     OW 1730   1.870   1.326   2.062
  572SOL    HW1 1731   1.777   1.347   2.031
  572SOL    HW2 1732   1.880   1.227   2.075
  573SOL     OW 1733   2.677   0.572   2.187
  573SOL    HW1 1734   2.684   0.483   2.141
  573SOL    HW2 1735   2.583   0.606   2.179
  574SOL     OW 1736   2.335   0.500   2.053
  574SOL    HW1 1737   2.396   0.580   2.057
  574SOL    HW2 1738   2.240   0.531   2.060
  575SOL     OW 1739   2.765   0.086   1.995
  575SOL    HW1 1740   2.816   0.087   1.909
  575SOL    HW2 1741   2.821   0.044   2.066
  576SOL     OW 1742   2.534   1.616   2.016
  576SOL    HW1 1743   2.543   1.626   1.917
  576SOL    HW2 1744   2.494   1.527   2.037
  577SOL     OW 1745   2.125   0.326   2.582
  577SOL    HW1 1746   2.046   0.377   2.548
  577SOL    HW2 1747   2.116   0.311   2.680
  578SOL     OW 1748   2.452   1.487   2.353
  578SOL    HW1 1749   2.494   1.429   2.283
  578SOL    HW2 1750   2.408   1.566   2.309
  579SOL     OW 1751   2.117   1.348   2.152
  579SOL    HW1 1752   2.021   1.349   2.125
  579SOL    HW2 1753   2.129   1.401   2.236
  580SOL     OW 1754   1.937   0.345   1.895
  580SOL    HW1 1755   1.845   0.317   1.866
  580SOL    HW2 1756   1.968   0.422   1.839
  581SOL     OW 1757   1.934   0.166   2.180
  581SOL    HW1 1758   1.917   0.249   2.126
  581SOL    HW2 1759   2.024   0.129   2.158
  582SOL     OW 1760   2.456   0.745   2.514
  582SOL    HW1 1761   2.506   0.830   2.495
  582SOL    HW2 1762   2.368   0.747   2.466
  583SOL     OW 1763   2.523   1.790   2.815
  583SOL    HW1 1764   2.477   1.878   2.802
  583SOL    HW2 1765   2.622   1.802   2.808
  584SOL     OW 1766   1.941   1.240   2.515
  584SOL    HW1 1767   1.940   1.193   2.603
  584SOL    HW2 1768   2.023   1.212   2.464
  585SOL     OW 1769   2.290   0.424   2.382
  585SOL    HW1 1770   2.320   0.352   2.320
  585SOL    HW2 1771   2.251   0.384   2.465
  586SOL     OW 1772   2.674   1.586   2.549
  586SOL    HW1 1773   2.706   1.596   2.455
  586SOL    HW2 1774   2.595   1.524   2.551
  587SOL     OW 1775   1.901   1.077   2.162
  587SOL    HW1 1776   2.000   1.066   2.153
  587SOL    HW2 1777   1.861   0.991   2.194
  588SOL     OW 1778   2.092   2.490   0.113
  588SOL    HW1 1779   1.999   2.488   0.150
  588SOL    HW2 1780   2.093   2.451   0.021
  589SOL     OW 1781   2.087   2.137   0.996
  589SOL    HW1 1782   2.122   2.120   1.088
  589SOL    HW2 1783   1.999   2.092   0.984
  590SOL     OW 1784   1.881   2.230   0.647
  590SOL    HW1 1785   1.799   2.273   0.686
  590SOL    HW2 1786   1.853   2.157   0.584
  591SOL     OW 1787   2.547   2.874   0.665
  591SOL    HW1 1788   2.616   2.858   0.735
  591SOL    HW2 1789   2.474   2.931   0.703
  592SOL     OW 1790   2.300   2.254   1.499
  592SOL    HW1 1791   2.382   2.198   1.508
  592SOL    HW2 1792   2.219   2.196   1.503
  593SOL     OW 1793   1.984   2.505   0.563
  593SOL    HW1 1794   1.939   2.417   0.580
  593SOL    HW2 1795   1.983   2.559   0.647
  594SOL     OW 1796   1.975   2.599   1.597
  594SOL    HW1 1797   2.063   2.586   1.642
  594SOL    HW2 1798   1.962   2.696   1.575
  595SOL     OW 1799   2.671   1.866   0.502
  595SOL    HW1 1800   2.711   1.957   0.493
  595SOL    HW2 1801   2.571   1.874   0.508
  596SOL     OW 1802   2.179   2.113   1.801
  596SOL    HW1 1803   2.250   2.184   1.807
  596SOL    HW2 1804   2.091   2.152   1.829
  597SOL     OW 1805   2.460   2.591   0.270
  597SOL    HW1 1806   2.484   2.660   0.202
  597SOL    HW2 1807   2.382   2.624   0.324
  598SOL     OW 1808   2.412   2.058   0.885
  598SOL    HW1 1809   2.407   2.053   0.985
  598SOL    HW2 1810   2.414   2.154   0.856
  599SOL     OW 1811   2.064   2.147   1.498
  599SOL    HW1 1812   1.984   2.207   1.485
  599SOL    HW2 1813   2.054   2.098   1.584
  600SOL     OW 1814   2.244   2.562   0.480
  600SOL    HW1 1815   2.289   2.472   0.477
  600SOL    HW2 1816   2.150   2.551   0.513
  601SOL     OW 1817   2.784   2.365   0.899
  601SOL    HW1 1818   2.759   2.356   0.803
  601SOL    HW2 1819   2.832   2.283   0.930
  602SOL     OW 1820   2.401   1.926   0.512
  602SOL    HW1 1821   2.320   1.927   0.570
  602SOL    HW2 1822   2.404   2.009   0.457
  603SOL     OW 1823   2.159   1.897   0.171
  603SOL    HW1 1824   2.208   1.981   0.150
  603SOL    HW2 1825   2.221   1.832   0.216
  604SOL     OW 1826   1.940   2.418   1.386
  604SOL    HW1 1827   2.032   2.417   1.345
  604SOL    HW2 1828   1.934   2.492   1.453
  605SOL     OW 1829   2.423   2.084   1.147
  605SOL    HW1 1830   2.461   2.000   1.184
  605SOL    HW2 1831   2.335   2.103   1.191
  606SOL     OW 1832   2.389   2.118   0.328
  606SOL    HW1 1833   2.416   2.059   0.253
  606SOL    HW2 1834   2.389   2.213   0.297
  607SOL     OW 1835   2.777   1.951   1.402
  607SOL    HW1 1836   2.802   1.931   1.307
  607SOL    HW2 1837   2.849   2.007   1.444
  608SOL     OW 1838   2.567   2.912   0.368
  608SOL    HW1 1839   2.553   2.919   0.467
  608SOL    HW2 1840   2.651   2.861   0.350
  609SOL     OW 1841   2.272   2.675   1.251
  609SOL    HW1 1842   2.358   2.687   1.301
  609SOL    HW2 1843   2.230   2.588   1.278
  610SOL     OW 1844   2.428   2.399   0.865
  610SOL    HW1 1845   2.440   2.465   0.791
  610SOL    HW2 1846   2.474   2.433   0.948
  611SOL     OW 1847   2.366   1.912   1.740
  611SOL    HW1 1848   2.324   1.855   1.670
  611SOL    HW2 1849   2.300   1.981   1.772
  612SOL     OW 1850   2.169   2.075   1.231
  612SOL    HW1 1851   2.146   2.112   1.321
  612SOL    HW2 1852   2.139   1.980   1.225
  613SOL     OW 1853   2.594   2.496   1.064
  613SOL    HW1 1854   2.653   2.470   0.988
  613SOL    HW2 1855   2.566   2.592   1.053
  614SOL     OW 1856   2.169   1.925   0.618
  614SOL    HW1 1857   2.158   2.019   0.651
  614SOL    HW2 1858   2.164   1.862   0.695
  615SOL     OW 1859   2.181   2.672   0.949
  615SOL    HW1 1860   2.274   2.708   0.954
  615SOL    HW2 1861   2.175   2.587   1.001
  616SOL     OW 1862   2.201   2.371   1.006
  616SOL    HW1 1863   2.149   2.288   0.989
  616SOL    HW2 1864   2.278   2.376   0.942
  617SOL     OW 1865   1.902   2.406   1.114
  617SOL    HW1 1866   1.987   2.373   1.073
  617SOL    HW2 1867   1.915   2.421   1.212
  618SOL     OW 1868   2.051   2.382   1.722
  618SOL    HW1 1869   2.110   2.342   1.652
  618SOL    HW2 1870   1.993   2.453   1.681
  619SOL     OW 1871   2.677   2.434   0.325
  619SOL    HW1 1872   2.684   2.345   0.279
  619SOL    HW2 1873   2.583   2.468   0.317
  620SOL     OW 1874   2.533   2.326   1.269
  620SOL    HW1 1875   2.499   2.237   1.239
  620SOL    HW2 1876   2.559   2.380   1.189
  621SOL     OW 1877   2.335   2.362   0.191
  621SOL    HW1 1878   2.396   2.442   0.195
  621SOL    HW2 1879   2.240   2.393   0.198
  622SOL     OW 1880   2.765   1.948   0.133
  622SOL    HW1 1881   2.816   1.949   0.047
  622SOL    HW2 1882   2.821   1.906   0.204
  623SOL     OW 1883   2.125   2.188   0.720
  623SOL    HW1 1884   2.046   2.239   0.686
  623SOL    HW2 1885   2.116   2.173   0.818
  624SOL     OW 1886   1.967   2.875   1.726
  624SOL    HW1 1887   1.890   2.842   1.780
  624SOL    HW2 1888   2.052   2.845   1.768
  625SOL     OW 1889   2.534   2.065   1.489
  625SOL    HW1 1890   2.624   2.049   1.449
  625SOL    HW2 1891   2.542   2.070   1.588
  626SOL     OW 1892   1.937   2.207   0.033
  626SOL    HW1 1893   1.845   2.179   0.004
  626SOL    HW2 1894   1.968   2.284  -0.023
  627SOL     OW 1895   1.934   2.028   0.318
  627SOL    HW1 1896   1.917   2.111   0.264
  627SOL    HW2 1897   2.024   1.991   0.296
  628SOL     OW 1898   2.475   2.704   1.431
  628SOL    HW1 1899   2.531   2.785   1.414
  628SOL    HW2 1900   2.534   2.624   1.434
  629SOL     OW 1901   2.578   2.427   1.708
  629SOL    HW1 1902   2.597   2.492   1.782
  629SOL    HW2 1903   2.638   2.347   1.717
  630SOL     OW 1904   2.456   2.607   0.652
  630SOL    HW1 1905   2.506   2.692   0.633
  630SOL    HW2 1906   2.368   2.609   0.604
  631SOL     OW 1907   2.290   2.286   0.520
  631SOL    HW1 1908   2.320   2.214   0.458
  631SOL    HW2 1909   2.251   2.246   0.603
  632SOL     OW 1910   2.179   2.409   1.280
  632SOL    HW1 1911   2.217   2.350   1.352
  632SOL    HW2 1912   2.219   2.383   1.192
  633SOL     OW 1913   2.092   2.490   1.975
  633SOL    HW1 1914   1.999   2.488   2.012
  633SOL    HW2 1915   2.093   2.451   1.883
  634SOL     OW 1916   1.881   2.230   2.509
  634SOL    HW1 1917   1.799   2.273   2.548
  634SOL    HW2 1918   1.853   2.157   2.446
  635SOL     OW 1919   2.547   2.874   2.527
  635SOL    HW1 1920   2.616   2.858   2.597
  635SOL    HW2 1921   2.474   2.931   2.565
  636SOL     OW 1922   1.984   2.505   2.425
  636SOL    HW1 1923   1.939   2.417   2.442
  636SOL    HW2 1924   1.983   2.559   2.509
  637SOL     OW 1925   2.671   1.866   2.364
  637SOL    HW1 1926   2.711   1.957   2.355
  637SOL    HW2 1927   2.571   1.874   2.370
  638SOL     OW 1928   2.460   2.591   2.132
  638SOL    HW1 1929   2.484   2.660   2.064
  638SOL    HW2 1930   2.382   2.624   2.186
  639SOL     OW 1931   2.412   2.058   2.747
  639SOL    HW1 1932   2.407   2.053   2.847
  639SOL    HW2 1933   2.414   2.154   2.718
  640SOL     OW 1934   2.244   2.562   2.342
  640SOL    HW1 1935   2.289   2.472   2.339
  640SOL    HW2 1936   2.150   2.551   2.375
  641SOL     OW 1937   2.476   1.984   1.979
  641SOL    HW1 1938   2.574   1.962   1.986
  641SOL    HW2 1939   2.445   1.967   1.886
  642SOL     OW 1940   2.401   1.926   2.374
  642SOL    HW1 1941   2.320   1.927   2.432
  642SOL    HW2 1942   2.404   2.009   2.319
  643SOL     OW 1943   2.159   1.897   2.033
  643SOL    HW1 1944   2.208   1.981   2.012
  643SOL    HW2 1945   2.221   1.832   2.078
  644SOL     OW 1946   2.321   3.014   2.603
  644SOL    HW1 1947   2.250   2.987   2.668
  644SOL    HW2 1948   2.295   2.986   2.510
  645SOL     OW 1949   2.879   1.901   2.615
  645SOL    HW1 1950   2.807   1.906   2.546
  645SOL    HW2 1951   2.855   1.832   2.684
  646SOL     OW 1952   2.389   2.118   2.190
  646SOL    HW1 1953   2.416   2.059   2.115
  646SOL    HW2 1954   2.389   2.213   2.159
  647SOL     OW 1955   2.567   2.912   2.230
  647SOL    HW1 1956   2.553   2.919   2.329
  647SOL    HW2 1957   2.651   2.861   2.212
  648SOL     OW 1958   2.428   2.399   2.727
  648SOL    HW1 1959   2.440   2.465   2.653
  648SOL    HW2 1960   2.474   2.433   2.810
  649SOL     OW 1961   2.169   1.925   2.480
  649SOL    HW1 1962   2.158   2.019   2.513
  649SOL    HW2 1963   2.164   1.862   2.557
  650SOL     OW 1964   2.677   2.434   2.187
  650SOL    HW1 1965   2.684   2.345   2.141
  650SOL    HW2 1966   2.583   2.468   2.179
  651SOL     OW 1967   2.335   2.362   2.053
  651SOL    HW1 1968   2.396   2.442   2.057
  651SOL    HW2 1969   2.240   2.393   2.060
  652SOL     OW 1970   2.765   1.948   1.995
  652SOL    HW1 1971   2.816   1.949   1.909
  652SOL    HW2 1972   2.821   1.906   2.066
  653SOL     OW 1973   2.125   2.188   2.582
  653SOL    HW1 1974   2.046   2.239   2.548
  653SOL    HW2 1975   2.116   2.173   2.680
  654SOL     OW 1976   1.937   2.207   1.895
  654SOL    HW1 1977   1.845   2.179   1.866
  654SOL    HW2 1978   1.968   2.284   1.839
  655SOL     OW 1979   1.934   2.028   2.180
  655SOL    HW1 1980   1.917   2.111   2.126
  655SOL    HW2 1981   2.024   1.991   2.158
  656SOL     OW 1982   2.456   2.607   2.514
  656SOL    HW1 1983   2.506   2.692   2.495
  656SOL    HW2 1984   2.368   2.609   2.466
  657SOL     OW 1985   2.290   2.286   2.382
  657SOL    HW1 1986   2.320   2.214   2.320
  657SOL    HW2 1987   2.251   2.246   2.465
   2.73060   2.73060   2.73060
