; mobley_664966_GMX.itp created by acpype (v: 2023.10.27) on Thu May 14 13:46:03 2026

[ atomtypes ]
;name   bond_type     mass     charge   ptype   sigma         epsilon       Amb
 c3       c3          0.00000  0.00000   A     3.39771e-01   4.51035e-01 ; 1.91  0.1078
 i        i           0.00000  0.00000   A     3.84120e-01   2.07317e+00 ; 2.16  0.4955
 h2       h2          0.00000  0.00000   A     2.24382e-01   8.70272e-02 ; 1.26  0.0208

[ moleculetype ]
;name            nrexcl
 mobley_664966    3

[ atoms ]
;   nr  type  resi  res  atom  cgnr     charge      mass       ; qtot   bond_type
     1   c3     1   MOL    C1    1     0.153400     12.01000 ; qtot 0.153
     2    i     1   MOL    I1    2    -0.179400    126.90000 ; qtot -0.026
     3    i     1   MOL    I2    3    -0.179400    126.90000 ; qtot -0.205
     4   h2     1   MOL    H1    4     0.102700      1.00800 ; qtot -0.103
     5   h2     1   MOL    H2    5     0.102700      1.00800 ; qtot 0.000

[ bonds ]
;   ai     aj funct   r             k
     1      2   1    2.2260e-01    7.7295e+04 ;     C1 - I1    
     1      3   1    2.2260e-01    7.7295e+04 ;     C1 - I2    
     1      4   1    1.0950e-01    2.9039e+05 ;     C1 - H1    
     1      5   1    1.0950e-01    2.9039e+05 ;     C1 - H2    

[ angles ]
;   ai     aj     ak    funct   theta         cth
     2      1      3      1    1.1460e+02    5.5195e+02 ;     I1 - C1     - I2    
     2      1      4      1    1.0707e+02    3.0903e+02 ;     I1 - C1     - H1    
     2      1      5      1    1.0707e+02    3.0903e+02 ;     I1 - C1     - H2    
     3      1      4      1    1.0707e+02    3.0903e+02 ;     I2 - C1     - H1    
     3      1      5      1    1.0707e+02    3.0903e+02 ;     I2 - C1     - H2    
     4      1      5      1    1.0951e+02    2.9748e+02 ;     H1 - C1     - H2    
