mobley_2929847_GMX.gro created by acpype (v: 2023.10.27) on Thu May 14 13:37:14 2026
 1712
    1MOL     C1    1   1.111   1.266   1.356
    1MOL     C2    2   1.401   1.316   1.406
    1MOL     C3    3   1.438   1.342   1.160
    1MOL     C4    4   1.203   1.326   1.253
    1MOL     C5    5   1.348   1.280   1.267
    1MOL     O1    6   1.047   1.327   1.441
    1MOL     O2    7   1.105   1.131   1.341
    1MOL     H1    8   1.341   1.268   1.484
    1MOL     H2    9   1.399   1.424   1.423
    1MOL     H3   10   1.505   1.282   1.419
    1MOL     H4   11   1.438   1.452   1.167
    1MOL     H5   12   1.542   1.308   1.172
    1MOL     H6   13   1.405   1.315   1.060
    1MOL     H7   14   1.165   1.300   1.153
    1MOL     H8   15   1.197   1.435   1.264
    1MOL     H9   16   1.353   1.171   1.256
    1MOL    H10   17   1.043   1.090   1.405
    2SOL     OW   18   0.230   0.628   0.113
    2SOL    HW1   19   0.137   0.626   0.150
    2SOL    HW2   20   0.231   0.589   0.021
    3SOL     OW   21   0.225   0.275   0.996
    3SOL    HW1   22   0.260   0.258   1.088
    3SOL    HW2   23   0.137   0.230   0.984
    4SOL     OW   24   0.019   0.368   0.647
    4SOL    HW1   25  -0.063   0.411   0.686
    4SOL    HW2   26  -0.009   0.295   0.584
    5SOL     OW   27   0.569   1.275   1.165
    5SOL    HW1   28   0.476   1.268   1.128
    5SOL    HW2   29   0.580   1.364   1.209
    6SOL     OW   30   1.555   1.511   0.703
    6SOL    HW1   31   1.498   1.495   0.784
    6SOL    HW2   32   1.496   1.521   0.623
    7SOL     OW   33   1.135   0.703   0.717
    7SOL    HW1   34   1.192   0.781   0.692
    7SOL    HW2   35   1.075   0.729   0.793
    8SOL     OW   36   1.755   0.607   0.231
    8SOL    HW1   37   1.743   0.594   0.132
    8SOL    HW2   38   1.725   0.526   0.280
    9SOL     OW   39   0.768   1.144   1.023
    9SOL    HW1   40   0.690   1.161   1.083
    9SOL    HW2   41   0.802   1.231   0.987
   10SOL     OW   42   0.850   0.798   1.823
   10SOL    HW1   43   0.846   0.874   1.888
   10SOL    HW2   44   0.872   0.834   1.732
   11SOL     OW   45   0.685   1.012   0.665
   11SOL    HW1   46   0.754   0.996   0.735
   11SOL    HW2   47   0.612   1.069   0.703
   12SOL     OW   48   0.686   1.161   1.803
   12SOL    HW1   49   0.746   1.240   1.817
   12SOL    HW2   50   0.600   1.192   1.762
   13SOL     OW   51   0.335   1.435   1.061
   13SOL    HW1   52   0.257   1.404   1.008
   13SOL    HW2   53   0.393   1.493   1.004
   14SOL     OW   54   0.438   0.392   1.499
   14SOL    HW1   55   0.520   0.336   1.508
   14SOL    HW2   56   0.357   0.334   1.503
   15SOL     OW   57   1.603   0.447   0.737
   15SOL    HW1   58   1.529   0.493   0.687
   15SOL    HW2   59   1.654   0.515   0.790
   16SOL     OW   60   0.231   1.713   0.483
   16SOL    HW1   61   0.265   1.790   0.537
   16SOL    HW2   62   0.275   1.713   0.393
   17SOL     OW   63   1.127   1.341   1.690
   17SOL    HW1   64   1.174   1.341   1.778
   17SOL    HW2   65   1.079   1.254   1.679
   18SOL     OW   66   0.230   1.434   0.538
   18SOL    HW1   67   0.204   1.530   0.538
   18SOL    HW2   68   0.159   1.380   0.583
   19SOL     OW   69   0.240   1.091   0.886
   19SOL    HW1   70   0.254   1.007   0.938
   19SOL    HW2   71   0.185   1.155   0.941
   20SOL     OW   72   0.620   1.786   1.439
   20SOL    HW1   73   0.528   1.769   1.474
   20SOL    HW2   74   0.648   1.878   1.465
   21SOL     OW   75   0.606   0.964   0.123
   21SOL    HW1   76   0.613   1.048   0.069
   21SOL    HW2   77   0.652   0.977   0.211
   22SOL     OW   78   1.594   0.114   1.480
   22SOL    HW1   79   1.576   0.181   1.408
   22SOL    HW2   80   1.591   0.160   1.569
   23SOL     OW   81   0.122   0.643   0.563
   23SOL    HW1   82   0.077   0.555   0.580
   23SOL    HW2   83   0.121   0.697   0.647
   24SOL     OW   84   1.842   1.767   0.359
   24SOL    HW1   85   1.896   1.738   0.439
   24SOL    HW2   86   1.872   1.857   0.330
   25SOL     OW   87   0.027   1.596   0.117
   25SOL    HW1   88   0.008   1.500   0.138
   25SOL    HW2   89  -0.006   1.654   0.192
   26SOL     OW   90   1.689   0.922   0.612
   26SOL    HW1   91   1.784   0.893   0.620
   26SOL    HW2   92   1.681   0.987   0.537
   27SOL     OW   93   1.641   1.108   0.432
   27SOL    HW1   94   1.727   1.110   0.380
   27SOL    HW2   95   1.655   1.155   0.520
   28SOL     OW   96   0.113   0.737   1.597
   28SOL    HW1   97   0.201   0.724   1.642
   28SOL    HW2   98   0.100   0.834   1.575
   29SOL     OW   99   0.613   1.365   0.726
   29SOL    HW1  100   0.564   1.278   0.735
   29SOL    HW2  101   0.590   1.408   0.639
   30SOL     OW  102   0.809   0.004   0.502
   30SOL    HW1  103   0.849   0.095   0.493
   30SOL    HW2  104   0.709   0.012   0.508
   31SOL     OW  105   0.197   0.976   1.264
   31SOL    HW1  106   0.286   0.931   1.250
   31SOL    HW2  107   0.124   0.911   1.245
   32SOL     OW  108   1.525   0.999   0.190
   32SOL    HW1  109   1.462   0.923   0.203
   32SOL    HW2  110   1.573   1.017   0.276
   33SOL     OW  111   1.187   1.792   1.616
   33SOL    HW1  112   1.211   1.852   1.540
   33SOL    HW2  113   1.194   1.697   1.586
   34SOL     OW  114   0.317   0.251   1.801
   34SOL    HW1  115   0.388   0.322   1.807
   34SOL    HW2  116   0.229   0.290   1.829
   35SOL     OW  117   1.667   1.714   0.572
   35SOL    HW1  118   1.626   1.691   0.484
   35SOL    HW2  119   1.649   1.640   0.637
   36SOL     OW  120   0.598   0.729   0.270
   36SOL    HW1  121   0.622   0.798   0.202
   36SOL    HW2  122   0.520   0.762   0.324
   37SOL     OW  123   1.281   0.345   0.944
   37SOL    HW1  124   1.195   0.295   0.931
   37SOL    HW2  125   1.343   0.291   1.000
   38SOL     OW  126   1.576   1.662   0.307
   38SOL    HW1  127   1.665   1.708   0.310
   38SOL    HW2  128   1.555   1.638   0.212
   39SOL     OW  129   0.807   0.605   1.465
   39SOL    HW1  130   0.760   0.602   1.554
   39SOL    HW2  131   0.756   0.550   1.399
   40SOL     OW  132   1.394   0.469   1.674
   40SOL    HW1  133   1.374   0.512   1.762
   40SOL    HW2  134   1.472   0.407   1.683
   41SOL     OW  135   0.973   0.890   1.572
   41SOL    HW1  136   1.019   0.806   1.543
   41SOL    HW2  137   0.917   0.924   1.497
   42SOL     OW  138   0.991   0.410   1.242
   42SOL    HW1  139   0.914   0.444   1.296
   42SOL    HW2  140   0.957   0.359   1.163
   43SOL     OW  141   1.041   0.701   0.429
   43SOL    HW1  142   1.067   0.697   0.525
   43SOL    HW2  143   0.956   0.650   0.415
   44SOL     OW  144   0.076   0.811   0.789
   44SOL    HW1  145   0.175   0.799   0.798
   44SOL    HW2  146   0.052   0.906   0.810
   45SOL     OW  147   0.130   1.821   1.571
   45SOL    HW1  148   0.120   1.806   1.670
   45SOL    HW2  149   0.044   1.857   1.535
   46SOL     OW  150   0.865   0.348   0.195
   46SOL    HW1  151   0.924   0.411   0.146
   46SOL    HW2  152   0.884   0.254   0.166
   47SOL     OW  153   1.719   0.585   1.831
   47SOL    HW1  154   1.693   0.674   1.795
   47SOL    HW2  155   1.717   0.517   1.758
   48SOL     OW  156   1.362   1.144   0.545
   48SOL    HW1  157   1.445   1.115   0.497
   48SOL    HW2  158   1.313   1.211   0.489
   49SOL     OW  159   0.550   0.196   0.885
   49SOL    HW1  160   0.545   0.191   0.985
   49SOL    HW2  161   0.552   0.292   0.856
   50SOL     OW  162   1.008   1.456   0.477
   50SOL    HW1  163   0.962   1.528   0.425
   50SOL    HW2  164   1.004   1.476   0.575
   51SOL     OW  165   0.351   1.801   0.853
   51SOL    HW1  166   0.401   1.715   0.859
   51SOL    HW2  167   0.416   1.878   0.850
   52SOL     OW  168   1.795   1.066   0.873
   52SOL    HW1  169   1.733   1.051   0.797
   52SOL    HW2  170   1.743   1.077   0.958
   53SOL     OW  171   1.227   1.550   1.506
   53SOL    HW1  172   1.233   1.473   1.570
   53SOL    HW2  173   1.175   1.524   1.426
   54SOL     OW  174   0.321   0.943   0.242
   54SOL    HW1  175   0.403   0.982   0.200
   54SOL    HW2  176   0.294   0.861   0.193
   55SOL     OW  177   1.458   0.735   0.728
   55SOL    HW1  178   1.453   0.670   0.803
   55SOL    HW2  179   1.538   0.794   0.741
   56SOL     OW  180   0.461   1.266   1.727
   56SOL    HW1  181   0.411   1.267   1.641
   56SOL    HW2  182   0.398   1.248   1.803
   57SOL     OW  183   1.111   1.776   0.237
   57SOL    HW1  184   1.051   1.714   0.287
   57SOL    HW2  185   1.142   1.732   0.152
   58SOL     OW  186   0.202   0.285   1.498
   58SOL    HW1  187   0.122   0.345   1.485
   58SOL    HW2  188   0.192   0.236   1.584
   59SOL     OW  189   1.632   1.377   0.081
   59SOL    HW1  190   1.600   1.471   0.071
   59SOL    HW2  191   1.556   1.314   0.069
   60SOL     OW  192   0.464   1.743   0.323
   60SOL    HW1  193   0.497   1.782   0.409
   60SOL    HW2  194   0.540   1.736   0.258
   61SOL     OW  195   1.400   0.107   0.426
   61SOL    HW1  196   1.376   0.070   0.336
   61SOL    HW2  197   1.499   0.123   0.430
   62SOL     OW  198   0.249   1.785   1.241
   62SOL    HW1  199   0.306   1.720   1.291
   62SOL    HW2  200   0.233   1.752   1.148
   63SOL     OW  201   0.940   1.698   0.904
   63SOL    HW1  202   1.020   1.641   0.925
   63SOL    HW2  203   0.891   1.658   0.827
   64SOL     OW  204   0.382   0.700   0.480
   64SOL    HW1  205   0.427   0.610   0.477
   64SOL    HW2  206   0.288   0.689   0.513
   65SOL     OW  207   1.547   0.222   1.729
   65SOL    HW1  208   1.542   0.259   1.821
   65SOL    HW2  209   1.475   0.153   1.717
   66SOL     OW  210   0.614   0.122   0.117
   66SOL    HW1  211   0.712   0.100   0.124
   66SOL    HW2  212   0.583   0.105   0.024
   67SOL     OW  213   0.781   0.264   1.749
   67SOL    HW1  214   0.848   0.203   1.792
   67SOL    HW2  215   0.708   0.283   1.814
   68SOL     OW  216   0.888   1.514   1.195
   68SOL    HW1  217   0.865   1.489   1.101
   68SOL    HW2  218   0.949   1.445   1.234
   69SOL     OW  219   1.351   0.590   1.433
   69SOL    HW1  220   1.379   0.547   1.518
   69SOL    HW2  221   1.376   0.686   1.434
   70SOL     OW  222   0.803   1.402   0.924
   70SOL    HW1  223   0.893   1.416   0.882
   70SOL    HW2  224   0.732   1.404   0.853
   71SOL     OW  225   0.922   0.503   0.899
   71SOL    HW1  226   0.897   0.494   0.803
   71SOL    HW2  227   0.970   0.421   0.930
   72SOL     OW  228   0.539   0.064   0.512
   72SOL    HW1  229   0.458   0.065   0.570
   72SOL    HW2  230   0.542   0.147   0.457
   73SOL     OW  231   1.434   1.188   0.041
   73SOL    HW1  232   1.466   1.112   0.098
   73SOL    HW2  233   1.342   1.215   0.071
   74SOL     OW  234   0.297   0.035   0.171
   74SOL    HW1  235   0.346   0.119   0.150
   74SOL    HW2  236   0.359  -0.030   0.216
   75SOL     OW  237   0.935   0.236   0.480
   75SOL    HW1  238   0.887   0.277   0.402
   75SOL    HW2  239   1.034   0.234   0.461
   76SOL     OW  240   1.076   0.683   1.464
   76SOL    HW1  241   0.996   0.622   1.467
   76SOL    HW2  242   1.157   0.630   1.440
   77SOL     OW  243   1.227   1.570   0.793
   77SOL    HW1  244   1.248   1.644   0.728
   77SOL    HW2  245   1.295   1.570   0.866
   78SOL     OW  246   0.459   1.152   0.741
   78SOL    HW1  247   0.388   1.125   0.806
   78SOL    HW2  248   0.433   1.124   0.648
   79SOL     OW  249   1.271   1.797   0.591
   79SOL    HW1  250   1.315   1.861   0.527
   79SOL    HW2  251   1.221   1.849   0.661
   80SOL     OW  252   1.032   0.549   0.016
   80SOL    HW1  253   0.991   0.631  -0.023
   80SOL    HW2  254   1.096   0.575   0.089
   81SOL     OW  255   0.078   0.556   1.386
   81SOL    HW1  256   0.170   0.555   1.345
   81SOL    HW2  257   0.072   0.630   1.453
   82SOL     OW  258   0.561   0.222   1.147
   82SOL    HW1  259   0.599   0.138   1.184
   82SOL    HW2  260   0.473   0.241   1.191
   83SOL     OW  261   0.866   0.454   0.642
   83SOL    HW1  262   0.834   0.526   0.580
   83SOL    HW2  263   0.890   0.373   0.589
   84SOL     OW  264   1.017   0.039   0.753
   84SOL    HW1  265   0.945   0.044   0.684
   84SOL    HW2  266   0.993  -0.030   0.822
   85SOL     OW  267   1.429   1.173   0.867
   85SOL    HW1  268   1.374   1.089   0.860
   85SOL    HW2  269   1.455   1.202   0.775
   86SOL     OW  270   1.466   0.590   0.992
   86SOL    HW1  271   1.436   0.495   0.999
   86SOL    HW2  272   1.539   0.606   1.058
   87SOL     OW  273   1.857   0.833   0.377
   87SOL    HW1  274   1.899   0.769   0.441
   87SOL    HW2  275   1.819   0.782   0.299
   88SOL     OW  276   0.488   1.385   0.174
   88SOL    HW1  277   0.401   1.370   0.221
   88SOL    HW2  278   0.471   1.411   0.079
   89SOL     OW  279   1.664   1.280   0.657
   89SOL    HW1  280   1.763   1.288   0.671
   89SOL    HW2  281   1.619   1.364   0.688
   90SOL     OW  282   1.390   0.575   0.078
   90SOL    HW1  283   1.336   0.554   0.159
   90SOL    HW2  284   1.481   0.534   0.087
   91SOL     OW  285   0.527   0.256   0.328
   91SOL    HW1  286   0.554   0.197   0.253
   91SOL    HW2  287   0.527   0.351   0.297
   92SOL     OW  288   1.754   1.223   1.588
   92SOL    HW1  289   1.845   1.184   1.575
   92SOL    HW2  290   1.762   1.319   1.612
   93SOL     OW  291   1.592   1.629   1.625
   93SOL    HW1  292   1.619   1.663   1.535
   93SOL    HW2  293   1.671   1.591   1.671
   94SOL     OW  294   1.638   1.099   1.079
   94SOL    HW1  295   1.643   1.180   1.138
   94SOL    HW2  296   1.552   1.101   1.028
   95SOL     OW  297   0.915   0.089   1.402
   95SOL    HW1  298   0.940   0.069   1.307
   95SOL    HW2  299   0.987   0.145   1.444
   96SOL     OW  300   0.980   1.116   1.719
   96SOL    HW1  301   0.881   1.122   1.729
   96SOL    HW2  302   1.003   1.036   1.663
   97SOL     OW  303   0.705   1.050   0.368
   97SOL    HW1  304   0.691   1.057   0.467
   97SOL    HW2  305   0.789   0.999   0.350
   98SOL     OW  306   0.410   0.813   1.251
   98SOL    HW1  307   0.496   0.825   1.301
   98SOL    HW2  308   0.368   0.726   1.278
   99SOL     OW  309   1.274   0.386   1.262
   99SOL    HW1  310   1.295   0.460   1.326
   99SOL    HW2  311   1.185   0.403   1.219
  100SOL     OW  312   0.064   1.564   1.331
  100SOL    HW1  313   0.018   1.646   1.297
  100SOL    HW2  314   0.162   1.583   1.340
  101SOL     OW  315   0.367   1.100   0.501
  101SOL    HW1  316   0.360   1.183   0.445
  101SOL    HW2  317   0.371   1.020   0.441
  102SOL     OW  318   0.566   0.537   0.865
  102SOL    HW1  319   0.578   0.603   0.791
  102SOL    HW2  320   0.612   0.571   0.948
  103SOL     OW  321   1.252   1.348   0.388
  103SOL    HW1  322   1.302   1.425   0.428
  103SOL    HW2  323   1.157   1.350   0.420
  104SOL     OW  324   1.582   0.639   0.472
  104SOL    HW1  325   1.551   0.700   0.545
  104SOL    HW2  326   1.632   0.691   0.403
  105SOL     OW  327   0.354   1.510   1.329
  105SOL    HW1  328   0.333   1.466   1.242
  105SOL    HW2  329   0.451   1.536   1.332
  106SOL     OW  330   0.402   0.751   1.598
  106SOL    HW1  331   0.470   0.806   1.551
  106SOL    HW2  332   0.442   0.663   1.625
  107SOL     OW  333   1.587   0.779   1.670
  107SOL    HW1  334   1.495   0.817   1.665
  107SOL    HW2  335   1.647   0.826   1.605
  108SOL     OW  336   1.013   0.105   1.770
  108SOL    HW1  337   1.019   0.190   1.718
  108SOL    HW2  338   1.045   0.029   1.713
  109SOL     OW  339   0.504   0.050   1.740
  109SOL    HW1  340   0.462  -0.007   1.670
  109SOL    HW2  341   0.438   0.119   1.772
  110SOL     OW  342   0.573   0.870   1.029
  110SOL    HW1  343   0.617   0.959   1.020
  110SOL    HW2  344   0.510   0.870   1.106
  111SOL     OW  345   1.360   0.862   1.045
  111SOL    HW1  346   1.285   0.862   0.979
  111SOL    HW2  347   1.397   0.770   1.054
  112SOL     OW  348   1.209   0.525   0.275
  112SOL    HW1  349   1.222   0.441   0.329
  112SOL    HW2  350   1.180   0.599   0.335
  113SOL     OW  351   0.307   0.213   1.231
  113SOL    HW1  352   0.284   0.250   1.321
  113SOL    HW2  353   0.277   0.118   1.225
  114SOL     OW  354   0.037   1.310   1.282
  114SOL    HW1  355   0.090   1.261   1.350
  114SOL    HW2  356   0.059   1.408   1.287
  115SOL     OW  357   0.732   0.634   1.064
  115SOL    HW1  358   0.791   0.608   0.988
  115SOL    HW2  359   0.704   0.730   1.053
  116SOL     OW  360   1.728   0.935   1.854
  116SOL    HW1  361   1.682   0.928   1.765
  116SOL    HW2  362   1.666   0.979   1.920
  117SOL     OW  363   0.307   0.063   0.618
  117SOL    HW1  364   0.296   0.157   0.651
  117SOL    HW2  365   0.302   0.000   0.695
  118SOL     OW  366   1.622   0.367   0.374
  118SOL    HW1  367   1.624   0.291   0.438
  118SOL    HW2  368   1.574   0.444   0.414
  119SOL     OW  369   1.023   0.766   0.966
  119SOL    HW1  370   1.038   0.787   1.062
  119SOL    HW2  371   0.993   0.671   0.957
  120SOL     OW  372   0.980   1.573   1.700
  120SOL    HW1  373   0.960   1.617   1.612
  120SOL    HW2  374   1.019   1.482   1.684
  121SOL     OW  375   1.859   1.518   1.605
  121SOL    HW1  376   1.873   1.545   1.510
  121SOL    HW2  377   1.942   1.540   1.658
  122SOL     OW  378   0.350   0.898   1.804
  122SOL    HW1  379   0.426   0.942   1.852
  122SOL    HW2  380   0.385   0.851   1.722
  123SOL     OW  381   1.540   0.274   0.125
  123SOL    HW1  382   1.479   0.199   0.148
  123SOL    HW2  383   1.562   0.326   0.208
  124SOL     OW  384   1.303   0.838   0.042
  124SOL    HW1  385   1.337   0.745   0.057
  124SOL    HW2  386   1.321   0.865  -0.053
  125SOL     OW  387   1.068   1.333   0.849
  125SOL    HW1  388   1.075   1.249   0.794
  125SOL    HW2  389   1.130   1.402   0.813
  126SOL     OW  390   0.319   0.810   0.949
  126SOL    HW1  391   0.412   0.846   0.954
  126SOL    HW2  392   0.313   0.725   1.001
  127SOL     OW  393   0.339   0.509   1.006
  127SOL    HW1  394   0.287   0.426   0.989
  127SOL    HW2  395   0.416   0.514   0.942
  128SOL     OW  396   1.138   0.380   1.678
  128SOL    HW1  397   1.093   0.443   1.742
  128SOL    HW2  398   1.231   0.411   1.661
  129SOL     OW  399   1.160   0.207   1.477
  129SOL    HW1  400   1.160   0.271   1.554
  129SOL    HW2  401   1.188   0.255   1.394
  130SOL     OW  402   0.008   1.326   0.200
  130SOL    HW1  403  -0.085   1.347   0.169
  130SOL    HW2  404   0.018   1.227   0.213
  131SOL     OW  405   0.088   1.801   0.927
  131SOL    HW1  406   0.046   1.715   0.900
  131SOL    HW2  407   0.182   1.804   0.893
  132SOL     OW  408   0.504   1.568   0.910
  132SOL    HW1  409   0.570   1.642   0.919
  132SOL    HW2  410   0.548   1.489   0.868
  133SOL     OW  411   1.002   0.796   1.238
  133SOL    HW1  412   1.043   0.764   1.324
  133SOL    HW2  413   0.906   0.769   1.235
  134SOL     OW  414   0.040   0.544   1.114
  134SOL    HW1  415   0.125   0.511   1.073
  134SOL    HW2  416   0.053   0.559   1.212
  135SOL     OW  417   0.189   0.520   1.722
  135SOL    HW1  418   0.248   0.480   1.652
  135SOL    HW2  419   0.131   0.591   1.681
  136SOL     OW  420   1.369   0.950   1.660
  136SOL    HW1  421   1.408   1.039   1.680
  136SOL    HW2  422   1.379   0.930   1.563
  137SOL     OW  423   0.815   0.572   0.325
  137SOL    HW1  424   0.822   0.483   0.279
  137SOL    HW2  425   0.721   0.606   0.317
  138SOL     OW  426   1.657   0.604   1.206
  138SOL    HW1  427   1.619   0.535   1.268
  138SOL    HW2  428   1.739   0.568   1.162
  139SOL     OW  429   0.252   1.564   1.744
  139SOL    HW1  430   0.222   1.621   1.820
  139SOL    HW2  431   0.245   1.467   1.770
  140SOL     OW  432   0.671   0.464   1.269
  140SOL    HW1  433   0.637   0.375   1.239
  140SOL    HW2  434   0.697   0.518   1.189
  141SOL     OW  435   0.930   1.678   1.465
  141SOL    HW1  436   0.906   1.660   1.370
  141SOL    HW2  437   0.960   1.772   1.475
  142SOL     OW  438   0.473   0.500   0.191
  142SOL    HW1  439   0.534   0.580   0.195
  142SOL    HW2  440   0.378   0.531   0.198
  143SOL     OW  441   0.159   1.137   1.466
  143SOL    HW1  442   0.181   1.076   1.542
  143SOL    HW2  443   0.169   1.088   1.380
  144SOL     OW  444   1.302   0.855   0.309
  144SOL    HW1  445   1.216   0.824   0.351
  144SOL    HW2  446   1.298   0.841   0.210
  145SOL     OW  447   1.759   1.747   1.154
  145SOL    HW1  448   1.820   1.777   1.081
  145SOL    HW2  449   1.721   1.658   1.132
  146SOL     OW  450   1.252   1.731   1.128
  146SOL    HW1  451   1.336   1.736   1.074
  146SOL    HW2  452   1.229   1.635   1.146
  147SOL     OW  453   0.083   1.258   1.022
  147SOL    HW1  454   0.078   1.257   1.122
  147SOL    HW2  455   0.000   1.217   0.984
  148SOL     OW  456   0.688   1.662   1.716
  148SOL    HW1  457   0.632   1.743   1.725
  148SOL    HW2  458   0.740   1.666   1.630
  149SOL     OW  459   0.903   0.086   0.133
  149SOL    HW1  460   0.954   0.087   0.047
  149SOL    HW2  461   0.959   0.044   0.204
  150SOL     OW  462   1.726   0.135   0.523
  150SOL    HW1  463   1.799   0.118   0.456
  150SOL    HW2  464   1.695   0.048   0.561
  151SOL     OW  465   1.388   1.573   0.477
  151SOL    HW1  466   1.455   1.585   0.403
  151SOL    HW2  467   1.348   1.662   0.500
  152SOL     OW  468   0.130   1.794   1.851
  152SOL    HW1  469   0.089   1.720   1.904
  152SOL    HW2  470   0.194   1.845   1.909
  153SOL     OW  471   1.280   0.927   0.672
  153SOL    HW1  472   1.340   0.846   0.674
  153SOL    HW2  473   1.320   0.996   0.612
  154SOL     OW  474   0.830   1.273   1.422
  154SOL    HW1  475   0.825   1.306   1.517
  154SOL    HW2  476   0.744   1.292   1.376
  155SOL     OW  477   0.672   1.616   0.154
  155SOL    HW1  478   0.681   1.626   0.055
  155SOL    HW2  479   0.632   1.527   0.175
  156SOL     OW  480   1.650   1.720   1.394
  156SOL    HW1  481   1.703   1.730   1.310
  156SOL    HW2  482   1.623   1.810   1.428
  157SOL     OW  483   1.841   0.175   0.963
  157SOL    HW1  484   1.880   0.090   0.927
  157SOL    HW2  485   1.743   0.177   0.944
  158SOL     OW  486   0.263   0.326   0.720
  158SOL    HW1  487   0.184   0.377   0.686
  158SOL    HW2  488   0.254   0.311   0.818
  159SOL     OW  489   1.194   1.612   0.031
  159SOL    HW1  490   1.200   1.519   0.068
  159SOL    HW2  491   1.135   1.612  -0.049
  160SOL     OW  492   0.822   1.002   1.372
  160SOL    HW1  493   0.862   1.001   1.280
  160SOL    HW2  494   0.832   1.094   1.412
  161SOL     OW  495   0.916   0.910   0.291
  161SOL    HW1  496   0.979   0.948   0.223
  161SOL    HW2  497   0.956   0.827   0.330
  162SOL     OW  498   1.504   1.607   0.044
  162SOL    HW1  499   1.412   1.644   0.051
  162SOL    HW2  500   1.542   1.627  -0.046
  163SOL     OW  501   0.372   1.288   1.490
  163SOL    HW1  502   0.359   1.381   1.456
  163SOL    HW2  503   0.288   1.236   1.477
  164SOL     OW  504   1.039   1.098   0.696
  164SOL    HW1  505   0.969   1.051   0.750
  164SOL    HW2  506   1.098   1.030   0.653
  165SOL     OW  507   1.014   0.236   0.971
  165SOL    HW1  508   1.006   0.200   0.878
  165SOL    HW2  509   1.012   0.160   1.036
  166SOL     OW  510   0.590   1.487   0.491
  166SOL    HW1  511   0.632   1.429   0.421
  166SOL    HW2  512   0.546   1.566   0.447
  167SOL     OW  513   1.709   0.385   1.381
  167SOL    HW1  514   1.782   0.454   1.385
  167SOL    HW2  515   1.737   0.310   1.322
  168SOL     OW  516   0.255   1.348   0.290
  168SOL    HW1  517   0.159   1.349   0.263
  168SOL    HW2  518   0.267   1.401   0.374
  169SOL     OW  519   0.105   1.013   1.726
  169SOL    HW1  520   0.028   0.980   1.780
  169SOL    HW2  521   0.190   0.983   1.768
  170SOL     OW  522   0.672   0.203   1.489
  170SOL    HW1  523   0.762   0.187   1.449
  170SOL    HW2  524   0.680   0.208   1.588
  171SOL     OW  525   0.075   0.345   0.033
  171SOL    HW1  526  -0.017   0.317   0.004
  171SOL    HW2  527   0.106   0.422  -0.023
  172SOL     OW  528   1.440   0.856   1.398
  172SOL    HW1  529   1.383   0.908   1.335
  172SOL    HW2  530   1.536   0.868   1.374
  173SOL     OW  531   0.072   0.166   0.318
  173SOL    HW1  532   0.055   0.249   0.264
  173SOL    HW2  533   0.162   0.129   0.296
  174SOL     OW  534   1.183   1.335   0.119
  174SOL    HW1  535   1.084   1.324   0.121
  174SOL    HW2  536   1.217   1.350   0.212
  175SOL     OW  537   0.613   0.842   1.431
  175SOL    HW1  538   0.669   0.923   1.414
  175SOL    HW2  539   0.672   0.762   1.434
  176SOL     OW  540   1.493   1.767   0.959
  176SOL    HW1  541   1.526   1.831   0.890
  176SOL    HW2  542   1.559   1.761   1.034
  177SOL     OW  543   0.716   0.565   1.708
  177SOL    HW1  544   0.735   0.630   1.782
  177SOL    HW2  545   0.776   0.485   1.717
  178SOL     OW  546   1.450   1.220   1.633
  178SOL    HW1  547   1.441   1.210   1.732
  178SOL    HW2  548   1.546   1.213   1.607
  179SOL     OW  549   0.390   1.741   1.560
  179SOL    HW1  550   0.299   1.782   1.558
  179SOL    HW2  551   0.383   1.647   1.592
  180SOL     OW  552   1.674   0.883   1.254
  180SOL    HW1  553   1.647   0.794   1.217
  180SOL    HW2  554   1.675   0.951   1.181
  181SOL     OW  555   1.225   0.325   0.449
  181SOL    HW1  556   1.290   0.251   0.438
  181SOL    HW2  557   1.245   0.375   0.533
  182SOL     OW  558   0.594   0.745   0.652
  182SOL    HW1  559   0.644   0.830   0.633
  182SOL    HW2  560   0.506   0.747   0.604
  183SOL     OW  561   1.777   0.342   1.642
  183SOL    HW1  562   1.760   0.373   1.548
  183SOL    HW2  563   1.693   0.305   1.680
  184SOL     OW  564   1.730   0.934   1.517
  184SOL    HW1  565   1.768   1.025   1.532
  184SOL    HW2  566   1.722   0.917   1.418
  185SOL     OW  567   0.859   1.374   0.016
  185SOL    HW1  568   0.813   1.389   0.104
  185SOL    HW2  569   0.903   1.459  -0.014
  186SOL     OW  570   0.661   1.790   0.953
  186SOL    HW1  571   0.615   1.878   0.940
  186SOL    HW2  572   0.760   1.802   0.946
  187SOL     OW  573   0.859   0.956   0.861
  187SOL    HW1  574   0.913   0.887   0.909
  187SOL    HW2  575   0.827   1.025   0.927
  188SOL     OW  576   1.083   0.984   0.087
  188SOL    HW1  577   1.060   1.037   0.005
  188SOL    HW2  578   1.164   0.928   0.068
  189SOL     OW  579   1.861   1.569   0.851
  189SOL    HW1  580   1.790   1.557   0.781
  189SOL    HW2  581   1.862   1.490   0.911
  190SOL     OW  582   0.221   1.314   1.844
  190SOL    HW1  583   0.156   1.241   1.823
  190SOL    HW2  584   0.225   1.328   1.942
  191SOL     OW  585   0.079   1.240   0.653
  191SOL    HW1  586   0.078   1.193   0.741
  191SOL    HW2  587   0.161   1.212   0.602
  192SOL     OW  588   0.672   1.391   1.624
  192SOL    HW1  589   0.594   1.341   1.662
  192SOL    HW2  590   0.669   1.486   1.655
  193SOL     OW  591   1.824   0.192   1.227
  193SOL    HW1  592   1.820   0.102   1.271
  193SOL    HW2  593   1.827   0.181   1.128
  194SOL     OW  594   0.428   0.424   0.520
  194SOL    HW1  595   0.458   0.352   0.458
  194SOL    HW2  596   0.389   0.384   0.603
  195SOL     OW  597   1.705   1.487   1.104
  195SOL    HW1  598   1.612   1.462   1.077
  195SOL    HW2  599   1.731   1.437   1.186
  196SOL     OW  600   0.317   0.547   1.280
  196SOL    HW1  601   0.355   0.488   1.352
  196SOL    HW2  602   0.357   0.521   1.192
  197SOL     OW  603   0.812   1.586   0.687
  197SOL    HW1  604   0.844   1.596   0.593
  197SOL    HW2  605   0.733   1.524   0.689
  198SOL     OW  606   1.424   0.214   1.112
  198SOL    HW1  607   1.476   0.149   1.167
  198SOL    HW2  608   1.375   0.277   1.173
  199SOL     OW  609   1.001   0.034   1.154
  199SOL    HW1  610   0.938  -0.038   1.123
  199SOL    HW2  611   1.094  -0.002   1.154
  200SOL     OW  612   0.770   1.330   0.301
  200SOL    HW1  613   0.724   1.243   0.318
  200SOL    HW2  614   0.861   1.327   0.342
  201SOL     OW  615   0.618   1.567   1.284
  201SOL    HW1  616   0.613   1.649   1.341
  201SOL    HW2  617   0.707   1.564   1.239
  202SOL     OW  618   1.352   0.052   0.168
  202SOL    HW1  619   1.387   0.011   0.084
  202SOL    HW2  620   1.262   0.014   0.188
  203SOL     OW  621   1.300   0.453   0.691
  203SOL    HW1  622   1.241   0.533   0.695
  203SOL    HW2  623   1.315   0.418   0.784
  204SOL     OW  624   1.593   0.221   0.882
  204SOL    HW1  625   1.509   0.220   0.936
  204SOL    HW2  626   1.595   0.304   0.826
  205SOL     OW  627   0.039   1.077   0.300
  205SOL    HW1  628   0.138   1.066   0.291
  205SOL    HW2  629  -0.001   0.991   0.332
  206SOL     OW  630   0.875   1.646   0.337
  206SOL    HW1  631   0.798   1.611   0.283
  206SOL    HW2  632   0.843   1.717   0.399
  207SOL     OW  633   0.230   0.628   1.975
  207SOL    HW1  634   0.137   0.626   2.012
  207SOL    HW2  635   0.231   0.589   1.883
  208SOL     OW  636   1.755   0.607   2.093
  208SOL    HW1  637   1.743   0.594   1.994
  208SOL    HW2  638   1.725   0.526   2.142
  209SOL     OW  639   1.603   0.447   2.599
  209SOL    HW1  640   1.529   0.493   2.549
  209SOL    HW2  641   1.654   0.515   2.652
  210SOL     OW  642   0.231   1.713   2.345
  210SOL    HW1  643   0.265   1.790   2.399
  210SOL    HW2  644   0.275   1.713   2.255
  211SOL     OW  645   0.230   1.434   2.400
  211SOL    HW1  646   0.204   1.530   2.400
  211SOL    HW2  647   0.159   1.380   2.445
  212SOL     OW  648   0.606   0.964   1.985
  212SOL    HW1  649   0.613   1.048   1.931
  212SOL    HW2  650   0.652   0.977   2.073
  213SOL     OW  651   0.122   0.643   2.425
  213SOL    HW1  652   0.077   0.555   2.442
  213SOL    HW2  653   0.121   0.697   2.509
  214SOL     OW  654   1.842   1.767   2.221
  214SOL    HW1  655   1.896   1.738   2.301
  214SOL    HW2  656   1.872   1.857   2.192
  215SOL     OW  657   0.027   1.596   1.979
  215SOL    HW1  658   0.008   1.500   2.000
  215SOL    HW2  659  -0.006   1.654   2.054
  216SOL     OW  660   1.689   0.922   2.474
  216SOL    HW1  661   1.784   0.893   2.482
  216SOL    HW2  662   1.681   0.987   2.399
  217SOL     OW  663   1.641   1.108   2.294
  217SOL    HW1  664   1.727   1.110   2.242
  217SOL    HW2  665   1.655   1.155   2.382
  218SOL     OW  666   0.613   1.365   2.588
  218SOL    HW1  667   0.564   1.278   2.597
  218SOL    HW2  668   0.590   1.408   2.501
  219SOL     OW  669   0.809   0.004   2.364
  219SOL    HW1  670   0.849   0.095   2.355
  219SOL    HW2  671   0.709   0.012   2.370
  220SOL     OW  672   1.525   0.999   2.052
  220SOL    HW1  673   1.462   0.923   2.065
  220SOL    HW2  674   1.573   1.017   2.138
  221SOL     OW  675   1.466   1.417   2.815
  221SOL    HW1  676   1.407   1.423   2.895
  221SOL    HW2  677   1.451   1.329   2.769
  222SOL     OW  678   0.598   0.729   2.132
  222SOL    HW1  679   0.622   0.798   2.064
  222SOL    HW2  680   0.520   0.762   2.186
  223SOL     OW  681   1.281   0.345   2.806
  223SOL    HW1  682   1.195   0.295   2.793
  223SOL    HW2  683   1.343   0.291   2.862
  224SOL     OW  684   1.576   1.662   2.169
  224SOL    HW1  685   1.665   1.708   2.172
  224SOL    HW2  686   1.555   1.638   2.074
  225SOL     OW  687   1.041   0.701   2.291
  225SOL    HW1  688   1.067   0.697   2.387
  225SOL    HW2  689   0.956   0.650   2.277
  226SOL     OW  690   0.076   0.811   2.651
  226SOL    HW1  691   0.175   0.799   2.660
  226SOL    HW2  692   0.052   0.906   2.672
  227SOL     OW  693   0.865   0.348   2.057
  227SOL    HW1  694   0.924   0.411   2.008
  227SOL    HW2  695   0.884   0.254   2.028
  228SOL     OW  696   1.362   1.144   2.407
  228SOL    HW1  697   1.445   1.115   2.359
  228SOL    HW2  698   1.313   1.211   2.351
  229SOL     OW  699   1.008   1.456   2.339
  229SOL    HW1  700   0.962   1.528   2.287
  229SOL    HW2  701   1.004   1.476   2.437
  230SOL     OW  702   0.351   1.801   2.715
  230SOL    HW1  703   0.401   1.715   2.721
  230SOL    HW2  704   0.416   1.878   2.712
  231SOL     OW  705   1.795   1.066   2.735
  231SOL    HW1  706   1.733   1.051   2.659
  231SOL    HW2  707   1.743   1.077   2.820
  232SOL     OW  708   0.321   0.943   2.104
  232SOL    HW1  709   0.403   0.982   2.062
  232SOL    HW2  710   0.294   0.861   2.055
  233SOL     OW  711   1.111   1.776   2.099
  233SOL    HW1  712   1.051   1.714   2.149
  233SOL    HW2  713   1.142   1.732   2.014
  234SOL     OW  714   1.632   1.377   1.943
  234SOL    HW1  715   1.600   1.471   1.933
  234SOL    HW2  716   1.556   1.314   1.931
  235SOL     OW  717   0.464   1.743   2.185
  235SOL    HW1  718   0.497   1.782   2.271
  235SOL    HW2  719   0.540   1.736   2.120
  236SOL     OW  720   1.400   0.107   2.288
  236SOL    HW1  721   1.376   0.070   2.198
  236SOL    HW2  722   1.499   0.123   2.292
  237SOL     OW  723   0.382   0.700   2.342
  237SOL    HW1  724   0.427   0.610   2.339
  237SOL    HW2  725   0.288   0.689   2.375
  238SOL     OW  726   0.614   0.122   1.979
  238SOL    HW1  727   0.712   0.100   1.986
  238SOL    HW2  728   0.583   0.105   1.886
  239SOL     OW  729   0.539   0.064   2.374
  239SOL    HW1  730   0.458   0.065   2.432
  239SOL    HW2  731   0.542   0.147   2.319
  240SOL     OW  732   1.434   1.188   1.903
  240SOL    HW1  733   1.466   1.112   1.960
  240SOL    HW2  734   1.342   1.215   1.933
  241SOL     OW  735   0.297   0.035   2.033
  241SOL    HW1  736   0.346   0.119   2.012
  241SOL    HW2  737   0.359  -0.030   2.078
  242SOL     OW  738   0.935   0.236   2.342
  242SOL    HW1  739   0.887   0.277   2.264
  242SOL    HW2  740   1.034   0.234   2.323
  243SOL     OW  741   0.459   1.152   2.603
  243SOL    HW1  742   0.388   1.125   2.668
  243SOL    HW2  743   0.433   1.124   2.510
  244SOL     OW  744   1.271   1.797   2.453
  244SOL    HW1  745   1.315   1.861   2.389
  244SOL    HW2  746   1.221   1.849   2.523
  245SOL     OW  747   1.032   0.549   1.878
  245SOL    HW1  748   0.991   0.631   1.839
  245SOL    HW2  749   1.096   0.575   1.951
  246SOL     OW  750   0.866   0.454   2.504
  246SOL    HW1  751   0.834   0.526   2.442
  246SOL    HW2  752   0.890   0.373   2.451
  247SOL     OW  753   1.857   0.833   2.239
  247SOL    HW1  754   1.899   0.769   2.303
  247SOL    HW2  755   1.819   0.782   2.161
  248SOL     OW  756   0.488   1.385   2.036
  248SOL    HW1  757   0.401   1.370   2.083
  248SOL    HW2  758   0.471   1.411   1.941
  249SOL     OW  759   1.390   0.575   1.940
  249SOL    HW1  760   1.336   0.554   2.021
  249SOL    HW2  761   1.481   0.534   1.949
  250SOL     OW  762   0.527   0.256   2.190
  250SOL    HW1  763   0.554   0.197   2.115
  250SOL    HW2  764   0.527   0.351   2.159
  251SOL     OW  765   0.705   1.050   2.230
  251SOL    HW1  766   0.691   1.057   2.329
  251SOL    HW2  767   0.789   0.999   2.212
  252SOL     OW  768   0.367   1.100   2.363
  252SOL    HW1  769   0.360   1.183   2.307
  252SOL    HW2  770   0.371   1.020   2.303
  253SOL     OW  771   1.252   1.348   2.250
  253SOL    HW1  772   1.302   1.425   2.290
  253SOL    HW2  773   1.157   1.350   2.282
  254SOL     OW  774   1.582   0.639   2.334
  254SOL    HW1  775   1.551   0.700   2.407
  254SOL    HW2  776   1.632   0.691   2.265
  255SOL     OW  777   1.209   0.525   2.137
  255SOL    HW1  778   1.222   0.441   2.191
  255SOL    HW2  779   1.180   0.599   2.197
  256SOL     OW  780   0.307   0.063   2.480
  256SOL    HW1  781   0.296   0.157   2.513
  256SOL    HW2  782   0.302   0.000   2.557
  257SOL     OW  783   1.622   0.367   2.236
  257SOL    HW1  784   1.624   0.291   2.300
  257SOL    HW2  785   1.574   0.444   2.276
  258SOL     OW  786   1.540   0.274   1.987
  258SOL    HW1  787   1.479   0.199   2.010
  258SOL    HW2  788   1.562   0.326   2.070
  259SOL     OW  789   1.303   0.838   1.904
  259SOL    HW1  790   1.337   0.745   1.919
  259SOL    HW2  791   1.321   0.865   1.809
  260SOL     OW  792   0.008   1.326   2.062
  260SOL    HW1  793  -0.085   1.347   2.031
  260SOL    HW2  794   0.018   1.227   2.075
  261SOL     OW  795   0.815   0.572   2.187
  261SOL    HW1  796   0.822   0.483   2.141
  261SOL    HW2  797   0.721   0.606   2.179
  262SOL     OW  798   0.473   0.500   2.053
  262SOL    HW1  799   0.534   0.580   2.057
  262SOL    HW2  800   0.378   0.531   2.060
  263SOL     OW  801   1.302   0.855   2.171
  263SOL    HW1  802   1.216   0.824   2.213
  263SOL    HW2  803   1.298   0.841   2.072
  264SOL     OW  804   1.726   0.135   2.385
  264SOL    HW1  805   1.799   0.118   2.318
  264SOL    HW2  806   1.695   0.048   2.423
  265SOL     OW  807   1.388   1.573   2.339
  265SOL    HW1  808   1.455   1.585   2.265
  265SOL    HW2  809   1.348   1.662   2.362
  266SOL     OW  810   0.672   1.616   2.016
  266SOL    HW1  811   0.681   1.626   1.917
  266SOL    HW2  812   0.632   1.527   2.037
  267SOL     OW  813   1.841   0.175   2.825
  267SOL    HW1  814   1.880   0.090   2.789
  267SOL    HW2  815   1.743   0.177   2.806
  268SOL     OW  816   1.194   1.612   1.893
  268SOL    HW1  817   1.200   1.519   1.930
  268SOL    HW2  818   1.135   1.612   1.813
  269SOL     OW  819   0.916   0.910   2.153
  269SOL    HW1  820   0.979   0.948   2.085
  269SOL    HW2  821   0.956   0.827   2.192
  270SOL     OW  822   1.504   1.607   1.906
  270SOL    HW1  823   1.412   1.644   1.913
  270SOL    HW2  824   1.542   1.627   1.816
  271SOL     OW  825   0.590   1.487   2.353
  271SOL    HW1  826   0.632   1.429   2.283
  271SOL    HW2  827   0.546   1.566   2.309
  272SOL     OW  828   0.255   1.348   2.152
  272SOL    HW1  829   0.159   1.349   2.125
  272SOL    HW2  830   0.267   1.401   2.236
  273SOL     OW  831   0.075   0.345   1.895
  273SOL    HW1  832  -0.017   0.317   1.866
  273SOL    HW2  833   0.106   0.422   1.839
  274SOL     OW  834   0.072   0.166   2.180
  274SOL    HW1  835   0.055   0.249   2.126
  274SOL    HW2  836   0.162   0.129   2.158
  275SOL     OW  837   1.183   1.335   1.981
  275SOL    HW1  838   1.084   1.324   1.983
  275SOL    HW2  839   1.217   1.350   2.074
  276SOL     OW  840   1.225   0.325   2.311
  276SOL    HW1  841   1.290   0.251   2.300
  276SOL    HW2  842   1.245   0.375   2.395
  277SOL     OW  843   0.594   0.745   2.514
  277SOL    HW1  844   0.644   0.830   2.495
  277SOL    HW2  845   0.506   0.747   2.466
  278SOL     OW  846   0.859   1.374   1.878
  278SOL    HW1  847   0.813   1.389   1.966
  278SOL    HW2  848   0.903   1.459   1.848
  279SOL     OW  849   1.083   0.984   1.949
  279SOL    HW1  850   1.060   1.037   1.867
  279SOL    HW2  851   1.164   0.928   1.930
  280SOL     OW  852   0.079   1.240   2.515
  280SOL    HW1  853   0.078   1.193   2.603
  280SOL    HW2  854   0.161   1.212   2.464
  281SOL     OW  855   0.428   0.424   2.382
  281SOL    HW1  856   0.458   0.352   2.320
  281SOL    HW2  857   0.389   0.384   2.465
  282SOL     OW  858   0.812   1.586   2.549
  282SOL    HW1  859   0.844   1.596   2.455
  282SOL    HW2  860   0.733   1.524   2.551
  283SOL     OW  861   0.770   1.330   2.163
  283SOL    HW1  862   0.724   1.243   2.180
  283SOL    HW2  863   0.861   1.327   2.204
  284SOL     OW  864   1.352   0.052   2.030
  284SOL    HW1  865   1.387   0.011   1.946
  284SOL    HW2  866   1.262   0.014   2.050
  285SOL     OW  867   1.300   0.453   2.553
  285SOL    HW1  868   1.241   0.533   2.557
  285SOL    HW2  869   1.315   0.418   2.646
  286SOL     OW  870   0.039   1.077   2.162
  286SOL    HW1  871   0.138   1.066   2.153
  286SOL    HW2  872  -0.001   0.991   2.194
  287SOL     OW  873   0.875   1.646   2.199
  287SOL    HW1  874   0.798   1.611   2.145
  287SOL    HW2  875   0.843   1.717   2.261
  288SOL     OW  876   0.225   2.137   0.996
  288SOL    HW1  877   0.260   2.120   1.088
  288SOL    HW2  878   0.137   2.092   0.984
  289SOL     OW  879   0.019   2.230   0.647
  289SOL    HW1  880  -0.063   2.273   0.686
  289SOL    HW2  881  -0.009   2.157   0.584
  290SOL     OW  882   1.755   2.469   0.231
  290SOL    HW1  883   1.743   2.456   0.132
  290SOL    HW2  884   1.725   2.388   0.280
  291SOL     OW  885   0.438   2.254   1.499
  291SOL    HW1  886   0.520   2.198   1.508
  291SOL    HW2  887   0.357   2.196   1.503
  292SOL     OW  888   1.603   2.309   0.737
  292SOL    HW1  889   1.529   2.355   0.687
  292SOL    HW2  890   1.654   2.377   0.790
  293SOL     OW  891   1.594   1.976   1.480
  293SOL    HW1  892   1.576   2.043   1.408
  293SOL    HW2  893   1.591   2.022   1.569
  294SOL     OW  894   0.122   2.505   0.563
  294SOL    HW1  895   0.077   2.417   0.580
  294SOL    HW2  896   0.121   2.559   0.647
  295SOL     OW  897   0.113   2.599   1.597
  295SOL    HW1  898   0.201   2.586   1.642
  295SOL    HW2  899   0.100   2.696   1.575
  296SOL     OW  900   0.809   1.866   0.502
  296SOL    HW1  901   0.849   1.957   0.493
  296SOL    HW2  902   0.709   1.874   0.508
  297SOL     OW  903   0.317   2.113   1.801
  297SOL    HW1  904   0.388   2.184   1.807
  297SOL    HW2  905   0.229   2.152   1.829
  298SOL     OW  906   1.281   2.207   0.944
  298SOL    HW1  907   1.195   2.157   0.931
  298SOL    HW2  908   1.343   2.153   1.000
  299SOL     OW  909   0.807   2.467   1.465
  299SOL    HW1  910   0.760   2.464   1.554
  299SOL    HW2  911   0.756   2.412   1.399
  300SOL     OW  912   1.394   2.331   1.674
  300SOL    HW1  913   1.374   2.374   1.762
  300SOL    HW2  914   1.472   2.269   1.683
  301SOL     OW  915   0.991   2.272   1.242
  301SOL    HW1  916   0.914   2.306   1.296
  301SOL    HW2  917   0.957   2.221   1.163
  302SOL     OW  918   1.041   2.563   0.429
  302SOL    HW1  919   1.067   2.559   0.525
  302SOL    HW2  920   0.956   2.512   0.415
  303SOL     OW  921   0.076   2.673   0.789
  303SOL    HW1  922   0.175   2.661   0.798
  303SOL    HW2  923   0.052   2.768   0.810
  304SOL     OW  924   0.865   2.210   0.195
  304SOL    HW1  925   0.924   2.273   0.146
  304SOL    HW2  926   0.884   2.116   0.166
  305SOL     OW  927   1.719   2.447   1.831
  305SOL    HW1  928   1.693   2.536   1.795
  305SOL    HW2  929   1.717   2.379   1.758
  306SOL     OW  930   0.550   2.058   0.885
  306SOL    HW1  931   0.545   2.053   0.985
  306SOL    HW2  932   0.552   2.154   0.856
  307SOL     OW  933   1.458   2.597   0.728
  307SOL    HW1  934   1.453   2.532   0.803
  307SOL    HW2  935   1.538   2.656   0.741
  308SOL     OW  936   0.202   2.147   1.498
  308SOL    HW1  937   0.122   2.207   1.485
  308SOL    HW2  938   0.192   2.098   1.584
  309SOL     OW  939   1.400   1.969   0.426
  309SOL    HW1  940   1.376   1.932   0.336
  309SOL    HW2  941   1.499   1.985   0.430
  310SOL     OW  942   1.547   2.084   1.729
  310SOL    HW1  943   1.542   2.121   1.821
  310SOL    HW2  944   1.475   2.015   1.717
  311SOL     OW  945   0.614   1.984   0.117
  311SOL    HW1  946   0.712   1.962   0.124
  311SOL    HW2  947   0.583   1.967   0.024
  312SOL     OW  948   0.781   2.126   1.749
  312SOL    HW1  949   0.848   2.065   1.792
  312SOL    HW2  950   0.708   2.145   1.814
  313SOL     OW  951   1.351   2.452   1.433
  313SOL    HW1  952   1.379   2.409   1.518
  313SOL    HW2  953   1.376   2.548   1.434
  314SOL     OW  954   0.922   2.365   0.899
  314SOL    HW1  955   0.897   2.356   0.803
  314SOL    HW2  956   0.970   2.283   0.930
  315SOL     OW  957   0.539   1.926   0.512
  315SOL    HW1  958   0.458   1.927   0.570
  315SOL    HW2  959   0.542   2.009   0.457
  316SOL     OW  960   0.935   2.098   0.480
  316SOL    HW1  961   0.887   2.139   0.402
  316SOL    HW2  962   1.034   2.096   0.461
  317SOL     OW  963   1.076   2.545   1.464
  317SOL    HW1  964   0.996   2.484   1.467
  317SOL    HW2  965   1.157   2.492   1.440
  318SOL     OW  966   1.032   2.411   0.016
  318SOL    HW1  967   0.991   2.493  -0.023
  318SOL    HW2  968   1.096   2.437   0.089
  319SOL     OW  969   0.078   2.418   1.386
  319SOL    HW1  970   0.170   2.417   1.345
  319SOL    HW2  971   0.072   2.492   1.453
  320SOL     OW  972   0.561   2.084   1.147
  320SOL    HW1  973   0.599   2.000   1.184
  320SOL    HW2  974   0.473   2.103   1.191
  321SOL     OW  975   0.866   2.316   0.642
  321SOL    HW1  976   0.834   2.388   0.580
  321SOL    HW2  977   0.890   2.235   0.589
  322SOL     OW  978   1.017   1.901   0.753
  322SOL    HW1  979   0.945   1.906   0.684
  322SOL    HW2  980   0.993   1.832   0.822
  323SOL     OW  981   1.466   2.452   0.992
  323SOL    HW1  982   1.436   2.357   0.999
  323SOL    HW2  983   1.539   2.468   1.058
  324SOL     OW  984   1.390   2.437   0.078
  324SOL    HW1  985   1.336   2.416   0.159
  324SOL    HW2  986   1.481   2.396   0.087
  325SOL     OW  987   0.527   2.118   0.328
  325SOL    HW1  988   0.554   2.059   0.253
  325SOL    HW2  989   0.527   2.213   0.297
  326SOL     OW  990   0.915   1.951   1.402
  326SOL    HW1  991   0.940   1.931   1.307
  326SOL    HW2  992   0.987   2.007   1.444
  327SOL     OW  993   1.274   2.248   1.262
  327SOL    HW1  994   1.295   2.322   1.326
  327SOL    HW2  995   1.185   2.265   1.219
  328SOL     OW  996   0.566   2.399   0.865
  328SOL    HW1  997   0.578   2.465   0.791
  328SOL    HW2  998   0.612   2.433   0.948
  329SOL     OW  999   1.582   2.501   0.472
  329SOL    HW1 1000   1.551   2.562   0.545
  329SOL    HW2 1001   1.632   2.553   0.403
  330SOL     OW 1002   1.013   1.967   1.770
  330SOL    HW1 1003   1.019   2.052   1.718
  330SOL    HW2 1004   1.045   1.891   1.713
  331SOL     OW 1005   0.504   1.912   1.740
  331SOL    HW1 1006   0.462   1.855   1.670
  331SOL    HW2 1007   0.438   1.981   1.772
  332SOL     OW 1008   1.209   2.387   0.275
  332SOL    HW1 1009   1.222   2.303   0.329
  332SOL    HW2 1010   1.180   2.461   0.335
  333SOL     OW 1011   0.307   2.075   1.231
  333SOL    HW1 1012   0.284   2.112   1.321
  333SOL    HW2 1013   0.277   1.980   1.225
  334SOL     OW 1014   0.732   2.496   1.064
  334SOL    HW1 1015   0.791   2.470   0.988
  334SOL    HW2 1016   0.704   2.592   1.053
  335SOL     OW 1017   0.307   1.925   0.618
  335SOL    HW1 1018   0.296   2.019   0.651
  335SOL    HW2 1019   0.302   1.862   0.695
  336SOL     OW 1020   1.622   2.229   0.374
  336SOL    HW1 1021   1.624   2.153   0.438
  336SOL    HW2 1022   1.574   2.306   0.414
  337SOL     OW 1023   1.540   2.136   0.125
  337SOL    HW1 1024   1.479   2.061   0.148
  337SOL    HW2 1025   1.562   2.188   0.208
  338SOL     OW 1026   0.319   2.672   0.949
  338SOL    HW1 1027   0.412   2.708   0.954
  338SOL    HW2 1028   0.313   2.587   1.001
  339SOL     OW 1029   0.339   2.371   1.006
  339SOL    HW1 1030   0.287   2.288   0.989
  339SOL    HW2 1031   0.416   2.376   0.942
  340SOL     OW 1032   1.138   2.242   1.678
  340SOL    HW1 1033   1.093   2.305   1.742
  340SOL    HW2 1034   1.231   2.273   1.661
  341SOL     OW 1035   1.160   2.069   1.477
  341SOL    HW1 1036   1.160   2.133   1.554
  341SOL    HW2 1037   1.188   2.117   1.394
  342SOL     OW 1038   0.040   2.406   1.114
  342SOL    HW1 1039   0.125   2.373   1.073
  342SOL    HW2 1040   0.053   2.421   1.212
  343SOL     OW 1041   0.189   2.382   1.722
  343SOL    HW1 1042   0.248   2.342   1.652
  343SOL    HW2 1043   0.131   2.453   1.681
  344SOL     OW 1044   0.815   2.434   0.325
  344SOL    HW1 1045   0.822   2.345   0.279
  344SOL    HW2 1046   0.721   2.468   0.317
  345SOL     OW 1047   1.657   2.466   1.206
  345SOL    HW1 1048   1.619   2.397   1.268
  345SOL    HW2 1049   1.739   2.430   1.162
  346SOL     OW 1050   0.671   2.326   1.269
  346SOL    HW1 1051   0.637   2.237   1.239
  346SOL    HW2 1052   0.697   2.380   1.189
  347SOL     OW 1053   0.473   2.362   0.191
  347SOL    HW1 1054   0.534   2.442   0.195
  347SOL    HW2 1055   0.378   2.393   0.198
  348SOL     OW 1056   0.903   1.948   0.133
  348SOL    HW1 1057   0.954   1.949   0.047
  348SOL    HW2 1058   0.959   1.906   0.204
  349SOL     OW 1059   1.726   1.997   0.523
  349SOL    HW1 1060   1.799   1.980   0.456
  349SOL    HW2 1061   1.695   1.910   0.561
  350SOL     OW 1062   1.280   2.789   0.672
  350SOL    HW1 1063   1.340   2.708   0.674
  350SOL    HW2 1064   1.320   2.858   0.612
  351SOL     OW 1065   1.841   2.037   0.963
  351SOL    HW1 1066   1.880   1.952   0.927
  351SOL    HW2 1067   1.743   2.039   0.944
  352SOL     OW 1068   0.263   2.188   0.720
  352SOL    HW1 1069   0.184   2.239   0.686
  352SOL    HW2 1070   0.254   2.173   0.818
  353SOL     OW 1071   1.014   2.098   0.971
  353SOL    HW1 1072   1.006   2.062   0.878
  353SOL    HW2 1073   1.012   2.022   1.036
  354SOL     OW 1074   1.709   2.247   1.381
  354SOL    HW1 1075   1.782   2.316   1.385
  354SOL    HW2 1076   1.737   2.172   1.322
  355SOL     OW 1077   0.672   2.065   1.489
  355SOL    HW1 1078   0.762   2.049   1.449
  355SOL    HW2 1079   0.680   2.070   1.588
  356SOL     OW 1080   0.075   2.207   0.033
  356SOL    HW1 1081  -0.017   2.179   0.004
  356SOL    HW2 1082   0.106   2.284  -0.023
  357SOL     OW 1083   0.072   2.028   0.318
  357SOL    HW1 1084   0.055   2.111   0.264
  357SOL    HW2 1085   0.162   1.991   0.296
  358SOL     OW 1086   0.716   2.427   1.708
  358SOL    HW1 1087   0.735   2.492   1.782
  358SOL    HW2 1088   0.776   2.347   1.717
  359SOL     OW 1089   1.225   2.187   0.449
  359SOL    HW1 1090   1.290   2.113   0.438
  359SOL    HW2 1091   1.245   2.237   0.533
  360SOL     OW 1092   1.777   2.204   1.642
  360SOL    HW1 1093   1.760   2.235   1.548
  360SOL    HW2 1094   1.693   2.167   1.680
  361SOL     OW 1095   1.083   2.846   0.087
  361SOL    HW1 1096   1.060   2.899   0.005
  361SOL    HW2 1097   1.164   2.790   0.068
  362SOL     OW 1098   1.824   2.054   1.227
  362SOL    HW1 1099   1.820   1.964   1.271
  362SOL    HW2 1100   1.827   2.043   1.128
  363SOL     OW 1101   0.428   2.286   0.520
  363SOL    HW1 1102   0.458   2.214   0.458
  363SOL    HW2 1103   0.389   2.246   0.603
  364SOL     OW 1104   0.317   2.409   1.280
  364SOL    HW1 1105   0.355   2.350   1.352
  364SOL    HW2 1106   0.357   2.383   1.192
  365SOL     OW 1107   1.424   2.076   1.112
  365SOL    HW1 1108   1.476   2.011   1.167
  365SOL    HW2 1109   1.375   2.139   1.173
  366SOL     OW 1110   1.001   1.896   1.154
  366SOL    HW1 1111   0.938   1.824   1.123
  366SOL    HW2 1112   1.094   1.860   1.154
  367SOL     OW 1113   1.352   1.914   0.168
  367SOL    HW1 1114   1.387   1.873   0.084
  367SOL    HW2 1115   1.262   1.876   0.188
  368SOL     OW 1116   1.300   2.315   0.691
  368SOL    HW1 1117   1.241   2.395   0.695
  368SOL    HW2 1118   1.315   2.280   0.784
  369SOL     OW 1119   1.593   2.083   0.882
  369SOL    HW1 1120   1.509   2.082   0.936
  369SOL    HW2 1121   1.595   2.166   0.826
  370SOL     OW 1122   1.135   2.565   2.579
  370SOL    HW1 1123   1.192   2.643   2.554
  370SOL    HW2 1124   1.075   2.591   2.655
  371SOL     OW 1125   1.755   2.469   2.093
  371SOL    HW1 1126   1.743   2.456   1.994
  371SOL    HW2 1127   1.725   2.388   2.142
  372SOL     OW 1128   1.603   2.309   2.599
  372SOL    HW1 1129   1.529   2.355   2.549
  372SOL    HW2 1130   1.654   2.377   2.652
  373SOL     OW 1131   0.122   2.505   2.425
  373SOL    HW1 1132   0.077   2.417   2.442
  373SOL    HW2 1133   0.121   2.559   2.509
  374SOL     OW 1134   0.809   1.866   2.364
  374SOL    HW1 1135   0.849   1.957   2.355
  374SOL    HW2 1136   0.709   1.874   2.370
  375SOL     OW 1137   1.281   2.207   2.806
  375SOL    HW1 1138   1.195   2.157   2.793
  375SOL    HW2 1139   1.343   2.153   2.862
  376SOL     OW 1140   1.041   2.563   2.291
  376SOL    HW1 1141   1.067   2.559   2.387
  376SOL    HW2 1142   0.956   2.512   2.277
  377SOL     OW 1143   0.076   2.673   2.651
  377SOL    HW1 1144   0.175   2.661   2.660
  377SOL    HW2 1145   0.052   2.768   2.672
  378SOL     OW 1146   0.865   2.210   2.057
  378SOL    HW1 1147   0.924   2.273   2.008
  378SOL    HW2 1148   0.884   2.116   2.028
  379SOL     OW 1149   1.400   1.969   2.288
  379SOL    HW1 1150   1.376   1.932   2.198
  379SOL    HW2 1151   1.499   1.985   2.292
  380SOL     OW 1152   0.614   1.984   1.979
  380SOL    HW1 1153   0.712   1.962   1.986
  380SOL    HW2 1154   0.583   1.967   1.886
  381SOL     OW 1155   0.539   1.926   2.374
  381SOL    HW1 1156   0.458   1.927   2.432
  381SOL    HW2 1157   0.542   2.009   2.319
  382SOL     OW 1158   0.297   1.897   2.033
  382SOL    HW1 1159   0.346   1.981   2.012
  382SOL    HW2 1160   0.359   1.832   2.078
  383SOL     OW 1161   0.935   2.098   2.342
  383SOL    HW1 1162   0.887   2.139   2.264
  383SOL    HW2 1163   1.034   2.096   2.323
  384SOL     OW 1164   1.032   2.411   1.878
  384SOL    HW1 1165   0.991   2.493   1.839
  384SOL    HW2 1166   1.096   2.437   1.951
  385SOL     OW 1167   0.866   2.316   2.504
  385SOL    HW1 1168   0.834   2.388   2.442
  385SOL    HW2 1169   0.890   2.235   2.451
  386SOL     OW 1170   1.390   2.437   1.940
  386SOL    HW1 1171   1.336   2.416   2.021
  386SOL    HW2 1172   1.481   2.396   1.949
  387SOL     OW 1173   0.527   2.118   2.190
  387SOL    HW1 1174   0.554   2.059   2.115
  387SOL    HW2 1175   0.527   2.213   2.159
  388SOL     OW 1176   1.582   2.501   2.334
  388SOL    HW1 1177   1.551   2.562   2.407
  388SOL    HW2 1178   1.632   2.553   2.265
  389SOL     OW 1179   1.209   2.387   2.137
  389SOL    HW1 1180   1.222   2.303   2.191
  389SOL    HW2 1181   1.180   2.461   2.197
  390SOL     OW 1182   0.307   1.925   2.480
  390SOL    HW1 1183   0.296   2.019   2.513
  390SOL    HW2 1184   0.302   1.862   2.557
  391SOL     OW 1185   1.622   2.229   2.236
  391SOL    HW1 1186   1.624   2.153   2.300
  391SOL    HW2 1187   1.574   2.306   2.276
  392SOL     OW 1188   1.540   2.136   1.987
  392SOL    HW1 1189   1.479   2.061   2.010
  392SOL    HW2 1190   1.562   2.188   2.070
  393SOL     OW 1191   0.815   2.434   2.187
  393SOL    HW1 1192   0.822   2.345   2.141
  393SOL    HW2 1193   0.721   2.468   2.179
  394SOL     OW 1194   0.473   2.362   2.053
  394SOL    HW1 1195   0.534   2.442   2.057
  394SOL    HW2 1196   0.378   2.393   2.060
  395SOL     OW 1197   1.726   1.997   2.385
  395SOL    HW1 1198   1.799   1.980   2.318
  395SOL    HW2 1199   1.695   1.910   2.423
  396SOL     OW 1200   1.280   2.789   2.534
  396SOL    HW1 1201   1.340   2.708   2.536
  396SOL    HW2 1202   1.320   2.858   2.474
  397SOL     OW 1203   1.841   2.037   2.825
  397SOL    HW1 1204   1.880   1.952   2.789
  397SOL    HW2 1205   1.743   2.039   2.806
  398SOL     OW 1206   0.075   2.207   1.895
  398SOL    HW1 1207  -0.017   2.179   1.866
  398SOL    HW2 1208   0.106   2.284   1.839
  399SOL     OW 1209   0.072   2.028   2.180
  399SOL    HW1 1210   0.055   2.111   2.126
  399SOL    HW2 1211   0.162   1.991   2.158
  400SOL     OW 1212   1.225   2.187   2.311
  400SOL    HW1 1213   1.290   2.113   2.300
  400SOL    HW2 1214   1.245   2.237   2.395
  401SOL     OW 1215   1.083   2.846   1.949
  401SOL    HW1 1216   1.060   2.899   1.867
  401SOL    HW2 1217   1.164   2.790   1.930
  402SOL     OW 1218   0.428   2.286   2.382
  402SOL    HW1 1219   0.458   2.214   2.320
  402SOL    HW2 1220   0.389   2.246   2.465
  403SOL     OW 1221   1.352   1.914   2.030
  403SOL    HW1 1222   1.387   1.873   1.946
  403SOL    HW2 1223   1.262   1.876   2.050
  404SOL     OW 1224   1.300   2.315   2.553
  404SOL    HW1 1225   1.241   2.395   2.557
  404SOL    HW2 1226   1.315   2.280   2.646
  405SOL     OW 1227   2.092   0.628   0.113
  405SOL    HW1 1228   1.999   0.626   0.150
  405SOL    HW2 1229   2.093   0.589   0.021
  406SOL     OW 1230   2.087   0.275   0.996
  406SOL    HW1 1231   2.122   0.258   1.088
  406SOL    HW2 1232   1.999   0.230   0.984
  407SOL     OW 1233   1.881   0.368   0.647
  407SOL    HW1 1234   1.799   0.411   0.686
  407SOL    HW2 1235   1.853   0.295   0.584
  408SOL     OW 1236   2.431   1.275   1.165
  408SOL    HW1 1237   2.338   1.268   1.128
  408SOL    HW2 1238   2.442   1.364   1.209
  409SOL     OW 1239   2.712   0.798   1.823
  409SOL    HW1 1240   2.708   0.874   1.888
  409SOL    HW2 1241   2.734   0.834   1.732
  410SOL     OW 1242   2.548   1.161   1.803
  410SOL    HW1 1243   2.608   1.240   1.817
  410SOL    HW2 1244   2.462   1.192   1.762
  411SOL     OW 1245   2.197   1.435   1.061
  411SOL    HW1 1246   2.119   1.404   1.008
  411SOL    HW2 1247   2.255   1.493   1.004
  412SOL     OW 1248   2.300   0.392   1.499
  412SOL    HW1 1249   2.382   0.336   1.508
  412SOL    HW2 1250   2.219   0.334   1.503
  413SOL     OW 1251   2.093   1.713   0.483
  413SOL    HW1 1252   2.127   1.790   0.537
  413SOL    HW2 1253   2.137   1.713   0.393
  414SOL     OW 1254   2.092   1.434   0.538
  414SOL    HW1 1255   2.066   1.530   0.538
  414SOL    HW2 1256   2.021   1.380   0.583
  415SOL     OW 1257   2.102   1.091   0.886
  415SOL    HW1 1258   2.116   1.007   0.938
  415SOL    HW2 1259   2.047   1.155   0.941
  416SOL     OW 1260   2.482   1.786   1.439
  416SOL    HW1 1261   2.390   1.769   1.474
  416SOL    HW2 1262   2.510   1.878   1.465
  417SOL     OW 1263   2.468   0.964   0.123
  417SOL    HW1 1264   2.475   1.048   0.069
  417SOL    HW2 1265   2.514   0.977   0.211
  418SOL     OW 1266   1.984   0.643   0.563
  418SOL    HW1 1267   1.939   0.555   0.580
  418SOL    HW2 1268   1.983   0.697   0.647
  419SOL     OW 1269   1.889   1.596   0.117
  419SOL    HW1 1270   1.870   1.500   0.138
  419SOL    HW2 1271   1.856   1.654   0.192
  420SOL     OW 1272   1.975   0.737   1.597
  420SOL    HW1 1273   2.063   0.724   1.642
  420SOL    HW2 1274   1.962   0.834   1.575
  421SOL     OW 1275   2.475   1.365   0.726
  421SOL    HW1 1276   2.426   1.278   0.735
  421SOL    HW2 1277   2.452   1.408   0.639
  422SOL     OW 1278   2.059   0.976   1.264
  422SOL    HW1 1279   2.148   0.931   1.250
  422SOL    HW2 1280   1.986   0.911   1.245
  423SOL     OW 1281   2.179   0.251   1.801
  423SOL    HW1 1282   2.250   0.322   1.807
  423SOL    HW2 1283   2.091   0.290   1.829
  424SOL     OW 1284   2.460   0.729   0.270
  424SOL    HW1 1285   2.484   0.798   0.202
  424SOL    HW2 1286   2.382   0.762   0.324
  425SOL     OW 1287   1.938   0.811   0.789
  425SOL    HW1 1288   2.037   0.799   0.798
  425SOL    HW2 1289   1.914   0.906   0.810
  426SOL     OW 1290   1.992   1.821   1.571
  426SOL    HW1 1291   1.982   1.806   1.670
  426SOL    HW2 1292   1.906   1.857   1.535
  427SOL     OW 1293   2.412   0.196   0.885
  427SOL    HW1 1294   2.407   0.191   0.985
  427SOL    HW2 1295   2.414   0.292   0.856
  428SOL     OW 1296   2.213   1.801   0.853
  428SOL    HW1 1297   2.263   1.715   0.859
  428SOL    HW2 1298   2.278   1.878   0.850
  429SOL     OW 1299   2.183   0.943   0.242
  429SOL    HW1 1300   2.265   0.982   0.200
  429SOL    HW2 1301   2.156   0.861   0.193
  430SOL     OW 1302   2.323   1.266   1.727
  430SOL    HW1 1303   2.273   1.267   1.641
  430SOL    HW2 1304   2.260   1.248   1.803
  431SOL     OW 1305   2.064   0.285   1.498
  431SOL    HW1 1306   1.984   0.345   1.485
  431SOL    HW2 1307   2.054   0.236   1.584
  432SOL     OW 1308   2.326   1.743   0.323
  432SOL    HW1 1309   2.359   1.782   0.409
  432SOL    HW2 1310   2.402   1.736   0.258
  433SOL     OW 1311   2.111   1.785   1.241
  433SOL    HW1 1312   2.168   1.720   1.291
  433SOL    HW2 1313   2.095   1.752   1.148
  434SOL     OW 1314   2.244   0.700   0.480
  434SOL    HW1 1315   2.289   0.610   0.477
  434SOL    HW2 1316   2.150   0.689   0.513
  435SOL     OW 1317   2.665   1.402   0.924
  435SOL    HW1 1318   2.755   1.416   0.882
  435SOL    HW2 1319   2.594   1.404   0.853
  436SOL     OW 1320   2.401   0.064   0.512
  436SOL    HW1 1321   2.320   0.065   0.570
  436SOL    HW2 1322   2.404   0.147   0.457
  437SOL     OW 1323   2.159   0.035   0.171
  437SOL    HW1 1324   2.208   0.119   0.150
  437SOL    HW2 1325   2.221  -0.030   0.216
  438SOL     OW 1326   2.797   0.236   0.480
  438SOL    HW1 1327   2.749   0.277   0.402
  438SOL    HW2 1328   2.896   0.234   0.461
  439SOL     OW 1329   2.321   1.152   0.741
  439SOL    HW1 1330   2.250   1.125   0.806
  439SOL    HW2 1331   2.295   1.124   0.648
  440SOL     OW 1332   1.940   0.556   1.386
  440SOL    HW1 1333   2.032   0.555   1.345
  440SOL    HW2 1334   1.934   0.630   1.453
  441SOL     OW 1335   2.423   0.222   1.147
  441SOL    HW1 1336   2.461   0.138   1.184
  441SOL    HW2 1337   2.335   0.241   1.191
  442SOL     OW 1338   2.350   1.385   0.174
  442SOL    HW1 1339   2.263   1.370   0.221
  442SOL    HW2 1340   2.333   1.411   0.079
  443SOL     OW 1341   2.389   0.256   0.328
  443SOL    HW1 1342   2.416   0.197   0.253
  443SOL    HW2 1343   2.389   0.351   0.297
  444SOL     OW 1344   2.272   0.813   1.251
  444SOL    HW1 1345   2.358   0.825   1.301
  444SOL    HW2 1346   2.230   0.726   1.278
  445SOL     OW 1347   1.926   1.564   1.331
  445SOL    HW1 1348   1.880   1.646   1.297
  445SOL    HW2 1349   2.024   1.583   1.340
  446SOL     OW 1350   2.229   1.100   0.501
  446SOL    HW1 1351   2.222   1.183   0.445
  446SOL    HW2 1352   2.233   1.020   0.441
  447SOL     OW 1353   2.428   0.537   0.865
  447SOL    HW1 1354   2.440   0.603   0.791
  447SOL    HW2 1355   2.474   0.571   0.948
  448SOL     OW 1356   2.216   1.510   1.329
  448SOL    HW1 1357   2.195   1.466   1.242
  448SOL    HW2 1358   2.313   1.536   1.332
  449SOL     OW 1359   2.264   0.751   1.598
  449SOL    HW1 1360   2.332   0.806   1.551
  449SOL    HW2 1361   2.304   0.663   1.625
  450SOL     OW 1362   2.366   0.050   1.740
  450SOL    HW1 1363   2.324  -0.007   1.670
  450SOL    HW2 1364   2.300   0.119   1.772
  451SOL     OW 1365   2.435   0.870   1.029
  451SOL    HW1 1366   2.479   0.959   1.020
  451SOL    HW2 1367   2.372   0.870   1.106
  452SOL     OW 1368   2.169   0.213   1.231
  452SOL    HW1 1369   2.146   0.250   1.321
  452SOL    HW2 1370   2.139   0.118   1.225
  453SOL     OW 1371   1.899   1.310   1.282
  453SOL    HW1 1372   1.952   1.261   1.350
  453SOL    HW2 1373   1.921   1.408   1.287
  454SOL     OW 1374   2.169   0.063   0.618
  454SOL    HW1 1375   2.158   0.157   0.651
  454SOL    HW2 1376   2.164   0.000   0.695
  455SOL     OW 1377   2.212   0.898   1.804
  455SOL    HW1 1378   2.288   0.942   1.852
  455SOL    HW2 1379   2.247   0.851   1.722
  456SOL     OW 1380   2.181   0.810   0.949
  456SOL    HW1 1381   2.274   0.846   0.954
  456SOL    HW2 1382   2.175   0.725   1.001
  457SOL     OW 1383   2.201   0.509   1.006
  457SOL    HW1 1384   2.149   0.426   0.989
  457SOL    HW2 1385   2.278   0.514   0.942
  458SOL     OW 1386   1.870   1.326   0.200
  458SOL    HW1 1387   1.777   1.347   0.169
  458SOL    HW2 1388   1.880   1.227   0.213
  459SOL     OW 1389   1.950   1.801   0.927
  459SOL    HW1 1390   1.908   1.715   0.900
  459SOL    HW2 1391   2.044   1.804   0.893
  460SOL     OW 1392   2.366   1.568   0.910
  460SOL    HW1 1393   2.432   1.642   0.919
  460SOL    HW2 1394   2.410   1.489   0.868
  461SOL     OW 1395   1.902   0.544   1.114
  461SOL    HW1 1396   1.987   0.511   1.073
  461SOL    HW2 1397   1.915   0.559   1.212
  462SOL     OW 1398   2.051   0.520   1.722
  462SOL    HW1 1399   2.110   0.480   1.652
  462SOL    HW2 1400   1.993   0.591   1.681
  463SOL     OW 1401   2.677   0.572   0.325
  463SOL    HW1 1402   2.684   0.483   0.279
  463SOL    HW2 1403   2.583   0.606   0.317
  464SOL     OW 1404   2.114   1.564   1.744
  464SOL    HW1 1405   2.084   1.621   1.820
  464SOL    HW2 1406   2.107   1.467   1.770
  465SOL     OW 1407   2.335   0.500   0.191
  465SOL    HW1 1408   2.396   0.580   0.195
  465SOL    HW2 1409   2.240   0.531   0.198
  466SOL     OW 1410   2.021   1.137   1.466
  466SOL    HW1 1411   2.043   1.076   1.542
  466SOL    HW2 1412   2.031   1.088   1.380
  467SOL     OW 1413   1.945   1.258   1.022
  467SOL    HW1 1414   1.940   1.257   1.122
  467SOL    HW2 1415   1.862   1.217   0.984
  468SOL     OW 1416   2.550   1.662   1.716
  468SOL    HW1 1417   2.494   1.743   1.725
  468SOL    HW2 1418   2.602   1.666   1.630
  469SOL     OW 1419   1.992   1.794   1.851
  469SOL    HW1 1420   1.951   1.720   1.904
  469SOL    HW2 1421   2.056   1.845   1.909
  470SOL     OW 1422   2.125   0.326   0.720
  470SOL    HW1 1423   2.046   0.377   0.686
  470SOL    HW2 1424   2.116   0.311   0.818
  471SOL     OW 1425   2.234   1.288   1.490
  471SOL    HW1 1426   2.221   1.381   1.456
  471SOL    HW2 1427   2.150   1.236   1.477
  472SOL     OW 1428   2.452   1.487   0.491
  472SOL    HW1 1429   2.494   1.429   0.421
  472SOL    HW2 1430   2.408   1.566   0.447
  473SOL     OW 1431   2.117   1.348   0.290
  473SOL    HW1 1432   2.021   1.349   0.263
  473SOL    HW2 1433   2.129   1.401   0.374
  474SOL     OW 1434   1.967   1.013   1.726
  474SOL    HW1 1435   1.890   0.980   1.780
  474SOL    HW2 1436   2.052   0.983   1.768
  475SOL     OW 1437   2.534   0.203   1.489
  475SOL    HW1 1438   2.624   0.187   1.449
  475SOL    HW2 1439   2.542   0.208   1.588
  476SOL     OW 1440   1.937   0.345   0.033
  476SOL    HW1 1441   1.845   0.317   0.004
  476SOL    HW2 1442   1.968   0.422  -0.023
  477SOL     OW 1443   2.475   0.842   1.431
  477SOL    HW1 1444   2.531   0.923   1.414
  477SOL    HW2 1445   2.534   0.762   1.434
  478SOL     OW 1446   2.252   1.741   1.560
  478SOL    HW1 1447   2.161   1.782   1.558
  478SOL    HW2 1448   2.245   1.647   1.592
  479SOL     OW 1449   2.456   0.745   0.652
  479SOL    HW1 1450   2.506   0.830   0.633
  479SOL    HW2 1451   2.368   0.747   0.604
  480SOL     OW 1452   2.083   1.314   1.844
  480SOL    HW1 1453   2.018   1.241   1.823
  480SOL    HW2 1454   2.087   1.328   1.942
  481SOL     OW 1455   1.941   1.240   0.653
  481SOL    HW1 1456   1.940   1.193   0.741
  481SOL    HW2 1457   2.023   1.212   0.602
  482SOL     OW 1458   2.534   1.391   1.624
  482SOL    HW1 1459   2.456   1.341   1.662
  482SOL    HW2 1460   2.531   1.486   1.655
  483SOL     OW 1461   2.290   0.424   0.520
  483SOL    HW1 1462   2.320   0.352   0.458
  483SOL    HW2 1463   2.251   0.384   0.603
  484SOL     OW 1464   2.179   0.547   1.280
  484SOL    HW1 1465   2.217   0.488   1.352
  484SOL    HW2 1466   2.219   0.521   1.192
  485SOL     OW 1467   1.901   1.077   0.300
  485SOL    HW1 1468   2.000   1.066   0.291
  485SOL    HW2 1469   1.861   0.991   0.332
  486SOL     OW 1470   2.092   0.628   1.975
  486SOL    HW1 1471   1.999   0.626   2.012
  486SOL    HW2 1472   2.093   0.589   1.883
  487SOL     OW 1473   2.087   0.275   2.858
  487SOL    HW1 1474   2.122   0.258   2.950
  487SOL    HW2 1475   1.999   0.230   2.846
  488SOL     OW 1476   2.093   1.713   2.345
  488SOL    HW1 1477   2.127   1.790   2.399
  488SOL    HW2 1478   2.137   1.713   2.255
  489SOL     OW 1479   2.092   1.434   2.400
  489SOL    HW1 1480   2.066   1.530   2.400
  489SOL    HW2 1481   2.021   1.380   2.445
  490SOL     OW 1482   2.468   0.964   1.985
  490SOL    HW1 1483   2.475   1.048   1.931
  490SOL    HW2 1484   2.514   0.977   2.073
  491SOL     OW 1485   1.984   0.643   2.425
  491SOL    HW1 1486   1.939   0.555   2.442
  491SOL    HW2 1487   1.983   0.697   2.509
  492SOL     OW 1488   1.889   1.596   1.979
  492SOL    HW1 1489   1.870   1.500   2.000
  492SOL    HW2 1490   1.856   1.654   2.054
  493SOL     OW 1491   2.475   1.365   2.588
  493SOL    HW1 1492   2.426   1.278   2.597
  493SOL    HW2 1493   2.452   1.408   2.501
  494SOL     OW 1494   2.460   0.729   2.132
  494SOL    HW1 1495   2.484   0.798   2.064
  494SOL    HW2 1496   2.382   0.762   2.186
  495SOL     OW 1497   1.938   0.811   2.651
  495SOL    HW1 1498   2.037   0.799   2.660
  495SOL    HW2 1499   1.914   0.906   2.672
  496SOL     OW 1500   2.213   1.801   2.715
  496SOL    HW1 1501   2.263   1.715   2.721
  496SOL    HW2 1502   2.278   1.878   2.712
  497SOL     OW 1503   2.183   0.943   2.104
  497SOL    HW1 1504   2.265   0.982   2.062
  497SOL    HW2 1505   2.156   0.861   2.055
  498SOL     OW 1506   2.326   1.743   2.185
  498SOL    HW1 1507   2.359   1.782   2.271
  498SOL    HW2 1508   2.402   1.736   2.120
  499SOL     OW 1509   2.244   0.700   2.342
  499SOL    HW1 1510   2.289   0.610   2.339
  499SOL    HW2 1511   2.150   0.689   2.375
  500SOL     OW 1512   2.476   0.122   1.979
  500SOL    HW1 1513   2.574   0.100   1.986
  500SOL    HW2 1514   2.445   0.105   1.886
  501SOL     OW 1515   2.401   0.064   2.374
  501SOL    HW1 1516   2.320   0.065   2.432
  501SOL    HW2 1517   2.404   0.147   2.319
  502SOL     OW 1518   2.159   0.035   2.033
  502SOL    HW1 1519   2.208   0.119   2.012
  502SOL    HW2 1520   2.221  -0.030   2.078
  503SOL     OW 1521   2.797   0.236   2.342
  503SOL    HW1 1522   2.749   0.277   2.264
  503SOL    HW2 1523   2.896   0.234   2.323
  504SOL     OW 1524   2.321   1.152   2.603
  504SOL    HW1 1525   2.250   1.125   2.668
  504SOL    HW2 1526   2.295   1.124   2.510
  505SOL     OW 1527   2.350   1.385   2.036
  505SOL    HW1 1528   2.263   1.370   2.083
  505SOL    HW2 1529   2.333   1.411   1.941
  506SOL     OW 1530   2.389   0.256   2.190
  506SOL    HW1 1531   2.416   0.197   2.115
  506SOL    HW2 1532   2.389   0.351   2.159
  507SOL     OW 1533   2.229   1.100   2.363
  507SOL    HW1 1534   2.222   1.183   2.307
  507SOL    HW2 1535   2.233   1.020   2.303
  508SOL     OW 1536   2.169   0.063   2.480
  508SOL    HW1 1537   2.158   0.157   2.513
  508SOL    HW2 1538   2.164   0.000   2.557
  509SOL     OW 1539   1.870   1.326   2.062
  509SOL    HW1 1540   1.777   1.347   2.031
  509SOL    HW2 1541   1.880   1.227   2.075
  510SOL     OW 1542   2.677   0.572   2.187
  510SOL    HW1 1543   2.684   0.483   2.141
  510SOL    HW2 1544   2.583   0.606   2.179
  511SOL     OW 1545   2.335   0.500   2.053
  511SOL    HW1 1546   2.396   0.580   2.057
  511SOL    HW2 1547   2.240   0.531   2.060
  512SOL     OW 1548   2.452   1.487   2.353
  512SOL    HW1 1549   2.494   1.429   2.283
  512SOL    HW2 1550   2.408   1.566   2.309
  513SOL     OW 1551   2.117   1.348   2.152
  513SOL    HW1 1552   2.021   1.349   2.125
  513SOL    HW2 1553   2.129   1.401   2.236
  514SOL     OW 1554   1.937   0.345   1.895
  514SOL    HW1 1555   1.845   0.317   1.866
  514SOL    HW2 1556   1.968   0.422   1.839
  515SOL     OW 1557   1.934   0.166   2.180
  515SOL    HW1 1558   1.917   0.249   2.126
  515SOL    HW2 1559   2.024   0.129   2.158
  516SOL     OW 1560   2.456   0.745   2.514
  516SOL    HW1 1561   2.506   0.830   2.495
  516SOL    HW2 1562   2.368   0.747   2.466
  517SOL     OW 1563   1.941   1.240   2.515
  517SOL    HW1 1564   1.940   1.193   2.603
  517SOL    HW2 1565   2.023   1.212   2.464
  518SOL     OW 1566   2.290   0.424   2.382
  518SOL    HW1 1567   2.320   0.352   2.320
  518SOL    HW2 1568   2.251   0.384   2.465
  519SOL     OW 1569   1.901   1.077   2.162
  519SOL    HW1 1570   2.000   1.066   2.153
  519SOL    HW2 1571   1.861   0.991   2.194
  520SOL     OW 1572   2.087   2.137   0.996
  520SOL    HW1 1573   2.122   2.120   1.088
  520SOL    HW2 1574   1.999   2.092   0.984
  521SOL     OW 1575   1.881   2.230   0.647
  521SOL    HW1 1576   1.799   2.273   0.686
  521SOL    HW2 1577   1.853   2.157   0.584
  522SOL     OW 1578   2.712   2.660   1.823
  522SOL    HW1 1579   2.708   2.736   1.888
  522SOL    HW2 1580   2.734   2.696   1.732
  523SOL     OW 1581   2.300   2.254   1.499
  523SOL    HW1 1582   2.382   2.198   1.508
  523SOL    HW2 1583   2.219   2.196   1.503
  524SOL     OW 1584   1.984   2.505   0.563
  524SOL    HW1 1585   1.939   2.417   0.580
  524SOL    HW2 1586   1.983   2.559   0.647
  525SOL     OW 1587   1.975   2.599   1.597
  525SOL    HW1 1588   2.063   2.586   1.642
  525SOL    HW2 1589   1.962   2.696   1.575
  526SOL     OW 1590   2.671   1.866   0.502
  526SOL    HW1 1591   2.711   1.957   0.493
  526SOL    HW2 1592   2.571   1.874   0.508
  527SOL     OW 1593   2.179   2.113   1.801
  527SOL    HW1 1594   2.250   2.184   1.807
  527SOL    HW2 1595   2.091   2.152   1.829
  528SOL     OW 1596   2.460   2.591   0.270
  528SOL    HW1 1597   2.484   2.660   0.202
  528SOL    HW2 1598   2.382   2.624   0.324
  529SOL     OW 1599   2.412   2.058   0.885
  529SOL    HW1 1600   2.407   2.053   0.985
  529SOL    HW2 1601   2.414   2.154   0.856
  530SOL     OW 1602   2.064   2.147   1.498
  530SOL    HW1 1603   1.984   2.207   1.485
  530SOL    HW2 1604   2.054   2.098   1.584
  531SOL     OW 1605   2.476   1.984   0.117
  531SOL    HW1 1606   2.574   1.962   0.124
  531SOL    HW2 1607   2.445   1.967   0.024
  532SOL     OW 1608   2.401   1.926   0.512
  532SOL    HW1 1609   2.320   1.927   0.570
  532SOL    HW2 1610   2.404   2.009   0.457
  533SOL     OW 1611   2.797   2.098   0.480
  533SOL    HW1 1612   2.749   2.139   0.402
  533SOL    HW2 1613   2.896   2.096   0.461
  534SOL     OW 1614   1.940   2.418   1.386
  534SOL    HW1 1615   2.032   2.417   1.345
  534SOL    HW2 1616   1.934   2.492   1.453
  535SOL     OW 1617   2.423   2.084   1.147
  535SOL    HW1 1618   2.461   2.000   1.184
  535SOL    HW2 1619   2.335   2.103   1.191
  536SOL     OW 1620   2.389   2.118   0.328
  536SOL    HW1 1621   2.416   2.059   0.253
  536SOL    HW2 1622   2.389   2.213   0.297
  537SOL     OW 1623   2.428   2.399   0.865
  537SOL    HW1 1624   2.440   2.465   0.791
  537SOL    HW2 1625   2.474   2.433   0.948
  538SOL     OW 1626   2.366   1.912   1.740
  538SOL    HW1 1627   2.324   1.855   1.670
  538SOL    HW2 1628   2.300   1.981   1.772
  539SOL     OW 1629   2.169   2.075   1.231
  539SOL    HW1 1630   2.146   2.112   1.321
  539SOL    HW2 1631   2.139   1.980   1.225
  540SOL     OW 1632   2.169   1.925   0.618
  540SOL    HW1 1633   2.158   2.019   0.651
  540SOL    HW2 1634   2.164   1.862   0.695
  541SOL     OW 1635   2.181   2.672   0.949
  541SOL    HW1 1636   2.274   2.708   0.954
  541SOL    HW2 1637   2.175   2.587   1.001
  542SOL     OW 1638   2.201   2.371   1.006
  542SOL    HW1 1639   2.149   2.288   0.989
  542SOL    HW2 1640   2.278   2.376   0.942
  543SOL     OW 1641   1.902   2.406   1.114
  543SOL    HW1 1642   1.987   2.373   1.073
  543SOL    HW2 1643   1.915   2.421   1.212
  544SOL     OW 1644   2.051   2.382   1.722
  544SOL    HW1 1645   2.110   2.342   1.652
  544SOL    HW2 1646   1.993   2.453   1.681
  545SOL     OW 1647   2.677   2.434   0.325
  545SOL    HW1 1648   2.684   2.345   0.279
  545SOL    HW2 1649   2.583   2.468   0.317
  546SOL     OW 1650   2.335   2.362   0.191
  546SOL    HW1 1651   2.396   2.442   0.195
  546SOL    HW2 1652   2.240   2.393   0.198
  547SOL     OW 1653   2.765   1.948   0.133
  547SOL    HW1 1654   2.816   1.949   0.047
  547SOL    HW2 1655   2.821   1.906   0.204
  548SOL     OW 1656   2.125   2.188   0.720
  548SOL    HW1 1657   2.046   2.239   0.686
  548SOL    HW2 1658   2.116   2.173   0.818
  549SOL     OW 1659   2.534   2.065   1.489
  549SOL    HW1 1660   2.624   2.049   1.449
  549SOL    HW2 1661   2.542   2.070   1.588
  550SOL     OW 1662   1.937   2.207   0.033
  550SOL    HW1 1663   1.845   2.179   0.004
  550SOL    HW2 1664   1.968   2.284  -0.023
  551SOL     OW 1665   2.290   2.286   0.520
  551SOL    HW1 1666   2.320   2.214   0.458
  551SOL    HW2 1667   2.251   2.246   0.603
  552SOL     OW 1668   2.179   2.409   1.280
  552SOL    HW1 1669   2.217   2.350   1.352
  552SOL    HW2 1670   2.219   2.383   1.192
  553SOL     OW 1671   2.087   2.137   2.858
  553SOL    HW1 1672   2.122   2.120   2.950
  553SOL    HW2 1673   1.999   2.092   2.846
  554SOL     OW 1674   1.984   2.505   2.425
  554SOL    HW1 1675   1.939   2.417   2.442
  554SOL    HW2 1676   1.983   2.559   2.509
  555SOL     OW 1677   2.671   1.866   2.364
  555SOL    HW1 1678   2.711   1.957   2.355
  555SOL    HW2 1679   2.571   1.874   2.370
  556SOL     OW 1680   2.476   1.984   1.979
  556SOL    HW1 1681   2.574   1.962   1.986
  556SOL    HW2 1682   2.445   1.967   1.886
  557SOL     OW 1683   2.401   1.926   2.374
  557SOL    HW1 1684   2.320   1.927   2.432
  557SOL    HW2 1685   2.404   2.009   2.319
  558SOL     OW 1686   2.159   1.897   2.033
  558SOL    HW1 1687   2.208   1.981   2.012
  558SOL    HW2 1688   2.221   1.832   2.078
  559SOL     OW 1689   2.797   2.098   2.342
  559SOL    HW1 1690   2.749   2.139   2.264
  559SOL    HW2 1691   2.896   2.096   2.323
  560SOL     OW 1692   2.389   2.118   2.190
  560SOL    HW1 1693   2.416   2.059   2.115
  560SOL    HW2 1694   2.389   2.213   2.159
  561SOL     OW 1695   2.169   1.925   2.480
  561SOL    HW1 1696   2.158   2.019   2.513
  561SOL    HW2 1697   2.164   1.862   2.557
  562SOL     OW 1698   2.677   2.434   2.187
  562SOL    HW1 1699   2.684   2.345   2.141
  562SOL    HW2 1700   2.583   2.468   2.179
  563SOL     OW 1701   2.335   2.362   2.053
  563SOL    HW1 1702   2.396   2.442   2.057
  563SOL    HW2 1703   2.240   2.393   2.060
  564SOL     OW 1704   1.937   2.207   1.895
  564SOL    HW1 1705   1.845   2.179   1.866
  564SOL    HW2 1706   1.968   2.284   1.839
  565SOL     OW 1707   1.934   2.028   2.180
  565SOL    HW1 1708   1.917   2.111   2.126
  565SOL    HW2 1709   2.024   1.991   2.158
  566SOL     OW 1710   2.290   2.286   2.382
  566SOL    HW1 1711   2.320   2.214   2.320
  566SOL    HW2 1712   2.251   2.246   2.465
   2.59230   2.59230   2.59230
