; mobley_9705941_GMX.itp created by acpype (v: 2023.10.27) on Thu May 14 14:01:11 2026

[ atomtypes ]
;name   bond_type     mass     charge   ptype   sigma         epsilon       Amb
 cc       cc          0.00000  0.00000   A     3.31521e-01   4.13379e-01 ; 1.86  0.0988
 cd       cd          0.00000  0.00000   A     3.31521e-01   4.13379e-01 ; 1.86  0.0988
 c3       c3          0.00000  0.00000   A     3.39771e-01   4.51035e-01 ; 1.91  0.1078
 ss       ss          0.00000  0.00000   A     3.53241e-01   1.18156e+00 ; 1.98  0.2824
 ha       ha          0.00000  0.00000   A     2.62548e-01   6.73624e-02 ; 1.47  0.0161
 h4       h4          0.00000  0.00000   A     2.53639e-01   6.73624e-02 ; 1.42  0.0161
 hc       hc          0.00000  0.00000   A     2.60018e-01   8.70272e-02 ; 1.46  0.0208

[ moleculetype ]
;name            nrexcl
 mobley_9705941   3

[ atoms ]
;   nr  type  resi  res  atom  cgnr     charge      mass       ; qtot   bond_type
     1   cc     1   MOL    C1    1    -0.152000     12.01000 ; qtot -0.152
     2   cc     1   MOL    C2    2    -0.164000     12.01000 ; qtot -0.316
     3   cd     1   MOL    C3    3    -0.169099     12.01000 ; qtot -0.485
     4   cd     1   MOL    C4    4    -0.102400     12.01000 ; qtot -0.587
     5   c3     1   MOL    C5    5    -0.022800     12.01000 ; qtot -0.610
     6   ss     1   MOL    S1    6     0.000200     32.06000 ; qtot -0.610
     7   ha     1   MOL    H1    7     0.151000      1.00800 ; qtot -0.459
     8   ha     1   MOL    H2    8     0.152000      1.00800 ; qtot -0.307
     9   h4     1   MOL    H3    9     0.169000      1.00800 ; qtot -0.138
    10   hc     1   MOL    H4   10     0.046033      1.00800 ; qtot -0.092
    11   hc     1   MOL    H5   11     0.046033      1.00800 ; qtot -0.046
    12   hc     1   MOL    H6   12     0.046033      1.00800 ; qtot -0.000

[ bonds ]
;   ai     aj funct   r             k
     1      2   1    1.4274e-01    2.6947e+05 ;     C1 - C2    
     1      3   1    1.3730e-01    3.2321e+05 ;     C1 - C3    
     1      7   1    1.0838e-01    3.0470e+05 ;     C1 - H1    
     2      4   1    1.3730e-01    3.2321e+05 ;     C2 - C4    
     2      8   1    1.0838e-01    3.0470e+05 ;     C2 - H2    
     3      6   1    1.7622e-01    1.8956e+05 ;     C3 - S1    
     3      9   1    1.0818e-01    3.0735e+05 ;     C3 - H3    
     4      5   1    1.5018e-01    2.1244e+05 ;     C4 - C5    
     4      6   1    1.7622e-01    1.8956e+05 ;     C4 - S1    
     5     10   1    1.0962e-01    2.8891e+05 ;     C5 - H4    
     5     11   1    1.0962e-01    2.8891e+05 ;     C5 - H5    
     5     12   1    1.0962e-01    2.8891e+05 ;     C5 - H6    

[ pairs ]
;   ai     aj    funct
     1      5      1 ;     C1 - C5    
     2      9      1 ;     C2 - H3    
     2     10      1 ;     C2 - H4    
     2     11      1 ;     C2 - H5    
     2     12      1 ;     C2 - H6    
     3      5      1 ;     C3 - C5    
     3      8      1 ;     C3 - H2    
     4      9      1 ;     C4 - H3    
     5      8      1 ;     C5 - H2    
     6      8      1 ;     S1 - H2    
     6     10      1 ;     S1 - H4    
     6     11      1 ;     S1 - H5    
     6     12      1 ;     S1 - H6    
     7      4      1 ;     H1 - C4    
     7      6      1 ;     H1 - S1    
     7      8      1 ;     H1 - H2    
     7      9      1 ;     H1 - H3    

[ angles ]
;   ai     aj     ak    funct   theta         cth
     1      2      4      1    1.1919e+02    5.3363e+02 ;     C1 - C2     - C4    
     1      2      8      1    1.1971e+02    3.6987e+02 ;     C1 - C2     - H2    
     1      3      6      1    1.1335e+02    5.5095e+02 ;     C1 - C3     - S1    
     1      3      9      1    1.2764e+02    3.6987e+02 ;     C1 - C3     - H3    
     2      1      3      1    1.1919e+02    5.3363e+02 ;     C2 - C1     - C3    
     2      1      7      1    1.1971e+02    3.6987e+02 ;     C2 - C1     - H1    
     2      4      5      1    1.2668e+02    5.0258e+02 ;     C2 - C4     - C5    
     2      4      6      1    1.1335e+02    5.5095e+02 ;     C2 - C4     - S1    
     3      1      7      1    1.2140e+02    3.7907e+02 ;     C3 - C1     - H1    
     3      6      4      1    8.9930e+01    8.5262e+02 ;     C3 - S1     - C4    
     4      2      8      1    1.2140e+02    3.7907e+02 ;     C4 - C2     - H2    
     4      5     10      1    1.1062e+02    3.6777e+02 ;     C4 - C5     - H4    
     4      5     11      1    1.1062e+02    3.6777e+02 ;     C4 - C5     - H5    
     4      5     12      1    1.1062e+02    3.6777e+02 ;     C4 - C5     - H6    
     5      4      6      1    1.2014e+02    5.2342e+02 ;     C5 - C4     - S1    
     6      3      9      1    1.2020e+02    3.5054e+02 ;     S1 - C3     - H3    
    10      5     11      1    1.0773e+02    2.9957e+02 ;     H4 - C5     - H5    
    10      5     12      1    1.0773e+02    2.9957e+02 ;     H4 - C5     - H6    
    11      5     12      1    1.0773e+02    2.9957e+02 ;     H5 - C5     - H6    

[ dihedrals ] ; propers
; for gromacs 4.5 or higher, using funct 9
;    i      j      k      l   func   phase     kd      pn
     1      2      4      5      9   180.00  16.73600   2 ;     C1-    C2-    C4-    C5
     1      2      4      6      9   180.00  16.73600   2 ;     C1-    C2-    C4-    S1
     1      3      6      4      9   180.00  10.16712   1 ;     C1-    C3-    S1-    C4
     2      1      3      6      9   180.00  16.73600   2 ;     C2-    C1-    C3-    S1
     2      1      3      9      9   180.00  16.73600   2 ;     C2-    C1-    C3-    H3
     2      4      5     10      9     0.00   0.00000   0 ;     C2-    C4-    C5-    H4
     2      4      5     11      9     0.00   0.00000   0 ;     C2-    C4-    C5-    H5
     2      4      5     12      9     0.00   0.00000   0 ;     C2-    C4-    C5-    H6
     2      4      6      3      9   180.00  10.16712   1 ;     C2-    C4-    S1-    C3
     3      1      2      4      9   180.00  16.73600   2 ;     C3-    C1-    C2-    C4
     3      1      2      8      9   180.00  16.73600   2 ;     C3-    C1-    C2-    H2
     3      6      4      5      9   180.00   4.60240   2 ;     C3-    S1-    C4-    C5
     4      6      3      9      9   180.00   4.60240   2 ;     C4-    S1-    C3-    H3
     5      4      2      8      9   180.00  16.73600   2 ;     C5-    C4-    C2-    H2
     6      4      2      8      9   180.00  16.73600   2 ;     S1-    C4-    C2-    H2
     6      4      5     10      9     0.00   0.00000   0 ;     S1-    C4-    C5-    H4
     6      4      5     11      9     0.00   0.00000   0 ;     S1-    C4-    C5-    H5
     6      4      5     12      9     0.00   0.00000   0 ;     S1-    C4-    C5-    H6
     7      1      2      4      9   180.00  16.73600   2 ;     H1-    C1-    C2-    C4
     7      1      2      8      9   180.00  16.73600   2 ;     H1-    C1-    C2-    H2
     7      1      3      6      9   180.00  16.73600   2 ;     H1-    C1-    C3-    S1
     7      1      3      9      9   180.00  16.73600   2 ;     H1-    C1-    C3-    H3

[ dihedrals ] ; impropers
; treated as propers in GROMACS to use correct AMBER analytical function
;    i      j      k      l   func   phase     kd      pn
     1      4      2      8      4   180.00   4.60240   2 ;     C1-    C4-    C2-    H2
     1      9      3      6      4   180.00   4.60240   2 ;     C1-    H3-    C3-    S1
     5      2      4      6      4   180.00   4.60240   2 ;     C5-    C2-    C4-    S1
     7      1      3      2      4   180.00   4.60240   2 ;     H1-    C1-    C3-    C2
