; mobley_2484519_GMX.itp created by acpype (v: 2023.10.27) on Thu May 14 13:26:46 2026

[ atomtypes ]
;name   bond_type     mass     charge   ptype   sigma         epsilon       Amb
 ca       ca          0.00000  0.00000   A     3.31521e-01   4.13379e-01 ; 1.86  0.0988
 c3       c3          0.00000  0.00000   A     3.39771e-01   4.51035e-01 ; 1.91  0.1078
 cl       cl          0.00000  0.00000   A     3.46595e-01   1.10374e+00 ; 1.95  0.2638
 ha       ha          0.00000  0.00000   A     2.62548e-01   6.73624e-02 ; 1.47  0.0161
 h1       h1          0.00000  0.00000   A     2.42200e-01   8.70272e-02 ; 1.36  0.0208

[ moleculetype ]
;name            nrexcl
 mobley_2484519   3

[ atoms ]
;   nr  type  resi  res  atom  cgnr     charge      mass       ; qtot   bond_type
     1   ca     1   MOL    C1    1    -0.119000     12.01000 ; qtot -0.119
     2   ca     1   MOL    C2    2    -0.131000     12.01000 ; qtot -0.250
     3   ca     1   MOL    C3    3    -0.131000     12.01000 ; qtot -0.381
     4   ca     1   MOL    C4    4    -0.109000     12.01000 ; qtot -0.490
     5   ca     1   MOL    C5    5    -0.109000     12.01000 ; qtot -0.599
     6   ca     1   MOL    C6    6    -0.104300     12.01000 ; qtot -0.703
     7   c3     1   MOL    C7    7     0.085300     12.01000 ; qtot -0.618
     8   cl     1   MOL   CL1    8    -0.192400     35.45000 ; qtot -0.810
     9   ha     1   MOL    H1    9     0.133000      1.00800 ; qtot -0.677
    10   ha     1   MOL    H2   10     0.134000      1.00800 ; qtot -0.543
    11   ha     1   MOL    H3   11     0.134000      1.00800 ; qtot -0.409
    12   ha     1   MOL    H4   12     0.135000      1.00800 ; qtot -0.274
    13   ha     1   MOL    H5   13     0.135000      1.00800 ; qtot -0.139
    14   h1     1   MOL    H6   14     0.069700      1.00800 ; qtot -0.070
    15   h1     1   MOL    H7   15     0.069700      1.00800 ; qtot 0.000

[ bonds ]
;   ai     aj funct   r             k
     1      2   1    1.3986e-01    2.9644e+05 ;     C1 - C2    
     1      3   1    1.3986e-01    2.9644e+05 ;     C1 - C3    
     1      9   1    1.0860e-01    3.0183e+05 ;     C1 - H1    
     2      4   1    1.3986e-01    2.9644e+05 ;     C2 - C4    
     2     10   1    1.0860e-01    3.0183e+05 ;     C2 - H2    
     3      5   1    1.3986e-01    2.9644e+05 ;     C3 - C5    
     3     11   1    1.0860e-01    3.0183e+05 ;     C3 - H3    
     4      6   1    1.3986e-01    2.9644e+05 ;     C4 - C6    
     4     12   1    1.0860e-01    3.0183e+05 ;     C4 - H4    
     5      6   1    1.3986e-01    2.9644e+05 ;     C5 - C6    
     5     13   1    1.0860e-01    3.0183e+05 ;     C5 - H5    
     6      7   1    1.5147e-01    2.0410e+05 ;     C6 - C7    
     7      8   1    1.8092e-01    1.3724e+05 ;     C7 - CL1   
     7     14   1    1.0969e-01    2.8804e+05 ;     C7 - H6    
     7     15   1    1.0969e-01    2.8804e+05 ;     C7 - H7    

[ pairs ]
;   ai     aj    funct
     1      6      1 ;     C1 - C6    
     1     12      1 ;     C1 - H4    
     1     13      1 ;     C1 - H5    
     2      5      1 ;     C2 - C5    
     2      7      1 ;     C2 - C7    
     2     11      1 ;     C2 - H3    
     3      4      1 ;     C3 - C4    
     3      7      1 ;     C3 - C7    
     3     10      1 ;     C3 - H2    
     4      8      1 ;     C4 - CL1   
     4     13      1 ;     C4 - H5    
     4     14      1 ;     C4 - H6    
     4     15      1 ;     C4 - H7    
     5      8      1 ;     C5 - CL1   
     5     12      1 ;     C5 - H4    
     5     14      1 ;     C5 - H6    
     5     15      1 ;     C5 - H7    
     6     10      1 ;     C6 - H2    
     6     11      1 ;     C6 - H3    
     7     12      1 ;     C7 - H4    
     7     13      1 ;     C7 - H5    
     9      4      1 ;     H1 - C4    
     9      5      1 ;     H1 - C5    
     9     10      1 ;     H1 - H2    
     9     11      1 ;     H1 - H3    
    10     12      1 ;     H2 - H4    
    11     13      1 ;     H3 - H5    

[ angles ]
;   ai     aj     ak    funct   theta         cth
     1      2      4      1    1.2002e+02    5.3279e+02 ;     C1 - C2     - C4    
     1      2     10      1    1.1988e+02    3.7572e+02 ;     C1 - C2     - H2    
     1      3      5      1    1.2002e+02    5.3279e+02 ;     C1 - C3     - C5    
     1      3     11      1    1.1988e+02    3.7572e+02 ;     C1 - C3     - H3    
     2      1      3      1    1.2002e+02    5.3279e+02 ;     C2 - C1     - C3    
     2      1      9      1    1.1988e+02    3.7572e+02 ;     C2 - C1     - H1    
     2      4      6      1    1.2002e+02    5.3279e+02 ;     C2 - C4     - C6    
     2      4     12      1    1.1988e+02    3.7572e+02 ;     C2 - C4     - H4    
     3      1      9      1    1.1988e+02    3.7572e+02 ;     C3 - C1     - H1    
     3      5      6      1    1.2002e+02    5.3279e+02 ;     C3 - C5     - C6    
     3      5     13      1    1.1988e+02    3.7572e+02 ;     C3 - C5     - H5    
     4      2     10      1    1.1988e+02    3.7572e+02 ;     C4 - C2     - H2    
     4      6      5      1    1.2002e+02    5.3279e+02 ;     C4 - C6     - C5    
     4      6      7      1    1.2083e+02    5.0827e+02 ;     C4 - C6     - C7    
     5      3     11      1    1.1988e+02    3.7572e+02 ;     C5 - C3     - H3    
     5      6      7      1    1.2083e+02    5.0827e+02 ;     C5 - C6     - C7    
     6      4     12      1    1.1988e+02    3.7572e+02 ;     C6 - C4     - H4    
     6      5     13      1    1.1988e+02    3.7572e+02 ;     C6 - C5     - H5    
     6      7      8      1    1.1090e+02    5.3338e+02 ;     C6 - C7     - CL1   
     6      7     14      1    1.0960e+02    3.6660e+02 ;     C6 - C7     - H6    
     6      7     15      1    1.0960e+02    3.6660e+02 ;     C6 - C7     - H7    
     8      7     14      1    1.0682e+02    3.6183e+02 ;    CL1 - C7     - H6    
     8      7     15      1    1.0682e+02    3.6183e+02 ;    CL1 - C7     - H7    
    14      7     15      1    1.0855e+02    2.9824e+02 ;     H6 - C7     - H7    

[ dihedrals ] ; propers
; for gromacs 4.5 or higher, using funct 9
;    i      j      k      l   func   phase     kd      pn
     1      2      4      6      9   180.00  15.16700   2 ;     C1-    C2-    C4-    C6
     1      2      4     12      9   180.00  15.16700   2 ;     C1-    C2-    C4-    H4
     1      3      5      6      9   180.00  15.16700   2 ;     C1-    C3-    C5-    C6
     1      3      5     13      9   180.00  15.16700   2 ;     C1-    C3-    C5-    H5
     2      1      3      5      9   180.00  15.16700   2 ;     C2-    C1-    C3-    C5
     2      1      3     11      9   180.00  15.16700   2 ;     C2-    C1-    C3-    H3
     2      4      6      5      9   180.00  15.16700   2 ;     C2-    C4-    C6-    C5
     2      4      6      7      9   180.00  15.16700   2 ;     C2-    C4-    C6-    C7
     3      1      2      4      9   180.00  15.16700   2 ;     C3-    C1-    C2-    C4
     3      1      2     10      9   180.00  15.16700   2 ;     C3-    C1-    C2-    H2
     3      5      6      4      9   180.00  15.16700   2 ;     C3-    C5-    C6-    C4
     3      5      6      7      9   180.00  15.16700   2 ;     C3-    C5-    C6-    C7
     4      6      5     13      9   180.00  15.16700   2 ;     C4-    C6-    C5-    H5
     4      6      7      8      9     0.00   0.00000   0 ;     C4-    C6-    C7-   CL1
     4      6      7     14      9     0.00   0.00000   0 ;     C4-    C6-    C7-    H6
     4      6      7     15      9     0.00   0.00000   0 ;     C4-    C6-    C7-    H7
     5      6      4     12      9   180.00  15.16700   2 ;     C5-    C6-    C4-    H4
     5      6      7      8      9     0.00   0.00000   0 ;     C5-    C6-    C7-   CL1
     5      6      7     14      9     0.00   0.00000   0 ;     C5-    C6-    C7-    H6
     5      6      7     15      9     0.00   0.00000   0 ;     C5-    C6-    C7-    H7
     6      4      2     10      9   180.00  15.16700   2 ;     C6-    C4-    C2-    H2
     6      5      3     11      9   180.00  15.16700   2 ;     C6-    C5-    C3-    H3
     7      6      4     12      9   180.00  15.16700   2 ;     C7-    C6-    C4-    H4
     7      6      5     13      9   180.00  15.16700   2 ;     C7-    C6-    C5-    H5
     9      1      2      4      9   180.00  15.16700   2 ;     H1-    C1-    C2-    C4
     9      1      2     10      9   180.00  15.16700   2 ;     H1-    C1-    C2-    H2
     9      1      3      5      9   180.00  15.16700   2 ;     H1-    C1-    C3-    C5
     9      1      3     11      9   180.00  15.16700   2 ;     H1-    C1-    C3-    H3
    10      2      4     12      9   180.00  15.16700   2 ;     H2-    C2-    C4-    H4
    11      3      5     13      9   180.00  15.16700   2 ;     H3-    C3-    C5-    H5

[ dihedrals ] ; impropers
; treated as propers in GROMACS to use correct AMBER analytical function
;    i      j      k      l   func   phase     kd      pn
     1      4      2     10      4   180.00   4.60240   2 ;     C1-    C4-    C2-    H2
     1      5      3     11      4   180.00   4.60240   2 ;     C1-    C5-    C3-    H3
     2      6      4     12      4   180.00   4.60240   2 ;     C2-    C6-    C4-    H4
     3      6      5     13      4   180.00   4.60240   2 ;     C3-    C6-    C5-    H5
     4      5      6      7      4   180.00   4.60240   2 ;     C4-    C5-    C6-    C7
     9      1      3      2      4   180.00   4.60240   2 ;     H1-    C1-    C3-    C2
