mobley_2972906_GMX.gro created by acpype (v: 2023.10.27) on Thu May 14 13:18:03 2026
 1434
    1MOL     C1    1   1.134   1.191   1.222
    1MOL     C2    2   1.222   1.255   1.131
    1MOL     C3    3   1.343   1.286   1.189
    1MOL     S1    4   1.350   1.238   1.353
    1MOL     C4    5   1.191   1.175   1.347
    1MOL     H1    6   1.034   1.158   1.198
    1MOL     H2    7   1.199   1.278   1.028
    1MOL     H3    8   1.428   1.335   1.143
    1MOL     H4    9   1.146   1.130   1.435
    2SOL     OW   10   0.230   0.628   0.113
    2SOL    HW1   11   0.137   0.626   0.150
    2SOL    HW2   12   0.231   0.589   0.021
    3SOL     OW   13   0.225   0.275   0.996
    3SOL    HW1   14   0.260   0.258   1.088
    3SOL    HW2   15   0.137   0.230   0.984
    4SOL     OW   16   0.019   0.368   0.647
    4SOL    HW1   17  -0.063   0.411   0.686
    4SOL    HW2   18  -0.009   0.295   0.584
    5SOL     OW   19   0.569   1.275   1.165
    5SOL    HW1   20   0.476   1.268   1.128
    5SOL    HW2   21   0.580   1.364   1.209
    6SOL     OW   22   1.555   1.511   0.703
    6SOL    HW1   23   1.498   1.495   0.784
    6SOL    HW2   24   1.496   1.521   0.623
    7SOL     OW   25   1.135   0.703   0.717
    7SOL    HW1   26   1.192   0.781   0.692
    7SOL    HW2   27   1.075   0.729   0.793
    8SOL     OW   28   1.755   0.607   0.231
    8SOL    HW1   29   1.743   0.594   0.132
    8SOL    HW2   30   1.725   0.526   0.280
    9SOL     OW   31   0.768   1.144   1.023
    9SOL    HW1   32   0.690   1.161   1.083
    9SOL    HW2   33   0.802   1.231   0.987
   10SOL     OW   34   0.850   0.798   1.823
   10SOL    HW1   35   0.846   0.874   1.888
   10SOL    HW2   36   0.872   0.834   1.732
   11SOL     OW   37   0.685   1.012   0.665
   11SOL    HW1   38   0.754   0.996   0.735
   11SOL    HW2   39   0.612   1.069   0.703
   12SOL     OW   40   0.686   1.161   1.803
   12SOL    HW1   41   0.746   1.240   1.817
   12SOL    HW2   42   0.600   1.192   1.762
   13SOL     OW   43   0.335   1.435   1.061
   13SOL    HW1   44   0.257   1.404   1.008
   13SOL    HW2   45   0.393   1.493   1.004
   14SOL     OW   46   1.460   1.505   1.339
   14SOL    HW1   47   1.484   1.599   1.365
   14SOL    HW2   48   1.444   1.451   1.421
   15SOL     OW   49   0.438   0.392   1.499
   15SOL    HW1   50   0.520   0.336   1.508
   15SOL    HW2   51   0.357   0.334   1.503
   16SOL     OW   52   1.603   0.447   0.737
   16SOL    HW1   53   1.529   0.493   0.687
   16SOL    HW2   54   1.654   0.515   0.790
   17SOL     OW   55   0.231   1.713   0.483
   17SOL    HW1   56   0.265   1.790   0.537
   17SOL    HW2   57   0.275   1.713   0.393
   18SOL     OW   58   1.127   1.341   1.690
   18SOL    HW1   59   1.174   1.341   1.778
   18SOL    HW2   60   1.079   1.254   1.679
   19SOL     OW   61   0.230   1.434   0.538
   19SOL    HW1   62   0.204   1.530   0.538
   19SOL    HW2   63   0.159   1.380   0.583
   20SOL     OW   64   0.240   1.091   0.886
   20SOL    HW1   65   0.254   1.007   0.938
   20SOL    HW2   66   0.185   1.155   0.941
   21SOL     OW   67   0.620   1.786   1.439
   21SOL    HW1   68   0.528   1.769   1.474
   21SOL    HW2   69   0.648   1.878   1.465
   22SOL     OW   70   0.606   0.964   0.123
   22SOL    HW1   71   0.613   1.048   0.069
   22SOL    HW2   72   0.652   0.977   0.211
   23SOL     OW   73   1.594   0.114   1.480
   23SOL    HW1   74   1.576   0.181   1.408
   23SOL    HW2   75   1.591   0.160   1.569
   24SOL     OW   76   0.122   0.643   0.563
   24SOL    HW1   77   0.077   0.555   0.580
   24SOL    HW2   78   0.121   0.697   0.647
   25SOL     OW   79   1.842   1.767   0.359
   25SOL    HW1   80   1.896   1.738   0.439
   25SOL    HW2   81   1.872   1.857   0.330
   26SOL     OW   82   0.027   1.596   0.117
   26SOL    HW1   83   0.008   1.500   0.138
   26SOL    HW2   84  -0.006   1.654   0.192
   27SOL     OW   85   1.689   0.922   0.612
   27SOL    HW1   86   1.784   0.893   0.620
   27SOL    HW2   87   1.681   0.987   0.537
   28SOL     OW   88   1.641   1.108   0.432
   28SOL    HW1   89   1.727   1.110   0.380
   28SOL    HW2   90   1.655   1.155   0.520
   29SOL     OW   91   0.113   0.737   1.597
   29SOL    HW1   92   0.201   0.724   1.642
   29SOL    HW2   93   0.100   0.834   1.575
   30SOL     OW   94   0.613   1.365   0.726
   30SOL    HW1   95   0.564   1.278   0.735
   30SOL    HW2   96   0.590   1.408   0.639
   31SOL     OW   97   0.809   0.004   0.502
   31SOL    HW1   98   0.849   0.095   0.493
   31SOL    HW2   99   0.709   0.012   0.508
   32SOL     OW  100   0.197   0.976   1.264
   32SOL    HW1  101   0.286   0.931   1.250
   32SOL    HW2  102   0.124   0.911   1.245
   33SOL     OW  103   1.525   0.999   0.190
   33SOL    HW1  104   1.462   0.923   0.203
   33SOL    HW2  105   1.573   1.017   0.276
   34SOL     OW  106   1.187   1.792   1.616
   34SOL    HW1  107   1.211   1.852   1.540
   34SOL    HW2  108   1.194   1.697   1.586
   35SOL     OW  109   0.317   0.251   1.801
   35SOL    HW1  110   0.388   0.322   1.807
   35SOL    HW2  111   0.229   0.290   1.829
   36SOL     OW  112   1.466   1.417   0.953
   36SOL    HW1  113   1.407   1.423   1.033
   36SOL    HW2  114   1.451   1.329   0.907
   37SOL     OW  115   1.667   1.714   0.572
   37SOL    HW1  116   1.626   1.691   0.484
   37SOL    HW2  117   1.649   1.640   0.637
   38SOL     OW  118   0.598   0.729   0.270
   38SOL    HW1  119   0.622   0.798   0.202
   38SOL    HW2  120   0.520   0.762   0.324
   39SOL     OW  121   1.281   0.345   0.944
   39SOL    HW1  122   1.195   0.295   0.931
   39SOL    HW2  123   1.343   0.291   1.000
   40SOL     OW  124   1.576   1.662   0.307
   40SOL    HW1  125   1.665   1.708   0.310
   40SOL    HW2  126   1.555   1.638   0.212
   41SOL     OW  127   0.807   0.605   1.465
   41SOL    HW1  128   0.760   0.602   1.554
   41SOL    HW2  129   0.756   0.550   1.399
   42SOL     OW  130   1.394   0.469   1.674
   42SOL    HW1  131   1.374   0.512   1.762
   42SOL    HW2  132   1.472   0.407   1.683
   43SOL     OW  133   0.973   0.890   1.572
   43SOL    HW1  134   1.019   0.806   1.543
   43SOL    HW2  135   0.917   0.924   1.497
   44SOL     OW  136   0.991   0.410   1.242
   44SOL    HW1  137   0.914   0.444   1.296
   44SOL    HW2  138   0.957   0.359   1.163
   45SOL     OW  139   1.041   0.701   0.429
   45SOL    HW1  140   1.067   0.697   0.525
   45SOL    HW2  141   0.956   0.650   0.415
   46SOL     OW  142   0.076   0.811   0.789
   46SOL    HW1  143   0.175   0.799   0.798
   46SOL    HW2  144   0.052   0.906   0.810
   47SOL     OW  145   0.130   1.821   1.571
   47SOL    HW1  146   0.120   1.806   1.670
   47SOL    HW2  147   0.044   1.857   1.535
   48SOL     OW  148   0.865   0.348   0.195
   48SOL    HW1  149   0.924   0.411   0.146
   48SOL    HW2  150   0.884   0.254   0.166
   49SOL     OW  151   1.719   0.585   1.831
   49SOL    HW1  152   1.693   0.674   1.795
   49SOL    HW2  153   1.717   0.517   1.758
   50SOL     OW  154   1.362   1.144   0.545
   50SOL    HW1  155   1.445   1.115   0.497
   50SOL    HW2  156   1.313   1.211   0.489
   51SOL     OW  157   0.550   0.196   0.885
   51SOL    HW1  158   0.545   0.191   0.985
   51SOL    HW2  159   0.552   0.292   0.856
   52SOL     OW  160   1.008   1.456   0.477
   52SOL    HW1  161   0.962   1.528   0.425
   52SOL    HW2  162   1.004   1.476   0.575
   53SOL     OW  163   0.351   1.801   0.853
   53SOL    HW1  164   0.401   1.715   0.859
   53SOL    HW2  165   0.416   1.878   0.850
   54SOL     OW  166   1.795   1.066   0.873
   54SOL    HW1  167   1.733   1.051   0.797
   54SOL    HW2  168   1.743   1.077   0.958
   55SOL     OW  169   1.227   1.550   1.506
   55SOL    HW1  170   1.233   1.473   1.570
   55SOL    HW2  171   1.175   1.524   1.426
   56SOL     OW  172   0.321   0.943   0.242
   56SOL    HW1  173   0.403   0.982   0.200
   56SOL    HW2  174   0.294   0.861   0.193
   57SOL     OW  175   1.458   0.735   0.728
   57SOL    HW1  176   1.453   0.670   0.803
   57SOL    HW2  177   1.538   0.794   0.741
   58SOL     OW  178   0.461   1.266   1.727
   58SOL    HW1  179   0.411   1.267   1.641
   58SOL    HW2  180   0.398   1.248   1.803
   59SOL     OW  181   1.111   1.776   0.237
   59SOL    HW1  182   1.051   1.714   0.287
   59SOL    HW2  183   1.142   1.732   0.152
   60SOL     OW  184   0.202   0.285   1.498
   60SOL    HW1  185   0.122   0.345   1.485
   60SOL    HW2  186   0.192   0.236   1.584
   61SOL     OW  187   1.632   1.377   0.081
   61SOL    HW1  188   1.600   1.471   0.071
   61SOL    HW2  189   1.556   1.314   0.069
   62SOL     OW  190   0.464   1.743   0.323
   62SOL    HW1  191   0.497   1.782   0.409
   62SOL    HW2  192   0.540   1.736   0.258
   63SOL     OW  193   1.400   0.107   0.426
   63SOL    HW1  194   1.376   0.070   0.336
   63SOL    HW2  195   1.499   0.123   0.430
   64SOL     OW  196   0.249   1.785   1.241
   64SOL    HW1  197   0.306   1.720   1.291
   64SOL    HW2  198   0.233   1.752   1.148
   65SOL     OW  199   0.940   1.698   0.904
   65SOL    HW1  200   1.020   1.641   0.925
   65SOL    HW2  201   0.891   1.658   0.827
   66SOL     OW  202   0.382   0.700   0.480
   66SOL    HW1  203   0.427   0.610   0.477
   66SOL    HW2  204   0.288   0.689   0.513
   67SOL     OW  205   1.547   0.222   1.729
   67SOL    HW1  206   1.542   0.259   1.821
   67SOL    HW2  207   1.475   0.153   1.717
   68SOL     OW  208   0.614   0.122   0.117
   68SOL    HW1  209   0.712   0.100   0.124
   68SOL    HW2  210   0.583   0.105   0.024
   69SOL     OW  211   0.781   0.264   1.749
   69SOL    HW1  212   0.848   0.203   1.792
   69SOL    HW2  213   0.708   0.283   1.814
   70SOL     OW  214   0.888   1.514   1.195
   70SOL    HW1  215   0.865   1.489   1.101
   70SOL    HW2  216   0.949   1.445   1.234
   71SOL     OW  217   1.351   0.590   1.433
   71SOL    HW1  218   1.379   0.547   1.518
   71SOL    HW2  219   1.376   0.686   1.434
   72SOL     OW  220   0.803   1.402   0.924
   72SOL    HW1  221   0.893   1.416   0.882
   72SOL    HW2  222   0.732   1.404   0.853
   73SOL     OW  223   0.922   0.503   0.899
   73SOL    HW1  224   0.897   0.494   0.803
   73SOL    HW2  225   0.970   0.421   0.930
   74SOL     OW  226   0.539   0.064   0.512
   74SOL    HW1  227   0.458   0.065   0.570
   74SOL    HW2  228   0.542   0.147   0.457
   75SOL     OW  229   1.434   1.188   0.041
   75SOL    HW1  230   1.466   1.112   0.098
   75SOL    HW2  231   1.342   1.215   0.071
   76SOL     OW  232   0.297   0.035   0.171
   76SOL    HW1  233   0.346   0.119   0.150
   76SOL    HW2  234   0.359  -0.030   0.216
   77SOL     OW  235   0.935   0.236   0.480
   77SOL    HW1  236   0.887   0.277   0.402
   77SOL    HW2  237   1.034   0.234   0.461
   78SOL     OW  238   1.076   0.683   1.464
   78SOL    HW1  239   0.996   0.622   1.467
   78SOL    HW2  240   1.157   0.630   1.440
   79SOL     OW  241   1.227   1.570   0.793
   79SOL    HW1  242   1.248   1.644   0.728
   79SOL    HW2  243   1.295   1.570   0.866
   80SOL     OW  244   0.459   1.152   0.741
   80SOL    HW1  245   0.388   1.125   0.806
   80SOL    HW2  246   0.433   1.124   0.648
   81SOL     OW  247   1.271   1.797   0.591
   81SOL    HW1  248   1.315   1.861   0.527
   81SOL    HW2  249   1.221   1.849   0.661
   82SOL     OW  250   1.032   0.549   0.016
   82SOL    HW1  251   0.991   0.631  -0.023
   82SOL    HW2  252   1.096   0.575   0.089
   83SOL     OW  253   0.078   0.556   1.386
   83SOL    HW1  254   0.170   0.555   1.345
   83SOL    HW2  255   0.072   0.630   1.453
   84SOL     OW  256   0.561   0.222   1.147
   84SOL    HW1  257   0.599   0.138   1.184
   84SOL    HW2  258   0.473   0.241   1.191
   85SOL     OW  259   0.866   0.454   0.642
   85SOL    HW1  260   0.834   0.526   0.580
   85SOL    HW2  261   0.890   0.373   0.589
   86SOL     OW  262   1.017   0.039   0.753
   86SOL    HW1  263   0.945   0.044   0.684
   86SOL    HW2  264   0.993  -0.030   0.822
   87SOL     OW  265   1.429   1.173   0.867
   87SOL    HW1  266   1.374   1.089   0.860
   87SOL    HW2  267   1.455   1.202   0.775
   88SOL     OW  268   1.466   0.590   0.992
   88SOL    HW1  269   1.436   0.495   0.999
   88SOL    HW2  270   1.539   0.606   1.058
   89SOL     OW  271   1.857   0.833   0.377
   89SOL    HW1  272   1.899   0.769   0.441
   89SOL    HW2  273   1.819   0.782   0.299
   90SOL     OW  274   0.488   1.385   0.174
   90SOL    HW1  275   0.401   1.370   0.221
   90SOL    HW2  276   0.471   1.411   0.079
   91SOL     OW  277   1.664   1.280   0.657
   91SOL    HW1  278   1.763   1.288   0.671
   91SOL    HW2  279   1.619   1.364   0.688
   92SOL     OW  280   1.390   0.575   0.078
   92SOL    HW1  281   1.336   0.554   0.159
   92SOL    HW2  282   1.481   0.534   0.087
   93SOL     OW  283   0.527   0.256   0.328
   93SOL    HW1  284   0.554   0.197   0.253
   93SOL    HW2  285   0.527   0.351   0.297
   94SOL     OW  286   1.754   1.223   1.588
   94SOL    HW1  287   1.845   1.184   1.575
   94SOL    HW2  288   1.762   1.319   1.612
   95SOL     OW  289   1.592   1.629   1.625
   95SOL    HW1  290   1.619   1.663   1.535
   95SOL    HW2  291   1.671   1.591   1.671
   96SOL     OW  292   1.638   1.099   1.079
   96SOL    HW1  293   1.643   1.180   1.138
   96SOL    HW2  294   1.552   1.101   1.028
   97SOL     OW  295   0.915   0.089   1.402
   97SOL    HW1  296   0.940   0.069   1.307
   97SOL    HW2  297   0.987   0.145   1.444
   98SOL     OW  298   0.980   1.116   1.719
   98SOL    HW1  299   0.881   1.122   1.729
   98SOL    HW2  300   1.003   1.036   1.663
   99SOL     OW  301   0.705   1.050   0.368
   99SOL    HW1  302   0.691   1.057   0.467
   99SOL    HW2  303   0.789   0.999   0.350
  100SOL     OW  304   0.410   0.813   1.251
  100SOL    HW1  305   0.496   0.825   1.301
  100SOL    HW2  306   0.368   0.726   1.278
  101SOL     OW  307   1.274   0.386   1.262
  101SOL    HW1  308   1.295   0.460   1.326
  101SOL    HW2  309   1.185   0.403   1.219
  102SOL     OW  310   0.064   1.564   1.331
  102SOL    HW1  311   0.018   1.646   1.297
  102SOL    HW2  312   0.162   1.583   1.340
  103SOL     OW  313   0.367   1.100   0.501
  103SOL    HW1  314   0.360   1.183   0.445
  103SOL    HW2  315   0.371   1.020   0.441
  104SOL     OW  316   0.566   0.537   0.865
  104SOL    HW1  317   0.578   0.603   0.791
  104SOL    HW2  318   0.612   0.571   0.948
  105SOL     OW  319   1.252   1.348   0.388
  105SOL    HW1  320   1.302   1.425   0.428
  105SOL    HW2  321   1.157   1.350   0.420
  106SOL     OW  322   1.582   0.639   0.472
  106SOL    HW1  323   1.551   0.700   0.545
  106SOL    HW2  324   1.632   0.691   0.403
  107SOL     OW  325   0.354   1.510   1.329
  107SOL    HW1  326   0.333   1.466   1.242
  107SOL    HW2  327   0.451   1.536   1.332
  108SOL     OW  328   0.402   0.751   1.598
  108SOL    HW1  329   0.470   0.806   1.551
  108SOL    HW2  330   0.442   0.663   1.625
  109SOL     OW  331   1.587   0.779   1.670
  109SOL    HW1  332   1.495   0.817   1.665
  109SOL    HW2  333   1.647   0.826   1.605
  110SOL     OW  334   1.013   0.105   1.770
  110SOL    HW1  335   1.019   0.190   1.718
  110SOL    HW2  336   1.045   0.029   1.713
  111SOL     OW  337   0.504   0.050   1.740
  111SOL    HW1  338   0.462  -0.007   1.670
  111SOL    HW2  339   0.438   0.119   1.772
  112SOL     OW  340   0.573   0.870   1.029
  112SOL    HW1  341   0.617   0.959   1.020
  112SOL    HW2  342   0.510   0.870   1.106
  113SOL     OW  343   1.360   0.862   1.045
  113SOL    HW1  344   1.285   0.862   0.979
  113SOL    HW2  345   1.397   0.770   1.054
  114SOL     OW  346   1.209   0.525   0.275
  114SOL    HW1  347   1.222   0.441   0.329
  114SOL    HW2  348   1.180   0.599   0.335
  115SOL     OW  349   0.307   0.213   1.231
  115SOL    HW1  350   0.284   0.250   1.321
  115SOL    HW2  351   0.277   0.118   1.225
  116SOL     OW  352   0.037   1.310   1.282
  116SOL    HW1  353   0.090   1.261   1.350
  116SOL    HW2  354   0.059   1.408   1.287
  117SOL     OW  355   0.732   0.634   1.064
  117SOL    HW1  356   0.791   0.608   0.988
  117SOL    HW2  357   0.704   0.730   1.053
  118SOL     OW  358   1.728   0.935   1.854
  118SOL    HW1  359   1.682   0.928   1.765
  118SOL    HW2  360   1.666   0.979   1.920
  119SOL     OW  361   0.307   0.063   0.618
  119SOL    HW1  362   0.296   0.157   0.651
  119SOL    HW2  363   0.302   0.000   0.695
  120SOL     OW  364   1.622   0.367   0.374
  120SOL    HW1  365   1.624   0.291   0.438
  120SOL    HW2  366   1.574   0.444   0.414
  121SOL     OW  367   1.023   0.766   0.966
  121SOL    HW1  368   1.038   0.787   1.062
  121SOL    HW2  369   0.993   0.671   0.957
  122SOL     OW  370   0.980   1.573   1.700
  122SOL    HW1  371   0.960   1.617   1.612
  122SOL    HW2  372   1.019   1.482   1.684
  123SOL     OW  373   1.859   1.518   1.605
  123SOL    HW1  374   1.873   1.545   1.510
  123SOL    HW2  375   1.942   1.540   1.658
  124SOL     OW  376   0.350   0.898   1.804
  124SOL    HW1  377   0.426   0.942   1.852
  124SOL    HW2  378   0.385   0.851   1.722
  125SOL     OW  379   1.540   0.274   0.125
  125SOL    HW1  380   1.479   0.199   0.148
  125SOL    HW2  381   1.562   0.326   0.208
  126SOL     OW  382   1.303   0.838   0.042
  126SOL    HW1  383   1.337   0.745   0.057
  126SOL    HW2  384   1.321   0.865  -0.053
  127SOL     OW  385   1.068   1.333   0.849
  127SOL    HW1  386   1.075   1.249   0.794
  127SOL    HW2  387   1.130   1.402   0.813
  128SOL     OW  388   0.319   0.810   0.949
  128SOL    HW1  389   0.412   0.846   0.954
  128SOL    HW2  390   0.313   0.725   1.001
  129SOL     OW  391   0.339   0.509   1.006
  129SOL    HW1  392   0.287   0.426   0.989
  129SOL    HW2  393   0.416   0.514   0.942
  130SOL     OW  394   1.138   0.380   1.678
  130SOL    HW1  395   1.093   0.443   1.742
  130SOL    HW2  396   1.231   0.411   1.661
  131SOL     OW  397   1.160   0.207   1.477
  131SOL    HW1  398   1.160   0.271   1.554
  131SOL    HW2  399   1.188   0.255   1.394
  132SOL     OW  400   0.008   1.326   0.200
  132SOL    HW1  401  -0.085   1.347   0.169
  132SOL    HW2  402   0.018   1.227   0.213
  133SOL     OW  403   0.088   1.801   0.927
  133SOL    HW1  404   0.046   1.715   0.900
  133SOL    HW2  405   0.182   1.804   0.893
  134SOL     OW  406   0.504   1.568   0.910
  134SOL    HW1  407   0.570   1.642   0.919
  134SOL    HW2  408   0.548   1.489   0.868
  135SOL     OW  409   1.002   0.796   1.238
  135SOL    HW1  410   1.043   0.764   1.324
  135SOL    HW2  411   0.906   0.769   1.235
  136SOL     OW  412   0.040   0.544   1.114
  136SOL    HW1  413   0.125   0.511   1.073
  136SOL    HW2  414   0.053   0.559   1.212
  137SOL     OW  415   0.189   0.520   1.722
  137SOL    HW1  416   0.248   0.480   1.652
  137SOL    HW2  417   0.131   0.591   1.681
  138SOL     OW  418   1.369   0.950   1.660
  138SOL    HW1  419   1.408   1.039   1.680
  138SOL    HW2  420   1.379   0.930   1.563
  139SOL     OW  421   0.815   0.572   0.325
  139SOL    HW1  422   0.822   0.483   0.279
  139SOL    HW2  423   0.721   0.606   0.317
  140SOL     OW  424   1.657   0.604   1.206
  140SOL    HW1  425   1.619   0.535   1.268
  140SOL    HW2  426   1.739   0.568   1.162
  141SOL     OW  427   0.252   1.564   1.744
  141SOL    HW1  428   0.222   1.621   1.820
  141SOL    HW2  429   0.245   1.467   1.770
  142SOL     OW  430   0.671   0.464   1.269
  142SOL    HW1  431   0.637   0.375   1.239
  142SOL    HW2  432   0.697   0.518   1.189
  143SOL     OW  433   0.930   1.678   1.465
  143SOL    HW1  434   0.906   1.660   1.370
  143SOL    HW2  435   0.960   1.772   1.475
  144SOL     OW  436   0.473   0.500   0.191
  144SOL    HW1  437   0.534   0.580   0.195
  144SOL    HW2  438   0.378   0.531   0.198
  145SOL     OW  439   0.159   1.137   1.466
  145SOL    HW1  440   0.181   1.076   1.542
  145SOL    HW2  441   0.169   1.088   1.380
  146SOL     OW  442   1.302   0.855   0.309
  146SOL    HW1  443   1.216   0.824   0.351
  146SOL    HW2  444   1.298   0.841   0.210
  147SOL     OW  445   1.759   1.747   1.154
  147SOL    HW1  446   1.820   1.777   1.081
  147SOL    HW2  447   1.721   1.658   1.132
  148SOL     OW  448   1.252   1.731   1.128
  148SOL    HW1  449   1.336   1.736   1.074
  148SOL    HW2  450   1.229   1.635   1.146
  149SOL     OW  451   0.083   1.258   1.022
  149SOL    HW1  452   0.078   1.257   1.122
  149SOL    HW2  453   0.000   1.217   0.984
  150SOL     OW  454   0.688   1.662   1.716
  150SOL    HW1  455   0.632   1.743   1.725
  150SOL    HW2  456   0.740   1.666   1.630
  151SOL     OW  457   0.903   0.086   0.133
  151SOL    HW1  458   0.954   0.087   0.047
  151SOL    HW2  459   0.959   0.044   0.204
  152SOL     OW  460   1.726   0.135   0.523
  152SOL    HW1  461   1.799   0.118   0.456
  152SOL    HW2  462   1.695   0.048   0.561
  153SOL     OW  463   1.388   1.573   0.477
  153SOL    HW1  464   1.455   1.585   0.403
  153SOL    HW2  465   1.348   1.662   0.500
  154SOL     OW  466   0.130   1.794   1.851
  154SOL    HW1  467   0.089   1.720   1.904
  154SOL    HW2  468   0.194   1.845   1.909
  155SOL     OW  469   1.280   0.927   0.672
  155SOL    HW1  470   1.340   0.846   0.674
  155SOL    HW2  471   1.320   0.996   0.612
  156SOL     OW  472   0.830   1.273   1.422
  156SOL    HW1  473   0.825   1.306   1.517
  156SOL    HW2  474   0.744   1.292   1.376
  157SOL     OW  475   0.672   1.616   0.154
  157SOL    HW1  476   0.681   1.626   0.055
  157SOL    HW2  477   0.632   1.527   0.175
  158SOL     OW  478   1.650   1.720   1.394
  158SOL    HW1  479   1.703   1.730   1.310
  158SOL    HW2  480   1.623   1.810   1.428
  159SOL     OW  481   1.841   0.175   0.963
  159SOL    HW1  482   1.880   0.090   0.927
  159SOL    HW2  483   1.743   0.177   0.944
  160SOL     OW  484   0.263   0.326   0.720
  160SOL    HW1  485   0.184   0.377   0.686
  160SOL    HW2  486   0.254   0.311   0.818
  161SOL     OW  487   1.194   1.612   0.031
  161SOL    HW1  488   1.200   1.519   0.068
  161SOL    HW2  489   1.135   1.612  -0.049
  162SOL     OW  490   0.822   1.002   1.372
  162SOL    HW1  491   0.862   1.001   1.280
  162SOL    HW2  492   0.832   1.094   1.412
  163SOL     OW  493   0.916   0.910   0.291
  163SOL    HW1  494   0.979   0.948   0.223
  163SOL    HW2  495   0.956   0.827   0.330
  164SOL     OW  496   1.504   1.607   0.044
  164SOL    HW1  497   1.412   1.644   0.051
  164SOL    HW2  498   1.542   1.627  -0.046
  165SOL     OW  499   0.372   1.288   1.490
  165SOL    HW1  500   0.359   1.381   1.456
  165SOL    HW2  501   0.288   1.236   1.477
  166SOL     OW  502   1.614   1.292   1.289
  166SOL    HW1  503   1.674   1.295   1.369
  166SOL    HW2  504   1.539   1.356   1.302
  167SOL     OW  505   1.039   1.098   0.696
  167SOL    HW1  506   0.969   1.051   0.750
  167SOL    HW2  507   1.098   1.030   0.653
  168SOL     OW  508   1.014   0.236   0.971
  168SOL    HW1  509   1.006   0.200   0.878
  168SOL    HW2  510   1.012   0.160   1.036
  169SOL     OW  511   0.590   1.487   0.491
  169SOL    HW1  512   0.632   1.429   0.421
  169SOL    HW2  513   0.546   1.566   0.447
  170SOL     OW  514   1.709   0.385   1.381
  170SOL    HW1  515   1.782   0.454   1.385
  170SOL    HW2  516   1.737   0.310   1.322
  171SOL     OW  517   0.255   1.348   0.290
  171SOL    HW1  518   0.159   1.349   0.263
  171SOL    HW2  519   0.267   1.401   0.374
  172SOL     OW  520   0.105   1.013   1.726
  172SOL    HW1  521   0.028   0.980   1.780
  172SOL    HW2  522   0.190   0.983   1.768
  173SOL     OW  523   0.672   0.203   1.489
  173SOL    HW1  524   0.762   0.187   1.449
  173SOL    HW2  525   0.680   0.208   1.588
  174SOL     OW  526   0.075   0.345   0.033
  174SOL    HW1  527  -0.017   0.317   0.004
  174SOL    HW2  528   0.106   0.422  -0.023
  175SOL     OW  529   1.440   0.856   1.398
  175SOL    HW1  530   1.383   0.908   1.335
  175SOL    HW2  531   1.536   0.868   1.374
  176SOL     OW  532   0.072   0.166   0.318
  176SOL    HW1  533   0.055   0.249   0.264
  176SOL    HW2  534   0.162   0.129   0.296
  177SOL     OW  535   1.183   1.335   0.119
  177SOL    HW1  536   1.084   1.324   0.121
  177SOL    HW2  537   1.217   1.350   0.212
  178SOL     OW  538   0.613   0.842   1.431
  178SOL    HW1  539   0.669   0.923   1.414
  178SOL    HW2  540   0.672   0.762   1.434
  179SOL     OW  541   1.493   1.767   0.959
  179SOL    HW1  542   1.526   1.831   0.890
  179SOL    HW2  543   1.559   1.761   1.034
  180SOL     OW  544   0.716   0.565   1.708
  180SOL    HW1  545   0.735   0.630   1.782
  180SOL    HW2  546   0.776   0.485   1.717
  181SOL     OW  547   1.450   1.220   1.633
  181SOL    HW1  548   1.441   1.210   1.732
  181SOL    HW2  549   1.546   1.213   1.607
  182SOL     OW  550   0.390   1.741   1.560
  182SOL    HW1  551   0.299   1.782   1.558
  182SOL    HW2  552   0.383   1.647   1.592
  183SOL     OW  553   1.674   0.883   1.254
  183SOL    HW1  554   1.647   0.794   1.217
  183SOL    HW2  555   1.675   0.951   1.181
  184SOL     OW  556   1.225   0.325   0.449
  184SOL    HW1  557   1.290   0.251   0.438
  184SOL    HW2  558   1.245   0.375   0.533
  185SOL     OW  559   0.594   0.745   0.652
  185SOL    HW1  560   0.644   0.830   0.633
  185SOL    HW2  561   0.506   0.747   0.604
  186SOL     OW  562   1.777   0.342   1.642
  186SOL    HW1  563   1.760   0.373   1.548
  186SOL    HW2  564   1.693   0.305   1.680
  187SOL     OW  565   1.730   0.934   1.517
  187SOL    HW1  566   1.768   1.025   1.532
  187SOL    HW2  567   1.722   0.917   1.418
  188SOL     OW  568   0.859   1.374   0.016
  188SOL    HW1  569   0.813   1.389   0.104
  188SOL    HW2  570   0.903   1.459  -0.014
  189SOL     OW  571   0.661   1.790   0.953
  189SOL    HW1  572   0.615   1.878   0.940
  189SOL    HW2  573   0.760   1.802   0.946
  190SOL     OW  574   0.859   0.956   0.861
  190SOL    HW1  575   0.913   0.887   0.909
  190SOL    HW2  576   0.827   1.025   0.927
  191SOL     OW  577   1.083   0.984   0.087
  191SOL    HW1  578   1.060   1.037   0.005
  191SOL    HW2  579   1.164   0.928   0.068
  192SOL     OW  580   1.861   1.569   0.851
  192SOL    HW1  581   1.790   1.557   0.781
  192SOL    HW2  582   1.862   1.490   0.911
  193SOL     OW  583   0.221   1.314   1.844
  193SOL    HW1  584   0.156   1.241   1.823
  193SOL    HW2  585   0.225   1.328   1.942
  194SOL     OW  586   0.079   1.240   0.653
  194SOL    HW1  587   0.078   1.193   0.741
  194SOL    HW2  588   0.161   1.212   0.602
  195SOL     OW  589   0.672   1.391   1.624
  195SOL    HW1  590   0.594   1.341   1.662
  195SOL    HW2  591   0.669   1.486   1.655
  196SOL     OW  592   1.824   0.192   1.227
  196SOL    HW1  593   1.820   0.102   1.271
  196SOL    HW2  594   1.827   0.181   1.128
  197SOL     OW  595   0.428   0.424   0.520
  197SOL    HW1  596   0.458   0.352   0.458
  197SOL    HW2  597   0.389   0.384   0.603
  198SOL     OW  598   1.705   1.487   1.104
  198SOL    HW1  599   1.612   1.462   1.077
  198SOL    HW2  600   1.731   1.437   1.186
  199SOL     OW  601   0.317   0.547   1.280
  199SOL    HW1  602   0.355   0.488   1.352
  199SOL    HW2  603   0.357   0.521   1.192
  200SOL     OW  604   0.812   1.586   0.687
  200SOL    HW1  605   0.844   1.596   0.593
  200SOL    HW2  606   0.733   1.524   0.689
  201SOL     OW  607   1.424   0.214   1.112
  201SOL    HW1  608   1.476   0.149   1.167
  201SOL    HW2  609   1.375   0.277   1.173
  202SOL     OW  610   1.001   0.034   1.154
  202SOL    HW1  611   0.938  -0.038   1.123
  202SOL    HW2  612   1.094  -0.002   1.154
  203SOL     OW  613   0.770   1.330   0.301
  203SOL    HW1  614   0.724   1.243   0.318
  203SOL    HW2  615   0.861   1.327   0.342
  204SOL     OW  616   0.618   1.567   1.284
  204SOL    HW1  617   0.613   1.649   1.341
  204SOL    HW2  618   0.707   1.564   1.239
  205SOL     OW  619   1.352   0.052   0.168
  205SOL    HW1  620   1.387   0.011   0.084
  205SOL    HW2  621   1.262   0.014   0.188
  206SOL     OW  622   1.300   0.453   0.691
  206SOL    HW1  623   1.241   0.533   0.695
  206SOL    HW2  624   1.315   0.418   0.784
  207SOL     OW  625   1.593   0.221   0.882
  207SOL    HW1  626   1.509   0.220   0.936
  207SOL    HW2  627   1.595   0.304   0.826
  208SOL     OW  628   0.039   1.077   0.300
  208SOL    HW1  629   0.138   1.066   0.291
  208SOL    HW2  630  -0.001   0.991   0.332
  209SOL     OW  631   0.875   1.646   0.337
  209SOL    HW1  632   0.798   1.611   0.283
  209SOL    HW2  633   0.843   1.717   0.399
  210SOL     OW  634   0.230   0.628   1.975
  210SOL    HW1  635   0.137   0.626   2.012
  210SOL    HW2  636   0.231   0.589   1.883
  211SOL     OW  637   1.755   0.607   2.093
  211SOL    HW1  638   1.743   0.594   1.994
  211SOL    HW2  639   1.725   0.526   2.142
  212SOL     OW  640   0.231   1.713   2.345
  212SOL    HW1  641   0.265   1.790   2.399
  212SOL    HW2  642   0.275   1.713   2.255
  213SOL     OW  643   0.230   1.434   2.400
  213SOL    HW1  644   0.204   1.530   2.400
  213SOL    HW2  645   0.159   1.380   2.445
  214SOL     OW  646   0.606   0.964   1.985
  214SOL    HW1  647   0.613   1.048   1.931
  214SOL    HW2  648   0.652   0.977   2.073
  215SOL     OW  649   1.842   1.767   2.221
  215SOL    HW1  650   1.896   1.738   2.301
  215SOL    HW2  651   1.872   1.857   2.192
  216SOL     OW  652   0.027   1.596   1.979
  216SOL    HW1  653   0.008   1.500   2.000
  216SOL    HW2  654  -0.006   1.654   2.054
  217SOL     OW  655   1.689   0.922   2.474
  217SOL    HW1  656   1.784   0.893   2.482
  217SOL    HW2  657   1.681   0.987   2.399
  218SOL     OW  658   1.641   1.108   2.294
  218SOL    HW1  659   1.727   1.110   2.242
  218SOL    HW2  660   1.655   1.155   2.382
  219SOL     OW  661   0.809   0.004   2.364
  219SOL    HW1  662   0.849   0.095   2.355
  219SOL    HW2  663   0.709   0.012   2.370
  220SOL     OW  664   1.525   0.999   2.052
  220SOL    HW1  665   1.462   0.923   2.065
  220SOL    HW2  666   1.573   1.017   2.138
  221SOL     OW  667   0.598   0.729   2.132
  221SOL    HW1  668   0.622   0.798   2.064
  221SOL    HW2  669   0.520   0.762   2.186
  222SOL     OW  670   1.576   1.662   2.169
  222SOL    HW1  671   1.665   1.708   2.172
  222SOL    HW2  672   1.555   1.638   2.074
  223SOL     OW  673   0.865   0.348   2.057
  223SOL    HW1  674   0.924   0.411   2.008
  223SOL    HW2  675   0.884   0.254   2.028
  224SOL     OW  676   0.321   0.943   2.104
  224SOL    HW1  677   0.403   0.982   2.062
  224SOL    HW2  678   0.294   0.861   2.055
  225SOL     OW  679   1.111   1.776   2.099
  225SOL    HW1  680   1.051   1.714   2.149
  225SOL    HW2  681   1.142   1.732   2.014
  226SOL     OW  682   1.632   1.377   1.943
  226SOL    HW1  683   1.600   1.471   1.933
  226SOL    HW2  684   1.556   1.314   1.931
  227SOL     OW  685   0.464   1.743   2.185
  227SOL    HW1  686   0.497   1.782   2.271
  227SOL    HW2  687   0.540   1.736   2.120
  228SOL     OW  688   1.400   0.107   2.288
  228SOL    HW1  689   1.376   0.070   2.198
  228SOL    HW2  690   1.499   0.123   2.292
  229SOL     OW  691   0.382   0.700   2.342
  229SOL    HW1  692   0.427   0.610   2.339
  229SOL    HW2  693   0.288   0.689   2.375
  230SOL     OW  694   0.614   0.122   1.979
  230SOL    HW1  695   0.712   0.100   1.986
  230SOL    HW2  696   0.583   0.105   1.886
  231SOL     OW  697   1.434   1.188   1.903
  231SOL    HW1  698   1.466   1.112   1.960
  231SOL    HW2  699   1.342   1.215   1.933
  232SOL     OW  700   0.297   0.035   2.033
  232SOL    HW1  701   0.346   0.119   2.012
  232SOL    HW2  702   0.359  -0.030   2.078
  233SOL     OW  703   0.935   0.236   2.342
  233SOL    HW1  704   0.887   0.277   2.264
  233SOL    HW2  705   1.034   0.234   2.323
  234SOL     OW  706   0.459   1.152   2.603
  234SOL    HW1  707   0.388   1.125   2.668
  234SOL    HW2  708   0.433   1.124   2.510
  235SOL     OW  709   1.032   0.549   1.878
  235SOL    HW1  710   0.991   0.631   1.839
  235SOL    HW2  711   1.096   0.575   1.951
  236SOL     OW  712   1.857   0.833   2.239
  236SOL    HW1  713   1.899   0.769   2.303
  236SOL    HW2  714   1.819   0.782   2.161
  237SOL     OW  715   0.488   1.385   2.036
  237SOL    HW1  716   0.401   1.370   2.083
  237SOL    HW2  717   0.471   1.411   1.941
  238SOL     OW  718   1.390   0.575   1.940
  238SOL    HW1  719   1.336   0.554   2.021
  238SOL    HW2  720   1.481   0.534   1.949
  239SOL     OW  721   0.527   0.256   2.190
  239SOL    HW1  722   0.554   0.197   2.115
  239SOL    HW2  723   0.527   0.351   2.159
  240SOL     OW  724   0.705   1.050   2.230
  240SOL    HW1  725   0.691   1.057   2.329
  240SOL    HW2  726   0.789   0.999   2.212
  241SOL     OW  727   0.367   1.100   2.363
  241SOL    HW1  728   0.360   1.183   2.307
  241SOL    HW2  729   0.371   1.020   2.303
  242SOL     OW  730   1.252   1.348   2.250
  242SOL    HW1  731   1.302   1.425   2.290
  242SOL    HW2  732   1.157   1.350   2.282
  243SOL     OW  733   1.582   0.639   2.334
  243SOL    HW1  734   1.551   0.700   2.407
  243SOL    HW2  735   1.632   0.691   2.265
  244SOL     OW  736   1.209   0.525   2.137
  244SOL    HW1  737   1.222   0.441   2.191
  244SOL    HW2  738   1.180   0.599   2.197
  245SOL     OW  739   1.622   0.367   2.236
  245SOL    HW1  740   1.624   0.291   2.300
  245SOL    HW2  741   1.574   0.444   2.276
  246SOL     OW  742   1.540   0.274   1.987
  246SOL    HW1  743   1.479   0.199   2.010
  246SOL    HW2  744   1.562   0.326   2.070
  247SOL     OW  745   1.303   0.838   1.904
  247SOL    HW1  746   1.337   0.745   1.919
  247SOL    HW2  747   1.321   0.865   1.809
  248SOL     OW  748   0.008   1.326   2.062
  248SOL    HW1  749  -0.085   1.347   2.031
  248SOL    HW2  750   0.018   1.227   2.075
  249SOL     OW  751   0.815   0.572   2.187
  249SOL    HW1  752   0.822   0.483   2.141
  249SOL    HW2  753   0.721   0.606   2.179
  250SOL     OW  754   0.473   0.500   2.053
  250SOL    HW1  755   0.534   0.580   2.057
  250SOL    HW2  756   0.378   0.531   2.060
  251SOL     OW  757   1.302   0.855   2.171
  251SOL    HW1  758   1.216   0.824   2.213
  251SOL    HW2  759   1.298   0.841   2.072
  252SOL     OW  760   1.726   0.135   2.385
  252SOL    HW1  761   1.799   0.118   2.318
  252SOL    HW2  762   1.695   0.048   2.423
  253SOL     OW  763   1.388   1.573   2.339
  253SOL    HW1  764   1.455   1.585   2.265
  253SOL    HW2  765   1.348   1.662   2.362
  254SOL     OW  766   0.672   1.616   2.016
  254SOL    HW1  767   0.681   1.626   1.917
  254SOL    HW2  768   0.632   1.527   2.037
  255SOL     OW  769   1.194   1.612   1.893
  255SOL    HW1  770   1.200   1.519   1.930
  255SOL    HW2  771   1.135   1.612   1.813
  256SOL     OW  772   0.916   0.910   2.153
  256SOL    HW1  773   0.979   0.948   2.085
  256SOL    HW2  774   0.956   0.827   2.192
  257SOL     OW  775   1.504   1.607   1.906
  257SOL    HW1  776   1.412   1.644   1.913
  257SOL    HW2  777   1.542   1.627   1.816
  258SOL     OW  778   0.590   1.487   2.353
  258SOL    HW1  779   0.632   1.429   2.283
  258SOL    HW2  780   0.546   1.566   2.309
  259SOL     OW  781   0.255   1.348   2.152
  259SOL    HW1  782   0.159   1.349   2.125
  259SOL    HW2  783   0.267   1.401   2.236
  260SOL     OW  784   0.075   0.345   1.895
  260SOL    HW1  785  -0.017   0.317   1.866
  260SOL    HW2  786   0.106   0.422   1.839
  261SOL     OW  787   0.072   0.166   2.180
  261SOL    HW1  788   0.055   0.249   2.126
  261SOL    HW2  789   0.162   0.129   2.158
  262SOL     OW  790   1.183   1.335   1.981
  262SOL    HW1  791   1.084   1.324   1.983
  262SOL    HW2  792   1.217   1.350   2.074
  263SOL     OW  793   1.225   0.325   2.311
  263SOL    HW1  794   1.290   0.251   2.300
  263SOL    HW2  795   1.245   0.375   2.395
  264SOL     OW  796   0.859   1.374   1.878
  264SOL    HW1  797   0.813   1.389   1.966
  264SOL    HW2  798   0.903   1.459   1.848
  265SOL     OW  799   1.083   0.984   1.949
  265SOL    HW1  800   1.060   1.037   1.867
  265SOL    HW2  801   1.164   0.928   1.930
  266SOL     OW  802   0.428   0.424   2.382
  266SOL    HW1  803   0.458   0.352   2.320
  266SOL    HW2  804   0.389   0.384   2.465
  267SOL     OW  805   0.770   1.330   2.163
  267SOL    HW1  806   0.724   1.243   2.180
  267SOL    HW2  807   0.861   1.327   2.204
  268SOL     OW  808   1.352   0.052   2.030
  268SOL    HW1  809   1.387   0.011   1.946
  268SOL    HW2  810   1.262   0.014   2.050
  269SOL     OW  811   0.039   1.077   2.162
  269SOL    HW1  812   0.138   1.066   2.153
  269SOL    HW2  813  -0.001   0.991   2.194
  270SOL     OW  814   0.875   1.646   2.199
  270SOL    HW1  815   0.798   1.611   2.145
  270SOL    HW2  816   0.843   1.717   2.261
  271SOL     OW  817   0.225   2.137   0.996
  271SOL    HW1  818   0.260   2.120   1.088
  271SOL    HW2  819   0.137   2.092   0.984
  272SOL     OW  820   0.019   2.230   0.647
  272SOL    HW1  821  -0.063   2.273   0.686
  272SOL    HW2  822  -0.009   2.157   0.584
  273SOL     OW  823   1.755   2.469   0.231
  273SOL    HW1  824   1.743   2.456   0.132
  273SOL    HW2  825   1.725   2.388   0.280
  274SOL     OW  826   0.438   2.254   1.499
  274SOL    HW1  827   0.520   2.198   1.508
  274SOL    HW2  828   0.357   2.196   1.503
  275SOL     OW  829   1.603   2.309   0.737
  275SOL    HW1  830   1.529   2.355   0.687
  275SOL    HW2  831   1.654   2.377   0.790
  276SOL     OW  832   1.594   1.976   1.480
  276SOL    HW1  833   1.576   2.043   1.408
  276SOL    HW2  834   1.591   2.022   1.569
  277SOL     OW  835   0.122   2.505   0.563
  277SOL    HW1  836   0.077   2.417   0.580
  277SOL    HW2  837   0.121   2.559   0.647
  278SOL     OW  838   0.809   1.866   0.502
  278SOL    HW1  839   0.849   1.957   0.493
  278SOL    HW2  840   0.709   1.874   0.508
  279SOL     OW  841   0.317   2.113   1.801
  279SOL    HW1  842   0.388   2.184   1.807
  279SOL    HW2  843   0.229   2.152   1.829
  280SOL     OW  844   1.281   2.207   0.944
  280SOL    HW1  845   1.195   2.157   0.931
  280SOL    HW2  846   1.343   2.153   1.000
  281SOL     OW  847   1.394   2.331   1.674
  281SOL    HW1  848   1.374   2.374   1.762
  281SOL    HW2  849   1.472   2.269   1.683
  282SOL     OW  850   0.991   2.272   1.242
  282SOL    HW1  851   0.914   2.306   1.296
  282SOL    HW2  852   0.957   2.221   1.163
  283SOL     OW  853   0.865   2.210   0.195
  283SOL    HW1  854   0.924   2.273   0.146
  283SOL    HW2  855   0.884   2.116   0.166
  284SOL     OW  856   1.719   2.447   1.831
  284SOL    HW1  857   1.693   2.536   1.795
  284SOL    HW2  858   1.717   2.379   1.758
  285SOL     OW  859   0.550   2.058   0.885
  285SOL    HW1  860   0.545   2.053   0.985
  285SOL    HW2  861   0.552   2.154   0.856
  286SOL     OW  862   0.202   2.147   1.498
  286SOL    HW1  863   0.122   2.207   1.485
  286SOL    HW2  864   0.192   2.098   1.584
  287SOL     OW  865   1.400   1.969   0.426
  287SOL    HW1  866   1.376   1.932   0.336
  287SOL    HW2  867   1.499   1.985   0.430
  288SOL     OW  868   1.547   2.084   1.729
  288SOL    HW1  869   1.542   2.121   1.821
  288SOL    HW2  870   1.475   2.015   1.717
  289SOL     OW  871   0.614   1.984   0.117
  289SOL    HW1  872   0.712   1.962   0.124
  289SOL    HW2  873   0.583   1.967   0.024
  290SOL     OW  874   0.781   2.126   1.749
  290SOL    HW1  875   0.848   2.065   1.792
  290SOL    HW2  876   0.708   2.145   1.814
  291SOL     OW  877   1.351   2.452   1.433
  291SOL    HW1  878   1.379   2.409   1.518
  291SOL    HW2  879   1.376   2.548   1.434
  292SOL     OW  880   0.539   1.926   0.512
  292SOL    HW1  881   0.458   1.927   0.570
  292SOL    HW2  882   0.542   2.009   0.457
  293SOL     OW  883   0.297   1.897   0.171
  293SOL    HW1  884   0.346   1.981   0.150
  293SOL    HW2  885   0.359   1.832   0.216
  294SOL     OW  886   0.935   2.098   0.480
  294SOL    HW1  887   0.887   2.139   0.402
  294SOL    HW2  888   1.034   2.096   0.461
  295SOL     OW  889   0.078   2.418   1.386
  295SOL    HW1  890   0.170   2.417   1.345
  295SOL    HW2  891   0.072   2.492   1.453
  296SOL     OW  892   0.561   2.084   1.147
  296SOL    HW1  893   0.599   2.000   1.184
  296SOL    HW2  894   0.473   2.103   1.191
  297SOL     OW  895   1.017   1.901   0.753
  297SOL    HW1  896   0.945   1.906   0.684
  297SOL    HW2  897   0.993   1.832   0.822
  298SOL     OW  898   1.466   2.452   0.992
  298SOL    HW1  899   1.436   2.357   0.999
  298SOL    HW2  900   1.539   2.468   1.058
  299SOL     OW  901   0.527   2.118   0.328
  299SOL    HW1  902   0.554   2.059   0.253
  299SOL    HW2  903   0.527   2.213   0.297
  300SOL     OW  904   0.915   1.951   1.402
  300SOL    HW1  905   0.940   1.931   1.307
  300SOL    HW2  906   0.987   2.007   1.444
  301SOL     OW  907   1.274   2.248   1.262
  301SOL    HW1  908   1.295   2.322   1.326
  301SOL    HW2  909   1.185   2.265   1.219
  302SOL     OW  910   0.566   2.399   0.865
  302SOL    HW1  911   0.578   2.465   0.791
  302SOL    HW2  912   0.612   2.433   0.948
  303SOL     OW  913   1.013   1.967   1.770
  303SOL    HW1  914   1.019   2.052   1.718
  303SOL    HW2  915   1.045   1.891   1.713
  304SOL     OW  916   0.504   1.912   1.740
  304SOL    HW1  917   0.462   1.855   1.670
  304SOL    HW2  918   0.438   1.981   1.772
  305SOL     OW  919   0.307   2.075   1.231
  305SOL    HW1  920   0.284   2.112   1.321
  305SOL    HW2  921   0.277   1.980   1.225
  306SOL     OW  922   0.732   2.496   1.064
  306SOL    HW1  923   0.791   2.470   0.988
  306SOL    HW2  924   0.704   2.592   1.053
  307SOL     OW  925   0.307   1.925   0.618
  307SOL    HW1  926   0.296   2.019   0.651
  307SOL    HW2  927   0.302   1.862   0.695
  308SOL     OW  928   1.622   2.229   0.374
  308SOL    HW1  929   1.624   2.153   0.438
  308SOL    HW2  930   1.574   2.306   0.414
  309SOL     OW  931   1.540   2.136   0.125
  309SOL    HW1  932   1.479   2.061   0.148
  309SOL    HW2  933   1.562   2.188   0.208
  310SOL     OW  934   0.339   2.371   1.006
  310SOL    HW1  935   0.287   2.288   0.989
  310SOL    HW2  936   0.416   2.376   0.942
  311SOL     OW  937   1.138   2.242   1.678
  311SOL    HW1  938   1.093   2.305   1.742
  311SOL    HW2  939   1.231   2.273   1.661
  312SOL     OW  940   1.160   2.069   1.477
  312SOL    HW1  941   1.160   2.133   1.554
  312SOL    HW2  942   1.188   2.117   1.394
  313SOL     OW  943   0.040   2.406   1.114
  313SOL    HW1  944   0.125   2.373   1.073
  313SOL    HW2  945   0.053   2.421   1.212
  314SOL     OW  946   0.189   2.382   1.722
  314SOL    HW1  947   0.248   2.342   1.652
  314SOL    HW2  948   0.131   2.453   1.681
  315SOL     OW  949   0.815   2.434   0.325
  315SOL    HW1  950   0.822   2.345   0.279
  315SOL    HW2  951   0.721   2.468   0.317
  316SOL     OW  952   1.657   2.466   1.206
  316SOL    HW1  953   1.619   2.397   1.268
  316SOL    HW2  954   1.739   2.430   1.162
  317SOL     OW  955   0.671   2.326   1.269
  317SOL    HW1  956   0.637   2.237   1.239
  317SOL    HW2  957   0.697   2.380   1.189
  318SOL     OW  958   0.903   1.948   0.133
  318SOL    HW1  959   0.954   1.949   0.047
  318SOL    HW2  960   0.959   1.906   0.204
  319SOL     OW  961   1.726   1.997   0.523
  319SOL    HW1  962   1.799   1.980   0.456
  319SOL    HW2  963   1.695   1.910   0.561
  320SOL     OW  964   1.841   2.037   0.963
  320SOL    HW1  965   1.880   1.952   0.927
  320SOL    HW2  966   1.743   2.039   0.944
  321SOL     OW  967   0.263   2.188   0.720
  321SOL    HW1  968   0.184   2.239   0.686
  321SOL    HW2  969   0.254   2.173   0.818
  322SOL     OW  970   1.014   2.098   0.971
  322SOL    HW1  971   1.006   2.062   0.878
  322SOL    HW2  972   1.012   2.022   1.036
  323SOL     OW  973   1.709   2.247   1.381
  323SOL    HW1  974   1.782   2.316   1.385
  323SOL    HW2  975   1.737   2.172   1.322
  324SOL     OW  976   0.672   2.065   1.489
  324SOL    HW1  977   0.762   2.049   1.449
  324SOL    HW2  978   0.680   2.070   1.588
  325SOL     OW  979   0.075   2.207   0.033
  325SOL    HW1  980  -0.017   2.179   0.004
  325SOL    HW2  981   0.106   2.284  -0.023
  326SOL     OW  982   0.072   2.028   0.318
  326SOL    HW1  983   0.055   2.111   0.264
  326SOL    HW2  984   0.162   1.991   0.296
  327SOL     OW  985   0.716   2.427   1.708
  327SOL    HW1  986   0.735   2.492   1.782
  327SOL    HW2  987   0.776   2.347   1.717
  328SOL     OW  988   1.225   2.187   0.449
  328SOL    HW1  989   1.290   2.113   0.438
  328SOL    HW2  990   1.245   2.237   0.533
  329SOL     OW  991   1.777   2.204   1.642
  329SOL    HW1  992   1.760   2.235   1.548
  329SOL    HW2  993   1.693   2.167   1.680
  330SOL     OW  994   1.824   2.054   1.227
  330SOL    HW1  995   1.820   1.964   1.271
  330SOL    HW2  996   1.827   2.043   1.128
  331SOL     OW  997   0.428   2.286   0.520
  331SOL    HW1  998   0.458   2.214   0.458
  331SOL    HW2  999   0.389   2.246   0.603
  332SOL     OW 1000   0.317   2.409   1.280
  332SOL    HW1 1001   0.355   2.350   1.352
  332SOL    HW2 1002   0.357   2.383   1.192
  333SOL     OW 1003   1.424   2.076   1.112
  333SOL    HW1 1004   1.476   2.011   1.167
  333SOL    HW2 1005   1.375   2.139   1.173
  334SOL     OW 1006   1.001   1.896   1.154
  334SOL    HW1 1007   0.938   1.824   1.123
  334SOL    HW2 1008   1.094   1.860   1.154
  335SOL     OW 1009   1.352   1.914   0.168
  335SOL    HW1 1010   1.387   1.873   0.084
  335SOL    HW2 1011   1.262   1.876   0.188
  336SOL     OW 1012   1.300   2.315   0.691
  336SOL    HW1 1013   1.241   2.395   0.695
  336SOL    HW2 1014   1.315   2.280   0.784
  337SOL     OW 1015   1.593   2.083   0.882
  337SOL    HW1 1016   1.509   2.082   0.936
  337SOL    HW2 1017   1.595   2.166   0.826
  338SOL     OW 1018   1.135   2.565   2.579
  338SOL    HW1 1019   1.192   2.643   2.554
  338SOL    HW2 1020   1.075   2.591   2.655
  339SOL     OW 1021   1.755   2.469   2.093
  339SOL    HW1 1022   1.743   2.456   1.994
  339SOL    HW2 1023   1.725   2.388   2.142
  340SOL     OW 1024   0.809   1.866   2.364
  340SOL    HW1 1025   0.849   1.957   2.355
  340SOL    HW2 1026   0.709   1.874   2.370
  341SOL     OW 1027   0.865   2.210   2.057
  341SOL    HW1 1028   0.924   2.273   2.008
  341SOL    HW2 1029   0.884   2.116   2.028
  342SOL     OW 1030   1.400   1.969   2.288
  342SOL    HW1 1031   1.376   1.932   2.198
  342SOL    HW2 1032   1.499   1.985   2.292
  343SOL     OW 1033   0.382   2.562   2.342
  343SOL    HW1 1034   0.427   2.472   2.339
  343SOL    HW2 1035   0.288   2.551   2.375
  344SOL     OW 1036   0.614   1.984   1.979
  344SOL    HW1 1037   0.712   1.962   1.986
  344SOL    HW2 1038   0.583   1.967   1.886
  345SOL     OW 1039   0.297   1.897   2.033
  345SOL    HW1 1040   0.346   1.981   2.012
  345SOL    HW2 1041   0.359   1.832   2.078
  346SOL     OW 1042   0.935   2.098   2.342
  346SOL    HW1 1043   0.887   2.139   2.264
  346SOL    HW2 1044   1.034   2.096   2.323
  347SOL     OW 1045   0.527   2.118   2.190
  347SOL    HW1 1046   0.554   2.059   2.115
  347SOL    HW2 1047   0.527   2.213   2.159
  348SOL     OW 1048   1.622   2.229   2.236
  348SOL    HW1 1049   1.624   2.153   2.300
  348SOL    HW2 1050   1.574   2.306   2.276
  349SOL     OW 1051   1.540   2.136   1.987
  349SOL    HW1 1052   1.479   2.061   2.010
  349SOL    HW2 1053   1.562   2.188   2.070
  350SOL     OW 1054   0.815   2.434   2.187
  350SOL    HW1 1055   0.822   2.345   2.141
  350SOL    HW2 1056   0.721   2.468   2.179
  351SOL     OW 1057   1.726   1.997   2.385
  351SOL    HW1 1058   1.799   1.980   2.318
  351SOL    HW2 1059   1.695   1.910   2.423
  352SOL     OW 1060   0.075   2.207   1.895
  352SOL    HW1 1061  -0.017   2.179   1.866
  352SOL    HW2 1062   0.106   2.284   1.839
  353SOL     OW 1063   0.072   2.028   2.180
  353SOL    HW1 1064   0.055   2.111   2.126
  353SOL    HW2 1065   0.162   1.991   2.158
  354SOL     OW 1066   1.225   2.187   2.311
  354SOL    HW1 1067   1.290   2.113   2.300
  354SOL    HW2 1068   1.245   2.237   2.395
  355SOL     OW 1069   0.428   2.286   2.382
  355SOL    HW1 1070   0.458   2.214   2.320
  355SOL    HW2 1071   0.389   2.246   2.465
  356SOL     OW 1072   1.352   1.914   2.030
  356SOL    HW1 1073   1.387   1.873   1.946
  356SOL    HW2 1074   1.262   1.876   2.050
  357SOL     OW 1075   2.092   0.628   0.113
  357SOL    HW1 1076   1.999   0.626   0.150
  357SOL    HW2 1077   2.093   0.589   0.021
  358SOL     OW 1078   2.087   0.275   0.996
  358SOL    HW1 1079   2.122   0.258   1.088
  358SOL    HW2 1080   1.999   0.230   0.984
  359SOL     OW 1081   1.881   0.368   0.647
  359SOL    HW1 1082   1.799   0.411   0.686
  359SOL    HW2 1083   1.853   0.295   0.584
  360SOL     OW 1084   2.547   1.012   0.665
  360SOL    HW1 1085   2.616   0.996   0.735
  360SOL    HW2 1086   2.474   1.069   0.703
  361SOL     OW 1087   2.197   1.435   1.061
  361SOL    HW1 1088   2.119   1.404   1.008
  361SOL    HW2 1089   2.255   1.493   1.004
  362SOL     OW 1090   2.300   0.392   1.499
  362SOL    HW1 1091   2.382   0.336   1.508
  362SOL    HW2 1092   2.219   0.334   1.503
  363SOL     OW 1093   2.093   1.713   0.483
  363SOL    HW1 1094   2.127   1.790   0.537
  363SOL    HW2 1095   2.137   1.713   0.393
  364SOL     OW 1096   2.092   1.434   0.538
  364SOL    HW1 1097   2.066   1.530   0.538
  364SOL    HW2 1098   2.021   1.380   0.583
  365SOL     OW 1099   2.102   1.091   0.886
  365SOL    HW1 1100   2.116   1.007   0.938
  365SOL    HW2 1101   2.047   1.155   0.941
  366SOL     OW 1102   1.984   0.643   0.563
  366SOL    HW1 1103   1.939   0.555   0.580
  366SOL    HW2 1104   1.983   0.697   0.647
  367SOL     OW 1105   1.889   1.596   0.117
  367SOL    HW1 1106   1.870   1.500   0.138
  367SOL    HW2 1107   1.856   1.654   0.192
  368SOL     OW 1108   1.975   0.737   1.597
  368SOL    HW1 1109   2.063   0.724   1.642
  368SOL    HW2 1110   1.962   0.834   1.575
  369SOL     OW 1111   2.059   0.976   1.264
  369SOL    HW1 1112   2.148   0.931   1.250
  369SOL    HW2 1113   1.986   0.911   1.245
  370SOL     OW 1114   2.179   0.251   1.801
  370SOL    HW1 1115   2.250   0.322   1.807
  370SOL    HW2 1116   2.091   0.290   1.829
  371SOL     OW 1117   2.460   0.729   0.270
  371SOL    HW1 1118   2.484   0.798   0.202
  371SOL    HW2 1119   2.382   0.762   0.324
  372SOL     OW 1120   1.938   0.811   0.789
  372SOL    HW1 1121   2.037   0.799   0.798
  372SOL    HW2 1122   1.914   0.906   0.810
  373SOL     OW 1123   1.992   1.821   1.571
  373SOL    HW1 1124   1.982   1.806   1.670
  373SOL    HW2 1125   1.906   1.857   1.535
  374SOL     OW 1126   2.412   0.196   0.885
  374SOL    HW1 1127   2.407   0.191   0.985
  374SOL    HW2 1128   2.414   0.292   0.856
  375SOL     OW 1129   2.213   1.801   0.853
  375SOL    HW1 1130   2.263   1.715   0.859
  375SOL    HW2 1131   2.278   1.878   0.850
  376SOL     OW 1132   2.183   0.943   0.242
  376SOL    HW1 1133   2.265   0.982   0.200
  376SOL    HW2 1134   2.156   0.861   0.193
  377SOL     OW 1135   2.323   1.266   1.727
  377SOL    HW1 1136   2.273   1.267   1.641
  377SOL    HW2 1137   2.260   1.248   1.803
  378SOL     OW 1138   2.064   0.285   1.498
  378SOL    HW1 1139   1.984   0.345   1.485
  378SOL    HW2 1140   2.054   0.236   1.584
  379SOL     OW 1141   2.111   1.785   1.241
  379SOL    HW1 1142   2.168   1.720   1.291
  379SOL    HW2 1143   2.095   1.752   1.148
  380SOL     OW 1144   2.244   0.700   0.480
  380SOL    HW1 1145   2.289   0.610   0.477
  380SOL    HW2 1146   2.150   0.689   0.513
  381SOL     OW 1147   2.476   0.122   0.117
  381SOL    HW1 1148   2.574   0.100   0.124
  381SOL    HW2 1149   2.445   0.105   0.024
  382SOL     OW 1150   2.401   0.064   0.512
  382SOL    HW1 1151   2.320   0.065   0.570
  382SOL    HW2 1152   2.404   0.147   0.457
  383SOL     OW 1153   2.159   0.035   0.171
  383SOL    HW1 1154   2.208   0.119   0.150
  383SOL    HW2 1155   2.221  -0.030   0.216
  384SOL     OW 1156   2.321   1.152   0.741
  384SOL    HW1 1157   2.250   1.125   0.806
  384SOL    HW2 1158   2.295   1.124   0.648
  385SOL     OW 1159   1.940   0.556   1.386
  385SOL    HW1 1160   2.032   0.555   1.345
  385SOL    HW2 1161   1.934   0.630   1.453
  386SOL     OW 1162   2.423   0.222   1.147
  386SOL    HW1 1163   2.461   0.138   1.184
  386SOL    HW2 1164   2.335   0.241   1.191
  387SOL     OW 1165   2.272   0.813   1.251
  387SOL    HW1 1166   2.358   0.825   1.301
  387SOL    HW2 1167   2.230   0.726   1.278
  388SOL     OW 1168   1.926   1.564   1.331
  388SOL    HW1 1169   1.880   1.646   1.297
  388SOL    HW2 1170   2.024   1.583   1.340
  389SOL     OW 1171   2.229   1.100   0.501
  389SOL    HW1 1172   2.222   1.183   0.445
  389SOL    HW2 1173   2.233   1.020   0.441
  390SOL     OW 1174   2.428   0.537   0.865
  390SOL    HW1 1175   2.440   0.603   0.791
  390SOL    HW2 1176   2.474   0.571   0.948
  391SOL     OW 1177   2.216   1.510   1.329
  391SOL    HW1 1178   2.195   1.466   1.242
  391SOL    HW2 1179   2.313   1.536   1.332
  392SOL     OW 1180   2.264   0.751   1.598
  392SOL    HW1 1181   2.332   0.806   1.551
  392SOL    HW2 1182   2.304   0.663   1.625
  393SOL     OW 1183   2.366   0.050   1.740
  393SOL    HW1 1184   2.324  -0.007   1.670
  393SOL    HW2 1185   2.300   0.119   1.772
  394SOL     OW 1186   2.435   0.870   1.029
  394SOL    HW1 1187   2.479   0.959   1.020
  394SOL    HW2 1188   2.372   0.870   1.106
  395SOL     OW 1189   2.169   0.213   1.231
  395SOL    HW1 1190   2.146   0.250   1.321
  395SOL    HW2 1191   2.139   0.118   1.225
  396SOL     OW 1192   1.899   1.310   1.282
  396SOL    HW1 1193   1.952   1.261   1.350
  396SOL    HW2 1194   1.921   1.408   1.287
  397SOL     OW 1195   2.169   0.063   0.618
  397SOL    HW1 1196   2.158   0.157   0.651
  397SOL    HW2 1197   2.164   0.000   0.695
  398SOL     OW 1198   2.212   0.898   1.804
  398SOL    HW1 1199   2.288   0.942   1.852
  398SOL    HW2 1200   2.247   0.851   1.722
  399SOL     OW 1201   2.181   0.810   0.949
  399SOL    HW1 1202   2.274   0.846   0.954
  399SOL    HW2 1203   2.175   0.725   1.001
  400SOL     OW 1204   2.201   0.509   1.006
  400SOL    HW1 1205   2.149   0.426   0.989
  400SOL    HW2 1206   2.278   0.514   0.942
  401SOL     OW 1207   1.870   1.326   0.200
  401SOL    HW1 1208   1.777   1.347   0.169
  401SOL    HW2 1209   1.880   1.227   0.213
  402SOL     OW 1210   1.950   1.801   0.927
  402SOL    HW1 1211   1.908   1.715   0.900
  402SOL    HW2 1212   2.044   1.804   0.893
  403SOL     OW 1213   1.902   0.544   1.114
  403SOL    HW1 1214   1.987   0.511   1.073
  403SOL    HW2 1215   1.915   0.559   1.212
  404SOL     OW 1216   2.051   0.520   1.722
  404SOL    HW1 1217   2.110   0.480   1.652
  404SOL    HW2 1218   1.993   0.591   1.681
  405SOL     OW 1219   2.677   0.572   0.325
  405SOL    HW1 1220   2.684   0.483   0.279
  405SOL    HW2 1221   2.583   0.606   0.317
  406SOL     OW 1222   2.114   1.564   1.744
  406SOL    HW1 1223   2.084   1.621   1.820
  406SOL    HW2 1224   2.107   1.467   1.770
  407SOL     OW 1225   2.335   0.500   0.191
  407SOL    HW1 1226   2.396   0.580   0.195
  407SOL    HW2 1227   2.240   0.531   0.198
  408SOL     OW 1228   2.021   1.137   1.466
  408SOL    HW1 1229   2.043   1.076   1.542
  408SOL    HW2 1230   2.031   1.088   1.380
  409SOL     OW 1231   1.945   1.258   1.022
  409SOL    HW1 1232   1.940   1.257   1.122
  409SOL    HW2 1233   1.862   1.217   0.984
  410SOL     OW 1234   1.992   1.794   1.851
  410SOL    HW1 1235   1.951   1.720   1.904
  410SOL    HW2 1236   2.056   1.845   1.909
  411SOL     OW 1237   2.125   0.326   0.720
  411SOL    HW1 1238   2.046   0.377   0.686
  411SOL    HW2 1239   2.116   0.311   0.818
  412SOL     OW 1240   2.234   1.288   1.490
  412SOL    HW1 1241   2.221   1.381   1.456
  412SOL    HW2 1242   2.150   1.236   1.477
  413SOL     OW 1243   2.452   1.487   0.491
  413SOL    HW1 1244   2.494   1.429   0.421
  413SOL    HW2 1245   2.408   1.566   0.447
  414SOL     OW 1246   2.117   1.348   0.290
  414SOL    HW1 1247   2.021   1.349   0.263
  414SOL    HW2 1248   2.129   1.401   0.374
  415SOL     OW 1249   1.967   1.013   1.726
  415SOL    HW1 1250   1.890   0.980   1.780
  415SOL    HW2 1251   2.052   0.983   1.768
  416SOL     OW 1252   1.937   0.345   0.033
  416SOL    HW1 1253   1.845   0.317   0.004
  416SOL    HW2 1254   1.968   0.422  -0.023
  417SOL     OW 1255   1.934   0.166   0.318
  417SOL    HW1 1256   1.917   0.249   0.264
  417SOL    HW2 1257   2.024   0.129   0.296
  418SOL     OW 1258   2.252   1.741   1.560
  418SOL    HW1 1259   2.161   1.782   1.558
  418SOL    HW2 1260   2.245   1.647   1.592
  419SOL     OW 1261   2.083   1.314   1.844
  419SOL    HW1 1262   2.018   1.241   1.823
  419SOL    HW2 1263   2.087   1.328   1.942
  420SOL     OW 1264   1.941   1.240   0.653
  420SOL    HW1 1265   1.940   1.193   0.741
  420SOL    HW2 1266   2.023   1.212   0.602
  421SOL     OW 1267   2.534   1.391   1.624
  421SOL    HW1 1268   2.456   1.341   1.662
  421SOL    HW2 1269   2.531   1.486   1.655
  422SOL     OW 1270   2.290   0.424   0.520
  422SOL    HW1 1271   2.320   0.352   0.458
  422SOL    HW2 1272   2.251   0.384   0.603
  423SOL     OW 1273   2.179   0.547   1.280
  423SOL    HW1 1274   2.217   0.488   1.352
  423SOL    HW2 1275   2.219   0.521   1.192
  424SOL     OW 1276   1.901   1.077   0.300
  424SOL    HW1 1277   2.000   1.066   0.291
  424SOL    HW2 1278   1.861   0.991   0.332
  425SOL     OW 1279   2.092   0.628   1.975
  425SOL    HW1 1280   1.999   0.626   2.012
  425SOL    HW2 1281   2.093   0.589   1.883
  426SOL     OW 1282   2.547   1.012   2.527
  426SOL    HW1 1283   2.616   0.996   2.597
  426SOL    HW2 1284   2.474   1.069   2.565
  427SOL     OW 1285   2.093   1.713   2.345
  427SOL    HW1 1286   2.127   1.790   2.399
  427SOL    HW2 1287   2.137   1.713   2.255
  428SOL     OW 1288   2.092   1.434   2.400
  428SOL    HW1 1289   2.066   1.530   2.400
  428SOL    HW2 1290   2.021   1.380   2.445
  429SOL     OW 1291   1.889   1.596   1.979
  429SOL    HW1 1292   1.870   1.500   2.000
  429SOL    HW2 1293   1.856   1.654   2.054
  430SOL     OW 1294   2.460   0.729   2.132
  430SOL    HW1 1295   2.484   0.798   2.064
  430SOL    HW2 1296   2.382   0.762   2.186
  431SOL     OW 1297   2.213   1.801   2.715
  431SOL    HW1 1298   2.263   1.715   2.721
  431SOL    HW2 1299   2.278   1.878   2.712
  432SOL     OW 1300   2.183   0.943   2.104
  432SOL    HW1 1301   2.265   0.982   2.062
  432SOL    HW2 1302   2.156   0.861   2.055
  433SOL     OW 1303   2.244   0.700   2.342
  433SOL    HW1 1304   2.289   0.610   2.339
  433SOL    HW2 1305   2.150   0.689   2.375
  434SOL     OW 1306   2.476   0.122   1.979
  434SOL    HW1 1307   2.574   0.100   1.986
  434SOL    HW2 1308   2.445   0.105   1.886
  435SOL     OW 1309   2.159   0.035   2.033
  435SOL    HW1 1310   2.208   0.119   2.012
  435SOL    HW2 1311   2.221  -0.030   2.078
  436SOL     OW 1312   2.321   1.152   2.603
  436SOL    HW1 1313   2.250   1.125   2.668
  436SOL    HW2 1314   2.295   1.124   2.510
  437SOL     OW 1315   2.229   1.100   2.363
  437SOL    HW1 1316   2.222   1.183   2.307
  437SOL    HW2 1317   2.233   1.020   2.303
  438SOL     OW 1318   1.870   1.326   2.062
  438SOL    HW1 1319   1.777   1.347   2.031
  438SOL    HW2 1320   1.880   1.227   2.075
  439SOL     OW 1321   2.677   0.572   2.187
  439SOL    HW1 1322   2.684   0.483   2.141
  439SOL    HW2 1323   2.583   0.606   2.179
  440SOL     OW 1324   2.335   0.500   2.053
  440SOL    HW1 1325   2.396   0.580   2.057
  440SOL    HW2 1326   2.240   0.531   2.060
  441SOL     OW 1327   2.452   1.487   2.353
  441SOL    HW1 1328   2.494   1.429   2.283
  441SOL    HW2 1329   2.408   1.566   2.309
  442SOL     OW 1330   2.117   1.348   2.152
  442SOL    HW1 1331   2.021   1.349   2.125
  442SOL    HW2 1332   2.129   1.401   2.236
  443SOL     OW 1333   1.937   0.345   1.895
  443SOL    HW1 1334   1.845   0.317   1.866
  443SOL    HW2 1335   1.968   0.422   1.839
  444SOL     OW 1336   1.934   0.166   2.180
  444SOL    HW1 1337   1.917   0.249   2.126
  444SOL    HW2 1338   2.024   0.129   2.158
  445SOL     OW 1339   2.290   0.424   2.382
  445SOL    HW1 1340   2.320   0.352   2.320
  445SOL    HW2 1341   2.251   0.384   2.465
  446SOL     OW 1342   1.901   1.077   2.162
  446SOL    HW1 1343   2.000   1.066   2.153
  446SOL    HW2 1344   1.861   0.991   2.194
  447SOL     OW 1345   2.087   2.137   0.996
  447SOL    HW1 1346   2.122   2.120   1.088
  447SOL    HW2 1347   1.999   2.092   0.984
  448SOL     OW 1348   1.881   2.230   0.647
  448SOL    HW1 1349   1.799   2.273   0.686
  448SOL    HW2 1350   1.853   2.157   0.584
  449SOL     OW 1351   2.300   2.254   1.499
  449SOL    HW1 1352   2.382   2.198   1.508
  449SOL    HW2 1353   2.219   2.196   1.503
  450SOL     OW 1354   1.984   2.505   0.563
  450SOL    HW1 1355   1.939   2.417   0.580
  450SOL    HW2 1356   1.983   2.559   0.647
  451SOL     OW 1357   2.179   2.113   1.801
  451SOL    HW1 1358   2.250   2.184   1.807
  451SOL    HW2 1359   2.091   2.152   1.829
  452SOL     OW 1360   2.412   2.058   0.885
  452SOL    HW1 1361   2.407   2.053   0.985
  452SOL    HW2 1362   2.414   2.154   0.856
  453SOL     OW 1363   2.064   2.147   1.498
  453SOL    HW1 1364   1.984   2.207   1.485
  453SOL    HW2 1365   2.054   2.098   1.584
  454SOL     OW 1366   2.476   1.984   0.117
  454SOL    HW1 1367   2.574   1.962   0.124
  454SOL    HW2 1368   2.445   1.967   0.024
  455SOL     OW 1369   2.401   1.926   0.512
  455SOL    HW1 1370   2.320   1.927   0.570
  455SOL    HW2 1371   2.404   2.009   0.457
  456SOL     OW 1372   1.940   2.418   1.386
  456SOL    HW1 1373   2.032   2.417   1.345
  456SOL    HW2 1374   1.934   2.492   1.453
  457SOL     OW 1375   2.423   2.084   1.147
  457SOL    HW1 1376   2.461   2.000   1.184
  457SOL    HW2 1377   2.335   2.103   1.191
  458SOL     OW 1378   2.428   2.399   0.865
  458SOL    HW1 1379   2.440   2.465   0.791
  458SOL    HW2 1380   2.474   2.433   0.948
  459SOL     OW 1381   2.366   1.912   1.740
  459SOL    HW1 1382   2.324   1.855   1.670
  459SOL    HW2 1383   2.300   1.981   1.772
  460SOL     OW 1384   2.169   2.075   1.231
  460SOL    HW1 1385   2.146   2.112   1.321
  460SOL    HW2 1386   2.139   1.980   1.225
  461SOL     OW 1387   2.169   1.925   0.618
  461SOL    HW1 1388   2.158   2.019   0.651
  461SOL    HW2 1389   2.164   1.862   0.695
  462SOL     OW 1390   2.201   2.371   1.006
  462SOL    HW1 1391   2.149   2.288   0.989
  462SOL    HW2 1392   2.278   2.376   0.942
  463SOL     OW 1393   1.902   2.406   1.114
  463SOL    HW1 1394   1.987   2.373   1.073
  463SOL    HW2 1395   1.915   2.421   1.212
  464SOL     OW 1396   2.051   2.382   1.722
  464SOL    HW1 1397   2.110   2.342   1.652
  464SOL    HW2 1398   1.993   2.453   1.681
  465SOL     OW 1399   2.125   2.188   0.720
  465SOL    HW1 1400   2.046   2.239   0.686
  465SOL    HW2 1401   2.116   2.173   0.818
  466SOL     OW 1402   1.937   2.207   0.033
  466SOL    HW1 1403   1.845   2.179   0.004
  466SOL    HW2 1404   1.968   2.284  -0.023
  467SOL     OW 1405   1.934   2.028   0.318
  467SOL    HW1 1406   1.917   2.111   0.264
  467SOL    HW2 1407   2.024   1.991   0.296
  468SOL     OW 1408   2.290   2.286   0.520
  468SOL    HW1 1409   2.320   2.214   0.458
  468SOL    HW2 1410   2.251   2.246   0.603
  469SOL     OW 1411   2.179   2.409   1.280
  469SOL    HW1 1412   2.217   2.350   1.352
  469SOL    HW2 1413   2.219   2.383   1.192
  470SOL     OW 1414   2.244   2.562   2.342
  470SOL    HW1 1415   2.289   2.472   2.339
  470SOL    HW2 1416   2.150   2.551   2.375
  471SOL     OW 1417   2.476   1.984   1.979
  471SOL    HW1 1418   2.574   1.962   1.986
  471SOL    HW2 1419   2.445   1.967   1.886
  472SOL     OW 1420   2.159   1.897   2.033
  472SOL    HW1 1421   2.208   1.981   2.012
  472SOL    HW2 1422   2.221   1.832   2.078
  473SOL     OW 1423   2.169   1.925   2.480
  473SOL    HW1 1424   2.158   2.019   2.513
  473SOL    HW2 1425   2.164   1.862   2.557
  474SOL     OW 1426   1.937   2.207   1.895
  474SOL    HW1 1427   1.845   2.179   1.866
  474SOL    HW2 1428   1.968   2.284   1.839
  475SOL     OW 1429   1.934   2.028   2.180
  475SOL    HW1 1430   1.917   2.111   2.126
  475SOL    HW2 1431   2.024   1.991   2.158
  476SOL     OW 1432   2.290   2.286   2.382
  476SOL    HW1 1433   2.320   2.214   2.320
  476SOL    HW2 1434   2.251   2.246   2.465
   2.45477   2.45477   2.45477
