; mobley_8789465_GMX.itp created by acpype (v: 2023.10.27) on Thu May 14 13:25:03 2026

[ atomtypes ]
;name   bond_type     mass     charge   ptype   sigma         epsilon       Amb
 ca       ca          0.00000  0.00000   A     3.31521e-01   4.13379e-01 ; 1.86  0.0988
 oh       oh          0.00000  0.00000   A     3.24287e-01   3.89112e-01 ; 1.82  0.0930
 i        i           0.00000  0.00000   A     3.84120e-01   2.07317e+00 ; 2.16  0.4955
 ha       ha          0.00000  0.00000   A     2.62548e-01   6.73624e-02 ; 1.47  0.0161
 ho       ho          0.00000  0.00000   A     5.37925e-02   1.96648e-02 ; 0.30  0.0047

[ moleculetype ]
;name            nrexcl
 mobley_8789465   3

[ atoms ]
;   nr  type  resi  res  atom  cgnr     charge      mass       ; qtot   bond_type
     1   ca     1   MOL    C1    1    -0.079000     12.01000 ; qtot -0.079
     2   ca     1   MOL    C2    2    -0.170000     12.01000 ; qtot -0.249
     3   ca     1   MOL    C3    3    -0.161000     12.01000 ; qtot -0.410
     4   ca     1   MOL    C4    4    -0.063000     12.01000 ; qtot -0.473
     5   ca     1   MOL    C5    5     0.164100     12.01000 ; qtot -0.309
     6   ca     1   MOL    C6    6    -0.065100     12.01000 ; qtot -0.374
     7   oh     1   MOL    O1    7    -0.490100     16.00000 ; qtot -0.864
     8    i     1   MOL    I1    8    -0.142900    126.90000 ; qtot -1.007
     9   ha     1   MOL    H1    9     0.139000      1.00800 ; qtot -0.868
    10   ha     1   MOL    H2   10     0.139000      1.00800 ; qtot -0.729
    11   ha     1   MOL    H3   11     0.155000      1.00800 ; qtot -0.574
    12   ha     1   MOL    H4   12     0.144000      1.00800 ; qtot -0.430
    13   ho     1   MOL    H5   13     0.430000      1.00800 ; qtot 0.000

[ bonds ]
;   ai     aj funct   r             k
     1      2   1    1.3986e-01    2.9644e+05 ;     C1 - C2    
     1      3   1    1.3986e-01    2.9644e+05 ;     C1 - C3    
     1      9   1    1.0860e-01    3.0183e+05 ;     C1 - H1    
     2      4   1    1.3986e-01    2.9644e+05 ;     C2 - C4    
     2     10   1    1.0860e-01    3.0183e+05 ;     C2 - H2    
     3      5   1    1.3986e-01    2.9644e+05 ;     C3 - C5    
     3     11   1    1.0860e-01    3.0183e+05 ;     C3 - H3    
     4      6   1    1.3986e-01    2.9644e+05 ;     C4 - C6    
     4     12   1    1.0860e-01    3.0183e+05 ;     C4 - H4    
     5      6   1    1.3986e-01    2.9644e+05 ;     C5 - C6    
     5      7   1    1.3644e-01    2.9167e+05 ;     C5 - O1    
     6      8   1    2.1569e-01    8.9588e+04 ;     C6 - I1    
     7     13   1    9.7250e-02    4.4811e+05 ;     O1 - H5    

[ pairs ]
;   ai     aj    funct
     1      6      1 ;     C1 - C6    
     1      7      1 ;     C1 - O1    
     1     12      1 ;     C1 - H4    
     2      5      1 ;     C2 - C5    
     2      8      1 ;     C2 - I1    
     2     11      1 ;     C2 - H3    
     3      4      1 ;     C3 - C4    
     3      8      1 ;     C3 - I1    
     3     10      1 ;     C3 - H2    
     3     13      1 ;     C3 - H5    
     4      7      1 ;     C4 - O1    
     5     12      1 ;     C5 - H4    
     6     10      1 ;     C6 - H2    
     6     11      1 ;     C6 - H3    
     6     13      1 ;     C6 - H5    
     7      8      1 ;     O1 - I1    
     7     11      1 ;     O1 - H3    
     8     12      1 ;     I1 - H4    
     9      4      1 ;     H1 - C4    
     9      5      1 ;     H1 - C5    
     9     10      1 ;     H1 - H2    
     9     11      1 ;     H1 - H3    
    10     12      1 ;     H2 - H4    

[ angles ]
;   ai     aj     ak    funct   theta         cth
     1      2      4      1    1.2002e+02    5.3279e+02 ;     C1 - C2     - C4    
     1      2     10      1    1.1988e+02    3.7572e+02 ;     C1 - C2     - H2    
     1      3      5      1    1.2002e+02    5.3279e+02 ;     C1 - C3     - C5    
     1      3     11      1    1.1988e+02    3.7572e+02 ;     C1 - C3     - H3    
     2      1      3      1    1.2002e+02    5.3279e+02 ;     C2 - C1     - C3    
     2      1      9      1    1.1988e+02    3.7572e+02 ;     C2 - C1     - H1    
     2      4      6      1    1.2002e+02    5.3279e+02 ;     C2 - C4     - C6    
     2      4     12      1    1.1988e+02    3.7572e+02 ;     C2 - C4     - H4    
     3      1      9      1    1.1988e+02    3.7572e+02 ;     C3 - C1     - H1    
     3      5      6      1    1.2002e+02    5.3279e+02 ;     C3 - C5     - C6    
     3      5      7      1    1.1990e+02    6.5990e+02 ;     C3 - C5     - O1    
     4      2     10      1    1.1988e+02    3.7572e+02 ;     C4 - C2     - H2    
     4      6      5      1    1.2002e+02    5.3279e+02 ;     C4 - C6     - C5    
     4      6      8      1    1.1917e+02    4.8752e+02 ;     C4 - C6     - I1    
     5      3     11      1    1.1988e+02    3.7572e+02 ;     C5 - C3     - H3    
     5      6      8      1    1.1917e+02    4.8752e+02 ;     C5 - C6     - I1    
     5      7     13      1    1.0858e+02    5.6409e+02 ;     C5 - O1     - H5    
     6      4     12      1    1.1988e+02    3.7572e+02 ;     C6 - C4     - H4    
     6      5      7      1    1.1990e+02    6.5990e+02 ;     C6 - C5     - O1    

[ dihedrals ] ; propers
; for gromacs 4.5 or higher, using funct 9
;    i      j      k      l   func   phase     kd      pn
     1      2      4      6      9   180.00  15.16700   2 ;     C1-    C2-    C4-    C6
     1      2      4     12      9   180.00  15.16700   2 ;     C1-    C2-    C4-    H4
     1      3      5      6      9   180.00  15.16700   2 ;     C1-    C3-    C5-    C6
     1      3      5      7      9   180.00  15.16700   2 ;     C1-    C3-    C5-    O1
     2      1      3      5      9   180.00  15.16700   2 ;     C2-    C1-    C3-    C5
     2      1      3     11      9   180.00  15.16700   2 ;     C2-    C1-    C3-    H3
     2      4      6      5      9   180.00  15.16700   2 ;     C2-    C4-    C6-    C5
     2      4      6      8      9   180.00  15.16700   2 ;     C2-    C4-    C6-    I1
     3      1      2      4      9   180.00  15.16700   2 ;     C3-    C1-    C2-    C4
     3      1      2     10      9   180.00  15.16700   2 ;     C3-    C1-    C2-    H2
     3      5      6      4      9   180.00  15.16700   2 ;     C3-    C5-    C6-    C4
     3      5      6      8      9   180.00  15.16700   2 ;     C3-    C5-    C6-    I1
     3      5      7     13      9   180.00   3.57732   2 ;     C3-    C5-    O1-    H5
     4      6      5      7      9   180.00  15.16700   2 ;     C4-    C6-    C5-    O1
     5      6      4     12      9   180.00  15.16700   2 ;     C5-    C6-    C4-    H4
     6      4      2     10      9   180.00  15.16700   2 ;     C6-    C4-    C2-    H2
     6      5      3     11      9   180.00  15.16700   2 ;     C6-    C5-    C3-    H3
     6      5      7     13      9   180.00   3.57732   2 ;     C6-    C5-    O1-    H5
     7      5      3     11      9   180.00  15.16700   2 ;     O1-    C5-    C3-    H3
     7      5      6      8      9   180.00  15.16700   2 ;     O1-    C5-    C6-    I1
     8      6      4     12      9   180.00  15.16700   2 ;     I1-    C6-    C4-    H4
     9      1      2      4      9   180.00  15.16700   2 ;     H1-    C1-    C2-    C4
     9      1      2     10      9   180.00  15.16700   2 ;     H1-    C1-    C2-    H2
     9      1      3      5      9   180.00  15.16700   2 ;     H1-    C1-    C3-    C5
     9      1      3     11      9   180.00  15.16700   2 ;     H1-    C1-    C3-    H3
    10      2      4     12      9   180.00  15.16700   2 ;     H2-    C2-    C4-    H4

[ dihedrals ] ; impropers
; treated as propers in GROMACS to use correct AMBER analytical function
;    i      j      k      l   func   phase     kd      pn
     1      4      2     10      4   180.00   4.60240   2 ;     C1-    C4-    C2-    H2
     1      5      3     11      4   180.00   4.60240   2 ;     C1-    C5-    C3-    H3
     2      6      4     12      4   180.00   4.60240   2 ;     C2-    C6-    C4-    H4
     3      6      5      7      4   180.00   4.60240   2 ;     C3-    C6-    C5-    O1
     4      5      6      8      4   180.00   4.60240   2 ;     C4-    C5-    C6-    I1
     9      1      3      2      4   180.00   4.60240   2 ;     H1-    C1-    C3-    C2
