mobley_3264884_GMX.gro created by acpype (v: 2023.10.27) on Thu May 14 13:25:12 2026
 2159
    1MOL     C1    1   1.141   1.536   1.447
    1MOL     C2    2   1.232   1.639   1.421
    1MOL     C3    3   1.184   1.404   1.449
    1MOL     C4    4   1.366   1.609   1.399
    1MOL     C5    5   1.364   1.239   1.430
    1MOL     C6    6   1.499   1.209   1.407
    1MOL     C7    7   1.546   1.444   1.379
    1MOL     C8    8   1.319   1.372   1.427
    1MOL     C9    9   1.411   1.476   1.402
    1MOL    C10   10   1.590   1.312   1.382
    1MOL     N1   11   1.726   1.281   1.360
    1MOL     H1   12   1.036   1.560   1.464
    1MOL     H2   13   1.198   1.742   1.419
    1MOL     H3   14   1.111   1.325   1.469
    1MOL     H4   15   1.435   1.690   1.379
    1MOL     H5   16   1.295   1.157   1.449
    1MOL     H6   17   1.531   1.105   1.410
    1MOL     H7   18   1.618   1.523   1.359
    1MOL     H8   19   1.750   1.192   1.322
    1MOL     H9   20   1.796   1.346   1.390
    2SOL     OW   21   0.230   0.628   0.113
    2SOL    HW1   22   0.137   0.626   0.150
    2SOL    HW2   23   0.231   0.589   0.021
    3SOL     OW   24   0.225   0.275   0.996
    3SOL    HW1   25   0.260   0.258   1.088
    3SOL    HW2   26   0.137   0.230   0.984
    4SOL     OW   27   0.019   0.368   0.647
    4SOL    HW1   28  -0.063   0.411   0.686
    4SOL    HW2   29  -0.009   0.295   0.584
    5SOL     OW   30   0.569   1.275   1.165
    5SOL    HW1   31   0.476   1.268   1.128
    5SOL    HW2   32   0.580   1.364   1.209
    6SOL     OW   33   1.555   1.511   0.703
    6SOL    HW1   34   1.498   1.495   0.784
    6SOL    HW2   35   1.496   1.521   0.623
    7SOL     OW   36   1.135   0.703   0.717
    7SOL    HW1   37   1.192   0.781   0.692
    7SOL    HW2   38   1.075   0.729   0.793
    8SOL     OW   39   1.755   0.607   0.231
    8SOL    HW1   40   1.743   0.594   0.132
    8SOL    HW2   41   1.725   0.526   0.280
    9SOL     OW   42   0.768   1.144   1.023
    9SOL    HW1   43   0.690   1.161   1.083
    9SOL    HW2   44   0.802   1.231   0.987
   10SOL     OW   45   0.850   0.798   1.823
   10SOL    HW1   46   0.846   0.874   1.888
   10SOL    HW2   47   0.872   0.834   1.732
   11SOL     OW   48   0.685   1.012   0.665
   11SOL    HW1   49   0.754   0.996   0.735
   11SOL    HW2   50   0.612   1.069   0.703
   12SOL     OW   51   0.686   1.161   1.803
   12SOL    HW1   52   0.746   1.240   1.817
   12SOL    HW2   53   0.600   1.192   1.762
   13SOL     OW   54   0.335   1.435   1.061
   13SOL    HW1   55   0.257   1.404   1.008
   13SOL    HW2   56   0.393   1.493   1.004
   14SOL     OW   57   0.438   0.392   1.499
   14SOL    HW1   58   0.520   0.336   1.508
   14SOL    HW2   59   0.357   0.334   1.503
   15SOL     OW   60   1.603   0.447   0.737
   15SOL    HW1   61   1.529   0.493   0.687
   15SOL    HW2   62   1.654   0.515   0.790
   16SOL     OW   63   0.231   1.713   0.483
   16SOL    HW1   64   0.265   1.790   0.537
   16SOL    HW2   65   0.275   1.713   0.393
   17SOL     OW   66   1.127   1.341   1.690
   17SOL    HW1   67   1.174   1.341   1.778
   17SOL    HW2   68   1.079   1.254   1.679
   18SOL     OW   69   0.230   1.434   0.538
   18SOL    HW1   70   0.204   1.530   0.538
   18SOL    HW2   71   0.159   1.380   0.583
   19SOL     OW   72   0.240   1.091   0.886
   19SOL    HW1   73   0.254   1.007   0.938
   19SOL    HW2   74   0.185   1.155   0.941
   20SOL     OW   75   0.620   1.786   1.439
   20SOL    HW1   76   0.528   1.769   1.474
   20SOL    HW2   77   0.648   1.878   1.465
   21SOL     OW   78   0.606   0.964   0.123
   21SOL    HW1   79   0.613   1.048   0.069
   21SOL    HW2   80   0.652   0.977   0.211
   22SOL     OW   81   1.594   0.114   1.480
   22SOL    HW1   82   1.576   0.181   1.408
   22SOL    HW2   83   1.591   0.160   1.569
   23SOL     OW   84   0.122   0.643   0.563
   23SOL    HW1   85   0.077   0.555   0.580
   23SOL    HW2   86   0.121   0.697   0.647
   24SOL     OW   87   1.842   1.767   0.359
   24SOL    HW1   88   1.896   1.738   0.439
   24SOL    HW2   89   1.872   1.857   0.330
   25SOL     OW   90   0.027   1.596   0.117
   25SOL    HW1   91   0.008   1.500   0.138
   25SOL    HW2   92  -0.006   1.654   0.192
   26SOL     OW   93   1.689   0.922   0.612
   26SOL    HW1   94   1.784   0.893   0.620
   26SOL    HW2   95   1.681   0.987   0.537
   27SOL     OW   96   1.641   1.108   0.432
   27SOL    HW1   97   1.727   1.110   0.380
   27SOL    HW2   98   1.655   1.155   0.520
   28SOL     OW   99   0.113   0.737   1.597
   28SOL    HW1  100   0.201   0.724   1.642
   28SOL    HW2  101   0.100   0.834   1.575
   29SOL     OW  102   0.613   1.365   0.726
   29SOL    HW1  103   0.564   1.278   0.735
   29SOL    HW2  104   0.590   1.408   0.639
   30SOL     OW  105   0.809   0.004   0.502
   30SOL    HW1  106   0.849   0.095   0.493
   30SOL    HW2  107   0.709   0.012   0.508
   31SOL     OW  108   0.197   0.976   1.264
   31SOL    HW1  109   0.286   0.931   1.250
   31SOL    HW2  110   0.124   0.911   1.245
   32SOL     OW  111   1.525   0.999   0.190
   32SOL    HW1  112   1.462   0.923   0.203
   32SOL    HW2  113   1.573   1.017   0.276
   33SOL     OW  114   1.187   1.792   1.616
   33SOL    HW1  115   1.211   1.852   1.540
   33SOL    HW2  116   1.194   1.697   1.586
   34SOL     OW  117   0.317   0.251   1.801
   34SOL    HW1  118   0.388   0.322   1.807
   34SOL    HW2  119   0.229   0.290   1.829
   35SOL     OW  120   1.466   1.417   0.953
   35SOL    HW1  121   1.407   1.423   1.033
   35SOL    HW2  122   1.451   1.329   0.907
   36SOL     OW  123   1.667   1.714   0.572
   36SOL    HW1  124   1.626   1.691   0.484
   36SOL    HW2  125   1.649   1.640   0.637
   37SOL     OW  126   0.598   0.729   0.270
   37SOL    HW1  127   0.622   0.798   0.202
   37SOL    HW2  128   0.520   0.762   0.324
   38SOL     OW  129   1.281   0.345   0.944
   38SOL    HW1  130   1.195   0.295   0.931
   38SOL    HW2  131   1.343   0.291   1.000
   39SOL     OW  132   1.576   1.662   0.307
   39SOL    HW1  133   1.665   1.708   0.310
   39SOL    HW2  134   1.555   1.638   0.212
   40SOL     OW  135   0.807   0.605   1.465
   40SOL    HW1  136   0.760   0.602   1.554
   40SOL    HW2  137   0.756   0.550   1.399
   41SOL     OW  138   1.394   0.469   1.674
   41SOL    HW1  139   1.374   0.512   1.762
   41SOL    HW2  140   1.472   0.407   1.683
   42SOL     OW  141   0.973   0.890   1.572
   42SOL    HW1  142   1.019   0.806   1.543
   42SOL    HW2  143   0.917   0.924   1.497
   43SOL     OW  144   0.991   0.410   1.242
   43SOL    HW1  145   0.914   0.444   1.296
   43SOL    HW2  146   0.957   0.359   1.163
   44SOL     OW  147   1.041   0.701   0.429
   44SOL    HW1  148   1.067   0.697   0.525
   44SOL    HW2  149   0.956   0.650   0.415
   45SOL     OW  150   0.076   0.811   0.789
   45SOL    HW1  151   0.175   0.799   0.798
   45SOL    HW2  152   0.052   0.906   0.810
   46SOL     OW  153   0.130   1.821   1.571
   46SOL    HW1  154   0.120   1.806   1.670
   46SOL    HW2  155   0.044   1.857   1.535
   47SOL     OW  156   0.865   0.348   0.195
   47SOL    HW1  157   0.924   0.411   0.146
   47SOL    HW2  158   0.884   0.254   0.166
   48SOL     OW  159   1.719   0.585   1.831
   48SOL    HW1  160   1.693   0.674   1.795
   48SOL    HW2  161   1.717   0.517   1.758
   49SOL     OW  162   1.362   1.144   0.545
   49SOL    HW1  163   1.445   1.115   0.497
   49SOL    HW2  164   1.313   1.211   0.489
   50SOL     OW  165   0.550   0.196   0.885
   50SOL    HW1  166   0.545   0.191   0.985
   50SOL    HW2  167   0.552   0.292   0.856
   51SOL     OW  168   1.008   1.456   0.477
   51SOL    HW1  169   0.962   1.528   0.425
   51SOL    HW2  170   1.004   1.476   0.575
   52SOL     OW  171   0.351   1.801   0.853
   52SOL    HW1  172   0.401   1.715   0.859
   52SOL    HW2  173   0.416   1.878   0.850
   53SOL     OW  174   1.795   1.066   0.873
   53SOL    HW1  175   1.733   1.051   0.797
   53SOL    HW2  176   1.743   1.077   0.958
   54SOL     OW  177   0.321   0.943   0.242
   54SOL    HW1  178   0.403   0.982   0.200
   54SOL    HW2  179   0.294   0.861   0.193
   55SOL     OW  180   1.458   0.735   0.728
   55SOL    HW1  181   1.453   0.670   0.803
   55SOL    HW2  182   1.538   0.794   0.741
   56SOL     OW  183   0.461   1.266   1.727
   56SOL    HW1  184   0.411   1.267   1.641
   56SOL    HW2  185   0.398   1.248   1.803
   57SOL     OW  186   1.111   1.776   0.237
   57SOL    HW1  187   1.051   1.714   0.287
   57SOL    HW2  188   1.142   1.732   0.152
   58SOL     OW  189   0.202   0.285   1.498
   58SOL    HW1  190   0.122   0.345   1.485
   58SOL    HW2  191   0.192   0.236   1.584
   59SOL     OW  192   1.632   1.377   0.081
   59SOL    HW1  193   1.600   1.471   0.071
   59SOL    HW2  194   1.556   1.314   0.069
   60SOL     OW  195   0.464   1.743   0.323
   60SOL    HW1  196   0.497   1.782   0.409
   60SOL    HW2  197   0.540   1.736   0.258
   61SOL     OW  198   1.400   0.107   0.426
   61SOL    HW1  199   1.376   0.070   0.336
   61SOL    HW2  200   1.499   0.123   0.430
   62SOL     OW  201   0.249   1.785   1.241
   62SOL    HW1  202   0.306   1.720   1.291
   62SOL    HW2  203   0.233   1.752   1.148
   63SOL     OW  204   0.940   1.698   0.904
   63SOL    HW1  205   1.020   1.641   0.925
   63SOL    HW2  206   0.891   1.658   0.827
   64SOL     OW  207   0.382   0.700   0.480
   64SOL    HW1  208   0.427   0.610   0.477
   64SOL    HW2  209   0.288   0.689   0.513
   65SOL     OW  210   1.547   0.222   1.729
   65SOL    HW1  211   1.542   0.259   1.821
   65SOL    HW2  212   1.475   0.153   1.717
   66SOL     OW  213   0.614   0.122   0.117
   66SOL    HW1  214   0.712   0.100   0.124
   66SOL    HW2  215   0.583   0.105   0.024
   67SOL     OW  216   0.781   0.264   1.749
   67SOL    HW1  217   0.848   0.203   1.792
   67SOL    HW2  218   0.708   0.283   1.814
   68SOL     OW  219   0.888   1.514   1.195
   68SOL    HW1  220   0.865   1.489   1.101
   68SOL    HW2  221   0.949   1.445   1.234
   69SOL     OW  222   1.351   0.590   1.433
   69SOL    HW1  223   1.379   0.547   1.518
   69SOL    HW2  224   1.376   0.686   1.434
   70SOL     OW  225   0.803   1.402   0.924
   70SOL    HW1  226   0.893   1.416   0.882
   70SOL    HW2  227   0.732   1.404   0.853
   71SOL     OW  228   0.922   0.503   0.899
   71SOL    HW1  229   0.897   0.494   0.803
   71SOL    HW2  230   0.970   0.421   0.930
   72SOL     OW  231   0.539   0.064   0.512
   72SOL    HW1  232   0.458   0.065   0.570
   72SOL    HW2  233   0.542   0.147   0.457
   73SOL     OW  234   1.434   1.188   0.041
   73SOL    HW1  235   1.466   1.112   0.098
   73SOL    HW2  236   1.342   1.215   0.071
   74SOL     OW  237   0.297   0.035   0.171
   74SOL    HW1  238   0.346   0.119   0.150
   74SOL    HW2  239   0.359  -0.030   0.216
   75SOL     OW  240   0.935   0.236   0.480
   75SOL    HW1  241   0.887   0.277   0.402
   75SOL    HW2  242   1.034   0.234   0.461
   76SOL     OW  243   1.076   0.683   1.464
   76SOL    HW1  244   0.996   0.622   1.467
   76SOL    HW2  245   1.157   0.630   1.440
   77SOL     OW  246   1.227   1.570   0.793
   77SOL    HW1  247   1.248   1.644   0.728
   77SOL    HW2  248   1.295   1.570   0.866
   78SOL     OW  249   0.459   1.152   0.741
   78SOL    HW1  250   0.388   1.125   0.806
   78SOL    HW2  251   0.433   1.124   0.648
   79SOL     OW  252   1.271   1.797   0.591
   79SOL    HW1  253   1.315   1.861   0.527
   79SOL    HW2  254   1.221   1.849   0.661
   80SOL     OW  255   1.032   0.549   0.016
   80SOL    HW1  256   0.991   0.631  -0.023
   80SOL    HW2  257   1.096   0.575   0.089
   81SOL     OW  258   0.078   0.556   1.386
   81SOL    HW1  259   0.170   0.555   1.345
   81SOL    HW2  260   0.072   0.630   1.453
   82SOL     OW  261   0.561   0.222   1.147
   82SOL    HW1  262   0.599   0.138   1.184
   82SOL    HW2  263   0.473   0.241   1.191
   83SOL     OW  264   0.866   0.454   0.642
   83SOL    HW1  265   0.834   0.526   0.580
   83SOL    HW2  266   0.890   0.373   0.589
   84SOL     OW  267   1.017   0.039   0.753
   84SOL    HW1  268   0.945   0.044   0.684
   84SOL    HW2  269   0.993  -0.030   0.822
   85SOL     OW  270   1.429   1.173   0.867
   85SOL    HW1  271   1.374   1.089   0.860
   85SOL    HW2  272   1.455   1.202   0.775
   86SOL     OW  273   1.466   0.590   0.992
   86SOL    HW1  274   1.436   0.495   0.999
   86SOL    HW2  275   1.539   0.606   1.058
   87SOL     OW  276   1.857   0.833   0.377
   87SOL    HW1  277   1.899   0.769   0.441
   87SOL    HW2  278   1.819   0.782   0.299
   88SOL     OW  279   0.488   1.385   0.174
   88SOL    HW1  280   0.401   1.370   0.221
   88SOL    HW2  281   0.471   1.411   0.079
   89SOL     OW  282   1.664   1.280   0.657
   89SOL    HW1  283   1.763   1.288   0.671
   89SOL    HW2  284   1.619   1.364   0.688
   90SOL     OW  285   1.390   0.575   0.078
   90SOL    HW1  286   1.336   0.554   0.159
   90SOL    HW2  287   1.481   0.534   0.087
   91SOL     OW  288   0.527   0.256   0.328
   91SOL    HW1  289   0.554   0.197   0.253
   91SOL    HW2  290   0.527   0.351   0.297
   92SOL     OW  291   1.754   1.223   1.588
   92SOL    HW1  292   1.845   1.184   1.575
   92SOL    HW2  293   1.762   1.319   1.612
   93SOL     OW  294   1.592   1.629   1.625
   93SOL    HW1  295   1.619   1.663   1.535
   93SOL    HW2  296   1.671   1.591   1.671
   94SOL     OW  297   1.111   1.195   1.100
   94SOL    HW1  298   1.071   1.239   1.181
   94SOL    HW2  299   1.070   1.232   1.017
   95SOL     OW  300   1.638   1.099   1.079
   95SOL    HW1  301   1.643   1.180   1.138
   95SOL    HW2  302   1.552   1.101   1.028
   96SOL     OW  303   0.915   0.089   1.402
   96SOL    HW1  304   0.940   0.069   1.307
   96SOL    HW2  305   0.987   0.145   1.444
   97SOL     OW  306   0.980   1.116   1.719
   97SOL    HW1  307   0.881   1.122   1.729
   97SOL    HW2  308   1.003   1.036   1.663
   98SOL     OW  309   0.705   1.050   0.368
   98SOL    HW1  310   0.691   1.057   0.467
   98SOL    HW2  311   0.789   0.999   0.350
   99SOL     OW  312   0.410   0.813   1.251
   99SOL    HW1  313   0.496   0.825   1.301
   99SOL    HW2  314   0.368   0.726   1.278
  100SOL     OW  315   1.274   0.386   1.262
  100SOL    HW1  316   1.295   0.460   1.326
  100SOL    HW2  317   1.185   0.403   1.219
  101SOL     OW  318   0.064   1.564   1.331
  101SOL    HW1  319   0.018   1.646   1.297
  101SOL    HW2  320   0.162   1.583   1.340
  102SOL     OW  321   0.367   1.100   0.501
  102SOL    HW1  322   0.360   1.183   0.445
  102SOL    HW2  323   0.371   1.020   0.441
  103SOL     OW  324   0.566   0.537   0.865
  103SOL    HW1  325   0.578   0.603   0.791
  103SOL    HW2  326   0.612   0.571   0.948
  104SOL     OW  327   1.252   1.348   0.388
  104SOL    HW1  328   1.302   1.425   0.428
  104SOL    HW2  329   1.157   1.350   0.420
  105SOL     OW  330   1.272   1.445   1.142
  105SOL    HW1  331   1.319   1.458   1.229
  105SOL    HW2  332   1.206   1.371   1.151
  106SOL     OW  333   1.582   0.639   0.472
  106SOL    HW1  334   1.551   0.700   0.545
  106SOL    HW2  335   1.632   0.691   0.403
  107SOL     OW  336   0.354   1.510   1.329
  107SOL    HW1  337   0.333   1.466   1.242
  107SOL    HW2  338   0.451   1.536   1.332
  108SOL     OW  339   0.402   0.751   1.598
  108SOL    HW1  340   0.470   0.806   1.551
  108SOL    HW2  341   0.442   0.663   1.625
  109SOL     OW  342   1.587   0.779   1.670
  109SOL    HW1  343   1.495   0.817   1.665
  109SOL    HW2  344   1.647   0.826   1.605
  110SOL     OW  345   1.013   0.105   1.770
  110SOL    HW1  346   1.019   0.190   1.718
  110SOL    HW2  347   1.045   0.029   1.713
  111SOL     OW  348   0.504   0.050   1.740
  111SOL    HW1  349   0.462  -0.007   1.670
  111SOL    HW2  350   0.438   0.119   1.772
  112SOL     OW  351   0.573   0.870   1.029
  112SOL    HW1  352   0.617   0.959   1.020
  112SOL    HW2  353   0.510   0.870   1.106
  113SOL     OW  354   1.360   0.862   1.045
  113SOL    HW1  355   1.285   0.862   0.979
  113SOL    HW2  356   1.397   0.770   1.054
  114SOL     OW  357   1.209   0.525   0.275
  114SOL    HW1  358   1.222   0.441   0.329
  114SOL    HW2  359   1.180   0.599   0.335
  115SOL     OW  360   0.307   0.213   1.231
  115SOL    HW1  361   0.284   0.250   1.321
  115SOL    HW2  362   0.277   0.118   1.225
  116SOL     OW  363   0.037   1.310   1.282
  116SOL    HW1  364   0.090   1.261   1.350
  116SOL    HW2  365   0.059   1.408   1.287
  117SOL     OW  366   0.732   0.634   1.064
  117SOL    HW1  367   0.791   0.608   0.988
  117SOL    HW2  368   0.704   0.730   1.053
  118SOL     OW  369   1.728   0.935   1.854
  118SOL    HW1  370   1.682   0.928   1.765
  118SOL    HW2  371   1.666   0.979   1.920
  119SOL     OW  372   0.307   0.063   0.618
  119SOL    HW1  373   0.296   0.157   0.651
  119SOL    HW2  374   0.302   0.000   0.695
  120SOL     OW  375   1.622   0.367   0.374
  120SOL    HW1  376   1.624   0.291   0.438
  120SOL    HW2  377   1.574   0.444   0.414
  121SOL     OW  378   1.023   0.766   0.966
  121SOL    HW1  379   1.038   0.787   1.062
  121SOL    HW2  380   0.993   0.671   0.957
  122SOL     OW  381   0.980   1.573   1.700
  122SOL    HW1  382   0.960   1.617   1.612
  122SOL    HW2  383   1.019   1.482   1.684
  123SOL     OW  384   1.859   1.518   1.605
  123SOL    HW1  385   1.873   1.545   1.510
  123SOL    HW2  386   1.942   1.540   1.658
  124SOL     OW  387   0.350   0.898   1.804
  124SOL    HW1  388   0.426   0.942   1.852
  124SOL    HW2  389   0.385   0.851   1.722
  125SOL     OW  390   1.540   0.274   0.125
  125SOL    HW1  391   1.479   0.199   0.148
  125SOL    HW2  392   1.562   0.326   0.208
  126SOL     OW  393   1.303   0.838   0.042
  126SOL    HW1  394   1.337   0.745   0.057
  126SOL    HW2  395   1.321   0.865  -0.053
  127SOL     OW  396   1.068   1.333   0.849
  127SOL    HW1  397   1.075   1.249   0.794
  127SOL    HW2  398   1.130   1.402   0.813
  128SOL     OW  399   0.319   0.810   0.949
  128SOL    HW1  400   0.412   0.846   0.954
  128SOL    HW2  401   0.313   0.725   1.001
  129SOL     OW  402   0.339   0.509   1.006
  129SOL    HW1  403   0.287   0.426   0.989
  129SOL    HW2  404   0.416   0.514   0.942
  130SOL     OW  405   1.138   0.380   1.678
  130SOL    HW1  406   1.093   0.443   1.742
  130SOL    HW2  407   1.231   0.411   1.661
  131SOL     OW  408   1.160   0.207   1.477
  131SOL    HW1  409   1.160   0.271   1.554
  131SOL    HW2  410   1.188   0.255   1.394
  132SOL     OW  411   0.008   1.326   0.200
  132SOL    HW1  412  -0.085   1.347   0.169
  132SOL    HW2  413   0.018   1.227   0.213
  133SOL     OW  414   0.088   1.801   0.927
  133SOL    HW1  415   0.046   1.715   0.900
  133SOL    HW2  416   0.182   1.804   0.893
  134SOL     OW  417   0.504   1.568   0.910
  134SOL    HW1  418   0.570   1.642   0.919
  134SOL    HW2  419   0.548   1.489   0.868
  135SOL     OW  420   1.002   0.796   1.238
  135SOL    HW1  421   1.043   0.764   1.324
  135SOL    HW2  422   0.906   0.769   1.235
  136SOL     OW  423   0.040   0.544   1.114
  136SOL    HW1  424   0.125   0.511   1.073
  136SOL    HW2  425   0.053   0.559   1.212
  137SOL     OW  426   0.189   0.520   1.722
  137SOL    HW1  427   0.248   0.480   1.652
  137SOL    HW2  428   0.131   0.591   1.681
  138SOL     OW  429   1.369   0.950   1.660
  138SOL    HW1  430   1.408   1.039   1.680
  138SOL    HW2  431   1.379   0.930   1.563
  139SOL     OW  432   0.815   0.572   0.325
  139SOL    HW1  433   0.822   0.483   0.279
  139SOL    HW2  434   0.721   0.606   0.317
  140SOL     OW  435   1.657   0.604   1.206
  140SOL    HW1  436   1.619   0.535   1.268
  140SOL    HW2  437   1.739   0.568   1.162
  141SOL     OW  438   0.252   1.564   1.744
  141SOL    HW1  439   0.222   1.621   1.820
  141SOL    HW2  440   0.245   1.467   1.770
  142SOL     OW  441   0.671   0.464   1.269
  142SOL    HW1  442   0.637   0.375   1.239
  142SOL    HW2  443   0.697   0.518   1.189
  143SOL     OW  444   0.930   1.678   1.465
  143SOL    HW1  445   0.906   1.660   1.370
  143SOL    HW2  446   0.960   1.772   1.475
  144SOL     OW  447   0.473   0.500   0.191
  144SOL    HW1  448   0.534   0.580   0.195
  144SOL    HW2  449   0.378   0.531   0.198
  145SOL     OW  450   0.159   1.137   1.466
  145SOL    HW1  451   0.181   1.076   1.542
  145SOL    HW2  452   0.169   1.088   1.380
  146SOL     OW  453   1.347   1.059   1.234
  146SOL    HW1  454   1.371   0.996   1.160
  146SOL    HW2  455   1.257   1.099   1.216
  147SOL     OW  456   1.302   0.855   0.309
  147SOL    HW1  457   1.216   0.824   0.351
  147SOL    HW2  458   1.298   0.841   0.210
  148SOL     OW  459   1.759   1.747   1.154
  148SOL    HW1  460   1.820   1.777   1.081
  148SOL    HW2  461   1.721   1.658   1.132
  149SOL     OW  462   1.252   1.731   1.128
  149SOL    HW1  463   1.336   1.736   1.074
  149SOL    HW2  464   1.229   1.635   1.146
  150SOL     OW  465   0.083   1.258   1.022
  150SOL    HW1  466   0.078   1.257   1.122
  150SOL    HW2  467   0.000   1.217   0.984
  151SOL     OW  468   0.688   1.662   1.716
  151SOL    HW1  469   0.632   1.743   1.725
  151SOL    HW2  470   0.740   1.666   1.630
  152SOL     OW  471   0.903   0.086   0.133
  152SOL    HW1  472   0.954   0.087   0.047
  152SOL    HW2  473   0.959   0.044   0.204
  153SOL     OW  474   1.726   0.135   0.523
  153SOL    HW1  475   1.799   0.118   0.456
  153SOL    HW2  476   1.695   0.048   0.561
  154SOL     OW  477   1.388   1.573   0.477
  154SOL    HW1  478   1.455   1.585   0.403
  154SOL    HW2  479   1.348   1.662   0.500
  155SOL     OW  480   0.130   1.794   1.851
  155SOL    HW1  481   0.089   1.720   1.904
  155SOL    HW2  482   0.194   1.845   1.909
  156SOL     OW  483   1.280   0.927   0.672
  156SOL    HW1  484   1.340   0.846   0.674
  156SOL    HW2  485   1.320   0.996   0.612
  157SOL     OW  486   0.830   1.273   1.422
  157SOL    HW1  487   0.825   1.306   1.517
  157SOL    HW2  488   0.744   1.292   1.376
  158SOL     OW  489   0.672   1.616   0.154
  158SOL    HW1  490   0.681   1.626   0.055
  158SOL    HW2  491   0.632   1.527   0.175
  159SOL     OW  492   1.650   1.720   1.394
  159SOL    HW1  493   1.703   1.730   1.310
  159SOL    HW2  494   1.623   1.810   1.428
  160SOL     OW  495   1.841   0.175   0.963
  160SOL    HW1  496   1.880   0.090   0.927
  160SOL    HW2  497   1.743   0.177   0.944
  161SOL     OW  498   0.263   0.326   0.720
  161SOL    HW1  499   0.184   0.377   0.686
  161SOL    HW2  500   0.254   0.311   0.818
  162SOL     OW  501   1.194   1.612   0.031
  162SOL    HW1  502   1.200   1.519   0.068
  162SOL    HW2  503   1.135   1.612  -0.049
  163SOL     OW  504   0.822   1.002   1.372
  163SOL    HW1  505   0.862   1.001   1.280
  163SOL    HW2  506   0.832   1.094   1.412
  164SOL     OW  507   0.916   0.910   0.291
  164SOL    HW1  508   0.979   0.948   0.223
  164SOL    HW2  509   0.956   0.827   0.330
  165SOL     OW  510   1.504   1.607   0.044
  165SOL    HW1  511   1.412   1.644   0.051
  165SOL    HW2  512   1.542   1.627  -0.046
  166SOL     OW  513   0.372   1.288   1.490
  166SOL    HW1  514   0.359   1.381   1.456
  166SOL    HW2  515   0.288   1.236   1.477
  167SOL     OW  516   1.039   1.098   0.696
  167SOL    HW1  517   0.969   1.051   0.750
  167SOL    HW2  518   1.098   1.030   0.653
  168SOL     OW  519   1.014   0.236   0.971
  168SOL    HW1  520   1.006   0.200   0.878
  168SOL    HW2  521   1.012   0.160   1.036
  169SOL     OW  522   0.590   1.487   0.491
  169SOL    HW1  523   0.632   1.429   0.421
  169SOL    HW2  524   0.546   1.566   0.447
  170SOL     OW  525   1.709   0.385   1.381
  170SOL    HW1  526   1.782   0.454   1.385
  170SOL    HW2  527   1.737   0.310   1.322
  171SOL     OW  528   0.255   1.348   0.290
  171SOL    HW1  529   0.159   1.349   0.263
  171SOL    HW2  530   0.267   1.401   0.374
  172SOL     OW  531   0.105   1.013   1.726
  172SOL    HW1  532   0.028   0.980   1.780
  172SOL    HW2  533   0.190   0.983   1.768
  173SOL     OW  534   0.672   0.203   1.489
  173SOL    HW1  535   0.762   0.187   1.449
  173SOL    HW2  536   0.680   0.208   1.588
  174SOL     OW  537   0.075   0.345   0.033
  174SOL    HW1  538  -0.017   0.317   0.004
  174SOL    HW2  539   0.106   0.422  -0.023
  175SOL     OW  540   1.440   0.856   1.398
  175SOL    HW1  541   1.383   0.908   1.335
  175SOL    HW2  542   1.536   0.868   1.374
  176SOL     OW  543   0.072   0.166   0.318
  176SOL    HW1  544   0.055   0.249   0.264
  176SOL    HW2  545   0.162   0.129   0.296
  177SOL     OW  546   1.183   1.335   0.119
  177SOL    HW1  547   1.084   1.324   0.121
  177SOL    HW2  548   1.217   1.350   0.212
  178SOL     OW  549   0.613   0.842   1.431
  178SOL    HW1  550   0.669   0.923   1.414
  178SOL    HW2  551   0.672   0.762   1.434
  179SOL     OW  552   1.493   1.767   0.959
  179SOL    HW1  553   1.526   1.831   0.890
  179SOL    HW2  554   1.559   1.761   1.034
  180SOL     OW  555   0.716   0.565   1.708
  180SOL    HW1  556   0.735   0.630   1.782
  180SOL    HW2  557   0.776   0.485   1.717
  181SOL     OW  558   1.450   1.220   1.633
  181SOL    HW1  559   1.441   1.210   1.732
  181SOL    HW2  560   1.546   1.213   1.607
  182SOL     OW  561   0.390   1.741   1.560
  182SOL    HW1  562   0.299   1.782   1.558
  182SOL    HW2  563   0.383   1.647   1.592
  183SOL     OW  564   1.674   0.883   1.254
  183SOL    HW1  565   1.647   0.794   1.217
  183SOL    HW2  566   1.675   0.951   1.181
  184SOL     OW  567   1.225   0.325   0.449
  184SOL    HW1  568   1.290   0.251   0.438
  184SOL    HW2  569   1.245   0.375   0.533
  185SOL     OW  570   0.594   0.745   0.652
  185SOL    HW1  571   0.644   0.830   0.633
  185SOL    HW2  572   0.506   0.747   0.604
  186SOL     OW  573   1.777   0.342   1.642
  186SOL    HW1  574   1.760   0.373   1.548
  186SOL    HW2  575   1.693   0.305   1.680
  187SOL     OW  576   1.730   0.934   1.517
  187SOL    HW1  577   1.768   1.025   1.532
  187SOL    HW2  578   1.722   0.917   1.418
  188SOL     OW  579   0.859   1.374   0.016
  188SOL    HW1  580   0.813   1.389   0.104
  188SOL    HW2  581   0.903   1.459  -0.014
  189SOL     OW  582   0.661   1.790   0.953
  189SOL    HW1  583   0.615   1.878   0.940
  189SOL    HW2  584   0.760   1.802   0.946
  190SOL     OW  585   0.859   0.956   0.861
  190SOL    HW1  586   0.913   0.887   0.909
  190SOL    HW2  587   0.827   1.025   0.927
  191SOL     OW  588   1.083   0.984   0.087
  191SOL    HW1  589   1.060   1.037   0.005
  191SOL    HW2  590   1.164   0.928   0.068
  192SOL     OW  591   1.861   1.569   0.851
  192SOL    HW1  592   1.790   1.557   0.781
  192SOL    HW2  593   1.862   1.490   0.911
  193SOL     OW  594   0.221   1.314   1.844
  193SOL    HW1  595   0.156   1.241   1.823
  193SOL    HW2  596   0.225   1.328   1.942
  194SOL     OW  597   0.079   1.240   0.653
  194SOL    HW1  598   0.078   1.193   0.741
  194SOL    HW2  599   0.161   1.212   0.602
  195SOL     OW  600   0.672   1.391   1.624
  195SOL    HW1  601   0.594   1.341   1.662
  195SOL    HW2  602   0.669   1.486   1.655
  196SOL     OW  603   1.824   0.192   1.227
  196SOL    HW1  604   1.820   0.102   1.271
  196SOL    HW2  605   1.827   0.181   1.128
  197SOL     OW  606   0.428   0.424   0.520
  197SOL    HW1  607   0.458   0.352   0.458
  197SOL    HW2  608   0.389   0.384   0.603
  198SOL     OW  609   1.705   1.487   1.104
  198SOL    HW1  610   1.612   1.462   1.077
  198SOL    HW2  611   1.731   1.437   1.186
  199SOL     OW  612   0.317   0.547   1.280
  199SOL    HW1  613   0.355   0.488   1.352
  199SOL    HW2  614   0.357   0.521   1.192
  200SOL     OW  615   0.812   1.586   0.687
  200SOL    HW1  616   0.844   1.596   0.593
  200SOL    HW2  617   0.733   1.524   0.689
  201SOL     OW  618   1.424   0.214   1.112
  201SOL    HW1  619   1.476   0.149   1.167
  201SOL    HW2  620   1.375   0.277   1.173
  202SOL     OW  621   1.001   0.034   1.154
  202SOL    HW1  622   0.938  -0.038   1.123
  202SOL    HW2  623   1.094  -0.002   1.154
  203SOL     OW  624   0.770   1.330   0.301
  203SOL    HW1  625   0.724   1.243   0.318
  203SOL    HW2  626   0.861   1.327   0.342
  204SOL     OW  627   0.618   1.567   1.284
  204SOL    HW1  628   0.613   1.649   1.341
  204SOL    HW2  629   0.707   1.564   1.239
  205SOL     OW  630   1.352   0.052   0.168
  205SOL    HW1  631   1.387   0.011   0.084
  205SOL    HW2  632   1.262   0.014   0.188
  206SOL     OW  633   1.300   0.453   0.691
  206SOL    HW1  634   1.241   0.533   0.695
  206SOL    HW2  635   1.315   0.418   0.784
  207SOL     OW  636   1.593   0.221   0.882
  207SOL    HW1  637   1.509   0.220   0.936
  207SOL    HW2  638   1.595   0.304   0.826
  208SOL     OW  639   0.039   1.077   0.300
  208SOL    HW1  640   0.138   1.066   0.291
  208SOL    HW2  641  -0.001   0.991   0.332
  209SOL     OW  642   0.875   1.646   0.337
  209SOL    HW1  643   0.798   1.611   0.283
  209SOL    HW2  644   0.843   1.717   0.399
  210SOL     OW  645   0.230   0.628   1.975
  210SOL    HW1  646   0.137   0.626   2.012
  210SOL    HW2  647   0.231   0.589   1.883
  211SOL     OW  648   0.019   0.368   2.509
  211SOL    HW1  649  -0.063   0.411   2.548
  211SOL    HW2  650  -0.009   0.295   2.446
  212SOL     OW  651   1.555   1.511   2.565
  212SOL    HW1  652   1.498   1.495   2.646
  212SOL    HW2  653   1.496   1.521   2.485
  213SOL     OW  654   1.135   0.703   2.579
  213SOL    HW1  655   1.192   0.781   2.554
  213SOL    HW2  656   1.075   0.729   2.655
  214SOL     OW  657   1.755   0.607   2.093
  214SOL    HW1  658   1.743   0.594   1.994
  214SOL    HW2  659   1.725   0.526   2.142
  215SOL     OW  660   0.685   1.012   2.527
  215SOL    HW1  661   0.754   0.996   2.597
  215SOL    HW2  662   0.612   1.069   2.565
  216SOL     OW  663   1.603   0.447   2.599
  216SOL    HW1  664   1.529   0.493   2.549
  216SOL    HW2  665   1.654   0.515   2.652
  217SOL     OW  666   0.231   1.713   2.345
  217SOL    HW1  667   0.265   1.790   2.399
  217SOL    HW2  668   0.275   1.713   2.255
  218SOL     OW  669   0.230   1.434   2.400
  218SOL    HW1  670   0.204   1.530   2.400
  218SOL    HW2  671   0.159   1.380   2.445
  219SOL     OW  672   0.240   1.091   2.748
  219SOL    HW1  673   0.254   1.007   2.800
  219SOL    HW2  674   0.185   1.155   2.803
  220SOL     OW  675   0.606   0.964   1.985
  220SOL    HW1  676   0.613   1.048   1.931
  220SOL    HW2  677   0.652   0.977   2.073
  221SOL     OW  678   0.122   0.643   2.425
  221SOL    HW1  679   0.077   0.555   2.442
  221SOL    HW2  680   0.121   0.697   2.509
  222SOL     OW  681   1.842   1.767   2.221
  222SOL    HW1  682   1.896   1.738   2.301
  222SOL    HW2  683   1.872   1.857   2.192
  223SOL     OW  684   0.027   1.596   1.979
  223SOL    HW1  685   0.008   1.500   2.000
  223SOL    HW2  686  -0.006   1.654   2.054
  224SOL     OW  687   1.689   0.922   2.474
  224SOL    HW1  688   1.784   0.893   2.482
  224SOL    HW2  689   1.681   0.987   2.399
  225SOL     OW  690   1.641   1.108   2.294
  225SOL    HW1  691   1.727   1.110   2.242
  225SOL    HW2  692   1.655   1.155   2.382
  226SOL     OW  693   0.613   1.365   2.588
  226SOL    HW1  694   0.564   1.278   2.597
  226SOL    HW2  695   0.590   1.408   2.501
  227SOL     OW  696   0.809   0.004   2.364
  227SOL    HW1  697   0.849   0.095   2.355
  227SOL    HW2  698   0.709   0.012   2.370
  228SOL     OW  699   1.525   0.999   2.052
  228SOL    HW1  700   1.462   0.923   2.065
  228SOL    HW2  701   1.573   1.017   2.138
  229SOL     OW  702   1.667   1.714   2.434
  229SOL    HW1  703   1.626   1.691   2.346
  229SOL    HW2  704   1.649   1.640   2.499
  230SOL     OW  705   0.598   0.729   2.132
  230SOL    HW1  706   0.622   0.798   2.064
  230SOL    HW2  707   0.520   0.762   2.186
  231SOL     OW  708   1.281   0.345   2.806
  231SOL    HW1  709   1.195   0.295   2.793
  231SOL    HW2  710   1.343   0.291   2.862
  232SOL     OW  711   1.576   1.662   2.169
  232SOL    HW1  712   1.665   1.708   2.172
  232SOL    HW2  713   1.555   1.638   2.074
  233SOL     OW  714   1.041   0.701   2.291
  233SOL    HW1  715   1.067   0.697   2.387
  233SOL    HW2  716   0.956   0.650   2.277
  234SOL     OW  717   0.076   0.811   2.651
  234SOL    HW1  718   0.175   0.799   2.660
  234SOL    HW2  719   0.052   0.906   2.672
  235SOL     OW  720   0.865   0.348   2.057
  235SOL    HW1  721   0.924   0.411   2.008
  235SOL    HW2  722   0.884   0.254   2.028
  236SOL     OW  723   1.362   1.144   2.407
  236SOL    HW1  724   1.445   1.115   2.359
  236SOL    HW2  725   1.313   1.211   2.351
  237SOL     OW  726   1.008   1.456   2.339
  237SOL    HW1  727   0.962   1.528   2.287
  237SOL    HW2  728   1.004   1.476   2.437
  238SOL     OW  729   0.351   1.801   2.715
  238SOL    HW1  730   0.401   1.715   2.721
  238SOL    HW2  731   0.416   1.878   2.712
  239SOL     OW  732   1.795   1.066   2.735
  239SOL    HW1  733   1.733   1.051   2.659
  239SOL    HW2  734   1.743   1.077   2.820
  240SOL     OW  735   0.321   0.943   2.104
  240SOL    HW1  736   0.403   0.982   2.062
  240SOL    HW2  737   0.294   0.861   2.055
  241SOL     OW  738   1.458   0.735   2.590
  241SOL    HW1  739   1.453   0.670   2.665
  241SOL    HW2  740   1.538   0.794   2.603
  242SOL     OW  741   1.111   1.776   2.099
  242SOL    HW1  742   1.051   1.714   2.149
  242SOL    HW2  743   1.142   1.732   2.014
  243SOL     OW  744   1.632   1.377   1.943
  243SOL    HW1  745   1.600   1.471   1.933
  243SOL    HW2  746   1.556   1.314   1.931
  244SOL     OW  747   0.464   1.743   2.185
  244SOL    HW1  748   0.497   1.782   2.271
  244SOL    HW2  749   0.540   1.736   2.120
  245SOL     OW  750   1.400   0.107   2.288
  245SOL    HW1  751   1.376   0.070   2.198
  245SOL    HW2  752   1.499   0.123   2.292
  246SOL     OW  753   0.382   0.700   2.342
  246SOL    HW1  754   0.427   0.610   2.339
  246SOL    HW2  755   0.288   0.689   2.375
  247SOL     OW  756   0.614   0.122   1.979
  247SOL    HW1  757   0.712   0.100   1.986
  247SOL    HW2  758   0.583   0.105   1.886
  248SOL     OW  759   0.539   0.064   2.374
  248SOL    HW1  760   0.458   0.065   2.432
  248SOL    HW2  761   0.542   0.147   2.319
  249SOL     OW  762   1.434   1.188   1.903
  249SOL    HW1  763   1.466   1.112   1.960
  249SOL    HW2  764   1.342   1.215   1.933
  250SOL     OW  765   0.297   0.035   2.033
  250SOL    HW1  766   0.346   0.119   2.012
  250SOL    HW2  767   0.359  -0.030   2.078
  251SOL     OW  768   0.935   0.236   2.342
  251SOL    HW1  769   0.887   0.277   2.264
  251SOL    HW2  770   1.034   0.234   2.323
  252SOL     OW  771   0.459   1.152   2.603
  252SOL    HW1  772   0.388   1.125   2.668
  252SOL    HW2  773   0.433   1.124   2.510
  253SOL     OW  774   1.271   1.797   2.453
  253SOL    HW1  775   1.315   1.861   2.389
  253SOL    HW2  776   1.221   1.849   2.523
  254SOL     OW  777   1.032   0.549   1.878
  254SOL    HW1  778   0.991   0.631   1.839
  254SOL    HW2  779   1.096   0.575   1.951
  255SOL     OW  780   0.866   0.454   2.504
  255SOL    HW1  781   0.834   0.526   2.442
  255SOL    HW2  782   0.890   0.373   2.451
  256SOL     OW  783   1.017   0.039   2.615
  256SOL    HW1  784   0.945   0.044   2.546
  256SOL    HW2  785   0.993  -0.030   2.684
  257SOL     OW  786   1.857   0.833   2.239
  257SOL    HW1  787   1.899   0.769   2.303
  257SOL    HW2  788   1.819   0.782   2.161
  258SOL     OW  789   0.488   1.385   2.036
  258SOL    HW1  790   0.401   1.370   2.083
  258SOL    HW2  791   0.471   1.411   1.941
  259SOL     OW  792   1.664   1.280   2.519
  259SOL    HW1  793   1.763   1.288   2.533
  259SOL    HW2  794   1.619   1.364   2.550
  260SOL     OW  795   1.390   0.575   1.940
  260SOL    HW1  796   1.336   0.554   2.021
  260SOL    HW2  797   1.481   0.534   1.949
  261SOL     OW  798   0.527   0.256   2.190
  261SOL    HW1  799   0.554   0.197   2.115
  261SOL    HW2  800   0.527   0.351   2.159
  262SOL     OW  801   0.705   1.050   2.230
  262SOL    HW1  802   0.691   1.057   2.329
  262SOL    HW2  803   0.789   0.999   2.212
  263SOL     OW  804   0.367   1.100   2.363
  263SOL    HW1  805   0.360   1.183   2.307
  263SOL    HW2  806   0.371   1.020   2.303
  264SOL     OW  807   0.566   0.537   2.727
  264SOL    HW1  808   0.578   0.603   2.653
  264SOL    HW2  809   0.612   0.571   2.810
  265SOL     OW  810   1.252   1.348   2.250
  265SOL    HW1  811   1.302   1.425   2.290
  265SOL    HW2  812   1.157   1.350   2.282
  266SOL     OW  813   1.582   0.639   2.334
  266SOL    HW1  814   1.551   0.700   2.407
  266SOL    HW2  815   1.632   0.691   2.265
  267SOL     OW  816   1.209   0.525   2.137
  267SOL    HW1  817   1.222   0.441   2.191
  267SOL    HW2  818   1.180   0.599   2.197
  268SOL     OW  819   0.732   0.634   2.926
  268SOL    HW1  820   0.791   0.608   2.850
  268SOL    HW2  821   0.704   0.730   2.915
  269SOL     OW  822   0.307   0.063   2.480
  269SOL    HW1  823   0.296   0.157   2.513
  269SOL    HW2  824   0.302   0.000   2.557
  270SOL     OW  825   1.622   0.367   2.236
  270SOL    HW1  826   1.624   0.291   2.300
  270SOL    HW2  827   1.574   0.444   2.276
  271SOL     OW  828   1.540   0.274   1.987
  271SOL    HW1  829   1.479   0.199   2.010
  271SOL    HW2  830   1.562   0.326   2.070
  272SOL     OW  831   1.303   0.838   1.904
  272SOL    HW1  832   1.337   0.745   1.919
  272SOL    HW2  833   1.321   0.865   1.809
  273SOL     OW  834   1.068   1.333   2.711
  273SOL    HW1  835   1.075   1.249   2.656
  273SOL    HW2  836   1.130   1.402   2.675
  274SOL     OW  837   0.008   1.326   2.062
  274SOL    HW1  838  -0.085   1.347   2.031
  274SOL    HW2  839   0.018   1.227   2.075
  275SOL     OW  840   0.088   1.801   2.789
  275SOL    HW1  841   0.046   1.715   2.762
  275SOL    HW2  842   0.182   1.804   2.755
  276SOL     OW  843   0.504   1.568   2.772
  276SOL    HW1  844   0.570   1.642   2.781
  276SOL    HW2  845   0.548   1.489   2.730
  277SOL     OW  846   0.815   0.572   2.187
  277SOL    HW1  847   0.822   0.483   2.141
  277SOL    HW2  848   0.721   0.606   2.179
  278SOL     OW  849   0.473   0.500   2.053
  278SOL    HW1  850   0.534   0.580   2.057
  278SOL    HW2  851   0.378   0.531   2.060
  279SOL     OW  852   1.302   0.855   2.171
  279SOL    HW1  853   1.216   0.824   2.213
  279SOL    HW2  854   1.298   0.841   2.072
  280SOL     OW  855   1.726   0.135   2.385
  280SOL    HW1  856   1.799   0.118   2.318
  280SOL    HW2  857   1.695   0.048   2.423
  281SOL     OW  858   1.388   1.573   2.339
  281SOL    HW1  859   1.455   1.585   2.265
  281SOL    HW2  860   1.348   1.662   2.362
  282SOL     OW  861   1.280   0.927   2.534
  282SOL    HW1  862   1.340   0.846   2.536
  282SOL    HW2  863   1.320   0.996   2.474
  283SOL     OW  864   0.672   1.616   2.016
  283SOL    HW1  865   0.681   1.626   1.917
  283SOL    HW2  866   0.632   1.527   2.037
  284SOL     OW  867   1.841   0.175   2.825
  284SOL    HW1  868   1.880   0.090   2.789
  284SOL    HW2  869   1.743   0.177   2.806
  285SOL     OW  870   0.263   0.326   2.582
  285SOL    HW1  871   0.184   0.377   2.548
  285SOL    HW2  872   0.254   0.311   2.680
  286SOL     OW  873   1.194   1.612   1.893
  286SOL    HW1  874   1.200   1.519   1.930
  286SOL    HW2  875   1.135   1.612   1.813
  287SOL     OW  876   0.916   0.910   2.153
  287SOL    HW1  877   0.979   0.948   2.085
  287SOL    HW2  878   0.956   0.827   2.192
  288SOL     OW  879   1.504   1.607   1.906
  288SOL    HW1  880   1.412   1.644   1.913
  288SOL    HW2  881   1.542   1.627   1.816
  289SOL     OW  882   1.039   1.098   2.558
  289SOL    HW1  883   0.969   1.051   2.612
  289SOL    HW2  884   1.098   1.030   2.515
  290SOL     OW  885   0.590   1.487   2.353
  290SOL    HW1  886   0.632   1.429   2.283
  290SOL    HW2  887   0.546   1.566   2.309
  291SOL     OW  888   0.255   1.348   2.152
  291SOL    HW1  889   0.159   1.349   2.125
  291SOL    HW2  890   0.267   1.401   2.236
  292SOL     OW  891   0.075   0.345   1.895
  292SOL    HW1  892  -0.017   0.317   1.866
  292SOL    HW2  893   0.106   0.422   1.839
  293SOL     OW  894   0.072   0.166   2.180
  293SOL    HW1  895   0.055   0.249   2.126
  293SOL    HW2  896   0.162   0.129   2.158
  294SOL     OW  897   1.183   1.335   1.981
  294SOL    HW1  898   1.084   1.324   1.983
  294SOL    HW2  899   1.217   1.350   2.074
  295SOL     OW  900   1.225   0.325   2.311
  295SOL    HW1  901   1.290   0.251   2.300
  295SOL    HW2  902   1.245   0.375   2.395
  296SOL     OW  903   0.594   0.745   2.514
  296SOL    HW1  904   0.644   0.830   2.495
  296SOL    HW2  905   0.506   0.747   2.466
  297SOL     OW  906   0.859   1.374   1.878
  297SOL    HW1  907   0.813   1.389   1.966
  297SOL    HW2  908   0.903   1.459   1.848
  298SOL     OW  909   0.661   1.790   2.815
  298SOL    HW1  910   0.615   1.878   2.802
  298SOL    HW2  911   0.760   1.802   2.808
  299SOL     OW  912   0.859   0.956   2.723
  299SOL    HW1  913   0.913   0.887   2.771
  299SOL    HW2  914   0.827   1.025   2.789
  300SOL     OW  915   1.083   0.984   1.949
  300SOL    HW1  916   1.060   1.037   1.867
  300SOL    HW2  917   1.164   0.928   1.930
  301SOL     OW  918   1.861   1.569   2.713
  301SOL    HW1  919   1.790   1.557   2.643
  301SOL    HW2  920   1.862   1.490   2.773
  302SOL     OW  921   0.079   1.240   2.515
  302SOL    HW1  922   0.078   1.193   2.603
  302SOL    HW2  923   0.161   1.212   2.464
  303SOL     OW  924   1.824   0.192   3.089
  303SOL    HW1  925   1.820   0.102   3.133
  303SOL    HW2  926   1.827   0.181   2.990
  304SOL     OW  927   0.428   0.424   2.382
  304SOL    HW1  928   0.458   0.352   2.320
  304SOL    HW2  929   0.389   0.384   2.465
  305SOL     OW  930   0.812   1.586   2.549
  305SOL    HW1  931   0.844   1.596   2.455
  305SOL    HW2  932   0.733   1.524   2.551
  306SOL     OW  933   0.770   1.330   2.163
  306SOL    HW1  934   0.724   1.243   2.180
  306SOL    HW2  935   0.861   1.327   2.204
  307SOL     OW  936   1.352   0.052   2.030
  307SOL    HW1  937   1.387   0.011   1.946
  307SOL    HW2  938   1.262   0.014   2.050
  308SOL     OW  939   1.300   0.453   2.553
  308SOL    HW1  940   1.241   0.533   2.557
  308SOL    HW2  941   1.315   0.418   2.646
  309SOL     OW  942   1.593   0.221   2.744
  309SOL    HW1  943   1.509   0.220   2.798
  309SOL    HW2  944   1.595   0.304   2.688
  310SOL     OW  945   0.039   1.077   2.162
  310SOL    HW1  946   0.138   1.066   2.153
  310SOL    HW2  947  -0.001   0.991   2.194
  311SOL     OW  948   0.875   1.646   2.199
  311SOL    HW1  949   0.798   1.611   2.145
  311SOL    HW2  950   0.843   1.717   2.261
  312SOL     OW  951   0.230   2.490   0.113
  312SOL    HW1  952   0.137   2.488   0.150
  312SOL    HW2  953   0.231   2.451   0.021
  313SOL     OW  954   0.225   2.137   0.996
  313SOL    HW1  955   0.260   2.120   1.088
  313SOL    HW2  956   0.137   2.092   0.984
  314SOL     OW  957   0.019   2.230   0.647
  314SOL    HW1  958  -0.063   2.273   0.686
  314SOL    HW2  959  -0.009   2.157   0.584
  315SOL     OW  960   1.135   2.565   0.717
  315SOL    HW1  961   1.192   2.643   0.692
  315SOL    HW2  962   1.075   2.591   0.793
  316SOL     OW  963   1.755   2.469   0.231
  316SOL    HW1  964   1.743   2.456   0.132
  316SOL    HW2  965   1.725   2.388   0.280
  317SOL     OW  966   0.850   2.660   1.823
  317SOL    HW1  967   0.846   2.736   1.888
  317SOL    HW2  968   0.872   2.696   1.732
  318SOL     OW  969   0.685   2.874   0.665
  318SOL    HW1  970   0.754   2.858   0.735
  318SOL    HW2  971   0.612   2.931   0.703
  319SOL     OW  972   0.438   2.254   1.499
  319SOL    HW1  973   0.520   2.198   1.508
  319SOL    HW2  974   0.357   2.196   1.503
  320SOL     OW  975   1.603   2.309   0.737
  320SOL    HW1  976   1.529   2.355   0.687
  320SOL    HW2  977   1.654   2.377   0.790
  321SOL     OW  978   1.594   1.976   1.480
  321SOL    HW1  979   1.576   2.043   1.408
  321SOL    HW2  980   1.591   2.022   1.569
  322SOL     OW  981   0.122   2.505   0.563
  322SOL    HW1  982   0.077   2.417   0.580
  322SOL    HW2  983   0.121   2.559   0.647
  323SOL     OW  984   0.113   2.599   1.597
  323SOL    HW1  985   0.201   2.586   1.642
  323SOL    HW2  986   0.100   2.696   1.575
  324SOL     OW  987   0.809   1.866   0.502
  324SOL    HW1  988   0.849   1.957   0.493
  324SOL    HW2  989   0.709   1.874   0.508
  325SOL     OW  990   0.317   2.113   1.801
  325SOL    HW1  991   0.388   2.184   1.807
  325SOL    HW2  992   0.229   2.152   1.829
  326SOL     OW  993   0.598   2.591   0.270
  326SOL    HW1  994   0.622   2.660   0.202
  326SOL    HW2  995   0.520   2.624   0.324
  327SOL     OW  996   1.281   2.207   0.944
  327SOL    HW1  997   1.195   2.157   0.931
  327SOL    HW2  998   1.343   2.153   1.000
  328SOL     OW  999   0.807   2.467   1.465
  328SOL    HW1 1000   0.760   2.464   1.554
  328SOL    HW2 1001   0.756   2.412   1.399
  329SOL     OW 1002   1.394   2.331   1.674
  329SOL    HW1 1003   1.374   2.374   1.762
  329SOL    HW2 1004   1.472   2.269   1.683
  330SOL     OW 1005   0.991   2.272   1.242
  330SOL    HW1 1006   0.914   2.306   1.296
  330SOL    HW2 1007   0.957   2.221   1.163
  331SOL     OW 1008   1.041   2.563   0.429
  331SOL    HW1 1009   1.067   2.559   0.525
  331SOL    HW2 1010   0.956   2.512   0.415
  332SOL     OW 1011   0.076   2.673   0.789
  332SOL    HW1 1012   0.175   2.661   0.798
  332SOL    HW2 1013   0.052   2.768   0.810
  333SOL     OW 1014   0.865   2.210   0.195
  333SOL    HW1 1015   0.924   2.273   0.146
  333SOL    HW2 1016   0.884   2.116   0.166
  334SOL     OW 1017   1.719   2.447   1.831
  334SOL    HW1 1018   1.693   2.536   1.795
  334SOL    HW2 1019   1.717   2.379   1.758
  335SOL     OW 1020   0.550   2.058   0.885
  335SOL    HW1 1021   0.545   2.053   0.985
  335SOL    HW2 1022   0.552   2.154   0.856
  336SOL     OW 1023   1.458   2.597   0.728
  336SOL    HW1 1024   1.453   2.532   0.803
  336SOL    HW2 1025   1.538   2.656   0.741
  337SOL     OW 1026   0.202   2.147   1.498
  337SOL    HW1 1027   0.122   2.207   1.485
  337SOL    HW2 1028   0.192   2.098   1.584
  338SOL     OW 1029   1.400   1.969   0.426
  338SOL    HW1 1030   1.376   1.932   0.336
  338SOL    HW2 1031   1.499   1.985   0.430
  339SOL     OW 1032   0.382   2.562   0.480
  339SOL    HW1 1033   0.427   2.472   0.477
  339SOL    HW2 1034   0.288   2.551   0.513
  340SOL     OW 1035   1.547   2.084   1.729
  340SOL    HW1 1036   1.542   2.121   1.821
  340SOL    HW2 1037   1.475   2.015   1.717
  341SOL     OW 1038   0.781   2.126   1.749
  341SOL    HW1 1039   0.848   2.065   1.792
  341SOL    HW2 1040   0.708   2.145   1.814
  342SOL     OW 1041   1.351   2.452   1.433
  342SOL    HW1 1042   1.379   2.409   1.518
  342SOL    HW2 1043   1.376   2.548   1.434
  343SOL     OW 1044   0.922   2.365   0.899
  343SOL    HW1 1045   0.897   2.356   0.803
  343SOL    HW2 1046   0.970   2.283   0.930
  344SOL     OW 1047   0.539   1.926   0.512
  344SOL    HW1 1048   0.458   1.927   0.570
  344SOL    HW2 1049   0.542   2.009   0.457
  345SOL     OW 1050   0.297   1.897   0.171
  345SOL    HW1 1051   0.346   1.981   0.150
  345SOL    HW2 1052   0.359   1.832   0.216
  346SOL     OW 1053   0.935   2.098   0.480
  346SOL    HW1 1054   0.887   2.139   0.402
  346SOL    HW2 1055   1.034   2.096   0.461
  347SOL     OW 1056   1.076   2.545   1.464
  347SOL    HW1 1057   0.996   2.484   1.467
  347SOL    HW2 1058   1.157   2.492   1.440
  348SOL     OW 1059   1.032   2.411   0.016
  348SOL    HW1 1060   0.991   2.493  -0.023
  348SOL    HW2 1061   1.096   2.437   0.089
  349SOL     OW 1062   0.078   2.418   1.386
  349SOL    HW1 1063   0.170   2.417   1.345
  349SOL    HW2 1064   0.072   2.492   1.453
  350SOL     OW 1065   0.561   2.084   1.147
  350SOL    HW1 1066   0.599   2.000   1.184
  350SOL    HW2 1067   0.473   2.103   1.191
  351SOL     OW 1068   0.866   2.316   0.642
  351SOL    HW1 1069   0.834   2.388   0.580
  351SOL    HW2 1070   0.890   2.235   0.589
  352SOL     OW 1071   1.017   1.901   0.753
  352SOL    HW1 1072   0.945   1.906   0.684
  352SOL    HW2 1073   0.993   1.832   0.822
  353SOL     OW 1074   1.466   2.452   0.992
  353SOL    HW1 1075   1.436   2.357   0.999
  353SOL    HW2 1076   1.539   2.468   1.058
  354SOL     OW 1077   1.857   2.695   0.377
  354SOL    HW1 1078   1.899   2.631   0.441
  354SOL    HW2 1079   1.819   2.644   0.299
  355SOL     OW 1080   1.390   2.437   0.078
  355SOL    HW1 1081   1.336   2.416   0.159
  355SOL    HW2 1082   1.481   2.396   0.087
  356SOL     OW 1083   0.527   2.118   0.328
  356SOL    HW1 1084   0.554   2.059   0.253
  356SOL    HW2 1085   0.527   2.213   0.297
  357SOL     OW 1086   0.915   1.951   1.402
  357SOL    HW1 1087   0.940   1.931   1.307
  357SOL    HW2 1088   0.987   2.007   1.444
  358SOL     OW 1089   0.410   2.675   1.251
  358SOL    HW1 1090   0.496   2.687   1.301
  358SOL    HW2 1091   0.368   2.588   1.278
  359SOL     OW 1092   1.274   2.248   1.262
  359SOL    HW1 1093   1.295   2.322   1.326
  359SOL    HW2 1094   1.185   2.265   1.219
  360SOL     OW 1095   0.566   2.399   0.865
  360SOL    HW1 1096   0.578   2.465   0.791
  360SOL    HW2 1097   0.612   2.433   0.948
  361SOL     OW 1098   1.582   2.501   0.472
  361SOL    HW1 1099   1.551   2.562   0.545
  361SOL    HW2 1100   1.632   2.553   0.403
  362SOL     OW 1101   0.402   2.613   1.598
  362SOL    HW1 1102   0.470   2.668   1.551
  362SOL    HW2 1103   0.442   2.525   1.625
  363SOL     OW 1104   1.587   2.641   1.670
  363SOL    HW1 1105   1.495   2.679   1.665
  363SOL    HW2 1106   1.647   2.688   1.605
  364SOL     OW 1107   1.013   1.967   1.770
  364SOL    HW1 1108   1.019   2.052   1.718
  364SOL    HW2 1109   1.045   1.891   1.713
  365SOL     OW 1110   0.504   1.912   1.740
  365SOL    HW1 1111   0.462   1.855   1.670
  365SOL    HW2 1112   0.438   1.981   1.772
  366SOL     OW 1113   0.573   2.732   1.029
  366SOL    HW1 1114   0.617   2.821   1.020
  366SOL    HW2 1115   0.510   2.732   1.106
  367SOL     OW 1116   1.360   2.724   1.045
  367SOL    HW1 1117   1.285   2.724   0.979
  367SOL    HW2 1118   1.397   2.632   1.054
  368SOL     OW 1119   1.209   2.387   0.275
  368SOL    HW1 1120   1.222   2.303   0.329
  368SOL    HW2 1121   1.180   2.461   0.335
  369SOL     OW 1122   0.307   2.075   1.231
  369SOL    HW1 1123   0.284   2.112   1.321
  369SOL    HW2 1124   0.277   1.980   1.225
  370SOL     OW 1125   0.732   2.496   1.064
  370SOL    HW1 1126   0.791   2.470   0.988
  370SOL    HW2 1127   0.704   2.592   1.053
  371SOL     OW 1128   1.728   2.797   1.854
  371SOL    HW1 1129   1.682   2.790   1.765
  371SOL    HW2 1130   1.666   2.841   1.920
  372SOL     OW 1131   0.307   1.925   0.618
  372SOL    HW1 1132   0.296   2.019   0.651
  372SOL    HW2 1133   0.302   1.862   0.695
  373SOL     OW 1134   1.622   2.229   0.374
  373SOL    HW1 1135   1.624   2.153   0.438
  373SOL    HW2 1136   1.574   2.306   0.414
  374SOL     OW 1137   1.023   2.628   0.966
  374SOL    HW1 1138   1.038   2.649   1.062
  374SOL    HW2 1139   0.993   2.533   0.957
  375SOL     OW 1140   1.540   2.136   0.125
  375SOL    HW1 1141   1.479   2.061   0.148
  375SOL    HW2 1142   1.562   2.188   0.208
  376SOL     OW 1143   1.303   2.700   0.042
  376SOL    HW1 1144   1.337   2.607   0.057
  376SOL    HW2 1145   1.321   2.727  -0.053
  377SOL     OW 1146   0.319   2.672   0.949
  377SOL    HW1 1147   0.412   2.708   0.954
  377SOL    HW2 1148   0.313   2.587   1.001
  378SOL     OW 1149   0.339   2.371   1.006
  378SOL    HW1 1150   0.287   2.288   0.989
  378SOL    HW2 1151   0.416   2.376   0.942
  379SOL     OW 1152   1.138   2.242   1.678
  379SOL    HW1 1153   1.093   2.305   1.742
  379SOL    HW2 1154   1.231   2.273   1.661
  380SOL     OW 1155   1.160   2.069   1.477
  380SOL    HW1 1156   1.160   2.133   1.554
  380SOL    HW2 1157   1.188   2.117   1.394
  381SOL     OW 1158   1.002   2.658   1.238
  381SOL    HW1 1159   1.043   2.626   1.324
  381SOL    HW2 1160   0.906   2.631   1.235
  382SOL     OW 1161   0.040   2.406   1.114
  382SOL    HW1 1162   0.125   2.373   1.073
  382SOL    HW2 1163   0.053   2.421   1.212
  383SOL     OW 1164   0.189   2.382   1.722
  383SOL    HW1 1165   0.248   2.342   1.652
  383SOL    HW2 1166   0.131   2.453   1.681
  384SOL     OW 1167   0.815   2.434   0.325
  384SOL    HW1 1168   0.822   2.345   0.279
  384SOL    HW2 1169   0.721   2.468   0.317
  385SOL     OW 1170   1.657   2.466   1.206
  385SOL    HW1 1171   1.619   2.397   1.268
  385SOL    HW2 1172   1.739   2.430   1.162
  386SOL     OW 1173   0.671   2.326   1.269
  386SOL    HW1 1174   0.637   2.237   1.239
  386SOL    HW2 1175   0.697   2.380   1.189
  387SOL     OW 1176   0.473   2.362   0.191
  387SOL    HW1 1177   0.534   2.442   0.195
  387SOL    HW2 1178   0.378   2.393   0.198
  388SOL     OW 1179   0.903   1.948   0.133
  388SOL    HW1 1180   0.954   1.949   0.047
  388SOL    HW2 1181   0.959   1.906   0.204
  389SOL     OW 1182   1.726   1.997   0.523
  389SOL    HW1 1183   1.799   1.980   0.456
  389SOL    HW2 1184   1.695   1.910   0.561
  390SOL     OW 1185   1.280   2.789   0.672
  390SOL    HW1 1186   1.340   2.708   0.674
  390SOL    HW2 1187   1.320   2.858   0.612
  391SOL     OW 1188   1.841   2.037   0.963
  391SOL    HW1 1189   1.880   1.952   0.927
  391SOL    HW2 1190   1.743   2.039   0.944
  392SOL     OW 1191   0.263   2.188   0.720
  392SOL    HW1 1192   0.184   2.239   0.686
  392SOL    HW2 1193   0.254   2.173   0.818
  393SOL     OW 1194   1.014   2.098   0.971
  393SOL    HW1 1195   1.006   2.062   0.878
  393SOL    HW2 1196   1.012   2.022   1.036
  394SOL     OW 1197   1.709   2.247   1.381
  394SOL    HW1 1198   1.782   2.316   1.385
  394SOL    HW2 1199   1.737   2.172   1.322
  395SOL     OW 1200   0.105   2.875   1.726
  395SOL    HW1 1201   0.028   2.842   1.780
  395SOL    HW2 1202   0.190   2.845   1.768
  396SOL     OW 1203   0.672   2.065   1.489
  396SOL    HW1 1204   0.762   2.049   1.449
  396SOL    HW2 1205   0.680   2.070   1.588
  397SOL     OW 1206   0.075   2.207   0.033
  397SOL    HW1 1207  -0.017   2.179   0.004
  397SOL    HW2 1208   0.106   2.284  -0.023
  398SOL     OW 1209   1.440   2.718   1.398
  398SOL    HW1 1210   1.383   2.770   1.335
  398SOL    HW2 1211   1.536   2.730   1.374
  399SOL     OW 1212   0.072   2.028   0.318
  399SOL    HW1 1213   0.055   2.111   0.264
  399SOL    HW2 1214   0.162   1.991   0.296
  400SOL     OW 1215   0.613   2.704   1.431
  400SOL    HW1 1216   0.669   2.785   1.414
  400SOL    HW2 1217   0.672   2.624   1.434
  401SOL     OW 1218   0.716   2.427   1.708
  401SOL    HW1 1219   0.735   2.492   1.782
  401SOL    HW2 1220   0.776   2.347   1.717
  402SOL     OW 1221   1.674   2.745   1.254
  402SOL    HW1 1222   1.647   2.656   1.217
  402SOL    HW2 1223   1.675   2.813   1.181
  403SOL     OW 1224   1.225   2.187   0.449
  403SOL    HW1 1225   1.290   2.113   0.438
  403SOL    HW2 1226   1.245   2.237   0.533
  404SOL     OW 1227   0.594   2.607   0.652
  404SOL    HW1 1228   0.644   2.692   0.633
  404SOL    HW2 1229   0.506   2.609   0.604
  405SOL     OW 1230   1.777   2.204   1.642
  405SOL    HW1 1231   1.760   2.235   1.548
  405SOL    HW2 1232   1.693   2.167   1.680
  406SOL     OW 1233   1.730   2.796   1.517
  406SOL    HW1 1234   1.768   2.887   1.532
  406SOL    HW2 1235   1.722   2.779   1.418
  407SOL     OW 1236   1.824   2.054   1.227
  407SOL    HW1 1237   1.820   1.964   1.271
  407SOL    HW2 1238   1.827   2.043   1.128
  408SOL     OW 1239   0.428   2.286   0.520
  408SOL    HW1 1240   0.458   2.214   0.458
  408SOL    HW2 1241   0.389   2.246   0.603
  409SOL     OW 1242   0.317   2.409   1.280
  409SOL    HW1 1243   0.355   2.350   1.352
  409SOL    HW2 1244   0.357   2.383   1.192
  410SOL     OW 1245   1.424   2.076   1.112
  410SOL    HW1 1246   1.476   2.011   1.167
  410SOL    HW2 1247   1.375   2.139   1.173
  411SOL     OW 1248   1.001   1.896   1.154
  411SOL    HW1 1249   0.938   1.824   1.123
  411SOL    HW2 1250   1.094   1.860   1.154
  412SOL     OW 1251   1.352   1.914   0.168
  412SOL    HW1 1252   1.387   1.873   0.084
  412SOL    HW2 1253   1.262   1.876   0.188
  413SOL     OW 1254   1.300   2.315   0.691
  413SOL    HW1 1255   1.241   2.395   0.695
  413SOL    HW2 1256   1.315   2.280   0.784
  414SOL     OW 1257   1.593   2.083   0.882
  414SOL    HW1 1258   1.509   2.082   0.936
  414SOL    HW2 1259   1.595   2.166   0.826
  415SOL     OW 1260   0.230   2.490   1.975
  415SOL    HW1 1261   0.137   2.488   2.012
  415SOL    HW2 1262   0.231   2.451   1.883
  416SOL     OW 1263   0.019   2.230   2.509
  416SOL    HW1 1264  -0.063   2.273   2.548
  416SOL    HW2 1265  -0.009   2.157   2.446
  417SOL     OW 1266   1.135   2.565   2.579
  417SOL    HW1 1267   1.192   2.643   2.554
  417SOL    HW2 1268   1.075   2.591   2.655
  418SOL     OW 1269   1.755   2.469   2.093
  418SOL    HW1 1270   1.743   2.456   1.994
  418SOL    HW2 1271   1.725   2.388   2.142
  419SOL     OW 1272   0.685   2.874   2.527
  419SOL    HW1 1273   0.754   2.858   2.597
  419SOL    HW2 1274   0.612   2.931   2.565
  420SOL     OW 1275   1.603   2.309   2.599
  420SOL    HW1 1276   1.529   2.355   2.549
  420SOL    HW2 1277   1.654   2.377   2.652
  421SOL     OW 1278   0.240   2.953   2.748
  421SOL    HW1 1279   0.254   2.869   2.800
  421SOL    HW2 1280   0.185   3.017   2.803
  422SOL     OW 1281   0.122   2.505   2.425
  422SOL    HW1 1282   0.077   2.417   2.442
  422SOL    HW2 1283   0.121   2.559   2.509
  423SOL     OW 1284   0.809   1.866   2.364
  423SOL    HW1 1285   0.849   1.957   2.355
  423SOL    HW2 1286   0.709   1.874   2.370
  424SOL     OW 1287   0.598   2.591   2.132
  424SOL    HW1 1288   0.622   2.660   2.064
  424SOL    HW2 1289   0.520   2.624   2.186
  425SOL     OW 1290   1.281   2.207   2.806
  425SOL    HW1 1291   1.195   2.157   2.793
  425SOL    HW2 1292   1.343   2.153   2.862
  426SOL     OW 1293   1.041   2.563   2.291
  426SOL    HW1 1294   1.067   2.559   2.387
  426SOL    HW2 1295   0.956   2.512   2.277
  427SOL     OW 1296   0.076   2.673   2.651
  427SOL    HW1 1297   0.175   2.661   2.660
  427SOL    HW2 1298   0.052   2.768   2.672
  428SOL     OW 1299   0.865   2.210   2.057
  428SOL    HW1 1300   0.924   2.273   2.008
  428SOL    HW2 1301   0.884   2.116   2.028
  429SOL     OW 1302   0.550   2.058   2.747
  429SOL    HW1 1303   0.545   2.053   2.847
  429SOL    HW2 1304   0.552   2.154   2.718
  430SOL     OW 1305   1.458   2.597   2.590
  430SOL    HW1 1306   1.453   2.532   2.665
  430SOL    HW2 1307   1.538   2.656   2.603
  431SOL     OW 1308   1.400   1.969   2.288
  431SOL    HW1 1309   1.376   1.932   2.198
  431SOL    HW2 1310   1.499   1.985   2.292
  432SOL     OW 1311   0.382   2.562   2.342
  432SOL    HW1 1312   0.427   2.472   2.339
  432SOL    HW2 1313   0.288   2.551   2.375
  433SOL     OW 1314   0.614   1.984   1.979
  433SOL    HW1 1315   0.712   1.962   1.986
  433SOL    HW2 1316   0.583   1.967   1.886
  434SOL     OW 1317   0.539   1.926   2.374
  434SOL    HW1 1318   0.458   1.927   2.432
  434SOL    HW2 1319   0.542   2.009   2.319
  435SOL     OW 1320   0.297   1.897   2.033
  435SOL    HW1 1321   0.346   1.981   2.012
  435SOL    HW2 1322   0.359   1.832   2.078
  436SOL     OW 1323   0.935   2.098   2.342
  436SOL    HW1 1324   0.887   2.139   2.264
  436SOL    HW2 1325   1.034   2.096   2.323
  437SOL     OW 1326   1.032   2.411   1.878
  437SOL    HW1 1327   0.991   2.493   1.839
  437SOL    HW2 1328   1.096   2.437   1.951
  438SOL     OW 1329   0.866   2.316   2.504
  438SOL    HW1 1330   0.834   2.388   2.442
  438SOL    HW2 1331   0.890   2.235   2.451
  439SOL     OW 1332   1.017   1.901   2.615
  439SOL    HW1 1333   0.945   1.906   2.546
  439SOL    HW2 1334   0.993   1.832   2.684
  440SOL     OW 1335   1.857   2.695   2.239
  440SOL    HW1 1336   1.899   2.631   2.303
  440SOL    HW2 1337   1.819   2.644   2.161
  441SOL     OW 1338   1.390   2.437   1.940
  441SOL    HW1 1339   1.336   2.416   2.021
  441SOL    HW2 1340   1.481   2.396   1.949
  442SOL     OW 1341   0.527   2.118   2.190
  442SOL    HW1 1342   0.554   2.059   2.115
  442SOL    HW2 1343   0.527   2.213   2.159
  443SOL     OW 1344   1.111   3.057   2.962
  443SOL    HW1 1345   1.071   3.101   3.043
  443SOL    HW2 1346   1.070   3.094   2.879
  444SOL     OW 1347   0.566   2.399   2.727
  444SOL    HW1 1348   0.578   2.465   2.653
  444SOL    HW2 1349   0.612   2.433   2.810
  445SOL     OW 1350   1.582   2.501   2.334
  445SOL    HW1 1351   1.551   2.562   2.407
  445SOL    HW2 1352   1.632   2.553   2.265
  446SOL     OW 1353   1.209   2.387   2.137
  446SOL    HW1 1354   1.222   2.303   2.191
  446SOL    HW2 1355   1.180   2.461   2.197
  447SOL     OW 1356   0.732   2.496   2.926
  447SOL    HW1 1357   0.791   2.470   2.850
  447SOL    HW2 1358   0.704   2.592   2.915
  448SOL     OW 1359   0.307   1.925   2.480
  448SOL    HW1 1360   0.296   2.019   2.513
  448SOL    HW2 1361   0.302   1.862   2.557
  449SOL     OW 1362   1.622   2.229   2.236
  449SOL    HW1 1363   1.624   2.153   2.300
  449SOL    HW2 1364   1.574   2.306   2.276
  450SOL     OW 1365   1.540   2.136   1.987
  450SOL    HW1 1366   1.479   2.061   2.010
  450SOL    HW2 1367   1.562   2.188   2.070
  451SOL     OW 1368   1.303   2.700   1.904
  451SOL    HW1 1369   1.337   2.607   1.919
  451SOL    HW2 1370   1.321   2.727   1.809
  452SOL     OW 1371   0.815   2.434   2.187
  452SOL    HW1 1372   0.822   2.345   2.141
  452SOL    HW2 1373   0.721   2.468   2.179
  453SOL     OW 1374   0.473   2.362   2.053
  453SOL    HW1 1375   0.534   2.442   2.057
  453SOL    HW2 1376   0.378   2.393   2.060
  454SOL     OW 1377   1.726   1.997   2.385
  454SOL    HW1 1378   1.799   1.980   2.318
  454SOL    HW2 1379   1.695   1.910   2.423
  455SOL     OW 1380   1.280   2.789   2.534
  455SOL    HW1 1381   1.340   2.708   2.536
  455SOL    HW2 1382   1.320   2.858   2.474
  456SOL     OW 1383   1.841   2.037   2.825
  456SOL    HW1 1384   1.880   1.952   2.789
  456SOL    HW2 1385   1.743   2.039   2.806
  457SOL     OW 1386   0.263   2.188   2.582
  457SOL    HW1 1387   0.184   2.239   2.548
  457SOL    HW2 1388   0.254   2.173   2.680
  458SOL     OW 1389   0.916   2.772   2.153
  458SOL    HW1 1390   0.979   2.810   2.085
  458SOL    HW2 1391   0.956   2.689   2.192
  459SOL     OW 1392   0.075   2.207   1.895
  459SOL    HW1 1393  -0.017   2.179   1.866
  459SOL    HW2 1394   0.106   2.284   1.839
  460SOL     OW 1395   0.072   2.028   2.180
  460SOL    HW1 1396   0.055   2.111   2.126
  460SOL    HW2 1397   0.162   1.991   2.158
  461SOL     OW 1398   1.674   2.745   3.116
  461SOL    HW1 1399   1.647   2.656   3.079
  461SOL    HW2 1400   1.675   2.813   3.043
  462SOL     OW 1401   1.225   2.187   2.311
  462SOL    HW1 1402   1.290   2.113   2.300
  462SOL    HW2 1403   1.245   2.237   2.395
  463SOL     OW 1404   0.594   2.607   2.514
  463SOL    HW1 1405   0.644   2.692   2.495
  463SOL    HW2 1406   0.506   2.609   2.466
  464SOL     OW 1407   0.428   2.286   2.382
  464SOL    HW1 1408   0.458   2.214   2.320
  464SOL    HW2 1409   0.389   2.246   2.465
  465SOL     OW 1410   1.352   1.914   2.030
  465SOL    HW1 1411   1.387   1.873   1.946
  465SOL    HW2 1412   1.262   1.876   2.050
  466SOL     OW 1413   1.300   2.315   2.553
  466SOL    HW1 1414   1.241   2.395   2.557
  466SOL    HW2 1415   1.315   2.280   2.646
  467SOL     OW 1416   1.593   2.083   2.744
  467SOL    HW1 1417   1.509   2.082   2.798
  467SOL    HW2 1418   1.595   2.166   2.688
  468SOL     OW 1419   2.092   0.628   0.113
  468SOL    HW1 1420   1.999   0.626   0.150
  468SOL    HW2 1421   2.093   0.589   0.021
  469SOL     OW 1422   2.087   0.275   0.996
  469SOL    HW1 1423   2.122   0.258   1.088
  469SOL    HW2 1424   1.999   0.230   0.984
  470SOL     OW 1425   1.881   0.368   0.647
  470SOL    HW1 1426   1.799   0.411   0.686
  470SOL    HW2 1427   1.853   0.295   0.584
  471SOL     OW 1428   2.431   1.275   1.165
  471SOL    HW1 1429   2.338   1.268   1.128
  471SOL    HW2 1430   2.442   1.364   1.209
  472SOL     OW 1431   2.630   1.144   1.023
  472SOL    HW1 1432   2.552   1.161   1.083
  472SOL    HW2 1433   2.664   1.231   0.987
  473SOL     OW 1434   2.712   0.798   1.823
  473SOL    HW1 1435   2.708   0.874   1.888
  473SOL    HW2 1436   2.734   0.834   1.732
  474SOL     OW 1437   2.547   1.012   0.665
  474SOL    HW1 1438   2.616   0.996   0.735
  474SOL    HW2 1439   2.474   1.069   0.703
  475SOL     OW 1440   2.548   1.161   1.803
  475SOL    HW1 1441   2.608   1.240   1.817
  475SOL    HW2 1442   2.462   1.192   1.762
  476SOL     OW 1443   2.197   1.435   1.061
  476SOL    HW1 1444   2.119   1.404   1.008
  476SOL    HW2 1445   2.255   1.493   1.004
  477SOL     OW 1446   2.300   0.392   1.499
  477SOL    HW1 1447   2.382   0.336   1.508
  477SOL    HW2 1448   2.219   0.334   1.503
  478SOL     OW 1449   2.093   1.713   0.483
  478SOL    HW1 1450   2.127   1.790   0.537
  478SOL    HW2 1451   2.137   1.713   0.393
  479SOL     OW 1452   2.092   1.434   0.538
  479SOL    HW1 1453   2.066   1.530   0.538
  479SOL    HW2 1454   2.021   1.380   0.583
  480SOL     OW 1455   2.102   1.091   0.886
  480SOL    HW1 1456   2.116   1.007   0.938
  480SOL    HW2 1457   2.047   1.155   0.941
  481SOL     OW 1458   2.482   1.786   1.439
  481SOL    HW1 1459   2.390   1.769   1.474
  481SOL    HW2 1460   2.510   1.878   1.465
  482SOL     OW 1461   2.468   0.964   0.123
  482SOL    HW1 1462   2.475   1.048   0.069
  482SOL    HW2 1463   2.514   0.977   0.211
  483SOL     OW 1464   1.984   0.643   0.563
  483SOL    HW1 1465   1.939   0.555   0.580
  483SOL    HW2 1466   1.983   0.697   0.647
  484SOL     OW 1467   1.889   1.596   0.117
  484SOL    HW1 1468   1.870   1.500   0.138
  484SOL    HW2 1469   1.856   1.654   0.192
  485SOL     OW 1470   1.975   0.737   1.597
  485SOL    HW1 1471   2.063   0.724   1.642
  485SOL    HW2 1472   1.962   0.834   1.575
  486SOL     OW 1473   2.475   1.365   0.726
  486SOL    HW1 1474   2.426   1.278   0.735
  486SOL    HW2 1475   2.452   1.408   0.639
  487SOL     OW 1476   2.671   0.004   0.502
  487SOL    HW1 1477   2.711   0.095   0.493
  487SOL    HW2 1478   2.571   0.012   0.508
  488SOL     OW 1479   2.059   0.976   1.264
  488SOL    HW1 1480   2.148   0.931   1.250
  488SOL    HW2 1481   1.986   0.911   1.245
  489SOL     OW 1482   2.179   0.251   1.801
  489SOL    HW1 1483   2.250   0.322   1.807
  489SOL    HW2 1484   2.091   0.290   1.829
  490SOL     OW 1485   2.460   0.729   0.270
  490SOL    HW1 1486   2.484   0.798   0.202
  490SOL    HW2 1487   2.382   0.762   0.324
  491SOL     OW 1488   2.669   0.605   1.465
  491SOL    HW1 1489   2.622   0.602   1.554
  491SOL    HW2 1490   2.618   0.550   1.399
  492SOL     OW 1491   1.938   0.811   0.789
  492SOL    HW1 1492   2.037   0.799   0.798
  492SOL    HW2 1493   1.914   0.906   0.810
  493SOL     OW 1494   1.992   1.821   1.571
  493SOL    HW1 1495   1.982   1.806   1.670
  493SOL    HW2 1496   1.906   1.857   1.535
  494SOL     OW 1497   2.727   0.348   0.195
  494SOL    HW1 1498   2.786   0.411   0.146
  494SOL    HW2 1499   2.746   0.254   0.166
  495SOL     OW 1500   2.412   0.196   0.885
  495SOL    HW1 1501   2.407   0.191   0.985
  495SOL    HW2 1502   2.414   0.292   0.856
  496SOL     OW 1503   2.870   1.456   0.477
  496SOL    HW1 1504   2.824   1.528   0.425
  496SOL    HW2 1505   2.866   1.476   0.575
  497SOL     OW 1506   2.213   1.801   0.853
  497SOL    HW1 1507   2.263   1.715   0.859
  497SOL    HW2 1508   2.278   1.878   0.850
  498SOL     OW 1509   2.183   0.943   0.242
  498SOL    HW1 1510   2.265   0.982   0.200
  498SOL    HW2 1511   2.156   0.861   0.193
  499SOL     OW 1512   2.323   1.266   1.727
  499SOL    HW1 1513   2.273   1.267   1.641
  499SOL    HW2 1514   2.260   1.248   1.803
  500SOL     OW 1515   2.973   1.776   0.237
  500SOL    HW1 1516   2.913   1.714   0.287
  500SOL    HW2 1517   3.004   1.732   0.152
  501SOL     OW 1518   2.064   0.285   1.498
  501SOL    HW1 1519   1.984   0.345   1.485
  501SOL    HW2 1520   2.054   0.236   1.584
  502SOL     OW 1521   2.326   1.743   0.323
  502SOL    HW1 1522   2.359   1.782   0.409
  502SOL    HW2 1523   2.402   1.736   0.258
  503SOL     OW 1524   2.111   1.785   1.241
  503SOL    HW1 1525   2.168   1.720   1.291
  503SOL    HW2 1526   2.095   1.752   1.148
  504SOL     OW 1527   2.244   0.700   0.480
  504SOL    HW1 1528   2.289   0.610   0.477
  504SOL    HW2 1529   2.150   0.689   0.513
  505SOL     OW 1530   2.476   0.122   0.117
  505SOL    HW1 1531   2.574   0.100   0.124
  505SOL    HW2 1532   2.445   0.105   0.024
  506SOL     OW 1533   2.643   0.264   1.749
  506SOL    HW1 1534   2.710   0.203   1.792
  506SOL    HW2 1535   2.570   0.283   1.814
  507SOL     OW 1536   2.665   1.402   0.924
  507SOL    HW1 1537   2.755   1.416   0.882
  507SOL    HW2 1538   2.594   1.404   0.853
  508SOL     OW 1539   2.784   0.503   0.899
  508SOL    HW1 1540   2.759   0.494   0.803
  508SOL    HW2 1541   2.832   0.421   0.930
  509SOL     OW 1542   2.401   0.064   0.512
  509SOL    HW1 1543   2.320   0.065   0.570
  509SOL    HW2 1544   2.404   0.147   0.457
  510SOL     OW 1545   2.159   0.035   0.171
  510SOL    HW1 1546   2.208   0.119   0.150
  510SOL    HW2 1547   2.221  -0.030   0.216
  511SOL     OW 1548   2.321   1.152   0.741
  511SOL    HW1 1549   2.250   1.125   0.806
  511SOL    HW2 1550   2.295   1.124   0.648
  512SOL     OW 1551   1.940   0.556   1.386
  512SOL    HW1 1552   2.032   0.555   1.345
  512SOL    HW2 1553   1.934   0.630   1.453
  513SOL     OW 1554   2.423   0.222   1.147
  513SOL    HW1 1555   2.461   0.138   1.184
  513SOL    HW2 1556   2.335   0.241   1.191
  514SOL     OW 1557   2.350   1.385   0.174
  514SOL    HW1 1558   2.263   1.370   0.221
  514SOL    HW2 1559   2.333   1.411   0.079
  515SOL     OW 1560   2.389   0.256   0.328
  515SOL    HW1 1561   2.416   0.197   0.253
  515SOL    HW2 1562   2.389   0.351   0.297
  516SOL     OW 1563   2.777   0.089   1.402
  516SOL    HW1 1564   2.802   0.069   1.307
  516SOL    HW2 1565   2.849   0.145   1.444
  517SOL     OW 1566   2.567   1.050   0.368
  517SOL    HW1 1567   2.553   1.057   0.467
  517SOL    HW2 1568   2.651   0.999   0.350
  518SOL     OW 1569   2.272   0.813   1.251
  518SOL    HW1 1570   2.358   0.825   1.301
  518SOL    HW2 1571   2.230   0.726   1.278
  519SOL     OW 1572   1.926   1.564   1.331
  519SOL    HW1 1573   1.880   1.646   1.297
  519SOL    HW2 1574   2.024   1.583   1.340
  520SOL     OW 1575   2.229   1.100   0.501
  520SOL    HW1 1576   2.222   1.183   0.445
  520SOL    HW2 1577   2.233   1.020   0.441
  521SOL     OW 1578   2.428   0.537   0.865
  521SOL    HW1 1579   2.440   0.603   0.791
  521SOL    HW2 1580   2.474   0.571   0.948
  522SOL     OW 1581   2.216   1.510   1.329
  522SOL    HW1 1582   2.195   1.466   1.242
  522SOL    HW2 1583   2.313   1.536   1.332
  523SOL     OW 1584   2.264   0.751   1.598
  523SOL    HW1 1585   2.332   0.806   1.551
  523SOL    HW2 1586   2.304   0.663   1.625
  524SOL     OW 1587   2.366   0.050   1.740
  524SOL    HW1 1588   2.324  -0.007   1.670
  524SOL    HW2 1589   2.300   0.119   1.772
  525SOL     OW 1590   2.435   0.870   1.029
  525SOL    HW1 1591   2.479   0.959   1.020
  525SOL    HW2 1592   2.372   0.870   1.106
  526SOL     OW 1593   2.169   0.213   1.231
  526SOL    HW1 1594   2.146   0.250   1.321
  526SOL    HW2 1595   2.139   0.118   1.225
  527SOL     OW 1596   2.594   0.634   1.064
  527SOL    HW1 1597   2.653   0.608   0.988
  527SOL    HW2 1598   2.566   0.730   1.053
  528SOL     OW 1599   2.169   0.063   0.618
  528SOL    HW1 1600   2.158   0.157   0.651
  528SOL    HW2 1601   2.164   0.000   0.695
  529SOL     OW 1602   2.885   0.766   0.966
  529SOL    HW1 1603   2.900   0.787   1.062
  529SOL    HW2 1604   2.855   0.671   0.957
  530SOL     OW 1605   2.842   1.573   1.700
  530SOL    HW1 1606   2.822   1.617   1.612
  530SOL    HW2 1607   2.881   1.482   1.684
  531SOL     OW 1608   2.212   0.898   1.804
  531SOL    HW1 1609   2.288   0.942   1.852
  531SOL    HW2 1610   2.247   0.851   1.722
  532SOL     OW 1611   2.181   0.810   0.949
  532SOL    HW1 1612   2.274   0.846   0.954
  532SOL    HW2 1613   2.175   0.725   1.001
  533SOL     OW 1614   2.201   0.509   1.006
  533SOL    HW1 1615   2.149   0.426   0.989
  533SOL    HW2 1616   2.278   0.514   0.942
  534SOL     OW 1617   1.870   1.326   0.200
  534SOL    HW1 1618   1.777   1.347   0.169
  534SOL    HW2 1619   1.880   1.227   0.213
  535SOL     OW 1620   1.950   1.801   0.927
  535SOL    HW1 1621   1.908   1.715   0.900
  535SOL    HW2 1622   2.044   1.804   0.893
  536SOL     OW 1623   2.366   1.568   0.910
  536SOL    HW1 1624   2.432   1.642   0.919
  536SOL    HW2 1625   2.410   1.489   0.868
  537SOL     OW 1626   1.902   0.544   1.114
  537SOL    HW1 1627   1.987   0.511   1.073
  537SOL    HW2 1628   1.915   0.559   1.212
  538SOL     OW 1629   2.051   0.520   1.722
  538SOL    HW1 1630   2.110   0.480   1.652
  538SOL    HW2 1631   1.993   0.591   1.681
  539SOL     OW 1632   2.677   0.572   0.325
  539SOL    HW1 1633   2.684   0.483   0.279
  539SOL    HW2 1634   2.583   0.606   0.317
  540SOL     OW 1635   2.114   1.564   1.744
  540SOL    HW1 1636   2.084   1.621   1.820
  540SOL    HW2 1637   2.107   1.467   1.770
  541SOL     OW 1638   2.533   0.464   1.269
  541SOL    HW1 1639   2.499   0.375   1.239
  541SOL    HW2 1640   2.559   0.518   1.189
  542SOL     OW 1641   2.335   0.500   0.191
  542SOL    HW1 1642   2.396   0.580   0.195
  542SOL    HW2 1643   2.240   0.531   0.198
  543SOL     OW 1644   2.021   1.137   1.466
  543SOL    HW1 1645   2.043   1.076   1.542
  543SOL    HW2 1646   2.031   1.088   1.380
  544SOL     OW 1647   1.945   1.258   1.022
  544SOL    HW1 1648   1.940   1.257   1.122
  544SOL    HW2 1649   1.862   1.217   0.984
  545SOL     OW 1650   2.550   1.662   1.716
  545SOL    HW1 1651   2.494   1.743   1.725
  545SOL    HW2 1652   2.602   1.666   1.630
  546SOL     OW 1653   2.765   0.086   0.133
  546SOL    HW1 1654   2.816   0.087   0.047
  546SOL    HW2 1655   2.821   0.044   0.204
  547SOL     OW 1656   1.992   1.794   1.851
  547SOL    HW1 1657   1.951   1.720   1.904
  547SOL    HW2 1658   2.056   1.845   1.909
  548SOL     OW 1659   2.692   1.273   1.422
  548SOL    HW1 1660   2.687   1.306   1.517
  548SOL    HW2 1661   2.606   1.292   1.376
  549SOL     OW 1662   2.534   1.616   0.154
  549SOL    HW1 1663   2.543   1.626   0.055
  549SOL    HW2 1664   2.494   1.527   0.175
  550SOL     OW 1665   2.125   0.326   0.720
  550SOL    HW1 1666   2.046   0.377   0.686
  550SOL    HW2 1667   2.116   0.311   0.818
  551SOL     OW 1668   3.056   1.612   0.031
  551SOL    HW1 1669   3.062   1.519   0.068
  551SOL    HW2 1670   2.997   1.612  -0.049
  552SOL     OW 1671   2.684   1.002   1.372
  552SOL    HW1 1672   2.724   1.001   1.280
  552SOL    HW2 1673   2.694   1.094   1.412
  553SOL     OW 1674   2.234   1.288   1.490
  553SOL    HW1 1675   2.221   1.381   1.456
  553SOL    HW2 1676   2.150   1.236   1.477
  554SOL     OW 1677   2.452   1.487   0.491
  554SOL    HW1 1678   2.494   1.429   0.421
  554SOL    HW2 1679   2.408   1.566   0.447
  555SOL     OW 1680   2.117   1.348   0.290
  555SOL    HW1 1681   2.021   1.349   0.263
  555SOL    HW2 1682   2.129   1.401   0.374
  556SOL     OW 1683   1.967   1.013   1.726
  556SOL    HW1 1684   1.890   0.980   1.780
  556SOL    HW2 1685   2.052   0.983   1.768
  557SOL     OW 1686   2.534   0.203   1.489
  557SOL    HW1 1687   2.624   0.187   1.449
  557SOL    HW2 1688   2.542   0.208   1.588
  558SOL     OW 1689   2.475   0.842   1.431
  558SOL    HW1 1690   2.531   0.923   1.414
  558SOL    HW2 1691   2.534   0.762   1.434
  559SOL     OW 1692   2.578   0.565   1.708
  559SOL    HW1 1693   2.597   0.630   1.782
  559SOL    HW2 1694   2.638   0.485   1.717
  560SOL     OW 1695   2.252   1.741   1.560
  560SOL    HW1 1696   2.161   1.782   1.558
  560SOL    HW2 1697   2.245   1.647   1.592
  561SOL     OW 1698   2.456   0.745   0.652
  561SOL    HW1 1699   2.506   0.830   0.633
  561SOL    HW2 1700   2.368   0.747   0.604
  562SOL     OW 1701   2.523   1.790   0.953
  562SOL    HW1 1702   2.477   1.878   0.940
  562SOL    HW2 1703   2.622   1.802   0.946
  563SOL     OW 1704   2.721   0.956   0.861
  563SOL    HW1 1705   2.775   0.887   0.909
  563SOL    HW2 1706   2.689   1.025   0.927
  564SOL     OW 1707   2.083   1.314   1.844
  564SOL    HW1 1708   2.018   1.241   1.823
  564SOL    HW2 1709   2.087   1.328   1.942
  565SOL     OW 1710   1.941   1.240   0.653
  565SOL    HW1 1711   1.940   1.193   0.741
  565SOL    HW2 1712   2.023   1.212   0.602
  566SOL     OW 1713   2.534   1.391   1.624
  566SOL    HW1 1714   2.456   1.341   1.662
  566SOL    HW2 1715   2.531   1.486   1.655
  567SOL     OW 1716   2.290   0.424   0.520
  567SOL    HW1 1717   2.320   0.352   0.458
  567SOL    HW2 1718   2.251   0.384   0.603
  568SOL     OW 1719   2.179   0.547   1.280
  568SOL    HW1 1720   2.217   0.488   1.352
  568SOL    HW2 1721   2.219   0.521   1.192
  569SOL     OW 1722   2.674   1.586   0.687
  569SOL    HW1 1723   2.706   1.596   0.593
  569SOL    HW2 1724   2.595   1.524   0.689
  570SOL     OW 1725   2.863   0.034   1.154
  570SOL    HW1 1726   2.800  -0.038   1.123
  570SOL    HW2 1727   2.956  -0.002   1.154
  571SOL     OW 1728   2.632   1.330   0.301
  571SOL    HW1 1729   2.586   1.243   0.318
  571SOL    HW2 1730   2.723   1.327   0.342
  572SOL     OW 1731   2.480   1.567   1.284
  572SOL    HW1 1732   2.475   1.649   1.341
  572SOL    HW2 1733   2.569   1.564   1.239
  573SOL     OW 1734   1.901   1.077   0.300
  573SOL    HW1 1735   2.000   1.066   0.291
  573SOL    HW2 1736   1.861   0.991   0.332
  574SOL     OW 1737   2.737   1.646   0.337
  574SOL    HW1 1738   2.660   1.611   0.283
  574SOL    HW2 1739   2.705   1.717   0.399
  575SOL     OW 1740   2.092   0.628   1.975
  575SOL    HW1 1741   1.999   0.626   2.012
  575SOL    HW2 1742   2.093   0.589   1.883
  576SOL     OW 1743   2.087   0.275   2.858
  576SOL    HW1 1744   2.122   0.258   2.950
  576SOL    HW2 1745   1.999   0.230   2.846
  577SOL     OW 1746   1.881   0.368   2.509
  577SOL    HW1 1747   1.799   0.411   2.548
  577SOL    HW2 1748   1.853   0.295   2.446
  578SOL     OW 1749   2.630   1.144   2.885
  578SOL    HW1 1750   2.552   1.161   2.945
  578SOL    HW2 1751   2.664   1.231   2.849
  579SOL     OW 1752   2.547   1.012   2.527
  579SOL    HW1 1753   2.616   0.996   2.597
  579SOL    HW2 1754   2.474   1.069   2.565
  580SOL     OW 1755   2.093   1.713   2.345
  580SOL    HW1 1756   2.127   1.790   2.399
  580SOL    HW2 1757   2.137   1.713   2.255
  581SOL     OW 1758   2.092   1.434   2.400
  581SOL    HW1 1759   2.066   1.530   2.400
  581SOL    HW2 1760   2.021   1.380   2.445
  582SOL     OW 1761   2.102   1.091   2.748
  582SOL    HW1 1762   2.116   1.007   2.800
  582SOL    HW2 1763   2.047   1.155   2.803
  583SOL     OW 1764   2.468   0.964   1.985
  583SOL    HW1 1765   2.475   1.048   1.931
  583SOL    HW2 1766   2.514   0.977   2.073
  584SOL     OW 1767   1.984   0.643   2.425
  584SOL    HW1 1768   1.939   0.555   2.442
  584SOL    HW2 1769   1.983   0.697   2.509
  585SOL     OW 1770   1.889   1.596   1.979
  585SOL    HW1 1771   1.870   1.500   2.000
  585SOL    HW2 1772   1.856   1.654   2.054
  586SOL     OW 1773   2.475   1.365   2.588
  586SOL    HW1 1774   2.426   1.278   2.597
  586SOL    HW2 1775   2.452   1.408   2.501
  587SOL     OW 1776   2.671   0.004   2.364
  587SOL    HW1 1777   2.711   0.095   2.355
  587SOL    HW2 1778   2.571   0.012   2.370
  588SOL     OW 1779   2.460   0.729   2.132
  588SOL    HW1 1780   2.484   0.798   2.064
  588SOL    HW2 1781   2.382   0.762   2.186
  589SOL     OW 1782   1.938   0.811   2.651
  589SOL    HW1 1783   2.037   0.799   2.660
  589SOL    HW2 1784   1.914   0.906   2.672
  590SOL     OW 1785   2.727   0.348   2.057
  590SOL    HW1 1786   2.786   0.411   2.008
  590SOL    HW2 1787   2.746   0.254   2.028
  591SOL     OW 1788   2.870   1.456   2.339
  591SOL    HW1 1789   2.824   1.528   2.287
  591SOL    HW2 1790   2.866   1.476   2.437
  592SOL     OW 1791   2.213   1.801   2.715
  592SOL    HW1 1792   2.263   1.715   2.721
  592SOL    HW2 1793   2.278   1.878   2.712
  593SOL     OW 1794   2.183   0.943   2.104
  593SOL    HW1 1795   2.265   0.982   2.062
  593SOL    HW2 1796   2.156   0.861   2.055
  594SOL     OW 1797   2.973   1.776   2.099
  594SOL    HW1 1798   2.913   1.714   2.149
  594SOL    HW2 1799   3.004   1.732   2.014
  595SOL     OW 1800   2.326   1.743   2.185
  595SOL    HW1 1801   2.359   1.782   2.271
  595SOL    HW2 1802   2.402   1.736   2.120
  596SOL     OW 1803   2.244   0.700   2.342
  596SOL    HW1 1804   2.289   0.610   2.339
  596SOL    HW2 1805   2.150   0.689   2.375
  597SOL     OW 1806   2.476   0.122   1.979
  597SOL    HW1 1807   2.574   0.100   1.986
  597SOL    HW2 1808   2.445   0.105   1.886
  598SOL     OW 1809   2.665   1.402   2.786
  598SOL    HW1 1810   2.755   1.416   2.744
  598SOL    HW2 1811   2.594   1.404   2.715
  599SOL     OW 1812   2.401   0.064   2.374
  599SOL    HW1 1813   2.320   0.065   2.432
  599SOL    HW2 1814   2.404   0.147   2.319
  600SOL     OW 1815   2.159   0.035   2.033
  600SOL    HW1 1816   2.208   0.119   2.012
  600SOL    HW2 1817   2.221  -0.030   2.078
  601SOL     OW 1818   2.321   1.152   2.603
  601SOL    HW1 1819   2.250   1.125   2.668
  601SOL    HW2 1820   2.295   1.124   2.510
  602SOL     OW 1821   2.350   1.385   2.036
  602SOL    HW1 1822   2.263   1.370   2.083
  602SOL    HW2 1823   2.333   1.411   1.941
  603SOL     OW 1824   2.389   0.256   2.190
  603SOL    HW1 1825   2.416   0.197   2.115
  603SOL    HW2 1826   2.389   0.351   2.159
  604SOL     OW 1827   2.567   1.050   2.230
  604SOL    HW1 1828   2.553   1.057   2.329
  604SOL    HW2 1829   2.651   0.999   2.212
  605SOL     OW 1830   2.229   1.100   2.363
  605SOL    HW1 1831   2.222   1.183   2.307
  605SOL    HW2 1832   2.233   1.020   2.303
  606SOL     OW 1833   2.428   0.537   2.727
  606SOL    HW1 1834   2.440   0.603   2.653
  606SOL    HW2 1835   2.474   0.571   2.810
  607SOL     OW 1836   2.594   0.634   2.926
  607SOL    HW1 1837   2.653   0.608   2.850
  607SOL    HW2 1838   2.566   0.730   2.915
  608SOL     OW 1839   2.169   0.063   2.480
  608SOL    HW1 1840   2.158   0.157   2.513
  608SOL    HW2 1841   2.164   0.000   2.557
  609SOL     OW 1842   2.885   0.766   2.828
  609SOL    HW1 1843   2.900   0.787   2.924
  609SOL    HW2 1844   2.855   0.671   2.819
  610SOL     OW 1845   1.870   1.326   2.062
  610SOL    HW1 1846   1.777   1.347   2.031
  610SOL    HW2 1847   1.880   1.227   2.075
  611SOL     OW 1848   1.950   1.801   2.789
  611SOL    HW1 1849   1.908   1.715   2.762
  611SOL    HW2 1850   2.044   1.804   2.755
  612SOL     OW 1851   2.366   1.568   2.772
  612SOL    HW1 1852   2.432   1.642   2.781
  612SOL    HW2 1853   2.410   1.489   2.730
  613SOL     OW 1854   2.677   0.572   2.187
  613SOL    HW1 1855   2.684   0.483   2.141
  613SOL    HW2 1856   2.583   0.606   2.179
  614SOL     OW 1857   2.335   0.500   2.053
  614SOL    HW1 1858   2.396   0.580   2.057
  614SOL    HW2 1859   2.240   0.531   2.060
  615SOL     OW 1860   2.765   0.086   1.995
  615SOL    HW1 1861   2.816   0.087   1.909
  615SOL    HW2 1862   2.821   0.044   2.066
  616SOL     OW 1863   2.534   1.616   2.016
  616SOL    HW1 1864   2.543   1.626   1.917
  616SOL    HW2 1865   2.494   1.527   2.037
  617SOL     OW 1866   2.125   0.326   2.582
  617SOL    HW1 1867   2.046   0.377   2.548
  617SOL    HW2 1868   2.116   0.311   2.680
  618SOL     OW 1869   2.452   1.487   2.353
  618SOL    HW1 1870   2.494   1.429   2.283
  618SOL    HW2 1871   2.408   1.566   2.309
  619SOL     OW 1872   2.117   1.348   2.152
  619SOL    HW1 1873   2.021   1.349   2.125
  619SOL    HW2 1874   2.129   1.401   2.236
  620SOL     OW 1875   1.937   0.345   1.895
  620SOL    HW1 1876   1.845   0.317   1.866
  620SOL    HW2 1877   1.968   0.422   1.839
  621SOL     OW 1878   1.934   0.166   2.180
  621SOL    HW1 1879   1.917   0.249   2.126
  621SOL    HW2 1880   2.024   0.129   2.158
  622SOL     OW 1881   2.456   0.745   2.514
  622SOL    HW1 1882   2.506   0.830   2.495
  622SOL    HW2 1883   2.368   0.747   2.466
  623SOL     OW 1884   2.523   1.790   2.815
  623SOL    HW1 1885   2.477   1.878   2.802
  623SOL    HW2 1886   2.622   1.802   2.808
  624SOL     OW 1887   2.721   0.956   2.723
  624SOL    HW1 1888   2.775   0.887   2.771
  624SOL    HW2 1889   2.689   1.025   2.789
  625SOL     OW 1890   1.941   1.240   2.515
  625SOL    HW1 1891   1.940   1.193   2.603
  625SOL    HW2 1892   2.023   1.212   2.464
  626SOL     OW 1893   2.290   0.424   2.382
  626SOL    HW1 1894   2.320   0.352   2.320
  626SOL    HW2 1895   2.251   0.384   2.465
  627SOL     OW 1896   2.674   1.586   2.549
  627SOL    HW1 1897   2.706   1.596   2.455
  627SOL    HW2 1898   2.595   1.524   2.551
  628SOL     OW 1899   2.632   1.330   2.163
  628SOL    HW1 1900   2.586   1.243   2.180
  628SOL    HW2 1901   2.723   1.327   2.204
  629SOL     OW 1902   1.901   1.077   2.162
  629SOL    HW1 1903   2.000   1.066   2.153
  629SOL    HW2 1904   1.861   0.991   2.194
  630SOL     OW 1905   2.737   1.646   2.199
  630SOL    HW1 1906   2.660   1.611   2.145
  630SOL    HW2 1907   2.705   1.717   2.261
  631SOL     OW 1908   2.092   2.490   0.113
  631SOL    HW1 1909   1.999   2.488   0.150
  631SOL    HW2 1910   2.093   2.451   0.021
  632SOL     OW 1911   2.087   2.137   0.996
  632SOL    HW1 1912   2.122   2.120   1.088
  632SOL    HW2 1913   1.999   2.092   0.984
  633SOL     OW 1914   1.881   2.230   0.647
  633SOL    HW1 1915   1.799   2.273   0.686
  633SOL    HW2 1916   1.853   2.157   0.584
  634SOL     OW 1917   2.712   2.660   1.823
  634SOL    HW1 1918   2.708   2.736   1.888
  634SOL    HW2 1919   2.734   2.696   1.732
  635SOL     OW 1920   2.547   2.874   0.665
  635SOL    HW1 1921   2.616   2.858   0.735
  635SOL    HW2 1922   2.474   2.931   0.703
  636SOL     OW 1923   2.300   2.254   1.499
  636SOL    HW1 1924   2.382   2.198   1.508
  636SOL    HW2 1925   2.219   2.196   1.503
  637SOL     OW 1926   1.984   2.505   0.563
  637SOL    HW1 1927   1.939   2.417   0.580
  637SOL    HW2 1928   1.983   2.559   0.647
  638SOL     OW 1929   1.975   2.599   1.597
  638SOL    HW1 1930   2.063   2.586   1.642
  638SOL    HW2 1931   1.962   2.696   1.575
  639SOL     OW 1932   2.671   1.866   0.502
  639SOL    HW1 1933   2.711   1.957   0.493
  639SOL    HW2 1934   2.571   1.874   0.508
  640SOL     OW 1935   2.179   2.113   1.801
  640SOL    HW1 1936   2.250   2.184   1.807
  640SOL    HW2 1937   2.091   2.152   1.829
  641SOL     OW 1938   2.460   2.591   0.270
  641SOL    HW1 1939   2.484   2.660   0.202
  641SOL    HW2 1940   2.382   2.624   0.324
  642SOL     OW 1941   2.669   2.467   1.465
  642SOL    HW1 1942   2.622   2.464   1.554
  642SOL    HW2 1943   2.618   2.412   1.399
  643SOL     OW 1944   1.938   2.673   0.789
  643SOL    HW1 1945   2.037   2.661   0.798
  643SOL    HW2 1946   1.914   2.768   0.810
  644SOL     OW 1947   2.727   2.210   0.195
  644SOL    HW1 1948   2.786   2.273   0.146
  644SOL    HW2 1949   2.746   2.116   0.166
  645SOL     OW 1950   2.412   2.058   0.885
  645SOL    HW1 1951   2.407   2.053   0.985
  645SOL    HW2 1952   2.414   2.154   0.856
  646SOL     OW 1953   2.064   2.147   1.498
  646SOL    HW1 1954   1.984   2.207   1.485
  646SOL    HW2 1955   2.054   2.098   1.584
  647SOL     OW 1956   2.244   2.562   0.480
  647SOL    HW1 1957   2.289   2.472   0.477
  647SOL    HW2 1958   2.150   2.551   0.513
  648SOL     OW 1959   2.643   2.126   1.749
  648SOL    HW1 1960   2.710   2.065   1.792
  648SOL    HW2 1961   2.570   2.145   1.814
  649SOL     OW 1962   2.784   2.365   0.899
  649SOL    HW1 1963   2.759   2.356   0.803
  649SOL    HW2 1964   2.832   2.283   0.930
  650SOL     OW 1965   2.401   1.926   0.512
  650SOL    HW1 1966   2.320   1.927   0.570
  650SOL    HW2 1967   2.404   2.009   0.457
  651SOL     OW 1968   2.159   1.897   0.171
  651SOL    HW1 1969   2.208   1.981   0.150
  651SOL    HW2 1970   2.221   1.832   0.216
  652SOL     OW 1971   1.940   2.418   1.386
  652SOL    HW1 1972   2.032   2.417   1.345
  652SOL    HW2 1973   1.934   2.492   1.453
  653SOL     OW 1974   2.423   2.084   1.147
  653SOL    HW1 1975   2.461   2.000   1.184
  653SOL    HW2 1976   2.335   2.103   1.191
  654SOL     OW 1977   2.389   2.118   0.328
  654SOL    HW1 1978   2.416   2.059   0.253
  654SOL    HW2 1979   2.389   2.213   0.297
  655SOL     OW 1980   2.777   1.951   1.402
  655SOL    HW1 1981   2.802   1.931   1.307
  655SOL    HW2 1982   2.849   2.007   1.444
  656SOL     OW 1983   2.272   2.675   1.251
  656SOL    HW1 1984   2.358   2.687   1.301
  656SOL    HW2 1985   2.230   2.588   1.278
  657SOL     OW 1986   2.428   2.399   0.865
  657SOL    HW1 1987   2.440   2.465   0.791
  657SOL    HW2 1988   2.474   2.433   0.948
  658SOL     OW 1989   2.264   2.613   1.598
  658SOL    HW1 1990   2.332   2.668   1.551
  658SOL    HW2 1991   2.304   2.525   1.625
  659SOL     OW 1992   2.366   1.912   1.740
  659SOL    HW1 1993   2.324   1.855   1.670
  659SOL    HW2 1994   2.300   1.981   1.772
  660SOL     OW 1995   2.435   2.732   1.029
  660SOL    HW1 1996   2.479   2.821   1.020
  660SOL    HW2 1997   2.372   2.732   1.106
  661SOL     OW 1998   2.169   2.075   1.231
  661SOL    HW1 1999   2.146   2.112   1.321
  661SOL    HW2 2000   2.139   1.980   1.225
  662SOL     OW 2001   2.594   2.496   1.064
  662SOL    HW1 2002   2.653   2.470   0.988
  662SOL    HW2 2003   2.566   2.592   1.053
  663SOL     OW 2004   2.169   1.925   0.618
  663SOL    HW1 2005   2.158   2.019   0.651
  663SOL    HW2 2006   2.164   1.862   0.695
  664SOL     OW 2007   2.885   2.628   0.966
  664SOL    HW1 2008   2.900   2.649   1.062
  664SOL    HW2 2009   2.855   2.533   0.957
  665SOL     OW 2010   2.181   2.672   0.949
  665SOL    HW1 2011   2.274   2.708   0.954
  665SOL    HW2 2012   2.175   2.587   1.001
  666SOL     OW 2013   2.201   2.371   1.006
  666SOL    HW1 2014   2.149   2.288   0.989
  666SOL    HW2 2015   2.278   2.376   0.942
  667SOL     OW 2016   2.864   2.658   1.238
  667SOL    HW1 2017   2.905   2.626   1.324
  667SOL    HW2 2018   2.768   2.631   1.235
  668SOL     OW 2019   1.902   2.406   1.114
  668SOL    HW1 2020   1.987   2.373   1.073
  668SOL    HW2 2021   1.915   2.421   1.212
  669SOL     OW 2022   2.051   2.382   1.722
  669SOL    HW1 2023   2.110   2.342   1.652
  669SOL    HW2 2024   1.993   2.453   1.681
  670SOL     OW 2025   2.677   2.434   0.325
  670SOL    HW1 2026   2.684   2.345   0.279
  670SOL    HW2 2027   2.583   2.468   0.317
  671SOL     OW 2028   2.533   2.326   1.269
  671SOL    HW1 2029   2.499   2.237   1.239
  671SOL    HW2 2030   2.559   2.380   1.189
  672SOL     OW 2031   2.335   2.362   0.191
  672SOL    HW1 2032   2.396   2.442   0.195
  672SOL    HW2 2033   2.240   2.393   0.198
  673SOL     OW 2034   2.765   1.948   0.133
  673SOL    HW1 2035   2.816   1.949   0.047
  673SOL    HW2 2036   2.821   1.906   0.204
  674SOL     OW 2037   2.125   2.188   0.720
  674SOL    HW1 2038   2.046   2.239   0.686
  674SOL    HW2 2039   2.116   2.173   0.818
  675SOL     OW 2040   2.901   2.960   0.696
  675SOL    HW1 2041   2.831   2.913   0.750
  675SOL    HW2 2042   2.960   2.892   0.653
  676SOL     OW 2043   1.967   2.875   1.726
  676SOL    HW1 2044   1.890   2.842   1.780
  676SOL    HW2 2045   2.052   2.845   1.768
  677SOL     OW 2046   2.534   2.065   1.489
  677SOL    HW1 2047   2.624   2.049   1.449
  677SOL    HW2 2048   2.542   2.070   1.588
  678SOL     OW 2049   1.934   2.028   0.318
  678SOL    HW1 2050   1.917   2.111   0.264
  678SOL    HW2 2051   2.024   1.991   0.296
  679SOL     OW 2052   2.475   2.704   1.431
  679SOL    HW1 2053   2.531   2.785   1.414
  679SOL    HW2 2054   2.534   2.624   1.434
  680SOL     OW 2055   2.578   2.427   1.708
  680SOL    HW1 2056   2.597   2.492   1.782
  680SOL    HW2 2057   2.638   2.347   1.717
  681SOL     OW 2058   2.456   2.607   0.652
  681SOL    HW1 2059   2.506   2.692   0.633
  681SOL    HW2 2060   2.368   2.609   0.604
  682SOL     OW 2061   2.721   2.818   0.861
  682SOL    HW1 2062   2.775   2.749   0.909
  682SOL    HW2 2063   2.689   2.887   0.927
  683SOL     OW 2064   2.290   2.286   0.520
  683SOL    HW1 2065   2.320   2.214   0.458
  683SOL    HW2 2066   2.251   2.246   0.603
  684SOL     OW 2067   2.179   2.409   1.280
  684SOL    HW1 2068   2.217   2.350   1.352
  684SOL    HW2 2069   2.219   2.383   1.192
  685SOL     OW 2070   2.863   1.896   1.154
  685SOL    HW1 2071   2.800   1.824   1.123
  685SOL    HW2 2072   2.956   1.860   1.154
  686SOL     OW 2073   2.092   2.490   1.975
  686SOL    HW1 2074   1.999   2.488   2.012
  686SOL    HW2 2075   2.093   2.451   1.883
  687SOL     OW 2076   2.087   2.137   2.858
  687SOL    HW1 2077   2.122   2.120   2.950
  687SOL    HW2 2078   1.999   2.092   2.846
  688SOL     OW 2079   1.881   2.230   2.509
  688SOL    HW1 2080   1.799   2.273   2.548
  688SOL    HW2 2081   1.853   2.157   2.446
  689SOL     OW 2082   2.547   2.874   2.527
  689SOL    HW1 2083   2.616   2.858   2.597
  689SOL    HW2 2084   2.474   2.931   2.565
  690SOL     OW 2085   1.984   2.505   2.425
  690SOL    HW1 2086   1.939   2.417   2.442
  690SOL    HW2 2087   1.983   2.559   2.509
  691SOL     OW 2088   2.671   1.866   2.364
  691SOL    HW1 2089   2.711   1.957   2.355
  691SOL    HW2 2090   2.571   1.874   2.370
  692SOL     OW 2091   2.460   2.591   2.132
  692SOL    HW1 2092   2.484   2.660   2.064
  692SOL    HW2 2093   2.382   2.624   2.186
  693SOL     OW 2094   1.938   2.673   2.651
  693SOL    HW1 2095   2.037   2.661   2.660
  693SOL    HW2 2096   1.914   2.768   2.672
  694SOL     OW 2097   2.727   2.210   2.057
  694SOL    HW1 2098   2.786   2.273   2.008
  694SOL    HW2 2099   2.746   2.116   2.028
  695SOL     OW 2100   2.412   2.058   2.747
  695SOL    HW1 2101   2.407   2.053   2.847
  695SOL    HW2 2102   2.414   2.154   2.718
  696SOL     OW 2103   2.244   2.562   2.342
  696SOL    HW1 2104   2.289   2.472   2.339
  696SOL    HW2 2105   2.150   2.551   2.375
  697SOL     OW 2106   2.476   1.984   1.979
  697SOL    HW1 2107   2.574   1.962   1.986
  697SOL    HW2 2108   2.445   1.967   1.886
  698SOL     OW 2109   2.401   1.926   2.374
  698SOL    HW1 2110   2.320   1.927   2.432
  698SOL    HW2 2111   2.404   2.009   2.319
  699SOL     OW 2112   2.159   1.897   2.033
  699SOL    HW1 2113   2.208   1.981   2.012
  699SOL    HW2 2114   2.221   1.832   2.078
  700SOL     OW 2115   2.389   2.118   2.190
  700SOL    HW1 2116   2.416   2.059   2.115
  700SOL    HW2 2117   2.389   2.213   2.159
  701SOL     OW 2118   2.428   2.399   2.727
  701SOL    HW1 2119   2.440   2.465   2.653
  701SOL    HW2 2120   2.474   2.433   2.810
  702SOL     OW 2121   2.594   2.496   2.926
  702SOL    HW1 2122   2.653   2.470   2.850
  702SOL    HW2 2123   2.566   2.592   2.915
  703SOL     OW 2124   2.169   1.925   2.480
  703SOL    HW1 2125   2.158   2.019   2.513
  703SOL    HW2 2126   2.164   1.862   2.557
  704SOL     OW 2127   2.885   2.628   2.828
  704SOL    HW1 2128   2.900   2.649   2.924
  704SOL    HW2 2129   2.855   2.533   2.819
  705SOL     OW 2130   2.677   2.434   2.187
  705SOL    HW1 2131   2.684   2.345   2.141
  705SOL    HW2 2132   2.583   2.468   2.179
  706SOL     OW 2133   2.335   2.362   2.053
  706SOL    HW1 2134   2.396   2.442   2.057
  706SOL    HW2 2135   2.240   2.393   2.060
  707SOL     OW 2136   2.765   1.948   1.995
  707SOL    HW1 2137   2.816   1.949   1.909
  707SOL    HW2 2138   2.821   1.906   2.066
  708SOL     OW 2139   2.125   2.188   2.582
  708SOL    HW1 2140   2.046   2.239   2.548
  708SOL    HW2 2141   2.116   2.173   2.680
  709SOL     OW 2142   2.901   2.960   2.558
  709SOL    HW1 2143   2.831   2.913   2.612
  709SOL    HW2 2144   2.960   2.892   2.515
  710SOL     OW 2145   1.937   2.207   1.895
  710SOL    HW1 2146   1.845   2.179   1.866
  710SOL    HW2 2147   1.968   2.284   1.839
  711SOL     OW 2148   1.934   2.028   2.180
  711SOL    HW1 2149   1.917   2.111   2.126
  711SOL    HW2 2150   2.024   1.991   2.158
  712SOL     OW 2151   2.456   2.607   2.514
  712SOL    HW1 2152   2.506   2.692   2.495
  712SOL    HW2 2153   2.368   2.609   2.466
  713SOL     OW 2154   2.721   2.818   2.723
  713SOL    HW1 2155   2.775   2.749   2.771
  713SOL    HW2 2156   2.689   2.887   2.789
  714SOL     OW 2157   2.290   2.286   2.382
  714SOL    HW1 2158   2.320   2.214   2.320
  714SOL    HW2 2159   2.251   2.246   2.465
   2.81571   2.81571   2.81571
