mobley_5692472_GMX.gro created by acpype (v: 2023.10.27) on Thu May 14 13:50:22 2026
 1405
    1MOL     C1    1   1.141   1.177   1.098
    1MOL     C2    2   1.277   1.209   1.293
    1MOL     N1    3   1.141   1.191   1.243
    1MOL     H1    4   1.239   1.203   1.057
    1MOL     H2    5   1.065   1.242   1.054
    1MOL     H3    6   1.118   1.073   1.071
    1MOL     H4    7   1.275   1.252   1.394
    1MOL     H5    8   1.333   1.276   1.228
    1MOL     H6    9   1.328   1.113   1.297
    1MOL     H7   10   1.085   1.273   1.269
    2SOL     OW   11   0.230   0.628   0.113
    2SOL    HW1   12   0.137   0.626   0.150
    2SOL    HW2   13   0.231   0.589   0.021
    3SOL     OW   14   0.225   0.275   0.996
    3SOL    HW1   15   0.260   0.258   1.088
    3SOL    HW2   16   0.137   0.230   0.984
    4SOL     OW   17   0.019   0.368   0.647
    4SOL    HW1   18  -0.063   0.411   0.686
    4SOL    HW2   19  -0.009   0.295   0.584
    5SOL     OW   20   0.569   1.275   1.165
    5SOL    HW1   21   0.476   1.268   1.128
    5SOL    HW2   22   0.580   1.364   1.209
    6SOL     OW   23   1.555   1.511   0.703
    6SOL    HW1   24   1.498   1.495   0.784
    6SOL    HW2   25   1.496   1.521   0.623
    7SOL     OW   26   1.135   0.703   0.717
    7SOL    HW1   27   1.192   0.781   0.692
    7SOL    HW2   28   1.075   0.729   0.793
    8SOL     OW   29   1.755   0.607   0.231
    8SOL    HW1   30   1.743   0.594   0.132
    8SOL    HW2   31   1.725   0.526   0.280
    9SOL     OW   32   0.768   1.144   1.023
    9SOL    HW1   33   0.690   1.161   1.083
    9SOL    HW2   34   0.802   1.231   0.987
   10SOL     OW   35   0.850   0.798   1.823
   10SOL    HW1   36   0.846   0.874   1.888
   10SOL    HW2   37   0.872   0.834   1.732
   11SOL     OW   38   0.685   1.012   0.665
   11SOL    HW1   39   0.754   0.996   0.735
   11SOL    HW2   40   0.612   1.069   0.703
   12SOL     OW   41   0.686   1.161   1.803
   12SOL    HW1   42   0.746   1.240   1.817
   12SOL    HW2   43   0.600   1.192   1.762
   13SOL     OW   44   0.335   1.435   1.061
   13SOL    HW1   45   0.257   1.404   1.008
   13SOL    HW2   46   0.393   1.493   1.004
   14SOL     OW   47   1.460   1.505   1.339
   14SOL    HW1   48   1.484   1.599   1.365
   14SOL    HW2   49   1.444   1.451   1.421
   15SOL     OW   50   0.438   0.392   1.499
   15SOL    HW1   51   0.520   0.336   1.508
   15SOL    HW2   52   0.357   0.334   1.503
   16SOL     OW   53   1.603   0.447   0.737
   16SOL    HW1   54   1.529   0.493   0.687
   16SOL    HW2   55   1.654   0.515   0.790
   17SOL     OW   56   0.231   1.713   0.483
   17SOL    HW1   57   0.265   1.790   0.537
   17SOL    HW2   58   0.275   1.713   0.393
   18SOL     OW   59   1.127   1.341   1.690
   18SOL    HW1   60   1.174   1.341   1.778
   18SOL    HW2   61   1.079   1.254   1.679
   19SOL     OW   62   0.230   1.434   0.538
   19SOL    HW1   63   0.204   1.530   0.538
   19SOL    HW2   64   0.159   1.380   0.583
   20SOL     OW   65   0.240   1.091   0.886
   20SOL    HW1   66   0.254   1.007   0.938
   20SOL    HW2   67   0.185   1.155   0.941
   21SOL     OW   68   0.620   1.786   1.439
   21SOL    HW1   69   0.528   1.769   1.474
   21SOL    HW2   70   0.648   1.878   1.465
   22SOL     OW   71   0.606   0.964   0.123
   22SOL    HW1   72   0.613   1.048   0.069
   22SOL    HW2   73   0.652   0.977   0.211
   23SOL     OW   74   1.594   0.114   1.480
   23SOL    HW1   75   1.576   0.181   1.408
   23SOL    HW2   76   1.591   0.160   1.569
   24SOL     OW   77   0.122   0.643   0.563
   24SOL    HW1   78   0.077   0.555   0.580
   24SOL    HW2   79   0.121   0.697   0.647
   25SOL     OW   80   1.842   1.767   0.359
   25SOL    HW1   81   1.896   1.738   0.439
   25SOL    HW2   82   1.872   1.857   0.330
   26SOL     OW   83   0.027   1.596   0.117
   26SOL    HW1   84   0.008   1.500   0.138
   26SOL    HW2   85  -0.006   1.654   0.192
   27SOL     OW   86   1.689   0.922   0.612
   27SOL    HW1   87   1.784   0.893   0.620
   27SOL    HW2   88   1.681   0.987   0.537
   28SOL     OW   89   1.641   1.108   0.432
   28SOL    HW1   90   1.727   1.110   0.380
   28SOL    HW2   91   1.655   1.155   0.520
   29SOL     OW   92   0.113   0.737   1.597
   29SOL    HW1   93   0.201   0.724   1.642
   29SOL    HW2   94   0.100   0.834   1.575
   30SOL     OW   95   0.613   1.365   0.726
   30SOL    HW1   96   0.564   1.278   0.735
   30SOL    HW2   97   0.590   1.408   0.639
   31SOL     OW   98   0.809   0.004   0.502
   31SOL    HW1   99   0.849   0.095   0.493
   31SOL    HW2  100   0.709   0.012   0.508
   32SOL     OW  101   0.197   0.976   1.264
   32SOL    HW1  102   0.286   0.931   1.250
   32SOL    HW2  103   0.124   0.911   1.245
   33SOL     OW  104   1.525   0.999   0.190
   33SOL    HW1  105   1.462   0.923   0.203
   33SOL    HW2  106   1.573   1.017   0.276
   34SOL     OW  107   1.187   1.792   1.616
   34SOL    HW1  108   1.211   1.852   1.540
   34SOL    HW2  109   1.194   1.697   1.586
   35SOL     OW  110   0.317   0.251   1.801
   35SOL    HW1  111   0.388   0.322   1.807
   35SOL    HW2  112   0.229   0.290   1.829
   36SOL     OW  113   1.466   1.417   0.953
   36SOL    HW1  114   1.407   1.423   1.033
   36SOL    HW2  115   1.451   1.329   0.907
   37SOL     OW  116   1.667   1.714   0.572
   37SOL    HW1  117   1.626   1.691   0.484
   37SOL    HW2  118   1.649   1.640   0.637
   38SOL     OW  119   0.598   0.729   0.270
   38SOL    HW1  120   0.622   0.798   0.202
   38SOL    HW2  121   0.520   0.762   0.324
   39SOL     OW  122   1.281   0.345   0.944
   39SOL    HW1  123   1.195   0.295   0.931
   39SOL    HW2  124   1.343   0.291   1.000
   40SOL     OW  125   1.576   1.662   0.307
   40SOL    HW1  126   1.665   1.708   0.310
   40SOL    HW2  127   1.555   1.638   0.212
   41SOL     OW  128   0.807   0.605   1.465
   41SOL    HW1  129   0.760   0.602   1.554
   41SOL    HW2  130   0.756   0.550   1.399
   42SOL     OW  131   1.394   0.469   1.674
   42SOL    HW1  132   1.374   0.512   1.762
   42SOL    HW2  133   1.472   0.407   1.683
   43SOL     OW  134   0.973   0.890   1.572
   43SOL    HW1  135   1.019   0.806   1.543
   43SOL    HW2  136   0.917   0.924   1.497
   44SOL     OW  137   0.991   0.410   1.242
   44SOL    HW1  138   0.914   0.444   1.296
   44SOL    HW2  139   0.957   0.359   1.163
   45SOL     OW  140   1.041   0.701   0.429
   45SOL    HW1  141   1.067   0.697   0.525
   45SOL    HW2  142   0.956   0.650   0.415
   46SOL     OW  143   0.076   0.811   0.789
   46SOL    HW1  144   0.175   0.799   0.798
   46SOL    HW2  145   0.052   0.906   0.810
   47SOL     OW  146   0.130   1.821   1.571
   47SOL    HW1  147   0.120   1.806   1.670
   47SOL    HW2  148   0.044   1.857   1.535
   48SOL     OW  149   0.865   0.348   0.195
   48SOL    HW1  150   0.924   0.411   0.146
   48SOL    HW2  151   0.884   0.254   0.166
   49SOL     OW  152   1.719   0.585   1.831
   49SOL    HW1  153   1.693   0.674   1.795
   49SOL    HW2  154   1.717   0.517   1.758
   50SOL     OW  155   1.362   1.144   0.545
   50SOL    HW1  156   1.445   1.115   0.497
   50SOL    HW2  157   1.313   1.211   0.489
   51SOL     OW  158   0.550   0.196   0.885
   51SOL    HW1  159   0.545   0.191   0.985
   51SOL    HW2  160   0.552   0.292   0.856
   52SOL     OW  161   1.008   1.456   0.477
   52SOL    HW1  162   0.962   1.528   0.425
   52SOL    HW2  163   1.004   1.476   0.575
   53SOL     OW  164   0.351   1.801   0.853
   53SOL    HW1  165   0.401   1.715   0.859
   53SOL    HW2  166   0.416   1.878   0.850
   54SOL     OW  167   1.795   1.066   0.873
   54SOL    HW1  168   1.733   1.051   0.797
   54SOL    HW2  169   1.743   1.077   0.958
   55SOL     OW  170   1.227   1.550   1.506
   55SOL    HW1  171   1.233   1.473   1.570
   55SOL    HW2  172   1.175   1.524   1.426
   56SOL     OW  173   0.321   0.943   0.242
   56SOL    HW1  174   0.403   0.982   0.200
   56SOL    HW2  175   0.294   0.861   0.193
   57SOL     OW  176   1.458   0.735   0.728
   57SOL    HW1  177   1.453   0.670   0.803
   57SOL    HW2  178   1.538   0.794   0.741
   58SOL     OW  179   0.461   1.266   1.727
   58SOL    HW1  180   0.411   1.267   1.641
   58SOL    HW2  181   0.398   1.248   1.803
   59SOL     OW  182   1.111   1.776   0.237
   59SOL    HW1  183   1.051   1.714   0.287
   59SOL    HW2  184   1.142   1.732   0.152
   60SOL     OW  185   0.202   0.285   1.498
   60SOL    HW1  186   0.122   0.345   1.485
   60SOL    HW2  187   0.192   0.236   1.584
   61SOL     OW  188   1.632   1.377   0.081
   61SOL    HW1  189   1.600   1.471   0.071
   61SOL    HW2  190   1.556   1.314   0.069
   62SOL     OW  191   0.464   1.743   0.323
   62SOL    HW1  192   0.497   1.782   0.409
   62SOL    HW2  193   0.540   1.736   0.258
   63SOL     OW  194   1.400   0.107   0.426
   63SOL    HW1  195   1.376   0.070   0.336
   63SOL    HW2  196   1.499   0.123   0.430
   64SOL     OW  197   0.249   1.785   1.241
   64SOL    HW1  198   0.306   1.720   1.291
   64SOL    HW2  199   0.233   1.752   1.148
   65SOL     OW  200   0.940   1.698   0.904
   65SOL    HW1  201   1.020   1.641   0.925
   65SOL    HW2  202   0.891   1.658   0.827
   66SOL     OW  203   0.382   0.700   0.480
   66SOL    HW1  204   0.427   0.610   0.477
   66SOL    HW2  205   0.288   0.689   0.513
   67SOL     OW  206   1.547   0.222   1.729
   67SOL    HW1  207   1.542   0.259   1.821
   67SOL    HW2  208   1.475   0.153   1.717
   68SOL     OW  209   0.614   0.122   0.117
   68SOL    HW1  210   0.712   0.100   0.124
   68SOL    HW2  211   0.583   0.105   0.024
   69SOL     OW  212   0.781   0.264   1.749
   69SOL    HW1  213   0.848   0.203   1.792
   69SOL    HW2  214   0.708   0.283   1.814
   70SOL     OW  215   0.888   1.514   1.195
   70SOL    HW1  216   0.865   1.489   1.101
   70SOL    HW2  217   0.949   1.445   1.234
   71SOL     OW  218   1.351   0.590   1.433
   71SOL    HW1  219   1.379   0.547   1.518
   71SOL    HW2  220   1.376   0.686   1.434
   72SOL     OW  221   0.803   1.402   0.924
   72SOL    HW1  222   0.893   1.416   0.882
   72SOL    HW2  223   0.732   1.404   0.853
   73SOL     OW  224   0.922   0.503   0.899
   73SOL    HW1  225   0.897   0.494   0.803
   73SOL    HW2  226   0.970   0.421   0.930
   74SOL     OW  227   0.539   0.064   0.512
   74SOL    HW1  228   0.458   0.065   0.570
   74SOL    HW2  229   0.542   0.147   0.457
   75SOL     OW  230   1.434   1.188   0.041
   75SOL    HW1  231   1.466   1.112   0.098
   75SOL    HW2  232   1.342   1.215   0.071
   76SOL     OW  233   0.297   0.035   0.171
   76SOL    HW1  234   0.346   0.119   0.150
   76SOL    HW2  235   0.359  -0.030   0.216
   77SOL     OW  236   0.935   0.236   0.480
   77SOL    HW1  237   0.887   0.277   0.402
   77SOL    HW2  238   1.034   0.234   0.461
   78SOL     OW  239   1.076   0.683   1.464
   78SOL    HW1  240   0.996   0.622   1.467
   78SOL    HW2  241   1.157   0.630   1.440
   79SOL     OW  242   1.227   1.570   0.793
   79SOL    HW1  243   1.248   1.644   0.728
   79SOL    HW2  244   1.295   1.570   0.866
   80SOL     OW  245   0.459   1.152   0.741
   80SOL    HW1  246   0.388   1.125   0.806
   80SOL    HW2  247   0.433   1.124   0.648
   81SOL     OW  248   1.271   1.797   0.591
   81SOL    HW1  249   1.315   1.861   0.527
   81SOL    HW2  250   1.221   1.849   0.661
   82SOL     OW  251   1.032   0.549   0.016
   82SOL    HW1  252   0.991   0.631  -0.023
   82SOL    HW2  253   1.096   0.575   0.089
   83SOL     OW  254   0.078   0.556   1.386
   83SOL    HW1  255   0.170   0.555   1.345
   83SOL    HW2  256   0.072   0.630   1.453
   84SOL     OW  257   0.561   0.222   1.147
   84SOL    HW1  258   0.599   0.138   1.184
   84SOL    HW2  259   0.473   0.241   1.191
   85SOL     OW  260   0.866   0.454   0.642
   85SOL    HW1  261   0.834   0.526   0.580
   85SOL    HW2  262   0.890   0.373   0.589
   86SOL     OW  263   1.017   0.039   0.753
   86SOL    HW1  264   0.945   0.044   0.684
   86SOL    HW2  265   0.993  -0.030   0.822
   87SOL     OW  266   1.429   1.173   0.867
   87SOL    HW1  267   1.374   1.089   0.860
   87SOL    HW2  268   1.455   1.202   0.775
   88SOL     OW  269   1.466   0.590   0.992
   88SOL    HW1  270   1.436   0.495   0.999
   88SOL    HW2  271   1.539   0.606   1.058
   89SOL     OW  272   1.857   0.833   0.377
   89SOL    HW1  273   1.899   0.769   0.441
   89SOL    HW2  274   1.819   0.782   0.299
   90SOL     OW  275   0.488   1.385   0.174
   90SOL    HW1  276   0.401   1.370   0.221
   90SOL    HW2  277   0.471   1.411   0.079
   91SOL     OW  278   1.664   1.280   0.657
   91SOL    HW1  279   1.763   1.288   0.671
   91SOL    HW2  280   1.619   1.364   0.688
   92SOL     OW  281   1.390   0.575   0.078
   92SOL    HW1  282   1.336   0.554   0.159
   92SOL    HW2  283   1.481   0.534   0.087
   93SOL     OW  284   0.527   0.256   0.328
   93SOL    HW1  285   0.554   0.197   0.253
   93SOL    HW2  286   0.527   0.351   0.297
   94SOL     OW  287   1.754   1.223   1.588
   94SOL    HW1  288   1.845   1.184   1.575
   94SOL    HW2  289   1.762   1.319   1.612
   95SOL     OW  290   1.592   1.629   1.625
   95SOL    HW1  291   1.619   1.663   1.535
   95SOL    HW2  292   1.671   1.591   1.671
   96SOL     OW  293   1.638   1.099   1.079
   96SOL    HW1  294   1.643   1.180   1.138
   96SOL    HW2  295   1.552   1.101   1.028
   97SOL     OW  296   0.915   0.089   1.402
   97SOL    HW1  297   0.940   0.069   1.307
   97SOL    HW2  298   0.987   0.145   1.444
   98SOL     OW  299   0.980   1.116   1.719
   98SOL    HW1  300   0.881   1.122   1.729
   98SOL    HW2  301   1.003   1.036   1.663
   99SOL     OW  302   0.705   1.050   0.368
   99SOL    HW1  303   0.691   1.057   0.467
   99SOL    HW2  304   0.789   0.999   0.350
  100SOL     OW  305   0.410   0.813   1.251
  100SOL    HW1  306   0.496   0.825   1.301
  100SOL    HW2  307   0.368   0.726   1.278
  101SOL     OW  308   1.274   0.386   1.262
  101SOL    HW1  309   1.295   0.460   1.326
  101SOL    HW2  310   1.185   0.403   1.219
  102SOL     OW  311   0.064   1.564   1.331
  102SOL    HW1  312   0.018   1.646   1.297
  102SOL    HW2  313   0.162   1.583   1.340
  103SOL     OW  314   0.367   1.100   0.501
  103SOL    HW1  315   0.360   1.183   0.445
  103SOL    HW2  316   0.371   1.020   0.441
  104SOL     OW  317   0.566   0.537   0.865
  104SOL    HW1  318   0.578   0.603   0.791
  104SOL    HW2  319   0.612   0.571   0.948
  105SOL     OW  320   1.252   1.348   0.388
  105SOL    HW1  321   1.302   1.425   0.428
  105SOL    HW2  322   1.157   1.350   0.420
  106SOL     OW  323   1.272   1.445   1.142
  106SOL    HW1  324   1.319   1.458   1.229
  106SOL    HW2  325   1.206   1.371   1.151
  107SOL     OW  326   1.582   0.639   0.472
  107SOL    HW1  327   1.551   0.700   0.545
  107SOL    HW2  328   1.632   0.691   0.403
  108SOL     OW  329   0.354   1.510   1.329
  108SOL    HW1  330   0.333   1.466   1.242
  108SOL    HW2  331   0.451   1.536   1.332
  109SOL     OW  332   0.402   0.751   1.598
  109SOL    HW1  333   0.470   0.806   1.551
  109SOL    HW2  334   0.442   0.663   1.625
  110SOL     OW  335   1.587   0.779   1.670
  110SOL    HW1  336   1.495   0.817   1.665
  110SOL    HW2  337   1.647   0.826   1.605
  111SOL     OW  338   1.013   0.105   1.770
  111SOL    HW1  339   1.019   0.190   1.718
  111SOL    HW2  340   1.045   0.029   1.713
  112SOL     OW  341   0.504   0.050   1.740
  112SOL    HW1  342   0.462  -0.007   1.670
  112SOL    HW2  343   0.438   0.119   1.772
  113SOL     OW  344   0.573   0.870   1.029
  113SOL    HW1  345   0.617   0.959   1.020
  113SOL    HW2  346   0.510   0.870   1.106
  114SOL     OW  347   1.360   0.862   1.045
  114SOL    HW1  348   1.285   0.862   0.979
  114SOL    HW2  349   1.397   0.770   1.054
  115SOL     OW  350   1.209   0.525   0.275
  115SOL    HW1  351   1.222   0.441   0.329
  115SOL    HW2  352   1.180   0.599   0.335
  116SOL     OW  353   0.307   0.213   1.231
  116SOL    HW1  354   0.284   0.250   1.321
  116SOL    HW2  355   0.277   0.118   1.225
  117SOL     OW  356   0.037   1.310   1.282
  117SOL    HW1  357   0.090   1.261   1.350
  117SOL    HW2  358   0.059   1.408   1.287
  118SOL     OW  359   0.732   0.634   1.064
  118SOL    HW1  360   0.791   0.608   0.988
  118SOL    HW2  361   0.704   0.730   1.053
  119SOL     OW  362   1.728   0.935   1.854
  119SOL    HW1  363   1.682   0.928   1.765
  119SOL    HW2  364   1.666   0.979   1.920
  120SOL     OW  365   0.307   0.063   0.618
  120SOL    HW1  366   0.296   0.157   0.651
  120SOL    HW2  367   0.302   0.000   0.695
  121SOL     OW  368   1.622   0.367   0.374
  121SOL    HW1  369   1.624   0.291   0.438
  121SOL    HW2  370   1.574   0.444   0.414
  122SOL     OW  371   1.023   0.766   0.966
  122SOL    HW1  372   1.038   0.787   1.062
  122SOL    HW2  373   0.993   0.671   0.957
  123SOL     OW  374   0.980   1.573   1.700
  123SOL    HW1  375   0.960   1.617   1.612
  123SOL    HW2  376   1.019   1.482   1.684
  124SOL     OW  377   1.859   1.518   1.605
  124SOL    HW1  378   1.873   1.545   1.510
  124SOL    HW2  379   1.942   1.540   1.658
  125SOL     OW  380   0.350   0.898   1.804
  125SOL    HW1  381   0.426   0.942   1.852
  125SOL    HW2  382   0.385   0.851   1.722
  126SOL     OW  383   1.540   0.274   0.125
  126SOL    HW1  384   1.479   0.199   0.148
  126SOL    HW2  385   1.562   0.326   0.208
  127SOL     OW  386   1.303   0.838   0.042
  127SOL    HW1  387   1.337   0.745   0.057
  127SOL    HW2  388   1.321   0.865  -0.053
  128SOL     OW  389   1.068   1.333   0.849
  128SOL    HW1  390   1.075   1.249   0.794
  128SOL    HW2  391   1.130   1.402   0.813
  129SOL     OW  392   0.319   0.810   0.949
  129SOL    HW1  393   0.412   0.846   0.954
  129SOL    HW2  394   0.313   0.725   1.001
  130SOL     OW  395   0.339   0.509   1.006
  130SOL    HW1  396   0.287   0.426   0.989
  130SOL    HW2  397   0.416   0.514   0.942
  131SOL     OW  398   1.138   0.380   1.678
  131SOL    HW1  399   1.093   0.443   1.742
  131SOL    HW2  400   1.231   0.411   1.661
  132SOL     OW  401   1.160   0.207   1.477
  132SOL    HW1  402   1.160   0.271   1.554
  132SOL    HW2  403   1.188   0.255   1.394
  133SOL     OW  404   0.008   1.326   0.200
  133SOL    HW1  405  -0.085   1.347   0.169
  133SOL    HW2  406   0.018   1.227   0.213
  134SOL     OW  407   0.088   1.801   0.927
  134SOL    HW1  408   0.046   1.715   0.900
  134SOL    HW2  409   0.182   1.804   0.893
  135SOL     OW  410   0.504   1.568   0.910
  135SOL    HW1  411   0.570   1.642   0.919
  135SOL    HW2  412   0.548   1.489   0.868
  136SOL     OW  413   1.002   0.796   1.238
  136SOL    HW1  414   1.043   0.764   1.324
  136SOL    HW2  415   0.906   0.769   1.235
  137SOL     OW  416   0.040   0.544   1.114
  137SOL    HW1  417   0.125   0.511   1.073
  137SOL    HW2  418   0.053   0.559   1.212
  138SOL     OW  419   0.189   0.520   1.722
  138SOL    HW1  420   0.248   0.480   1.652
  138SOL    HW2  421   0.131   0.591   1.681
  139SOL     OW  422   1.369   0.950   1.660
  139SOL    HW1  423   1.408   1.039   1.680
  139SOL    HW2  424   1.379   0.930   1.563
  140SOL     OW  425   0.815   0.572   0.325
  140SOL    HW1  426   0.822   0.483   0.279
  140SOL    HW2  427   0.721   0.606   0.317
  141SOL     OW  428   1.657   0.604   1.206
  141SOL    HW1  429   1.619   0.535   1.268
  141SOL    HW2  430   1.739   0.568   1.162
  142SOL     OW  431   0.252   1.564   1.744
  142SOL    HW1  432   0.222   1.621   1.820
  142SOL    HW2  433   0.245   1.467   1.770
  143SOL     OW  434   0.671   0.464   1.269
  143SOL    HW1  435   0.637   0.375   1.239
  143SOL    HW2  436   0.697   0.518   1.189
  144SOL     OW  437   0.930   1.678   1.465
  144SOL    HW1  438   0.906   1.660   1.370
  144SOL    HW2  439   0.960   1.772   1.475
  145SOL     OW  440   0.473   0.500   0.191
  145SOL    HW1  441   0.534   0.580   0.195
  145SOL    HW2  442   0.378   0.531   0.198
  146SOL     OW  443   0.159   1.137   1.466
  146SOL    HW1  444   0.181   1.076   1.542
  146SOL    HW2  445   0.169   1.088   1.380
  147SOL     OW  446   1.302   0.855   0.309
  147SOL    HW1  447   1.216   0.824   0.351
  147SOL    HW2  448   1.298   0.841   0.210
  148SOL     OW  449   1.759   1.747   1.154
  148SOL    HW1  450   1.820   1.777   1.081
  148SOL    HW2  451   1.721   1.658   1.132
  149SOL     OW  452   1.252   1.731   1.128
  149SOL    HW1  453   1.336   1.736   1.074
  149SOL    HW2  454   1.229   1.635   1.146
  150SOL     OW  455   0.083   1.258   1.022
  150SOL    HW1  456   0.078   1.257   1.122
  150SOL    HW2  457   0.000   1.217   0.984
  151SOL     OW  458   0.688   1.662   1.716
  151SOL    HW1  459   0.632   1.743   1.725
  151SOL    HW2  460   0.740   1.666   1.630
  152SOL     OW  461   0.903   0.086   0.133
  152SOL    HW1  462   0.954   0.087   0.047
  152SOL    HW2  463   0.959   0.044   0.204
  153SOL     OW  464   1.726   0.135   0.523
  153SOL    HW1  465   1.799   0.118   0.456
  153SOL    HW2  466   1.695   0.048   0.561
  154SOL     OW  467   1.388   1.573   0.477
  154SOL    HW1  468   1.455   1.585   0.403
  154SOL    HW2  469   1.348   1.662   0.500
  155SOL     OW  470   0.130   1.794   1.851
  155SOL    HW1  471   0.089   1.720   1.904
  155SOL    HW2  472   0.194   1.845   1.909
  156SOL     OW  473   1.280   0.927   0.672
  156SOL    HW1  474   1.340   0.846   0.674
  156SOL    HW2  475   1.320   0.996   0.612
  157SOL     OW  476   0.830   1.273   1.422
  157SOL    HW1  477   0.825   1.306   1.517
  157SOL    HW2  478   0.744   1.292   1.376
  158SOL     OW  479   0.672   1.616   0.154
  158SOL    HW1  480   0.681   1.626   0.055
  158SOL    HW2  481   0.632   1.527   0.175
  159SOL     OW  482   1.650   1.720   1.394
  159SOL    HW1  483   1.703   1.730   1.310
  159SOL    HW2  484   1.623   1.810   1.428
  160SOL     OW  485   1.841   0.175   0.963
  160SOL    HW1  486   1.880   0.090   0.927
  160SOL    HW2  487   1.743   0.177   0.944
  161SOL     OW  488   0.263   0.326   0.720
  161SOL    HW1  489   0.184   0.377   0.686
  161SOL    HW2  490   0.254   0.311   0.818
  162SOL     OW  491   1.194   1.612   0.031
  162SOL    HW1  492   1.200   1.519   0.068
  162SOL    HW2  493   1.135   1.612  -0.049
  163SOL     OW  494   0.822   1.002   1.372
  163SOL    HW1  495   0.862   1.001   1.280
  163SOL    HW2  496   0.832   1.094   1.412
  164SOL     OW  497   0.916   0.910   0.291
  164SOL    HW1  498   0.979   0.948   0.223
  164SOL    HW2  499   0.956   0.827   0.330
  165SOL     OW  500   1.504   1.607   0.044
  165SOL    HW1  501   1.412   1.644   0.051
  165SOL    HW2  502   1.542   1.627  -0.046
  166SOL     OW  503   0.372   1.288   1.490
  166SOL    HW1  504   0.359   1.381   1.456
  166SOL    HW2  505   0.288   1.236   1.477
  167SOL     OW  506   1.614   1.292   1.289
  167SOL    HW1  507   1.674   1.295   1.369
  167SOL    HW2  508   1.539   1.356   1.302
  168SOL     OW  509   1.039   1.098   0.696
  168SOL    HW1  510   0.969   1.051   0.750
  168SOL    HW2  511   1.098   1.030   0.653
  169SOL     OW  512   1.014   0.236   0.971
  169SOL    HW1  513   1.006   0.200   0.878
  169SOL    HW2  514   1.012   0.160   1.036
  170SOL     OW  515   0.590   1.487   0.491
  170SOL    HW1  516   0.632   1.429   0.421
  170SOL    HW2  517   0.546   1.566   0.447
  171SOL     OW  518   1.709   0.385   1.381
  171SOL    HW1  519   1.782   0.454   1.385
  171SOL    HW2  520   1.737   0.310   1.322
  172SOL     OW  521   0.255   1.348   0.290
  172SOL    HW1  522   0.159   1.349   0.263
  172SOL    HW2  523   0.267   1.401   0.374
  173SOL     OW  524   0.105   1.013   1.726
  173SOL    HW1  525   0.028   0.980   1.780
  173SOL    HW2  526   0.190   0.983   1.768
  174SOL     OW  527   0.672   0.203   1.489
  174SOL    HW1  528   0.762   0.187   1.449
  174SOL    HW2  529   0.680   0.208   1.588
  175SOL     OW  530   0.075   0.345   0.033
  175SOL    HW1  531  -0.017   0.317   0.004
  175SOL    HW2  532   0.106   0.422  -0.023
  176SOL     OW  533   1.440   0.856   1.398
  176SOL    HW1  534   1.383   0.908   1.335
  176SOL    HW2  535   1.536   0.868   1.374
  177SOL     OW  536   0.072   0.166   0.318
  177SOL    HW1  537   0.055   0.249   0.264
  177SOL    HW2  538   0.162   0.129   0.296
  178SOL     OW  539   1.183   1.335   0.119
  178SOL    HW1  540   1.084   1.324   0.121
  178SOL    HW2  541   1.217   1.350   0.212
  179SOL     OW  542   0.613   0.842   1.431
  179SOL    HW1  543   0.669   0.923   1.414
  179SOL    HW2  544   0.672   0.762   1.434
  180SOL     OW  545   1.493   1.767   0.959
  180SOL    HW1  546   1.526   1.831   0.890
  180SOL    HW2  547   1.559   1.761   1.034
  181SOL     OW  548   0.716   0.565   1.708
  181SOL    HW1  549   0.735   0.630   1.782
  181SOL    HW2  550   0.776   0.485   1.717
  182SOL     OW  551   1.450   1.220   1.633
  182SOL    HW1  552   1.441   1.210   1.732
  182SOL    HW2  553   1.546   1.213   1.607
  183SOL     OW  554   0.390   1.741   1.560
  183SOL    HW1  555   0.299   1.782   1.558
  183SOL    HW2  556   0.383   1.647   1.592
  184SOL     OW  557   1.674   0.883   1.254
  184SOL    HW1  558   1.647   0.794   1.217
  184SOL    HW2  559   1.675   0.951   1.181
  185SOL     OW  560   1.225   0.325   0.449
  185SOL    HW1  561   1.290   0.251   0.438
  185SOL    HW2  562   1.245   0.375   0.533
  186SOL     OW  563   0.594   0.745   0.652
  186SOL    HW1  564   0.644   0.830   0.633
  186SOL    HW2  565   0.506   0.747   0.604
  187SOL     OW  566   1.777   0.342   1.642
  187SOL    HW1  567   1.760   0.373   1.548
  187SOL    HW2  568   1.693   0.305   1.680
  188SOL     OW  569   1.730   0.934   1.517
  188SOL    HW1  570   1.768   1.025   1.532
  188SOL    HW2  571   1.722   0.917   1.418
  189SOL     OW  572   0.859   1.374   0.016
  189SOL    HW1  573   0.813   1.389   0.104
  189SOL    HW2  574   0.903   1.459  -0.014
  190SOL     OW  575   0.661   1.790   0.953
  190SOL    HW1  576   0.615   1.878   0.940
  190SOL    HW2  577   0.760   1.802   0.946
  191SOL     OW  578   0.859   0.956   0.861
  191SOL    HW1  579   0.913   0.887   0.909
  191SOL    HW2  580   0.827   1.025   0.927
  192SOL     OW  581   1.083   0.984   0.087
  192SOL    HW1  582   1.060   1.037   0.005
  192SOL    HW2  583   1.164   0.928   0.068
  193SOL     OW  584   1.861   1.569   0.851
  193SOL    HW1  585   1.790   1.557   0.781
  193SOL    HW2  586   1.862   1.490   0.911
  194SOL     OW  587   0.221   1.314   1.844
  194SOL    HW1  588   0.156   1.241   1.823
  194SOL    HW2  589   0.225   1.328   1.942
  195SOL     OW  590   0.079   1.240   0.653
  195SOL    HW1  591   0.078   1.193   0.741
  195SOL    HW2  592   0.161   1.212   0.602
  196SOL     OW  593   0.672   1.391   1.624
  196SOL    HW1  594   0.594   1.341   1.662
  196SOL    HW2  595   0.669   1.486   1.655
  197SOL     OW  596   1.824   0.192   1.227
  197SOL    HW1  597   1.820   0.102   1.271
  197SOL    HW2  598   1.827   0.181   1.128
  198SOL     OW  599   0.428   0.424   0.520
  198SOL    HW1  600   0.458   0.352   0.458
  198SOL    HW2  601   0.389   0.384   0.603
  199SOL     OW  602   1.705   1.487   1.104
  199SOL    HW1  603   1.612   1.462   1.077
  199SOL    HW2  604   1.731   1.437   1.186
  200SOL     OW  605   0.317   0.547   1.280
  200SOL    HW1  606   0.355   0.488   1.352
  200SOL    HW2  607   0.357   0.521   1.192
  201SOL     OW  608   0.812   1.586   0.687
  201SOL    HW1  609   0.844   1.596   0.593
  201SOL    HW2  610   0.733   1.524   0.689
  202SOL     OW  611   1.424   0.214   1.112
  202SOL    HW1  612   1.476   0.149   1.167
  202SOL    HW2  613   1.375   0.277   1.173
  203SOL     OW  614   1.001   0.034   1.154
  203SOL    HW1  615   0.938  -0.038   1.123
  203SOL    HW2  616   1.094  -0.002   1.154
  204SOL     OW  617   0.770   1.330   0.301
  204SOL    HW1  618   0.724   1.243   0.318
  204SOL    HW2  619   0.861   1.327   0.342
  205SOL     OW  620   0.618   1.567   1.284
  205SOL    HW1  621   0.613   1.649   1.341
  205SOL    HW2  622   0.707   1.564   1.239
  206SOL     OW  623   1.352   0.052   0.168
  206SOL    HW1  624   1.387   0.011   0.084
  206SOL    HW2  625   1.262   0.014   0.188
  207SOL     OW  626   1.300   0.453   0.691
  207SOL    HW1  627   1.241   0.533   0.695
  207SOL    HW2  628   1.315   0.418   0.784
  208SOL     OW  629   1.593   0.221   0.882
  208SOL    HW1  630   1.509   0.220   0.936
  208SOL    HW2  631   1.595   0.304   0.826
  209SOL     OW  632   0.039   1.077   0.300
  209SOL    HW1  633   0.138   1.066   0.291
  209SOL    HW2  634  -0.001   0.991   0.332
  210SOL     OW  635   0.875   1.646   0.337
  210SOL    HW1  636   0.798   1.611   0.283
  210SOL    HW2  637   0.843   1.717   0.399
  211SOL     OW  638   0.230   0.628   1.975
  211SOL    HW1  639   0.137   0.626   2.012
  211SOL    HW2  640   0.231   0.589   1.883
  212SOL     OW  641   1.755   0.607   2.093
  212SOL    HW1  642   1.743   0.594   1.994
  212SOL    HW2  643   1.725   0.526   2.142
  213SOL     OW  644   0.231   1.713   2.345
  213SOL    HW1  645   0.265   1.790   2.399
  213SOL    HW2  646   0.275   1.713   2.255
  214SOL     OW  647   0.230   1.434   2.400
  214SOL    HW1  648   0.204   1.530   2.400
  214SOL    HW2  649   0.159   1.380   2.445
  215SOL     OW  650   0.606   0.964   1.985
  215SOL    HW1  651   0.613   1.048   1.931
  215SOL    HW2  652   0.652   0.977   2.073
  216SOL     OW  653   1.842   1.767   2.221
  216SOL    HW1  654   1.896   1.738   2.301
  216SOL    HW2  655   1.872   1.857   2.192
  217SOL     OW  656   0.027   1.596   1.979
  217SOL    HW1  657   0.008   1.500   2.000
  217SOL    HW2  658  -0.006   1.654   2.054
  218SOL     OW  659   1.689   0.922   2.474
  218SOL    HW1  660   1.784   0.893   2.482
  218SOL    HW2  661   1.681   0.987   2.399
  219SOL     OW  662   1.641   1.108   2.294
  219SOL    HW1  663   1.727   1.110   2.242
  219SOL    HW2  664   1.655   1.155   2.382
  220SOL     OW  665   0.809   0.004   2.364
  220SOL    HW1  666   0.849   0.095   2.355
  220SOL    HW2  667   0.709   0.012   2.370
  221SOL     OW  668   1.525   0.999   2.052
  221SOL    HW1  669   1.462   0.923   2.065
  221SOL    HW2  670   1.573   1.017   2.138
  222SOL     OW  671   0.598   0.729   2.132
  222SOL    HW1  672   0.622   0.798   2.064
  222SOL    HW2  673   0.520   0.762   2.186
  223SOL     OW  674   1.576   1.662   2.169
  223SOL    HW1  675   1.665   1.708   2.172
  223SOL    HW2  676   1.555   1.638   2.074
  224SOL     OW  677   0.865   0.348   2.057
  224SOL    HW1  678   0.924   0.411   2.008
  224SOL    HW2  679   0.884   0.254   2.028
  225SOL     OW  680   0.321   0.943   2.104
  225SOL    HW1  681   0.403   0.982   2.062
  225SOL    HW2  682   0.294   0.861   2.055
  226SOL     OW  683   1.458   0.735   2.590
  226SOL    HW1  684   1.453   0.670   2.665
  226SOL    HW2  685   1.538   0.794   2.603
  227SOL     OW  686   1.111   1.776   2.099
  227SOL    HW1  687   1.051   1.714   2.149
  227SOL    HW2  688   1.142   1.732   2.014
  228SOL     OW  689   1.632   1.377   1.943
  228SOL    HW1  690   1.600   1.471   1.933
  228SOL    HW2  691   1.556   1.314   1.931
  229SOL     OW  692   0.464   1.743   2.185
  229SOL    HW1  693   0.497   1.782   2.271
  229SOL    HW2  694   0.540   1.736   2.120
  230SOL     OW  695   1.400   0.107   2.288
  230SOL    HW1  696   1.376   0.070   2.198
  230SOL    HW2  697   1.499   0.123   2.292
  231SOL     OW  698   0.614   0.122   1.979
  231SOL    HW1  699   0.712   0.100   1.986
  231SOL    HW2  700   0.583   0.105   1.886
  232SOL     OW  701   1.434   1.188   1.903
  232SOL    HW1  702   1.466   1.112   1.960
  232SOL    HW2  703   1.342   1.215   1.933
  233SOL     OW  704   0.297   0.035   2.033
  233SOL    HW1  705   0.346   0.119   2.012
  233SOL    HW2  706   0.359  -0.030   2.078
  234SOL     OW  707   0.935   0.236   2.342
  234SOL    HW1  708   0.887   0.277   2.264
  234SOL    HW2  709   1.034   0.234   2.323
  235SOL     OW  710   1.227   1.570   2.655
  235SOL    HW1  711   1.248   1.644   2.590
  235SOL    HW2  712   1.295   1.570   2.728
  236SOL     OW  713   0.459   1.152   2.603
  236SOL    HW1  714   0.388   1.125   2.668
  236SOL    HW2  715   0.433   1.124   2.510
  237SOL     OW  716   1.271   1.797   2.453
  237SOL    HW1  717   1.315   1.861   2.389
  237SOL    HW2  718   1.221   1.849   2.523
  238SOL     OW  719   1.032   0.549   1.878
  238SOL    HW1  720   0.991   0.631   1.839
  238SOL    HW2  721   1.096   0.575   1.951
  239SOL     OW  722   1.429   1.173   2.729
  239SOL    HW1  723   1.374   1.089   2.722
  239SOL    HW2  724   1.455   1.202   2.637
  240SOL     OW  725   1.857   0.833   2.239
  240SOL    HW1  726   1.899   0.769   2.303
  240SOL    HW2  727   1.819   0.782   2.161
  241SOL     OW  728   0.488   1.385   2.036
  241SOL    HW1  729   0.401   1.370   2.083
  241SOL    HW2  730   0.471   1.411   1.941
  242SOL     OW  731   1.390   0.575   1.940
  242SOL    HW1  732   1.336   0.554   2.021
  242SOL    HW2  733   1.481   0.534   1.949
  243SOL     OW  734   0.527   0.256   2.190
  243SOL    HW1  735   0.554   0.197   2.115
  243SOL    HW2  736   0.527   0.351   2.159
  244SOL     OW  737   0.705   1.050   2.230
  244SOL    HW1  738   0.691   1.057   2.329
  244SOL    HW2  739   0.789   0.999   2.212
  245SOL     OW  740   0.367   1.100   2.363
  245SOL    HW1  741   0.360   1.183   2.307
  245SOL    HW2  742   0.371   1.020   2.303
  246SOL     OW  743   1.252   1.348   2.250
  246SOL    HW1  744   1.302   1.425   2.290
  246SOL    HW2  745   1.157   1.350   2.282
  247SOL     OW  746   1.582   0.639   2.334
  247SOL    HW1  747   1.551   0.700   2.407
  247SOL    HW2  748   1.632   0.691   2.265
  248SOL     OW  749   1.209   0.525   2.137
  248SOL    HW1  750   1.222   0.441   2.191
  248SOL    HW2  751   1.180   0.599   2.197
  249SOL     OW  752   1.622   0.367   2.236
  249SOL    HW1  753   1.624   0.291   2.300
  249SOL    HW2  754   1.574   0.444   2.276
  250SOL     OW  755   1.540   0.274   1.987
  250SOL    HW1  756   1.479   0.199   2.010
  250SOL    HW2  757   1.562   0.326   2.070
  251SOL     OW  758   1.303   0.838   1.904
  251SOL    HW1  759   1.337   0.745   1.919
  251SOL    HW2  760   1.321   0.865   1.809
  252SOL     OW  761   0.008   1.326   2.062
  252SOL    HW1  762  -0.085   1.347   2.031
  252SOL    HW2  763   0.018   1.227   2.075
  253SOL     OW  764   0.815   0.572   2.187
  253SOL    HW1  765   0.822   0.483   2.141
  253SOL    HW2  766   0.721   0.606   2.179
  254SOL     OW  767   0.473   0.500   2.053
  254SOL    HW1  768   0.534   0.580   2.057
  254SOL    HW2  769   0.378   0.531   2.060
  255SOL     OW  770   1.302   0.855   2.171
  255SOL    HW1  771   1.216   0.824   2.213
  255SOL    HW2  772   1.298   0.841   2.072
  256SOL     OW  773   1.726   0.135   2.385
  256SOL    HW1  774   1.799   0.118   2.318
  256SOL    HW2  775   1.695   0.048   2.423
  257SOL     OW  776   0.672   1.616   2.016
  257SOL    HW1  777   0.681   1.626   1.917
  257SOL    HW2  778   0.632   1.527   2.037
  258SOL     OW  779   0.263   0.326   2.582
  258SOL    HW1  780   0.184   0.377   2.548
  258SOL    HW2  781   0.254   0.311   2.680
  259SOL     OW  782   1.194   1.612   1.893
  259SOL    HW1  783   1.200   1.519   1.930
  259SOL    HW2  784   1.135   1.612   1.813
  260SOL     OW  785   0.916   0.910   2.153
  260SOL    HW1  786   0.979   0.948   2.085
  260SOL    HW2  787   0.956   0.827   2.192
  261SOL     OW  788   1.504   1.607   1.906
  261SOL    HW1  789   1.412   1.644   1.913
  261SOL    HW2  790   1.542   1.627   1.816
  262SOL     OW  791   0.590   1.487   2.353
  262SOL    HW1  792   0.632   1.429   2.283
  262SOL    HW2  793   0.546   1.566   2.309
  263SOL     OW  794   0.255   1.348   2.152
  263SOL    HW1  795   0.159   1.349   2.125
  263SOL    HW2  796   0.267   1.401   2.236
  264SOL     OW  797   0.075   0.345   1.895
  264SOL    HW1  798  -0.017   0.317   1.866
  264SOL    HW2  799   0.106   0.422   1.839
  265SOL     OW  800   0.072   0.166   2.180
  265SOL    HW1  801   0.055   0.249   2.126
  265SOL    HW2  802   0.162   0.129   2.158
  266SOL     OW  803   1.183   1.335   1.981
  266SOL    HW1  804   1.084   1.324   1.983
  266SOL    HW2  805   1.217   1.350   2.074
  267SOL     OW  806   1.225   0.325   2.311
  267SOL    HW1  807   1.290   0.251   2.300
  267SOL    HW2  808   1.245   0.375   2.395
  268SOL     OW  809   0.859   1.374   1.878
  268SOL    HW1  810   0.813   1.389   1.966
  268SOL    HW2  811   0.903   1.459   1.848
  269SOL     OW  812   1.083   0.984   1.949
  269SOL    HW1  813   1.060   1.037   1.867
  269SOL    HW2  814   1.164   0.928   1.930
  270SOL     OW  815   0.428   0.424   2.382
  270SOL    HW1  816   0.458   0.352   2.320
  270SOL    HW2  817   0.389   0.384   2.465
  271SOL     OW  818   0.770   1.330   2.163
  271SOL    HW1  819   0.724   1.243   2.180
  271SOL    HW2  820   0.861   1.327   2.204
  272SOL     OW  821   1.352   0.052   2.030
  272SOL    HW1  822   1.387   0.011   1.946
  272SOL    HW2  823   1.262   0.014   2.050
  273SOL     OW  824   0.039   1.077   2.162
  273SOL    HW1  825   0.138   1.066   2.153
  273SOL    HW2  826  -0.001   0.991   2.194
  274SOL     OW  827   0.875   1.646   2.199
  274SOL    HW1  828   0.798   1.611   2.145
  274SOL    HW2  829   0.843   1.717   2.261
  275SOL     OW  830   0.225   2.137   0.996
  275SOL    HW1  831   0.260   2.120   1.088
  275SOL    HW2  832   0.137   2.092   0.984
  276SOL     OW  833   0.019   2.230   0.647
  276SOL    HW1  834  -0.063   2.273   0.686
  276SOL    HW2  835  -0.009   2.157   0.584
  277SOL     OW  836   0.438   2.254   1.499
  277SOL    HW1  837   0.520   2.198   1.508
  277SOL    HW2  838   0.357   2.196   1.503
  278SOL     OW  839   1.603   2.309   0.737
  278SOL    HW1  840   1.529   2.355   0.687
  278SOL    HW2  841   1.654   2.377   0.790
  279SOL     OW  842   1.594   1.976   1.480
  279SOL    HW1  843   1.576   2.043   1.408
  279SOL    HW2  844   1.591   2.022   1.569
  280SOL     OW  845   0.122   2.505   0.563
  280SOL    HW1  846   0.077   2.417   0.580
  280SOL    HW2  847   0.121   2.559   0.647
  281SOL     OW  848   0.809   1.866   0.502
  281SOL    HW1  849   0.849   1.957   0.493
  281SOL    HW2  850   0.709   1.874   0.508
  282SOL     OW  851   0.317   2.113   1.801
  282SOL    HW1  852   0.388   2.184   1.807
  282SOL    HW2  853   0.229   2.152   1.829
  283SOL     OW  854   1.281   2.207   0.944
  283SOL    HW1  855   1.195   2.157   0.931
  283SOL    HW2  856   1.343   2.153   1.000
  284SOL     OW  857   1.394   2.331   1.674
  284SOL    HW1  858   1.374   2.374   1.762
  284SOL    HW2  859   1.472   2.269   1.683
  285SOL     OW  860   0.991   2.272   1.242
  285SOL    HW1  861   0.914   2.306   1.296
  285SOL    HW2  862   0.957   2.221   1.163
  286SOL     OW  863   0.865   2.210   0.195
  286SOL    HW1  864   0.924   2.273   0.146
  286SOL    HW2  865   0.884   2.116   0.166
  287SOL     OW  866   1.719   2.447   1.831
  287SOL    HW1  867   1.693   2.536   1.795
  287SOL    HW2  868   1.717   2.379   1.758
  288SOL     OW  869   0.550   2.058   0.885
  288SOL    HW1  870   0.545   2.053   0.985
  288SOL    HW2  871   0.552   2.154   0.856
  289SOL     OW  872   0.202   2.147   1.498
  289SOL    HW1  873   0.122   2.207   1.485
  289SOL    HW2  874   0.192   2.098   1.584
  290SOL     OW  875   1.400   1.969   0.426
  290SOL    HW1  876   1.376   1.932   0.336
  290SOL    HW2  877   1.499   1.985   0.430
  291SOL     OW  878   1.547   2.084   1.729
  291SOL    HW1  879   1.542   2.121   1.821
  291SOL    HW2  880   1.475   2.015   1.717
  292SOL     OW  881   0.614   1.984   0.117
  292SOL    HW1  882   0.712   1.962   0.124
  292SOL    HW2  883   0.583   1.967   0.024
  293SOL     OW  884   0.781   2.126   1.749
  293SOL    HW1  885   0.848   2.065   1.792
  293SOL    HW2  886   0.708   2.145   1.814
  294SOL     OW  887   1.351   2.452   1.433
  294SOL    HW1  888   1.379   2.409   1.518
  294SOL    HW2  889   1.376   2.548   1.434
  295SOL     OW  890   0.539   1.926   0.512
  295SOL    HW1  891   0.458   1.927   0.570
  295SOL    HW2  892   0.542   2.009   0.457
  296SOL     OW  893   0.297   1.897   0.171
  296SOL    HW1  894   0.346   1.981   0.150
  296SOL    HW2  895   0.359   1.832   0.216
  297SOL     OW  896   0.935   2.098   0.480
  297SOL    HW1  897   0.887   2.139   0.402
  297SOL    HW2  898   1.034   2.096   0.461
  298SOL     OW  899   0.078   2.418   1.386
  298SOL    HW1  900   0.170   2.417   1.345
  298SOL    HW2  901   0.072   2.492   1.453
  299SOL     OW  902   0.561   2.084   1.147
  299SOL    HW1  903   0.599   2.000   1.184
  299SOL    HW2  904   0.473   2.103   1.191
  300SOL     OW  905   1.017   1.901   0.753
  300SOL    HW1  906   0.945   1.906   0.684
  300SOL    HW2  907   0.993   1.832   0.822
  301SOL     OW  908   1.466   2.452   0.992
  301SOL    HW1  909   1.436   2.357   0.999
  301SOL    HW2  910   1.539   2.468   1.058
  302SOL     OW  911   0.527   2.118   0.328
  302SOL    HW1  912   0.554   2.059   0.253
  302SOL    HW2  913   0.527   2.213   0.297
  303SOL     OW  914   0.915   1.951   1.402
  303SOL    HW1  915   0.940   1.931   1.307
  303SOL    HW2  916   0.987   2.007   1.444
  304SOL     OW  917   1.274   2.248   1.262
  304SOL    HW1  918   1.295   2.322   1.326
  304SOL    HW2  919   1.185   2.265   1.219
  305SOL     OW  920   0.566   2.399   0.865
  305SOL    HW1  921   0.578   2.465   0.791
  305SOL    HW2  922   0.612   2.433   0.948
  306SOL     OW  923   1.013   1.967   1.770
  306SOL    HW1  924   1.019   2.052   1.718
  306SOL    HW2  925   1.045   1.891   1.713
  307SOL     OW  926   0.504   1.912   1.740
  307SOL    HW1  927   0.462   1.855   1.670
  307SOL    HW2  928   0.438   1.981   1.772
  308SOL     OW  929   0.307   2.075   1.231
  308SOL    HW1  930   0.284   2.112   1.321
  308SOL    HW2  931   0.277   1.980   1.225
  309SOL     OW  932   0.732   2.496   1.064
  309SOL    HW1  933   0.791   2.470   0.988
  309SOL    HW2  934   0.704   2.592   1.053
  310SOL     OW  935   0.307   1.925   0.618
  310SOL    HW1  936   0.296   2.019   0.651
  310SOL    HW2  937   0.302   1.862   0.695
  311SOL     OW  938   1.622   2.229   0.374
  311SOL    HW1  939   1.624   2.153   0.438
  311SOL    HW2  940   1.574   2.306   0.414
  312SOL     OW  941   1.540   2.136   0.125
  312SOL    HW1  942   1.479   2.061   0.148
  312SOL    HW2  943   1.562   2.188   0.208
  313SOL     OW  944   0.339   2.371   1.006
  313SOL    HW1  945   0.287   2.288   0.989
  313SOL    HW2  946   0.416   2.376   0.942
  314SOL     OW  947   1.138   2.242   1.678
  314SOL    HW1  948   1.093   2.305   1.742
  314SOL    HW2  949   1.231   2.273   1.661
  315SOL     OW  950   1.160   2.069   1.477
  315SOL    HW1  951   1.160   2.133   1.554
  315SOL    HW2  952   1.188   2.117   1.394
  316SOL     OW  953   0.040   2.406   1.114
  316SOL    HW1  954   0.125   2.373   1.073
  316SOL    HW2  955   0.053   2.421   1.212
  317SOL     OW  956   0.189   2.382   1.722
  317SOL    HW1  957   0.248   2.342   1.652
  317SOL    HW2  958   0.131   2.453   1.681
  318SOL     OW  959   0.815   2.434   0.325
  318SOL    HW1  960   0.822   2.345   0.279
  318SOL    HW2  961   0.721   2.468   0.317
  319SOL     OW  962   1.657   2.466   1.206
  319SOL    HW1  963   1.619   2.397   1.268
  319SOL    HW2  964   1.739   2.430   1.162
  320SOL     OW  965   0.671   2.326   1.269
  320SOL    HW1  966   0.637   2.237   1.239
  320SOL    HW2  967   0.697   2.380   1.189
  321SOL     OW  968   0.903   1.948   0.133
  321SOL    HW1  969   0.954   1.949   0.047
  321SOL    HW2  970   0.959   1.906   0.204
  322SOL     OW  971   1.726   1.997   0.523
  322SOL    HW1  972   1.799   1.980   0.456
  322SOL    HW2  973   1.695   1.910   0.561
  323SOL     OW  974   1.841   2.037   0.963
  323SOL    HW1  975   1.880   1.952   0.927
  323SOL    HW2  976   1.743   2.039   0.944
  324SOL     OW  977   0.263   2.188   0.720
  324SOL    HW1  978   0.184   2.239   0.686
  324SOL    HW2  979   0.254   2.173   0.818
  325SOL     OW  980   1.014   2.098   0.971
  325SOL    HW1  981   1.006   2.062   0.878
  325SOL    HW2  982   1.012   2.022   1.036
  326SOL     OW  983   1.709   2.247   1.381
  326SOL    HW1  984   1.782   2.316   1.385
  326SOL    HW2  985   1.737   2.172   1.322
  327SOL     OW  986   0.672   2.065   1.489
  327SOL    HW1  987   0.762   2.049   1.449
  327SOL    HW2  988   0.680   2.070   1.588
  328SOL     OW  989   0.075   2.207   0.033
  328SOL    HW1  990  -0.017   2.179   0.004
  328SOL    HW2  991   0.106   2.284  -0.023
  329SOL     OW  992   0.072   2.028   0.318
  329SOL    HW1  993   0.055   2.111   0.264
  329SOL    HW2  994   0.162   1.991   0.296
  330SOL     OW  995   0.716   2.427   1.708
  330SOL    HW1  996   0.735   2.492   1.782
  330SOL    HW2  997   0.776   2.347   1.717
  331SOL     OW  998   1.225   2.187   0.449
  331SOL    HW1  999   1.290   2.113   0.438
  331SOL    HW2 1000   1.245   2.237   0.533
  332SOL     OW 1001   0.594   2.607   0.652
  332SOL    HW1 1002   0.644   2.692   0.633
  332SOL    HW2 1003   0.506   2.609   0.604
  333SOL     OW 1004   1.777   2.204   1.642
  333SOL    HW1 1005   1.760   2.235   1.548
  333SOL    HW2 1006   1.693   2.167   1.680
  334SOL     OW 1007   1.824   2.054   1.227
  334SOL    HW1 1008   1.820   1.964   1.271
  334SOL    HW2 1009   1.827   2.043   1.128
  335SOL     OW 1010   0.428   2.286   0.520
  335SOL    HW1 1011   0.458   2.214   0.458
  335SOL    HW2 1012   0.389   2.246   0.603
  336SOL     OW 1013   1.424   2.076   1.112
  336SOL    HW1 1014   1.476   2.011   1.167
  336SOL    HW2 1015   1.375   2.139   1.173
  337SOL     OW 1016   1.001   1.896   1.154
  337SOL    HW1 1017   0.938   1.824   1.123
  337SOL    HW2 1018   1.094   1.860   1.154
  338SOL     OW 1019   1.300   2.315   0.691
  338SOL    HW1 1020   1.241   2.395   0.695
  338SOL    HW2 1021   1.315   2.280   0.784
  339SOL     OW 1022   1.593   2.083   0.882
  339SOL    HW1 1023   1.509   2.082   0.936
  339SOL    HW2 1024   1.595   2.166   0.826
  340SOL     OW 1025   1.135   2.565   2.579
  340SOL    HW1 1026   1.192   2.643   2.554
  340SOL    HW2 1027   1.075   2.591   2.655
  341SOL     OW 1028   1.755   2.469   2.093
  341SOL    HW1 1029   1.743   2.456   1.994
  341SOL    HW2 1030   1.725   2.388   2.142
  342SOL     OW 1031   0.122   2.505   2.425
  342SOL    HW1 1032   0.077   2.417   2.442
  342SOL    HW2 1033   0.121   2.559   2.509
  343SOL     OW 1034   0.809   1.866   2.364
  343SOL    HW1 1035   0.849   1.957   2.355
  343SOL    HW2 1036   0.709   1.874   2.370
  344SOL     OW 1037   0.865   2.210   2.057
  344SOL    HW1 1038   0.924   2.273   2.008
  344SOL    HW2 1039   0.884   2.116   2.028
  345SOL     OW 1040   1.400   1.969   2.288
  345SOL    HW1 1041   1.376   1.932   2.198
  345SOL    HW2 1042   1.499   1.985   2.292
  346SOL     OW 1043   0.382   2.562   2.342
  346SOL    HW1 1044   0.427   2.472   2.339
  346SOL    HW2 1045   0.288   2.551   2.375
  347SOL     OW 1046   0.614   1.984   1.979
  347SOL    HW1 1047   0.712   1.962   1.986
  347SOL    HW2 1048   0.583   1.967   1.886
  348SOL     OW 1049   0.297   1.897   2.033
  348SOL    HW1 1050   0.346   1.981   2.012
  348SOL    HW2 1051   0.359   1.832   2.078
  349SOL     OW 1052   0.935   2.098   2.342
  349SOL    HW1 1053   0.887   2.139   2.264
  349SOL    HW2 1054   1.034   2.096   2.323
  350SOL     OW 1055   0.527   2.118   2.190
  350SOL    HW1 1056   0.554   2.059   2.115
  350SOL    HW2 1057   0.527   2.213   2.159
  351SOL     OW 1058   1.622   2.229   2.236
  351SOL    HW1 1059   1.624   2.153   2.300
  351SOL    HW2 1060   1.574   2.306   2.276
  352SOL     OW 1061   1.540   2.136   1.987
  352SOL    HW1 1062   1.479   2.061   2.010
  352SOL    HW2 1063   1.562   2.188   2.070
  353SOL     OW 1064   1.303   2.700   1.904
  353SOL    HW1 1065   1.337   2.607   1.919
  353SOL    HW2 1066   1.321   2.727   1.809
  354SOL     OW 1067   0.815   2.434   2.187
  354SOL    HW1 1068   0.822   2.345   2.141
  354SOL    HW2 1069   0.721   2.468   2.179
  355SOL     OW 1070   1.726   1.997   2.385
  355SOL    HW1 1071   1.799   1.980   2.318
  355SOL    HW2 1072   1.695   1.910   2.423
  356SOL     OW 1073   0.263   2.188   2.582
  356SOL    HW1 1074   0.184   2.239   2.548
  356SOL    HW2 1075   0.254   2.173   2.680
  357SOL     OW 1076   0.075   2.207   1.895
  357SOL    HW1 1077  -0.017   2.179   1.866
  357SOL    HW2 1078   0.106   2.284   1.839
  358SOL     OW 1079   0.072   2.028   2.180
  358SOL    HW1 1080   0.055   2.111   2.126
  358SOL    HW2 1081   0.162   1.991   2.158
  359SOL     OW 1082   1.225   2.187   2.311
  359SOL    HW1 1083   1.290   2.113   2.300
  359SOL    HW2 1084   1.245   2.237   2.395
  360SOL     OW 1085   0.428   2.286   2.382
  360SOL    HW1 1086   0.458   2.214   2.320
  360SOL    HW2 1087   0.389   2.246   2.465
  361SOL     OW 1088   1.352   1.914   2.030
  361SOL    HW1 1089   1.387   1.873   1.946
  361SOL    HW2 1090   1.262   1.876   2.050
  362SOL     OW 1091   2.092   0.628   0.113
  362SOL    HW1 1092   1.999   0.626   0.150
  362SOL    HW2 1093   2.093   0.589   0.021
  363SOL     OW 1094   2.087   0.275   0.996
  363SOL    HW1 1095   2.122   0.258   1.088
  363SOL    HW2 1096   1.999   0.230   0.984
  364SOL     OW 1097   1.881   0.368   0.647
  364SOL    HW1 1098   1.799   0.411   0.686
  364SOL    HW2 1099   1.853   0.295   0.584
  365SOL     OW 1100   2.197   1.435   1.061
  365SOL    HW1 1101   2.119   1.404   1.008
  365SOL    HW2 1102   2.255   1.493   1.004
  366SOL     OW 1103   2.300   0.392   1.499
  366SOL    HW1 1104   2.382   0.336   1.508
  366SOL    HW2 1105   2.219   0.334   1.503
  367SOL     OW 1106   2.093   1.713   0.483
  367SOL    HW1 1107   2.127   1.790   0.537
  367SOL    HW2 1108   2.137   1.713   0.393
  368SOL     OW 1109   2.092   1.434   0.538
  368SOL    HW1 1110   2.066   1.530   0.538
  368SOL    HW2 1111   2.021   1.380   0.583
  369SOL     OW 1112   2.102   1.091   0.886
  369SOL    HW1 1113   2.116   1.007   0.938
  369SOL    HW2 1114   2.047   1.155   0.941
  370SOL     OW 1115   1.984   0.643   0.563
  370SOL    HW1 1116   1.939   0.555   0.580
  370SOL    HW2 1117   1.983   0.697   0.647
  371SOL     OW 1118   1.889   1.596   0.117
  371SOL    HW1 1119   1.870   1.500   0.138
  371SOL    HW2 1120   1.856   1.654   0.192
  372SOL     OW 1121   1.975   0.737   1.597
  372SOL    HW1 1122   2.063   0.724   1.642
  372SOL    HW2 1123   1.962   0.834   1.575
  373SOL     OW 1124   2.059   0.976   1.264
  373SOL    HW1 1125   2.148   0.931   1.250
  373SOL    HW2 1126   1.986   0.911   1.245
  374SOL     OW 1127   2.179   0.251   1.801
  374SOL    HW1 1128   2.250   0.322   1.807
  374SOL    HW2 1129   2.091   0.290   1.829
  375SOL     OW 1130   2.460   0.729   0.270
  375SOL    HW1 1131   2.484   0.798   0.202
  375SOL    HW2 1132   2.382   0.762   0.324
  376SOL     OW 1133   1.938   0.811   0.789
  376SOL    HW1 1134   2.037   0.799   0.798
  376SOL    HW2 1135   1.914   0.906   0.810
  377SOL     OW 1136   1.992   1.821   1.571
  377SOL    HW1 1137   1.982   1.806   1.670
  377SOL    HW2 1138   1.906   1.857   1.535
  378SOL     OW 1139   2.412   0.196   0.885
  378SOL    HW1 1140   2.407   0.191   0.985
  378SOL    HW2 1141   2.414   0.292   0.856
  379SOL     OW 1142   2.213   1.801   0.853
  379SOL    HW1 1143   2.263   1.715   0.859
  379SOL    HW2 1144   2.278   1.878   0.850
  380SOL     OW 1145   2.183   0.943   0.242
  380SOL    HW1 1146   2.265   0.982   0.200
  380SOL    HW2 1147   2.156   0.861   0.193
  381SOL     OW 1148   2.323   1.266   1.727
  381SOL    HW1 1149   2.273   1.267   1.641
  381SOL    HW2 1150   2.260   1.248   1.803
  382SOL     OW 1151   2.064   0.285   1.498
  382SOL    HW1 1152   1.984   0.345   1.485
  382SOL    HW2 1153   2.054   0.236   1.584
  383SOL     OW 1154   2.111   1.785   1.241
  383SOL    HW1 1155   2.168   1.720   1.291
  383SOL    HW2 1156   2.095   1.752   1.148
  384SOL     OW 1157   2.244   0.700   0.480
  384SOL    HW1 1158   2.289   0.610   0.477
  384SOL    HW2 1159   2.150   0.689   0.513
  385SOL     OW 1160   2.159   0.035   0.171
  385SOL    HW1 1161   2.208   0.119   0.150
  385SOL    HW2 1162   2.221  -0.030   0.216
  386SOL     OW 1163   2.321   1.152   0.741
  386SOL    HW1 1164   2.250   1.125   0.806
  386SOL    HW2 1165   2.295   1.124   0.648
  387SOL     OW 1166   1.940   0.556   1.386
  387SOL    HW1 1167   2.032   0.555   1.345
  387SOL    HW2 1168   1.934   0.630   1.453
  388SOL     OW 1169   2.272   0.813   1.251
  388SOL    HW1 1170   2.358   0.825   1.301
  388SOL    HW2 1171   2.230   0.726   1.278
  389SOL     OW 1172   1.926   1.564   1.331
  389SOL    HW1 1173   1.880   1.646   1.297
  389SOL    HW2 1174   2.024   1.583   1.340
  390SOL     OW 1175   2.229   1.100   0.501
  390SOL    HW1 1176   2.222   1.183   0.445
  390SOL    HW2 1177   2.233   1.020   0.441
  391SOL     OW 1178   2.428   0.537   0.865
  391SOL    HW1 1179   2.440   0.603   0.791
  391SOL    HW2 1180   2.474   0.571   0.948
  392SOL     OW 1181   2.264   0.751   1.598
  392SOL    HW1 1182   2.332   0.806   1.551
  392SOL    HW2 1183   2.304   0.663   1.625
  393SOL     OW 1184   2.366   0.050   1.740
  393SOL    HW1 1185   2.324  -0.007   1.670
  393SOL    HW2 1186   2.300   0.119   1.772
  394SOL     OW 1187   2.435   0.870   1.029
  394SOL    HW1 1188   2.479   0.959   1.020
  394SOL    HW2 1189   2.372   0.870   1.106
  395SOL     OW 1190   2.169   0.213   1.231
  395SOL    HW1 1191   2.146   0.250   1.321
  395SOL    HW2 1192   2.139   0.118   1.225
  396SOL     OW 1193   1.899   1.310   1.282
  396SOL    HW1 1194   1.952   1.261   1.350
  396SOL    HW2 1195   1.921   1.408   1.287
  397SOL     OW 1196   2.169   0.063   0.618
  397SOL    HW1 1197   2.158   0.157   0.651
  397SOL    HW2 1198   2.164   0.000   0.695
  398SOL     OW 1199   2.212   0.898   1.804
  398SOL    HW1 1200   2.288   0.942   1.852
  398SOL    HW2 1201   2.247   0.851   1.722
  399SOL     OW 1202   2.181   0.810   0.949
  399SOL    HW1 1203   2.274   0.846   0.954
  399SOL    HW2 1204   2.175   0.725   1.001
  400SOL     OW 1205   2.201   0.509   1.006
  400SOL    HW1 1206   2.149   0.426   0.989
  400SOL    HW2 1207   2.278   0.514   0.942
  401SOL     OW 1208   1.870   1.326   0.200
  401SOL    HW1 1209   1.777   1.347   0.169
  401SOL    HW2 1210   1.880   1.227   0.213
  402SOL     OW 1211   1.950   1.801   0.927
  402SOL    HW1 1212   1.908   1.715   0.900
  402SOL    HW2 1213   2.044   1.804   0.893
  403SOL     OW 1214   1.902   0.544   1.114
  403SOL    HW1 1215   1.987   0.511   1.073
  403SOL    HW2 1216   1.915   0.559   1.212
  404SOL     OW 1217   2.051   0.520   1.722
  404SOL    HW1 1218   2.110   0.480   1.652
  404SOL    HW2 1219   1.993   0.591   1.681
  405SOL     OW 1220   2.114   1.564   1.744
  405SOL    HW1 1221   2.084   1.621   1.820
  405SOL    HW2 1222   2.107   1.467   1.770
  406SOL     OW 1223   2.335   0.500   0.191
  406SOL    HW1 1224   2.396   0.580   0.195
  406SOL    HW2 1225   2.240   0.531   0.198
  407SOL     OW 1226   2.021   1.137   1.466
  407SOL    HW1 1227   2.043   1.076   1.542
  407SOL    HW2 1228   2.031   1.088   1.380
  408SOL     OW 1229   1.945   1.258   1.022
  408SOL    HW1 1230   1.940   1.257   1.122
  408SOL    HW2 1231   1.862   1.217   0.984
  409SOL     OW 1232   1.992   1.794   1.851
  409SOL    HW1 1233   1.951   1.720   1.904
  409SOL    HW2 1234   2.056   1.845   1.909
  410SOL     OW 1235   2.125   0.326   0.720
  410SOL    HW1 1236   2.046   0.377   0.686
  410SOL    HW2 1237   2.116   0.311   0.818
  411SOL     OW 1238   2.234   1.288   1.490
  411SOL    HW1 1239   2.221   1.381   1.456
  411SOL    HW2 1240   2.150   1.236   1.477
  412SOL     OW 1241   2.452   1.487   0.491
  412SOL    HW1 1242   2.494   1.429   0.421
  412SOL    HW2 1243   2.408   1.566   0.447
  413SOL     OW 1244   2.117   1.348   0.290
  413SOL    HW1 1245   2.021   1.349   0.263
  413SOL    HW2 1246   2.129   1.401   0.374
  414SOL     OW 1247   1.967   1.013   1.726
  414SOL    HW1 1248   1.890   0.980   1.780
  414SOL    HW2 1249   2.052   0.983   1.768
  415SOL     OW 1250   1.937   0.345   0.033
  415SOL    HW1 1251   1.845   0.317   0.004
  415SOL    HW2 1252   1.968   0.422  -0.023
  416SOL     OW 1253   1.934   0.166   0.318
  416SOL    HW1 1254   1.917   0.249   0.264
  416SOL    HW2 1255   2.024   0.129   0.296
  417SOL     OW 1256   2.252   1.741   1.560
  417SOL    HW1 1257   2.161   1.782   1.558
  417SOL    HW2 1258   2.245   1.647   1.592
  418SOL     OW 1259   2.083   1.314   1.844
  418SOL    HW1 1260   2.018   1.241   1.823
  418SOL    HW2 1261   2.087   1.328   1.942
  419SOL     OW 1262   1.941   1.240   0.653
  419SOL    HW1 1263   1.940   1.193   0.741
  419SOL    HW2 1264   2.023   1.212   0.602
  420SOL     OW 1265   2.534   1.391   1.624
  420SOL    HW1 1266   2.456   1.341   1.662
  420SOL    HW2 1267   2.531   1.486   1.655
  421SOL     OW 1268   2.179   0.547   1.280
  421SOL    HW1 1269   2.217   0.488   1.352
  421SOL    HW2 1270   2.219   0.521   1.192
  422SOL     OW 1271   1.901   1.077   0.300
  422SOL    HW1 1272   2.000   1.066   0.291
  422SOL    HW2 1273   1.861   0.991   0.332
  423SOL     OW 1274   2.092   0.628   1.975
  423SOL    HW1 1275   1.999   0.626   2.012
  423SOL    HW2 1276   2.093   0.589   1.883
  424SOL     OW 1277   2.093   1.713   2.345
  424SOL    HW1 1278   2.127   1.790   2.399
  424SOL    HW2 1279   2.137   1.713   2.255
  425SOL     OW 1280   2.092   1.434   2.400
  425SOL    HW1 1281   2.066   1.530   2.400
  425SOL    HW2 1282   2.021   1.380   2.445
  426SOL     OW 1283   1.889   1.596   1.979
  426SOL    HW1 1284   1.870   1.500   2.000
  426SOL    HW2 1285   1.856   1.654   2.054
  427SOL     OW 1286   2.460   0.729   2.132
  427SOL    HW1 1287   2.484   0.798   2.064
  427SOL    HW2 1288   2.382   0.762   2.186
  428SOL     OW 1289   2.183   0.943   2.104
  428SOL    HW1 1290   2.265   0.982   2.062
  428SOL    HW2 1291   2.156   0.861   2.055
  429SOL     OW 1292   2.159   0.035   2.033
  429SOL    HW1 1293   2.208   0.119   2.012
  429SOL    HW2 1294   2.221  -0.030   2.078
  430SOL     OW 1295   2.229   1.100   2.363
  430SOL    HW1 1296   2.222   1.183   2.307
  430SOL    HW2 1297   2.233   1.020   2.303
  431SOL     OW 1298   1.870   1.326   2.062
  431SOL    HW1 1299   1.777   1.347   2.031
  431SOL    HW2 1300   1.880   1.227   2.075
  432SOL     OW 1301   2.335   0.500   2.053
  432SOL    HW1 1302   2.396   0.580   2.057
  432SOL    HW2 1303   2.240   0.531   2.060
  433SOL     OW 1304   2.125   0.326   2.582
  433SOL    HW1 1305   2.046   0.377   2.548
  433SOL    HW2 1306   2.116   0.311   2.680
  434SOL     OW 1307   2.452   1.487   2.353
  434SOL    HW1 1308   2.494   1.429   2.283
  434SOL    HW2 1309   2.408   1.566   2.309
  435SOL     OW 1310   2.117   1.348   2.152
  435SOL    HW1 1311   2.021   1.349   2.125
  435SOL    HW2 1312   2.129   1.401   2.236
  436SOL     OW 1313   1.937   0.345   1.895
  436SOL    HW1 1314   1.845   0.317   1.866
  436SOL    HW2 1315   1.968   0.422   1.839
  437SOL     OW 1316   1.934   0.166   2.180
  437SOL    HW1 1317   1.917   0.249   2.126
  437SOL    HW2 1318   2.024   0.129   2.158
  438SOL     OW 1319   1.901   1.077   2.162
  438SOL    HW1 1320   2.000   1.066   2.153
  438SOL    HW2 1321   1.861   0.991   2.194
  439SOL     OW 1322   2.087   2.137   0.996
  439SOL    HW1 1323   2.122   2.120   1.088
  439SOL    HW2 1324   1.999   2.092   0.984
  440SOL     OW 1325   1.881   2.230   0.647
  440SOL    HW1 1326   1.799   2.273   0.686
  440SOL    HW2 1327   1.853   2.157   0.584
  441SOL     OW 1328   2.300   2.254   1.499
  441SOL    HW1 1329   2.382   2.198   1.508
  441SOL    HW2 1330   2.219   2.196   1.503
  442SOL     OW 1331   1.984   2.505   0.563
  442SOL    HW1 1332   1.939   2.417   0.580
  442SOL    HW2 1333   1.983   2.559   0.647
  443SOL     OW 1334   2.179   2.113   1.801
  443SOL    HW1 1335   2.250   2.184   1.807
  443SOL    HW2 1336   2.091   2.152   1.829
  444SOL     OW 1337   2.412   2.058   0.885
  444SOL    HW1 1338   2.407   2.053   0.985
  444SOL    HW2 1339   2.414   2.154   0.856
  445SOL     OW 1340   2.064   2.147   1.498
  445SOL    HW1 1341   1.984   2.207   1.485
  445SOL    HW2 1342   2.054   2.098   1.584
  446SOL     OW 1343   2.401   1.926   0.512
  446SOL    HW1 1344   2.320   1.927   0.570
  446SOL    HW2 1345   2.404   2.009   0.457
  447SOL     OW 1346   2.159   1.897   0.171
  447SOL    HW1 1347   2.208   1.981   0.150
  447SOL    HW2 1348   2.221   1.832   0.216
  448SOL     OW 1349   1.940   2.418   1.386
  448SOL    HW1 1350   2.032   2.417   1.345
  448SOL    HW2 1351   1.934   2.492   1.453
  449SOL     OW 1352   2.423   2.084   1.147
  449SOL    HW1 1353   2.461   2.000   1.184
  449SOL    HW2 1354   2.335   2.103   1.191
  450SOL     OW 1355   2.428   2.399   0.865
  450SOL    HW1 1356   2.440   2.465   0.791
  450SOL    HW2 1357   2.474   2.433   0.948
  451SOL     OW 1358   2.366   1.912   1.740
  451SOL    HW1 1359   2.324   1.855   1.670
  451SOL    HW2 1360   2.300   1.981   1.772
  452SOL     OW 1361   2.169   2.075   1.231
  452SOL    HW1 1362   2.146   2.112   1.321
  452SOL    HW2 1363   2.139   1.980   1.225
  453SOL     OW 1364   2.169   1.925   0.618
  453SOL    HW1 1365   2.158   2.019   0.651
  453SOL    HW2 1366   2.164   1.862   0.695
  454SOL     OW 1367   2.201   2.371   1.006
  454SOL    HW1 1368   2.149   2.288   0.989
  454SOL    HW2 1369   2.278   2.376   0.942
  455SOL     OW 1370   1.902   2.406   1.114
  455SOL    HW1 1371   1.987   2.373   1.073
  455SOL    HW2 1372   1.915   2.421   1.212
  456SOL     OW 1373   2.051   2.382   1.722
  456SOL    HW1 1374   2.110   2.342   1.652
  456SOL    HW2 1375   1.993   2.453   1.681
  457SOL     OW 1376   2.125   2.188   0.720
  457SOL    HW1 1377   2.046   2.239   0.686
  457SOL    HW2 1378   2.116   2.173   0.818
  458SOL     OW 1379   1.937   2.207   0.033
  458SOL    HW1 1380   1.845   2.179   0.004
  458SOL    HW2 1381   1.968   2.284  -0.023
  459SOL     OW 1382   1.934   2.028   0.318
  459SOL    HW1 1383   1.917   2.111   0.264
  459SOL    HW2 1384   2.024   1.991   0.296
  460SOL     OW 1385   1.984   2.505   2.425
  460SOL    HW1 1386   1.939   2.417   2.442
  460SOL    HW2 1387   1.983   2.559   2.509
  461SOL     OW 1388   2.244   2.562   2.342
  461SOL    HW1 1389   2.289   2.472   2.339
  461SOL    HW2 1390   2.150   2.551   2.375
  462SOL     OW 1391   2.401   1.926   2.374
  462SOL    HW1 1392   2.320   1.927   2.432
  462SOL    HW2 1393   2.404   2.009   2.319
  463SOL     OW 1394   2.159   1.897   2.033
  463SOL    HW1 1395   2.208   1.981   2.012
  463SOL    HW2 1396   2.221   1.832   2.078
  464SOL     OW 1397   2.125   2.188   2.582
  464SOL    HW1 1398   2.046   2.239   2.548
  464SOL    HW2 1399   2.116   2.173   2.680
  465SOL     OW 1400   1.937   2.207   1.895
  465SOL    HW1 1401   1.845   2.179   1.866
  465SOL    HW2 1402   1.968   2.284   1.839
  466SOL     OW 1403   1.934   2.028   2.180
  466SOL    HW1 1404   1.917   2.111   2.126
  466SOL    HW2 1405   2.024   1.991   2.158
   2.40127   2.40127   2.40127
