; mobley_7364468_GMX.itp created by acpype (v: 2023.10.27) on Thu May 14 13:29:40 2026

[ atomtypes ]
;name   bond_type     mass     charge   ptype   sigma         epsilon       Amb
 ce       ce          0.00000  0.00000   A     3.31521e-01   4.13379e-01 ; 1.86  0.0988
 c2       c2          0.00000  0.00000   A     3.31521e-01   4.13379e-01 ; 1.86  0.0988
 c        c           0.00000  0.00000   A     3.31521e-01   4.13379e-01 ; 1.86  0.0988
 c6       c6          0.00000  0.00000   A     3.39771e-01   4.51035e-01 ; 1.91  0.1078
 c3       c3          0.00000  0.00000   A     3.39771e-01   4.51035e-01 ; 1.91  0.1078
 o        o           0.00000  0.00000   A     3.04812e-01   6.12119e-01 ; 1.71  0.1463
 ha       ha          0.00000  0.00000   A     2.62548e-01   6.73624e-02 ; 1.47  0.0161
 hc       hc          0.00000  0.00000   A     2.60018e-01   8.70272e-02 ; 1.46  0.0208

[ moleculetype ]
;name            nrexcl
 mobley_7364468   3

[ atoms ]
;   nr  type  resi  res  atom  cgnr     charge      mass       ; qtot   bond_type
     1   ce     1   MOL    C1    1    -0.262200     12.01000 ; qtot -0.262
     2   c2     1   MOL    C2    2    -0.040400     12.01000 ; qtot -0.303
     3    c     1   MOL    C3    3     0.572302     12.01000 ; qtot 0.270
     4   c6     1   MOL    C4    4    -0.054200     12.01000 ; qtot 0.216
     5   c6     1   MOL    C5    5    -0.175400     12.01000 ; qtot 0.040
     6   c6     1   MOL    C6    6    -0.044000     12.01000 ; qtot -0.004
     7   c3     1   MOL    C7    7    -0.073900     12.01000 ; qtot -0.078
     8   c3     1   MOL    C8    8    -0.090600     12.01000 ; qtot -0.168
     9   c3     1   MOL    C9    9    -0.090600     12.01000 ; qtot -0.259
    10    o     1   MOL    O1   10    -0.538100     16.00000 ; qtot -0.797
    11   ha     1   MOL    H1   11     0.149000      1.00800 ; qtot -0.648
    12   hc     1   MOL    H2   12     0.058200      1.00800 ; qtot -0.590
    13   hc     1   MOL    H3   13     0.058200      1.00800 ; qtot -0.532
    14   hc     1   MOL    H4   14     0.072700      1.00800 ; qtot -0.459
    15   hc     1   MOL    H5   15     0.072700      1.00800 ; qtot -0.386
    16   hc     1   MOL    H6   16     0.050700      1.00800 ; qtot -0.336
    17   hc     1   MOL    H7   17     0.050700      1.00800 ; qtot -0.285
    18   hc     1   MOL    H8   18     0.050700      1.00800 ; qtot -0.234
    19   hc     1   MOL    H9   19     0.039033      1.00800 ; qtot -0.195
    20   hc     1   MOL   H10   20     0.039033      1.00800 ; qtot -0.156
    21   hc     1   MOL   H11   21     0.039033      1.00800 ; qtot -0.117
    22   hc     1   MOL   H12   22     0.039033      1.00800 ; qtot -0.078
    23   hc     1   MOL   H13   23     0.039033      1.00800 ; qtot -0.039
    24   hc     1   MOL   H14   24     0.039033      1.00800 ; qtot 0.000

[ bonds ]
;   ai     aj funct   r             k
     1      2   1    1.3457e-01    3.5505e+05 ;     C1 - C2    
     1      3   1    1.4848e-01    2.2406e+05 ;     C1 - C3    
     1     11   1    1.0880e-01    2.9923e+05 ;     C1 - H1    
     2      4   1    1.5133e-01    2.0498e+05 ;     C2 - C4    
     2      7   1    1.5088e-01    2.0786e+05 ;     C2 - C7    
     3      5   1    1.5287e-01    1.9550e+05 ;     C3 - C5    
     3     10   1    1.2190e-01    4.9421e+05 ;     C3 - O1    
     4      6   1    1.5384e-01    1.8979e+05 ;     C4 - C6    
     4     12   1    1.0979e-01    2.8681e+05 ;     C4 - H2    
     4     13   1    1.0979e-01    2.8681e+05 ;     C4 - H3    
     5      6   1    1.5384e-01    1.8979e+05 ;     C5 - C6    
     5     14   1    1.0979e-01    2.8681e+05 ;     C5 - H4    
     5     15   1    1.0979e-01    2.8681e+05 ;     C5 - H5    
     6      8   1    1.5428e-01    1.8728e+05 ;     C6 - C8    
     6      9   1    1.5428e-01    1.8728e+05 ;     C6 - C9    
     7     16   1    1.0962e-01    2.8891e+05 ;     C7 - H6    
     7     17   1    1.0962e-01    2.8891e+05 ;     C7 - H7    
     7     18   1    1.0962e-01    2.8891e+05 ;     C7 - H8    
     8     19   1    1.0962e-01    2.8891e+05 ;     C8 - H9    
     8     20   1    1.0962e-01    2.8891e+05 ;     C8 - H10   
     8     21   1    1.0962e-01    2.8891e+05 ;     C8 - H11   
     9     22   1    1.0962e-01    2.8891e+05 ;     C9 - H12   
     9     23   1    1.0962e-01    2.8891e+05 ;     C9 - H13   
     9     24   1    1.0962e-01    2.8891e+05 ;     C9 - H14   

[ pairs ]
;   ai     aj    funct
     1      6      1 ;     C1 - C6    
     1     12      1 ;     C1 - H2    
     1     13      1 ;     C1 - H3    
     1     14      1 ;     C1 - H4    
     1     15      1 ;     C1 - H5    
     1     16      1 ;     C1 - H6    
     1     17      1 ;     C1 - H7    
     1     18      1 ;     C1 - H8    
     2      5      1 ;     C2 - C5    
     2      8      1 ;     C2 - C8    
     2      9      1 ;     C2 - C9    
     2     10      1 ;     C2 - O1    
     3      4      1 ;     C3 - C4    
     3      7      1 ;     C3 - C7    
     3      8      1 ;     C3 - C8    
     3      9      1 ;     C3 - C9    
     4     14      1 ;     C4 - H4    
     4     15      1 ;     C4 - H5    
     4     16      1 ;     C4 - H6    
     4     17      1 ;     C4 - H7    
     4     18      1 ;     C4 - H8    
     4     19      1 ;     C4 - H9    
     4     20      1 ;     C4 - H10   
     4     21      1 ;     C4 - H11   
     4     22      1 ;     C4 - H12   
     4     23      1 ;     C4 - H13   
     4     24      1 ;     C4 - H14   
     5     12      1 ;     C5 - H2    
     5     13      1 ;     C5 - H3    
     5     19      1 ;     C5 - H9    
     5     20      1 ;     C5 - H10   
     5     21      1 ;     C5 - H11   
     5     22      1 ;     C5 - H12   
     5     23      1 ;     C5 - H13   
     5     24      1 ;     C5 - H14   
     6      7      1 ;     C6 - C7    
     6     10      1 ;     C6 - O1    
     7     12      1 ;     C7 - H2    
     7     13      1 ;     C7 - H3    
     8     12      1 ;     C8 - H2    
     8     13      1 ;     C8 - H3    
     8     14      1 ;     C8 - H4    
     8     15      1 ;     C8 - H5    
     8     22      1 ;     C8 - H12   
     8     23      1 ;     C8 - H13   
     8     24      1 ;     C8 - H14   
     9     12      1 ;     C9 - H2    
     9     13      1 ;     C9 - H3    
     9     14      1 ;     C9 - H4    
     9     15      1 ;     C9 - H5    
     9     19      1 ;     C9 - H9    
     9     20      1 ;     C9 - H10   
     9     21      1 ;     C9 - H11   
    10     14      1 ;     O1 - H4    
    10     15      1 ;     O1 - H5    
    11      4      1 ;     H1 - C4    
    11      5      1 ;     H1 - C5    
    11      7      1 ;     H1 - C7    
    11     10      1 ;     H1 - O1    

[ angles ]
;   ai     aj     ak    funct   theta         cth
     1      2      4      1    1.2265e+02    5.1212e+02 ;     C1 - C2     - C4    
     1      2      7      1    1.2558e+02    5.0710e+02 ;     C1 - C2     - C7    
     1      3      5      1    1.1615e+02    5.0258e+02 ;     C1 - C3     - C5    
     1      3     10      1    1.2324e+02    6.5262e+02 ;     C1 - C3     - O1    
     2      1      3      1    1.2200e+02    5.1974e+02 ;     C2 - C1     - C3    
     2      1     11      1    1.2000e+02    3.8694e+02 ;     C2 - C1     - H1    
     2      4      6      1    1.1141e+02    5.0685e+02 ;     C2 - C4     - C6    
     2      4     12      1    1.0931e+02    3.6736e+02 ;     C2 - C4     - H2    
     2      4     13      1    1.0931e+02    3.6736e+02 ;     C2 - C4     - H3    
     2      7     16      1    1.1065e+02    3.6618e+02 ;     C2 - C7     - H6    
     2      7     17      1    1.1065e+02    3.6618e+02 ;     C2 - C7     - H7    
     2      7     18      1    1.1065e+02    3.6618e+02 ;     C2 - C7     - H8    
     3      1     11      1    1.1641e+02    3.6242e+02 ;     C3 - C1     - H1    
     3      5      6      1    1.1143e+02    5.0434e+02 ;     C3 - C5     - C6    
     3      5     14      1    1.0767e+02    3.6685e+02 ;     C3 - C5     - H4    
     3      5     15      1    1.0767e+02    3.6685e+02 ;     C3 - C5     - H5    
     4      2      7      1    1.1671e+02    5.0016e+02 ;     C4 - C2     - C7    
     4      6      5      1    1.1106e+02    5.0359e+02 ;     C4 - C6     - C5    
     4      6      8      1    1.1143e+02    5.0200e+02 ;     C4 - C6     - C8    
     4      6      9      1    1.1143e+02    5.0200e+02 ;     C4 - C6     - C9    
     5      3     10      1    1.2234e+02    6.4065e+02 ;     C5 - C3     - O1    
     5      6      8      1    1.1143e+02    5.0200e+02 ;     C5 - C6     - C8    
     5      6      9      1    1.1143e+02    5.0200e+02 ;     C5 - C6     - C9    
     6      4     12      1    1.0945e+02    3.6175e+02 ;     C6 - C4     - H2    
     6      4     13      1    1.0945e+02    3.6175e+02 ;     C6 - C4     - H3    
     6      5     14      1    1.0945e+02    3.6175e+02 ;     C6 - C5     - H4    
     6      5     15      1    1.0945e+02    3.6175e+02 ;     C6 - C5     - H5    
     6      8     19      1    1.1063e+02    3.5890e+02 ;     C6 - C8     - H9    
     6      8     20      1    1.1063e+02    3.5890e+02 ;     C6 - C8     - H10   
     6      8     21      1    1.1063e+02    3.5890e+02 ;     C6 - C8     - H11   
     6      9     22      1    1.1063e+02    3.5890e+02 ;     C6 - C9     - H12   
     6      9     23      1    1.1063e+02    3.5890e+02 ;     C6 - C9     - H13   
     6      9     24      1    1.1063e+02    3.5890e+02 ;     C6 - C9     - H14   
     8      6      9      1    1.0888e+02    5.0710e+02 ;     C8 - C6     - C9    
    12      4     13      1    1.0662e+02    3.0066e+02 ;     H2 - C4     - H3    
    14      5     15      1    1.0662e+02    3.0066e+02 ;     H4 - C5     - H5    
    16      7     17      1    1.0773e+02    2.9957e+02 ;     H6 - C7     - H7    
    16      7     18      1    1.0773e+02    2.9957e+02 ;     H6 - C7     - H8    
    17      7     18      1    1.0773e+02    2.9957e+02 ;     H7 - C7     - H8    
    19      8     20      1    1.0773e+02    2.9957e+02 ;     H9 - C8     - H10   
    19      8     21      1    1.0773e+02    2.9957e+02 ;     H9 - C8     - H11   
    20      8     21      1    1.0773e+02    2.9957e+02 ;    H10 - C8     - H11   
    22      9     23      1    1.0773e+02    2.9957e+02 ;    H12 - C9     - H13   
    22      9     24      1    1.0773e+02    2.9957e+02 ;    H12 - C9     - H14   
    23      9     24      1    1.0773e+02    2.9957e+02 ;    H13 - C9     - H14   

[ dihedrals ] ; propers
; for gromacs 4.5 or higher, using funct 9
;    i      j      k      l   func   phase     kd      pn
     1      2      4      6      9     0.00   0.00000   0 ;     C1-    C2-    C4-    C6
     1      2      4     12      9     0.00   0.00000   0 ;     C1-    C2-    C4-    H2
     1      2      4     13      9     0.00   0.00000   0 ;     C1-    C2-    C4-    H3
     1      2      7     16      9     0.00   0.00000   0 ;     C1-    C2-    C7-    H6
     1      2      7     17      9     0.00   0.00000   0 ;     C1-    C2-    C7-    H7
     1      2      7     18      9     0.00   0.00000   0 ;     C1-    C2-    C7-    H8
     1      3      5      6      9   180.00   0.00000   2 ;     C1-    C3-    C5-    C6
     1      3      5     14      9   180.00   0.00000   2 ;     C1-    C3-    C5-    H4
     1      3      5     15      9   180.00   0.00000   2 ;     C1-    C3-    C5-    H5
     2      1      3      5      9     0.00  12.13360   2 ;     C2-    C1-    C3-    C5
     2      1      3     10      9   180.00   9.10020   2 ;     C2-    C1-    C3-    O1
     2      4      6      5      9     0.00   0.65084   3 ;     C2-    C4-    C6-    C5
     2      4      6      8      9     0.00   0.65084   3 ;     C2-    C4-    C6-    C8
     2      4      6      9      9     0.00   0.65084   3 ;     C2-    C4-    C6-    C9
     3      1      2      4      9   180.00  27.82360   2 ;     C3-    C1-    C2-    C4
     3      1      2      7      9   180.00  27.82360   2 ;     C3-    C1-    C2-    C7
     3      5      6      4      9     0.00   0.00000   0 ;     C3-    C5-    C6-    C4
     3      5      6      4      9     0.00   0.16736   2 ;     C3-    C5-    C6-    C4
     3      5      6      4      9   180.00   1.92464   1 ;     C3-    C5-    C6-    C4
     3      5      6      8      9     0.00   0.00000   0 ;     C3-    C5-    C6-    C8
     3      5      6      8      9     0.00   0.16736   2 ;     C3-    C5-    C6-    C8
     3      5      6      8      9   180.00   1.92464   1 ;     C3-    C5-    C6-    C8
     3      5      6      9      9     0.00   0.00000   0 ;     C3-    C5-    C6-    C9
     3      5      6      9      9     0.00   0.16736   2 ;     C3-    C5-    C6-    C9
     3      5      6      9      9   180.00   1.92464   1 ;     C3-    C5-    C6-    C9
     4      2      7     16      9     0.00   0.62760   3 ;     C4-    C2-    C7-    H6
     4      2      7     17      9     0.00   0.62760   3 ;     C4-    C2-    C7-    H7
     4      2      7     18      9     0.00   0.62760   3 ;     C4-    C2-    C7-    H8
     4      6      5     14      9     0.00   0.54392   3 ;     C4-    C6-    C5-    H4
     4      6      5     15      9     0.00   0.54392   3 ;     C4-    C6-    C5-    H5
     4      6      8     19      9     0.00   0.54392   3 ;     C4-    C6-    C8-    H9
     4      6      8     20      9     0.00   0.54392   3 ;     C4-    C6-    C8-   H10
     4      6      8     21      9     0.00   0.54392   3 ;     C4-    C6-    C8-   H11
     4      6      9     22      9     0.00   0.54392   3 ;     C4-    C6-    C9-   H12
     4      6      9     23      9     0.00   0.54392   3 ;     C4-    C6-    C9-   H13
     4      6      9     24      9     0.00   0.54392   3 ;     C4-    C6-    C9-   H14
     5      6      4     12      9     0.00   0.54392   3 ;     C5-    C6-    C4-    H2
     5      6      4     13      9     0.00   0.54392   3 ;     C5-    C6-    C4-    H3
     5      6      8     19      9     0.00   0.54392   3 ;     C5-    C6-    C8-    H9
     5      6      8     20      9     0.00   0.54392   3 ;     C5-    C6-    C8-   H10
     5      6      8     21      9     0.00   0.54392   3 ;     C5-    C6-    C8-   H11
     5      6      9     22      9     0.00   0.54392   3 ;     C5-    C6-    C9-   H12
     5      6      9     23      9     0.00   0.54392   3 ;     C5-    C6-    C9-   H13
     5      6      9     24      9     0.00   0.54392   3 ;     C5-    C6-    C9-   H14
     6      4      2      7      9     0.00   0.00000   0 ;     C6-    C4-    C2-    C7
     6      5      3     10      9     0.00   0.46024   2 ;     C6-    C5-    C3-    O1
     6      5      3     10      9     0.00  49.12016   1 ;     C6-    C5-    C3-    O1
     6      5      3     10      9   180.00   0.33472   3 ;     C6-    C5-    C3-    O1
     7      2      4     12      9     0.00   0.62760   3 ;     C7-    C2-    C4-    H2
     7      2      4     13      9     0.00   0.62760   3 ;     C7-    C2-    C4-    H3
     8      6      4     12      9     0.00   0.54392   3 ;     C8-    C6-    C4-    H2
     8      6      4     13      9     0.00   0.54392   3 ;     C8-    C6-    C4-    H3
     8      6      5     14      9     0.00   0.54392   3 ;     C8-    C6-    C5-    H4
     8      6      5     15      9     0.00   0.54392   3 ;     C8-    C6-    C5-    H5
     8      6      9     22      9     0.00   0.54392   3 ;     C8-    C6-    C9-   H12
     8      6      9     23      9     0.00   0.54392   3 ;     C8-    C6-    C9-   H13
     8      6      9     24      9     0.00   0.54392   3 ;     C8-    C6-    C9-   H14
     9      6      4     12      9     0.00   0.54392   3 ;     C9-    C6-    C4-    H2
     9      6      4     13      9     0.00   0.54392   3 ;     C9-    C6-    C4-    H3
     9      6      5     14      9     0.00   0.54392   3 ;     C9-    C6-    C5-    H4
     9      6      5     15      9     0.00   0.54392   3 ;     C9-    C6-    C5-    H5
     9      6      8     19      9     0.00   0.54392   3 ;     C9-    C6-    C8-    H9
     9      6      8     20      9     0.00   0.54392   3 ;     C9-    C6-    C8-   H10
     9      6      8     21      9     0.00   0.54392   3 ;     C9-    C6-    C8-   H11
    10      3      5     14      9     0.00  16.86152   1 ;     O1-    C3-    C5-    H4
    10      3      5     14      9   180.00  15.31344   2 ;     O1-    C3-    C5-    H4
    10      3      5     15      9     0.00  16.86152   1 ;     O1-    C3-    C5-    H5
    10      3      5     15      9   180.00  15.31344   2 ;     O1-    C3-    C5-    H5
    11      1      2      4      9   180.00  27.82360   2 ;     H1-    C1-    C2-    C4
    11      1      2      7      9   180.00  27.82360   2 ;     H1-    C1-    C2-    C7
    11      1      3      5      9   180.00   9.10020   2 ;     H1-    C1-    C3-    C5
    11      1      3     10      9   180.00   9.10020   2 ;     H1-    C1-    C3-    O1

[ dihedrals ] ; impropers
; treated as propers in GROMACS to use correct AMBER analytical function
;    i      j      k      l   func   phase     kd      pn
     1      2      4      7      4   180.00   4.60240   2 ;     C1-    C2-    C4-    C7
     5      1      3     10      4   180.00  43.93200   2 ;     C5-    C1-    C3-    O1
    11      1      2      3      4   180.00   4.60240   2 ;     H1-    C1-    C2-    C3
