mobley_8785107_GMX.gro created by acpype (v: 2023.10.27) on Thu May 14 13:48:12 2026
 1792
    1MOL     C1    1   1.368   1.424   1.238
    1MOL     C2    2   1.230   1.424   1.298
    1MOL     C3    3   1.441   1.328   1.329
    1MOL     C4    4   1.213   1.278   1.335
    1MOL     C5    5   1.558   1.258   1.263
    1MOL     C6    6   1.117   1.256   1.451
    1MOL     O1    7   1.344   1.230   1.371
    1MOL     H1    8   1.364   1.386   1.135
    1MOL     H2    9   1.415   1.524   1.235
    1MOL     H3   10   1.228   1.488   1.387
    1MOL     H4   11   1.153   1.460   1.229
    1MOL     H5   12   1.476   1.379   1.420
    1MOL     H6   13   1.180   1.220   1.249
    1MOL     H7   14   1.601   1.183   1.330
    1MOL     H8   15   1.527   1.208   1.171
    1MOL     H9   16   1.637   1.330   1.238
    1MOL    H10   17   1.161   1.292   1.544
    1MOL    H11   18   1.023   1.310   1.433
    1MOL    H12   19   1.094   1.150   1.462
    2SOL     OW   20   0.230   0.628   0.113
    2SOL    HW1   21   0.137   0.626   0.150
    2SOL    HW2   22   0.231   0.589   0.021
    3SOL     OW   23   0.225   0.275   0.996
    3SOL    HW1   24   0.260   0.258   1.088
    3SOL    HW2   25   0.137   0.230   0.984
    4SOL     OW   26   0.019   0.368   0.647
    4SOL    HW1   27  -0.063   0.411   0.686
    4SOL    HW2   28  -0.009   0.295   0.584
    5SOL     OW   29   0.569   1.275   1.165
    5SOL    HW1   30   0.476   1.268   1.128
    5SOL    HW2   31   0.580   1.364   1.209
    6SOL     OW   32   1.555   1.511   0.703
    6SOL    HW1   33   1.498   1.495   0.784
    6SOL    HW2   34   1.496   1.521   0.623
    7SOL     OW   35   1.135   0.703   0.717
    7SOL    HW1   36   1.192   0.781   0.692
    7SOL    HW2   37   1.075   0.729   0.793
    8SOL     OW   38   1.755   0.607   0.231
    8SOL    HW1   39   1.743   0.594   0.132
    8SOL    HW2   40   1.725   0.526   0.280
    9SOL     OW   41   0.768   1.144   1.023
    9SOL    HW1   42   0.690   1.161   1.083
    9SOL    HW2   43   0.802   1.231   0.987
   10SOL     OW   44   0.850   0.798   1.823
   10SOL    HW1   45   0.846   0.874   1.888
   10SOL    HW2   46   0.872   0.834   1.732
   11SOL     OW   47   0.685   1.012   0.665
   11SOL    HW1   48   0.754   0.996   0.735
   11SOL    HW2   49   0.612   1.069   0.703
   12SOL     OW   50   0.686   1.161   1.803
   12SOL    HW1   51   0.746   1.240   1.817
   12SOL    HW2   52   0.600   1.192   1.762
   13SOL     OW   53   0.335   1.435   1.061
   13SOL    HW1   54   0.257   1.404   1.008
   13SOL    HW2   55   0.393   1.493   1.004
   14SOL     OW   56   0.438   0.392   1.499
   14SOL    HW1   57   0.520   0.336   1.508
   14SOL    HW2   58   0.357   0.334   1.503
   15SOL     OW   59   1.603   0.447   0.737
   15SOL    HW1   60   1.529   0.493   0.687
   15SOL    HW2   61   1.654   0.515   0.790
   16SOL     OW   62   0.231   1.713   0.483
   16SOL    HW1   63   0.265   1.790   0.537
   16SOL    HW2   64   0.275   1.713   0.393
   17SOL     OW   65   1.127   1.341   1.690
   17SOL    HW1   66   1.174   1.341   1.778
   17SOL    HW2   67   1.079   1.254   1.679
   18SOL     OW   68   0.230   1.434   0.538
   18SOL    HW1   69   0.204   1.530   0.538
   18SOL    HW2   70   0.159   1.380   0.583
   19SOL     OW   71   0.240   1.091   0.886
   19SOL    HW1   72   0.254   1.007   0.938
   19SOL    HW2   73   0.185   1.155   0.941
   20SOL     OW   74   0.620   1.786   1.439
   20SOL    HW1   75   0.528   1.769   1.474
   20SOL    HW2   76   0.648   1.878   1.465
   21SOL     OW   77   0.606   0.964   0.123
   21SOL    HW1   78   0.613   1.048   0.069
   21SOL    HW2   79   0.652   0.977   0.211
   22SOL     OW   80   1.594   0.114   1.480
   22SOL    HW1   81   1.576   0.181   1.408
   22SOL    HW2   82   1.591   0.160   1.569
   23SOL     OW   83   0.122   0.643   0.563
   23SOL    HW1   84   0.077   0.555   0.580
   23SOL    HW2   85   0.121   0.697   0.647
   24SOL     OW   86   1.842   1.767   0.359
   24SOL    HW1   87   1.896   1.738   0.439
   24SOL    HW2   88   1.872   1.857   0.330
   25SOL     OW   89   0.027   1.596   0.117
   25SOL    HW1   90   0.008   1.500   0.138
   25SOL    HW2   91  -0.006   1.654   0.192
   26SOL     OW   92   1.689   0.922   0.612
   26SOL    HW1   93   1.784   0.893   0.620
   26SOL    HW2   94   1.681   0.987   0.537
   27SOL     OW   95   1.641   1.108   0.432
   27SOL    HW1   96   1.727   1.110   0.380
   27SOL    HW2   97   1.655   1.155   0.520
   28SOL     OW   98   0.113   0.737   1.597
   28SOL    HW1   99   0.201   0.724   1.642
   28SOL    HW2  100   0.100   0.834   1.575
   29SOL     OW  101   0.613   1.365   0.726
   29SOL    HW1  102   0.564   1.278   0.735
   29SOL    HW2  103   0.590   1.408   0.639
   30SOL     OW  104   0.809   0.004   0.502
   30SOL    HW1  105   0.849   0.095   0.493
   30SOL    HW2  106   0.709   0.012   0.508
   31SOL     OW  107   0.197   0.976   1.264
   31SOL    HW1  108   0.286   0.931   1.250
   31SOL    HW2  109   0.124   0.911   1.245
   32SOL     OW  110   1.525   0.999   0.190
   32SOL    HW1  111   1.462   0.923   0.203
   32SOL    HW2  112   1.573   1.017   0.276
   33SOL     OW  113   1.187   1.792   1.616
   33SOL    HW1  114   1.211   1.852   1.540
   33SOL    HW2  115   1.194   1.697   1.586
   34SOL     OW  116   0.317   0.251   1.801
   34SOL    HW1  117   0.388   0.322   1.807
   34SOL    HW2  118   0.229   0.290   1.829
   35SOL     OW  119   1.667   1.714   0.572
   35SOL    HW1  120   1.626   1.691   0.484
   35SOL    HW2  121   1.649   1.640   0.637
   36SOL     OW  122   0.598   0.729   0.270
   36SOL    HW1  123   0.622   0.798   0.202
   36SOL    HW2  124   0.520   0.762   0.324
   37SOL     OW  125   1.281   0.345   0.944
   37SOL    HW1  126   1.195   0.295   0.931
   37SOL    HW2  127   1.343   0.291   1.000
   38SOL     OW  128   1.576   1.662   0.307
   38SOL    HW1  129   1.665   1.708   0.310
   38SOL    HW2  130   1.555   1.638   0.212
   39SOL     OW  131   0.807   0.605   1.465
   39SOL    HW1  132   0.760   0.602   1.554
   39SOL    HW2  133   0.756   0.550   1.399
   40SOL     OW  134   1.394   0.469   1.674
   40SOL    HW1  135   1.374   0.512   1.762
   40SOL    HW2  136   1.472   0.407   1.683
   41SOL     OW  137   0.973   0.890   1.572
   41SOL    HW1  138   1.019   0.806   1.543
   41SOL    HW2  139   0.917   0.924   1.497
   42SOL     OW  140   0.991   0.410   1.242
   42SOL    HW1  141   0.914   0.444   1.296
   42SOL    HW2  142   0.957   0.359   1.163
   43SOL     OW  143   1.041   0.701   0.429
   43SOL    HW1  144   1.067   0.697   0.525
   43SOL    HW2  145   0.956   0.650   0.415
   44SOL     OW  146   0.076   0.811   0.789
   44SOL    HW1  147   0.175   0.799   0.798
   44SOL    HW2  148   0.052   0.906   0.810
   45SOL     OW  149   0.130   1.821   1.571
   45SOL    HW1  150   0.120   1.806   1.670
   45SOL    HW2  151   0.044   1.857   1.535
   46SOL     OW  152   0.865   0.348   0.195
   46SOL    HW1  153   0.924   0.411   0.146
   46SOL    HW2  154   0.884   0.254   0.166
   47SOL     OW  155   1.719   0.585   1.831
   47SOL    HW1  156   1.693   0.674   1.795
   47SOL    HW2  157   1.717   0.517   1.758
   48SOL     OW  158   1.362   1.144   0.545
   48SOL    HW1  159   1.445   1.115   0.497
   48SOL    HW2  160   1.313   1.211   0.489
   49SOL     OW  161   0.550   0.196   0.885
   49SOL    HW1  162   0.545   0.191   0.985
   49SOL    HW2  163   0.552   0.292   0.856
   50SOL     OW  164   1.008   1.456   0.477
   50SOL    HW1  165   0.962   1.528   0.425
   50SOL    HW2  166   1.004   1.476   0.575
   51SOL     OW  167   0.351   1.801   0.853
   51SOL    HW1  168   0.401   1.715   0.859
   51SOL    HW2  169   0.416   1.878   0.850
   52SOL     OW  170   1.795   1.066   0.873
   52SOL    HW1  171   1.733   1.051   0.797
   52SOL    HW2  172   1.743   1.077   0.958
   53SOL     OW  173   0.321   0.943   0.242
   53SOL    HW1  174   0.403   0.982   0.200
   53SOL    HW2  175   0.294   0.861   0.193
   54SOL     OW  176   1.458   0.735   0.728
   54SOL    HW1  177   1.453   0.670   0.803
   54SOL    HW2  178   1.538   0.794   0.741
   55SOL     OW  179   0.461   1.266   1.727
   55SOL    HW1  180   0.411   1.267   1.641
   55SOL    HW2  181   0.398   1.248   1.803
   56SOL     OW  182   1.111   1.776   0.237
   56SOL    HW1  183   1.051   1.714   0.287
   56SOL    HW2  184   1.142   1.732   0.152
   57SOL     OW  185   0.202   0.285   1.498
   57SOL    HW1  186   0.122   0.345   1.485
   57SOL    HW2  187   0.192   0.236   1.584
   58SOL     OW  188   1.632   1.377   0.081
   58SOL    HW1  189   1.600   1.471   0.071
   58SOL    HW2  190   1.556   1.314   0.069
   59SOL     OW  191   0.464   1.743   0.323
   59SOL    HW1  192   0.497   1.782   0.409
   59SOL    HW2  193   0.540   1.736   0.258
   60SOL     OW  194   1.400   0.107   0.426
   60SOL    HW1  195   1.376   0.070   0.336
   60SOL    HW2  196   1.499   0.123   0.430
   61SOL     OW  197   0.249   1.785   1.241
   61SOL    HW1  198   0.306   1.720   1.291
   61SOL    HW2  199   0.233   1.752   1.148
   62SOL     OW  200   0.940   1.698   0.904
   62SOL    HW1  201   1.020   1.641   0.925
   62SOL    HW2  202   0.891   1.658   0.827
   63SOL     OW  203   0.382   0.700   0.480
   63SOL    HW1  204   0.427   0.610   0.477
   63SOL    HW2  205   0.288   0.689   0.513
   64SOL     OW  206   1.547   0.222   1.729
   64SOL    HW1  207   1.542   0.259   1.821
   64SOL    HW2  208   1.475   0.153   1.717
   65SOL     OW  209   0.614   0.122   0.117
   65SOL    HW1  210   0.712   0.100   0.124
   65SOL    HW2  211   0.583   0.105   0.024
   66SOL     OW  212   0.781   0.264   1.749
   66SOL    HW1  213   0.848   0.203   1.792
   66SOL    HW2  214   0.708   0.283   1.814
   67SOL     OW  215   0.888   1.514   1.195
   67SOL    HW1  216   0.865   1.489   1.101
   67SOL    HW2  217   0.949   1.445   1.234
   68SOL     OW  218   1.351   0.590   1.433
   68SOL    HW1  219   1.379   0.547   1.518
   68SOL    HW2  220   1.376   0.686   1.434
   69SOL     OW  221   0.803   1.402   0.924
   69SOL    HW1  222   0.893   1.416   0.882
   69SOL    HW2  223   0.732   1.404   0.853
   70SOL     OW  224   0.922   0.503   0.899
   70SOL    HW1  225   0.897   0.494   0.803
   70SOL    HW2  226   0.970   0.421   0.930
   71SOL     OW  227   0.539   0.064   0.512
   71SOL    HW1  228   0.458   0.065   0.570
   71SOL    HW2  229   0.542   0.147   0.457
   72SOL     OW  230   1.434   1.188   0.041
   72SOL    HW1  231   1.466   1.112   0.098
   72SOL    HW2  232   1.342   1.215   0.071
   73SOL     OW  233   0.297   0.035   0.171
   73SOL    HW1  234   0.346   0.119   0.150
   73SOL    HW2  235   0.359  -0.030   0.216
   74SOL     OW  236   0.935   0.236   0.480
   74SOL    HW1  237   0.887   0.277   0.402
   74SOL    HW2  238   1.034   0.234   0.461
   75SOL     OW  239   1.076   0.683   1.464
   75SOL    HW1  240   0.996   0.622   1.467
   75SOL    HW2  241   1.157   0.630   1.440
   76SOL     OW  242   1.227   1.570   0.793
   76SOL    HW1  243   1.248   1.644   0.728
   76SOL    HW2  244   1.295   1.570   0.866
   77SOL     OW  245   0.459   1.152   0.741
   77SOL    HW1  246   0.388   1.125   0.806
   77SOL    HW2  247   0.433   1.124   0.648
   78SOL     OW  248   1.271   1.797   0.591
   78SOL    HW1  249   1.315   1.861   0.527
   78SOL    HW2  250   1.221   1.849   0.661
   79SOL     OW  251   1.032   0.549   0.016
   79SOL    HW1  252   0.991   0.631  -0.023
   79SOL    HW2  253   1.096   0.575   0.089
   80SOL     OW  254   0.078   0.556   1.386
   80SOL    HW1  255   0.170   0.555   1.345
   80SOL    HW2  256   0.072   0.630   1.453
   81SOL     OW  257   0.561   0.222   1.147
   81SOL    HW1  258   0.599   0.138   1.184
   81SOL    HW2  259   0.473   0.241   1.191
   82SOL     OW  260   0.866   0.454   0.642
   82SOL    HW1  261   0.834   0.526   0.580
   82SOL    HW2  262   0.890   0.373   0.589
   83SOL     OW  263   1.017   0.039   0.753
   83SOL    HW1  264   0.945   0.044   0.684
   83SOL    HW2  265   0.993  -0.030   0.822
   84SOL     OW  266   1.429   1.173   0.867
   84SOL    HW1  267   1.374   1.089   0.860
   84SOL    HW2  268   1.455   1.202   0.775
   85SOL     OW  269   1.466   0.590   0.992
   85SOL    HW1  270   1.436   0.495   0.999
   85SOL    HW2  271   1.539   0.606   1.058
   86SOL     OW  272   1.857   0.833   0.377
   86SOL    HW1  273   1.899   0.769   0.441
   86SOL    HW2  274   1.819   0.782   0.299
   87SOL     OW  275   0.488   1.385   0.174
   87SOL    HW1  276   0.401   1.370   0.221
   87SOL    HW2  277   0.471   1.411   0.079
   88SOL     OW  278   1.664   1.280   0.657
   88SOL    HW1  279   1.763   1.288   0.671
   88SOL    HW2  280   1.619   1.364   0.688
   89SOL     OW  281   1.390   0.575   0.078
   89SOL    HW1  282   1.336   0.554   0.159
   89SOL    HW2  283   1.481   0.534   0.087
   90SOL     OW  284   0.527   0.256   0.328
   90SOL    HW1  285   0.554   0.197   0.253
   90SOL    HW2  286   0.527   0.351   0.297
   91SOL     OW  287   1.754   1.223   1.588
   91SOL    HW1  288   1.845   1.184   1.575
   91SOL    HW2  289   1.762   1.319   1.612
   92SOL     OW  290   1.592   1.629   1.625
   92SOL    HW1  291   1.619   1.663   1.535
   92SOL    HW2  292   1.671   1.591   1.671
   93SOL     OW  293   0.915   0.089   1.402
   93SOL    HW1  294   0.940   0.069   1.307
   93SOL    HW2  295   0.987   0.145   1.444
   94SOL     OW  296   0.980   1.116   1.719
   94SOL    HW1  297   0.881   1.122   1.729
   94SOL    HW2  298   1.003   1.036   1.663
   95SOL     OW  299   0.705   1.050   0.368
   95SOL    HW1  300   0.691   1.057   0.467
   95SOL    HW2  301   0.789   0.999   0.350
   96SOL     OW  302   0.410   0.813   1.251
   96SOL    HW1  303   0.496   0.825   1.301
   96SOL    HW2  304   0.368   0.726   1.278
   97SOL     OW  305   1.274   0.386   1.262
   97SOL    HW1  306   1.295   0.460   1.326
   97SOL    HW2  307   1.185   0.403   1.219
   98SOL     OW  308   0.064   1.564   1.331
   98SOL    HW1  309   0.018   1.646   1.297
   98SOL    HW2  310   0.162   1.583   1.340
   99SOL     OW  311   0.367   1.100   0.501
   99SOL    HW1  312   0.360   1.183   0.445
   99SOL    HW2  313   0.371   1.020   0.441
  100SOL     OW  314   0.566   0.537   0.865
  100SOL    HW1  315   0.578   0.603   0.791
  100SOL    HW2  316   0.612   0.571   0.948
  101SOL     OW  317   1.252   1.348   0.388
  101SOL    HW1  318   1.302   1.425   0.428
  101SOL    HW2  319   1.157   1.350   0.420
  102SOL     OW  320   1.582   0.639   0.472
  102SOL    HW1  321   1.551   0.700   0.545
  102SOL    HW2  322   1.632   0.691   0.403
  103SOL     OW  323   0.354   1.510   1.329
  103SOL    HW1  324   0.333   1.466   1.242
  103SOL    HW2  325   0.451   1.536   1.332
  104SOL     OW  326   0.402   0.751   1.598
  104SOL    HW1  327   0.470   0.806   1.551
  104SOL    HW2  328   0.442   0.663   1.625
  105SOL     OW  329   1.587   0.779   1.670
  105SOL    HW1  330   1.495   0.817   1.665
  105SOL    HW2  331   1.647   0.826   1.605
  106SOL     OW  332   1.013   0.105   1.770
  106SOL    HW1  333   1.019   0.190   1.718
  106SOL    HW2  334   1.045   0.029   1.713
  107SOL     OW  335   0.504   0.050   1.740
  107SOL    HW1  336   0.462  -0.007   1.670
  107SOL    HW2  337   0.438   0.119   1.772
  108SOL     OW  338   0.573   0.870   1.029
  108SOL    HW1  339   0.617   0.959   1.020
  108SOL    HW2  340   0.510   0.870   1.106
  109SOL     OW  341   1.360   0.862   1.045
  109SOL    HW1  342   1.285   0.862   0.979
  109SOL    HW2  343   1.397   0.770   1.054
  110SOL     OW  344   1.209   0.525   0.275
  110SOL    HW1  345   1.222   0.441   0.329
  110SOL    HW2  346   1.180   0.599   0.335
  111SOL     OW  347   0.307   0.213   1.231
  111SOL    HW1  348   0.284   0.250   1.321
  111SOL    HW2  349   0.277   0.118   1.225
  112SOL     OW  350   0.037   1.310   1.282
  112SOL    HW1  351   0.090   1.261   1.350
  112SOL    HW2  352   0.059   1.408   1.287
  113SOL     OW  353   0.732   0.634   1.064
  113SOL    HW1  354   0.791   0.608   0.988
  113SOL    HW2  355   0.704   0.730   1.053
  114SOL     OW  356   1.728   0.935   1.854
  114SOL    HW1  357   1.682   0.928   1.765
  114SOL    HW2  358   1.666   0.979   1.920
  115SOL     OW  359   0.307   0.063   0.618
  115SOL    HW1  360   0.296   0.157   0.651
  115SOL    HW2  361   0.302   0.000   0.695
  116SOL     OW  362   1.622   0.367   0.374
  116SOL    HW1  363   1.624   0.291   0.438
  116SOL    HW2  364   1.574   0.444   0.414
  117SOL     OW  365   1.023   0.766   0.966
  117SOL    HW1  366   1.038   0.787   1.062
  117SOL    HW2  367   0.993   0.671   0.957
  118SOL     OW  368   0.980   1.573   1.700
  118SOL    HW1  369   0.960   1.617   1.612
  118SOL    HW2  370   1.019   1.482   1.684
  119SOL     OW  371   1.859   1.518   1.605
  119SOL    HW1  372   1.873   1.545   1.510
  119SOL    HW2  373   1.942   1.540   1.658
  120SOL     OW  374   0.350   0.898   1.804
  120SOL    HW1  375   0.426   0.942   1.852
  120SOL    HW2  376   0.385   0.851   1.722
  121SOL     OW  377   1.540   0.274   0.125
  121SOL    HW1  378   1.479   0.199   0.148
  121SOL    HW2  379   1.562   0.326   0.208
  122SOL     OW  380   1.303   0.838   0.042
  122SOL    HW1  381   1.337   0.745   0.057
  122SOL    HW2  382   1.321   0.865  -0.053
  123SOL     OW  383   1.068   1.333   0.849
  123SOL    HW1  384   1.075   1.249   0.794
  123SOL    HW2  385   1.130   1.402   0.813
  124SOL     OW  386   0.319   0.810   0.949
  124SOL    HW1  387   0.412   0.846   0.954
  124SOL    HW2  388   0.313   0.725   1.001
  125SOL     OW  389   0.339   0.509   1.006
  125SOL    HW1  390   0.287   0.426   0.989
  125SOL    HW2  391   0.416   0.514   0.942
  126SOL     OW  392   1.138   0.380   1.678
  126SOL    HW1  393   1.093   0.443   1.742
  126SOL    HW2  394   1.231   0.411   1.661
  127SOL     OW  395   1.160   0.207   1.477
  127SOL    HW1  396   1.160   0.271   1.554
  127SOL    HW2  397   1.188   0.255   1.394
  128SOL     OW  398   0.008   1.326   0.200
  128SOL    HW1  399  -0.085   1.347   0.169
  128SOL    HW2  400   0.018   1.227   0.213
  129SOL     OW  401   0.088   1.801   0.927
  129SOL    HW1  402   0.046   1.715   0.900
  129SOL    HW2  403   0.182   1.804   0.893
  130SOL     OW  404   0.504   1.568   0.910
  130SOL    HW1  405   0.570   1.642   0.919
  130SOL    HW2  406   0.548   1.489   0.868
  131SOL     OW  407   1.002   0.796   1.238
  131SOL    HW1  408   1.043   0.764   1.324
  131SOL    HW2  409   0.906   0.769   1.235
  132SOL     OW  410   0.040   0.544   1.114
  132SOL    HW1  411   0.125   0.511   1.073
  132SOL    HW2  412   0.053   0.559   1.212
  133SOL     OW  413   0.189   0.520   1.722
  133SOL    HW1  414   0.248   0.480   1.652
  133SOL    HW2  415   0.131   0.591   1.681
  134SOL     OW  416   1.369   0.950   1.660
  134SOL    HW1  417   1.408   1.039   1.680
  134SOL    HW2  418   1.379   0.930   1.563
  135SOL     OW  419   0.815   0.572   0.325
  135SOL    HW1  420   0.822   0.483   0.279
  135SOL    HW2  421   0.721   0.606   0.317
  136SOL     OW  422   1.657   0.604   1.206
  136SOL    HW1  423   1.619   0.535   1.268
  136SOL    HW2  424   1.739   0.568   1.162
  137SOL     OW  425   0.252   1.564   1.744
  137SOL    HW1  426   0.222   1.621   1.820
  137SOL    HW2  427   0.245   1.467   1.770
  138SOL     OW  428   0.671   0.464   1.269
  138SOL    HW1  429   0.637   0.375   1.239
  138SOL    HW2  430   0.697   0.518   1.189
  139SOL     OW  431   0.930   1.678   1.465
  139SOL    HW1  432   0.906   1.660   1.370
  139SOL    HW2  433   0.960   1.772   1.475
  140SOL     OW  434   0.473   0.500   0.191
  140SOL    HW1  435   0.534   0.580   0.195
  140SOL    HW2  436   0.378   0.531   0.198
  141SOL     OW  437   0.159   1.137   1.466
  141SOL    HW1  438   0.181   1.076   1.542
  141SOL    HW2  439   0.169   1.088   1.380
  142SOL     OW  440   1.347   1.059   1.234
  142SOL    HW1  441   1.371   0.996   1.160
  142SOL    HW2  442   1.257   1.099   1.216
  143SOL     OW  443   1.302   0.855   0.309
  143SOL    HW1  444   1.216   0.824   0.351
  143SOL    HW2  445   1.298   0.841   0.210
  144SOL     OW  446   1.759   1.747   1.154
  144SOL    HW1  447   1.820   1.777   1.081
  144SOL    HW2  448   1.721   1.658   1.132
  145SOL     OW  449   1.252   1.731   1.128
  145SOL    HW1  450   1.336   1.736   1.074
  145SOL    HW2  451   1.229   1.635   1.146
  146SOL     OW  452   0.083   1.258   1.022
  146SOL    HW1  453   0.078   1.257   1.122
  146SOL    HW2  454   0.000   1.217   0.984
  147SOL     OW  455   0.688   1.662   1.716
  147SOL    HW1  456   0.632   1.743   1.725
  147SOL    HW2  457   0.740   1.666   1.630
  148SOL     OW  458   0.903   0.086   0.133
  148SOL    HW1  459   0.954   0.087   0.047
  148SOL    HW2  460   0.959   0.044   0.204
  149SOL     OW  461   1.726   0.135   0.523
  149SOL    HW1  462   1.799   0.118   0.456
  149SOL    HW2  463   1.695   0.048   0.561
  150SOL     OW  464   1.388   1.573   0.477
  150SOL    HW1  465   1.455   1.585   0.403
  150SOL    HW2  466   1.348   1.662   0.500
  151SOL     OW  467   0.130   1.794   1.851
  151SOL    HW1  468   0.089   1.720   1.904
  151SOL    HW2  469   0.194   1.845   1.909
  152SOL     OW  470   1.280   0.927   0.672
  152SOL    HW1  471   1.340   0.846   0.674
  152SOL    HW2  472   1.320   0.996   0.612
  153SOL     OW  473   0.830   1.273   1.422
  153SOL    HW1  474   0.825   1.306   1.517
  153SOL    HW2  475   0.744   1.292   1.376
  154SOL     OW  476   0.672   1.616   0.154
  154SOL    HW1  477   0.681   1.626   0.055
  154SOL    HW2  478   0.632   1.527   0.175
  155SOL     OW  479   1.650   1.720   1.394
  155SOL    HW1  480   1.703   1.730   1.310
  155SOL    HW2  481   1.623   1.810   1.428
  156SOL     OW  482   1.841   0.175   0.963
  156SOL    HW1  483   1.880   0.090   0.927
  156SOL    HW2  484   1.743   0.177   0.944
  157SOL     OW  485   0.263   0.326   0.720
  157SOL    HW1  486   0.184   0.377   0.686
  157SOL    HW2  487   0.254   0.311   0.818
  158SOL     OW  488   1.194   1.612   0.031
  158SOL    HW1  489   1.200   1.519   0.068
  158SOL    HW2  490   1.135   1.612  -0.049
  159SOL     OW  491   0.822   1.002   1.372
  159SOL    HW1  492   0.862   1.001   1.280
  159SOL    HW2  493   0.832   1.094   1.412
  160SOL     OW  494   0.916   0.910   0.291
  160SOL    HW1  495   0.979   0.948   0.223
  160SOL    HW2  496   0.956   0.827   0.330
  161SOL     OW  497   1.504   1.607   0.044
  161SOL    HW1  498   1.412   1.644   0.051
  161SOL    HW2  499   1.542   1.627  -0.046
  162SOL     OW  500   0.372   1.288   1.490
  162SOL    HW1  501   0.359   1.381   1.456
  162SOL    HW2  502   0.288   1.236   1.477
  163SOL     OW  503   1.039   1.098   0.696
  163SOL    HW1  504   0.969   1.051   0.750
  163SOL    HW2  505   1.098   1.030   0.653
  164SOL     OW  506   1.014   0.236   0.971
  164SOL    HW1  507   1.006   0.200   0.878
  164SOL    HW2  508   1.012   0.160   1.036
  165SOL     OW  509   0.590   1.487   0.491
  165SOL    HW1  510   0.632   1.429   0.421
  165SOL    HW2  511   0.546   1.566   0.447
  166SOL     OW  512   1.709   0.385   1.381
  166SOL    HW1  513   1.782   0.454   1.385
  166SOL    HW2  514   1.737   0.310   1.322
  167SOL     OW  515   0.255   1.348   0.290
  167SOL    HW1  516   0.159   1.349   0.263
  167SOL    HW2  517   0.267   1.401   0.374
  168SOL     OW  518   0.105   1.013   1.726
  168SOL    HW1  519   0.028   0.980   1.780
  168SOL    HW2  520   0.190   0.983   1.768
  169SOL     OW  521   0.672   0.203   1.489
  169SOL    HW1  522   0.762   0.187   1.449
  169SOL    HW2  523   0.680   0.208   1.588
  170SOL     OW  524   0.075   0.345   0.033
  170SOL    HW1  525  -0.017   0.317   0.004
  170SOL    HW2  526   0.106   0.422  -0.023
  171SOL     OW  527   1.440   0.856   1.398
  171SOL    HW1  528   1.383   0.908   1.335
  171SOL    HW2  529   1.536   0.868   1.374
  172SOL     OW  530   0.072   0.166   0.318
  172SOL    HW1  531   0.055   0.249   0.264
  172SOL    HW2  532   0.162   0.129   0.296
  173SOL     OW  533   1.183   1.335   0.119
  173SOL    HW1  534   1.084   1.324   0.121
  173SOL    HW2  535   1.217   1.350   0.212
  174SOL     OW  536   0.613   0.842   1.431
  174SOL    HW1  537   0.669   0.923   1.414
  174SOL    HW2  538   0.672   0.762   1.434
  175SOL     OW  539   1.493   1.767   0.959
  175SOL    HW1  540   1.526   1.831   0.890
  175SOL    HW2  541   1.559   1.761   1.034
  176SOL     OW  542   0.716   0.565   1.708
  176SOL    HW1  543   0.735   0.630   1.782
  176SOL    HW2  544   0.776   0.485   1.717
  177SOL     OW  545   1.450   1.220   1.633
  177SOL    HW1  546   1.441   1.210   1.732
  177SOL    HW2  547   1.546   1.213   1.607
  178SOL     OW  548   0.390   1.741   1.560
  178SOL    HW1  549   0.299   1.782   1.558
  178SOL    HW2  550   0.383   1.647   1.592
  179SOL     OW  551   1.674   0.883   1.254
  179SOL    HW1  552   1.647   0.794   1.217
  179SOL    HW2  553   1.675   0.951   1.181
  180SOL     OW  554   1.225   0.325   0.449
  180SOL    HW1  555   1.290   0.251   0.438
  180SOL    HW2  556   1.245   0.375   0.533
  181SOL     OW  557   0.594   0.745   0.652
  181SOL    HW1  558   0.644   0.830   0.633
  181SOL    HW2  559   0.506   0.747   0.604
  182SOL     OW  560   1.777   0.342   1.642
  182SOL    HW1  561   1.760   0.373   1.548
  182SOL    HW2  562   1.693   0.305   1.680
  183SOL     OW  563   1.730   0.934   1.517
  183SOL    HW1  564   1.768   1.025   1.532
  183SOL    HW2  565   1.722   0.917   1.418
  184SOL     OW  566   0.859   1.374   0.016
  184SOL    HW1  567   0.813   1.389   0.104
  184SOL    HW2  568   0.903   1.459  -0.014
  185SOL     OW  569   0.661   1.790   0.953
  185SOL    HW1  570   0.615   1.878   0.940
  185SOL    HW2  571   0.760   1.802   0.946
  186SOL     OW  572   0.859   0.956   0.861
  186SOL    HW1  573   0.913   0.887   0.909
  186SOL    HW2  574   0.827   1.025   0.927
  187SOL     OW  575   1.083   0.984   0.087
  187SOL    HW1  576   1.060   1.037   0.005
  187SOL    HW2  577   1.164   0.928   0.068
  188SOL     OW  578   1.861   1.569   0.851
  188SOL    HW1  579   1.790   1.557   0.781
  188SOL    HW2  580   1.862   1.490   0.911
  189SOL     OW  581   0.221   1.314   1.844
  189SOL    HW1  582   0.156   1.241   1.823
  189SOL    HW2  583   0.225   1.328   1.942
  190SOL     OW  584   0.079   1.240   0.653
  190SOL    HW1  585   0.078   1.193   0.741
  190SOL    HW2  586   0.161   1.212   0.602
  191SOL     OW  587   0.672   1.391   1.624
  191SOL    HW1  588   0.594   1.341   1.662
  191SOL    HW2  589   0.669   1.486   1.655
  192SOL     OW  590   1.824   0.192   1.227
  192SOL    HW1  591   1.820   0.102   1.271
  192SOL    HW2  592   1.827   0.181   1.128
  193SOL     OW  593   0.428   0.424   0.520
  193SOL    HW1  594   0.458   0.352   0.458
  193SOL    HW2  595   0.389   0.384   0.603
  194SOL     OW  596   1.705   1.487   1.104
  194SOL    HW1  597   1.612   1.462   1.077
  194SOL    HW2  598   1.731   1.437   1.186
  195SOL     OW  599   0.317   0.547   1.280
  195SOL    HW1  600   0.355   0.488   1.352
  195SOL    HW2  601   0.357   0.521   1.192
  196SOL     OW  602   0.812   1.586   0.687
  196SOL    HW1  603   0.844   1.596   0.593
  196SOL    HW2  604   0.733   1.524   0.689
  197SOL     OW  605   1.424   0.214   1.112
  197SOL    HW1  606   1.476   0.149   1.167
  197SOL    HW2  607   1.375   0.277   1.173
  198SOL     OW  608   1.001   0.034   1.154
  198SOL    HW1  609   0.938  -0.038   1.123
  198SOL    HW2  610   1.094  -0.002   1.154
  199SOL     OW  611   0.770   1.330   0.301
  199SOL    HW1  612   0.724   1.243   0.318
  199SOL    HW2  613   0.861   1.327   0.342
  200SOL     OW  614   0.618   1.567   1.284
  200SOL    HW1  615   0.613   1.649   1.341
  200SOL    HW2  616   0.707   1.564   1.239
  201SOL     OW  617   1.352   0.052   0.168
  201SOL    HW1  618   1.387   0.011   0.084
  201SOL    HW2  619   1.262   0.014   0.188
  202SOL     OW  620   1.300   0.453   0.691
  202SOL    HW1  621   1.241   0.533   0.695
  202SOL    HW2  622   1.315   0.418   0.784
  203SOL     OW  623   1.593   0.221   0.882
  203SOL    HW1  624   1.509   0.220   0.936
  203SOL    HW2  625   1.595   0.304   0.826
  204SOL     OW  626   0.039   1.077   0.300
  204SOL    HW1  627   0.138   1.066   0.291
  204SOL    HW2  628  -0.001   0.991   0.332
  205SOL     OW  629   0.875   1.646   0.337
  205SOL    HW1  630   0.798   1.611   0.283
  205SOL    HW2  631   0.843   1.717   0.399
  206SOL     OW  632   0.230   0.628   1.975
  206SOL    HW1  633   0.137   0.626   2.012
  206SOL    HW2  634   0.231   0.589   1.883
  207SOL     OW  635   1.755   0.607   2.093
  207SOL    HW1  636   1.743   0.594   1.994
  207SOL    HW2  637   1.725   0.526   2.142
  208SOL     OW  638   0.685   1.012   2.527
  208SOL    HW1  639   0.754   0.996   2.597
  208SOL    HW2  640   0.612   1.069   2.565
  209SOL     OW  641   1.603   0.447   2.599
  209SOL    HW1  642   1.529   0.493   2.549
  209SOL    HW2  643   1.654   0.515   2.652
  210SOL     OW  644   0.231   1.713   2.345
  210SOL    HW1  645   0.265   1.790   2.399
  210SOL    HW2  646   0.275   1.713   2.255
  211SOL     OW  647   0.230   1.434   2.400
  211SOL    HW1  648   0.204   1.530   2.400
  211SOL    HW2  649   0.159   1.380   2.445
  212SOL     OW  650   0.606   0.964   1.985
  212SOL    HW1  651   0.613   1.048   1.931
  212SOL    HW2  652   0.652   0.977   2.073
  213SOL     OW  653   0.122   0.643   2.425
  213SOL    HW1  654   0.077   0.555   2.442
  213SOL    HW2  655   0.121   0.697   2.509
  214SOL     OW  656   1.842   1.767   2.221
  214SOL    HW1  657   1.896   1.738   2.301
  214SOL    HW2  658   1.872   1.857   2.192
  215SOL     OW  659   0.027   1.596   1.979
  215SOL    HW1  660   0.008   1.500   2.000
  215SOL    HW2  661  -0.006   1.654   2.054
  216SOL     OW  662   1.689   0.922   2.474
  216SOL    HW1  663   1.784   0.893   2.482
  216SOL    HW2  664   1.681   0.987   2.399
  217SOL     OW  665   1.641   1.108   2.294
  217SOL    HW1  666   1.727   1.110   2.242
  217SOL    HW2  667   1.655   1.155   2.382
  218SOL     OW  668   0.613   1.365   2.588
  218SOL    HW1  669   0.564   1.278   2.597
  218SOL    HW2  670   0.590   1.408   2.501
  219SOL     OW  671   0.809   0.004   2.364
  219SOL    HW1  672   0.849   0.095   2.355
  219SOL    HW2  673   0.709   0.012   2.370
  220SOL     OW  674   1.525   0.999   2.052
  220SOL    HW1  675   1.462   0.923   2.065
  220SOL    HW2  676   1.573   1.017   2.138
  221SOL     OW  677   1.667   1.714   2.434
  221SOL    HW1  678   1.626   1.691   2.346
  221SOL    HW2  679   1.649   1.640   2.499
  222SOL     OW  680   0.598   0.729   2.132
  222SOL    HW1  681   0.622   0.798   2.064
  222SOL    HW2  682   0.520   0.762   2.186
  223SOL     OW  683   1.281   0.345   2.806
  223SOL    HW1  684   1.195   0.295   2.793
  223SOL    HW2  685   1.343   0.291   2.862
  224SOL     OW  686   1.576   1.662   2.169
  224SOL    HW1  687   1.665   1.708   2.172
  224SOL    HW2  688   1.555   1.638   2.074
  225SOL     OW  689   1.041   0.701   2.291
  225SOL    HW1  690   1.067   0.697   2.387
  225SOL    HW2  691   0.956   0.650   2.277
  226SOL     OW  692   0.076   0.811   2.651
  226SOL    HW1  693   0.175   0.799   2.660
  226SOL    HW2  694   0.052   0.906   2.672
  227SOL     OW  695   0.865   0.348   2.057
  227SOL    HW1  696   0.924   0.411   2.008
  227SOL    HW2  697   0.884   0.254   2.028
  228SOL     OW  698   1.362   1.144   2.407
  228SOL    HW1  699   1.445   1.115   2.359
  228SOL    HW2  700   1.313   1.211   2.351
  229SOL     OW  701   1.008   1.456   2.339
  229SOL    HW1  702   0.962   1.528   2.287
  229SOL    HW2  703   1.004   1.476   2.437
  230SOL     OW  704   0.351   1.801   2.715
  230SOL    HW1  705   0.401   1.715   2.721
  230SOL    HW2  706   0.416   1.878   2.712
  231SOL     OW  707   1.795   1.066   2.735
  231SOL    HW1  708   1.733   1.051   2.659
  231SOL    HW2  709   1.743   1.077   2.820
  232SOL     OW  710   0.321   0.943   2.104
  232SOL    HW1  711   0.403   0.982   2.062
  232SOL    HW2  712   0.294   0.861   2.055
  233SOL     OW  713   1.111   1.776   2.099
  233SOL    HW1  714   1.051   1.714   2.149
  233SOL    HW2  715   1.142   1.732   2.014
  234SOL     OW  716   1.632   1.377   1.943
  234SOL    HW1  717   1.600   1.471   1.933
  234SOL    HW2  718   1.556   1.314   1.931
  235SOL     OW  719   0.464   1.743   2.185
  235SOL    HW1  720   0.497   1.782   2.271
  235SOL    HW2  721   0.540   1.736   2.120
  236SOL     OW  722   1.400   0.107   2.288
  236SOL    HW1  723   1.376   0.070   2.198
  236SOL    HW2  724   1.499   0.123   2.292
  237SOL     OW  725   0.940   1.698   2.766
  237SOL    HW1  726   1.020   1.641   2.787
  237SOL    HW2  727   0.891   1.658   2.689
  238SOL     OW  728   0.382   0.700   2.342
  238SOL    HW1  729   0.427   0.610   2.339
  238SOL    HW2  730   0.288   0.689   2.375
  239SOL     OW  731   0.614   0.122   1.979
  239SOL    HW1  732   0.712   0.100   1.986
  239SOL    HW2  733   0.583   0.105   1.886
  240SOL     OW  734   0.539   0.064   2.374
  240SOL    HW1  735   0.458   0.065   2.432
  240SOL    HW2  736   0.542   0.147   2.319
  241SOL     OW  737   1.434   1.188   1.903
  241SOL    HW1  738   1.466   1.112   1.960
  241SOL    HW2  739   1.342   1.215   1.933
  242SOL     OW  740   0.297   0.035   2.033
  242SOL    HW1  741   0.346   0.119   2.012
  242SOL    HW2  742   0.359  -0.030   2.078
  243SOL     OW  743   0.935   0.236   2.342
  243SOL    HW1  744   0.887   0.277   2.264
  243SOL    HW2  745   1.034   0.234   2.323
  244SOL     OW  746   0.459   1.152   2.603
  244SOL    HW1  747   0.388   1.125   2.668
  244SOL    HW2  748   0.433   1.124   2.510
  245SOL     OW  749   1.271   1.797   2.453
  245SOL    HW1  750   1.315   1.861   2.389
  245SOL    HW2  751   1.221   1.849   2.523
  246SOL     OW  752   1.032   0.549   1.878
  246SOL    HW1  753   0.991   0.631   1.839
  246SOL    HW2  754   1.096   0.575   1.951
  247SOL     OW  755   0.866   0.454   2.504
  247SOL    HW1  756   0.834   0.526   2.442
  247SOL    HW2  757   0.890   0.373   2.451
  248SOL     OW  758   1.857   0.833   2.239
  248SOL    HW1  759   1.899   0.769   2.303
  248SOL    HW2  760   1.819   0.782   2.161
  249SOL     OW  761   0.488   1.385   2.036
  249SOL    HW1  762   0.401   1.370   2.083
  249SOL    HW2  763   0.471   1.411   1.941
  250SOL     OW  764   1.664   1.280   2.519
  250SOL    HW1  765   1.763   1.288   2.533
  250SOL    HW2  766   1.619   1.364   2.550
  251SOL     OW  767   1.390   0.575   1.940
  251SOL    HW1  768   1.336   0.554   2.021
  251SOL    HW2  769   1.481   0.534   1.949
  252SOL     OW  770   0.527   0.256   2.190
  252SOL    HW1  771   0.554   0.197   2.115
  252SOL    HW2  772   0.527   0.351   2.159
  253SOL     OW  773   1.111   1.195   2.962
  253SOL    HW1  774   1.071   1.239   3.043
  253SOL    HW2  775   1.070   1.232   2.879
  254SOL     OW  776   0.705   1.050   2.230
  254SOL    HW1  777   0.691   1.057   2.329
  254SOL    HW2  778   0.789   0.999   2.212
  255SOL     OW  779   0.367   1.100   2.363
  255SOL    HW1  780   0.360   1.183   2.307
  255SOL    HW2  781   0.371   1.020   2.303
  256SOL     OW  782   1.252   1.348   2.250
  256SOL    HW1  783   1.302   1.425   2.290
  256SOL    HW2  784   1.157   1.350   2.282
  257SOL     OW  785   1.582   0.639   2.334
  257SOL    HW1  786   1.551   0.700   2.407
  257SOL    HW2  787   1.632   0.691   2.265
  258SOL     OW  788   1.209   0.525   2.137
  258SOL    HW1  789   1.222   0.441   2.191
  258SOL    HW2  790   1.180   0.599   2.197
  259SOL     OW  791   0.307   0.063   2.480
  259SOL    HW1  792   0.296   0.157   2.513
  259SOL    HW2  793   0.302   0.000   2.557
  260SOL     OW  794   1.622   0.367   2.236
  260SOL    HW1  795   1.624   0.291   2.300
  260SOL    HW2  796   1.574   0.444   2.276
  261SOL     OW  797   1.540   0.274   1.987
  261SOL    HW1  798   1.479   0.199   2.010
  261SOL    HW2  799   1.562   0.326   2.070
  262SOL     OW  800   1.303   0.838   1.904
  262SOL    HW1  801   1.337   0.745   1.919
  262SOL    HW2  802   1.321   0.865   1.809
  263SOL     OW  803   0.008   1.326   2.062
  263SOL    HW1  804  -0.085   1.347   2.031
  263SOL    HW2  805   0.018   1.227   2.075
  264SOL     OW  806   0.815   0.572   2.187
  264SOL    HW1  807   0.822   0.483   2.141
  264SOL    HW2  808   0.721   0.606   2.179
  265SOL     OW  809   0.473   0.500   2.053
  265SOL    HW1  810   0.534   0.580   2.057
  265SOL    HW2  811   0.378   0.531   2.060
  266SOL     OW  812   1.302   0.855   2.171
  266SOL    HW1  813   1.216   0.824   2.213
  266SOL    HW2  814   1.298   0.841   2.072
  267SOL     OW  815   1.726   0.135   2.385
  267SOL    HW1  816   1.799   0.118   2.318
  267SOL    HW2  817   1.695   0.048   2.423
  268SOL     OW  818   1.388   1.573   2.339
  268SOL    HW1  819   1.455   1.585   2.265
  268SOL    HW2  820   1.348   1.662   2.362
  269SOL     OW  821   0.672   1.616   2.016
  269SOL    HW1  822   0.681   1.626   1.917
  269SOL    HW2  823   0.632   1.527   2.037
  270SOL     OW  824   1.841   0.175   2.825
  270SOL    HW1  825   1.880   0.090   2.789
  270SOL    HW2  826   1.743   0.177   2.806
  271SOL     OW  827   1.194   1.612   1.893
  271SOL    HW1  828   1.200   1.519   1.930
  271SOL    HW2  829   1.135   1.612   1.813
  272SOL     OW  830   0.916   0.910   2.153
  272SOL    HW1  831   0.979   0.948   2.085
  272SOL    HW2  832   0.956   0.827   2.192
  273SOL     OW  833   1.504   1.607   1.906
  273SOL    HW1  834   1.412   1.644   1.913
  273SOL    HW2  835   1.542   1.627   1.816
  274SOL     OW  836   0.590   1.487   2.353
  274SOL    HW1  837   0.632   1.429   2.283
  274SOL    HW2  838   0.546   1.566   2.309
  275SOL     OW  839   0.255   1.348   2.152
  275SOL    HW1  840   0.159   1.349   2.125
  275SOL    HW2  841   0.267   1.401   2.236
  276SOL     OW  842   0.075   0.345   1.895
  276SOL    HW1  843  -0.017   0.317   1.866
  276SOL    HW2  844   0.106   0.422   1.839
  277SOL     OW  845   0.072   0.166   2.180
  277SOL    HW1  846   0.055   0.249   2.126
  277SOL    HW2  847   0.162   0.129   2.158
  278SOL     OW  848   1.183   1.335   1.981
  278SOL    HW1  849   1.084   1.324   1.983
  278SOL    HW2  850   1.217   1.350   2.074
  279SOL     OW  851   1.225   0.325   2.311
  279SOL    HW1  852   1.290   0.251   2.300
  279SOL    HW2  853   1.245   0.375   2.395
  280SOL     OW  854   0.594   0.745   2.514
  280SOL    HW1  855   0.644   0.830   2.495
  280SOL    HW2  856   0.506   0.747   2.466
  281SOL     OW  857   0.859   1.374   1.878
  281SOL    HW1  858   0.813   1.389   1.966
  281SOL    HW2  859   0.903   1.459   1.848
  282SOL     OW  860   0.661   1.790   2.815
  282SOL    HW1  861   0.615   1.878   2.802
  282SOL    HW2  862   0.760   1.802   2.808
  283SOL     OW  863   1.083   0.984   1.949
  283SOL    HW1  864   1.060   1.037   1.867
  283SOL    HW2  865   1.164   0.928   1.930
  284SOL     OW  866   0.079   1.240   2.515
  284SOL    HW1  867   0.078   1.193   2.603
  284SOL    HW2  868   0.161   1.212   2.464
  285SOL     OW  869   0.428   0.424   2.382
  285SOL    HW1  870   0.458   0.352   2.320
  285SOL    HW2  871   0.389   0.384   2.465
  286SOL     OW  872   0.812   1.586   2.549
  286SOL    HW1  873   0.844   1.596   2.455
  286SOL    HW2  874   0.733   1.524   2.551
  287SOL     OW  875   0.770   1.330   2.163
  287SOL    HW1  876   0.724   1.243   2.180
  287SOL    HW2  877   0.861   1.327   2.204
  288SOL     OW  878   1.352   0.052   2.030
  288SOL    HW1  879   1.387   0.011   1.946
  288SOL    HW2  880   1.262   0.014   2.050
  289SOL     OW  881   1.300   0.453   2.553
  289SOL    HW1  882   1.241   0.533   2.557
  289SOL    HW2  883   1.315   0.418   2.646
  290SOL     OW  884   0.039   1.077   2.162
  290SOL    HW1  885   0.138   1.066   2.153
  290SOL    HW2  886  -0.001   0.991   2.194
  291SOL     OW  887   0.875   1.646   2.199
  291SOL    HW1  888   0.798   1.611   2.145
  291SOL    HW2  889   0.843   1.717   2.261
  292SOL     OW  890   0.230   2.490   0.113
  292SOL    HW1  891   0.137   2.488   0.150
  292SOL    HW2  892   0.231   2.451   0.021
  293SOL     OW  893   0.225   2.137   0.996
  293SOL    HW1  894   0.260   2.120   1.088
  293SOL    HW2  895   0.137   2.092   0.984
  294SOL     OW  896   0.019   2.230   0.647
  294SOL    HW1  897  -0.063   2.273   0.686
  294SOL    HW2  898  -0.009   2.157   0.584
  295SOL     OW  899   1.755   2.469   0.231
  295SOL    HW1  900   1.743   2.456   0.132
  295SOL    HW2  901   1.725   2.388   0.280
  296SOL     OW  902   0.850   2.660   1.823
  296SOL    HW1  903   0.846   2.736   1.888
  296SOL    HW2  904   0.872   2.696   1.732
  297SOL     OW  905   0.685   2.874   0.665
  297SOL    HW1  906   0.754   2.858   0.735
  297SOL    HW2  907   0.612   2.931   0.703
  298SOL     OW  908   0.438   2.254   1.499
  298SOL    HW1  909   0.520   2.198   1.508
  298SOL    HW2  910   0.357   2.196   1.503
  299SOL     OW  911   1.603   2.309   0.737
  299SOL    HW1  912   1.529   2.355   0.687
  299SOL    HW2  913   1.654   2.377   0.790
  300SOL     OW  914   1.594   1.976   1.480
  300SOL    HW1  915   1.576   2.043   1.408
  300SOL    HW2  916   1.591   2.022   1.569
  301SOL     OW  917   0.122   2.505   0.563
  301SOL    HW1  918   0.077   2.417   0.580
  301SOL    HW2  919   0.121   2.559   0.647
  302SOL     OW  920   0.113   2.599   1.597
  302SOL    HW1  921   0.201   2.586   1.642
  302SOL    HW2  922   0.100   2.696   1.575
  303SOL     OW  923   0.809   1.866   0.502
  303SOL    HW1  924   0.849   1.957   0.493
  303SOL    HW2  925   0.709   1.874   0.508
  304SOL     OW  926   0.317   2.113   1.801
  304SOL    HW1  927   0.388   2.184   1.807
  304SOL    HW2  928   0.229   2.152   1.829
  305SOL     OW  929   1.281   2.207   0.944
  305SOL    HW1  930   1.195   2.157   0.931
  305SOL    HW2  931   1.343   2.153   1.000
  306SOL     OW  932   0.807   2.467   1.465
  306SOL    HW1  933   0.760   2.464   1.554
  306SOL    HW2  934   0.756   2.412   1.399
  307SOL     OW  935   1.394   2.331   1.674
  307SOL    HW1  936   1.374   2.374   1.762
  307SOL    HW2  937   1.472   2.269   1.683
  308SOL     OW  938   0.991   2.272   1.242
  308SOL    HW1  939   0.914   2.306   1.296
  308SOL    HW2  940   0.957   2.221   1.163
  309SOL     OW  941   1.041   2.563   0.429
  309SOL    HW1  942   1.067   2.559   0.525
  309SOL    HW2  943   0.956   2.512   0.415
  310SOL     OW  944   0.076   2.673   0.789
  310SOL    HW1  945   0.175   2.661   0.798
  310SOL    HW2  946   0.052   2.768   0.810
  311SOL     OW  947   0.865   2.210   0.195
  311SOL    HW1  948   0.924   2.273   0.146
  311SOL    HW2  949   0.884   2.116   0.166
  312SOL     OW  950   1.719   2.447   1.831
  312SOL    HW1  951   1.693   2.536   1.795
  312SOL    HW2  952   1.717   2.379   1.758
  313SOL     OW  953   0.550   2.058   0.885
  313SOL    HW1  954   0.545   2.053   0.985
  313SOL    HW2  955   0.552   2.154   0.856
  314SOL     OW  956   1.458   2.597   0.728
  314SOL    HW1  957   1.453   2.532   0.803
  314SOL    HW2  958   1.538   2.656   0.741
  315SOL     OW  959   0.202   2.147   1.498
  315SOL    HW1  960   0.122   2.207   1.485
  315SOL    HW2  961   0.192   2.098   1.584
  316SOL     OW  962   1.400   1.969   0.426
  316SOL    HW1  963   1.376   1.932   0.336
  316SOL    HW2  964   1.499   1.985   0.430
  317SOL     OW  965   0.382   2.562   0.480
  317SOL    HW1  966   0.427   2.472   0.477
  317SOL    HW2  967   0.288   2.551   0.513
  318SOL     OW  968   1.547   2.084   1.729
  318SOL    HW1  969   1.542   2.121   1.821
  318SOL    HW2  970   1.475   2.015   1.717
  319SOL     OW  971   0.781   2.126   1.749
  319SOL    HW1  972   0.848   2.065   1.792
  319SOL    HW2  973   0.708   2.145   1.814
  320SOL     OW  974   1.351   2.452   1.433
  320SOL    HW1  975   1.379   2.409   1.518
  320SOL    HW2  976   1.376   2.548   1.434
  321SOL     OW  977   0.922   2.365   0.899
  321SOL    HW1  978   0.897   2.356   0.803
  321SOL    HW2  979   0.970   2.283   0.930
  322SOL     OW  980   0.539   1.926   0.512
  322SOL    HW1  981   0.458   1.927   0.570
  322SOL    HW2  982   0.542   2.009   0.457
  323SOL     OW  983   0.935   2.098   0.480
  323SOL    HW1  984   0.887   2.139   0.402
  323SOL    HW2  985   1.034   2.096   0.461
  324SOL     OW  986   1.076   2.545   1.464
  324SOL    HW1  987   0.996   2.484   1.467
  324SOL    HW2  988   1.157   2.492   1.440
  325SOL     OW  989   1.032   2.411   0.016
  325SOL    HW1  990   0.991   2.493  -0.023
  325SOL    HW2  991   1.096   2.437   0.089
  326SOL     OW  992   0.078   2.418   1.386
  326SOL    HW1  993   0.170   2.417   1.345
  326SOL    HW2  994   0.072   2.492   1.453
  327SOL     OW  995   0.561   2.084   1.147
  327SOL    HW1  996   0.599   2.000   1.184
  327SOL    HW2  997   0.473   2.103   1.191
  328SOL     OW  998   0.866   2.316   0.642
  328SOL    HW1  999   0.834   2.388   0.580
  328SOL    HW2 1000   0.890   2.235   0.589
  329SOL     OW 1001   1.017   1.901   0.753
  329SOL    HW1 1002   0.945   1.906   0.684
  329SOL    HW2 1003   0.993   1.832   0.822
  330SOL     OW 1004   1.466   2.452   0.992
  330SOL    HW1 1005   1.436   2.357   0.999
  330SOL    HW2 1006   1.539   2.468   1.058
  331SOL     OW 1007   1.390   2.437   0.078
  331SOL    HW1 1008   1.336   2.416   0.159
  331SOL    HW2 1009   1.481   2.396   0.087
  332SOL     OW 1010   0.527   2.118   0.328
  332SOL    HW1 1011   0.554   2.059   0.253
  332SOL    HW2 1012   0.527   2.213   0.297
  333SOL     OW 1013   0.915   1.951   1.402
  333SOL    HW1 1014   0.940   1.931   1.307
  333SOL    HW2 1015   0.987   2.007   1.444
  334SOL     OW 1016   0.410   2.675   1.251
  334SOL    HW1 1017   0.496   2.687   1.301
  334SOL    HW2 1018   0.368   2.588   1.278
  335SOL     OW 1019   1.274   2.248   1.262
  335SOL    HW1 1020   1.295   2.322   1.326
  335SOL    HW2 1021   1.185   2.265   1.219
  336SOL     OW 1022   0.566   2.399   0.865
  336SOL    HW1 1023   0.578   2.465   0.791
  336SOL    HW2 1024   0.612   2.433   0.948
  337SOL     OW 1025   1.582   2.501   0.472
  337SOL    HW1 1026   1.551   2.562   0.545
  337SOL    HW2 1027   1.632   2.553   0.403
  338SOL     OW 1028   1.013   1.967   1.770
  338SOL    HW1 1029   1.019   2.052   1.718
  338SOL    HW2 1030   1.045   1.891   1.713
  339SOL     OW 1031   0.504   1.912   1.740
  339SOL    HW1 1032   0.462   1.855   1.670
  339SOL    HW2 1033   0.438   1.981   1.772
  340SOL     OW 1034   1.209   2.387   0.275
  340SOL    HW1 1035   1.222   2.303   0.329
  340SOL    HW2 1036   1.180   2.461   0.335
  341SOL     OW 1037   0.307   2.075   1.231
  341SOL    HW1 1038   0.284   2.112   1.321
  341SOL    HW2 1039   0.277   1.980   1.225
  342SOL     OW 1040   0.732   2.496   1.064
  342SOL    HW1 1041   0.791   2.470   0.988
  342SOL    HW2 1042   0.704   2.592   1.053
  343SOL     OW 1043   1.728   2.797   1.854
  343SOL    HW1 1044   1.682   2.790   1.765
  343SOL    HW2 1045   1.666   2.841   1.920
  344SOL     OW 1046   0.307   1.925   0.618
  344SOL    HW1 1047   0.296   2.019   0.651
  344SOL    HW2 1048   0.302   1.862   0.695
  345SOL     OW 1049   1.622   2.229   0.374
  345SOL    HW1 1050   1.624   2.153   0.438
  345SOL    HW2 1051   1.574   2.306   0.414
  346SOL     OW 1052   1.540   2.136   0.125
  346SOL    HW1 1053   1.479   2.061   0.148
  346SOL    HW2 1054   1.562   2.188   0.208
  347SOL     OW 1055   0.319   2.672   0.949
  347SOL    HW1 1056   0.412   2.708   0.954
  347SOL    HW2 1057   0.313   2.587   1.001
  348SOL     OW 1058   0.339   2.371   1.006
  348SOL    HW1 1059   0.287   2.288   0.989
  348SOL    HW2 1060   0.416   2.376   0.942
  349SOL     OW 1061   1.138   2.242   1.678
  349SOL    HW1 1062   1.093   2.305   1.742
  349SOL    HW2 1063   1.231   2.273   1.661
  350SOL     OW 1064   1.160   2.069   1.477
  350SOL    HW1 1065   1.160   2.133   1.554
  350SOL    HW2 1066   1.188   2.117   1.394
  351SOL     OW 1067   0.040   2.406   1.114
  351SOL    HW1 1068   0.125   2.373   1.073
  351SOL    HW2 1069   0.053   2.421   1.212
  352SOL     OW 1070   0.189   2.382   1.722
  352SOL    HW1 1071   0.248   2.342   1.652
  352SOL    HW2 1072   0.131   2.453   1.681
  353SOL     OW 1073   0.815   2.434   0.325
  353SOL    HW1 1074   0.822   2.345   0.279
  353SOL    HW2 1075   0.721   2.468   0.317
  354SOL     OW 1076   1.657   2.466   1.206
  354SOL    HW1 1077   1.619   2.397   1.268
  354SOL    HW2 1078   1.739   2.430   1.162
  355SOL     OW 1079   0.671   2.326   1.269
  355SOL    HW1 1080   0.637   2.237   1.239
  355SOL    HW2 1081   0.697   2.380   1.189
  356SOL     OW 1082   0.473   2.362   0.191
  356SOL    HW1 1083   0.534   2.442   0.195
  356SOL    HW2 1084   0.378   2.393   0.198
  357SOL     OW 1085   0.903   1.948   0.133
  357SOL    HW1 1086   0.954   1.949   0.047
  357SOL    HW2 1087   0.959   1.906   0.204
  358SOL     OW 1088   1.726   1.997   0.523
  358SOL    HW1 1089   1.799   1.980   0.456
  358SOL    HW2 1090   1.695   1.910   0.561
  359SOL     OW 1091   1.280   2.789   0.672
  359SOL    HW1 1092   1.340   2.708   0.674
  359SOL    HW2 1093   1.320   2.858   0.612
  360SOL     OW 1094   1.841   2.037   0.963
  360SOL    HW1 1095   1.880   1.952   0.927
  360SOL    HW2 1096   1.743   2.039   0.944
  361SOL     OW 1097   0.263   2.188   0.720
  361SOL    HW1 1098   0.184   2.239   0.686
  361SOL    HW2 1099   0.254   2.173   0.818
  362SOL     OW 1100   1.039   2.960   0.696
  362SOL    HW1 1101   0.969   2.913   0.750
  362SOL    HW2 1102   1.098   2.892   0.653
  363SOL     OW 1103   1.014   2.098   0.971
  363SOL    HW1 1104   1.006   2.062   0.878
  363SOL    HW2 1105   1.012   2.022   1.036
  364SOL     OW 1106   1.709   2.247   1.381
  364SOL    HW1 1107   1.782   2.316   1.385
  364SOL    HW2 1108   1.737   2.172   1.322
  365SOL     OW 1109   0.672   2.065   1.489
  365SOL    HW1 1110   0.762   2.049   1.449
  365SOL    HW2 1111   0.680   2.070   1.588
  366SOL     OW 1112   0.075   2.207   0.033
  366SOL    HW1 1113  -0.017   2.179   0.004
  366SOL    HW2 1114   0.106   2.284  -0.023
  367SOL     OW 1115   0.072   2.028   0.318
  367SOL    HW1 1116   0.055   2.111   0.264
  367SOL    HW2 1117   0.162   1.991   0.296
  368SOL     OW 1118   0.716   2.427   1.708
  368SOL    HW1 1119   0.735   2.492   1.782
  368SOL    HW2 1120   0.776   2.347   1.717
  369SOL     OW 1121   1.225   2.187   0.449
  369SOL    HW1 1122   1.290   2.113   0.438
  369SOL    HW2 1123   1.245   2.237   0.533
  370SOL     OW 1124   1.777   2.204   1.642
  370SOL    HW1 1125   1.760   2.235   1.548
  370SOL    HW2 1126   1.693   2.167   1.680
  371SOL     OW 1127   1.083   2.846   0.087
  371SOL    HW1 1128   1.060   2.899   0.005
  371SOL    HW2 1129   1.164   2.790   0.068
  372SOL     OW 1130   1.824   2.054   1.227
  372SOL    HW1 1131   1.820   1.964   1.271
  372SOL    HW2 1132   1.827   2.043   1.128
  373SOL     OW 1133   0.428   2.286   0.520
  373SOL    HW1 1134   0.458   2.214   0.458
  373SOL    HW2 1135   0.389   2.246   0.603
  374SOL     OW 1136   0.317   2.409   1.280
  374SOL    HW1 1137   0.355   2.350   1.352
  374SOL    HW2 1138   0.357   2.383   1.192
  375SOL     OW 1139   1.424   2.076   1.112
  375SOL    HW1 1140   1.476   2.011   1.167
  375SOL    HW2 1141   1.375   2.139   1.173
  376SOL     OW 1142   1.001   1.896   1.154
  376SOL    HW1 1143   0.938   1.824   1.123
  376SOL    HW2 1144   1.094   1.860   1.154
  377SOL     OW 1145   1.352   1.914   0.168
  377SOL    HW1 1146   1.387   1.873   0.084
  377SOL    HW2 1147   1.262   1.876   0.188
  378SOL     OW 1148   1.300   2.315   0.691
  378SOL    HW1 1149   1.241   2.395   0.695
  378SOL    HW2 1150   1.315   2.280   0.784
  379SOL     OW 1151   1.593   2.083   0.882
  379SOL    HW1 1152   1.509   2.082   0.936
  379SOL    HW2 1153   1.595   2.166   0.826
  380SOL     OW 1154   0.230   2.490   1.975
  380SOL    HW1 1155   0.137   2.488   2.012
  380SOL    HW2 1156   0.231   2.451   1.883
  381SOL     OW 1157   1.755   2.469   2.093
  381SOL    HW1 1158   1.743   2.456   1.994
  381SOL    HW2 1159   1.725   2.388   2.142
  382SOL     OW 1160   0.685   2.874   2.527
  382SOL    HW1 1161   0.754   2.858   2.597
  382SOL    HW2 1162   0.612   2.931   2.565
  383SOL     OW 1163   1.603   2.309   2.599
  383SOL    HW1 1164   1.529   2.355   2.549
  383SOL    HW2 1165   1.654   2.377   2.652
  384SOL     OW 1166   0.240   2.953   2.748
  384SOL    HW1 1167   0.254   2.869   2.800
  384SOL    HW2 1168   0.185   3.017   2.803
  385SOL     OW 1169   0.122   2.505   2.425
  385SOL    HW1 1170   0.077   2.417   2.442
  385SOL    HW2 1171   0.121   2.559   2.509
  386SOL     OW 1172   0.809   1.866   2.364
  386SOL    HW1 1173   0.849   1.957   2.355
  386SOL    HW2 1174   0.709   1.874   2.370
  387SOL     OW 1175   1.281   2.207   2.806
  387SOL    HW1 1176   1.195   2.157   2.793
  387SOL    HW2 1177   1.343   2.153   2.862
  388SOL     OW 1178   1.041   2.563   2.291
  388SOL    HW1 1179   1.067   2.559   2.387
  388SOL    HW2 1180   0.956   2.512   2.277
  389SOL     OW 1181   0.076   2.673   2.651
  389SOL    HW1 1182   0.175   2.661   2.660
  389SOL    HW2 1183   0.052   2.768   2.672
  390SOL     OW 1184   0.865   2.210   2.057
  390SOL    HW1 1185   0.924   2.273   2.008
  390SOL    HW2 1186   0.884   2.116   2.028
  391SOL     OW 1187   1.400   1.969   2.288
  391SOL    HW1 1188   1.376   1.932   2.198
  391SOL    HW2 1189   1.499   1.985   2.292
  392SOL     OW 1190   0.382   2.562   2.342
  392SOL    HW1 1191   0.427   2.472   2.339
  392SOL    HW2 1192   0.288   2.551   2.375
  393SOL     OW 1193   0.614   1.984   1.979
  393SOL    HW1 1194   0.712   1.962   1.986
  393SOL    HW2 1195   0.583   1.967   1.886
  394SOL     OW 1196   0.539   1.926   2.374
  394SOL    HW1 1197   0.458   1.927   2.432
  394SOL    HW2 1198   0.542   2.009   2.319
  395SOL     OW 1199   0.297   1.897   2.033
  395SOL    HW1 1200   0.346   1.981   2.012
  395SOL    HW2 1201   0.359   1.832   2.078
  396SOL     OW 1202   0.935   2.098   2.342
  396SOL    HW1 1203   0.887   2.139   2.264
  396SOL    HW2 1204   1.034   2.096   2.323
  397SOL     OW 1205   1.032   2.411   1.878
  397SOL    HW1 1206   0.991   2.493   1.839
  397SOL    HW2 1207   1.096   2.437   1.951
  398SOL     OW 1208   0.866   2.316   2.504
  398SOL    HW1 1209   0.834   2.388   2.442
  398SOL    HW2 1210   0.890   2.235   2.451
  399SOL     OW 1211   1.390   2.437   1.940
  399SOL    HW1 1212   1.336   2.416   2.021
  399SOL    HW2 1213   1.481   2.396   1.949
  400SOL     OW 1214   0.527   2.118   2.190
  400SOL    HW1 1215   0.554   2.059   2.115
  400SOL    HW2 1216   0.527   2.213   2.159
  401SOL     OW 1217   1.582   2.501   2.334
  401SOL    HW1 1218   1.551   2.562   2.407
  401SOL    HW2 1219   1.632   2.553   2.265
  402SOL     OW 1220   1.209   2.387   2.137
  402SOL    HW1 1221   1.222   2.303   2.191
  402SOL    HW2 1222   1.180   2.461   2.197
  403SOL     OW 1223   0.307   1.925   2.480
  403SOL    HW1 1224   0.296   2.019   2.513
  403SOL    HW2 1225   0.302   1.862   2.557
  404SOL     OW 1226   1.622   2.229   2.236
  404SOL    HW1 1227   1.624   2.153   2.300
  404SOL    HW2 1228   1.574   2.306   2.276
  405SOL     OW 1229   1.540   2.136   1.987
  405SOL    HW1 1230   1.479   2.061   2.010
  405SOL    HW2 1231   1.562   2.188   2.070
  406SOL     OW 1232   0.815   2.434   2.187
  406SOL    HW1 1233   0.822   2.345   2.141
  406SOL    HW2 1234   0.721   2.468   2.179
  407SOL     OW 1235   0.473   2.362   2.053
  407SOL    HW1 1236   0.534   2.442   2.057
  407SOL    HW2 1237   0.378   2.393   2.060
  408SOL     OW 1238   1.726   1.997   2.385
  408SOL    HW1 1239   1.799   1.980   2.318
  408SOL    HW2 1240   1.695   1.910   2.423
  409SOL     OW 1241   1.280   2.789   2.534
  409SOL    HW1 1242   1.340   2.708   2.536
  409SOL    HW2 1243   1.320   2.858   2.474
  410SOL     OW 1244   1.841   2.037   2.825
  410SOL    HW1 1245   1.880   1.952   2.789
  410SOL    HW2 1246   1.743   2.039   2.806
  411SOL     OW 1247   0.916   2.772   2.153
  411SOL    HW1 1248   0.979   2.810   2.085
  411SOL    HW2 1249   0.956   2.689   2.192
  412SOL     OW 1250   0.075   2.207   1.895
  412SOL    HW1 1251  -0.017   2.179   1.866
  412SOL    HW2 1252   0.106   2.284   1.839
  413SOL     OW 1253   0.072   2.028   2.180
  413SOL    HW1 1254   0.055   2.111   2.126
  413SOL    HW2 1255   0.162   1.991   2.158
  414SOL     OW 1256   1.225   2.187   2.311
  414SOL    HW1 1257   1.290   2.113   2.300
  414SOL    HW2 1258   1.245   2.237   2.395
  415SOL     OW 1259   1.083   2.846   1.949
  415SOL    HW1 1260   1.060   2.899   1.867
  415SOL    HW2 1261   1.164   2.790   1.930
  416SOL     OW 1262   0.428   2.286   2.382
  416SOL    HW1 1263   0.458   2.214   2.320
  416SOL    HW2 1264   0.389   2.246   2.465
  417SOL     OW 1265   1.352   1.914   2.030
  417SOL    HW1 1266   1.387   1.873   1.946
  417SOL    HW2 1267   1.262   1.876   2.050
  418SOL     OW 1268   1.300   2.315   2.553
  418SOL    HW1 1269   1.241   2.395   2.557
  418SOL    HW2 1270   1.315   2.280   2.646
  419SOL     OW 1271   2.092   0.628   0.113
  419SOL    HW1 1272   1.999   0.626   0.150
  419SOL    HW2 1273   2.093   0.589   0.021
  420SOL     OW 1274   2.087   0.275   0.996
  420SOL    HW1 1275   2.122   0.258   1.088
  420SOL    HW2 1276   1.999   0.230   0.984
  421SOL     OW 1277   1.881   0.368   0.647
  421SOL    HW1 1278   1.799   0.411   0.686
  421SOL    HW2 1279   1.853   0.295   0.584
  422SOL     OW 1280   2.431   1.275   1.165
  422SOL    HW1 1281   2.338   1.268   1.128
  422SOL    HW2 1282   2.442   1.364   1.209
  423SOL     OW 1283   2.712   0.798   1.823
  423SOL    HW1 1284   2.708   0.874   1.888
  423SOL    HW2 1285   2.734   0.834   1.732
  424SOL     OW 1286   2.547   1.012   0.665
  424SOL    HW1 1287   2.616   0.996   0.735
  424SOL    HW2 1288   2.474   1.069   0.703
  425SOL     OW 1289   2.548   1.161   1.803
  425SOL    HW1 1290   2.608   1.240   1.817
  425SOL    HW2 1291   2.462   1.192   1.762
  426SOL     OW 1292   2.197   1.435   1.061
  426SOL    HW1 1293   2.119   1.404   1.008
  426SOL    HW2 1294   2.255   1.493   1.004
  427SOL     OW 1295   2.300   0.392   1.499
  427SOL    HW1 1296   2.382   0.336   1.508
  427SOL    HW2 1297   2.219   0.334   1.503
  428SOL     OW 1298   2.093   1.713   0.483
  428SOL    HW1 1299   2.127   1.790   0.537
  428SOL    HW2 1300   2.137   1.713   0.393
  429SOL     OW 1301   2.092   1.434   0.538
  429SOL    HW1 1302   2.066   1.530   0.538
  429SOL    HW2 1303   2.021   1.380   0.583
  430SOL     OW 1304   2.102   1.091   0.886
  430SOL    HW1 1305   2.116   1.007   0.938
  430SOL    HW2 1306   2.047   1.155   0.941
  431SOL     OW 1307   2.482   1.786   1.439
  431SOL    HW1 1308   2.390   1.769   1.474
  431SOL    HW2 1309   2.510   1.878   1.465
  432SOL     OW 1310   2.468   0.964   0.123
  432SOL    HW1 1311   2.475   1.048   0.069
  432SOL    HW2 1312   2.514   0.977   0.211
  433SOL     OW 1313   1.984   0.643   0.563
  433SOL    HW1 1314   1.939   0.555   0.580
  433SOL    HW2 1315   1.983   0.697   0.647
  434SOL     OW 1316   1.889   1.596   0.117
  434SOL    HW1 1317   1.870   1.500   0.138
  434SOL    HW2 1318   1.856   1.654   0.192
  435SOL     OW 1319   1.975   0.737   1.597
  435SOL    HW1 1320   2.063   0.724   1.642
  435SOL    HW2 1321   1.962   0.834   1.575
  436SOL     OW 1322   2.475   1.365   0.726
  436SOL    HW1 1323   2.426   1.278   0.735
  436SOL    HW2 1324   2.452   1.408   0.639
  437SOL     OW 1325   2.671   0.004   0.502
  437SOL    HW1 1326   2.711   0.095   0.493
  437SOL    HW2 1327   2.571   0.012   0.508
  438SOL     OW 1328   2.059   0.976   1.264
  438SOL    HW1 1329   2.148   0.931   1.250
  438SOL    HW2 1330   1.986   0.911   1.245
  439SOL     OW 1331   2.179   0.251   1.801
  439SOL    HW1 1332   2.250   0.322   1.807
  439SOL    HW2 1333   2.091   0.290   1.829
  440SOL     OW 1334   2.460   0.729   0.270
  440SOL    HW1 1335   2.484   0.798   0.202
  440SOL    HW2 1336   2.382   0.762   0.324
  441SOL     OW 1337   1.938   0.811   0.789
  441SOL    HW1 1338   2.037   0.799   0.798
  441SOL    HW2 1339   1.914   0.906   0.810
  442SOL     OW 1340   1.992   1.821   1.571
  442SOL    HW1 1341   1.982   1.806   1.670
  442SOL    HW2 1342   1.906   1.857   1.535
  443SOL     OW 1343   2.412   0.196   0.885
  443SOL    HW1 1344   2.407   0.191   0.985
  443SOL    HW2 1345   2.414   0.292   0.856
  444SOL     OW 1346   2.213   1.801   0.853
  444SOL    HW1 1347   2.263   1.715   0.859
  444SOL    HW2 1348   2.278   1.878   0.850
  445SOL     OW 1349   2.183   0.943   0.242
  445SOL    HW1 1350   2.265   0.982   0.200
  445SOL    HW2 1351   2.156   0.861   0.193
  446SOL     OW 1352   2.323   1.266   1.727
  446SOL    HW1 1353   2.273   1.267   1.641
  446SOL    HW2 1354   2.260   1.248   1.803
  447SOL     OW 1355   2.064   0.285   1.498
  447SOL    HW1 1356   1.984   0.345   1.485
  447SOL    HW2 1357   2.054   0.236   1.584
  448SOL     OW 1358   2.326   1.743   0.323
  448SOL    HW1 1359   2.359   1.782   0.409
  448SOL    HW2 1360   2.402   1.736   0.258
  449SOL     OW 1361   2.111   1.785   1.241
  449SOL    HW1 1362   2.168   1.720   1.291
  449SOL    HW2 1363   2.095   1.752   1.148
  450SOL     OW 1364   2.244   0.700   0.480
  450SOL    HW1 1365   2.289   0.610   0.477
  450SOL    HW2 1366   2.150   0.689   0.513
  451SOL     OW 1367   2.476   0.122   0.117
  451SOL    HW1 1368   2.574   0.100   0.124
  451SOL    HW2 1369   2.445   0.105   0.024
  452SOL     OW 1370   2.665   1.402   0.924
  452SOL    HW1 1371   2.755   1.416   0.882
  452SOL    HW2 1372   2.594   1.404   0.853
  453SOL     OW 1373   2.401   0.064   0.512
  453SOL    HW1 1374   2.320   0.065   0.570
  453SOL    HW2 1375   2.404   0.147   0.457
  454SOL     OW 1376   2.159   0.035   0.171
  454SOL    HW1 1377   2.208   0.119   0.150
  454SOL    HW2 1378   2.221  -0.030   0.216
  455SOL     OW 1379   2.938   0.683   1.464
  455SOL    HW1 1380   2.858   0.622   1.467
  455SOL    HW2 1381   3.019   0.630   1.440
  456SOL     OW 1382   2.321   1.152   0.741
  456SOL    HW1 1383   2.250   1.125   0.806
  456SOL    HW2 1384   2.295   1.124   0.648
  457SOL     OW 1385   1.940   0.556   1.386
  457SOL    HW1 1386   2.032   0.555   1.345
  457SOL    HW2 1387   1.934   0.630   1.453
  458SOL     OW 1388   2.423   0.222   1.147
  458SOL    HW1 1389   2.461   0.138   1.184
  458SOL    HW2 1390   2.335   0.241   1.191
  459SOL     OW 1391   2.350   1.385   0.174
  459SOL    HW1 1392   2.263   1.370   0.221
  459SOL    HW2 1393   2.333   1.411   0.079
  460SOL     OW 1394   2.389   0.256   0.328
  460SOL    HW1 1395   2.416   0.197   0.253
  460SOL    HW2 1396   2.389   0.351   0.297
  461SOL     OW 1397   2.272   0.813   1.251
  461SOL    HW1 1398   2.358   0.825   1.301
  461SOL    HW2 1399   2.230   0.726   1.278
  462SOL     OW 1400   1.926   1.564   1.331
  462SOL    HW1 1401   1.880   1.646   1.297
  462SOL    HW2 1402   2.024   1.583   1.340
  463SOL     OW 1403   2.229   1.100   0.501
  463SOL    HW1 1404   2.222   1.183   0.445
  463SOL    HW2 1405   2.233   1.020   0.441
  464SOL     OW 1406   2.428   0.537   0.865
  464SOL    HW1 1407   2.440   0.603   0.791
  464SOL    HW2 1408   2.474   0.571   0.948
  465SOL     OW 1409   2.216   1.510   1.329
  465SOL    HW1 1410   2.195   1.466   1.242
  465SOL    HW2 1411   2.313   1.536   1.332
  466SOL     OW 1412   2.264   0.751   1.598
  466SOL    HW1 1413   2.332   0.806   1.551
  466SOL    HW2 1414   2.304   0.663   1.625
  467SOL     OW 1415   2.366   0.050   1.740
  467SOL    HW1 1416   2.324  -0.007   1.670
  467SOL    HW2 1417   2.300   0.119   1.772
  468SOL     OW 1418   2.435   0.870   1.029
  468SOL    HW1 1419   2.479   0.959   1.020
  468SOL    HW2 1420   2.372   0.870   1.106
  469SOL     OW 1421   2.169   0.213   1.231
  469SOL    HW1 1422   2.146   0.250   1.321
  469SOL    HW2 1423   2.139   0.118   1.225
  470SOL     OW 1424   1.899   1.310   1.282
  470SOL    HW1 1425   1.952   1.261   1.350
  470SOL    HW2 1426   1.921   1.408   1.287
  471SOL     OW 1427   2.169   0.063   0.618
  471SOL    HW1 1428   2.158   0.157   0.651
  471SOL    HW2 1429   2.164   0.000   0.695
  472SOL     OW 1430   2.212   0.898   1.804
  472SOL    HW1 1431   2.288   0.942   1.852
  472SOL    HW2 1432   2.247   0.851   1.722
  473SOL     OW 1433   2.181   0.810   0.949
  473SOL    HW1 1434   2.274   0.846   0.954
  473SOL    HW2 1435   2.175   0.725   1.001
  474SOL     OW 1436   2.201   0.509   1.006
  474SOL    HW1 1437   2.149   0.426   0.989
  474SOL    HW2 1438   2.278   0.514   0.942
  475SOL     OW 1439   1.870   1.326   0.200
  475SOL    HW1 1440   1.777   1.347   0.169
  475SOL    HW2 1441   1.880   1.227   0.213
  476SOL     OW 1442   1.950   1.801   0.927
  476SOL    HW1 1443   1.908   1.715   0.900
  476SOL    HW2 1444   2.044   1.804   0.893
  477SOL     OW 1445   2.366   1.568   0.910
  477SOL    HW1 1446   2.432   1.642   0.919
  477SOL    HW2 1447   2.410   1.489   0.868
  478SOL     OW 1448   1.902   0.544   1.114
  478SOL    HW1 1449   1.987   0.511   1.073
  478SOL    HW2 1450   1.915   0.559   1.212
  479SOL     OW 1451   2.051   0.520   1.722
  479SOL    HW1 1452   2.110   0.480   1.652
  479SOL    HW2 1453   1.993   0.591   1.681
  480SOL     OW 1454   2.677   0.572   0.325
  480SOL    HW1 1455   2.684   0.483   0.279
  480SOL    HW2 1456   2.583   0.606   0.317
  481SOL     OW 1457   2.114   1.564   1.744
  481SOL    HW1 1458   2.084   1.621   1.820
  481SOL    HW2 1459   2.107   1.467   1.770
  482SOL     OW 1460   2.335   0.500   0.191
  482SOL    HW1 1461   2.396   0.580   0.195
  482SOL    HW2 1462   2.240   0.531   0.198
  483SOL     OW 1463   2.021   1.137   1.466
  483SOL    HW1 1464   2.043   1.076   1.542
  483SOL    HW2 1465   2.031   1.088   1.380
  484SOL     OW 1466   1.945   1.258   1.022
  484SOL    HW1 1467   1.940   1.257   1.122
  484SOL    HW2 1468   1.862   1.217   0.984
  485SOL     OW 1469   2.550   1.662   1.716
  485SOL    HW1 1470   2.494   1.743   1.725
  485SOL    HW2 1471   2.602   1.666   1.630
  486SOL     OW 1472   1.992   1.794   1.851
  486SOL    HW1 1473   1.951   1.720   1.904
  486SOL    HW2 1474   2.056   1.845   1.909
  487SOL     OW 1475   2.125   0.326   0.720
  487SOL    HW1 1476   2.046   0.377   0.686
  487SOL    HW2 1477   2.116   0.311   0.818
  488SOL     OW 1478   2.234   1.288   1.490
  488SOL    HW1 1479   2.221   1.381   1.456
  488SOL    HW2 1480   2.150   1.236   1.477
  489SOL     OW 1481   2.452   1.487   0.491
  489SOL    HW1 1482   2.494   1.429   0.421
  489SOL    HW2 1483   2.408   1.566   0.447
  490SOL     OW 1484   2.117   1.348   0.290
  490SOL    HW1 1485   2.021   1.349   0.263
  490SOL    HW2 1486   2.129   1.401   0.374
  491SOL     OW 1487   1.967   1.013   1.726
  491SOL    HW1 1488   1.890   0.980   1.780
  491SOL    HW2 1489   2.052   0.983   1.768
  492SOL     OW 1490   2.534   0.203   1.489
  492SOL    HW1 1491   2.624   0.187   1.449
  492SOL    HW2 1492   2.542   0.208   1.588
  493SOL     OW 1493   1.937   0.345   0.033
  493SOL    HW1 1494   1.845   0.317   0.004
  493SOL    HW2 1495   1.968   0.422  -0.023
  494SOL     OW 1496   2.475   0.842   1.431
  494SOL    HW1 1497   2.531   0.923   1.414
  494SOL    HW2 1498   2.534   0.762   1.434
  495SOL     OW 1499   2.578   0.565   1.708
  495SOL    HW1 1500   2.597   0.630   1.782
  495SOL    HW2 1501   2.638   0.485   1.717
  496SOL     OW 1502   2.252   1.741   1.560
  496SOL    HW1 1503   2.161   1.782   1.558
  496SOL    HW2 1504   2.245   1.647   1.592
  497SOL     OW 1505   2.456   0.745   0.652
  497SOL    HW1 1506   2.506   0.830   0.633
  497SOL    HW2 1507   2.368   0.747   0.604
  498SOL     OW 1508   2.083   1.314   1.844
  498SOL    HW1 1509   2.018   1.241   1.823
  498SOL    HW2 1510   2.087   1.328   1.942
  499SOL     OW 1511   1.941   1.240   0.653
  499SOL    HW1 1512   1.940   1.193   0.741
  499SOL    HW2 1513   2.023   1.212   0.602
  500SOL     OW 1514   2.534   1.391   1.624
  500SOL    HW1 1515   2.456   1.341   1.662
  500SOL    HW2 1516   2.531   1.486   1.655
  501SOL     OW 1517   2.290   0.424   0.520
  501SOL    HW1 1518   2.320   0.352   0.458
  501SOL    HW2 1519   2.251   0.384   0.603
  502SOL     OW 1520   2.179   0.547   1.280
  502SOL    HW1 1521   2.217   0.488   1.352
  502SOL    HW2 1522   2.219   0.521   1.192
  503SOL     OW 1523   2.674   1.586   0.687
  503SOL    HW1 1524   2.706   1.596   0.593
  503SOL    HW2 1525   2.595   1.524   0.689
  504SOL     OW 1526   2.480   1.567   1.284
  504SOL    HW1 1527   2.475   1.649   1.341
  504SOL    HW2 1528   2.569   1.564   1.239
  505SOL     OW 1529   1.901   1.077   0.300
  505SOL    HW1 1530   2.000   1.066   0.291
  505SOL    HW2 1531   1.861   0.991   0.332
  506SOL     OW 1532   2.092   0.628   1.975
  506SOL    HW1 1533   1.999   0.626   2.012
  506SOL    HW2 1534   2.093   0.589   1.883
  507SOL     OW 1535   2.087   0.275   2.858
  507SOL    HW1 1536   2.122   0.258   2.950
  507SOL    HW2 1537   1.999   0.230   2.846
  508SOL     OW 1538   2.547   1.012   2.527
  508SOL    HW1 1539   2.616   0.996   2.597
  508SOL    HW2 1540   2.474   1.069   2.565
  509SOL     OW 1541   2.093   1.713   2.345
  509SOL    HW1 1542   2.127   1.790   2.399
  509SOL    HW2 1543   2.137   1.713   2.255
  510SOL     OW 1544   2.092   1.434   2.400
  510SOL    HW1 1545   2.066   1.530   2.400
  510SOL    HW2 1546   2.021   1.380   2.445
  511SOL     OW 1547   2.468   0.964   1.985
  511SOL    HW1 1548   2.475   1.048   1.931
  511SOL    HW2 1549   2.514   0.977   2.073
  512SOL     OW 1550   1.984   0.643   2.425
  512SOL    HW1 1551   1.939   0.555   2.442
  512SOL    HW2 1552   1.983   0.697   2.509
  513SOL     OW 1553   1.889   1.596   1.979
  513SOL    HW1 1554   1.870   1.500   2.000
  513SOL    HW2 1555   1.856   1.654   2.054
  514SOL     OW 1556   2.475   1.365   2.588
  514SOL    HW1 1557   2.426   1.278   2.597
  514SOL    HW2 1558   2.452   1.408   2.501
  515SOL     OW 1559   2.671   0.004   2.364
  515SOL    HW1 1560   2.711   0.095   2.355
  515SOL    HW2 1561   2.571   0.012   2.370
  516SOL     OW 1562   2.460   0.729   2.132
  516SOL    HW1 1563   2.484   0.798   2.064
  516SOL    HW2 1564   2.382   0.762   2.186
  517SOL     OW 1565   1.938   0.811   2.651
  517SOL    HW1 1566   2.037   0.799   2.660
  517SOL    HW2 1567   1.914   0.906   2.672
  518SOL     OW 1568   2.213   1.801   2.715
  518SOL    HW1 1569   2.263   1.715   2.721
  518SOL    HW2 1570   2.278   1.878   2.712
  519SOL     OW 1571   2.183   0.943   2.104
  519SOL    HW1 1572   2.265   0.982   2.062
  519SOL    HW2 1573   2.156   0.861   2.055
  520SOL     OW 1574   2.326   1.743   2.185
  520SOL    HW1 1575   2.359   1.782   2.271
  520SOL    HW2 1576   2.402   1.736   2.120
  521SOL     OW 1577   2.244   0.700   2.342
  521SOL    HW1 1578   2.289   0.610   2.339
  521SOL    HW2 1579   2.150   0.689   2.375
  522SOL     OW 1580   2.476   0.122   1.979
  522SOL    HW1 1581   2.574   0.100   1.986
  522SOL    HW2 1582   2.445   0.105   1.886
  523SOL     OW 1583   2.401   0.064   2.374
  523SOL    HW1 1584   2.320   0.065   2.432
  523SOL    HW2 1585   2.404   0.147   2.319
  524SOL     OW 1586   2.159   0.035   2.033
  524SOL    HW1 1587   2.208   0.119   2.012
  524SOL    HW2 1588   2.221  -0.030   2.078
  525SOL     OW 1589   2.321   1.152   2.603
  525SOL    HW1 1590   2.250   1.125   2.668
  525SOL    HW2 1591   2.295   1.124   2.510
  526SOL     OW 1592   2.350   1.385   2.036
  526SOL    HW1 1593   2.263   1.370   2.083
  526SOL    HW2 1594   2.333   1.411   1.941
  527SOL     OW 1595   2.389   0.256   2.190
  527SOL    HW1 1596   2.416   0.197   2.115
  527SOL    HW2 1597   2.389   0.351   2.159
  528SOL     OW 1598   2.229   1.100   2.363
  528SOL    HW1 1599   2.222   1.183   2.307
  528SOL    HW2 1600   2.233   1.020   2.303
  529SOL     OW 1601   2.169   0.063   2.480
  529SOL    HW1 1602   2.158   0.157   2.513
  529SOL    HW2 1603   2.164   0.000   2.557
  530SOL     OW 1604   1.870   1.326   2.062
  530SOL    HW1 1605   1.777   1.347   2.031
  530SOL    HW2 1606   1.880   1.227   2.075
  531SOL     OW 1607   2.677   0.572   2.187
  531SOL    HW1 1608   2.684   0.483   2.141
  531SOL    HW2 1609   2.583   0.606   2.179
  532SOL     OW 1610   2.335   0.500   2.053
  532SOL    HW1 1611   2.396   0.580   2.057
  532SOL    HW2 1612   2.240   0.531   2.060
  533SOL     OW 1613   2.901   1.098   2.558
  533SOL    HW1 1614   2.831   1.051   2.612
  533SOL    HW2 1615   2.960   1.030   2.515
  534SOL     OW 1616   2.452   1.487   2.353
  534SOL    HW1 1617   2.494   1.429   2.283
  534SOL    HW2 1618   2.408   1.566   2.309
  535SOL     OW 1619   2.117   1.348   2.152
  535SOL    HW1 1620   2.021   1.349   2.125
  535SOL    HW2 1621   2.129   1.401   2.236
  536SOL     OW 1622   1.937   0.345   1.895
  536SOL    HW1 1623   1.845   0.317   1.866
  536SOL    HW2 1624   1.968   0.422   1.839
  537SOL     OW 1625   1.934   0.166   2.180
  537SOL    HW1 1626   1.917   0.249   2.126
  537SOL    HW2 1627   2.024   0.129   2.158
  538SOL     OW 1628   2.456   0.745   2.514
  538SOL    HW1 1629   2.506   0.830   2.495
  538SOL    HW2 1630   2.368   0.747   2.466
  539SOL     OW 1631   2.523   1.790   2.815
  539SOL    HW1 1632   2.477   1.878   2.802
  539SOL    HW2 1633   2.622   1.802   2.808
  540SOL     OW 1634   1.941   1.240   2.515
  540SOL    HW1 1635   1.940   1.193   2.603
  540SOL    HW2 1636   2.023   1.212   2.464
  541SOL     OW 1637   2.290   0.424   2.382
  541SOL    HW1 1638   2.320   0.352   2.320
  541SOL    HW2 1639   2.251   0.384   2.465
  542SOL     OW 1640   2.674   1.586   2.549
  542SOL    HW1 1641   2.706   1.596   2.455
  542SOL    HW2 1642   2.595   1.524   2.551
  543SOL     OW 1643   1.901   1.077   2.162
  543SOL    HW1 1644   2.000   1.066   2.153
  543SOL    HW2 1645   1.861   0.991   2.194
  544SOL     OW 1646   2.092   2.490   0.113
  544SOL    HW1 1647   1.999   2.488   0.150
  544SOL    HW2 1648   2.093   2.451   0.021
  545SOL     OW 1649   2.087   2.137   0.996
  545SOL    HW1 1650   2.122   2.120   1.088
  545SOL    HW2 1651   1.999   2.092   0.984
  546SOL     OW 1652   1.881   2.230   0.647
  546SOL    HW1 1653   1.799   2.273   0.686
  546SOL    HW2 1654   1.853   2.157   0.584
  547SOL     OW 1655   2.712   2.660   1.823
  547SOL    HW1 1656   2.708   2.736   1.888
  547SOL    HW2 1657   2.734   2.696   1.732
  548SOL     OW 1658   2.300   2.254   1.499
  548SOL    HW1 1659   2.382   2.198   1.508
  548SOL    HW2 1660   2.219   2.196   1.503
  549SOL     OW 1661   1.984   2.505   0.563
  549SOL    HW1 1662   1.939   2.417   0.580
  549SOL    HW2 1663   1.983   2.559   0.647
  550SOL     OW 1664   1.975   2.599   1.597
  550SOL    HW1 1665   2.063   2.586   1.642
  550SOL    HW2 1666   1.962   2.696   1.575
  551SOL     OW 1667   2.671   1.866   0.502
  551SOL    HW1 1668   2.711   1.957   0.493
  551SOL    HW2 1669   2.571   1.874   0.508
  552SOL     OW 1670   2.179   2.113   1.801
  552SOL    HW1 1671   2.250   2.184   1.807
  552SOL    HW2 1672   2.091   2.152   1.829
  553SOL     OW 1673   2.412   2.058   0.885
  553SOL    HW1 1674   2.407   2.053   0.985
  553SOL    HW2 1675   2.414   2.154   0.856
  554SOL     OW 1676   2.064   2.147   1.498
  554SOL    HW1 1677   1.984   2.207   1.485
  554SOL    HW2 1678   2.054   2.098   1.584
  555SOL     OW 1679   2.244   2.562   0.480
  555SOL    HW1 1680   2.289   2.472   0.477
  555SOL    HW2 1681   2.150   2.551   0.513
  556SOL     OW 1682   2.401   1.926   0.512
  556SOL    HW1 1683   2.320   1.927   0.570
  556SOL    HW2 1684   2.404   2.009   0.457
  557SOL     OW 1685   2.938   2.545   1.464
  557SOL    HW1 1686   2.858   2.484   1.467
  557SOL    HW2 1687   3.019   2.492   1.440
  558SOL     OW 1688   1.940   2.418   1.386
  558SOL    HW1 1689   2.032   2.417   1.345
  558SOL    HW2 1690   1.934   2.492   1.453
  559SOL     OW 1691   2.423   2.084   1.147
  559SOL    HW1 1692   2.461   2.000   1.184
  559SOL    HW2 1693   2.335   2.103   1.191
  560SOL     OW 1694   2.389   2.118   0.328
  560SOL    HW1 1695   2.416   2.059   0.253
  560SOL    HW2 1696   2.389   2.213   0.297
  561SOL     OW 1697   2.272   2.675   1.251
  561SOL    HW1 1698   2.358   2.687   1.301
  561SOL    HW2 1699   2.230   2.588   1.278
  562SOL     OW 1700   2.428   2.399   0.865
  562SOL    HW1 1701   2.440   2.465   0.791
  562SOL    HW2 1702   2.474   2.433   0.948
  563SOL     OW 1703   2.366   1.912   1.740
  563SOL    HW1 1704   2.324   1.855   1.670
  563SOL    HW2 1705   2.300   1.981   1.772
  564SOL     OW 1706   2.169   2.075   1.231
  564SOL    HW1 1707   2.146   2.112   1.321
  564SOL    HW2 1708   2.139   1.980   1.225
  565SOL     OW 1709   2.169   1.925   0.618
  565SOL    HW1 1710   2.158   2.019   0.651
  565SOL    HW2 1711   2.164   1.862   0.695
  566SOL     OW 1712   2.181   2.672   0.949
  566SOL    HW1 1713   2.274   2.708   0.954
  566SOL    HW2 1714   2.175   2.587   1.001
  567SOL     OW 1715   2.201   2.371   1.006
  567SOL    HW1 1716   2.149   2.288   0.989
  567SOL    HW2 1717   2.278   2.376   0.942
  568SOL     OW 1718   1.902   2.406   1.114
  568SOL    HW1 1719   1.987   2.373   1.073
  568SOL    HW2 1720   1.915   2.421   1.212
  569SOL     OW 1721   2.051   2.382   1.722
  569SOL    HW1 1722   2.110   2.342   1.652
  569SOL    HW2 1723   1.993   2.453   1.681
  570SOL     OW 1724   2.677   2.434   0.325
  570SOL    HW1 1725   2.684   2.345   0.279
  570SOL    HW2 1726   2.583   2.468   0.317
  571SOL     OW 1727   2.335   2.362   0.191
  571SOL    HW1 1728   2.396   2.442   0.195
  571SOL    HW2 1729   2.240   2.393   0.198
  572SOL     OW 1730   2.125   2.188   0.720
  572SOL    HW1 1731   2.046   2.239   0.686
  572SOL    HW2 1732   2.116   2.173   0.818
  573SOL     OW 1733   2.534   2.065   1.489
  573SOL    HW1 1734   2.624   2.049   1.449
  573SOL    HW2 1735   2.542   2.070   1.588
  574SOL     OW 1736   1.937   2.207   0.033
  574SOL    HW1 1737   1.845   2.179   0.004
  574SOL    HW2 1738   1.968   2.284  -0.023
  575SOL     OW 1739   2.578   2.427   1.708
  575SOL    HW1 1740   2.597   2.492   1.782
  575SOL    HW2 1741   2.638   2.347   1.717
  576SOL     OW 1742   2.290   2.286   0.520
  576SOL    HW1 1743   2.320   2.214   0.458
  576SOL    HW2 1744   2.251   2.246   0.603
  577SOL     OW 1745   2.179   2.409   1.280
  577SOL    HW1 1746   2.217   2.350   1.352
  577SOL    HW2 1747   2.219   2.383   1.192
  578SOL     OW 1748   2.092   2.490   1.975
  578SOL    HW1 1749   1.999   2.488   2.012
  578SOL    HW2 1750   2.093   2.451   1.883
  579SOL     OW 1751   2.087   2.137   2.858
  579SOL    HW1 1752   2.122   2.120   2.950
  579SOL    HW2 1753   1.999   2.092   2.846
  580SOL     OW 1754   1.984   2.505   2.425
  580SOL    HW1 1755   1.939   2.417   2.442
  580SOL    HW2 1756   1.983   2.559   2.509
  581SOL     OW 1757   2.671   1.866   2.364
  581SOL    HW1 1758   2.711   1.957   2.355
  581SOL    HW2 1759   2.571   1.874   2.370
  582SOL     OW 1760   2.244   2.562   2.342
  582SOL    HW1 1761   2.289   2.472   2.339
  582SOL    HW2 1762   2.150   2.551   2.375
  583SOL     OW 1763   2.476   1.984   1.979
  583SOL    HW1 1764   2.574   1.962   1.986
  583SOL    HW2 1765   2.445   1.967   1.886
  584SOL     OW 1766   2.401   1.926   2.374
  584SOL    HW1 1767   2.320   1.927   2.432
  584SOL    HW2 1768   2.404   2.009   2.319
  585SOL     OW 1769   2.159   1.897   2.033
  585SOL    HW1 1770   2.208   1.981   2.012
  585SOL    HW2 1771   2.221   1.832   2.078
  586SOL     OW 1772   2.389   2.118   2.190
  586SOL    HW1 1773   2.416   2.059   2.115
  586SOL    HW2 1774   2.389   2.213   2.159
  587SOL     OW 1775   2.169   1.925   2.480
  587SOL    HW1 1776   2.158   2.019   2.513
  587SOL    HW2 1777   2.164   1.862   2.557
  588SOL     OW 1778   2.677   2.434   2.187
  588SOL    HW1 1779   2.684   2.345   2.141
  588SOL    HW2 1780   2.583   2.468   2.179
  589SOL     OW 1781   2.335   2.362   2.053
  589SOL    HW1 1782   2.396   2.442   2.057
  589SOL    HW2 1783   2.240   2.393   2.060
  590SOL     OW 1784   1.937   2.207   1.895
  590SOL    HW1 1785   1.845   2.179   1.866
  590SOL    HW2 1786   1.968   2.284   1.839
  591SOL     OW 1787   1.934   2.028   2.180
  591SOL    HW1 1788   1.917   2.111   2.126
  591SOL    HW2 1789   2.024   1.991   2.158
  592SOL     OW 1790   2.290   2.286   2.382
  592SOL    HW1 1791   2.320   2.214   2.320
  592SOL    HW2 1792   2.251   2.246   2.465
   2.64453   2.64453   2.64453
