mobley_52782_GMX.gro created by acpype (v: 2023.10.27) on Thu May 14 13:49:12 2026
 1883
    1MOL     C1    1   1.400   1.409   1.324
    1MOL     C2    2   1.272   1.346   1.270
    1MOL     N1    3   1.515   1.451   1.527
    1MOL     N2    4   1.165   1.137   1.241
    1MOL     O1    5   1.515   1.439   1.649
    1MOL     O2    6   1.598   1.503   1.452
    1MOL     O3    7   1.172   1.016   1.256
    1MOL     O4    8   1.077   1.206   1.190
    1MOL     O5    9   1.400   1.395   1.466
    1MOL     O6   10   1.280   1.205   1.288
    1MOL     H1   11   1.402   1.516   1.297
    1MOL     H2   12   1.487   1.357   1.282
    1MOL     H3   13   1.264   1.370   1.163
    1MOL     H4   14   1.186   1.386   1.325
    2SOL     OW   15   0.230   0.628   0.113
    2SOL    HW1   16   0.137   0.626   0.150
    2SOL    HW2   17   0.231   0.589   0.021
    3SOL     OW   18   0.225   0.275   0.996
    3SOL    HW1   19   0.260   0.258   1.088
    3SOL    HW2   20   0.137   0.230   0.984
    4SOL     OW   21   0.019   0.368   0.647
    4SOL    HW1   22  -0.063   0.411   0.686
    4SOL    HW2   23  -0.009   0.295   0.584
    5SOL     OW   24   0.569   1.275   1.165
    5SOL    HW1   25   0.476   1.268   1.128
    5SOL    HW2   26   0.580   1.364   1.209
    6SOL     OW   27   1.555   1.511   0.703
    6SOL    HW1   28   1.498   1.495   0.784
    6SOL    HW2   29   1.496   1.521   0.623
    7SOL     OW   30   1.135   0.703   0.717
    7SOL    HW1   31   1.192   0.781   0.692
    7SOL    HW2   32   1.075   0.729   0.793
    8SOL     OW   33   1.755   0.607   0.231
    8SOL    HW1   34   1.743   0.594   0.132
    8SOL    HW2   35   1.725   0.526   0.280
    9SOL     OW   36   0.768   1.144   1.023
    9SOL    HW1   37   0.690   1.161   1.083
    9SOL    HW2   38   0.802   1.231   0.987
   10SOL     OW   39   0.850   0.798   1.823
   10SOL    HW1   40   0.846   0.874   1.888
   10SOL    HW2   41   0.872   0.834   1.732
   11SOL     OW   42   0.685   1.012   0.665
   11SOL    HW1   43   0.754   0.996   0.735
   11SOL    HW2   44   0.612   1.069   0.703
   12SOL     OW   45   0.686   1.161   1.803
   12SOL    HW1   46   0.746   1.240   1.817
   12SOL    HW2   47   0.600   1.192   1.762
   13SOL     OW   48   0.335   1.435   1.061
   13SOL    HW1   49   0.257   1.404   1.008
   13SOL    HW2   50   0.393   1.493   1.004
   14SOL     OW   51   0.438   0.392   1.499
   14SOL    HW1   52   0.520   0.336   1.508
   14SOL    HW2   53   0.357   0.334   1.503
   15SOL     OW   54   1.603   0.447   0.737
   15SOL    HW1   55   1.529   0.493   0.687
   15SOL    HW2   56   1.654   0.515   0.790
   16SOL     OW   57   0.231   1.713   0.483
   16SOL    HW1   58   0.265   1.790   0.537
   16SOL    HW2   59   0.275   1.713   0.393
   17SOL     OW   60   1.127   1.341   1.690
   17SOL    HW1   61   1.174   1.341   1.778
   17SOL    HW2   62   1.079   1.254   1.679
   18SOL     OW   63   0.230   1.434   0.538
   18SOL    HW1   64   0.204   1.530   0.538
   18SOL    HW2   65   0.159   1.380   0.583
   19SOL     OW   66   0.240   1.091   0.886
   19SOL    HW1   67   0.254   1.007   0.938
   19SOL    HW2   68   0.185   1.155   0.941
   20SOL     OW   69   0.620   1.786   1.439
   20SOL    HW1   70   0.528   1.769   1.474
   20SOL    HW2   71   0.648   1.878   1.465
   21SOL     OW   72   0.606   0.964   0.123
   21SOL    HW1   73   0.613   1.048   0.069
   21SOL    HW2   74   0.652   0.977   0.211
   22SOL     OW   75   1.594   0.114   1.480
   22SOL    HW1   76   1.576   0.181   1.408
   22SOL    HW2   77   1.591   0.160   1.569
   23SOL     OW   78   0.122   0.643   0.563
   23SOL    HW1   79   0.077   0.555   0.580
   23SOL    HW2   80   0.121   0.697   0.647
   24SOL     OW   81   1.842   1.767   0.359
   24SOL    HW1   82   1.896   1.738   0.439
   24SOL    HW2   83   1.872   1.857   0.330
   25SOL     OW   84   0.027   1.596   0.117
   25SOL    HW1   85   0.008   1.500   0.138
   25SOL    HW2   86  -0.006   1.654   0.192
   26SOL     OW   87   1.689   0.922   0.612
   26SOL    HW1   88   1.784   0.893   0.620
   26SOL    HW2   89   1.681   0.987   0.537
   27SOL     OW   90   1.641   1.108   0.432
   27SOL    HW1   91   1.727   1.110   0.380
   27SOL    HW2   92   1.655   1.155   0.520
   28SOL     OW   93   0.113   0.737   1.597
   28SOL    HW1   94   0.201   0.724   1.642
   28SOL    HW2   95   0.100   0.834   1.575
   29SOL     OW   96   0.613   1.365   0.726
   29SOL    HW1   97   0.564   1.278   0.735
   29SOL    HW2   98   0.590   1.408   0.639
   30SOL     OW   99   0.809   0.004   0.502
   30SOL    HW1  100   0.849   0.095   0.493
   30SOL    HW2  101   0.709   0.012   0.508
   31SOL     OW  102   0.197   0.976   1.264
   31SOL    HW1  103   0.286   0.931   1.250
   31SOL    HW2  104   0.124   0.911   1.245
   32SOL     OW  105   1.525   0.999   0.190
   32SOL    HW1  106   1.462   0.923   0.203
   32SOL    HW2  107   1.573   1.017   0.276
   33SOL     OW  108   1.187   1.792   1.616
   33SOL    HW1  109   1.211   1.852   1.540
   33SOL    HW2  110   1.194   1.697   1.586
   34SOL     OW  111   0.317   0.251   1.801
   34SOL    HW1  112   0.388   0.322   1.807
   34SOL    HW2  113   0.229   0.290   1.829
   35SOL     OW  114   1.466   1.417   0.953
   35SOL    HW1  115   1.407   1.423   1.033
   35SOL    HW2  116   1.451   1.329   0.907
   36SOL     OW  117   1.667   1.714   0.572
   36SOL    HW1  118   1.626   1.691   0.484
   36SOL    HW2  119   1.649   1.640   0.637
   37SOL     OW  120   0.598   0.729   0.270
   37SOL    HW1  121   0.622   0.798   0.202
   37SOL    HW2  122   0.520   0.762   0.324
   38SOL     OW  123   1.281   0.345   0.944
   38SOL    HW1  124   1.195   0.295   0.931
   38SOL    HW2  125   1.343   0.291   1.000
   39SOL     OW  126   1.576   1.662   0.307
   39SOL    HW1  127   1.665   1.708   0.310
   39SOL    HW2  128   1.555   1.638   0.212
   40SOL     OW  129   0.807   0.605   1.465
   40SOL    HW1  130   0.760   0.602   1.554
   40SOL    HW2  131   0.756   0.550   1.399
   41SOL     OW  132   1.394   0.469   1.674
   41SOL    HW1  133   1.374   0.512   1.762
   41SOL    HW2  134   1.472   0.407   1.683
   42SOL     OW  135   0.973   0.890   1.572
   42SOL    HW1  136   1.019   0.806   1.543
   42SOL    HW2  137   0.917   0.924   1.497
   43SOL     OW  138   0.991   0.410   1.242
   43SOL    HW1  139   0.914   0.444   1.296
   43SOL    HW2  140   0.957   0.359   1.163
   44SOL     OW  141   1.041   0.701   0.429
   44SOL    HW1  142   1.067   0.697   0.525
   44SOL    HW2  143   0.956   0.650   0.415
   45SOL     OW  144   0.076   0.811   0.789
   45SOL    HW1  145   0.175   0.799   0.798
   45SOL    HW2  146   0.052   0.906   0.810
   46SOL     OW  147   0.130   1.821   1.571
   46SOL    HW1  148   0.120   1.806   1.670
   46SOL    HW2  149   0.044   1.857   1.535
   47SOL     OW  150   0.865   0.348   0.195
   47SOL    HW1  151   0.924   0.411   0.146
   47SOL    HW2  152   0.884   0.254   0.166
   48SOL     OW  153   1.719   0.585   1.831
   48SOL    HW1  154   1.693   0.674   1.795
   48SOL    HW2  155   1.717   0.517   1.758
   49SOL     OW  156   1.362   1.144   0.545
   49SOL    HW1  157   1.445   1.115   0.497
   49SOL    HW2  158   1.313   1.211   0.489
   50SOL     OW  159   0.550   0.196   0.885
   50SOL    HW1  160   0.545   0.191   0.985
   50SOL    HW2  161   0.552   0.292   0.856
   51SOL     OW  162   1.008   1.456   0.477
   51SOL    HW1  163   0.962   1.528   0.425
   51SOL    HW2  164   1.004   1.476   0.575
   52SOL     OW  165   0.351   1.801   0.853
   52SOL    HW1  166   0.401   1.715   0.859
   52SOL    HW2  167   0.416   1.878   0.850
   53SOL     OW  168   1.795   1.066   0.873
   53SOL    HW1  169   1.733   1.051   0.797
   53SOL    HW2  170   1.743   1.077   0.958
   54SOL     OW  171   1.227   1.550   1.506
   54SOL    HW1  172   1.233   1.473   1.570
   54SOL    HW2  173   1.175   1.524   1.426
   55SOL     OW  174   0.321   0.943   0.242
   55SOL    HW1  175   0.403   0.982   0.200
   55SOL    HW2  176   0.294   0.861   0.193
   56SOL     OW  177   1.458   0.735   0.728
   56SOL    HW1  178   1.453   0.670   0.803
   56SOL    HW2  179   1.538   0.794   0.741
   57SOL     OW  180   0.461   1.266   1.727
   57SOL    HW1  181   0.411   1.267   1.641
   57SOL    HW2  182   0.398   1.248   1.803
   58SOL     OW  183   1.111   1.776   0.237
   58SOL    HW1  184   1.051   1.714   0.287
   58SOL    HW2  185   1.142   1.732   0.152
   59SOL     OW  186   0.202   0.285   1.498
   59SOL    HW1  187   0.122   0.345   1.485
   59SOL    HW2  188   0.192   0.236   1.584
   60SOL     OW  189   1.632   1.377   0.081
   60SOL    HW1  190   1.600   1.471   0.071
   60SOL    HW2  191   1.556   1.314   0.069
   61SOL     OW  192   0.464   1.743   0.323
   61SOL    HW1  193   0.497   1.782   0.409
   61SOL    HW2  194   0.540   1.736   0.258
   62SOL     OW  195   1.400   0.107   0.426
   62SOL    HW1  196   1.376   0.070   0.336
   62SOL    HW2  197   1.499   0.123   0.430
   63SOL     OW  198   0.249   1.785   1.241
   63SOL    HW1  199   0.306   1.720   1.291
   63SOL    HW2  200   0.233   1.752   1.148
   64SOL     OW  201   0.940   1.698   0.904
   64SOL    HW1  202   1.020   1.641   0.925
   64SOL    HW2  203   0.891   1.658   0.827
   65SOL     OW  204   0.382   0.700   0.480
   65SOL    HW1  205   0.427   0.610   0.477
   65SOL    HW2  206   0.288   0.689   0.513
   66SOL     OW  207   1.547   0.222   1.729
   66SOL    HW1  208   1.542   0.259   1.821
   66SOL    HW2  209   1.475   0.153   1.717
   67SOL     OW  210   0.614   0.122   0.117
   67SOL    HW1  211   0.712   0.100   0.124
   67SOL    HW2  212   0.583   0.105   0.024
   68SOL     OW  213   0.781   0.264   1.749
   68SOL    HW1  214   0.848   0.203   1.792
   68SOL    HW2  215   0.708   0.283   1.814
   69SOL     OW  216   0.888   1.514   1.195
   69SOL    HW1  217   0.865   1.489   1.101
   69SOL    HW2  218   0.949   1.445   1.234
   70SOL     OW  219   1.351   0.590   1.433
   70SOL    HW1  220   1.379   0.547   1.518
   70SOL    HW2  221   1.376   0.686   1.434
   71SOL     OW  222   0.803   1.402   0.924
   71SOL    HW1  223   0.893   1.416   0.882
   71SOL    HW2  224   0.732   1.404   0.853
   72SOL     OW  225   0.922   0.503   0.899
   72SOL    HW1  226   0.897   0.494   0.803
   72SOL    HW2  227   0.970   0.421   0.930
   73SOL     OW  228   0.539   0.064   0.512
   73SOL    HW1  229   0.458   0.065   0.570
   73SOL    HW2  230   0.542   0.147   0.457
   74SOL     OW  231   1.434   1.188   0.041
   74SOL    HW1  232   1.466   1.112   0.098
   74SOL    HW2  233   1.342   1.215   0.071
   75SOL     OW  234   0.297   0.035   0.171
   75SOL    HW1  235   0.346   0.119   0.150
   75SOL    HW2  236   0.359  -0.030   0.216
   76SOL     OW  237   0.935   0.236   0.480
   76SOL    HW1  238   0.887   0.277   0.402
   76SOL    HW2  239   1.034   0.234   0.461
   77SOL     OW  240   1.076   0.683   1.464
   77SOL    HW1  241   0.996   0.622   1.467
   77SOL    HW2  242   1.157   0.630   1.440
   78SOL     OW  243   1.227   1.570   0.793
   78SOL    HW1  244   1.248   1.644   0.728
   78SOL    HW2  245   1.295   1.570   0.866
   79SOL     OW  246   0.459   1.152   0.741
   79SOL    HW1  247   0.388   1.125   0.806
   79SOL    HW2  248   0.433   1.124   0.648
   80SOL     OW  249   1.271   1.797   0.591
   80SOL    HW1  250   1.315   1.861   0.527
   80SOL    HW2  251   1.221   1.849   0.661
   81SOL     OW  252   1.032   0.549   0.016
   81SOL    HW1  253   0.991   0.631  -0.023
   81SOL    HW2  254   1.096   0.575   0.089
   82SOL     OW  255   0.078   0.556   1.386
   82SOL    HW1  256   0.170   0.555   1.345
   82SOL    HW2  257   0.072   0.630   1.453
   83SOL     OW  258   0.561   0.222   1.147
   83SOL    HW1  259   0.599   0.138   1.184
   83SOL    HW2  260   0.473   0.241   1.191
   84SOL     OW  261   0.866   0.454   0.642
   84SOL    HW1  262   0.834   0.526   0.580
   84SOL    HW2  263   0.890   0.373   0.589
   85SOL     OW  264   1.017   0.039   0.753
   85SOL    HW1  265   0.945   0.044   0.684
   85SOL    HW2  266   0.993  -0.030   0.822
   86SOL     OW  267   1.429   1.173   0.867
   86SOL    HW1  268   1.374   1.089   0.860
   86SOL    HW2  269   1.455   1.202   0.775
   87SOL     OW  270   1.466   0.590   0.992
   87SOL    HW1  271   1.436   0.495   0.999
   87SOL    HW2  272   1.539   0.606   1.058
   88SOL     OW  273   1.857   0.833   0.377
   88SOL    HW1  274   1.899   0.769   0.441
   88SOL    HW2  275   1.819   0.782   0.299
   89SOL     OW  276   0.488   1.385   0.174
   89SOL    HW1  277   0.401   1.370   0.221
   89SOL    HW2  278   0.471   1.411   0.079
   90SOL     OW  279   1.664   1.280   0.657
   90SOL    HW1  280   1.763   1.288   0.671
   90SOL    HW2  281   1.619   1.364   0.688
   91SOL     OW  282   1.390   0.575   0.078
   91SOL    HW1  283   1.336   0.554   0.159
   91SOL    HW2  284   1.481   0.534   0.087
   92SOL     OW  285   0.527   0.256   0.328
   92SOL    HW1  286   0.554   0.197   0.253
   92SOL    HW2  287   0.527   0.351   0.297
   93SOL     OW  288   1.754   1.223   1.588
   93SOL    HW1  289   1.845   1.184   1.575
   93SOL    HW2  290   1.762   1.319   1.612
   94SOL     OW  291   1.592   1.629   1.625
   94SOL    HW1  292   1.619   1.663   1.535
   94SOL    HW2  293   1.671   1.591   1.671
   95SOL     OW  294   1.638   1.099   1.079
   95SOL    HW1  295   1.643   1.180   1.138
   95SOL    HW2  296   1.552   1.101   1.028
   96SOL     OW  297   0.915   0.089   1.402
   96SOL    HW1  298   0.940   0.069   1.307
   96SOL    HW2  299   0.987   0.145   1.444
   97SOL     OW  300   0.980   1.116   1.719
   97SOL    HW1  301   0.881   1.122   1.729
   97SOL    HW2  302   1.003   1.036   1.663
   98SOL     OW  303   0.705   1.050   0.368
   98SOL    HW1  304   0.691   1.057   0.467
   98SOL    HW2  305   0.789   0.999   0.350
   99SOL     OW  306   0.410   0.813   1.251
   99SOL    HW1  307   0.496   0.825   1.301
   99SOL    HW2  308   0.368   0.726   1.278
  100SOL     OW  309   1.274   0.386   1.262
  100SOL    HW1  310   1.295   0.460   1.326
  100SOL    HW2  311   1.185   0.403   1.219
  101SOL     OW  312   0.064   1.564   1.331
  101SOL    HW1  313   0.018   1.646   1.297
  101SOL    HW2  314   0.162   1.583   1.340
  102SOL     OW  315   0.367   1.100   0.501
  102SOL    HW1  316   0.360   1.183   0.445
  102SOL    HW2  317   0.371   1.020   0.441
  103SOL     OW  318   0.566   0.537   0.865
  103SOL    HW1  319   0.578   0.603   0.791
  103SOL    HW2  320   0.612   0.571   0.948
  104SOL     OW  321   1.252   1.348   0.388
  104SOL    HW1  322   1.302   1.425   0.428
  104SOL    HW2  323   1.157   1.350   0.420
  105SOL     OW  324   1.582   0.639   0.472
  105SOL    HW1  325   1.551   0.700   0.545
  105SOL    HW2  326   1.632   0.691   0.403
  106SOL     OW  327   0.354   1.510   1.329
  106SOL    HW1  328   0.333   1.466   1.242
  106SOL    HW2  329   0.451   1.536   1.332
  107SOL     OW  330   0.402   0.751   1.598
  107SOL    HW1  331   0.470   0.806   1.551
  107SOL    HW2  332   0.442   0.663   1.625
  108SOL     OW  333   1.587   0.779   1.670
  108SOL    HW1  334   1.495   0.817   1.665
  108SOL    HW2  335   1.647   0.826   1.605
  109SOL     OW  336   1.013   0.105   1.770
  109SOL    HW1  337   1.019   0.190   1.718
  109SOL    HW2  338   1.045   0.029   1.713
  110SOL     OW  339   0.504   0.050   1.740
  110SOL    HW1  340   0.462  -0.007   1.670
  110SOL    HW2  341   0.438   0.119   1.772
  111SOL     OW  342   0.573   0.870   1.029
  111SOL    HW1  343   0.617   0.959   1.020
  111SOL    HW2  344   0.510   0.870   1.106
  112SOL     OW  345   1.360   0.862   1.045
  112SOL    HW1  346   1.285   0.862   0.979
  112SOL    HW2  347   1.397   0.770   1.054
  113SOL     OW  348   1.209   0.525   0.275
  113SOL    HW1  349   1.222   0.441   0.329
  113SOL    HW2  350   1.180   0.599   0.335
  114SOL     OW  351   0.307   0.213   1.231
  114SOL    HW1  352   0.284   0.250   1.321
  114SOL    HW2  353   0.277   0.118   1.225
  115SOL     OW  354   0.037   1.310   1.282
  115SOL    HW1  355   0.090   1.261   1.350
  115SOL    HW2  356   0.059   1.408   1.287
  116SOL     OW  357   0.732   0.634   1.064
  116SOL    HW1  358   0.791   0.608   0.988
  116SOL    HW2  359   0.704   0.730   1.053
  117SOL     OW  360   1.728   0.935   1.854
  117SOL    HW1  361   1.682   0.928   1.765
  117SOL    HW2  362   1.666   0.979   1.920
  118SOL     OW  363   0.307   0.063   0.618
  118SOL    HW1  364   0.296   0.157   0.651
  118SOL    HW2  365   0.302   0.000   0.695
  119SOL     OW  366   1.622   0.367   0.374
  119SOL    HW1  367   1.624   0.291   0.438
  119SOL    HW2  368   1.574   0.444   0.414
  120SOL     OW  369   1.023   0.766   0.966
  120SOL    HW1  370   1.038   0.787   1.062
  120SOL    HW2  371   0.993   0.671   0.957
  121SOL     OW  372   0.980   1.573   1.700
  121SOL    HW1  373   0.960   1.617   1.612
  121SOL    HW2  374   1.019   1.482   1.684
  122SOL     OW  375   1.859   1.518   1.605
  122SOL    HW1  376   1.873   1.545   1.510
  122SOL    HW2  377   1.942   1.540   1.658
  123SOL     OW  378   0.350   0.898   1.804
  123SOL    HW1  379   0.426   0.942   1.852
  123SOL    HW2  380   0.385   0.851   1.722
  124SOL     OW  381   1.540   0.274   0.125
  124SOL    HW1  382   1.479   0.199   0.148
  124SOL    HW2  383   1.562   0.326   0.208
  125SOL     OW  384   1.303   0.838   0.042
  125SOL    HW1  385   1.337   0.745   0.057
  125SOL    HW2  386   1.321   0.865  -0.053
  126SOL     OW  387   1.068   1.333   0.849
  126SOL    HW1  388   1.075   1.249   0.794
  126SOL    HW2  389   1.130   1.402   0.813
  127SOL     OW  390   0.319   0.810   0.949
  127SOL    HW1  391   0.412   0.846   0.954
  127SOL    HW2  392   0.313   0.725   1.001
  128SOL     OW  393   0.339   0.509   1.006
  128SOL    HW1  394   0.287   0.426   0.989
  128SOL    HW2  395   0.416   0.514   0.942
  129SOL     OW  396   1.138   0.380   1.678
  129SOL    HW1  397   1.093   0.443   1.742
  129SOL    HW2  398   1.231   0.411   1.661
  130SOL     OW  399   1.160   0.207   1.477
  130SOL    HW1  400   1.160   0.271   1.554
  130SOL    HW2  401   1.188   0.255   1.394
  131SOL     OW  402   0.008   1.326   0.200
  131SOL    HW1  403  -0.085   1.347   0.169
  131SOL    HW2  404   0.018   1.227   0.213
  132SOL     OW  405   0.088   1.801   0.927
  132SOL    HW1  406   0.046   1.715   0.900
  132SOL    HW2  407   0.182   1.804   0.893
  133SOL     OW  408   0.504   1.568   0.910
  133SOL    HW1  409   0.570   1.642   0.919
  133SOL    HW2  410   0.548   1.489   0.868
  134SOL     OW  411   1.002   0.796   1.238
  134SOL    HW1  412   1.043   0.764   1.324
  134SOL    HW2  413   0.906   0.769   1.235
  135SOL     OW  414   0.040   0.544   1.114
  135SOL    HW1  415   0.125   0.511   1.073
  135SOL    HW2  416   0.053   0.559   1.212
  136SOL     OW  417   0.189   0.520   1.722
  136SOL    HW1  418   0.248   0.480   1.652
  136SOL    HW2  419   0.131   0.591   1.681
  137SOL     OW  420   1.369   0.950   1.660
  137SOL    HW1  421   1.408   1.039   1.680
  137SOL    HW2  422   1.379   0.930   1.563
  138SOL     OW  423   0.815   0.572   0.325
  138SOL    HW1  424   0.822   0.483   0.279
  138SOL    HW2  425   0.721   0.606   0.317
  139SOL     OW  426   1.657   0.604   1.206
  139SOL    HW1  427   1.619   0.535   1.268
  139SOL    HW2  428   1.739   0.568   1.162
  140SOL     OW  429   0.252   1.564   1.744
  140SOL    HW1  430   0.222   1.621   1.820
  140SOL    HW2  431   0.245   1.467   1.770
  141SOL     OW  432   0.671   0.464   1.269
  141SOL    HW1  433   0.637   0.375   1.239
  141SOL    HW2  434   0.697   0.518   1.189
  142SOL     OW  435   0.930   1.678   1.465
  142SOL    HW1  436   0.906   1.660   1.370
  142SOL    HW2  437   0.960   1.772   1.475
  143SOL     OW  438   0.473   0.500   0.191
  143SOL    HW1  439   0.534   0.580   0.195
  143SOL    HW2  440   0.378   0.531   0.198
  144SOL     OW  441   0.159   1.137   1.466
  144SOL    HW1  442   0.181   1.076   1.542
  144SOL    HW2  443   0.169   1.088   1.380
  145SOL     OW  444   1.302   0.855   0.309
  145SOL    HW1  445   1.216   0.824   0.351
  145SOL    HW2  446   1.298   0.841   0.210
  146SOL     OW  447   1.759   1.747   1.154
  146SOL    HW1  448   1.820   1.777   1.081
  146SOL    HW2  449   1.721   1.658   1.132
  147SOL     OW  450   1.252   1.731   1.128
  147SOL    HW1  451   1.336   1.736   1.074
  147SOL    HW2  452   1.229   1.635   1.146
  148SOL     OW  453   0.083   1.258   1.022
  148SOL    HW1  454   0.078   1.257   1.122
  148SOL    HW2  455   0.000   1.217   0.984
  149SOL     OW  456   0.688   1.662   1.716
  149SOL    HW1  457   0.632   1.743   1.725
  149SOL    HW2  458   0.740   1.666   1.630
  150SOL     OW  459   0.903   0.086   0.133
  150SOL    HW1  460   0.954   0.087   0.047
  150SOL    HW2  461   0.959   0.044   0.204
  151SOL     OW  462   1.726   0.135   0.523
  151SOL    HW1  463   1.799   0.118   0.456
  151SOL    HW2  464   1.695   0.048   0.561
  152SOL     OW  465   1.388   1.573   0.477
  152SOL    HW1  466   1.455   1.585   0.403
  152SOL    HW2  467   1.348   1.662   0.500
  153SOL     OW  468   0.130   1.794   1.851
  153SOL    HW1  469   0.089   1.720   1.904
  153SOL    HW2  470   0.194   1.845   1.909
  154SOL     OW  471   1.280   0.927   0.672
  154SOL    HW1  472   1.340   0.846   0.674
  154SOL    HW2  473   1.320   0.996   0.612
  155SOL     OW  474   0.830   1.273   1.422
  155SOL    HW1  475   0.825   1.306   1.517
  155SOL    HW2  476   0.744   1.292   1.376
  156SOL     OW  477   0.672   1.616   0.154
  156SOL    HW1  478   0.681   1.626   0.055
  156SOL    HW2  479   0.632   1.527   0.175
  157SOL     OW  480   1.650   1.720   1.394
  157SOL    HW1  481   1.703   1.730   1.310
  157SOL    HW2  482   1.623   1.810   1.428
  158SOL     OW  483   1.841   0.175   0.963
  158SOL    HW1  484   1.880   0.090   0.927
  158SOL    HW2  485   1.743   0.177   0.944
  159SOL     OW  486   0.263   0.326   0.720
  159SOL    HW1  487   0.184   0.377   0.686
  159SOL    HW2  488   0.254   0.311   0.818
  160SOL     OW  489   1.194   1.612   0.031
  160SOL    HW1  490   1.200   1.519   0.068
  160SOL    HW2  491   1.135   1.612  -0.049
  161SOL     OW  492   0.822   1.002   1.372
  161SOL    HW1  493   0.862   1.001   1.280
  161SOL    HW2  494   0.832   1.094   1.412
  162SOL     OW  495   0.916   0.910   0.291
  162SOL    HW1  496   0.979   0.948   0.223
  162SOL    HW2  497   0.956   0.827   0.330
  163SOL     OW  498   1.504   1.607   0.044
  163SOL    HW1  499   1.412   1.644   0.051
  163SOL    HW2  500   1.542   1.627  -0.046
  164SOL     OW  501   0.372   1.288   1.490
  164SOL    HW1  502   0.359   1.381   1.456
  164SOL    HW2  503   0.288   1.236   1.477
  165SOL     OW  504   1.039   1.098   0.696
  165SOL    HW1  505   0.969   1.051   0.750
  165SOL    HW2  506   1.098   1.030   0.653
  166SOL     OW  507   1.014   0.236   0.971
  166SOL    HW1  508   1.006   0.200   0.878
  166SOL    HW2  509   1.012   0.160   1.036
  167SOL     OW  510   0.590   1.487   0.491
  167SOL    HW1  511   0.632   1.429   0.421
  167SOL    HW2  512   0.546   1.566   0.447
  168SOL     OW  513   1.709   0.385   1.381
  168SOL    HW1  514   1.782   0.454   1.385
  168SOL    HW2  515   1.737   0.310   1.322
  169SOL     OW  516   0.255   1.348   0.290
  169SOL    HW1  517   0.159   1.349   0.263
  169SOL    HW2  518   0.267   1.401   0.374
  170SOL     OW  519   0.105   1.013   1.726
  170SOL    HW1  520   0.028   0.980   1.780
  170SOL    HW2  521   0.190   0.983   1.768
  171SOL     OW  522   0.672   0.203   1.489
  171SOL    HW1  523   0.762   0.187   1.449
  171SOL    HW2  524   0.680   0.208   1.588
  172SOL     OW  525   0.075   0.345   0.033
  172SOL    HW1  526  -0.017   0.317   0.004
  172SOL    HW2  527   0.106   0.422  -0.023
  173SOL     OW  528   1.440   0.856   1.398
  173SOL    HW1  529   1.383   0.908   1.335
  173SOL    HW2  530   1.536   0.868   1.374
  174SOL     OW  531   0.072   0.166   0.318
  174SOL    HW1  532   0.055   0.249   0.264
  174SOL    HW2  533   0.162   0.129   0.296
  175SOL     OW  534   1.183   1.335   0.119
  175SOL    HW1  535   1.084   1.324   0.121
  175SOL    HW2  536   1.217   1.350   0.212
  176SOL     OW  537   0.613   0.842   1.431
  176SOL    HW1  538   0.669   0.923   1.414
  176SOL    HW2  539   0.672   0.762   1.434
  177SOL     OW  540   1.493   1.767   0.959
  177SOL    HW1  541   1.526   1.831   0.890
  177SOL    HW2  542   1.559   1.761   1.034
  178SOL     OW  543   0.716   0.565   1.708
  178SOL    HW1  544   0.735   0.630   1.782
  178SOL    HW2  545   0.776   0.485   1.717
  179SOL     OW  546   1.450   1.220   1.633
  179SOL    HW1  547   1.441   1.210   1.732
  179SOL    HW2  548   1.546   1.213   1.607
  180SOL     OW  549   0.390   1.741   1.560
  180SOL    HW1  550   0.299   1.782   1.558
  180SOL    HW2  551   0.383   1.647   1.592
  181SOL     OW  552   1.674   0.883   1.254
  181SOL    HW1  553   1.647   0.794   1.217
  181SOL    HW2  554   1.675   0.951   1.181
  182SOL     OW  555   1.225   0.325   0.449
  182SOL    HW1  556   1.290   0.251   0.438
  182SOL    HW2  557   1.245   0.375   0.533
  183SOL     OW  558   0.594   0.745   0.652
  183SOL    HW1  559   0.644   0.830   0.633
  183SOL    HW2  560   0.506   0.747   0.604
  184SOL     OW  561   1.777   0.342   1.642
  184SOL    HW1  562   1.760   0.373   1.548
  184SOL    HW2  563   1.693   0.305   1.680
  185SOL     OW  564   1.730   0.934   1.517
  185SOL    HW1  565   1.768   1.025   1.532
  185SOL    HW2  566   1.722   0.917   1.418
  186SOL     OW  567   0.859   1.374   0.016
  186SOL    HW1  568   0.813   1.389   0.104
  186SOL    HW2  569   0.903   1.459  -0.014
  187SOL     OW  570   0.661   1.790   0.953
  187SOL    HW1  571   0.615   1.878   0.940
  187SOL    HW2  572   0.760   1.802   0.946
  188SOL     OW  573   0.859   0.956   0.861
  188SOL    HW1  574   0.913   0.887   0.909
  188SOL    HW2  575   0.827   1.025   0.927
  189SOL     OW  576   1.083   0.984   0.087
  189SOL    HW1  577   1.060   1.037   0.005
  189SOL    HW2  578   1.164   0.928   0.068
  190SOL     OW  579   1.861   1.569   0.851
  190SOL    HW1  580   1.790   1.557   0.781
  190SOL    HW2  581   1.862   1.490   0.911
  191SOL     OW  582   0.221   1.314   1.844
  191SOL    HW1  583   0.156   1.241   1.823
  191SOL    HW2  584   0.225   1.328   1.942
  192SOL     OW  585   0.079   1.240   0.653
  192SOL    HW1  586   0.078   1.193   0.741
  192SOL    HW2  587   0.161   1.212   0.602
  193SOL     OW  588   0.672   1.391   1.624
  193SOL    HW1  589   0.594   1.341   1.662
  193SOL    HW2  590   0.669   1.486   1.655
  194SOL     OW  591   1.824   0.192   1.227
  194SOL    HW1  592   1.820   0.102   1.271
  194SOL    HW2  593   1.827   0.181   1.128
  195SOL     OW  594   0.428   0.424   0.520
  195SOL    HW1  595   0.458   0.352   0.458
  195SOL    HW2  596   0.389   0.384   0.603
  196SOL     OW  597   1.705   1.487   1.104
  196SOL    HW1  598   1.612   1.462   1.077
  196SOL    HW2  599   1.731   1.437   1.186
  197SOL     OW  600   0.317   0.547   1.280
  197SOL    HW1  601   0.355   0.488   1.352
  197SOL    HW2  602   0.357   0.521   1.192
  198SOL     OW  603   0.812   1.586   0.687
  198SOL    HW1  604   0.844   1.596   0.593
  198SOL    HW2  605   0.733   1.524   0.689
  199SOL     OW  606   1.424   0.214   1.112
  199SOL    HW1  607   1.476   0.149   1.167
  199SOL    HW2  608   1.375   0.277   1.173
  200SOL     OW  609   1.001   0.034   1.154
  200SOL    HW1  610   0.938  -0.038   1.123
  200SOL    HW2  611   1.094  -0.002   1.154
  201SOL     OW  612   0.770   1.330   0.301
  201SOL    HW1  613   0.724   1.243   0.318
  201SOL    HW2  614   0.861   1.327   0.342
  202SOL     OW  615   0.618   1.567   1.284
  202SOL    HW1  616   0.613   1.649   1.341
  202SOL    HW2  617   0.707   1.564   1.239
  203SOL     OW  618   1.352   0.052   0.168
  203SOL    HW1  619   1.387   0.011   0.084
  203SOL    HW2  620   1.262   0.014   0.188
  204SOL     OW  621   1.300   0.453   0.691
  204SOL    HW1  622   1.241   0.533   0.695
  204SOL    HW2  623   1.315   0.418   0.784
  205SOL     OW  624   1.593   0.221   0.882
  205SOL    HW1  625   1.509   0.220   0.936
  205SOL    HW2  626   1.595   0.304   0.826
  206SOL     OW  627   0.039   1.077   0.300
  206SOL    HW1  628   0.138   1.066   0.291
  206SOL    HW2  629  -0.001   0.991   0.332
  207SOL     OW  630   0.875   1.646   0.337
  207SOL    HW1  631   0.798   1.611   0.283
  207SOL    HW2  632   0.843   1.717   0.399
  208SOL     OW  633   0.230   0.628   1.975
  208SOL    HW1  634   0.137   0.626   2.012
  208SOL    HW2  635   0.231   0.589   1.883
  209SOL     OW  636   0.019   0.368   2.509
  209SOL    HW1  637  -0.063   0.411   2.548
  209SOL    HW2  638  -0.009   0.295   2.446
  210SOL     OW  639   1.755   0.607   2.093
  210SOL    HW1  640   1.743   0.594   1.994
  210SOL    HW2  641   1.725   0.526   2.142
  211SOL     OW  642   0.685   1.012   2.527
  211SOL    HW1  643   0.754   0.996   2.597
  211SOL    HW2  644   0.612   1.069   2.565
  212SOL     OW  645   1.603   0.447   2.599
  212SOL    HW1  646   1.529   0.493   2.549
  212SOL    HW2  647   1.654   0.515   2.652
  213SOL     OW  648   0.231   1.713   2.345
  213SOL    HW1  649   0.265   1.790   2.399
  213SOL    HW2  650   0.275   1.713   2.255
  214SOL     OW  651   0.230   1.434   2.400
  214SOL    HW1  652   0.204   1.530   2.400
  214SOL    HW2  653   0.159   1.380   2.445
  215SOL     OW  654   0.606   0.964   1.985
  215SOL    HW1  655   0.613   1.048   1.931
  215SOL    HW2  656   0.652   0.977   2.073
  216SOL     OW  657   0.122   0.643   2.425
  216SOL    HW1  658   0.077   0.555   2.442
  216SOL    HW2  659   0.121   0.697   2.509
  217SOL     OW  660   1.842   1.767   2.221
  217SOL    HW1  661   1.896   1.738   2.301
  217SOL    HW2  662   1.872   1.857   2.192
  218SOL     OW  663   0.027   1.596   1.979
  218SOL    HW1  664   0.008   1.500   2.000
  218SOL    HW2  665  -0.006   1.654   2.054
  219SOL     OW  666   1.689   0.922   2.474
  219SOL    HW1  667   1.784   0.893   2.482
  219SOL    HW2  668   1.681   0.987   2.399
  220SOL     OW  669   1.641   1.108   2.294
  220SOL    HW1  670   1.727   1.110   2.242
  220SOL    HW2  671   1.655   1.155   2.382
  221SOL     OW  672   0.613   1.365   2.588
  221SOL    HW1  673   0.564   1.278   2.597
  221SOL    HW2  674   0.590   1.408   2.501
  222SOL     OW  675   0.809   0.004   2.364
  222SOL    HW1  676   0.849   0.095   2.355
  222SOL    HW2  677   0.709   0.012   2.370
  223SOL     OW  678   1.525   0.999   2.052
  223SOL    HW1  679   1.462   0.923   2.065
  223SOL    HW2  680   1.573   1.017   2.138
  224SOL     OW  681   1.667   1.714   2.434
  224SOL    HW1  682   1.626   1.691   2.346
  224SOL    HW2  683   1.649   1.640   2.499
  225SOL     OW  684   0.598   0.729   2.132
  225SOL    HW1  685   0.622   0.798   2.064
  225SOL    HW2  686   0.520   0.762   2.186
  226SOL     OW  687   1.281   0.345   2.806
  226SOL    HW1  688   1.195   0.295   2.793
  226SOL    HW2  689   1.343   0.291   2.862
  227SOL     OW  690   1.576   1.662   2.169
  227SOL    HW1  691   1.665   1.708   2.172
  227SOL    HW2  692   1.555   1.638   2.074
  228SOL     OW  693   1.041   0.701   2.291
  228SOL    HW1  694   1.067   0.697   2.387
  228SOL    HW2  695   0.956   0.650   2.277
  229SOL     OW  696   0.076   0.811   2.651
  229SOL    HW1  697   0.175   0.799   2.660
  229SOL    HW2  698   0.052   0.906   2.672
  230SOL     OW  699   0.865   0.348   2.057
  230SOL    HW1  700   0.924   0.411   2.008
  230SOL    HW2  701   0.884   0.254   2.028
  231SOL     OW  702   1.362   1.144   2.407
  231SOL    HW1  703   1.445   1.115   2.359
  231SOL    HW2  704   1.313   1.211   2.351
  232SOL     OW  705   1.008   1.456   2.339
  232SOL    HW1  706   0.962   1.528   2.287
  232SOL    HW2  707   1.004   1.476   2.437
  233SOL     OW  708   0.351   1.801   2.715
  233SOL    HW1  709   0.401   1.715   2.721
  233SOL    HW2  710   0.416   1.878   2.712
  234SOL     OW  711   1.795   1.066   2.735
  234SOL    HW1  712   1.733   1.051   2.659
  234SOL    HW2  713   1.743   1.077   2.820
  235SOL     OW  714   0.321   0.943   2.104
  235SOL    HW1  715   0.403   0.982   2.062
  235SOL    HW2  716   0.294   0.861   2.055
  236SOL     OW  717   1.111   1.776   2.099
  236SOL    HW1  718   1.051   1.714   2.149
  236SOL    HW2  719   1.142   1.732   2.014
  237SOL     OW  720   1.632   1.377   1.943
  237SOL    HW1  721   1.600   1.471   1.933
  237SOL    HW2  722   1.556   1.314   1.931
  238SOL     OW  723   0.464   1.743   2.185
  238SOL    HW1  724   0.497   1.782   2.271
  238SOL    HW2  725   0.540   1.736   2.120
  239SOL     OW  726   1.400   0.107   2.288
  239SOL    HW1  727   1.376   0.070   2.198
  239SOL    HW2  728   1.499   0.123   2.292
  240SOL     OW  729   0.940   1.698   2.766
  240SOL    HW1  730   1.020   1.641   2.787
  240SOL    HW2  731   0.891   1.658   2.689
  241SOL     OW  732   0.382   0.700   2.342
  241SOL    HW1  733   0.427   0.610   2.339
  241SOL    HW2  734   0.288   0.689   2.375
  242SOL     OW  735   0.614   0.122   1.979
  242SOL    HW1  736   0.712   0.100   1.986
  242SOL    HW2  737   0.583   0.105   1.886
  243SOL     OW  738   0.539   0.064   2.374
  243SOL    HW1  739   0.458   0.065   2.432
  243SOL    HW2  740   0.542   0.147   2.319
  244SOL     OW  741   1.434   1.188   1.903
  244SOL    HW1  742   1.466   1.112   1.960
  244SOL    HW2  743   1.342   1.215   1.933
  245SOL     OW  744   0.297   0.035   2.033
  245SOL    HW1  745   0.346   0.119   2.012
  245SOL    HW2  746   0.359  -0.030   2.078
  246SOL     OW  747   0.935   0.236   2.342
  246SOL    HW1  748   0.887   0.277   2.264
  246SOL    HW2  749   1.034   0.234   2.323
  247SOL     OW  750   0.459   1.152   2.603
  247SOL    HW1  751   0.388   1.125   2.668
  247SOL    HW2  752   0.433   1.124   2.510
  248SOL     OW  753   1.271   1.797   2.453
  248SOL    HW1  754   1.315   1.861   2.389
  248SOL    HW2  755   1.221   1.849   2.523
  249SOL     OW  756   1.032   0.549   1.878
  249SOL    HW1  757   0.991   0.631   1.839
  249SOL    HW2  758   1.096   0.575   1.951
  250SOL     OW  759   0.866   0.454   2.504
  250SOL    HW1  760   0.834   0.526   2.442
  250SOL    HW2  761   0.890   0.373   2.451
  251SOL     OW  762   1.857   0.833   2.239
  251SOL    HW1  763   1.899   0.769   2.303
  251SOL    HW2  764   1.819   0.782   2.161
  252SOL     OW  765   0.488   1.385   2.036
  252SOL    HW1  766   0.401   1.370   2.083
  252SOL    HW2  767   0.471   1.411   1.941
  253SOL     OW  768   1.664   1.280   2.519
  253SOL    HW1  769   1.763   1.288   2.533
  253SOL    HW2  770   1.619   1.364   2.550
  254SOL     OW  771   1.390   0.575   1.940
  254SOL    HW1  772   1.336   0.554   2.021
  254SOL    HW2  773   1.481   0.534   1.949
  255SOL     OW  774   0.527   0.256   2.190
  255SOL    HW1  775   0.554   0.197   2.115
  255SOL    HW2  776   0.527   0.351   2.159
  256SOL     OW  777   0.705   1.050   2.230
  256SOL    HW1  778   0.691   1.057   2.329
  256SOL    HW2  779   0.789   0.999   2.212
  257SOL     OW  780   0.367   1.100   2.363
  257SOL    HW1  781   0.360   1.183   2.307
  257SOL    HW2  782   0.371   1.020   2.303
  258SOL     OW  783   1.252   1.348   2.250
  258SOL    HW1  784   1.302   1.425   2.290
  258SOL    HW2  785   1.157   1.350   2.282
  259SOL     OW  786   1.582   0.639   2.334
  259SOL    HW1  787   1.551   0.700   2.407
  259SOL    HW2  788   1.632   0.691   2.265
  260SOL     OW  789   1.209   0.525   2.137
  260SOL    HW1  790   1.222   0.441   2.191
  260SOL    HW2  791   1.180   0.599   2.197
  261SOL     OW  792   0.307   0.063   2.480
  261SOL    HW1  793   0.296   0.157   2.513
  261SOL    HW2  794   0.302   0.000   2.557
  262SOL     OW  795   1.622   0.367   2.236
  262SOL    HW1  796   1.624   0.291   2.300
  262SOL    HW2  797   1.574   0.444   2.276
  263SOL     OW  798   1.540   0.274   1.987
  263SOL    HW1  799   1.479   0.199   2.010
  263SOL    HW2  800   1.562   0.326   2.070
  264SOL     OW  801   1.303   0.838   1.904
  264SOL    HW1  802   1.337   0.745   1.919
  264SOL    HW2  803   1.321   0.865   1.809
  265SOL     OW  804   0.008   1.326   2.062
  265SOL    HW1  805  -0.085   1.347   2.031
  265SOL    HW2  806   0.018   1.227   2.075
  266SOL     OW  807   0.040   0.544   2.976
  266SOL    HW1  808   0.125   0.511   2.935
  266SOL    HW2  809   0.053   0.559   3.074
  267SOL     OW  810   0.815   0.572   2.187
  267SOL    HW1  811   0.822   0.483   2.141
  267SOL    HW2  812   0.721   0.606   2.179
  268SOL     OW  813   0.473   0.500   2.053
  268SOL    HW1  814   0.534   0.580   2.057
  268SOL    HW2  815   0.378   0.531   2.060
  269SOL     OW  816   1.302   0.855   2.171
  269SOL    HW1  817   1.216   0.824   2.213
  269SOL    HW2  818   1.298   0.841   2.072
  270SOL     OW  819   1.726   0.135   2.385
  270SOL    HW1  820   1.799   0.118   2.318
  270SOL    HW2  821   1.695   0.048   2.423
  271SOL     OW  822   1.388   1.573   2.339
  271SOL    HW1  823   1.455   1.585   2.265
  271SOL    HW2  824   1.348   1.662   2.362
  272SOL     OW  825   0.672   1.616   2.016
  272SOL    HW1  826   0.681   1.626   1.917
  272SOL    HW2  827   0.632   1.527   2.037
  273SOL     OW  828   1.841   0.175   2.825
  273SOL    HW1  829   1.880   0.090   2.789
  273SOL    HW2  830   1.743   0.177   2.806
  274SOL     OW  831   0.263   0.326   2.582
  274SOL    HW1  832   0.184   0.377   2.548
  274SOL    HW2  833   0.254   0.311   2.680
  275SOL     OW  834   1.194   1.612   1.893
  275SOL    HW1  835   1.200   1.519   1.930
  275SOL    HW2  836   1.135   1.612   1.813
  276SOL     OW  837   0.916   0.910   2.153
  276SOL    HW1  838   0.979   0.948   2.085
  276SOL    HW2  839   0.956   0.827   2.192
  277SOL     OW  840   1.504   1.607   1.906
  277SOL    HW1  841   1.412   1.644   1.913
  277SOL    HW2  842   1.542   1.627   1.816
  278SOL     OW  843   0.590   1.487   2.353
  278SOL    HW1  844   0.632   1.429   2.283
  278SOL    HW2  845   0.546   1.566   2.309
  279SOL     OW  846   0.255   1.348   2.152
  279SOL    HW1  847   0.159   1.349   2.125
  279SOL    HW2  848   0.267   1.401   2.236
  280SOL     OW  849   0.075   0.345   1.895
  280SOL    HW1  850  -0.017   0.317   1.866
  280SOL    HW2  851   0.106   0.422   1.839
  281SOL     OW  852   0.072   0.166   2.180
  281SOL    HW1  853   0.055   0.249   2.126
  281SOL    HW2  854   0.162   0.129   2.158
  282SOL     OW  855   1.183   1.335   1.981
  282SOL    HW1  856   1.084   1.324   1.983
  282SOL    HW2  857   1.217   1.350   2.074
  283SOL     OW  858   1.225   0.325   2.311
  283SOL    HW1  859   1.290   0.251   2.300
  283SOL    HW2  860   1.245   0.375   2.395
  284SOL     OW  861   0.594   0.745   2.514
  284SOL    HW1  862   0.644   0.830   2.495
  284SOL    HW2  863   0.506   0.747   2.466
  285SOL     OW  864   0.859   1.374   1.878
  285SOL    HW1  865   0.813   1.389   1.966
  285SOL    HW2  866   0.903   1.459   1.848
  286SOL     OW  867   0.661   1.790   2.815
  286SOL    HW1  868   0.615   1.878   2.802
  286SOL    HW2  869   0.760   1.802   2.808
  287SOL     OW  870   0.859   0.956   2.723
  287SOL    HW1  871   0.913   0.887   2.771
  287SOL    HW2  872   0.827   1.025   2.789
  288SOL     OW  873   1.083   0.984   1.949
  288SOL    HW1  874   1.060   1.037   1.867
  288SOL    HW2  875   1.164   0.928   1.930
  289SOL     OW  876   0.079   1.240   2.515
  289SOL    HW1  877   0.078   1.193   2.603
  289SOL    HW2  878   0.161   1.212   2.464
  290SOL     OW  879   0.428   0.424   2.382
  290SOL    HW1  880   0.458   0.352   2.320
  290SOL    HW2  881   0.389   0.384   2.465
  291SOL     OW  882   0.812   1.586   2.549
  291SOL    HW1  883   0.844   1.596   2.455
  291SOL    HW2  884   0.733   1.524   2.551
  292SOL     OW  885   0.770   1.330   2.163
  292SOL    HW1  886   0.724   1.243   2.180
  292SOL    HW2  887   0.861   1.327   2.204
  293SOL     OW  888   1.352   0.052   2.030
  293SOL    HW1  889   1.387   0.011   1.946
  293SOL    HW2  890   1.262   0.014   2.050
  294SOL     OW  891   1.300   0.453   2.553
  294SOL    HW1  892   1.241   0.533   2.557
  294SOL    HW2  893   1.315   0.418   2.646
  295SOL     OW  894   0.039   1.077   2.162
  295SOL    HW1  895   0.138   1.066   2.153
  295SOL    HW2  896  -0.001   0.991   2.194
  296SOL     OW  897   0.875   1.646   2.199
  296SOL    HW1  898   0.798   1.611   2.145
  296SOL    HW2  899   0.843   1.717   2.261
  297SOL     OW  900   0.230   2.490   0.113
  297SOL    HW1  901   0.137   2.488   0.150
  297SOL    HW2  902   0.231   2.451   0.021
  298SOL     OW  903   0.225   2.137   0.996
  298SOL    HW1  904   0.260   2.120   1.088
  298SOL    HW2  905   0.137   2.092   0.984
  299SOL     OW  906   0.019   2.230   0.647
  299SOL    HW1  907  -0.063   2.273   0.686
  299SOL    HW2  908  -0.009   2.157   0.584
  300SOL     OW  909   1.755   2.469   0.231
  300SOL    HW1  910   1.743   2.456   0.132
  300SOL    HW2  911   1.725   2.388   0.280
  301SOL     OW  912   0.850   2.660   1.823
  301SOL    HW1  913   0.846   2.736   1.888
  301SOL    HW2  914   0.872   2.696   1.732
  302SOL     OW  915   0.685   2.874   0.665
  302SOL    HW1  916   0.754   2.858   0.735
  302SOL    HW2  917   0.612   2.931   0.703
  303SOL     OW  918   0.438   2.254   1.499
  303SOL    HW1  919   0.520   2.198   1.508
  303SOL    HW2  920   0.357   2.196   1.503
  304SOL     OW  921   1.603   2.309   0.737
  304SOL    HW1  922   1.529   2.355   0.687
  304SOL    HW2  923   1.654   2.377   0.790
  305SOL     OW  924   1.594   1.976   1.480
  305SOL    HW1  925   1.576   2.043   1.408
  305SOL    HW2  926   1.591   2.022   1.569
  306SOL     OW  927   0.122   2.505   0.563
  306SOL    HW1  928   0.077   2.417   0.580
  306SOL    HW2  929   0.121   2.559   0.647
  307SOL     OW  930   0.113   2.599   1.597
  307SOL    HW1  931   0.201   2.586   1.642
  307SOL    HW2  932   0.100   2.696   1.575
  308SOL     OW  933   0.809   1.866   0.502
  308SOL    HW1  934   0.849   1.957   0.493
  308SOL    HW2  935   0.709   1.874   0.508
  309SOL     OW  936   0.317   2.113   1.801
  309SOL    HW1  937   0.388   2.184   1.807
  309SOL    HW2  938   0.229   2.152   1.829
  310SOL     OW  939   0.598   2.591   0.270
  310SOL    HW1  940   0.622   2.660   0.202
  310SOL    HW2  941   0.520   2.624   0.324
  311SOL     OW  942   1.281   2.207   0.944
  311SOL    HW1  943   1.195   2.157   0.931
  311SOL    HW2  944   1.343   2.153   1.000
  312SOL     OW  945   0.807   2.467   1.465
  312SOL    HW1  946   0.760   2.464   1.554
  312SOL    HW2  947   0.756   2.412   1.399
  313SOL     OW  948   1.394   2.331   1.674
  313SOL    HW1  949   1.374   2.374   1.762
  313SOL    HW2  950   1.472   2.269   1.683
  314SOL     OW  951   0.991   2.272   1.242
  314SOL    HW1  952   0.914   2.306   1.296
  314SOL    HW2  953   0.957   2.221   1.163
  315SOL     OW  954   1.041   2.563   0.429
  315SOL    HW1  955   1.067   2.559   0.525
  315SOL    HW2  956   0.956   2.512   0.415
  316SOL     OW  957   0.076   2.673   0.789
  316SOL    HW1  958   0.175   2.661   0.798
  316SOL    HW2  959   0.052   2.768   0.810
  317SOL     OW  960   0.865   2.210   0.195
  317SOL    HW1  961   0.924   2.273   0.146
  317SOL    HW2  962   0.884   2.116   0.166
  318SOL     OW  963   1.719   2.447   1.831
  318SOL    HW1  964   1.693   2.536   1.795
  318SOL    HW2  965   1.717   2.379   1.758
  319SOL     OW  966   0.550   2.058   0.885
  319SOL    HW1  967   0.545   2.053   0.985
  319SOL    HW2  968   0.552   2.154   0.856
  320SOL     OW  969   1.458   2.597   0.728
  320SOL    HW1  970   1.453   2.532   0.803
  320SOL    HW2  971   1.538   2.656   0.741
  321SOL     OW  972   0.202   2.147   1.498
  321SOL    HW1  973   0.122   2.207   1.485
  321SOL    HW2  974   0.192   2.098   1.584
  322SOL     OW  975   1.400   1.969   0.426
  322SOL    HW1  976   1.376   1.932   0.336
  322SOL    HW2  977   1.499   1.985   0.430
  323SOL     OW  978   0.382   2.562   0.480
  323SOL    HW1  979   0.427   2.472   0.477
  323SOL    HW2  980   0.288   2.551   0.513
  324SOL     OW  981   1.547   2.084   1.729
  324SOL    HW1  982   1.542   2.121   1.821
  324SOL    HW2  983   1.475   2.015   1.717
  325SOL     OW  984   0.781   2.126   1.749
  325SOL    HW1  985   0.848   2.065   1.792
  325SOL    HW2  986   0.708   2.145   1.814
  326SOL     OW  987   1.351   2.452   1.433
  326SOL    HW1  988   1.379   2.409   1.518
  326SOL    HW2  989   1.376   2.548   1.434
  327SOL     OW  990   0.922   2.365   0.899
  327SOL    HW1  991   0.897   2.356   0.803
  327SOL    HW2  992   0.970   2.283   0.930
  328SOL     OW  993   0.539   1.926   0.512
  328SOL    HW1  994   0.458   1.927   0.570
  328SOL    HW2  995   0.542   2.009   0.457
  329SOL     OW  996   0.935   2.098   0.480
  329SOL    HW1  997   0.887   2.139   0.402
  329SOL    HW2  998   1.034   2.096   0.461
  330SOL     OW  999   1.076   2.545   1.464
  330SOL    HW1 1000   0.996   2.484   1.467
  330SOL    HW2 1001   1.157   2.492   1.440
  331SOL     OW 1002   1.032   2.411   0.016
  331SOL    HW1 1003   0.991   2.493  -0.023
  331SOL    HW2 1004   1.096   2.437   0.089
  332SOL     OW 1005   0.078   2.418   1.386
  332SOL    HW1 1006   0.170   2.417   1.345
  332SOL    HW2 1007   0.072   2.492   1.453
  333SOL     OW 1008   0.561   2.084   1.147
  333SOL    HW1 1009   0.599   2.000   1.184
  333SOL    HW2 1010   0.473   2.103   1.191
  334SOL     OW 1011   0.866   2.316   0.642
  334SOL    HW1 1012   0.834   2.388   0.580
  334SOL    HW2 1013   0.890   2.235   0.589
  335SOL     OW 1014   1.017   1.901   0.753
  335SOL    HW1 1015   0.945   1.906   0.684
  335SOL    HW2 1016   0.993   1.832   0.822
  336SOL     OW 1017   1.466   2.452   0.992
  336SOL    HW1 1018   1.436   2.357   0.999
  336SOL    HW2 1019   1.539   2.468   1.058
  337SOL     OW 1020   1.390   2.437   0.078
  337SOL    HW1 1021   1.336   2.416   0.159
  337SOL    HW2 1022   1.481   2.396   0.087
  338SOL     OW 1023   0.527   2.118   0.328
  338SOL    HW1 1024   0.554   2.059   0.253
  338SOL    HW2 1025   0.527   2.213   0.297
  339SOL     OW 1026   0.915   1.951   1.402
  339SOL    HW1 1027   0.940   1.931   1.307
  339SOL    HW2 1028   0.987   2.007   1.444
  340SOL     OW 1029   0.705   2.912   0.368
  340SOL    HW1 1030   0.691   2.919   0.467
  340SOL    HW2 1031   0.789   2.861   0.350
  341SOL     OW 1032   0.410   2.675   1.251
  341SOL    HW1 1033   0.496   2.687   1.301
  341SOL    HW2 1034   0.368   2.588   1.278
  342SOL     OW 1035   1.274   2.248   1.262
  342SOL    HW1 1036   1.295   2.322   1.326
  342SOL    HW2 1037   1.185   2.265   1.219
  343SOL     OW 1038   0.566   2.399   0.865
  343SOL    HW1 1039   0.578   2.465   0.791
  343SOL    HW2 1040   0.612   2.433   0.948
  344SOL     OW 1041   1.582   2.501   0.472
  344SOL    HW1 1042   1.551   2.562   0.545
  344SOL    HW2 1043   1.632   2.553   0.403
  345SOL     OW 1044   1.587   2.641   1.670
  345SOL    HW1 1045   1.495   2.679   1.665
  345SOL    HW2 1046   1.647   2.688   1.605
  346SOL     OW 1047   1.013   1.967   1.770
  346SOL    HW1 1048   1.019   2.052   1.718
  346SOL    HW2 1049   1.045   1.891   1.713
  347SOL     OW 1050   0.504   1.912   1.740
  347SOL    HW1 1051   0.462   1.855   1.670
  347SOL    HW2 1052   0.438   1.981   1.772
  348SOL     OW 1053   1.360   2.724   1.045
  348SOL    HW1 1054   1.285   2.724   0.979
  348SOL    HW2 1055   1.397   2.632   1.054
  349SOL     OW 1056   1.209   2.387   0.275
  349SOL    HW1 1057   1.222   2.303   0.329
  349SOL    HW2 1058   1.180   2.461   0.335
  350SOL     OW 1059   0.307   2.075   1.231
  350SOL    HW1 1060   0.284   2.112   1.321
  350SOL    HW2 1061   0.277   1.980   1.225
  351SOL     OW 1062   0.732   2.496   1.064
  351SOL    HW1 1063   0.791   2.470   0.988
  351SOL    HW2 1064   0.704   2.592   1.053
  352SOL     OW 1065   1.728   2.797   1.854
  352SOL    HW1 1066   1.682   2.790   1.765
  352SOL    HW2 1067   1.666   2.841   1.920
  353SOL     OW 1068   0.307   1.925   0.618
  353SOL    HW1 1069   0.296   2.019   0.651
  353SOL    HW2 1070   0.302   1.862   0.695
  354SOL     OW 1071   1.622   2.229   0.374
  354SOL    HW1 1072   1.624   2.153   0.438
  354SOL    HW2 1073   1.574   2.306   0.414
  355SOL     OW 1074   1.540   2.136   0.125
  355SOL    HW1 1075   1.479   2.061   0.148
  355SOL    HW2 1076   1.562   2.188   0.208
  356SOL     OW 1077   0.319   2.672   0.949
  356SOL    HW1 1078   0.412   2.708   0.954
  356SOL    HW2 1079   0.313   2.587   1.001
  357SOL     OW 1080   0.339   2.371   1.006
  357SOL    HW1 1081   0.287   2.288   0.989
  357SOL    HW2 1082   0.416   2.376   0.942
  358SOL     OW 1083   1.138   2.242   1.678
  358SOL    HW1 1084   1.093   2.305   1.742
  358SOL    HW2 1085   1.231   2.273   1.661
  359SOL     OW 1086   1.160   2.069   1.477
  359SOL    HW1 1087   1.160   2.133   1.554
  359SOL    HW2 1088   1.188   2.117   1.394
  360SOL     OW 1089   0.040   2.406   1.114
  360SOL    HW1 1090   0.125   2.373   1.073
  360SOL    HW2 1091   0.053   2.421   1.212
  361SOL     OW 1092   0.189   2.382   1.722
  361SOL    HW1 1093   0.248   2.342   1.652
  361SOL    HW2 1094   0.131   2.453   1.681
  362SOL     OW 1095   0.815   2.434   0.325
  362SOL    HW1 1096   0.822   2.345   0.279
  362SOL    HW2 1097   0.721   2.468   0.317
  363SOL     OW 1098   1.657   2.466   1.206
  363SOL    HW1 1099   1.619   2.397   1.268
  363SOL    HW2 1100   1.739   2.430   1.162
  364SOL     OW 1101   0.671   2.326   1.269
  364SOL    HW1 1102   0.637   2.237   1.239
  364SOL    HW2 1103   0.697   2.380   1.189
  365SOL     OW 1104   0.473   2.362   0.191
  365SOL    HW1 1105   0.534   2.442   0.195
  365SOL    HW2 1106   0.378   2.393   0.198
  366SOL     OW 1107   0.903   1.948   0.133
  366SOL    HW1 1108   0.954   1.949   0.047
  366SOL    HW2 1109   0.959   1.906   0.204
  367SOL     OW 1110   1.726   1.997   0.523
  367SOL    HW1 1111   1.799   1.980   0.456
  367SOL    HW2 1112   1.695   1.910   0.561
  368SOL     OW 1113   1.280   2.789   0.672
  368SOL    HW1 1114   1.340   2.708   0.674
  368SOL    HW2 1115   1.320   2.858   0.612
  369SOL     OW 1116   1.841   2.037   0.963
  369SOL    HW1 1117   1.880   1.952   0.927
  369SOL    HW2 1118   1.743   2.039   0.944
  370SOL     OW 1119   0.263   2.188   0.720
  370SOL    HW1 1120   0.184   2.239   0.686
  370SOL    HW2 1121   0.254   2.173   0.818
  371SOL     OW 1122   1.039   2.960   0.696
  371SOL    HW1 1123   0.969   2.913   0.750
  371SOL    HW2 1124   1.098   2.892   0.653
  372SOL     OW 1125   1.014   2.098   0.971
  372SOL    HW1 1126   1.006   2.062   0.878
  372SOL    HW2 1127   1.012   2.022   1.036
  373SOL     OW 1128   1.709   2.247   1.381
  373SOL    HW1 1129   1.782   2.316   1.385
  373SOL    HW2 1130   1.737   2.172   1.322
  374SOL     OW 1131   0.672   2.065   1.489
  374SOL    HW1 1132   0.762   2.049   1.449
  374SOL    HW2 1133   0.680   2.070   1.588
  375SOL     OW 1134   0.075   2.207   0.033
  375SOL    HW1 1135  -0.017   2.179   0.004
  375SOL    HW2 1136   0.106   2.284  -0.023
  376SOL     OW 1137   0.072   2.028   0.318
  376SOL    HW1 1138   0.055   2.111   0.264
  376SOL    HW2 1139   0.162   1.991   0.296
  377SOL     OW 1140   0.716   2.427   1.708
  377SOL    HW1 1141   0.735   2.492   1.782
  377SOL    HW2 1142   0.776   2.347   1.717
  378SOL     OW 1143   1.225   2.187   0.449
  378SOL    HW1 1144   1.290   2.113   0.438
  378SOL    HW2 1145   1.245   2.237   0.533
  379SOL     OW 1146   0.594   2.607   0.652
  379SOL    HW1 1147   0.644   2.692   0.633
  379SOL    HW2 1148   0.506   2.609   0.604
  380SOL     OW 1149   1.777   2.204   1.642
  380SOL    HW1 1150   1.760   2.235   1.548
  380SOL    HW2 1151   1.693   2.167   1.680
  381SOL     OW 1152   0.859   2.818   0.861
  381SOL    HW1 1153   0.913   2.749   0.909
  381SOL    HW2 1154   0.827   2.887   0.927
  382SOL     OW 1155   1.083   2.846   0.087
  382SOL    HW1 1156   1.060   2.899   0.005
  382SOL    HW2 1157   1.164   2.790   0.068
  383SOL     OW 1158   1.824   2.054   1.227
  383SOL    HW1 1159   1.820   1.964   1.271
  383SOL    HW2 1160   1.827   2.043   1.128
  384SOL     OW 1161   0.428   2.286   0.520
  384SOL    HW1 1162   0.458   2.214   0.458
  384SOL    HW2 1163   0.389   2.246   0.603
  385SOL     OW 1164   0.317   2.409   1.280
  385SOL    HW1 1165   0.355   2.350   1.352
  385SOL    HW2 1166   0.357   2.383   1.192
  386SOL     OW 1167   1.424   2.076   1.112
  386SOL    HW1 1168   1.476   2.011   1.167
  386SOL    HW2 1169   1.375   2.139   1.173
  387SOL     OW 1170   1.001   1.896   1.154
  387SOL    HW1 1171   0.938   1.824   1.123
  387SOL    HW2 1172   1.094   1.860   1.154
  388SOL     OW 1173   1.352   1.914   0.168
  388SOL    HW1 1174   1.387   1.873   0.084
  388SOL    HW2 1175   1.262   1.876   0.188
  389SOL     OW 1176   1.300   2.315   0.691
  389SOL    HW1 1177   1.241   2.395   0.695
  389SOL    HW2 1178   1.315   2.280   0.784
  390SOL     OW 1179   1.593   2.083   0.882
  390SOL    HW1 1180   1.509   2.082   0.936
  390SOL    HW2 1181   1.595   2.166   0.826
  391SOL     OW 1182   0.230   2.490   1.975
  391SOL    HW1 1183   0.137   2.488   2.012
  391SOL    HW2 1184   0.231   2.451   1.883
  392SOL     OW 1185   0.019   2.230   2.509
  392SOL    HW1 1186  -0.063   2.273   2.548
  392SOL    HW2 1187  -0.009   2.157   2.446
  393SOL     OW 1188   1.755   2.469   2.093
  393SOL    HW1 1189   1.743   2.456   1.994
  393SOL    HW2 1190   1.725   2.388   2.142
  394SOL     OW 1191   0.685   2.874   2.527
  394SOL    HW1 1192   0.754   2.858   2.597
  394SOL    HW2 1193   0.612   2.931   2.565
  395SOL     OW 1194   1.603   2.309   2.599
  395SOL    HW1 1195   1.529   2.355   2.549
  395SOL    HW2 1196   1.654   2.377   2.652
  396SOL     OW 1197   0.122   2.505   2.425
  396SOL    HW1 1198   0.077   2.417   2.442
  396SOL    HW2 1199   0.121   2.559   2.509
  397SOL     OW 1200   0.809   1.866   2.364
  397SOL    HW1 1201   0.849   1.957   2.355
  397SOL    HW2 1202   0.709   1.874   2.370
  398SOL     OW 1203   0.598   2.591   2.132
  398SOL    HW1 1204   0.622   2.660   2.064
  398SOL    HW2 1205   0.520   2.624   2.186
  399SOL     OW 1206   1.281   2.207   2.806
  399SOL    HW1 1207   1.195   2.157   2.793
  399SOL    HW2 1208   1.343   2.153   2.862
  400SOL     OW 1209   1.041   2.563   2.291
  400SOL    HW1 1210   1.067   2.559   2.387
  400SOL    HW2 1211   0.956   2.512   2.277
  401SOL     OW 1212   0.076   2.673   2.651
  401SOL    HW1 1213   0.175   2.661   2.660
  401SOL    HW2 1214   0.052   2.768   2.672
  402SOL     OW 1215   0.865   2.210   2.057
  402SOL    HW1 1216   0.924   2.273   2.008
  402SOL    HW2 1217   0.884   2.116   2.028
  403SOL     OW 1218   1.400   1.969   2.288
  403SOL    HW1 1219   1.376   1.932   2.198
  403SOL    HW2 1220   1.499   1.985   2.292
  404SOL     OW 1221   0.382   2.562   2.342
  404SOL    HW1 1222   0.427   2.472   2.339
  404SOL    HW2 1223   0.288   2.551   2.375
  405SOL     OW 1224   0.614   1.984   1.979
  405SOL    HW1 1225   0.712   1.962   1.986
  405SOL    HW2 1226   0.583   1.967   1.886
  406SOL     OW 1227   0.539   1.926   2.374
  406SOL    HW1 1228   0.458   1.927   2.432
  406SOL    HW2 1229   0.542   2.009   2.319
  407SOL     OW 1230   0.297   1.897   2.033
  407SOL    HW1 1231   0.346   1.981   2.012
  407SOL    HW2 1232   0.359   1.832   2.078
  408SOL     OW 1233   0.935   2.098   2.342
  408SOL    HW1 1234   0.887   2.139   2.264
  408SOL    HW2 1235   1.034   2.096   2.323
  409SOL     OW 1236   1.032   2.411   1.878
  409SOL    HW1 1237   0.991   2.493   1.839
  409SOL    HW2 1238   1.096   2.437   1.951
  410SOL     OW 1239   0.866   2.316   2.504
  410SOL    HW1 1240   0.834   2.388   2.442
  410SOL    HW2 1241   0.890   2.235   2.451
  411SOL     OW 1242   1.390   2.437   1.940
  411SOL    HW1 1243   1.336   2.416   2.021
  411SOL    HW2 1244   1.481   2.396   1.949
  412SOL     OW 1245   0.527   2.118   2.190
  412SOL    HW1 1246   0.554   2.059   2.115
  412SOL    HW2 1247   0.527   2.213   2.159
  413SOL     OW 1248   0.705   2.912   2.230
  413SOL    HW1 1249   0.691   2.919   2.329
  413SOL    HW2 1250   0.789   2.861   2.212
  414SOL     OW 1251   1.582   2.501   2.334
  414SOL    HW1 1252   1.551   2.562   2.407
  414SOL    HW2 1253   1.632   2.553   2.265
  415SOL     OW 1254   1.209   2.387   2.137
  415SOL    HW1 1255   1.222   2.303   2.191
  415SOL    HW2 1256   1.180   2.461   2.197
  416SOL     OW 1257   0.307   1.925   2.480
  416SOL    HW1 1258   0.296   2.019   2.513
  416SOL    HW2 1259   0.302   1.862   2.557
  417SOL     OW 1260   1.622   2.229   2.236
  417SOL    HW1 1261   1.624   2.153   2.300
  417SOL    HW2 1262   1.574   2.306   2.276
  418SOL     OW 1263   1.540   2.136   1.987
  418SOL    HW1 1264   1.479   2.061   2.010
  418SOL    HW2 1265   1.562   2.188   2.070
  419SOL     OW 1266   0.040   2.406   2.976
  419SOL    HW1 1267   0.125   2.373   2.935
  419SOL    HW2 1268   0.053   2.421   3.074
  420SOL     OW 1269   0.815   2.434   2.187
  420SOL    HW1 1270   0.822   2.345   2.141
  420SOL    HW2 1271   0.721   2.468   2.179
  421SOL     OW 1272   0.473   2.362   2.053
  421SOL    HW1 1273   0.534   2.442   2.057
  421SOL    HW2 1274   0.378   2.393   2.060
  422SOL     OW 1275   1.726   1.997   2.385
  422SOL    HW1 1276   1.799   1.980   2.318
  422SOL    HW2 1277   1.695   1.910   2.423
  423SOL     OW 1278   1.280   2.789   2.534
  423SOL    HW1 1279   1.340   2.708   2.536
  423SOL    HW2 1280   1.320   2.858   2.474
  424SOL     OW 1281   1.841   2.037   2.825
  424SOL    HW1 1282   1.880   1.952   2.789
  424SOL    HW2 1283   1.743   2.039   2.806
  425SOL     OW 1284   0.263   2.188   2.582
  425SOL    HW1 1285   0.184   2.239   2.548
  425SOL    HW2 1286   0.254   2.173   2.680
  426SOL     OW 1287   0.916   2.772   2.153
  426SOL    HW1 1288   0.979   2.810   2.085
  426SOL    HW2 1289   0.956   2.689   2.192
  427SOL     OW 1290   0.075   2.207   1.895
  427SOL    HW1 1291  -0.017   2.179   1.866
  427SOL    HW2 1292   0.106   2.284   1.839
  428SOL     OW 1293   0.072   2.028   2.180
  428SOL    HW1 1294   0.055   2.111   2.126
  428SOL    HW2 1295   0.162   1.991   2.158
  429SOL     OW 1296   1.225   2.187   2.311
  429SOL    HW1 1297   1.290   2.113   2.300
  429SOL    HW2 1298   1.245   2.237   2.395
  430SOL     OW 1299   0.594   2.607   2.514
  430SOL    HW1 1300   0.644   2.692   2.495
  430SOL    HW2 1301   0.506   2.609   2.466
  431SOL     OW 1302   1.083   2.846   1.949
  431SOL    HW1 1303   1.060   2.899   1.867
  431SOL    HW2 1304   1.164   2.790   1.930
  432SOL     OW 1305   0.428   2.286   2.382
  432SOL    HW1 1306   0.458   2.214   2.320
  432SOL    HW2 1307   0.389   2.246   2.465
  433SOL     OW 1308   1.352   1.914   2.030
  433SOL    HW1 1309   1.387   1.873   1.946
  433SOL    HW2 1310   1.262   1.876   2.050
  434SOL     OW 1311   1.300   2.315   2.553
  434SOL    HW1 1312   1.241   2.395   2.557
  434SOL    HW2 1313   1.315   2.280   2.646
  435SOL     OW 1314   2.092   0.628   0.113
  435SOL    HW1 1315   1.999   0.626   0.150
  435SOL    HW2 1316   2.093   0.589   0.021
  436SOL     OW 1317   2.087   0.275   0.996
  436SOL    HW1 1318   2.122   0.258   1.088
  436SOL    HW2 1319   1.999   0.230   0.984
  437SOL     OW 1320   1.881   0.368   0.647
  437SOL    HW1 1321   1.799   0.411   0.686
  437SOL    HW2 1322   1.853   0.295   0.584
  438SOL     OW 1323   2.431   1.275   1.165
  438SOL    HW1 1324   2.338   1.268   1.128
  438SOL    HW2 1325   2.442   1.364   1.209
  439SOL     OW 1326   2.712   0.798   1.823
  439SOL    HW1 1327   2.708   0.874   1.888
  439SOL    HW2 1328   2.734   0.834   1.732
  440SOL     OW 1329   2.547   1.012   0.665
  440SOL    HW1 1330   2.616   0.996   0.735
  440SOL    HW2 1331   2.474   1.069   0.703
  441SOL     OW 1332   2.548   1.161   1.803
  441SOL    HW1 1333   2.608   1.240   1.817
  441SOL    HW2 1334   2.462   1.192   1.762
  442SOL     OW 1335   2.197   1.435   1.061
  442SOL    HW1 1336   2.119   1.404   1.008
  442SOL    HW2 1337   2.255   1.493   1.004
  443SOL     OW 1338   2.300   0.392   1.499
  443SOL    HW1 1339   2.382   0.336   1.508
  443SOL    HW2 1340   2.219   0.334   1.503
  444SOL     OW 1341   2.093   1.713   0.483
  444SOL    HW1 1342   2.127   1.790   0.537
  444SOL    HW2 1343   2.137   1.713   0.393
  445SOL     OW 1344   2.092   1.434   0.538
  445SOL    HW1 1345   2.066   1.530   0.538
  445SOL    HW2 1346   2.021   1.380   0.583
  446SOL     OW 1347   2.102   1.091   0.886
  446SOL    HW1 1348   2.116   1.007   0.938
  446SOL    HW2 1349   2.047   1.155   0.941
  447SOL     OW 1350   2.482   1.786   1.439
  447SOL    HW1 1351   2.390   1.769   1.474
  447SOL    HW2 1352   2.510   1.878   1.465
  448SOL     OW 1353   2.468   0.964   0.123
  448SOL    HW1 1354   2.475   1.048   0.069
  448SOL    HW2 1355   2.514   0.977   0.211
  449SOL     OW 1356   1.984   0.643   0.563
  449SOL    HW1 1357   1.939   0.555   0.580
  449SOL    HW2 1358   1.983   0.697   0.647
  450SOL     OW 1359   1.889   1.596   0.117
  450SOL    HW1 1360   1.870   1.500   0.138
  450SOL    HW2 1361   1.856   1.654   0.192
  451SOL     OW 1362   1.975   0.737   1.597
  451SOL    HW1 1363   2.063   0.724   1.642
  451SOL    HW2 1364   1.962   0.834   1.575
  452SOL     OW 1365   2.475   1.365   0.726
  452SOL    HW1 1366   2.426   1.278   0.735
  452SOL    HW2 1367   2.452   1.408   0.639
  453SOL     OW 1368   2.671   0.004   0.502
  453SOL    HW1 1369   2.711   0.095   0.493
  453SOL    HW2 1370   2.571   0.012   0.508
  454SOL     OW 1371   2.059   0.976   1.264
  454SOL    HW1 1372   2.148   0.931   1.250
  454SOL    HW2 1373   1.986   0.911   1.245
  455SOL     OW 1374   2.179   0.251   1.801
  455SOL    HW1 1375   2.250   0.322   1.807
  455SOL    HW2 1376   2.091   0.290   1.829
  456SOL     OW 1377   2.460   0.729   0.270
  456SOL    HW1 1378   2.484   0.798   0.202
  456SOL    HW2 1379   2.382   0.762   0.324
  457SOL     OW 1380   1.938   0.811   0.789
  457SOL    HW1 1381   2.037   0.799   0.798
  457SOL    HW2 1382   1.914   0.906   0.810
  458SOL     OW 1383   1.992   1.821   1.571
  458SOL    HW1 1384   1.982   1.806   1.670
  458SOL    HW2 1385   1.906   1.857   1.535
  459SOL     OW 1386   2.412   0.196   0.885
  459SOL    HW1 1387   2.407   0.191   0.985
  459SOL    HW2 1388   2.414   0.292   0.856
  460SOL     OW 1389   2.213   1.801   0.853
  460SOL    HW1 1390   2.263   1.715   0.859
  460SOL    HW2 1391   2.278   1.878   0.850
  461SOL     OW 1392   2.183   0.943   0.242
  461SOL    HW1 1393   2.265   0.982   0.200
  461SOL    HW2 1394   2.156   0.861   0.193
  462SOL     OW 1395   2.323   1.266   1.727
  462SOL    HW1 1396   2.273   1.267   1.641
  462SOL    HW2 1397   2.260   1.248   1.803
  463SOL     OW 1398   2.064   0.285   1.498
  463SOL    HW1 1399   1.984   0.345   1.485
  463SOL    HW2 1400   2.054   0.236   1.584
  464SOL     OW 1401   2.326   1.743   0.323
  464SOL    HW1 1402   2.359   1.782   0.409
  464SOL    HW2 1403   2.402   1.736   0.258
  465SOL     OW 1404   2.111   1.785   1.241
  465SOL    HW1 1405   2.168   1.720   1.291
  465SOL    HW2 1406   2.095   1.752   1.148
  466SOL     OW 1407   2.244   0.700   0.480
  466SOL    HW1 1408   2.289   0.610   0.477
  466SOL    HW2 1409   2.150   0.689   0.513
  467SOL     OW 1410   2.476   0.122   0.117
  467SOL    HW1 1411   2.574   0.100   0.124
  467SOL    HW2 1412   2.445   0.105   0.024
  468SOL     OW 1413   2.665   1.402   0.924
  468SOL    HW1 1414   2.755   1.416   0.882
  468SOL    HW2 1415   2.594   1.404   0.853
  469SOL     OW 1416   2.784   0.503   0.899
  469SOL    HW1 1417   2.759   0.494   0.803
  469SOL    HW2 1418   2.832   0.421   0.930
  470SOL     OW 1419   2.401   0.064   0.512
  470SOL    HW1 1420   2.320   0.065   0.570
  470SOL    HW2 1421   2.404   0.147   0.457
  471SOL     OW 1422   2.159   0.035   0.171
  471SOL    HW1 1423   2.208   0.119   0.150
  471SOL    HW2 1424   2.221  -0.030   0.216
  472SOL     OW 1425   2.321   1.152   0.741
  472SOL    HW1 1426   2.250   1.125   0.806
  472SOL    HW2 1427   2.295   1.124   0.648
  473SOL     OW 1428   1.940   0.556   1.386
  473SOL    HW1 1429   2.032   0.555   1.345
  473SOL    HW2 1430   1.934   0.630   1.453
  474SOL     OW 1431   2.423   0.222   1.147
  474SOL    HW1 1432   2.461   0.138   1.184
  474SOL    HW2 1433   2.335   0.241   1.191
  475SOL     OW 1434   2.350   1.385   0.174
  475SOL    HW1 1435   2.263   1.370   0.221
  475SOL    HW2 1436   2.333   1.411   0.079
  476SOL     OW 1437   2.389   0.256   0.328
  476SOL    HW1 1438   2.416   0.197   0.253
  476SOL    HW2 1439   2.389   0.351   0.297
  477SOL     OW 1440   2.272   0.813   1.251
  477SOL    HW1 1441   2.358   0.825   1.301
  477SOL    HW2 1442   2.230   0.726   1.278
  478SOL     OW 1443   1.926   1.564   1.331
  478SOL    HW1 1444   1.880   1.646   1.297
  478SOL    HW2 1445   2.024   1.583   1.340
  479SOL     OW 1446   2.229   1.100   0.501
  479SOL    HW1 1447   2.222   1.183   0.445
  479SOL    HW2 1448   2.233   1.020   0.441
  480SOL     OW 1449   2.428   0.537   0.865
  480SOL    HW1 1450   2.440   0.603   0.791
  480SOL    HW2 1451   2.474   0.571   0.948
  481SOL     OW 1452   2.216   1.510   1.329
  481SOL    HW1 1453   2.195   1.466   1.242
  481SOL    HW2 1454   2.313   1.536   1.332
  482SOL     OW 1455   2.264   0.751   1.598
  482SOL    HW1 1456   2.332   0.806   1.551
  482SOL    HW2 1457   2.304   0.663   1.625
  483SOL     OW 1458   2.366   0.050   1.740
  483SOL    HW1 1459   2.324  -0.007   1.670
  483SOL    HW2 1460   2.300   0.119   1.772
  484SOL     OW 1461   2.435   0.870   1.029
  484SOL    HW1 1462   2.479   0.959   1.020
  484SOL    HW2 1463   2.372   0.870   1.106
  485SOL     OW 1464   2.169   0.213   1.231
  485SOL    HW1 1465   2.146   0.250   1.321
  485SOL    HW2 1466   2.139   0.118   1.225
  486SOL     OW 1467   1.899   1.310   1.282
  486SOL    HW1 1468   1.952   1.261   1.350
  486SOL    HW2 1469   1.921   1.408   1.287
  487SOL     OW 1470   2.169   0.063   0.618
  487SOL    HW1 1471   2.158   0.157   0.651
  487SOL    HW2 1472   2.164   0.000   0.695
  488SOL     OW 1473   2.212   0.898   1.804
  488SOL    HW1 1474   2.288   0.942   1.852
  488SOL    HW2 1475   2.247   0.851   1.722
  489SOL     OW 1476   2.930   1.333   0.849
  489SOL    HW1 1477   2.937   1.249   0.794
  489SOL    HW2 1478   2.992   1.402   0.813
  490SOL     OW 1479   2.181   0.810   0.949
  490SOL    HW1 1480   2.274   0.846   0.954
  490SOL    HW2 1481   2.175   0.725   1.001
  491SOL     OW 1482   2.201   0.509   1.006
  491SOL    HW1 1483   2.149   0.426   0.989
  491SOL    HW2 1484   2.278   0.514   0.942
  492SOL     OW 1485   1.870   1.326   0.200
  492SOL    HW1 1486   1.777   1.347   0.169
  492SOL    HW2 1487   1.880   1.227   0.213
  493SOL     OW 1488   1.950   1.801   0.927
  493SOL    HW1 1489   1.908   1.715   0.900
  493SOL    HW2 1490   2.044   1.804   0.893
  494SOL     OW 1491   2.366   1.568   0.910
  494SOL    HW1 1492   2.432   1.642   0.919
  494SOL    HW2 1493   2.410   1.489   0.868
  495SOL     OW 1494   1.902   0.544   1.114
  495SOL    HW1 1495   1.987   0.511   1.073
  495SOL    HW2 1496   1.915   0.559   1.212
  496SOL     OW 1497   2.051   0.520   1.722
  496SOL    HW1 1498   2.110   0.480   1.652
  496SOL    HW2 1499   1.993   0.591   1.681
  497SOL     OW 1500   2.114   1.564   1.744
  497SOL    HW1 1501   2.084   1.621   1.820
  497SOL    HW2 1502   2.107   1.467   1.770
  498SOL     OW 1503   2.533   0.464   1.269
  498SOL    HW1 1504   2.499   0.375   1.239
  498SOL    HW2 1505   2.559   0.518   1.189
  499SOL     OW 1506   2.335   0.500   0.191
  499SOL    HW1 1507   2.396   0.580   0.195
  499SOL    HW2 1508   2.240   0.531   0.198
  500SOL     OW 1509   2.021   1.137   1.466
  500SOL    HW1 1510   2.043   1.076   1.542
  500SOL    HW2 1511   2.031   1.088   1.380
  501SOL     OW 1512   1.945   1.258   1.022
  501SOL    HW1 1513   1.940   1.257   1.122
  501SOL    HW2 1514   1.862   1.217   0.984
  502SOL     OW 1515   2.550   1.662   1.716
  502SOL    HW1 1516   2.494   1.743   1.725
  502SOL    HW2 1517   2.602   1.666   1.630
  503SOL     OW 1518   1.992   1.794   1.851
  503SOL    HW1 1519   1.951   1.720   1.904
  503SOL    HW2 1520   2.056   1.845   1.909
  504SOL     OW 1521   2.125   0.326   0.720
  504SOL    HW1 1522   2.046   0.377   0.686
  504SOL    HW2 1523   2.116   0.311   0.818
  505SOL     OW 1524   2.234   1.288   1.490
  505SOL    HW1 1525   2.221   1.381   1.456
  505SOL    HW2 1526   2.150   1.236   1.477
  506SOL     OW 1527   2.901   1.098   0.696
  506SOL    HW1 1528   2.831   1.051   0.750
  506SOL    HW2 1529   2.960   1.030   0.653
  507SOL     OW 1530   2.452   1.487   0.491
  507SOL    HW1 1531   2.494   1.429   0.421
  507SOL    HW2 1532   2.408   1.566   0.447
  508SOL     OW 1533   2.117   1.348   0.290
  508SOL    HW1 1534   2.021   1.349   0.263
  508SOL    HW2 1535   2.129   1.401   0.374
  509SOL     OW 1536   1.967   1.013   1.726
  509SOL    HW1 1537   1.890   0.980   1.780
  509SOL    HW2 1538   2.052   0.983   1.768
  510SOL     OW 1539   2.534   0.203   1.489
  510SOL    HW1 1540   2.624   0.187   1.449
  510SOL    HW2 1541   2.542   0.208   1.588
  511SOL     OW 1542   1.937   0.345   0.033
  511SOL    HW1 1543   1.845   0.317   0.004
  511SOL    HW2 1544   1.968   0.422  -0.023
  512SOL     OW 1545   1.934   0.166   0.318
  512SOL    HW1 1546   1.917   0.249   0.264
  512SOL    HW2 1547   2.024   0.129   0.296
  513SOL     OW 1548   2.475   0.842   1.431
  513SOL    HW1 1549   2.531   0.923   1.414
  513SOL    HW2 1550   2.534   0.762   1.434
  514SOL     OW 1551   2.578   0.565   1.708
  514SOL    HW1 1552   2.597   0.630   1.782
  514SOL    HW2 1553   2.638   0.485   1.717
  515SOL     OW 1554   2.252   1.741   1.560
  515SOL    HW1 1555   2.161   1.782   1.558
  515SOL    HW2 1556   2.245   1.647   1.592
  516SOL     OW 1557   2.456   0.745   0.652
  516SOL    HW1 1558   2.506   0.830   0.633
  516SOL    HW2 1559   2.368   0.747   0.604
  517SOL     OW 1560   2.083   1.314   1.844
  517SOL    HW1 1561   2.018   1.241   1.823
  517SOL    HW2 1562   2.087   1.328   1.942
  518SOL     OW 1563   1.941   1.240   0.653
  518SOL    HW1 1564   1.940   1.193   0.741
  518SOL    HW2 1565   2.023   1.212   0.602
  519SOL     OW 1566   2.534   1.391   1.624
  519SOL    HW1 1567   2.456   1.341   1.662
  519SOL    HW2 1568   2.531   1.486   1.655
  520SOL     OW 1569   2.290   0.424   0.520
  520SOL    HW1 1570   2.320   0.352   0.458
  520SOL    HW2 1571   2.251   0.384   0.603
  521SOL     OW 1572   2.179   0.547   1.280
  521SOL    HW1 1573   2.217   0.488   1.352
  521SOL    HW2 1574   2.219   0.521   1.192
  522SOL     OW 1575   2.674   1.586   0.687
  522SOL    HW1 1576   2.706   1.596   0.593
  522SOL    HW2 1577   2.595   1.524   0.689
  523SOL     OW 1578   2.480   1.567   1.284
  523SOL    HW1 1579   2.475   1.649   1.341
  523SOL    HW2 1580   2.569   1.564   1.239
  524SOL     OW 1581   1.901   1.077   0.300
  524SOL    HW1 1582   2.000   1.066   0.291
  524SOL    HW2 1583   1.861   0.991   0.332
  525SOL     OW 1584   2.092   0.628   1.975
  525SOL    HW1 1585   1.999   0.626   2.012
  525SOL    HW2 1586   2.093   0.589   1.883
  526SOL     OW 1587   1.881   0.368   2.509
  526SOL    HW1 1588   1.799   0.411   2.548
  526SOL    HW2 1589   1.853   0.295   2.446
  527SOL     OW 1590   2.547   1.012   2.527
  527SOL    HW1 1591   2.616   0.996   2.597
  527SOL    HW2 1592   2.474   1.069   2.565
  528SOL     OW 1593   2.093   1.713   2.345
  528SOL    HW1 1594   2.127   1.790   2.399
  528SOL    HW2 1595   2.137   1.713   2.255
  529SOL     OW 1596   2.092   1.434   2.400
  529SOL    HW1 1597   2.066   1.530   2.400
  529SOL    HW2 1598   2.021   1.380   2.445
  530SOL     OW 1599   2.468   0.964   1.985
  530SOL    HW1 1600   2.475   1.048   1.931
  530SOL    HW2 1601   2.514   0.977   2.073
  531SOL     OW 1602   1.984   0.643   2.425
  531SOL    HW1 1603   1.939   0.555   2.442
  531SOL    HW2 1604   1.983   0.697   2.509
  532SOL     OW 1605   1.889   1.596   1.979
  532SOL    HW1 1606   1.870   1.500   2.000
  532SOL    HW2 1607   1.856   1.654   2.054
  533SOL     OW 1608   2.475   1.365   2.588
  533SOL    HW1 1609   2.426   1.278   2.597
  533SOL    HW2 1610   2.452   1.408   2.501
  534SOL     OW 1611   2.671   0.004   2.364
  534SOL    HW1 1612   2.711   0.095   2.355
  534SOL    HW2 1613   2.571   0.012   2.370
  535SOL     OW 1614   2.460   0.729   2.132
  535SOL    HW1 1615   2.484   0.798   2.064
  535SOL    HW2 1616   2.382   0.762   2.186
  536SOL     OW 1617   1.938   0.811   2.651
  536SOL    HW1 1618   2.037   0.799   2.660
  536SOL    HW2 1619   1.914   0.906   2.672
  537SOL     OW 1620   2.213   1.801   2.715
  537SOL    HW1 1621   2.263   1.715   2.721
  537SOL    HW2 1622   2.278   1.878   2.712
  538SOL     OW 1623   2.183   0.943   2.104
  538SOL    HW1 1624   2.265   0.982   2.062
  538SOL    HW2 1625   2.156   0.861   2.055
  539SOL     OW 1626   2.326   1.743   2.185
  539SOL    HW1 1627   2.359   1.782   2.271
  539SOL    HW2 1628   2.402   1.736   2.120
  540SOL     OW 1629   2.244   0.700   2.342
  540SOL    HW1 1630   2.289   0.610   2.339
  540SOL    HW2 1631   2.150   0.689   2.375
  541SOL     OW 1632   2.476   0.122   1.979
  541SOL    HW1 1633   2.574   0.100   1.986
  541SOL    HW2 1634   2.445   0.105   1.886
  542SOL     OW 1635   2.401   0.064   2.374
  542SOL    HW1 1636   2.320   0.065   2.432
  542SOL    HW2 1637   2.404   0.147   2.319
  543SOL     OW 1638   2.159   0.035   2.033
  543SOL    HW1 1639   2.208   0.119   2.012
  543SOL    HW2 1640   2.221  -0.030   2.078
  544SOL     OW 1641   2.321   1.152   2.603
  544SOL    HW1 1642   2.250   1.125   2.668
  544SOL    HW2 1643   2.295   1.124   2.510
  545SOL     OW 1644   2.350   1.385   2.036
  545SOL    HW1 1645   2.263   1.370   2.083
  545SOL    HW2 1646   2.333   1.411   1.941
  546SOL     OW 1647   2.389   0.256   2.190
  546SOL    HW1 1648   2.416   0.197   2.115
  546SOL    HW2 1649   2.389   0.351   2.159
  547SOL     OW 1650   2.229   1.100   2.363
  547SOL    HW1 1651   2.222   1.183   2.307
  547SOL    HW2 1652   2.233   1.020   2.303
  548SOL     OW 1653   2.169   0.063   2.480
  548SOL    HW1 1654   2.158   0.157   2.513
  548SOL    HW2 1655   2.164   0.000   2.557
  549SOL     OW 1656   2.930   1.333   2.711
  549SOL    HW1 1657   2.937   1.249   2.656
  549SOL    HW2 1658   2.992   1.402   2.675
  550SOL     OW 1659   1.870   1.326   2.062
  550SOL    HW1 1660   1.777   1.347   2.031
  550SOL    HW2 1661   1.880   1.227   2.075
  551SOL     OW 1662   1.902   0.544   2.976
  551SOL    HW1 1663   1.987   0.511   2.935
  551SOL    HW2 1664   1.915   0.559   3.074
  552SOL     OW 1665   2.677   0.572   2.187
  552SOL    HW1 1666   2.684   0.483   2.141
  552SOL    HW2 1667   2.583   0.606   2.179
  553SOL     OW 1668   2.335   0.500   2.053
  553SOL    HW1 1669   2.396   0.580   2.057
  553SOL    HW2 1670   2.240   0.531   2.060
  554SOL     OW 1671   2.125   0.326   2.582
  554SOL    HW1 1672   2.046   0.377   2.548
  554SOL    HW2 1673   2.116   0.311   2.680
  555SOL     OW 1674   2.901   1.098   2.558
  555SOL    HW1 1675   2.831   1.051   2.612
  555SOL    HW2 1676   2.960   1.030   2.515
  556SOL     OW 1677   2.452   1.487   2.353
  556SOL    HW1 1678   2.494   1.429   2.283
  556SOL    HW2 1679   2.408   1.566   2.309
  557SOL     OW 1680   2.117   1.348   2.152
  557SOL    HW1 1681   2.021   1.349   2.125
  557SOL    HW2 1682   2.129   1.401   2.236
  558SOL     OW 1683   1.937   0.345   1.895
  558SOL    HW1 1684   1.845   0.317   1.866
  558SOL    HW2 1685   1.968   0.422   1.839
  559SOL     OW 1686   1.934   0.166   2.180
  559SOL    HW1 1687   1.917   0.249   2.126
  559SOL    HW2 1688   2.024   0.129   2.158
  560SOL     OW 1689   2.456   0.745   2.514
  560SOL    HW1 1690   2.506   0.830   2.495
  560SOL    HW2 1691   2.368   0.747   2.466
  561SOL     OW 1692   2.523   1.790   2.815
  561SOL    HW1 1693   2.477   1.878   2.802
  561SOL    HW2 1694   2.622   1.802   2.808
  562SOL     OW 1695   1.941   1.240   2.515
  562SOL    HW1 1696   1.940   1.193   2.603
  562SOL    HW2 1697   2.023   1.212   2.464
  563SOL     OW 1698   2.290   0.424   2.382
  563SOL    HW1 1699   2.320   0.352   2.320
  563SOL    HW2 1700   2.251   0.384   2.465
  564SOL     OW 1701   2.674   1.586   2.549
  564SOL    HW1 1702   2.706   1.596   2.455
  564SOL    HW2 1703   2.595   1.524   2.551
  565SOL     OW 1704   1.901   1.077   2.162
  565SOL    HW1 1705   2.000   1.066   2.153
  565SOL    HW2 1706   1.861   0.991   2.194
  566SOL     OW 1707   2.092   2.490   0.113
  566SOL    HW1 1708   1.999   2.488   0.150
  566SOL    HW2 1709   2.093   2.451   0.021
  567SOL     OW 1710   2.087   2.137   0.996
  567SOL    HW1 1711   2.122   2.120   1.088
  567SOL    HW2 1712   1.999   2.092   0.984
  568SOL     OW 1713   1.881   2.230   0.647
  568SOL    HW1 1714   1.799   2.273   0.686
  568SOL    HW2 1715   1.853   2.157   0.584
  569SOL     OW 1716   2.712   2.660   1.823
  569SOL    HW1 1717   2.708   2.736   1.888
  569SOL    HW2 1718   2.734   2.696   1.732
  570SOL     OW 1719   2.547   2.874   0.665
  570SOL    HW1 1720   2.616   2.858   0.735
  570SOL    HW2 1721   2.474   2.931   0.703
  571SOL     OW 1722   2.300   2.254   1.499
  571SOL    HW1 1723   2.382   2.198   1.508
  571SOL    HW2 1724   2.219   2.196   1.503
  572SOL     OW 1725   1.984   2.505   0.563
  572SOL    HW1 1726   1.939   2.417   0.580
  572SOL    HW2 1727   1.983   2.559   0.647
  573SOL     OW 1728   1.975   2.599   1.597
  573SOL    HW1 1729   2.063   2.586   1.642
  573SOL    HW2 1730   1.962   2.696   1.575
  574SOL     OW 1731   2.671   1.866   0.502
  574SOL    HW1 1732   2.711   1.957   0.493
  574SOL    HW2 1733   2.571   1.874   0.508
  575SOL     OW 1734   2.179   2.113   1.801
  575SOL    HW1 1735   2.250   2.184   1.807
  575SOL    HW2 1736   2.091   2.152   1.829
  576SOL     OW 1737   2.460   2.591   0.270
  576SOL    HW1 1738   2.484   2.660   0.202
  576SOL    HW2 1739   2.382   2.624   0.324
  577SOL     OW 1740   2.412   2.058   0.885
  577SOL    HW1 1741   2.407   2.053   0.985
  577SOL    HW2 1742   2.414   2.154   0.856
  578SOL     OW 1743   2.064   2.147   1.498
  578SOL    HW1 1744   1.984   2.207   1.485
  578SOL    HW2 1745   2.054   2.098   1.584
  579SOL     OW 1746   2.244   2.562   0.480
  579SOL    HW1 1747   2.289   2.472   0.477
  579SOL    HW2 1748   2.150   2.551   0.513
  580SOL     OW 1749   2.784   2.365   0.899
  580SOL    HW1 1750   2.759   2.356   0.803
  580SOL    HW2 1751   2.832   2.283   0.930
  581SOL     OW 1752   2.401   1.926   0.512
  581SOL    HW1 1753   2.320   1.927   0.570
  581SOL    HW2 1754   2.404   2.009   0.457
  582SOL     OW 1755   1.940   2.418   1.386
  582SOL    HW1 1756   2.032   2.417   1.345
  582SOL    HW2 1757   1.934   2.492   1.453
  583SOL     OW 1758   2.423   2.084   1.147
  583SOL    HW1 1759   2.461   2.000   1.184
  583SOL    HW2 1760   2.335   2.103   1.191
  584SOL     OW 1761   2.389   2.118   0.328
  584SOL    HW1 1762   2.416   2.059   0.253
  584SOL    HW2 1763   2.389   2.213   0.297
  585SOL     OW 1764   2.272   2.675   1.251
  585SOL    HW1 1765   2.358   2.687   1.301
  585SOL    HW2 1766   2.230   2.588   1.278
  586SOL     OW 1767   2.428   2.399   0.865
  586SOL    HW1 1768   2.440   2.465   0.791
  586SOL    HW2 1769   2.474   2.433   0.948
  587SOL     OW 1770   2.366   1.912   1.740
  587SOL    HW1 1771   2.324   1.855   1.670
  587SOL    HW2 1772   2.300   1.981   1.772
  588SOL     OW 1773   2.169   2.075   1.231
  588SOL    HW1 1774   2.146   2.112   1.321
  588SOL    HW2 1775   2.139   1.980   1.225
  589SOL     OW 1776   2.169   1.925   0.618
  589SOL    HW1 1777   2.158   2.019   0.651
  589SOL    HW2 1778   2.164   1.862   0.695
  590SOL     OW 1779   2.181   2.672   0.949
  590SOL    HW1 1780   2.274   2.708   0.954
  590SOL    HW2 1781   2.175   2.587   1.001
  591SOL     OW 1782   2.201   2.371   1.006
  591SOL    HW1 1783   2.149   2.288   0.989
  591SOL    HW2 1784   2.278   2.376   0.942
  592SOL     OW 1785   2.864   2.658   1.238
  592SOL    HW1 1786   2.905   2.626   1.324
  592SOL    HW2 1787   2.768   2.631   1.235
  593SOL     OW 1788   1.902   2.406   1.114
  593SOL    HW1 1789   1.987   2.373   1.073
  593SOL    HW2 1790   1.915   2.421   1.212
  594SOL     OW 1791   2.051   2.382   1.722
  594SOL    HW1 1792   2.110   2.342   1.652
  594SOL    HW2 1793   1.993   2.453   1.681
  595SOL     OW 1794   2.533   2.326   1.269
  595SOL    HW1 1795   2.499   2.237   1.239
  595SOL    HW2 1796   2.559   2.380   1.189
  596SOL     OW 1797   2.335   2.362   0.191
  596SOL    HW1 1798   2.396   2.442   0.195
  596SOL    HW2 1799   2.240   2.393   0.198
  597SOL     OW 1800   2.125   2.188   0.720
  597SOL    HW1 1801   2.046   2.239   0.686
  597SOL    HW2 1802   2.116   2.173   0.818
  598SOL     OW 1803   2.534   2.065   1.489
  598SOL    HW1 1804   2.624   2.049   1.449
  598SOL    HW2 1805   2.542   2.070   1.588
  599SOL     OW 1806   1.937   2.207   0.033
  599SOL    HW1 1807   1.845   2.179   0.004
  599SOL    HW2 1808   1.968   2.284  -0.023
  600SOL     OW 1809   1.934   2.028   0.318
  600SOL    HW1 1810   1.917   2.111   0.264
  600SOL    HW2 1811   2.024   1.991   0.296
  601SOL     OW 1812   2.578   2.427   1.708
  601SOL    HW1 1813   2.597   2.492   1.782
  601SOL    HW2 1814   2.638   2.347   1.717
  602SOL     OW 1815   2.456   2.607   0.652
  602SOL    HW1 1816   2.506   2.692   0.633
  602SOL    HW2 1817   2.368   2.609   0.604
  603SOL     OW 1818   2.290   2.286   0.520
  603SOL    HW1 1819   2.320   2.214   0.458
  603SOL    HW2 1820   2.251   2.246   0.603
  604SOL     OW 1821   2.179   2.409   1.280
  604SOL    HW1 1822   2.217   2.350   1.352
  604SOL    HW2 1823   2.219   2.383   1.192
  605SOL     OW 1824   2.092   2.490   1.975
  605SOL    HW1 1825   1.999   2.488   2.012
  605SOL    HW2 1826   2.093   2.451   1.883
  606SOL     OW 1827   1.881   2.230   2.509
  606SOL    HW1 1828   1.799   2.273   2.548
  606SOL    HW2 1829   1.853   2.157   2.446
  607SOL     OW 1830   2.547   2.874   2.527
  607SOL    HW1 1831   2.616   2.858   2.597
  607SOL    HW2 1832   2.474   2.931   2.565
  608SOL     OW 1833   1.984   2.505   2.425
  608SOL    HW1 1834   1.939   2.417   2.442
  608SOL    HW2 1835   1.983   2.559   2.509
  609SOL     OW 1836   2.671   1.866   2.364
  609SOL    HW1 1837   2.711   1.957   2.355
  609SOL    HW2 1838   2.571   1.874   2.370
  610SOL     OW 1839   2.460   2.591   2.132
  610SOL    HW1 1840   2.484   2.660   2.064
  610SOL    HW2 1841   2.382   2.624   2.186
  611SOL     OW 1842   2.244   2.562   2.342
  611SOL    HW1 1843   2.289   2.472   2.339
  611SOL    HW2 1844   2.150   2.551   2.375
  612SOL     OW 1845   2.476   1.984   1.979
  612SOL    HW1 1846   2.574   1.962   1.986
  612SOL    HW2 1847   2.445   1.967   1.886
  613SOL     OW 1848   2.401   1.926   2.374
  613SOL    HW1 1849   2.320   1.927   2.432
  613SOL    HW2 1850   2.404   2.009   2.319
  614SOL     OW 1851   2.159   1.897   2.033
  614SOL    HW1 1852   2.208   1.981   2.012
  614SOL    HW2 1853   2.221   1.832   2.078
  615SOL     OW 1854   2.389   2.118   2.190
  615SOL    HW1 1855   2.416   2.059   2.115
  615SOL    HW2 1856   2.389   2.213   2.159
  616SOL     OW 1857   2.169   1.925   2.480
  616SOL    HW1 1858   2.158   2.019   2.513
  616SOL    HW2 1859   2.164   1.862   2.557
  617SOL     OW 1860   1.902   2.406   2.976
  617SOL    HW1 1861   1.987   2.373   2.935
  617SOL    HW2 1862   1.915   2.421   3.074
  618SOL     OW 1863   2.677   2.434   2.187
  618SOL    HW1 1864   2.684   2.345   2.141
  618SOL    HW2 1865   2.583   2.468   2.179
  619SOL     OW 1866   2.335   2.362   2.053
  619SOL    HW1 1867   2.396   2.442   2.057
  619SOL    HW2 1868   2.240   2.393   2.060
  620SOL     OW 1869   2.125   2.188   2.582
  620SOL    HW1 1870   2.046   2.239   2.548
  620SOL    HW2 1871   2.116   2.173   2.680
  621SOL     OW 1872   1.937   2.207   1.895
  621SOL    HW1 1873   1.845   2.179   1.866
  621SOL    HW2 1874   1.968   2.284   1.839
  622SOL     OW 1875   1.934   2.028   2.180
  622SOL    HW1 1876   1.917   2.111   2.126
  622SOL    HW2 1877   2.024   1.991   2.158
  623SOL     OW 1878   2.456   2.607   2.514
  623SOL    HW1 1879   2.506   2.692   2.495
  623SOL    HW2 1880   2.368   2.609   2.466
  624SOL     OW 1881   2.290   2.286   2.382
  624SOL    HW1 1882   2.320   2.214   2.320
  624SOL    HW2 1883   2.251   2.246   2.465
   2.67606   2.67606   2.67606
