mobley_3047364_GMX.gro created by acpype (v: 2023.10.27) on Thu May 14 13:19:13 2026
 2969
    1MOL     C1    1   1.459   1.576   1.422
    1MOL     C2    2   1.580   1.599   1.611
    1MOL     C3    3   1.643   1.454   1.453
    1MOL     C4    4   1.237   1.665   1.139
    1MOL     C5    5   1.560   1.483   1.896
    1MOL     C6    6   1.695   1.687   1.951
    1MOL     C7    7   1.887   1.340   1.513
    1MOL     C8    8   1.363   1.612   1.205
    1MOL     C9    9   1.656   1.588   1.841
    1MOL     N1   10   1.475   1.637   1.539
    1MOL     N2   11   1.541   1.484   1.374
    1MOL     N3   12   1.667   1.508   1.572
    1MOL     N4   13   1.347   1.616   1.349
    1MOL     N5   14   1.595   1.663   1.733
    1MOL     S1   15   1.754   1.330   1.391
    1MOL     H1   16   1.150   1.605   1.167
    1MOL     H2   17   1.217   1.768   1.168
    1MOL     H3   18   1.247   1.662   1.030
    1MOL     H4   19   1.466   1.529   1.930
    1MOL     H5   20   1.534   1.408   1.820
    1MOL     H6   21   1.605   1.430   1.981
    1MOL     H7   22   1.607   1.740   1.990
    1MOL     H8   23   1.764   1.762   1.913
    1MOL     H9   24   1.743   1.636   2.035
    1MOL    H10   25   1.966   1.270   1.486
    1MOL    H11   26   1.850   1.313   1.613
    1MOL    H12   27   1.929   1.441   1.516
    1MOL    H13   28   1.448   1.673   1.174
    1MOL    H14   29   1.380   1.509   1.171
    1MOL    H15   30   1.749   1.539   1.808
    1MOL    H16   31   1.318   1.705   1.388
    1MOL    H17   32   1.506   1.708   1.754
    2SOL     OW   33   0.230   0.628   0.113
    2SOL    HW1   34   0.137   0.626   0.150
    2SOL    HW2   35   0.231   0.589   0.021
    3SOL     OW   36   0.225   0.275   0.996
    3SOL    HW1   37   0.260   0.258   1.088
    3SOL    HW2   38   0.137   0.230   0.984
    4SOL     OW   39   0.019   0.368   0.647
    4SOL    HW1   40  -0.063   0.411   0.686
    4SOL    HW2   41  -0.009   0.295   0.584
    5SOL     OW   42   0.569   1.275   1.165
    5SOL    HW1   43   0.476   1.268   1.128
    5SOL    HW2   44   0.580   1.364   1.209
    6SOL     OW   45   1.555   1.511   0.703
    6SOL    HW1   46   1.498   1.495   0.784
    6SOL    HW2   47   1.496   1.521   0.623
    7SOL     OW   48   1.135   0.703   0.717
    7SOL    HW1   49   1.192   0.781   0.692
    7SOL    HW2   50   1.075   0.729   0.793
    8SOL     OW   51   1.755   0.607   0.231
    8SOL    HW1   52   1.743   0.594   0.132
    8SOL    HW2   53   1.725   0.526   0.280
    9SOL     OW   54   0.768   1.144   1.023
    9SOL    HW1   55   0.690   1.161   1.083
    9SOL    HW2   56   0.802   1.231   0.987
   10SOL     OW   57   0.850   0.798   1.823
   10SOL    HW1   58   0.846   0.874   1.888
   10SOL    HW2   59   0.872   0.834   1.732
   11SOL     OW   60   0.685   1.012   0.665
   11SOL    HW1   61   0.754   0.996   0.735
   11SOL    HW2   62   0.612   1.069   0.703
   12SOL     OW   63   0.686   1.161   1.803
   12SOL    HW1   64   0.746   1.240   1.817
   12SOL    HW2   65   0.600   1.192   1.762
   13SOL     OW   66   0.335   1.435   1.061
   13SOL    HW1   67   0.257   1.404   1.008
   13SOL    HW2   68   0.393   1.493   1.004
   14SOL     OW   69   0.438   0.392   1.499
   14SOL    HW1   70   0.520   0.336   1.508
   14SOL    HW2   71   0.357   0.334   1.503
   15SOL     OW   72   1.603   0.447   0.737
   15SOL    HW1   73   1.529   0.493   0.687
   15SOL    HW2   74   1.654   0.515   0.790
   16SOL     OW   75   0.231   1.713   0.483
   16SOL    HW1   76   0.265   1.790   0.537
   16SOL    HW2   77   0.275   1.713   0.393
   17SOL     OW   78   1.127   1.341   1.690
   17SOL    HW1   79   1.174   1.341   1.778
   17SOL    HW2   80   1.079   1.254   1.679
   18SOL     OW   81   0.230   1.434   0.538
   18SOL    HW1   82   0.204   1.530   0.538
   18SOL    HW2   83   0.159   1.380   0.583
   19SOL     OW   84   0.240   1.091   0.886
   19SOL    HW1   85   0.254   1.007   0.938
   19SOL    HW2   86   0.185   1.155   0.941
   20SOL     OW   87   0.620   1.786   1.439
   20SOL    HW1   88   0.528   1.769   1.474
   20SOL    HW2   89   0.648   1.878   1.465
   21SOL     OW   90   0.606   0.964   0.123
   21SOL    HW1   91   0.613   1.048   0.069
   21SOL    HW2   92   0.652   0.977   0.211
   22SOL     OW   93   1.594   0.114   1.480
   22SOL    HW1   94   1.576   0.181   1.408
   22SOL    HW2   95   1.591   0.160   1.569
   23SOL     OW   96   0.122   0.643   0.563
   23SOL    HW1   97   0.077   0.555   0.580
   23SOL    HW2   98   0.121   0.697   0.647
   24SOL     OW   99   1.842   1.767   0.359
   24SOL    HW1  100   1.896   1.738   0.439
   24SOL    HW2  101   1.872   1.857   0.330
   25SOL     OW  102   0.027   1.596   0.117
   25SOL    HW1  103   0.008   1.500   0.138
   25SOL    HW2  104  -0.006   1.654   0.192
   26SOL     OW  105   1.689   0.922   0.612
   26SOL    HW1  106   1.784   0.893   0.620
   26SOL    HW2  107   1.681   0.987   0.537
   27SOL     OW  108   1.641   1.108   0.432
   27SOL    HW1  109   1.727   1.110   0.380
   27SOL    HW2  110   1.655   1.155   0.520
   28SOL     OW  111   0.113   0.737   1.597
   28SOL    HW1  112   0.201   0.724   1.642
   28SOL    HW2  113   0.100   0.834   1.575
   29SOL     OW  114   0.613   1.365   0.726
   29SOL    HW1  115   0.564   1.278   0.735
   29SOL    HW2  116   0.590   1.408   0.639
   30SOL     OW  117   1.293   1.228   1.423
   30SOL    HW1  118   1.330   1.155   1.365
   30SOL    HW2  119   1.345   1.233   1.508
   31SOL     OW  120   0.809   0.004   0.502
   31SOL    HW1  121   0.849   0.095   0.493
   31SOL    HW2  122   0.709   0.012   0.508
   32SOL     OW  123   0.197   0.976   1.264
   32SOL    HW1  124   0.286   0.931   1.250
   32SOL    HW2  125   0.124   0.911   1.245
   33SOL     OW  126   1.525   0.999   0.190
   33SOL    HW1  127   1.462   0.923   0.203
   33SOL    HW2  128   1.573   1.017   0.276
   34SOL     OW  129   1.187   1.792   1.616
   34SOL    HW1  130   1.211   1.852   1.540
   34SOL    HW2  131   1.194   1.697   1.586
   35SOL     OW  132   0.317   0.251   1.801
   35SOL    HW1  133   0.388   0.322   1.807
   35SOL    HW2  134   0.229   0.290   1.829
   36SOL     OW  135   1.466   1.417   0.953
   36SOL    HW1  136   1.407   1.423   1.033
   36SOL    HW2  137   1.451   1.329   0.907
   37SOL     OW  138   1.667   1.714   0.572
   37SOL    HW1  139   1.626   1.691   0.484
   37SOL    HW2  140   1.649   1.640   0.637
   38SOL     OW  141   0.598   0.729   0.270
   38SOL    HW1  142   0.622   0.798   0.202
   38SOL    HW2  143   0.520   0.762   0.324
   39SOL     OW  144   1.281   0.345   0.944
   39SOL    HW1  145   1.195   0.295   0.931
   39SOL    HW2  146   1.343   0.291   1.000
   40SOL     OW  147   1.576   1.662   0.307
   40SOL    HW1  148   1.665   1.708   0.310
   40SOL    HW2  149   1.555   1.638   0.212
   41SOL     OW  150   0.807   0.605   1.465
   41SOL    HW1  151   0.760   0.602   1.554
   41SOL    HW2  152   0.756   0.550   1.399
   42SOL     OW  153   1.394   0.469   1.674
   42SOL    HW1  154   1.374   0.512   1.762
   42SOL    HW2  155   1.472   0.407   1.683
   43SOL     OW  156   0.973   0.890   1.572
   43SOL    HW1  157   1.019   0.806   1.543
   43SOL    HW2  158   0.917   0.924   1.497
   44SOL     OW  159   0.991   0.410   1.242
   44SOL    HW1  160   0.914   0.444   1.296
   44SOL    HW2  161   0.957   0.359   1.163
   45SOL     OW  162   1.041   0.701   0.429
   45SOL    HW1  163   1.067   0.697   0.525
   45SOL    HW2  164   0.956   0.650   0.415
   46SOL     OW  165   0.076   0.811   0.789
   46SOL    HW1  166   0.175   0.799   0.798
   46SOL    HW2  167   0.052   0.906   0.810
   47SOL     OW  168   0.130   1.821   1.571
   47SOL    HW1  169   0.120   1.806   1.670
   47SOL    HW2  170   0.044   1.857   1.535
   48SOL     OW  171   0.865   0.348   0.195
   48SOL    HW1  172   0.924   0.411   0.146
   48SOL    HW2  173   0.884   0.254   0.166
   49SOL     OW  174   1.719   0.585   1.831
   49SOL    HW1  175   1.693   0.674   1.795
   49SOL    HW2  176   1.717   0.517   1.758
   50SOL     OW  177   1.362   1.144   0.545
   50SOL    HW1  178   1.445   1.115   0.497
   50SOL    HW2  179   1.313   1.211   0.489
   51SOL     OW  180   0.550   0.196   0.885
   51SOL    HW1  181   0.545   0.191   0.985
   51SOL    HW2  182   0.552   0.292   0.856
   52SOL     OW  183   1.008   1.456   0.477
   52SOL    HW1  184   0.962   1.528   0.425
   52SOL    HW2  185   1.004   1.476   0.575
   53SOL     OW  186   0.351   1.801   0.853
   53SOL    HW1  187   0.401   1.715   0.859
   53SOL    HW2  188   0.416   1.878   0.850
   54SOL     OW  189   1.795   1.066   0.873
   54SOL    HW1  190   1.733   1.051   0.797
   54SOL    HW2  191   1.743   1.077   0.958
   55SOL     OW  192   1.227   1.550   1.506
   55SOL    HW1  193   1.233   1.473   1.570
   55SOL    HW2  194   1.175   1.524   1.426
   56SOL     OW  195   0.321   0.943   0.242
   56SOL    HW1  196   0.403   0.982   0.200
   56SOL    HW2  197   0.294   0.861   0.193
   57SOL     OW  198   1.458   0.735   0.728
   57SOL    HW1  199   1.453   0.670   0.803
   57SOL    HW2  200   1.538   0.794   0.741
   58SOL     OW  201   0.461   1.266   1.727
   58SOL    HW1  202   0.411   1.267   1.641
   58SOL    HW2  203   0.398   1.248   1.803
   59SOL     OW  204   1.111   1.776   0.237
   59SOL    HW1  205   1.051   1.714   0.287
   59SOL    HW2  206   1.142   1.732   0.152
   60SOL     OW  207   0.202   0.285   1.498
   60SOL    HW1  208   0.122   0.345   1.485
   60SOL    HW2  209   0.192   0.236   1.584
   61SOL     OW  210   1.632   1.377   0.081
   61SOL    HW1  211   1.600   1.471   0.071
   61SOL    HW2  212   1.556   1.314   0.069
   62SOL     OW  213   0.464   1.743   0.323
   62SOL    HW1  214   0.497   1.782   0.409
   62SOL    HW2  215   0.540   1.736   0.258
   63SOL     OW  216   1.400   0.107   0.426
   63SOL    HW1  217   1.376   0.070   0.336
   63SOL    HW2  218   1.499   0.123   0.430
   64SOL     OW  219   0.249   1.785   1.241
   64SOL    HW1  220   0.306   1.720   1.291
   64SOL    HW2  221   0.233   1.752   1.148
   65SOL     OW  222   0.940   1.698   0.904
   65SOL    HW1  223   1.020   1.641   0.925
   65SOL    HW2  224   0.891   1.658   0.827
   66SOL     OW  225   0.382   0.700   0.480
   66SOL    HW1  226   0.427   0.610   0.477
   66SOL    HW2  227   0.288   0.689   0.513
   67SOL     OW  228   1.547   0.222   1.729
   67SOL    HW1  229   1.542   0.259   1.821
   67SOL    HW2  230   1.475   0.153   1.717
   68SOL     OW  231   0.614   0.122   0.117
   68SOL    HW1  232   0.712   0.100   0.124
   68SOL    HW2  233   0.583   0.105   0.024
   69SOL     OW  234   0.781   0.264   1.749
   69SOL    HW1  235   0.848   0.203   1.792
   69SOL    HW2  236   0.708   0.283   1.814
   70SOL     OW  237   0.888   1.514   1.195
   70SOL    HW1  238   0.865   1.489   1.101
   70SOL    HW2  239   0.949   1.445   1.234
   71SOL     OW  240   1.351   0.590   1.433
   71SOL    HW1  241   1.379   0.547   1.518
   71SOL    HW2  242   1.376   0.686   1.434
   72SOL     OW  243   0.803   1.402   0.924
   72SOL    HW1  244   0.893   1.416   0.882
   72SOL    HW2  245   0.732   1.404   0.853
   73SOL     OW  246   0.922   0.503   0.899
   73SOL    HW1  247   0.897   0.494   0.803
   73SOL    HW2  248   0.970   0.421   0.930
   74SOL     OW  249   0.539   0.064   0.512
   74SOL    HW1  250   0.458   0.065   0.570
   74SOL    HW2  251   0.542   0.147   0.457
   75SOL     OW  252   1.434   1.188   0.041
   75SOL    HW1  253   1.466   1.112   0.098
   75SOL    HW2  254   1.342   1.215   0.071
   76SOL     OW  255   0.297   0.035   0.171
   76SOL    HW1  256   0.346   0.119   0.150
   76SOL    HW2  257   0.359  -0.030   0.216
   77SOL     OW  258   0.935   0.236   0.480
   77SOL    HW1  259   0.887   0.277   0.402
   77SOL    HW2  260   1.034   0.234   0.461
   78SOL     OW  261   1.076   0.683   1.464
   78SOL    HW1  262   0.996   0.622   1.467
   78SOL    HW2  263   1.157   0.630   1.440
   79SOL     OW  264   1.227   1.570   0.793
   79SOL    HW1  265   1.248   1.644   0.728
   79SOL    HW2  266   1.295   1.570   0.866
   80SOL     OW  267   0.459   1.152   0.741
   80SOL    HW1  268   0.388   1.125   0.806
   80SOL    HW2  269   0.433   1.124   0.648
   81SOL     OW  270   1.271   1.797   0.591
   81SOL    HW1  271   1.315   1.861   0.527
   81SOL    HW2  272   1.221   1.849   0.661
   82SOL     OW  273   1.032   0.549   0.016
   82SOL    HW1  274   0.991   0.631  -0.023
   82SOL    HW2  275   1.096   0.575   0.089
   83SOL     OW  276   0.078   0.556   1.386
   83SOL    HW1  277   0.170   0.555   1.345
   83SOL    HW2  278   0.072   0.630   1.453
   84SOL     OW  279   0.561   0.222   1.147
   84SOL    HW1  280   0.599   0.138   1.184
   84SOL    HW2  281   0.473   0.241   1.191
   85SOL     OW  282   0.866   0.454   0.642
   85SOL    HW1  283   0.834   0.526   0.580
   85SOL    HW2  284   0.890   0.373   0.589
   86SOL     OW  285   1.017   0.039   0.753
   86SOL    HW1  286   0.945   0.044   0.684
   86SOL    HW2  287   0.993  -0.030   0.822
   87SOL     OW  288   1.429   1.173   0.867
   87SOL    HW1  289   1.374   1.089   0.860
   87SOL    HW2  290   1.455   1.202   0.775
   88SOL     OW  291   1.466   0.590   0.992
   88SOL    HW1  292   1.436   0.495   0.999
   88SOL    HW2  293   1.539   0.606   1.058
   89SOL     OW  294   1.857   0.833   0.377
   89SOL    HW1  295   1.899   0.769   0.441
   89SOL    HW2  296   1.819   0.782   0.299
   90SOL     OW  297   0.488   1.385   0.174
   90SOL    HW1  298   0.401   1.370   0.221
   90SOL    HW2  299   0.471   1.411   0.079
   91SOL     OW  300   1.664   1.280   0.657
   91SOL    HW1  301   1.763   1.288   0.671
   91SOL    HW2  302   1.619   1.364   0.688
   92SOL     OW  303   1.390   0.575   0.078
   92SOL    HW1  304   1.336   0.554   0.159
   92SOL    HW2  305   1.481   0.534   0.087
   93SOL     OW  306   0.527   0.256   0.328
   93SOL    HW1  307   0.554   0.197   0.253
   93SOL    HW2  308   0.527   0.351   0.297
   94SOL     OW  309   1.064   1.347   1.340
   94SOL    HW1  310   0.984   1.324   1.395
   94SOL    HW2  311   1.147   1.321   1.389
   95SOL     OW  312   1.111   1.195   1.100
   95SOL    HW1  313   1.071   1.239   1.181
   95SOL    HW2  314   1.070   1.232   1.017
   96SOL     OW  315   1.638   1.099   1.079
   96SOL    HW1  316   1.643   1.180   1.138
   96SOL    HW2  317   1.552   1.101   1.028
   97SOL     OW  318   0.915   0.089   1.402
   97SOL    HW1  319   0.940   0.069   1.307
   97SOL    HW2  320   0.987   0.145   1.444
   98SOL     OW  321   0.980   1.116   1.719
   98SOL    HW1  322   0.881   1.122   1.729
   98SOL    HW2  323   1.003   1.036   1.663
   99SOL     OW  324   0.705   1.050   0.368
   99SOL    HW1  325   0.691   1.057   0.467
   99SOL    HW2  326   0.789   0.999   0.350
  100SOL     OW  327   0.410   0.813   1.251
  100SOL    HW1  328   0.496   0.825   1.301
  100SOL    HW2  329   0.368   0.726   1.278
  101SOL     OW  330   1.274   0.386   1.262
  101SOL    HW1  331   1.295   0.460   1.326
  101SOL    HW2  332   1.185   0.403   1.219
  102SOL     OW  333   0.064   1.564   1.331
  102SOL    HW1  334   0.018   1.646   1.297
  102SOL    HW2  335   0.162   1.583   1.340
  103SOL     OW  336   0.367   1.100   0.501
  103SOL    HW1  337   0.360   1.183   0.445
  103SOL    HW2  338   0.371   1.020   0.441
  104SOL     OW  339   0.566   0.537   0.865
  104SOL    HW1  340   0.578   0.603   0.791
  104SOL    HW2  341   0.612   0.571   0.948
  105SOL     OW  342   1.252   1.348   0.388
  105SOL    HW1  343   1.302   1.425   0.428
  105SOL    HW2  344   1.157   1.350   0.420
  106SOL     OW  345   1.582   0.639   0.472
  106SOL    HW1  346   1.551   0.700   0.545
  106SOL    HW2  347   1.632   0.691   0.403
  107SOL     OW  348   0.354   1.510   1.329
  107SOL    HW1  349   0.333   1.466   1.242
  107SOL    HW2  350   0.451   1.536   1.332
  108SOL     OW  351   0.402   0.751   1.598
  108SOL    HW1  352   0.470   0.806   1.551
  108SOL    HW2  353   0.442   0.663   1.625
  109SOL     OW  354   1.587   0.779   1.670
  109SOL    HW1  355   1.495   0.817   1.665
  109SOL    HW2  356   1.647   0.826   1.605
  110SOL     OW  357   1.013   0.105   1.770
  110SOL    HW1  358   1.019   0.190   1.718
  110SOL    HW2  359   1.045   0.029   1.713
  111SOL     OW  360   0.504   0.050   1.740
  111SOL    HW1  361   0.462  -0.007   1.670
  111SOL    HW2  362   0.438   0.119   1.772
  112SOL     OW  363   0.573   0.870   1.029
  112SOL    HW1  364   0.617   0.959   1.020
  112SOL    HW2  365   0.510   0.870   1.106
  113SOL     OW  366   1.360   0.862   1.045
  113SOL    HW1  367   1.285   0.862   0.979
  113SOL    HW2  368   1.397   0.770   1.054
  114SOL     OW  369   1.209   0.525   0.275
  114SOL    HW1  370   1.222   0.441   0.329
  114SOL    HW2  371   1.180   0.599   0.335
  115SOL     OW  372   0.307   0.213   1.231
  115SOL    HW1  373   0.284   0.250   1.321
  115SOL    HW2  374   0.277   0.118   1.225
  116SOL     OW  375   0.037   1.310   1.282
  116SOL    HW1  376   0.090   1.261   1.350
  116SOL    HW2  377   0.059   1.408   1.287
  117SOL     OW  378   0.732   0.634   1.064
  117SOL    HW1  379   0.791   0.608   0.988
  117SOL    HW2  380   0.704   0.730   1.053
  118SOL     OW  381   1.728   0.935   1.854
  118SOL    HW1  382   1.682   0.928   1.765
  118SOL    HW2  383   1.666   0.979   1.920
  119SOL     OW  384   0.307   0.063   0.618
  119SOL    HW1  385   0.296   0.157   0.651
  119SOL    HW2  386   0.302   0.000   0.695
  120SOL     OW  387   1.622   0.367   0.374
  120SOL    HW1  388   1.624   0.291   0.438
  120SOL    HW2  389   1.574   0.444   0.414
  121SOL     OW  390   1.023   0.766   0.966
  121SOL    HW1  391   1.038   0.787   1.062
  121SOL    HW2  392   0.993   0.671   0.957
  122SOL     OW  393   0.980   1.573   1.700
  122SOL    HW1  394   0.960   1.617   1.612
  122SOL    HW2  395   1.019   1.482   1.684
  123SOL     OW  396   0.350   0.898   1.804
  123SOL    HW1  397   0.426   0.942   1.852
  123SOL    HW2  398   0.385   0.851   1.722
  124SOL     OW  399   1.540   0.274   0.125
  124SOL    HW1  400   1.479   0.199   0.148
  124SOL    HW2  401   1.562   0.326   0.208
  125SOL     OW  402   1.303   0.838   0.042
  125SOL    HW1  403   1.337   0.745   0.057
  125SOL    HW2  404   1.321   0.865  -0.053
  126SOL     OW  405   1.068   1.333   0.849
  126SOL    HW1  406   1.075   1.249   0.794
  126SOL    HW2  407   1.130   1.402   0.813
  127SOL     OW  408   0.319   0.810   0.949
  127SOL    HW1  409   0.412   0.846   0.954
  127SOL    HW2  410   0.313   0.725   1.001
  128SOL     OW  411   0.339   0.509   1.006
  128SOL    HW1  412   0.287   0.426   0.989
  128SOL    HW2  413   0.416   0.514   0.942
  129SOL     OW  414   1.138   0.380   1.678
  129SOL    HW1  415   1.093   0.443   1.742
  129SOL    HW2  416   1.231   0.411   1.661
  130SOL     OW  417   1.160   0.207   1.477
  130SOL    HW1  418   1.160   0.271   1.554
  130SOL    HW2  419   1.188   0.255   1.394
  131SOL     OW  420   0.008   1.326   0.200
  131SOL    HW1  421  -0.085   1.347   0.169
  131SOL    HW2  422   0.018   1.227   0.213
  132SOL     OW  423   0.088   1.801   0.927
  132SOL    HW1  424   0.046   1.715   0.900
  132SOL    HW2  425   0.182   1.804   0.893
  133SOL     OW  426   0.504   1.568   0.910
  133SOL    HW1  427   0.570   1.642   0.919
  133SOL    HW2  428   0.548   1.489   0.868
  134SOL     OW  429   1.002   0.796   1.238
  134SOL    HW1  430   1.043   0.764   1.324
  134SOL    HW2  431   0.906   0.769   1.235
  135SOL     OW  432   0.040   0.544   1.114
  135SOL    HW1  433   0.125   0.511   1.073
  135SOL    HW2  434   0.053   0.559   1.212
  136SOL     OW  435   0.189   0.520   1.722
  136SOL    HW1  436   0.248   0.480   1.652
  136SOL    HW2  437   0.131   0.591   1.681
  137SOL     OW  438   1.369   0.950   1.660
  137SOL    HW1  439   1.408   1.039   1.680
  137SOL    HW2  440   1.379   0.930   1.563
  138SOL     OW  441   0.815   0.572   0.325
  138SOL    HW1  442   0.822   0.483   0.279
  138SOL    HW2  443   0.721   0.606   0.317
  139SOL     OW  444   1.657   0.604   1.206
  139SOL    HW1  445   1.619   0.535   1.268
  139SOL    HW2  446   1.739   0.568   1.162
  140SOL     OW  447   0.252   1.564   1.744
  140SOL    HW1  448   0.222   1.621   1.820
  140SOL    HW2  449   0.245   1.467   1.770
  141SOL     OW  450   0.671   0.464   1.269
  141SOL    HW1  451   0.637   0.375   1.239
  141SOL    HW2  452   0.697   0.518   1.189
  142SOL     OW  453   0.930   1.678   1.465
  142SOL    HW1  454   0.906   1.660   1.370
  142SOL    HW2  455   0.960   1.772   1.475
  143SOL     OW  456   0.473   0.500   0.191
  143SOL    HW1  457   0.534   0.580   0.195
  143SOL    HW2  458   0.378   0.531   0.198
  144SOL     OW  459   0.159   1.137   1.466
  144SOL    HW1  460   0.181   1.076   1.542
  144SOL    HW2  461   0.169   1.088   1.380
  145SOL     OW  462   1.347   1.059   1.234
  145SOL    HW1  463   1.371   0.996   1.160
  145SOL    HW2  464   1.257   1.099   1.216
  146SOL     OW  465   1.302   0.855   0.309
  146SOL    HW1  466   1.216   0.824   0.351
  146SOL    HW2  467   1.298   0.841   0.210
  147SOL     OW  468   1.759   1.747   1.154
  147SOL    HW1  469   1.820   1.777   1.081
  147SOL    HW2  470   1.721   1.658   1.132
  148SOL     OW  471   0.083   1.258   1.022
  148SOL    HW1  472   0.078   1.257   1.122
  148SOL    HW2  473   0.000   1.217   0.984
  149SOL     OW  474   0.688   1.662   1.716
  149SOL    HW1  475   0.632   1.743   1.725
  149SOL    HW2  476   0.740   1.666   1.630
  150SOL     OW  477   0.903   0.086   0.133
  150SOL    HW1  478   0.954   0.087   0.047
  150SOL    HW2  479   0.959   0.044   0.204
  151SOL     OW  480   1.726   0.135   0.523
  151SOL    HW1  481   1.799   0.118   0.456
  151SOL    HW2  482   1.695   0.048   0.561
  152SOL     OW  483   1.388   1.573   0.477
  152SOL    HW1  484   1.455   1.585   0.403
  152SOL    HW2  485   1.348   1.662   0.500
  153SOL     OW  486   0.130   1.794   1.851
  153SOL    HW1  487   0.089   1.720   1.904
  153SOL    HW2  488   0.194   1.845   1.909
  154SOL     OW  489   1.280   0.927   0.672
  154SOL    HW1  490   1.340   0.846   0.674
  154SOL    HW2  491   1.320   0.996   0.612
  155SOL     OW  492   0.830   1.273   1.422
  155SOL    HW1  493   0.825   1.306   1.517
  155SOL    HW2  494   0.744   1.292   1.376
  156SOL     OW  495   0.672   1.616   0.154
  156SOL    HW1  496   0.681   1.626   0.055
  156SOL    HW2  497   0.632   1.527   0.175
  157SOL     OW  498   1.650   1.720   1.394
  157SOL    HW1  499   1.703   1.730   1.310
  157SOL    HW2  500   1.623   1.810   1.428
  158SOL     OW  501   1.841   0.175   0.963
  158SOL    HW1  502   1.880   0.090   0.927
  158SOL    HW2  503   1.743   0.177   0.944
  159SOL     OW  504   0.263   0.326   0.720
  159SOL    HW1  505   0.184   0.377   0.686
  159SOL    HW2  506   0.254   0.311   0.818
  160SOL     OW  507   1.194   1.612   0.031
  160SOL    HW1  508   1.200   1.519   0.068
  160SOL    HW2  509   1.135   1.612  -0.049
  161SOL     OW  510   0.822   1.002   1.372
  161SOL    HW1  511   0.862   1.001   1.280
  161SOL    HW2  512   0.832   1.094   1.412
  162SOL     OW  513   0.916   0.910   0.291
  162SOL    HW1  514   0.979   0.948   0.223
  162SOL    HW2  515   0.956   0.827   0.330
  163SOL     OW  516   1.504   1.607   0.044
  163SOL    HW1  517   1.412   1.644   0.051
  163SOL    HW2  518   1.542   1.627  -0.046
  164SOL     OW  519   0.372   1.288   1.490
  164SOL    HW1  520   0.359   1.381   1.456
  164SOL    HW2  521   0.288   1.236   1.477
  165SOL     OW  522   1.039   1.098   0.696
  165SOL    HW1  523   0.969   1.051   0.750
  165SOL    HW2  524   1.098   1.030   0.653
  166SOL     OW  525   1.014   0.236   0.971
  166SOL    HW1  526   1.006   0.200   0.878
  166SOL    HW2  527   1.012   0.160   1.036
  167SOL     OW  528   0.590   1.487   0.491
  167SOL    HW1  529   0.632   1.429   0.421
  167SOL    HW2  530   0.546   1.566   0.447
  168SOL     OW  531   1.709   0.385   1.381
  168SOL    HW1  532   1.782   0.454   1.385
  168SOL    HW2  533   1.737   0.310   1.322
  169SOL     OW  534   0.255   1.348   0.290
  169SOL    HW1  535   0.159   1.349   0.263
  169SOL    HW2  536   0.267   1.401   0.374
  170SOL     OW  537   0.105   1.013   1.726
  170SOL    HW1  538   0.028   0.980   1.780
  170SOL    HW2  539   0.190   0.983   1.768
  171SOL     OW  540   0.672   0.203   1.489
  171SOL    HW1  541   0.762   0.187   1.449
  171SOL    HW2  542   0.680   0.208   1.588
  172SOL     OW  543   0.075   0.345   0.033
  172SOL    HW1  544  -0.017   0.317   0.004
  172SOL    HW2  545   0.106   0.422  -0.023
  173SOL     OW  546   1.440   0.856   1.398
  173SOL    HW1  547   1.383   0.908   1.335
  173SOL    HW2  548   1.536   0.868   1.374
  174SOL     OW  549   0.072   0.166   0.318
  174SOL    HW1  550   0.055   0.249   0.264
  174SOL    HW2  551   0.162   0.129   0.296
  175SOL     OW  552   1.183   1.335   0.119
  175SOL    HW1  553   1.084   1.324   0.121
  175SOL    HW2  554   1.217   1.350   0.212
  176SOL     OW  555   0.613   0.842   1.431
  176SOL    HW1  556   0.669   0.923   1.414
  176SOL    HW2  557   0.672   0.762   1.434
  177SOL     OW  558   1.493   1.767   0.959
  177SOL    HW1  559   1.526   1.831   0.890
  177SOL    HW2  560   1.559   1.761   1.034
  178SOL     OW  561   0.716   0.565   1.708
  178SOL    HW1  562   0.735   0.630   1.782
  178SOL    HW2  563   0.776   0.485   1.717
  179SOL     OW  564   1.450   1.220   1.633
  179SOL    HW1  565   1.441   1.210   1.732
  179SOL    HW2  566   1.546   1.213   1.607
  180SOL     OW  567   0.390   1.741   1.560
  180SOL    HW1  568   0.299   1.782   1.558
  180SOL    HW2  569   0.383   1.647   1.592
  181SOL     OW  570   1.674   0.883   1.254
  181SOL    HW1  571   1.647   0.794   1.217
  181SOL    HW2  572   1.675   0.951   1.181
  182SOL     OW  573   1.225   0.325   0.449
  182SOL    HW1  574   1.290   0.251   0.438
  182SOL    HW2  575   1.245   0.375   0.533
  183SOL     OW  576   0.594   0.745   0.652
  183SOL    HW1  577   0.644   0.830   0.633
  183SOL    HW2  578   0.506   0.747   0.604
  184SOL     OW  579   1.777   0.342   1.642
  184SOL    HW1  580   1.760   0.373   1.548
  184SOL    HW2  581   1.693   0.305   1.680
  185SOL     OW  582   1.730   0.934   1.517
  185SOL    HW1  583   1.768   1.025   1.532
  185SOL    HW2  584   1.722   0.917   1.418
  186SOL     OW  585   0.859   1.374   0.016
  186SOL    HW1  586   0.813   1.389   0.104
  186SOL    HW2  587   0.903   1.459  -0.014
  187SOL     OW  588   0.661   1.790   0.953
  187SOL    HW1  589   0.615   1.878   0.940
  187SOL    HW2  590   0.760   1.802   0.946
  188SOL     OW  591   0.859   0.956   0.861
  188SOL    HW1  592   0.913   0.887   0.909
  188SOL    HW2  593   0.827   1.025   0.927
  189SOL     OW  594   1.083   0.984   0.087
  189SOL    HW1  595   1.060   1.037   0.005
  189SOL    HW2  596   1.164   0.928   0.068
  190SOL     OW  597   1.861   1.569   0.851
  190SOL    HW1  598   1.790   1.557   0.781
  190SOL    HW2  599   1.862   1.490   0.911
  191SOL     OW  600   0.221   1.314   1.844
  191SOL    HW1  601   0.156   1.241   1.823
  191SOL    HW2  602   0.225   1.328   1.942
  192SOL     OW  603   0.079   1.240   0.653
  192SOL    HW1  604   0.078   1.193   0.741
  192SOL    HW2  605   0.161   1.212   0.602
  193SOL     OW  606   0.672   1.391   1.624
  193SOL    HW1  607   0.594   1.341   1.662
  193SOL    HW2  608   0.669   1.486   1.655
  194SOL     OW  609   1.824   0.192   1.227
  194SOL    HW1  610   1.820   0.102   1.271
  194SOL    HW2  611   1.827   0.181   1.128
  195SOL     OW  612   0.428   0.424   0.520
  195SOL    HW1  613   0.458   0.352   0.458
  195SOL    HW2  614   0.389   0.384   0.603
  196SOL     OW  615   1.705   1.487   1.104
  196SOL    HW1  616   1.612   1.462   1.077
  196SOL    HW2  617   1.731   1.437   1.186
  197SOL     OW  618   0.317   0.547   1.280
  197SOL    HW1  619   0.355   0.488   1.352
  197SOL    HW2  620   0.357   0.521   1.192
  198SOL     OW  621   0.812   1.586   0.687
  198SOL    HW1  622   0.844   1.596   0.593
  198SOL    HW2  623   0.733   1.524   0.689
  199SOL     OW  624   1.424   0.214   1.112
  199SOL    HW1  625   1.476   0.149   1.167
  199SOL    HW2  626   1.375   0.277   1.173
  200SOL     OW  627   1.001   0.034   1.154
  200SOL    HW1  628   0.938  -0.038   1.123
  200SOL    HW2  629   1.094  -0.002   1.154
  201SOL     OW  630   0.770   1.330   0.301
  201SOL    HW1  631   0.724   1.243   0.318
  201SOL    HW2  632   0.861   1.327   0.342
  202SOL     OW  633   0.618   1.567   1.284
  202SOL    HW1  634   0.613   1.649   1.341
  202SOL    HW2  635   0.707   1.564   1.239
  203SOL     OW  636   1.352   0.052   0.168
  203SOL    HW1  637   1.387   0.011   0.084
  203SOL    HW2  638   1.262   0.014   0.188
  204SOL     OW  639   1.300   0.453   0.691
  204SOL    HW1  640   1.241   0.533   0.695
  204SOL    HW2  641   1.315   0.418   0.784
  205SOL     OW  642   1.593   0.221   0.882
  205SOL    HW1  643   1.509   0.220   0.936
  205SOL    HW2  644   1.595   0.304   0.826
  206SOL     OW  645   0.039   1.077   0.300
  206SOL    HW1  646   0.138   1.066   0.291
  206SOL    HW2  647  -0.001   0.991   0.332
  207SOL     OW  648   0.875   1.646   0.337
  207SOL    HW1  649   0.798   1.611   0.283
  207SOL    HW2  650   0.843   1.717   0.399
  208SOL     OW  651   0.230   0.628   1.975
  208SOL    HW1  652   0.137   0.626   2.012
  208SOL    HW2  653   0.231   0.589   1.883
  209SOL     OW  654   0.225   0.275   2.858
  209SOL    HW1  655   0.260   0.258   2.950
  209SOL    HW2  656   0.137   0.230   2.846
  210SOL     OW  657   0.019   0.368   2.509
  210SOL    HW1  658  -0.063   0.411   2.548
  210SOL    HW2  659  -0.009   0.295   2.446
  211SOL     OW  660   0.569   1.275   3.027
  211SOL    HW1  661   0.476   1.268   2.990
  211SOL    HW2  662   0.580   1.364   3.071
  212SOL     OW  663   1.555   1.511   2.565
  212SOL    HW1  664   1.498   1.495   2.646
  212SOL    HW2  665   1.496   1.521   2.485
  213SOL     OW  666   1.135   0.703   2.579
  213SOL    HW1  667   1.192   0.781   2.554
  213SOL    HW2  668   1.075   0.729   2.655
  214SOL     OW  669   1.755   0.607   2.093
  214SOL    HW1  670   1.743   0.594   1.994
  214SOL    HW2  671   1.725   0.526   2.142
  215SOL     OW  672   0.768   1.144   2.885
  215SOL    HW1  673   0.690   1.161   2.945
  215SOL    HW2  674   0.802   1.231   2.849
  216SOL     OW  675   0.685   1.012   2.527
  216SOL    HW1  676   0.754   0.996   2.597
  216SOL    HW2  677   0.612   1.069   2.565
  217SOL     OW  678   0.335   1.435   2.923
  217SOL    HW1  679   0.257   1.404   2.870
  217SOL    HW2  680   0.393   1.493   2.866
  218SOL     OW  681   1.603   0.447   2.599
  218SOL    HW1  682   1.529   0.493   2.549
  218SOL    HW2  683   1.654   0.515   2.652
  219SOL     OW  684   0.231   1.713   2.345
  219SOL    HW1  685   0.265   1.790   2.399
  219SOL    HW2  686   0.275   1.713   2.255
  220SOL     OW  687   0.230   1.434   2.400
  220SOL    HW1  688   0.204   1.530   2.400
  220SOL    HW2  689   0.159   1.380   2.445
  221SOL     OW  690   0.240   1.091   2.748
  221SOL    HW1  691   0.254   1.007   2.800
  221SOL    HW2  692   0.185   1.155   2.803
  222SOL     OW  693   0.606   0.964   1.985
  222SOL    HW1  694   0.613   1.048   1.931
  222SOL    HW2  695   0.652   0.977   2.073
  223SOL     OW  696   0.122   0.643   2.425
  223SOL    HW1  697   0.077   0.555   2.442
  223SOL    HW2  698   0.121   0.697   2.509
  224SOL     OW  699   1.842   1.767   2.221
  224SOL    HW1  700   1.896   1.738   2.301
  224SOL    HW2  701   1.872   1.857   2.192
  225SOL     OW  702   0.027   1.596   1.979
  225SOL    HW1  703   0.008   1.500   2.000
  225SOL    HW2  704  -0.006   1.654   2.054
  226SOL     OW  705   1.689   0.922   2.474
  226SOL    HW1  706   1.784   0.893   2.482
  226SOL    HW2  707   1.681   0.987   2.399
  227SOL     OW  708   1.641   1.108   2.294
  227SOL    HW1  709   1.727   1.110   2.242
  227SOL    HW2  710   1.655   1.155   2.382
  228SOL     OW  711   0.613   1.365   2.588
  228SOL    HW1  712   0.564   1.278   2.597
  228SOL    HW2  713   0.590   1.408   2.501
  229SOL     OW  714   0.809   0.004   2.364
  229SOL    HW1  715   0.849   0.095   2.355
  229SOL    HW2  716   0.709   0.012   2.370
  230SOL     OW  717   0.197   0.976   3.126
  230SOL    HW1  718   0.286   0.931   3.112
  230SOL    HW2  719   0.124   0.911   3.107
  231SOL     OW  720   1.525   0.999   2.052
  231SOL    HW1  721   1.462   0.923   2.065
  231SOL    HW2  722   1.573   1.017   2.138
  232SOL     OW  723   1.466   1.417   2.815
  232SOL    HW1  724   1.407   1.423   2.895
  232SOL    HW2  725   1.451   1.329   2.769
  233SOL     OW  726   1.667   1.714   2.434
  233SOL    HW1  727   1.626   1.691   2.346
  233SOL    HW2  728   1.649   1.640   2.499
  234SOL     OW  729   0.598   0.729   2.132
  234SOL    HW1  730   0.622   0.798   2.064
  234SOL    HW2  731   0.520   0.762   2.186
  235SOL     OW  732   1.281   0.345   2.806
  235SOL    HW1  733   1.195   0.295   2.793
  235SOL    HW2  734   1.343   0.291   2.862
  236SOL     OW  735   1.576   1.662   2.169
  236SOL    HW1  736   1.665   1.708   2.172
  236SOL    HW2  737   1.555   1.638   2.074
  237SOL     OW  738   1.041   0.701   2.291
  237SOL    HW1  739   1.067   0.697   2.387
  237SOL    HW2  740   0.956   0.650   2.277
  238SOL     OW  741   0.076   0.811   2.651
  238SOL    HW1  742   0.175   0.799   2.660
  238SOL    HW2  743   0.052   0.906   2.672
  239SOL     OW  744   0.865   0.348   2.057
  239SOL    HW1  745   0.924   0.411   2.008
  239SOL    HW2  746   0.884   0.254   2.028
  240SOL     OW  747   1.362   1.144   2.407
  240SOL    HW1  748   1.445   1.115   2.359
  240SOL    HW2  749   1.313   1.211   2.351
  241SOL     OW  750   0.550   0.196   2.747
  241SOL    HW1  751   0.545   0.191   2.847
  241SOL    HW2  752   0.552   0.292   2.718
  242SOL     OW  753   1.008   1.456   2.339
  242SOL    HW1  754   0.962   1.528   2.287
  242SOL    HW2  755   1.004   1.476   2.437
  243SOL     OW  756   0.351   1.801   2.715
  243SOL    HW1  757   0.401   1.715   2.721
  243SOL    HW2  758   0.416   1.878   2.712
  244SOL     OW  759   1.795   1.066   2.735
  244SOL    HW1  760   1.733   1.051   2.659
  244SOL    HW2  761   1.743   1.077   2.820
  245SOL     OW  762   0.321   0.943   2.104
  245SOL    HW1  763   0.403   0.982   2.062
  245SOL    HW2  764   0.294   0.861   2.055
  246SOL     OW  765   1.458   0.735   2.590
  246SOL    HW1  766   1.453   0.670   2.665
  246SOL    HW2  767   1.538   0.794   2.603
  247SOL     OW  768   1.111   1.776   2.099
  247SOL    HW1  769   1.051   1.714   2.149
  247SOL    HW2  770   1.142   1.732   2.014
  248SOL     OW  771   0.464   1.743   2.185
  248SOL    HW1  772   0.497   1.782   2.271
  248SOL    HW2  773   0.540   1.736   2.120
  249SOL     OW  774   1.400   0.107   2.288
  249SOL    HW1  775   1.376   0.070   2.198
  249SOL    HW2  776   1.499   0.123   2.292
  250SOL     OW  777   0.249   1.785   3.103
  250SOL    HW1  778   0.306   1.720   3.153
  250SOL    HW2  779   0.233   1.752   3.010
  251SOL     OW  780   0.940   1.698   2.766
  251SOL    HW1  781   1.020   1.641   2.787
  251SOL    HW2  782   0.891   1.658   2.689
  252SOL     OW  783   0.382   0.700   2.342
  252SOL    HW1  784   0.427   0.610   2.339
  252SOL    HW2  785   0.288   0.689   2.375
  253SOL     OW  786   0.614   0.122   1.979
  253SOL    HW1  787   0.712   0.100   1.986
  253SOL    HW2  788   0.583   0.105   1.886
  254SOL     OW  789   0.803   1.402   2.786
  254SOL    HW1  790   0.893   1.416   2.744
  254SOL    HW2  791   0.732   1.404   2.715
  255SOL     OW  792   0.922   0.503   2.761
  255SOL    HW1  793   0.897   0.494   2.665
  255SOL    HW2  794   0.970   0.421   2.792
  256SOL     OW  795   0.539   0.064   2.374
  256SOL    HW1  796   0.458   0.065   2.432
  256SOL    HW2  797   0.542   0.147   2.319
  257SOL     OW  798   1.434   1.188   1.903
  257SOL    HW1  799   1.466   1.112   1.960
  257SOL    HW2  800   1.342   1.215   1.933
  258SOL     OW  801   0.297   0.035   2.033
  258SOL    HW1  802   0.346   0.119   2.012
  258SOL    HW2  803   0.359  -0.030   2.078
  259SOL     OW  804   0.935   0.236   2.342
  259SOL    HW1  805   0.887   0.277   2.264
  259SOL    HW2  806   1.034   0.234   2.323
  260SOL     OW  807   1.227   1.570   2.655
  260SOL    HW1  808   1.248   1.644   2.590
  260SOL    HW2  809   1.295   1.570   2.728
  261SOL     OW  810   0.459   1.152   2.603
  261SOL    HW1  811   0.388   1.125   2.668
  261SOL    HW2  812   0.433   1.124   2.510
  262SOL     OW  813   1.271   1.797   2.453
  262SOL    HW1  814   1.315   1.861   2.389
  262SOL    HW2  815   1.221   1.849   2.523
  263SOL     OW  816   1.032   0.549   1.878
  263SOL    HW1  817   0.991   0.631   1.839
  263SOL    HW2  818   1.096   0.575   1.951
  264SOL     OW  819   0.866   0.454   2.504
  264SOL    HW1  820   0.834   0.526   2.442
  264SOL    HW2  821   0.890   0.373   2.451
  265SOL     OW  822   1.017   0.039   2.615
  265SOL    HW1  823   0.945   0.044   2.546
  265SOL    HW2  824   0.993  -0.030   2.684
  266SOL     OW  825   1.429   1.173   2.729
  266SOL    HW1  826   1.374   1.089   2.722
  266SOL    HW2  827   1.455   1.202   2.637
  267SOL     OW  828   1.466   0.590   2.854
  267SOL    HW1  829   1.436   0.495   2.861
  267SOL    HW2  830   1.539   0.606   2.920
  268SOL     OW  831   1.857   0.833   2.239
  268SOL    HW1  832   1.899   0.769   2.303
  268SOL    HW2  833   1.819   0.782   2.161
  269SOL     OW  834   0.488   1.385   2.036
  269SOL    HW1  835   0.401   1.370   2.083
  269SOL    HW2  836   0.471   1.411   1.941
  270SOL     OW  837   1.664   1.280   2.519
  270SOL    HW1  838   1.763   1.288   2.533
  270SOL    HW2  839   1.619   1.364   2.550
  271SOL     OW  840   1.390   0.575   1.940
  271SOL    HW1  841   1.336   0.554   2.021
  271SOL    HW2  842   1.481   0.534   1.949
  272SOL     OW  843   0.527   0.256   2.190
  272SOL    HW1  844   0.554   0.197   2.115
  272SOL    HW2  845   0.527   0.351   2.159
  273SOL     OW  846   1.111   1.195   2.962
  273SOL    HW1  847   1.071   1.239   3.043
  273SOL    HW2  848   1.070   1.232   2.879
  274SOL     OW  849   1.638   1.099   2.941
  274SOL    HW1  850   1.643   1.180   3.000
  274SOL    HW2  851   1.552   1.101   2.890
  275SOL     OW  852   0.705   1.050   2.230
  275SOL    HW1  853   0.691   1.057   2.329
  275SOL    HW2  854   0.789   0.999   2.212
  276SOL     OW  855   0.410   0.813   3.113
  276SOL    HW1  856   0.496   0.825   3.163
  276SOL    HW2  857   0.368   0.726   3.140
  277SOL     OW  858   0.367   1.100   2.363
  277SOL    HW1  859   0.360   1.183   2.307
  277SOL    HW2  860   0.371   1.020   2.303
  278SOL     OW  861   0.566   0.537   2.727
  278SOL    HW1  862   0.578   0.603   2.653
  278SOL    HW2  863   0.612   0.571   2.810
  279SOL     OW  864   1.252   1.348   2.250
  279SOL    HW1  865   1.302   1.425   2.290
  279SOL    HW2  866   1.157   1.350   2.282
  280SOL     OW  867   1.272   1.445   3.004
  280SOL    HW1  868   1.319   1.458   3.091
  280SOL    HW2  869   1.206   1.371   3.013
  281SOL     OW  870   1.582   0.639   2.334
  281SOL    HW1  871   1.551   0.700   2.407
  281SOL    HW2  872   1.632   0.691   2.265
  282SOL     OW  873   0.573   0.870   2.891
  282SOL    HW1  874   0.617   0.959   2.882
  282SOL    HW2  875   0.510   0.870   2.968
  283SOL     OW  876   1.360   0.862   2.907
  283SOL    HW1  877   1.285   0.862   2.841
  283SOL    HW2  878   1.397   0.770   2.916
  284SOL     OW  879   1.209   0.525   2.137
  284SOL    HW1  880   1.222   0.441   2.191
  284SOL    HW2  881   1.180   0.599   2.197
  285SOL     OW  882   0.307   0.213   3.093
  285SOL    HW1  883   0.284   0.250   3.183
  285SOL    HW2  884   0.277   0.118   3.087
  286SOL     OW  885   0.732   0.634   2.926
  286SOL    HW1  886   0.791   0.608   2.850
  286SOL    HW2  887   0.704   0.730   2.915
  287SOL     OW  888   0.307   0.063   2.480
  287SOL    HW1  889   0.296   0.157   2.513
  287SOL    HW2  890   0.302   0.000   2.557
  288SOL     OW  891   1.622   0.367   2.236
  288SOL    HW1  892   1.624   0.291   2.300
  288SOL    HW2  893   1.574   0.444   2.276
  289SOL     OW  894   1.023   0.766   2.828
  289SOL    HW1  895   1.038   0.787   2.924
  289SOL    HW2  896   0.993   0.671   2.819
  290SOL     OW  897   1.540   0.274   1.987
  290SOL    HW1  898   1.479   0.199   2.010
  290SOL    HW2  899   1.562   0.326   2.070
  291SOL     OW  900   1.303   0.838   1.904
  291SOL    HW1  901   1.337   0.745   1.919
  291SOL    HW2  902   1.321   0.865   1.809
  292SOL     OW  903   1.068   1.333   2.711
  292SOL    HW1  904   1.075   1.249   2.656
  292SOL    HW2  905   1.130   1.402   2.675
  293SOL     OW  906   0.319   0.810   2.811
  293SOL    HW1  907   0.412   0.846   2.816
  293SOL    HW2  908   0.313   0.725   2.863
  294SOL     OW  909   0.339   0.509   2.868
  294SOL    HW1  910   0.287   0.426   2.851
  294SOL    HW2  911   0.416   0.514   2.804
  295SOL     OW  912   1.160   0.207   3.339
  295SOL    HW1  913   1.160   0.271   3.416
  295SOL    HW2  914   1.188   0.255   3.256
  296SOL     OW  915   0.008   1.326   2.062
  296SOL    HW1  916  -0.085   1.347   2.031
  296SOL    HW2  917   0.018   1.227   2.075
  297SOL     OW  918   0.088   1.801   2.789
  297SOL    HW1  919   0.046   1.715   2.762
  297SOL    HW2  920   0.182   1.804   2.755
  298SOL     OW  921   0.504   1.568   2.772
  298SOL    HW1  922   0.570   1.642   2.781
  298SOL    HW2  923   0.548   1.489   2.730
  299SOL     OW  924   1.002   0.796   3.100
  299SOL    HW1  925   1.043   0.764   3.186
  299SOL    HW2  926   0.906   0.769   3.097
  300SOL     OW  927   0.040   0.544   2.976
  300SOL    HW1  928   0.125   0.511   2.935
  300SOL    HW2  929   0.053   0.559   3.074
  301SOL     OW  930   0.815   0.572   2.187
  301SOL    HW1  931   0.822   0.483   2.141
  301SOL    HW2  932   0.721   0.606   2.179
  302SOL     OW  933   1.657   0.604   3.068
  302SOL    HW1  934   1.619   0.535   3.130
  302SOL    HW2  935   1.739   0.568   3.024
  303SOL     OW  936   0.671   0.464   3.131
  303SOL    HW1  937   0.637   0.375   3.101
  303SOL    HW2  938   0.697   0.518   3.051
  304SOL     OW  939   0.473   0.500   2.053
  304SOL    HW1  940   0.534   0.580   2.057
  304SOL    HW2  941   0.378   0.531   2.060
  305SOL     OW  942   1.302   0.855   2.171
  305SOL    HW1  943   1.216   0.824   2.213
  305SOL    HW2  944   1.298   0.841   2.072
  306SOL     OW  945   1.759   1.747   3.016
  306SOL    HW1  946   1.820   1.777   2.943
  306SOL    HW2  947   1.721   1.658   2.994
  307SOL     OW  948   0.083   1.258   2.884
  307SOL    HW1  949   0.078   1.257   2.984
  307SOL    HW2  950   0.000   1.217   2.846
  308SOL     OW  951   1.726   0.135   2.385
  308SOL    HW1  952   1.799   0.118   2.318
  308SOL    HW2  953   1.695   0.048   2.423
  309SOL     OW  954   1.388   1.573   2.339
  309SOL    HW1  955   1.455   1.585   2.265
  309SOL    HW2  956   1.348   1.662   2.362
  310SOL     OW  957   1.280   0.927   2.534
  310SOL    HW1  958   1.340   0.846   2.536
  310SOL    HW2  959   1.320   0.996   2.474
  311SOL     OW  960   0.672   1.616   2.016
  311SOL    HW1  961   0.681   1.626   1.917
  311SOL    HW2  962   0.632   1.527   2.037
  312SOL     OW  963   1.841   0.175   2.825
  312SOL    HW1  964   1.880   0.090   2.789
  312SOL    HW2  965   1.743   0.177   2.806
  313SOL     OW  966   0.263   0.326   2.582
  313SOL    HW1  967   0.184   0.377   2.548
  313SOL    HW2  968   0.254   0.311   2.680
  314SOL     OW  969   1.194   1.612   1.893
  314SOL    HW1  970   1.200   1.519   1.930
  314SOL    HW2  971   1.135   1.612   1.813
  315SOL     OW  972   0.822   1.002   3.234
  315SOL    HW1  973   0.862   1.001   3.142
  315SOL    HW2  974   0.832   1.094   3.274
  316SOL     OW  975   0.916   0.910   2.153
  316SOL    HW1  976   0.979   0.948   2.085
  316SOL    HW2  977   0.956   0.827   2.192
  317SOL     OW  978   1.039   1.098   2.558
  317SOL    HW1  979   0.969   1.051   2.612
  317SOL    HW2  980   1.098   1.030   2.515
  318SOL     OW  981   1.014   0.236   2.833
  318SOL    HW1  982   1.006   0.200   2.740
  318SOL    HW2  983   1.012   0.160   2.898
  319SOL     OW  984   0.590   1.487   2.353
  319SOL    HW1  985   0.632   1.429   2.283
  319SOL    HW2  986   0.546   1.566   2.309
  320SOL     OW  987   1.709   0.385   3.243
  320SOL    HW1  988   1.782   0.454   3.247
  320SOL    HW2  989   1.737   0.310   3.184
  321SOL     OW  990   0.255   1.348   2.152
  321SOL    HW1  991   0.159   1.349   2.125
  321SOL    HW2  992   0.267   1.401   2.236
  322SOL     OW  993   0.075   0.345   1.895
  322SOL    HW1  994  -0.017   0.317   1.866
  322SOL    HW2  995   0.106   0.422   1.839
  323SOL     OW  996   0.072   0.166   2.180
  323SOL    HW1  997   0.055   0.249   2.126
  323SOL    HW2  998   0.162   0.129   2.158
  324SOL     OW  999   1.183   1.335   1.981
  324SOL    HW1 1000   1.084   1.324   1.983
  324SOL    HW2 1001   1.217   1.350   2.074
  325SOL     OW 1002   1.493   1.767   2.821
  325SOL    HW1 1003   1.526   1.831   2.752
  325SOL    HW2 1004   1.559   1.761   2.896
  326SOL     OW 1005   1.674   0.883   3.116
  326SOL    HW1 1006   1.647   0.794   3.079
  326SOL    HW2 1007   1.675   0.951   3.043
  327SOL     OW 1008   1.225   0.325   2.311
  327SOL    HW1 1009   1.290   0.251   2.300
  327SOL    HW2 1010   1.245   0.375   2.395
  328SOL     OW 1011   0.594   0.745   2.514
  328SOL    HW1 1012   0.644   0.830   2.495
  328SOL    HW2 1013   0.506   0.747   2.466
  329SOL     OW 1014   1.730   0.934   3.379
  329SOL    HW1 1015   1.768   1.025   3.394
  329SOL    HW2 1016   1.722   0.917   3.280
  330SOL     OW 1017   0.859   1.374   1.878
  330SOL    HW1 1018   0.813   1.389   1.966
  330SOL    HW2 1019   0.903   1.459   1.848
  331SOL     OW 1020   0.661   1.790   2.815
  331SOL    HW1 1021   0.615   1.878   2.802
  331SOL    HW2 1022   0.760   1.802   2.808
  332SOL     OW 1023   0.859   0.956   2.723
  332SOL    HW1 1024   0.913   0.887   2.771
  332SOL    HW2 1025   0.827   1.025   2.789
  333SOL     OW 1026   1.083   0.984   1.949
  333SOL    HW1 1027   1.060   1.037   1.867
  333SOL    HW2 1028   1.164   0.928   1.930
  334SOL     OW 1029   1.861   1.569   2.713
  334SOL    HW1 1030   1.790   1.557   2.643
  334SOL    HW2 1031   1.862   1.490   2.773
  335SOL     OW 1032   0.079   1.240   2.515
  335SOL    HW1 1033   0.078   1.193   2.603
  335SOL    HW2 1034   0.161   1.212   2.464
  336SOL     OW 1035   1.824   0.192   3.089
  336SOL    HW1 1036   1.820   0.102   3.133
  336SOL    HW2 1037   1.827   0.181   2.990
  337SOL     OW 1038   0.428   0.424   2.382
  337SOL    HW1 1039   0.458   0.352   2.320
  337SOL    HW2 1040   0.389   0.384   2.465
  338SOL     OW 1041   1.705   1.487   2.966
  338SOL    HW1 1042   1.612   1.462   2.939
  338SOL    HW2 1043   1.731   1.437   3.048
  339SOL     OW 1044   0.812   1.586   2.549
  339SOL    HW1 1045   0.844   1.596   2.455
  339SOL    HW2 1046   0.733   1.524   2.551
  340SOL     OW 1047   1.424   0.214   2.974
  340SOL    HW1 1048   1.476   0.149   3.029
  340SOL    HW2 1049   1.375   0.277   3.035
  341SOL     OW 1050   1.001   0.034   3.016
  341SOL    HW1 1051   0.938  -0.038   2.985
  341SOL    HW2 1052   1.094  -0.002   3.016
  342SOL     OW 1053   0.770   1.330   2.163
  342SOL    HW1 1054   0.724   1.243   2.180
  342SOL    HW2 1055   0.861   1.327   2.204
  343SOL     OW 1056   1.352   0.052   2.030
  343SOL    HW1 1057   1.387   0.011   1.946
  343SOL    HW2 1058   1.262   0.014   2.050
  344SOL     OW 1059   1.300   0.453   2.553
  344SOL    HW1 1060   1.241   0.533   2.557
  344SOL    HW2 1061   1.315   0.418   2.646
  345SOL     OW 1062   1.593   0.221   2.744
  345SOL    HW1 1063   1.509   0.220   2.798
  345SOL    HW2 1064   1.595   0.304   2.688
  346SOL     OW 1065   0.039   1.077   2.162
  346SOL    HW1 1066   0.138   1.066   2.153
  346SOL    HW2 1067  -0.001   0.991   2.194
  347SOL     OW 1068   0.875   1.646   2.199
  347SOL    HW1 1069   0.798   1.611   2.145
  347SOL    HW2 1070   0.843   1.717   2.261
  348SOL     OW 1071   0.230   2.490   0.113
  348SOL    HW1 1072   0.137   2.488   0.150
  348SOL    HW2 1073   0.231   2.451   0.021
  349SOL     OW 1074   0.225   2.137   0.996
  349SOL    HW1 1075   0.260   2.120   1.088
  349SOL    HW2 1076   0.137   2.092   0.984
  350SOL     OW 1077   0.019   2.230   0.647
  350SOL    HW1 1078  -0.063   2.273   0.686
  350SOL    HW2 1079  -0.009   2.157   0.584
  351SOL     OW 1080   1.135   2.565   0.717
  351SOL    HW1 1081   1.192   2.643   0.692
  351SOL    HW2 1082   1.075   2.591   0.793
  352SOL     OW 1083   1.755   2.469   0.231
  352SOL    HW1 1084   1.743   2.456   0.132
  352SOL    HW2 1085   1.725   2.388   0.280
  353SOL     OW 1086   0.768   3.006   1.023
  353SOL    HW1 1087   0.690   3.023   1.083
  353SOL    HW2 1088   0.802   3.093   0.987
  354SOL     OW 1089   0.850   2.660   1.823
  354SOL    HW1 1090   0.846   2.736   1.888
  354SOL    HW2 1091   0.872   2.696   1.732
  355SOL     OW 1092   0.685   2.874   0.665
  355SOL    HW1 1093   0.754   2.858   0.735
  355SOL    HW2 1094   0.612   2.931   0.703
  356SOL     OW 1095   0.438   2.254   1.499
  356SOL    HW1 1096   0.520   2.198   1.508
  356SOL    HW2 1097   0.357   2.196   1.503
  357SOL     OW 1098   1.603   2.309   0.737
  357SOL    HW1 1099   1.529   2.355   0.687
  357SOL    HW2 1100   1.654   2.377   0.790
  358SOL     OW 1101   0.240   2.953   0.886
  358SOL    HW1 1102   0.254   2.869   0.938
  358SOL    HW2 1103   0.185   3.017   0.941
  359SOL     OW 1104   0.606   2.826   0.123
  359SOL    HW1 1105   0.613   2.910   0.069
  359SOL    HW2 1106   0.652   2.839   0.211
  360SOL     OW 1107   1.594   1.976   1.480
  360SOL    HW1 1108   1.576   2.043   1.408
  360SOL    HW2 1109   1.591   2.022   1.569
  361SOL     OW 1110   0.122   2.505   0.563
  361SOL    HW1 1111   0.077   2.417   0.580
  361SOL    HW2 1112   0.121   2.559   0.647
  362SOL     OW 1113   1.689   2.784   0.612
  362SOL    HW1 1114   1.784   2.755   0.620
  362SOL    HW2 1115   1.681   2.849   0.537
  363SOL     OW 1116   1.641   2.970   0.432
  363SOL    HW1 1117   1.727   2.972   0.380
  363SOL    HW2 1118   1.655   3.017   0.520
  364SOL     OW 1119   0.113   2.599   1.597
  364SOL    HW1 1120   0.201   2.586   1.642
  364SOL    HW2 1121   0.100   2.696   1.575
  365SOL     OW 1122   0.613   3.227   0.726
  365SOL    HW1 1123   0.564   3.140   0.735
  365SOL    HW2 1124   0.590   3.270   0.639
  366SOL     OW 1125   1.293   3.090   1.423
  366SOL    HW1 1126   1.330   3.017   1.365
  366SOL    HW2 1127   1.345   3.095   1.508
  367SOL     OW 1128   0.809   1.866   0.502
  367SOL    HW1 1129   0.849   1.957   0.493
  367SOL    HW2 1130   0.709   1.874   0.508
  368SOL     OW 1131   0.197   2.838   1.264
  368SOL    HW1 1132   0.286   2.793   1.250
  368SOL    HW2 1133   0.124   2.773   1.245
  369SOL     OW 1134   1.525   2.861   0.190
  369SOL    HW1 1135   1.462   2.785   0.203
  369SOL    HW2 1136   1.573   2.879   0.276
  370SOL     OW 1137   0.317   2.113   1.801
  370SOL    HW1 1138   0.388   2.184   1.807
  370SOL    HW2 1139   0.229   2.152   1.829
  371SOL     OW 1140   0.598   2.591   0.270
  371SOL    HW1 1141   0.622   2.660   0.202
  371SOL    HW2 1142   0.520   2.624   0.324
  372SOL     OW 1143   1.281   2.207   0.944
  372SOL    HW1 1144   1.195   2.157   0.931
  372SOL    HW2 1145   1.343   2.153   1.000
  373SOL     OW 1146   0.807   2.467   1.465
  373SOL    HW1 1147   0.760   2.464   1.554
  373SOL    HW2 1148   0.756   2.412   1.399
  374SOL     OW 1149   1.394   2.331   1.674
  374SOL    HW1 1150   1.374   2.374   1.762
  374SOL    HW2 1151   1.472   2.269   1.683
  375SOL     OW 1152   0.973   2.752   1.572
  375SOL    HW1 1153   1.019   2.668   1.543
  375SOL    HW2 1154   0.917   2.786   1.497
  376SOL     OW 1155   0.991   2.272   1.242
  376SOL    HW1 1156   0.914   2.306   1.296
  376SOL    HW2 1157   0.957   2.221   1.163
  377SOL     OW 1158   1.041   2.563   0.429
  377SOL    HW1 1159   1.067   2.559   0.525
  377SOL    HW2 1160   0.956   2.512   0.415
  378SOL     OW 1161   0.076   2.673   0.789
  378SOL    HW1 1162   0.175   2.661   0.798
  378SOL    HW2 1163   0.052   2.768   0.810
  379SOL     OW 1164   0.865   2.210   0.195
  379SOL    HW1 1165   0.924   2.273   0.146
  379SOL    HW2 1166   0.884   2.116   0.166
  380SOL     OW 1167   1.719   2.447   1.831
  380SOL    HW1 1168   1.693   2.536   1.795
  380SOL    HW2 1169   1.717   2.379   1.758
  381SOL     OW 1170   1.362   3.006   0.545
  381SOL    HW1 1171   1.445   2.977   0.497
  381SOL    HW2 1172   1.313   3.073   0.489
  382SOL     OW 1173   0.550   2.058   0.885
  382SOL    HW1 1174   0.545   2.053   0.985
  382SOL    HW2 1175   0.552   2.154   0.856
  383SOL     OW 1176   1.795   2.928   0.873
  383SOL    HW1 1177   1.733   2.913   0.797
  383SOL    HW2 1178   1.743   2.939   0.958
  384SOL     OW 1179   0.321   2.805   0.242
  384SOL    HW1 1180   0.403   2.844   0.200
  384SOL    HW2 1181   0.294   2.723   0.193
  385SOL     OW 1182   1.458   2.597   0.728
  385SOL    HW1 1183   1.453   2.532   0.803
  385SOL    HW2 1184   1.538   2.656   0.741
  386SOL     OW 1185   0.202   2.147   1.498
  386SOL    HW1 1186   0.122   2.207   1.485
  386SOL    HW2 1187   0.192   2.098   1.584
  387SOL     OW 1188   1.400   1.969   0.426
  387SOL    HW1 1189   1.376   1.932   0.336
  387SOL    HW2 1190   1.499   1.985   0.430
  388SOL     OW 1191   0.382   2.562   0.480
  388SOL    HW1 1192   0.427   2.472   0.477
  388SOL    HW2 1193   0.288   2.551   0.513
  389SOL     OW 1194   1.547   2.084   1.729
  389SOL    HW1 1195   1.542   2.121   1.821
  389SOL    HW2 1196   1.475   2.015   1.717
  390SOL     OW 1197   0.614   1.984   0.117
  390SOL    HW1 1198   0.712   1.962   0.124
  390SOL    HW2 1199   0.583   1.967   0.024
  391SOL     OW 1200   0.781   2.126   1.749
  391SOL    HW1 1201   0.848   2.065   1.792
  391SOL    HW2 1202   0.708   2.145   1.814
  392SOL     OW 1203   1.351   2.452   1.433
  392SOL    HW1 1204   1.379   2.409   1.518
  392SOL    HW2 1205   1.376   2.548   1.434
  393SOL     OW 1206   0.922   2.365   0.899
  393SOL    HW1 1207   0.897   2.356   0.803
  393SOL    HW2 1208   0.970   2.283   0.930
  394SOL     OW 1209   0.539   1.926   0.512
  394SOL    HW1 1210   0.458   1.927   0.570
  394SOL    HW2 1211   0.542   2.009   0.457
  395SOL     OW 1212   0.297   1.897   0.171
  395SOL    HW1 1213   0.346   1.981   0.150
  395SOL    HW2 1214   0.359   1.832   0.216
  396SOL     OW 1215   0.935   2.098   0.480
  396SOL    HW1 1216   0.887   2.139   0.402
  396SOL    HW2 1217   1.034   2.096   0.461
  397SOL     OW 1218   1.076   2.545   1.464
  397SOL    HW1 1219   0.996   2.484   1.467
  397SOL    HW2 1220   1.157   2.492   1.440
  398SOL     OW 1221   0.459   3.014   0.741
  398SOL    HW1 1222   0.388   2.987   0.806
  398SOL    HW2 1223   0.433   2.986   0.648
  399SOL     OW 1224   1.032   2.411   0.016
  399SOL    HW1 1225   0.991   2.493  -0.023
  399SOL    HW2 1226   1.096   2.437   0.089
  400SOL     OW 1227   0.078   2.418   1.386
  400SOL    HW1 1228   0.170   2.417   1.345
  400SOL    HW2 1229   0.072   2.492   1.453
  401SOL     OW 1230   0.561   2.084   1.147
  401SOL    HW1 1231   0.599   2.000   1.184
  401SOL    HW2 1232   0.473   2.103   1.191
  402SOL     OW 1233   0.866   2.316   0.642
  402SOL    HW1 1234   0.834   2.388   0.580
  402SOL    HW2 1235   0.890   2.235   0.589
  403SOL     OW 1236   1.017   1.901   0.753
  403SOL    HW1 1237   0.945   1.906   0.684
  403SOL    HW2 1238   0.993   1.832   0.822
  404SOL     OW 1239   1.429   3.035   0.867
  404SOL    HW1 1240   1.374   2.951   0.860
  404SOL    HW2 1241   1.455   3.064   0.775
  405SOL     OW 1242   1.466   2.452   0.992
  405SOL    HW1 1243   1.436   2.357   0.999
  405SOL    HW2 1244   1.539   2.468   1.058
  406SOL     OW 1245   1.857   2.695   0.377
  406SOL    HW1 1246   1.899   2.631   0.441
  406SOL    HW2 1247   1.819   2.644   0.299
  407SOL     OW 1248   1.390   2.437   0.078
  407SOL    HW1 1249   1.336   2.416   0.159
  407SOL    HW2 1250   1.481   2.396   0.087
  408SOL     OW 1251   0.527   2.118   0.328
  408SOL    HW1 1252   0.554   2.059   0.253
  408SOL    HW2 1253   0.527   2.213   0.297
  409SOL     OW 1254   1.754   3.085   1.588
  409SOL    HW1 1255   1.845   3.046   1.575
  409SOL    HW2 1256   1.762   3.181   1.612
  410SOL     OW 1257   1.638   2.961   1.079
  410SOL    HW1 1258   1.643   3.042   1.138
  410SOL    HW2 1259   1.552   2.963   1.028
  411SOL     OW 1260   0.915   1.951   1.402
  411SOL    HW1 1261   0.940   1.931   1.307
  411SOL    HW2 1262   0.987   2.007   1.444
  412SOL     OW 1263   0.980   2.978   1.719
  412SOL    HW1 1264   0.881   2.984   1.729
  412SOL    HW2 1265   1.003   2.898   1.663
  413SOL     OW 1266   0.705   2.912   0.368
  413SOL    HW1 1267   0.691   2.919   0.467
  413SOL    HW2 1268   0.789   2.861   0.350
  414SOL     OW 1269   0.410   2.675   1.251
  414SOL    HW1 1270   0.496   2.687   1.301
  414SOL    HW2 1271   0.368   2.588   1.278
  415SOL     OW 1272   1.274   2.248   1.262
  415SOL    HW1 1273   1.295   2.322   1.326
  415SOL    HW2 1274   1.185   2.265   1.219
  416SOL     OW 1275   0.367   2.962   0.501
  416SOL    HW1 1276   0.360   3.045   0.445
  416SOL    HW2 1277   0.371   2.882   0.441
  417SOL     OW 1278   0.566   2.399   0.865
  417SOL    HW1 1279   0.578   2.465   0.791
  417SOL    HW2 1280   0.612   2.433   0.948
  418SOL     OW 1281   1.582   2.501   0.472
  418SOL    HW1 1282   1.551   2.562   0.545
  418SOL    HW2 1283   1.632   2.553   0.403
  419SOL     OW 1284   0.402   2.613   1.598
  419SOL    HW1 1285   0.470   2.668   1.551
  419SOL    HW2 1286   0.442   2.525   1.625
  420SOL     OW 1287   1.587   2.641   1.670
  420SOL    HW1 1288   1.495   2.679   1.665
  420SOL    HW2 1289   1.647   2.688   1.605
  421SOL     OW 1290   1.013   1.967   1.770
  421SOL    HW1 1291   1.019   2.052   1.718
  421SOL    HW2 1292   1.045   1.891   1.713
  422SOL     OW 1293   0.504   1.912   1.740
  422SOL    HW1 1294   0.462   1.855   1.670
  422SOL    HW2 1295   0.438   1.981   1.772
  423SOL     OW 1296   0.573   2.732   1.029
  423SOL    HW1 1297   0.617   2.821   1.020
  423SOL    HW2 1298   0.510   2.732   1.106
  424SOL     OW 1299   1.360   2.724   1.045
  424SOL    HW1 1300   1.285   2.724   0.979
  424SOL    HW2 1301   1.397   2.632   1.054
  425SOL     OW 1302   1.209   2.387   0.275
  425SOL    HW1 1303   1.222   2.303   0.329
  425SOL    HW2 1304   1.180   2.461   0.335
  426SOL     OW 1305   0.307   2.075   1.231
  426SOL    HW1 1306   0.284   2.112   1.321
  426SOL    HW2 1307   0.277   1.980   1.225
  427SOL     OW 1308   0.037   3.172   1.282
  427SOL    HW1 1309   0.090   3.123   1.350
  427SOL    HW2 1310   0.059   3.270   1.287
  428SOL     OW 1311   0.732   2.496   1.064
  428SOL    HW1 1312   0.791   2.470   0.988
  428SOL    HW2 1313   0.704   2.592   1.053
  429SOL     OW 1314   1.728   2.797   1.854
  429SOL    HW1 1315   1.682   2.790   1.765
  429SOL    HW2 1316   1.666   2.841   1.920
  430SOL     OW 1317   0.307   1.925   0.618
  430SOL    HW1 1318   0.296   2.019   0.651
  430SOL    HW2 1319   0.302   1.862   0.695
  431SOL     OW 1320   1.622   2.229   0.374
  431SOL    HW1 1321   1.624   2.153   0.438
  431SOL    HW2 1322   1.574   2.306   0.414
  432SOL     OW 1323   1.023   2.628   0.966
  432SOL    HW1 1324   1.038   2.649   1.062
  432SOL    HW2 1325   0.993   2.533   0.957
  433SOL     OW 1326   0.350   2.760   1.804
  433SOL    HW1 1327   0.426   2.804   1.852
  433SOL    HW2 1328   0.385   2.713   1.722
  434SOL     OW 1329   1.540   2.136   0.125
  434SOL    HW1 1330   1.479   2.061   0.148
  434SOL    HW2 1331   1.562   2.188   0.208
  435SOL     OW 1332   1.303   2.700   0.042
  435SOL    HW1 1333   1.337   2.607   0.057
  435SOL    HW2 1334   1.321   2.727  -0.053
  436SOL     OW 1335   0.319   2.672   0.949
  436SOL    HW1 1336   0.412   2.708   0.954
  436SOL    HW2 1337   0.313   2.587   1.001
  437SOL     OW 1338   0.339   2.371   1.006
  437SOL    HW1 1339   0.287   2.288   0.989
  437SOL    HW2 1340   0.416   2.376   0.942
  438SOL     OW 1341   1.138   2.242   1.678
  438SOL    HW1 1342   1.093   2.305   1.742
  438SOL    HW2 1343   1.231   2.273   1.661
  439SOL     OW 1344   1.160   2.069   1.477
  439SOL    HW1 1345   1.160   2.133   1.554
  439SOL    HW2 1346   1.188   2.117   1.394
  440SOL     OW 1347   1.002   2.658   1.238
  440SOL    HW1 1348   1.043   2.626   1.324
  440SOL    HW2 1349   0.906   2.631   1.235
  441SOL     OW 1350   0.040   2.406   1.114
  441SOL    HW1 1351   0.125   2.373   1.073
  441SOL    HW2 1352   0.053   2.421   1.212
  442SOL     OW 1353   0.189   2.382   1.722
  442SOL    HW1 1354   0.248   2.342   1.652
  442SOL    HW2 1355   0.131   2.453   1.681
  443SOL     OW 1356   1.369   2.812   1.660
  443SOL    HW1 1357   1.408   2.901   1.680
  443SOL    HW2 1358   1.379   2.792   1.563
  444SOL     OW 1359   0.815   2.434   0.325
  444SOL    HW1 1360   0.822   2.345   0.279
  444SOL    HW2 1361   0.721   2.468   0.317
  445SOL     OW 1362   1.657   2.466   1.206
  445SOL    HW1 1363   1.619   2.397   1.268
  445SOL    HW2 1364   1.739   2.430   1.162
  446SOL     OW 1365   0.671   2.326   1.269
  446SOL    HW1 1366   0.637   2.237   1.239
  446SOL    HW2 1367   0.697   2.380   1.189
  447SOL     OW 1368   0.473   2.362   0.191
  447SOL    HW1 1369   0.534   2.442   0.195
  447SOL    HW2 1370   0.378   2.393   0.198
  448SOL     OW 1371   0.159   2.999   1.466
  448SOL    HW1 1372   0.181   2.938   1.542
  448SOL    HW2 1373   0.169   2.950   1.380
  449SOL     OW 1374   1.347   2.921   1.234
  449SOL    HW1 1375   1.371   2.858   1.160
  449SOL    HW2 1376   1.257   2.961   1.216
  450SOL     OW 1377   1.302   2.717   0.309
  450SOL    HW1 1378   1.216   2.686   0.351
  450SOL    HW2 1379   1.298   2.703   0.210
  451SOL     OW 1380   0.083   3.120   1.022
  451SOL    HW1 1381   0.078   3.119   1.122
  451SOL    HW2 1382   0.000   3.079   0.984
  452SOL     OW 1383   0.903   1.948   0.133
  452SOL    HW1 1384   0.954   1.949   0.047
  452SOL    HW2 1385   0.959   1.906   0.204
  453SOL     OW 1386   1.726   1.997   0.523
  453SOL    HW1 1387   1.799   1.980   0.456
  453SOL    HW2 1388   1.695   1.910   0.561
  454SOL     OW 1389   1.280   2.789   0.672
  454SOL    HW1 1390   1.340   2.708   0.674
  454SOL    HW2 1391   1.320   2.858   0.612
  455SOL     OW 1392   1.841   2.037   0.963
  455SOL    HW1 1393   1.880   1.952   0.927
  455SOL    HW2 1394   1.743   2.039   0.944
  456SOL     OW 1395   0.263   2.188   0.720
  456SOL    HW1 1396   0.184   2.239   0.686
  456SOL    HW2 1397   0.254   2.173   0.818
  457SOL     OW 1398   0.822   2.864   1.372
  457SOL    HW1 1399   0.862   2.863   1.280
  457SOL    HW2 1400   0.832   2.956   1.412
  458SOL     OW 1401   0.916   2.772   0.291
  458SOL    HW1 1402   0.979   2.810   0.223
  458SOL    HW2 1403   0.956   2.689   0.330
  459SOL     OW 1404   0.372   3.150   1.490
  459SOL    HW1 1405   0.359   3.243   1.456
  459SOL    HW2 1406   0.288   3.098   1.477
  460SOL     OW 1407   1.614   3.154   1.289
  460SOL    HW1 1408   1.674   3.157   1.369
  460SOL    HW2 1409   1.539   3.218   1.302
  461SOL     OW 1410   1.039   2.960   0.696
  461SOL    HW1 1411   0.969   2.913   0.750
  461SOL    HW2 1412   1.098   2.892   0.653
  462SOL     OW 1413   1.014   2.098   0.971
  462SOL    HW1 1414   1.006   2.062   0.878
  462SOL    HW2 1415   1.012   2.022   1.036
  463SOL     OW 1416   1.709   2.247   1.381
  463SOL    HW1 1417   1.782   2.316   1.385
  463SOL    HW2 1418   1.737   2.172   1.322
  464SOL     OW 1419   0.105   2.875   1.726
  464SOL    HW1 1420   0.028   2.842   1.780
  464SOL    HW2 1421   0.190   2.845   1.768
  465SOL     OW 1422   0.672   2.065   1.489
  465SOL    HW1 1423   0.762   2.049   1.449
  465SOL    HW2 1424   0.680   2.070   1.588
  466SOL     OW 1425   0.075   2.207   0.033
  466SOL    HW1 1426  -0.017   2.179   0.004
  466SOL    HW2 1427   0.106   2.284  -0.023
  467SOL     OW 1428   1.440   2.718   1.398
  467SOL    HW1 1429   1.383   2.770   1.335
  467SOL    HW2 1430   1.536   2.730   1.374
  468SOL     OW 1431   0.072   2.028   0.318
  468SOL    HW1 1432   0.055   2.111   0.264
  468SOL    HW2 1433   0.162   1.991   0.296
  469SOL     OW 1434   0.613   2.704   1.431
  469SOL    HW1 1435   0.669   2.785   1.414
  469SOL    HW2 1436   0.672   2.624   1.434
  470SOL     OW 1437   0.716   2.427   1.708
  470SOL    HW1 1438   0.735   2.492   1.782
  470SOL    HW2 1439   0.776   2.347   1.717
  471SOL     OW 1440   1.450   3.082   1.633
  471SOL    HW1 1441   1.441   3.072   1.732
  471SOL    HW2 1442   1.546   3.075   1.607
  472SOL     OW 1443   1.674   2.745   1.254
  472SOL    HW1 1444   1.647   2.656   1.217
  472SOL    HW2 1445   1.675   2.813   1.181
  473SOL     OW 1446   1.225   2.187   0.449
  473SOL    HW1 1447   1.290   2.113   0.438
  473SOL    HW2 1448   1.245   2.237   0.533
  474SOL     OW 1449   0.594   2.607   0.652
  474SOL    HW1 1450   0.644   2.692   0.633
  474SOL    HW2 1451   0.506   2.609   0.604
  475SOL     OW 1452   1.777   2.204   1.642
  475SOL    HW1 1453   1.760   2.235   1.548
  475SOL    HW2 1454   1.693   2.167   1.680
  476SOL     OW 1455   1.730   2.796   1.517
  476SOL    HW1 1456   1.768   2.887   1.532
  476SOL    HW2 1457   1.722   2.779   1.418
  477SOL     OW 1458   0.859   2.818   0.861
  477SOL    HW1 1459   0.913   2.749   0.909
  477SOL    HW2 1460   0.827   2.887   0.927
  478SOL     OW 1461   1.083   2.846   0.087
  478SOL    HW1 1462   1.060   2.899   0.005
  478SOL    HW2 1463   1.164   2.790   0.068
  479SOL     OW 1464   0.079   3.102   0.653
  479SOL    HW1 1465   0.078   3.055   0.741
  479SOL    HW2 1466   0.161   3.074   0.602
  480SOL     OW 1467   1.824   2.054   1.227
  480SOL    HW1 1468   1.820   1.964   1.271
  480SOL    HW2 1469   1.827   2.043   1.128
  481SOL     OW 1470   0.428   2.286   0.520
  481SOL    HW1 1471   0.458   2.214   0.458
  481SOL    HW2 1472   0.389   2.246   0.603
  482SOL     OW 1473   0.317   2.409   1.280
  482SOL    HW1 1474   0.355   2.350   1.352
  482SOL    HW2 1475   0.357   2.383   1.192
  483SOL     OW 1476   1.424   2.076   1.112
  483SOL    HW1 1477   1.476   2.011   1.167
  483SOL    HW2 1478   1.375   2.139   1.173
  484SOL     OW 1479   1.001   1.896   1.154
  484SOL    HW1 1480   0.938   1.824   1.123
  484SOL    HW2 1481   1.094   1.860   1.154
  485SOL     OW 1482   0.770   3.192   0.301
  485SOL    HW1 1483   0.724   3.105   0.318
  485SOL    HW2 1484   0.861   3.189   0.342
  486SOL     OW 1485   1.352   1.914   0.168
  486SOL    HW1 1486   1.387   1.873   0.084
  486SOL    HW2 1487   1.262   1.876   0.188
  487SOL     OW 1488   1.300   2.315   0.691
  487SOL    HW1 1489   1.241   2.395   0.695
  487SOL    HW2 1490   1.315   2.280   0.784
  488SOL     OW 1491   1.593   2.083   0.882
  488SOL    HW1 1492   1.509   2.082   0.936
  488SOL    HW2 1493   1.595   2.166   0.826
  489SOL     OW 1494   0.039   2.939   0.300
  489SOL    HW1 1495   0.138   2.928   0.291
  489SOL    HW2 1496  -0.001   2.853   0.332
  490SOL     OW 1497   0.230   2.490   1.975
  490SOL    HW1 1498   0.137   2.488   2.012
  490SOL    HW2 1499   0.231   2.451   1.883
  491SOL     OW 1500   0.225   2.137   2.858
  491SOL    HW1 1501   0.260   2.120   2.950
  491SOL    HW2 1502   0.137   2.092   2.846
  492SOL     OW 1503   0.019   2.230   2.509
  492SOL    HW1 1504  -0.063   2.273   2.548
  492SOL    HW2 1505  -0.009   2.157   2.446
  493SOL     OW 1506   1.135   2.565   2.579
  493SOL    HW1 1507   1.192   2.643   2.554
  493SOL    HW2 1508   1.075   2.591   2.655
  494SOL     OW 1509   1.755   2.469   2.093
  494SOL    HW1 1510   1.743   2.456   1.994
  494SOL    HW2 1511   1.725   2.388   2.142
  495SOL     OW 1512   0.768   3.006   2.885
  495SOL    HW1 1513   0.690   3.023   2.945
  495SOL    HW2 1514   0.802   3.093   2.849
  496SOL     OW 1515   0.685   2.874   2.527
  496SOL    HW1 1516   0.754   2.858   2.597
  496SOL    HW2 1517   0.612   2.931   2.565
  497SOL     OW 1518   1.603   2.309   2.599
  497SOL    HW1 1519   1.529   2.355   2.549
  497SOL    HW2 1520   1.654   2.377   2.652
  498SOL     OW 1521   0.240   2.953   2.748
  498SOL    HW1 1522   0.254   2.869   2.800
  498SOL    HW2 1523   0.185   3.017   2.803
  499SOL     OW 1524   0.606   2.826   1.985
  499SOL    HW1 1525   0.613   2.910   1.931
  499SOL    HW2 1526   0.652   2.839   2.073
  500SOL     OW 1527   0.122   2.505   2.425
  500SOL    HW1 1528   0.077   2.417   2.442
  500SOL    HW2 1529   0.121   2.559   2.509
  501SOL     OW 1530   1.689   2.784   2.474
  501SOL    HW1 1531   1.784   2.755   2.482
  501SOL    HW2 1532   1.681   2.849   2.399
  502SOL     OW 1533   1.641   2.970   2.294
  502SOL    HW1 1534   1.727   2.972   2.242
  502SOL    HW2 1535   1.655   3.017   2.382
  503SOL     OW 1536   0.613   3.227   2.588
  503SOL    HW1 1537   0.564   3.140   2.597
  503SOL    HW2 1538   0.590   3.270   2.501
  504SOL     OW 1539   0.809   1.866   2.364
  504SOL    HW1 1540   0.849   1.957   2.355
  504SOL    HW2 1541   0.709   1.874   2.370
  505SOL     OW 1542   0.197   2.838   3.126
  505SOL    HW1 1543   0.286   2.793   3.112
  505SOL    HW2 1544   0.124   2.773   3.107
  506SOL     OW 1545   1.525   2.861   2.052
  506SOL    HW1 1546   1.462   2.785   2.065
  506SOL    HW2 1547   1.573   2.879   2.138
  507SOL     OW 1548   0.598   2.591   2.132
  507SOL    HW1 1549   0.622   2.660   2.064
  507SOL    HW2 1550   0.520   2.624   2.186
  508SOL     OW 1551   1.281   2.207   2.806
  508SOL    HW1 1552   1.195   2.157   2.793
  508SOL    HW2 1553   1.343   2.153   2.862
  509SOL     OW 1554   1.041   2.563   2.291
  509SOL    HW1 1555   1.067   2.559   2.387
  509SOL    HW2 1556   0.956   2.512   2.277
  510SOL     OW 1557   0.076   2.673   2.651
  510SOL    HW1 1558   0.175   2.661   2.660
  510SOL    HW2 1559   0.052   2.768   2.672
  511SOL     OW 1560   0.865   2.210   2.057
  511SOL    HW1 1561   0.924   2.273   2.008
  511SOL    HW2 1562   0.884   2.116   2.028
  512SOL     OW 1563   1.362   3.006   2.407
  512SOL    HW1 1564   1.445   2.977   2.359
  512SOL    HW2 1565   1.313   3.073   2.351
  513SOL     OW 1566   0.550   2.058   2.747
  513SOL    HW1 1567   0.545   2.053   2.847
  513SOL    HW2 1568   0.552   2.154   2.718
  514SOL     OW 1569   1.795   2.928   2.735
  514SOL    HW1 1570   1.733   2.913   2.659
  514SOL    HW2 1571   1.743   2.939   2.820
  515SOL     OW 1572   0.321   2.805   2.104
  515SOL    HW1 1573   0.403   2.844   2.062
  515SOL    HW2 1574   0.294   2.723   2.055
  516SOL     OW 1575   1.458   2.597   2.590
  516SOL    HW1 1576   1.453   2.532   2.665
  516SOL    HW2 1577   1.538   2.656   2.603
  517SOL     OW 1578   1.400   1.969   2.288
  517SOL    HW1 1579   1.376   1.932   2.198
  517SOL    HW2 1580   1.499   1.985   2.292
  518SOL     OW 1581   0.382   2.562   2.342
  518SOL    HW1 1582   0.427   2.472   2.339
  518SOL    HW2 1583   0.288   2.551   2.375
  519SOL     OW 1584   0.614   1.984   1.979
  519SOL    HW1 1585   0.712   1.962   1.986
  519SOL    HW2 1586   0.583   1.967   1.886
  520SOL     OW 1587   0.922   2.365   2.761
  520SOL    HW1 1588   0.897   2.356   2.665
  520SOL    HW2 1589   0.970   2.283   2.792
  521SOL     OW 1590   0.539   1.926   2.374
  521SOL    HW1 1591   0.458   1.927   2.432
  521SOL    HW2 1592   0.542   2.009   2.319
  522SOL     OW 1593   0.297   1.897   2.033
  522SOL    HW1 1594   0.346   1.981   2.012
  522SOL    HW2 1595   0.359   1.832   2.078
  523SOL     OW 1596   0.935   2.098   2.342
  523SOL    HW1 1597   0.887   2.139   2.264
  523SOL    HW2 1598   1.034   2.096   2.323
  524SOL     OW 1599   0.459   3.014   2.603
  524SOL    HW1 1600   0.388   2.987   2.668
  524SOL    HW2 1601   0.433   2.986   2.510
  525SOL     OW 1602   1.032   2.411   1.878
  525SOL    HW1 1603   0.991   2.493   1.839
  525SOL    HW2 1604   1.096   2.437   1.951
  526SOL     OW 1605   0.866   2.316   2.504
  526SOL    HW1 1606   0.834   2.388   2.442
  526SOL    HW2 1607   0.890   2.235   2.451
  527SOL     OW 1608   1.017   1.901   2.615
  527SOL    HW1 1609   0.945   1.906   2.546
  527SOL    HW2 1610   0.993   1.832   2.684
  528SOL     OW 1611   1.429   3.035   2.729
  528SOL    HW1 1612   1.374   2.951   2.722
  528SOL    HW2 1613   1.455   3.064   2.637
  529SOL     OW 1614   1.466   2.452   2.854
  529SOL    HW1 1615   1.436   2.357   2.861
  529SOL    HW2 1616   1.539   2.468   2.920
  530SOL     OW 1617   1.857   2.695   2.239
  530SOL    HW1 1618   1.899   2.631   2.303
  530SOL    HW2 1619   1.819   2.644   2.161
  531SOL     OW 1620   1.390   2.437   1.940
  531SOL    HW1 1621   1.336   2.416   2.021
  531SOL    HW2 1622   1.481   2.396   1.949
  532SOL     OW 1623   0.527   2.118   2.190
  532SOL    HW1 1624   0.554   2.059   2.115
  532SOL    HW2 1625   0.527   2.213   2.159
  533SOL     OW 1626   1.638   2.961   2.941
  533SOL    HW1 1627   1.643   3.042   3.000
  533SOL    HW2 1628   1.552   2.963   2.890
  534SOL     OW 1629   0.705   2.912   2.230
  534SOL    HW1 1630   0.691   2.919   2.329
  534SOL    HW2 1631   0.789   2.861   2.212
  535SOL     OW 1632   0.410   2.675   3.113
  535SOL    HW1 1633   0.496   2.687   3.163
  535SOL    HW2 1634   0.368   2.588   3.140
  536SOL     OW 1635   0.367   2.962   2.363
  536SOL    HW1 1636   0.360   3.045   2.307
  536SOL    HW2 1637   0.371   2.882   2.303
  537SOL     OW 1638   0.566   2.399   2.727
  537SOL    HW1 1639   0.578   2.465   2.653
  537SOL    HW2 1640   0.612   2.433   2.810
  538SOL     OW 1641   1.582   2.501   2.334
  538SOL    HW1 1642   1.551   2.562   2.407
  538SOL    HW2 1643   1.632   2.553   2.265
  539SOL     OW 1644   0.573   2.732   2.891
  539SOL    HW1 1645   0.617   2.821   2.882
  539SOL    HW2 1646   0.510   2.732   2.968
  540SOL     OW 1647   1.360   2.724   2.907
  540SOL    HW1 1648   1.285   2.724   2.841
  540SOL    HW2 1649   1.397   2.632   2.916
  541SOL     OW 1650   1.209   2.387   2.137
  541SOL    HW1 1651   1.222   2.303   2.191
  541SOL    HW2 1652   1.180   2.461   2.197
  542SOL     OW 1653   0.307   2.075   3.093
  542SOL    HW1 1654   0.284   2.112   3.183
  542SOL    HW2 1655   0.277   1.980   3.087
  543SOL     OW 1656   0.037   3.172   3.144
  543SOL    HW1 1657   0.090   3.123   3.212
  543SOL    HW2 1658   0.059   3.270   3.149
  544SOL     OW 1659   0.732   2.496   2.926
  544SOL    HW1 1660   0.791   2.470   2.850
  544SOL    HW2 1661   0.704   2.592   2.915
  545SOL     OW 1662   0.307   1.925   2.480
  545SOL    HW1 1663   0.296   2.019   2.513
  545SOL    HW2 1664   0.302   1.862   2.557
  546SOL     OW 1665   1.622   2.229   2.236
  546SOL    HW1 1666   1.624   2.153   2.300
  546SOL    HW2 1667   1.574   2.306   2.276
  547SOL     OW 1668   1.023   2.628   2.828
  547SOL    HW1 1669   1.038   2.649   2.924
  547SOL    HW2 1670   0.993   2.533   2.819
  548SOL     OW 1671   1.540   2.136   1.987
  548SOL    HW1 1672   1.479   2.061   2.010
  548SOL    HW2 1673   1.562   2.188   2.070
  549SOL     OW 1674   1.303   2.700   1.904
  549SOL    HW1 1675   1.337   2.607   1.919
  549SOL    HW2 1676   1.321   2.727   1.809
  550SOL     OW 1677   0.319   2.672   2.811
  550SOL    HW1 1678   0.412   2.708   2.816
  550SOL    HW2 1679   0.313   2.587   2.863
  551SOL     OW 1680   0.339   2.371   2.868
  551SOL    HW1 1681   0.287   2.288   2.851
  551SOL    HW2 1682   0.416   2.376   2.804
  552SOL     OW 1683   1.160   2.069   3.339
  552SOL    HW1 1684   1.160   2.133   3.416
  552SOL    HW2 1685   1.188   2.117   3.256
  553SOL     OW 1686   1.002   2.658   3.100
  553SOL    HW1 1687   1.043   2.626   3.186
  553SOL    HW2 1688   0.906   2.631   3.097
  554SOL     OW 1689   0.040   2.406   2.976
  554SOL    HW1 1690   0.125   2.373   2.935
  554SOL    HW2 1691   0.053   2.421   3.074
  555SOL     OW 1692   0.815   2.434   2.187
  555SOL    HW1 1693   0.822   2.345   2.141
  555SOL    HW2 1694   0.721   2.468   2.179
  556SOL     OW 1695   1.657   2.466   3.068
  556SOL    HW1 1696   1.619   2.397   3.130
  556SOL    HW2 1697   1.739   2.430   3.024
  557SOL     OW 1698   0.671   2.326   3.131
  557SOL    HW1 1699   0.637   2.237   3.101
  557SOL    HW2 1700   0.697   2.380   3.051
  558SOL     OW 1701   0.473   2.362   2.053
  558SOL    HW1 1702   0.534   2.442   2.057
  558SOL    HW2 1703   0.378   2.393   2.060
  559SOL     OW 1704   1.347   2.921   3.096
  559SOL    HW1 1705   1.371   2.858   3.022
  559SOL    HW2 1706   1.257   2.961   3.078
  560SOL     OW 1707   1.302   2.717   2.171
  560SOL    HW1 1708   1.216   2.686   2.213
  560SOL    HW2 1709   1.298   2.703   2.072
  561SOL     OW 1710   0.083   3.120   2.884
  561SOL    HW1 1711   0.078   3.119   2.984
  561SOL    HW2 1712   0.000   3.079   2.846
  562SOL     OW 1713   1.726   1.997   2.385
  562SOL    HW1 1714   1.799   1.980   2.318
  562SOL    HW2 1715   1.695   1.910   2.423
  563SOL     OW 1716   1.280   2.789   2.534
  563SOL    HW1 1717   1.340   2.708   2.536
  563SOL    HW2 1718   1.320   2.858   2.474
  564SOL     OW 1719   1.841   2.037   2.825
  564SOL    HW1 1720   1.880   1.952   2.789
  564SOL    HW2 1721   1.743   2.039   2.806
  565SOL     OW 1722   0.263   2.188   2.582
  565SOL    HW1 1723   0.184   2.239   2.548
  565SOL    HW2 1724   0.254   2.173   2.680
  566SOL     OW 1725   0.822   2.864   3.234
  566SOL    HW1 1726   0.862   2.863   3.142
  566SOL    HW2 1727   0.832   2.956   3.274
  567SOL     OW 1728   0.916   2.772   2.153
  567SOL    HW1 1729   0.979   2.810   2.085
  567SOL    HW2 1730   0.956   2.689   2.192
  568SOL     OW 1731   1.614   3.154   3.151
  568SOL    HW1 1732   1.674   3.157   3.231
  568SOL    HW2 1733   1.539   3.218   3.164
  569SOL     OW 1734   1.039   2.960   2.558
  569SOL    HW1 1735   0.969   2.913   2.612
  569SOL    HW2 1736   1.098   2.892   2.515
  570SOL     OW 1737   1.014   2.098   2.833
  570SOL    HW1 1738   1.006   2.062   2.740
  570SOL    HW2 1739   1.012   2.022   2.898
  571SOL     OW 1740   1.709   2.247   3.243
  571SOL    HW1 1741   1.782   2.316   3.247
  571SOL    HW2 1742   1.737   2.172   3.184
  572SOL     OW 1743   0.075   2.207   1.895
  572SOL    HW1 1744  -0.017   2.179   1.866
  572SOL    HW2 1745   0.106   2.284   1.839
  573SOL     OW 1746   0.072   2.028   2.180
  573SOL    HW1 1747   0.055   2.111   2.126
  573SOL    HW2 1748   0.162   1.991   2.158
  574SOL     OW 1749   1.674   2.745   3.116
  574SOL    HW1 1750   1.647   2.656   3.079
  574SOL    HW2 1751   1.675   2.813   3.043
  575SOL     OW 1752   1.225   2.187   2.311
  575SOL    HW1 1753   1.290   2.113   2.300
  575SOL    HW2 1754   1.245   2.237   2.395
  576SOL     OW 1755   0.594   2.607   2.514
  576SOL    HW1 1756   0.644   2.692   2.495
  576SOL    HW2 1757   0.506   2.609   2.466
  577SOL     OW 1758   1.730   2.796   3.379
  577SOL    HW1 1759   1.768   2.887   3.394
  577SOL    HW2 1760   1.722   2.779   3.280
  578SOL     OW 1761   0.859   2.818   2.723
  578SOL    HW1 1762   0.913   2.749   2.771
  578SOL    HW2 1763   0.827   2.887   2.789
  579SOL     OW 1764   1.083   2.846   1.949
  579SOL    HW1 1765   1.060   2.899   1.867
  579SOL    HW2 1766   1.164   2.790   1.930
  580SOL     OW 1767   0.079   3.102   2.515
  580SOL    HW1 1768   0.078   3.055   2.603
  580SOL    HW2 1769   0.161   3.074   2.464
  581SOL     OW 1770   1.824   2.054   3.089
  581SOL    HW1 1771   1.820   1.964   3.133
  581SOL    HW2 1772   1.827   2.043   2.990
  582SOL     OW 1773   0.428   2.286   2.382
  582SOL    HW1 1774   0.458   2.214   2.320
  582SOL    HW2 1775   0.389   2.246   2.465
  583SOL     OW 1776   1.424   2.076   2.974
  583SOL    HW1 1777   1.476   2.011   3.029
  583SOL    HW2 1778   1.375   2.139   3.035
  584SOL     OW 1779   1.001   1.896   3.016
  584SOL    HW1 1780   0.938   1.824   2.985
  584SOL    HW2 1781   1.094   1.860   3.016
  585SOL     OW 1782   0.770   3.192   2.163
  585SOL    HW1 1783   0.724   3.105   2.180
  585SOL    HW2 1784   0.861   3.189   2.204
  586SOL     OW 1785   1.352   1.914   2.030
  586SOL    HW1 1786   1.387   1.873   1.946
  586SOL    HW2 1787   1.262   1.876   2.050
  587SOL     OW 1788   1.300   2.315   2.553
  587SOL    HW1 1789   1.241   2.395   2.557
  587SOL    HW2 1790   1.315   2.280   2.646
  588SOL     OW 1791   1.593   2.083   2.744
  588SOL    HW1 1792   1.509   2.082   2.798
  588SOL    HW2 1793   1.595   2.166   2.688
  589SOL     OW 1794   0.039   2.939   2.162
  589SOL    HW1 1795   0.138   2.928   2.153
  589SOL    HW2 1796  -0.001   2.853   2.194
  590SOL     OW 1797   2.092   0.628   0.113
  590SOL    HW1 1798   1.999   0.626   0.150
  590SOL    HW2 1799   2.093   0.589   0.021
  591SOL     OW 1800   2.087   0.275   0.996
  591SOL    HW1 1801   2.122   0.258   1.088
  591SOL    HW2 1802   1.999   0.230   0.984
  592SOL     OW 1803   1.881   0.368   0.647
  592SOL    HW1 1804   1.799   0.411   0.686
  592SOL    HW2 1805   1.853   0.295   0.584
  593SOL     OW 1806   2.431   1.275   1.165
  593SOL    HW1 1807   2.338   1.268   1.128
  593SOL    HW2 1808   2.442   1.364   1.209
  594SOL     OW 1809   2.997   0.703   0.717
  594SOL    HW1 1810   3.054   0.781   0.692
  594SOL    HW2 1811   2.937   0.729   0.793
  595SOL     OW 1812   2.630   1.144   1.023
  595SOL    HW1 1813   2.552   1.161   1.083
  595SOL    HW2 1814   2.664   1.231   0.987
  596SOL     OW 1815   2.712   0.798   1.823
  596SOL    HW1 1816   2.708   0.874   1.888
  596SOL    HW2 1817   2.734   0.834   1.732
  597SOL     OW 1818   2.547   1.012   0.665
  597SOL    HW1 1819   2.616   0.996   0.735
  597SOL    HW2 1820   2.474   1.069   0.703
  598SOL     OW 1821   2.548   1.161   1.803
  598SOL    HW1 1822   2.608   1.240   1.817
  598SOL    HW2 1823   2.462   1.192   1.762
  599SOL     OW 1824   2.197   1.435   1.061
  599SOL    HW1 1825   2.119   1.404   1.008
  599SOL    HW2 1826   2.255   1.493   1.004
  600SOL     OW 1827   2.300   0.392   1.499
  600SOL    HW1 1828   2.382   0.336   1.508
  600SOL    HW2 1829   2.219   0.334   1.503
  601SOL     OW 1830   2.093   1.713   0.483
  601SOL    HW1 1831   2.127   1.790   0.537
  601SOL    HW2 1832   2.137   1.713   0.393
  602SOL     OW 1833   2.989   1.341   1.690
  602SOL    HW1 1834   3.036   1.341   1.778
  602SOL    HW2 1835   2.941   1.254   1.679
  603SOL     OW 1836   2.092   1.434   0.538
  603SOL    HW1 1837   2.066   1.530   0.538
  603SOL    HW2 1838   2.021   1.380   0.583
  604SOL     OW 1839   2.102   1.091   0.886
  604SOL    HW1 1840   2.116   1.007   0.938
  604SOL    HW2 1841   2.047   1.155   0.941
  605SOL     OW 1842   2.482   1.786   1.439
  605SOL    HW1 1843   2.390   1.769   1.474
  605SOL    HW2 1844   2.510   1.878   1.465
  606SOL     OW 1845   2.468   0.964   0.123
  606SOL    HW1 1846   2.475   1.048   0.069
  606SOL    HW2 1847   2.514   0.977   0.211
  607SOL     OW 1848   1.984   0.643   0.563
  607SOL    HW1 1849   1.939   0.555   0.580
  607SOL    HW2 1850   1.983   0.697   0.647
  608SOL     OW 1851   1.889   1.596   0.117
  608SOL    HW1 1852   1.870   1.500   0.138
  608SOL    HW2 1853   1.856   1.654   0.192
  609SOL     OW 1854   1.975   0.737   1.597
  609SOL    HW1 1855   2.063   0.724   1.642
  609SOL    HW2 1856   1.962   0.834   1.575
  610SOL     OW 1857   2.475   1.365   0.726
  610SOL    HW1 1858   2.426   1.278   0.735
  610SOL    HW2 1859   2.452   1.408   0.639
  611SOL     OW 1860   2.671   0.004   0.502
  611SOL    HW1 1861   2.711   0.095   0.493
  611SOL    HW2 1862   2.571   0.012   0.508
  612SOL     OW 1863   2.059   0.976   1.264
  612SOL    HW1 1864   2.148   0.931   1.250
  612SOL    HW2 1865   1.986   0.911   1.245
  613SOL     OW 1866   2.179   0.251   1.801
  613SOL    HW1 1867   2.250   0.322   1.807
  613SOL    HW2 1868   2.091   0.290   1.829
  614SOL     OW 1869   2.460   0.729   0.270
  614SOL    HW1 1870   2.484   0.798   0.202
  614SOL    HW2 1871   2.382   0.762   0.324
  615SOL     OW 1872   2.669   0.605   1.465
  615SOL    HW1 1873   2.622   0.602   1.554
  615SOL    HW2 1874   2.618   0.550   1.399
  616SOL     OW 1875   2.835   0.890   1.572
  616SOL    HW1 1876   2.881   0.806   1.543
  616SOL    HW2 1877   2.779   0.924   1.497
  617SOL     OW 1878   2.853   0.410   1.242
  617SOL    HW1 1879   2.776   0.444   1.296
  617SOL    HW2 1880   2.819   0.359   1.163
  618SOL     OW 1881   2.903   0.701   0.429
  618SOL    HW1 1882   2.929   0.697   0.525
  618SOL    HW2 1883   2.818   0.650   0.415
  619SOL     OW 1884   1.938   0.811   0.789
  619SOL    HW1 1885   2.037   0.799   0.798
  619SOL    HW2 1886   1.914   0.906   0.810
  620SOL     OW 1887   1.992   1.821   1.571
  620SOL    HW1 1888   1.982   1.806   1.670
  620SOL    HW2 1889   1.906   1.857   1.535
  621SOL     OW 1890   2.727   0.348   0.195
  621SOL    HW1 1891   2.786   0.411   0.146
  621SOL    HW2 1892   2.746   0.254   0.166
  622SOL     OW 1893   2.412   0.196   0.885
  622SOL    HW1 1894   2.407   0.191   0.985
  622SOL    HW2 1895   2.414   0.292   0.856
  623SOL     OW 1896   2.870   1.456   0.477
  623SOL    HW1 1897   2.824   1.528   0.425
  623SOL    HW2 1898   2.866   1.476   0.575
  624SOL     OW 1899   2.213   1.801   0.853
  624SOL    HW1 1900   2.263   1.715   0.859
  624SOL    HW2 1901   2.278   1.878   0.850
  625SOL     OW 1902   3.089   1.550   1.506
  625SOL    HW1 1903   3.095   1.473   1.570
  625SOL    HW2 1904   3.037   1.524   1.426
  626SOL     OW 1905   2.183   0.943   0.242
  626SOL    HW1 1906   2.265   0.982   0.200
  626SOL    HW2 1907   2.156   0.861   0.193
  627SOL     OW 1908   2.323   1.266   1.727
  627SOL    HW1 1909   2.273   1.267   1.641
  627SOL    HW2 1910   2.260   1.248   1.803
  628SOL     OW 1911   2.973   1.776   0.237
  628SOL    HW1 1912   2.913   1.714   0.287
  628SOL    HW2 1913   3.004   1.732   0.152
  629SOL     OW 1914   2.064   0.285   1.498
  629SOL    HW1 1915   1.984   0.345   1.485
  629SOL    HW2 1916   2.054   0.236   1.584
  630SOL     OW 1917   2.326   1.743   0.323
  630SOL    HW1 1918   2.359   1.782   0.409
  630SOL    HW2 1919   2.402   1.736   0.258
  631SOL     OW 1920   2.111   1.785   1.241
  631SOL    HW1 1921   2.168   1.720   1.291
  631SOL    HW2 1922   2.095   1.752   1.148
  632SOL     OW 1923   2.802   1.698   0.904
  632SOL    HW1 1924   2.882   1.641   0.925
  632SOL    HW2 1925   2.753   1.658   0.827
  633SOL     OW 1926   2.244   0.700   0.480
  633SOL    HW1 1927   2.289   0.610   0.477
  633SOL    HW2 1928   2.150   0.689   0.513
  634SOL     OW 1929   2.476   0.122   0.117
  634SOL    HW1 1930   2.574   0.100   0.124
  634SOL    HW2 1931   2.445   0.105   0.024
  635SOL     OW 1932   2.643   0.264   1.749
  635SOL    HW1 1933   2.710   0.203   1.792
  635SOL    HW2 1934   2.570   0.283   1.814
  636SOL     OW 1935   2.750   1.514   1.195
  636SOL    HW1 1936   2.727   1.489   1.101
  636SOL    HW2 1937   2.811   1.445   1.234
  637SOL     OW 1938   2.665   1.402   0.924
  637SOL    HW1 1939   2.755   1.416   0.882
  637SOL    HW2 1940   2.594   1.404   0.853
  638SOL     OW 1941   2.784   0.503   0.899
  638SOL    HW1 1942   2.759   0.494   0.803
  638SOL    HW2 1943   2.832   0.421   0.930
  639SOL     OW 1944   2.401   0.064   0.512
  639SOL    HW1 1945   2.320   0.065   0.570
  639SOL    HW2 1946   2.404   0.147   0.457
  640SOL     OW 1947   3.296   1.188   0.041
  640SOL    HW1 1948   3.328   1.112   0.098
  640SOL    HW2 1949   3.204   1.215   0.071
  641SOL     OW 1950   2.159   0.035   0.171
  641SOL    HW1 1951   2.208   0.119   0.150
  641SOL    HW2 1952   2.221  -0.030   0.216
  642SOL     OW 1953   2.797   0.236   0.480
  642SOL    HW1 1954   2.749   0.277   0.402
  642SOL    HW2 1955   2.896   0.234   0.461
  643SOL     OW 1956   2.938   0.683   1.464
  643SOL    HW1 1957   2.858   0.622   1.467
  643SOL    HW2 1958   3.019   0.630   1.440
  644SOL     OW 1959   3.089   1.570   0.793
  644SOL    HW1 1960   3.110   1.644   0.728
  644SOL    HW2 1961   3.157   1.570   0.866
  645SOL     OW 1962   2.321   1.152   0.741
  645SOL    HW1 1963   2.250   1.125   0.806
  645SOL    HW2 1964   2.295   1.124   0.648
  646SOL     OW 1965   3.133   1.797   0.591
  646SOL    HW1 1966   3.177   1.861   0.527
  646SOL    HW2 1967   3.083   1.849   0.661
  647SOL     OW 1968   2.894   0.549   0.016
  647SOL    HW1 1969   2.853   0.631  -0.023
  647SOL    HW2 1970   2.958   0.575   0.089
  648SOL     OW 1971   1.940   0.556   1.386
  648SOL    HW1 1972   2.032   0.555   1.345
  648SOL    HW2 1973   1.934   0.630   1.453
  649SOL     OW 1974   2.423   0.222   1.147
  649SOL    HW1 1975   2.461   0.138   1.184
  649SOL    HW2 1976   2.335   0.241   1.191
  650SOL     OW 1977   2.728   0.454   0.642
  650SOL    HW1 1978   2.696   0.526   0.580
  650SOL    HW2 1979   2.752   0.373   0.589
  651SOL     OW 1980   2.879   0.039   0.753
  651SOL    HW1 1981   2.807   0.044   0.684
  651SOL    HW2 1982   2.855  -0.030   0.822
  652SOL     OW 1983   2.350   1.385   0.174
  652SOL    HW1 1984   2.263   1.370   0.221
  652SOL    HW2 1985   2.333   1.411   0.079
  653SOL     OW 1986   2.389   0.256   0.328
  653SOL    HW1 1987   2.416   0.197   0.253
  653SOL    HW2 1988   2.389   0.351   0.297
  654SOL     OW 1989   2.926   1.347   1.340
  654SOL    HW1 1990   2.846   1.324   1.395
  654SOL    HW2 1991   3.009   1.321   1.389
  655SOL     OW 1992   2.973   1.195   1.100
  655SOL    HW1 1993   2.933   1.239   1.181
  655SOL    HW2 1994   2.932   1.232   1.017
  656SOL     OW 1995   2.777   0.089   1.402
  656SOL    HW1 1996   2.802   0.069   1.307
  656SOL    HW2 1997   2.849   0.145   1.444
  657SOL     OW 1998   2.842   1.116   1.719
  657SOL    HW1 1999   2.743   1.122   1.729
  657SOL    HW2 2000   2.865   1.036   1.663
  658SOL     OW 2001   2.567   1.050   0.368
  658SOL    HW1 2002   2.553   1.057   0.467
  658SOL    HW2 2003   2.651   0.999   0.350
  659SOL     OW 2004   2.272   0.813   1.251
  659SOL    HW1 2005   2.358   0.825   1.301
  659SOL    HW2 2006   2.230   0.726   1.278
  660SOL     OW 2007   1.926   1.564   1.331
  660SOL    HW1 2008   1.880   1.646   1.297
  660SOL    HW2 2009   2.024   1.583   1.340
  661SOL     OW 2010   2.229   1.100   0.501
  661SOL    HW1 2011   2.222   1.183   0.445
  661SOL    HW2 2012   2.233   1.020   0.441
  662SOL     OW 2013   2.428   0.537   0.865
  662SOL    HW1 2014   2.440   0.603   0.791
  662SOL    HW2 2015   2.474   0.571   0.948
  663SOL     OW 2016   3.114   1.348   0.388
  663SOL    HW1 2017   3.164   1.425   0.428
  663SOL    HW2 2018   3.019   1.350   0.420
  664SOL     OW 2019   2.216   1.510   1.329
  664SOL    HW1 2020   2.195   1.466   1.242
  664SOL    HW2 2021   2.313   1.536   1.332
  665SOL     OW 2022   2.264   0.751   1.598
  665SOL    HW1 2023   2.332   0.806   1.551
  665SOL    HW2 2024   2.304   0.663   1.625
  666SOL     OW 2025   2.875   0.105   1.770
  666SOL    HW1 2026   2.881   0.190   1.718
  666SOL    HW2 2027   2.907   0.029   1.713
  667SOL     OW 2028   2.366   0.050   1.740
  667SOL    HW1 2029   2.324  -0.007   1.670
  667SOL    HW2 2030   2.300   0.119   1.772
  668SOL     OW 2031   2.435   0.870   1.029
  668SOL    HW1 2032   2.479   0.959   1.020
  668SOL    HW2 2033   2.372   0.870   1.106
  669SOL     OW 2034   3.222   0.862   1.045
  669SOL    HW1 2035   3.147   0.862   0.979
  669SOL    HW2 2036   3.259   0.770   1.054
  670SOL     OW 2037   3.071   0.525   0.275
  670SOL    HW1 2038   3.084   0.441   0.329
  670SOL    HW2 2039   3.042   0.599   0.335
  671SOL     OW 2040   2.169   0.213   1.231
  671SOL    HW1 2041   2.146   0.250   1.321
  671SOL    HW2 2042   2.139   0.118   1.225
  672SOL     OW 2043   2.594   0.634   1.064
  672SOL    HW1 2044   2.653   0.608   0.988
  672SOL    HW2 2045   2.566   0.730   1.053
  673SOL     OW 2046   2.169   0.063   0.618
  673SOL    HW1 2047   2.158   0.157   0.651
  673SOL    HW2 2048   2.164   0.000   0.695
  674SOL     OW 2049   2.885   0.766   0.966
  674SOL    HW1 2050   2.900   0.787   1.062
  674SOL    HW2 2051   2.855   0.671   0.957
  675SOL     OW 2052   2.842   1.573   1.700
  675SOL    HW1 2053   2.822   1.617   1.612
  675SOL    HW2 2054   2.881   1.482   1.684
  676SOL     OW 2055   2.212   0.898   1.804
  676SOL    HW1 2056   2.288   0.942   1.852
  676SOL    HW2 2057   2.247   0.851   1.722
  677SOL     OW 2058   2.930   1.333   0.849
  677SOL    HW1 2059   2.937   1.249   0.794
  677SOL    HW2 2060   2.992   1.402   0.813
  678SOL     OW 2061   2.181   0.810   0.949
  678SOL    HW1 2062   2.274   0.846   0.954
  678SOL    HW2 2063   2.175   0.725   1.001
  679SOL     OW 2064   2.201   0.509   1.006
  679SOL    HW1 2065   2.149   0.426   0.989
  679SOL    HW2 2066   2.278   0.514   0.942
  680SOL     OW 2067   3.000   0.380   1.678
  680SOL    HW1 2068   2.955   0.443   1.742
  680SOL    HW2 2069   3.093   0.411   1.661
  681SOL     OW 2070   3.022   0.207   1.477
  681SOL    HW1 2071   3.022   0.271   1.554
  681SOL    HW2 2072   3.050   0.255   1.394
  682SOL     OW 2073   1.870   1.326   0.200
  682SOL    HW1 2074   1.777   1.347   0.169
  682SOL    HW2 2075   1.880   1.227   0.213
  683SOL     OW 2076   1.950   1.801   0.927
  683SOL    HW1 2077   1.908   1.715   0.900
  683SOL    HW2 2078   2.044   1.804   0.893
  684SOL     OW 2079   2.366   1.568   0.910
  684SOL    HW1 2080   2.432   1.642   0.919
  684SOL    HW2 2081   2.410   1.489   0.868
  685SOL     OW 2082   2.864   0.796   1.238
  685SOL    HW1 2083   2.905   0.764   1.324
  685SOL    HW2 2084   2.768   0.769   1.235
  686SOL     OW 2085   1.902   0.544   1.114
  686SOL    HW1 2086   1.987   0.511   1.073
  686SOL    HW2 2087   1.915   0.559   1.212
  687SOL     OW 2088   2.051   0.520   1.722
  687SOL    HW1 2089   2.110   0.480   1.652
  687SOL    HW2 2090   1.993   0.591   1.681
  688SOL     OW 2091   2.677   0.572   0.325
  688SOL    HW1 2092   2.684   0.483   0.279
  688SOL    HW2 2093   2.583   0.606   0.317
  689SOL     OW 2094   2.114   1.564   1.744
  689SOL    HW1 2095   2.084   1.621   1.820
  689SOL    HW2 2096   2.107   1.467   1.770
  690SOL     OW 2097   2.533   0.464   1.269
  690SOL    HW1 2098   2.499   0.375   1.239
  690SOL    HW2 2099   2.559   0.518   1.189
  691SOL     OW 2100   2.792   1.678   1.465
  691SOL    HW1 2101   2.768   1.660   1.370
  691SOL    HW2 2102   2.822   1.772   1.475
  692SOL     OW 2103   2.335   0.500   0.191
  692SOL    HW1 2104   2.396   0.580   0.195
  692SOL    HW2 2105   2.240   0.531   0.198
  693SOL     OW 2106   3.114   1.731   1.128
  693SOL    HW1 2107   3.198   1.736   1.074
  693SOL    HW2 2108   3.091   1.635   1.146
  694SOL     OW 2109   1.945   1.258   1.022
  694SOL    HW1 2110   1.940   1.257   1.122
  694SOL    HW2 2111   1.862   1.217   0.984
  695SOL     OW 2112   2.550   1.662   1.716
  695SOL    HW1 2113   2.494   1.743   1.725
  695SOL    HW2 2114   2.602   1.666   1.630
  696SOL     OW 2115   2.765   0.086   0.133
  696SOL    HW1 2116   2.816   0.087   0.047
  696SOL    HW2 2117   2.821   0.044   0.204
  697SOL     OW 2118   1.992   1.794   1.851
  697SOL    HW1 2119   1.951   1.720   1.904
  697SOL    HW2 2120   2.056   1.845   1.909
  698SOL     OW 2121   2.692   1.273   1.422
  698SOL    HW1 2122   2.687   1.306   1.517
  698SOL    HW2 2123   2.606   1.292   1.376
  699SOL     OW 2124   2.534   1.616   0.154
  699SOL    HW1 2125   2.543   1.626   0.055
  699SOL    HW2 2126   2.494   1.527   0.175
  700SOL     OW 2127   2.125   0.326   0.720
  700SOL    HW1 2128   2.046   0.377   0.686
  700SOL    HW2 2129   2.116   0.311   0.818
  701SOL     OW 2130   2.684   1.002   1.372
  701SOL    HW1 2131   2.724   1.001   1.280
  701SOL    HW2 2132   2.694   1.094   1.412
  702SOL     OW 2133   2.778   0.910   0.291
  702SOL    HW1 2134   2.841   0.948   0.223
  702SOL    HW2 2135   2.818   0.827   0.330
  703SOL     OW 2136   2.234   1.288   1.490
  703SOL    HW1 2137   2.221   1.381   1.456
  703SOL    HW2 2138   2.150   1.236   1.477
  704SOL     OW 2139   2.901   1.098   0.696
  704SOL    HW1 2140   2.831   1.051   0.750
  704SOL    HW2 2141   2.960   1.030   0.653
  705SOL     OW 2142   2.876   0.236   0.971
  705SOL    HW1 2143   2.868   0.200   0.878
  705SOL    HW2 2144   2.874   0.160   1.036
  706SOL     OW 2145   2.452   1.487   0.491
  706SOL    HW1 2146   2.494   1.429   0.421
  706SOL    HW2 2147   2.408   1.566   0.447
  707SOL     OW 2148   2.117   1.348   0.290
  707SOL    HW1 2149   2.021   1.349   0.263
  707SOL    HW2 2150   2.129   1.401   0.374
  708SOL     OW 2151   1.967   1.013   1.726
  708SOL    HW1 2152   1.890   0.980   1.780
  708SOL    HW2 2153   2.052   0.983   1.768
  709SOL     OW 2154   2.534   0.203   1.489
  709SOL    HW1 2155   2.624   0.187   1.449
  709SOL    HW2 2156   2.542   0.208   1.588
  710SOL     OW 2157   1.934   0.166   0.318
  710SOL    HW1 2158   1.917   0.249   0.264
  710SOL    HW2 2159   2.024   0.129   0.296
  711SOL     OW 2160   2.475   0.842   1.431
  711SOL    HW1 2161   2.531   0.923   1.414
  711SOL    HW2 2162   2.534   0.762   1.434
  712SOL     OW 2163   2.578   0.565   1.708
  712SOL    HW1 2164   2.597   0.630   1.782
  712SOL    HW2 2165   2.638   0.485   1.717
  713SOL     OW 2166   2.252   1.741   1.560
  713SOL    HW1 2167   2.161   1.782   1.558
  713SOL    HW2 2168   2.245   1.647   1.592
  714SOL     OW 2169   2.456   0.745   0.652
  714SOL    HW1 2170   2.506   0.830   0.633
  714SOL    HW2 2171   2.368   0.747   0.604
  715SOL     OW 2172   2.721   1.374   0.016
  715SOL    HW1 2173   2.675   1.389   0.104
  715SOL    HW2 2174   2.765   1.459  -0.014
  716SOL     OW 2175   2.523   1.790   0.953
  716SOL    HW1 2176   2.477   1.878   0.940
  716SOL    HW2 2177   2.622   1.802   0.946
  717SOL     OW 2178   2.721   0.956   0.861
  717SOL    HW1 2179   2.775   0.887   0.909
  717SOL    HW2 2180   2.689   1.025   0.927
  718SOL     OW 2181   2.945   0.984   0.087
  718SOL    HW1 2182   2.922   1.037   0.005
  718SOL    HW2 2183   3.026   0.928   0.068
  719SOL     OW 2184   2.083   1.314   1.844
  719SOL    HW1 2185   2.018   1.241   1.823
  719SOL    HW2 2186   2.087   1.328   1.942
  720SOL     OW 2187   1.941   1.240   0.653
  720SOL    HW1 2188   1.940   1.193   0.741
  720SOL    HW2 2189   2.023   1.212   0.602
  721SOL     OW 2190   2.534   1.391   1.624
  721SOL    HW1 2191   2.456   1.341   1.662
  721SOL    HW2 2192   2.531   1.486   1.655
  722SOL     OW 2193   2.290   0.424   0.520
  722SOL    HW1 2194   2.320   0.352   0.458
  722SOL    HW2 2195   2.251   0.384   0.603
  723SOL     OW 2196   2.179   0.547   1.280
  723SOL    HW1 2197   2.217   0.488   1.352
  723SOL    HW2 2198   2.219   0.521   1.192
  724SOL     OW 2199   2.674   1.586   0.687
  724SOL    HW1 2200   2.706   1.596   0.593
  724SOL    HW2 2201   2.595   1.524   0.689
  725SOL     OW 2202   2.863   0.034   1.154
  725SOL    HW1 2203   2.800  -0.038   1.123
  725SOL    HW2 2204   2.956  -0.002   1.154
  726SOL     OW 2205   2.632   1.330   0.301
  726SOL    HW1 2206   2.586   1.243   0.318
  726SOL    HW2 2207   2.723   1.327   0.342
  727SOL     OW 2208   2.480   1.567   1.284
  727SOL    HW1 2209   2.475   1.649   1.341
  727SOL    HW2 2210   2.569   1.564   1.239
  728SOL     OW 2211   2.737   1.646   0.337
  728SOL    HW1 2212   2.660   1.611   0.283
  728SOL    HW2 2213   2.705   1.717   0.399
  729SOL     OW 2214   2.092   0.628   1.975
  729SOL    HW1 2215   1.999   0.626   2.012
  729SOL    HW2 2216   2.093   0.589   1.883
  730SOL     OW 2217   2.087   0.275   2.858
  730SOL    HW1 2218   2.122   0.258   2.950
  730SOL    HW2 2219   1.999   0.230   2.846
  731SOL     OW 2220   1.881   0.368   2.509
  731SOL    HW1 2221   1.799   0.411   2.548
  731SOL    HW2 2222   1.853   0.295   2.446
  732SOL     OW 2223   2.431   1.275   3.027
  732SOL    HW1 2224   2.338   1.268   2.990
  732SOL    HW2 2225   2.442   1.364   3.071
  733SOL     OW 2226   2.997   0.703   2.579
  733SOL    HW1 2227   3.054   0.781   2.554
  733SOL    HW2 2228   2.937   0.729   2.655
  734SOL     OW 2229   2.630   1.144   2.885
  734SOL    HW1 2230   2.552   1.161   2.945
  734SOL    HW2 2231   2.664   1.231   2.849
  735SOL     OW 2232   2.547   1.012   2.527
  735SOL    HW1 2233   2.616   0.996   2.597
  735SOL    HW2 2234   2.474   1.069   2.565
  736SOL     OW 2235   2.197   1.435   2.923
  736SOL    HW1 2236   2.119   1.404   2.870
  736SOL    HW2 2237   2.255   1.493   2.866
  737SOL     OW 2238   3.322   1.505   3.201
  737SOL    HW1 2239   3.346   1.599   3.227
  737SOL    HW2 2240   3.306   1.451   3.283
  738SOL     OW 2241   2.093   1.713   2.345
  738SOL    HW1 2242   2.127   1.790   2.399
  738SOL    HW2 2243   2.137   1.713   2.255
  739SOL     OW 2244   2.092   1.434   2.400
  739SOL    HW1 2245   2.066   1.530   2.400
  739SOL    HW2 2246   2.021   1.380   2.445
  740SOL     OW 2247   2.102   1.091   2.748
  740SOL    HW1 2248   2.116   1.007   2.800
  740SOL    HW2 2249   2.047   1.155   2.803
  741SOL     OW 2250   2.468   0.964   1.985
  741SOL    HW1 2251   2.475   1.048   1.931
  741SOL    HW2 2252   2.514   0.977   2.073
  742SOL     OW 2253   1.984   0.643   2.425
  742SOL    HW1 2254   1.939   0.555   2.442
  742SOL    HW2 2255   1.983   0.697   2.509
  743SOL     OW 2256   2.475   1.365   2.588
  743SOL    HW1 2257   2.426   1.278   2.597
  743SOL    HW2 2258   2.452   1.408   2.501
  744SOL     OW 2259   2.671   0.004   2.364
  744SOL    HW1 2260   2.711   0.095   2.355
  744SOL    HW2 2261   2.571   0.012   2.370
  745SOL     OW 2262   2.059   0.976   3.126
  745SOL    HW1 2263   2.148   0.931   3.112
  745SOL    HW2 2264   1.986   0.911   3.107
  746SOL     OW 2265   2.460   0.729   2.132
  746SOL    HW1 2266   2.484   0.798   2.064
  746SOL    HW2 2267   2.382   0.762   2.186
  747SOL     OW 2268   2.903   0.701   2.291
  747SOL    HW1 2269   2.929   0.697   2.387
  747SOL    HW2 2270   2.818   0.650   2.277
  748SOL     OW 2271   1.938   0.811   2.651
  748SOL    HW1 2272   2.037   0.799   2.660
  748SOL    HW2 2273   1.914   0.906   2.672
  749SOL     OW 2274   2.727   0.348   2.057
  749SOL    HW1 2275   2.786   0.411   2.008
  749SOL    HW2 2276   2.746   0.254   2.028
  750SOL     OW 2277   2.412   0.196   2.747
  750SOL    HW1 2278   2.407   0.191   2.847
  750SOL    HW2 2279   2.414   0.292   2.718
  751SOL     OW 2280   2.870   1.456   2.339
  751SOL    HW1 2281   2.824   1.528   2.287
  751SOL    HW2 2282   2.866   1.476   2.437
  752SOL     OW 2283   2.213   1.801   2.715
  752SOL    HW1 2284   2.263   1.715   2.721
  752SOL    HW2 2285   2.278   1.878   2.712
  753SOL     OW 2286   2.183   0.943   2.104
  753SOL    HW1 2287   2.265   0.982   2.062
  753SOL    HW2 2288   2.156   0.861   2.055
  754SOL     OW 2289   2.973   1.776   2.099
  754SOL    HW1 2290   2.913   1.714   2.149
  754SOL    HW2 2291   3.004   1.732   2.014
  755SOL     OW 2292   2.326   1.743   2.185
  755SOL    HW1 2293   2.359   1.782   2.271
  755SOL    HW2 2294   2.402   1.736   2.120
  756SOL     OW 2295   2.111   1.785   3.103
  756SOL    HW1 2296   2.168   1.720   3.153
  756SOL    HW2 2297   2.095   1.752   3.010
  757SOL     OW 2298   2.802   1.698   2.766
  757SOL    HW1 2299   2.882   1.641   2.787
  757SOL    HW2 2300   2.753   1.658   2.689
  758SOL     OW 2301   2.244   0.700   2.342
  758SOL    HW1 2302   2.289   0.610   2.339
  758SOL    HW2 2303   2.150   0.689   2.375
  759SOL     OW 2304   2.476   0.122   1.979
  759SOL    HW1 2305   2.574   0.100   1.986
  759SOL    HW2 2306   2.445   0.105   1.886
  760SOL     OW 2307   2.665   1.402   2.786
  760SOL    HW1 2308   2.755   1.416   2.744
  760SOL    HW2 2309   2.594   1.404   2.715
  761SOL     OW 2310   2.784   0.503   2.761
  761SOL    HW1 2311   2.759   0.494   2.665
  761SOL    HW2 2312   2.832   0.421   2.792
  762SOL     OW 2313   2.401   0.064   2.374
  762SOL    HW1 2314   2.320   0.065   2.432
  762SOL    HW2 2315   2.404   0.147   2.319
  763SOL     OW 2316   2.159   0.035   2.033
  763SOL    HW1 2317   2.208   0.119   2.012
  763SOL    HW2 2318   2.221  -0.030   2.078
  764SOL     OW 2319   2.797   0.236   2.342
  764SOL    HW1 2320   2.749   0.277   2.264
  764SOL    HW2 2321   2.896   0.234   2.323
  765SOL     OW 2322   3.089   1.570   2.655
  765SOL    HW1 2323   3.110   1.644   2.590
  765SOL    HW2 2324   3.157   1.570   2.728
  766SOL     OW 2325   2.321   1.152   2.603
  766SOL    HW1 2326   2.250   1.125   2.668
  766SOL    HW2 2327   2.295   1.124   2.510
  767SOL     OW 2328   3.133   1.797   2.453
  767SOL    HW1 2329   3.177   1.861   2.389
  767SOL    HW2 2330   3.083   1.849   2.523
  768SOL     OW 2331   2.894   0.549   1.878
  768SOL    HW1 2332   2.853   0.631   1.839
  768SOL    HW2 2333   2.958   0.575   1.951
  769SOL     OW 2334   2.728   0.454   2.504
  769SOL    HW1 2335   2.696   0.526   2.442
  769SOL    HW2 2336   2.752   0.373   2.451
  770SOL     OW 2337   2.879   0.039   2.615
  770SOL    HW1 2338   2.807   0.044   2.546
  770SOL    HW2 2339   2.855  -0.030   2.684
  771SOL     OW 2340   2.350   1.385   2.036
  771SOL    HW1 2341   2.263   1.370   2.083
  771SOL    HW2 2342   2.333   1.411   1.941
  772SOL     OW 2343   2.389   0.256   2.190
  772SOL    HW1 2344   2.416   0.197   2.115
  772SOL    HW2 2345   2.389   0.351   2.159
  773SOL     OW 2346   2.973   1.195   2.962
  773SOL    HW1 2347   2.933   1.239   3.043
  773SOL    HW2 2348   2.932   1.232   2.879
  774SOL     OW 2349   2.567   1.050   2.230
  774SOL    HW1 2350   2.553   1.057   2.329
  774SOL    HW2 2351   2.651   0.999   2.212
  775SOL     OW 2352   2.272   0.813   3.113
  775SOL    HW1 2353   2.358   0.825   3.163
  775SOL    HW2 2354   2.230   0.726   3.140
  776SOL     OW 2355   2.229   1.100   2.363
  776SOL    HW1 2356   2.222   1.183   2.307
  776SOL    HW2 2357   2.233   1.020   2.303
  777SOL     OW 2358   2.428   0.537   2.727
  777SOL    HW1 2359   2.440   0.603   2.653
  777SOL    HW2 2360   2.474   0.571   2.810
  778SOL     OW 2361   3.114   1.348   2.250
  778SOL    HW1 2362   3.164   1.425   2.290
  778SOL    HW2 2363   3.019   1.350   2.282
  779SOL     OW 2364   3.134   1.445   3.004
  779SOL    HW1 2365   3.181   1.458   3.091
  779SOL    HW2 2366   3.068   1.371   3.013
  780SOL     OW 2367   2.435   0.870   2.891
  780SOL    HW1 2368   2.479   0.959   2.882
  780SOL    HW2 2369   2.372   0.870   2.968
  781SOL     OW 2370   3.222   0.862   2.907
  781SOL    HW1 2371   3.147   0.862   2.841
  781SOL    HW2 2372   3.259   0.770   2.916
  782SOL     OW 2373   3.071   0.525   2.137
  782SOL    HW1 2374   3.084   0.441   2.191
  782SOL    HW2 2375   3.042   0.599   2.197
  783SOL     OW 2376   2.169   0.213   3.093
  783SOL    HW1 2377   2.146   0.250   3.183
  783SOL    HW2 2378   2.139   0.118   3.087
  784SOL     OW 2379   2.594   0.634   2.926
  784SOL    HW1 2380   2.653   0.608   2.850
  784SOL    HW2 2381   2.566   0.730   2.915
  785SOL     OW 2382   2.169   0.063   2.480
  785SOL    HW1 2383   2.158   0.157   2.513
  785SOL    HW2 2384   2.164   0.000   2.557
  786SOL     OW 2385   2.885   0.766   2.828
  786SOL    HW1 2386   2.900   0.787   2.924
  786SOL    HW2 2387   2.855   0.671   2.819
  787SOL     OW 2388   3.402   0.274   1.987
  787SOL    HW1 2389   3.341   0.199   2.010
  787SOL    HW2 2390   3.424   0.326   2.070
  788SOL     OW 2391   2.930   1.333   2.711
  788SOL    HW1 2392   2.937   1.249   2.656
  788SOL    HW2 2393   2.992   1.402   2.675
  789SOL     OW 2394   2.181   0.810   2.811
  789SOL    HW1 2395   2.274   0.846   2.816
  789SOL    HW2 2396   2.175   0.725   2.863
  790SOL     OW 2397   2.201   0.509   2.868
  790SOL    HW1 2398   2.149   0.426   2.851
  790SOL    HW2 2399   2.278   0.514   2.804
  791SOL     OW 2400   3.022   0.207   3.339
  791SOL    HW1 2401   3.022   0.271   3.416
  791SOL    HW2 2402   3.050   0.255   3.256
  792SOL     OW 2403   1.870   1.326   2.062
  792SOL    HW1 2404   1.777   1.347   2.031
  792SOL    HW2 2405   1.880   1.227   2.075
  793SOL     OW 2406   1.950   1.801   2.789
  793SOL    HW1 2407   1.908   1.715   2.762
  793SOL    HW2 2408   2.044   1.804   2.755
  794SOL     OW 2409   2.366   1.568   2.772
  794SOL    HW1 2410   2.432   1.642   2.781
  794SOL    HW2 2411   2.410   1.489   2.730
  795SOL     OW 2412   2.864   0.796   3.100
  795SOL    HW1 2413   2.905   0.764   3.186
  795SOL    HW2 2414   2.768   0.769   3.097
  796SOL     OW 2415   1.902   0.544   2.976
  796SOL    HW1 2416   1.987   0.511   2.935
  796SOL    HW2 2417   1.915   0.559   3.074
  797SOL     OW 2418   2.677   0.572   2.187
  797SOL    HW1 2419   2.684   0.483   2.141
  797SOL    HW2 2420   2.583   0.606   2.179
  798SOL     OW 2421   2.533   0.464   3.131
  798SOL    HW1 2422   2.499   0.375   3.101
  798SOL    HW2 2423   2.559   0.518   3.051
  799SOL     OW 2424   2.335   0.500   2.053
  799SOL    HW1 2425   2.396   0.580   2.057
  799SOL    HW2 2426   2.240   0.531   2.060
  800SOL     OW 2427   2.021   1.137   3.328
  800SOL    HW1 2428   2.043   1.076   3.404
  800SOL    HW2 2429   2.031   1.088   3.242
  801SOL     OW 2430   3.114   1.731   2.990
  801SOL    HW1 2431   3.198   1.736   2.936
  801SOL    HW2 2432   3.091   1.635   3.008
  802SOL     OW 2433   1.945   1.258   2.884
  802SOL    HW1 2434   1.940   1.257   2.984
  802SOL    HW2 2435   1.862   1.217   2.846
  803SOL     OW 2436   2.534   1.616   2.016
  803SOL    HW1 2437   2.543   1.626   1.917
  803SOL    HW2 2438   2.494   1.527   2.037
  804SOL     OW 2439   2.125   0.326   2.582
  804SOL    HW1 2440   2.046   0.377   2.548
  804SOL    HW2 2441   2.116   0.311   2.680
  805SOL     OW 2442   2.684   1.002   3.234
  805SOL    HW1 2443   2.724   1.001   3.142
  805SOL    HW2 2444   2.694   1.094   3.274
  806SOL     OW 2445   2.778   0.910   2.153
  806SOL    HW1 2446   2.841   0.948   2.085
  806SOL    HW2 2447   2.818   0.827   2.192
  807SOL     OW 2448   2.901   1.098   2.558
  807SOL    HW1 2449   2.831   1.051   2.612
  807SOL    HW2 2450   2.960   1.030   2.515
  808SOL     OW 2451   2.876   0.236   2.833
  808SOL    HW1 2452   2.868   0.200   2.740
  808SOL    HW2 2453   2.874   0.160   2.898
  809SOL     OW 2454   2.452   1.487   2.353
  809SOL    HW1 2455   2.494   1.429   2.283
  809SOL    HW2 2456   2.408   1.566   2.309
  810SOL     OW 2457   2.117   1.348   2.152
  810SOL    HW1 2458   2.021   1.349   2.125
  810SOL    HW2 2459   2.129   1.401   2.236
  811SOL     OW 2460   1.937   0.345   1.895
  811SOL    HW1 2461   1.845   0.317   1.866
  811SOL    HW2 2462   1.968   0.422   1.839
  812SOL     OW 2463   1.934   0.166   2.180
  812SOL    HW1 2464   1.917   0.249   2.126
  812SOL    HW2 2465   2.024   0.129   2.158
  813SOL     OW 2466   2.456   0.745   2.514
  813SOL    HW1 2467   2.506   0.830   2.495
  813SOL    HW2 2468   2.368   0.747   2.466
  814SOL     OW 2469   2.721   1.374   1.878
  814SOL    HW1 2470   2.675   1.389   1.966
  814SOL    HW2 2471   2.765   1.459   1.848
  815SOL     OW 2472   2.523   1.790   2.815
  815SOL    HW1 2473   2.477   1.878   2.802
  815SOL    HW2 2474   2.622   1.802   2.808
  816SOL     OW 2475   2.721   0.956   2.723
  816SOL    HW1 2476   2.775   0.887   2.771
  816SOL    HW2 2477   2.689   1.025   2.789
  817SOL     OW 2478   2.945   0.984   1.949
  817SOL    HW1 2479   2.922   1.037   1.867
  817SOL    HW2 2480   3.026   0.928   1.930
  818SOL     OW 2481   1.941   1.240   2.515
  818SOL    HW1 2482   1.940   1.193   2.603
  818SOL    HW2 2483   2.023   1.212   2.464
  819SOL     OW 2484   2.290   0.424   2.382
  819SOL    HW1 2485   2.320   0.352   2.320
  819SOL    HW2 2486   2.251   0.384   2.465
  820SOL     OW 2487   2.674   1.586   2.549
  820SOL    HW1 2488   2.706   1.596   2.455
  820SOL    HW2 2489   2.595   1.524   2.551
  821SOL     OW 2490   2.863   0.034   3.016
  821SOL    HW1 2491   2.800  -0.038   2.985
  821SOL    HW2 2492   2.956  -0.002   3.016
  822SOL     OW 2493   2.632   1.330   2.163
  822SOL    HW1 2494   2.586   1.243   2.180
  822SOL    HW2 2495   2.723   1.327   2.204
  823SOL     OW 2496   3.214   0.052   2.030
  823SOL    HW1 2497   3.249   0.011   1.946
  823SOL    HW2 2498   3.124   0.014   2.050
  824SOL     OW 2499   1.901   1.077   2.162
  824SOL    HW1 2500   2.000   1.066   2.153
  824SOL    HW2 2501   1.861   0.991   2.194
  825SOL     OW 2502   2.737   1.646   2.199
  825SOL    HW1 2503   2.660   1.611   2.145
  825SOL    HW2 2504   2.705   1.717   2.261
  826SOL     OW 2505   2.092   2.490   0.113
  826SOL    HW1 2506   1.999   2.488   0.150
  826SOL    HW2 2507   2.093   2.451   0.021
  827SOL     OW 2508   2.087   2.137   0.996
  827SOL    HW1 2509   2.122   2.120   1.088
  827SOL    HW2 2510   1.999   2.092   0.984
  828SOL     OW 2511   1.881   2.230   0.647
  828SOL    HW1 2512   1.799   2.273   0.686
  828SOL    HW2 2513   1.853   2.157   0.584
  829SOL     OW 2514   2.997   2.565   0.717
  829SOL    HW1 2515   3.054   2.643   0.692
  829SOL    HW2 2516   2.937   2.591   0.793
  830SOL     OW 2517   2.630   3.006   1.023
  830SOL    HW1 2518   2.552   3.023   1.083
  830SOL    HW2 2519   2.664   3.093   0.987
  831SOL     OW 2520   2.712   2.660   1.823
  831SOL    HW1 2521   2.708   2.736   1.888
  831SOL    HW2 2522   2.734   2.696   1.732
  832SOL     OW 2523   2.547   2.874   0.665
  832SOL    HW1 2524   2.616   2.858   0.735
  832SOL    HW2 2525   2.474   2.931   0.703
  833SOL     OW 2526   2.300   2.254   1.499
  833SOL    HW1 2527   2.382   2.198   1.508
  833SOL    HW2 2528   2.219   2.196   1.503
  834SOL     OW 2529   2.102   2.953   0.886
  834SOL    HW1 2530   2.116   2.869   0.938
  834SOL    HW2 2531   2.047   3.017   0.941
  835SOL     OW 2532   2.468   2.826   0.123
  835SOL    HW1 2533   2.475   2.910   0.069
  835SOL    HW2 2534   2.514   2.839   0.211
  836SOL     OW 2535   1.984   2.505   0.563
  836SOL    HW1 2536   1.939   2.417   0.580
  836SOL    HW2 2537   1.983   2.559   0.647
  837SOL     OW 2538   1.975   2.599   1.597
  837SOL    HW1 2539   2.063   2.586   1.642
  837SOL    HW2 2540   1.962   2.696   1.575
  838SOL     OW 2541   2.475   3.227   0.726
  838SOL    HW1 2542   2.426   3.140   0.735
  838SOL    HW2 2543   2.452   3.270   0.639
  839SOL     OW 2544   2.671   1.866   0.502
  839SOL    HW1 2545   2.711   1.957   0.493
  839SOL    HW2 2546   2.571   1.874   0.508
  840SOL     OW 2547   2.059   2.838   1.264
  840SOL    HW1 2548   2.148   2.793   1.250
  840SOL    HW2 2549   1.986   2.773   1.245
  841SOL     OW 2550   2.179   2.113   1.801
  841SOL    HW1 2551   2.250   2.184   1.807
  841SOL    HW2 2552   2.091   2.152   1.829
  842SOL     OW 2553   2.460   2.591   0.270
  842SOL    HW1 2554   2.484   2.660   0.202
  842SOL    HW2 2555   2.382   2.624   0.324
  843SOL     OW 2556   2.669   2.467   1.465
  843SOL    HW1 2557   2.622   2.464   1.554
  843SOL    HW2 2558   2.618   2.412   1.399
  844SOL     OW 2559   2.835   2.752   1.572
  844SOL    HW1 2560   2.881   2.668   1.543
  844SOL    HW2 2561   2.779   2.786   1.497
  845SOL     OW 2562   2.853   2.272   1.242
  845SOL    HW1 2563   2.776   2.306   1.296
  845SOL    HW2 2564   2.819   2.221   1.163
  846SOL     OW 2565   2.903   2.563   0.429
  846SOL    HW1 2566   2.929   2.559   0.525
  846SOL    HW2 2567   2.818   2.512   0.415
  847SOL     OW 2568   1.938   2.673   0.789
  847SOL    HW1 2569   2.037   2.661   0.798
  847SOL    HW2 2570   1.914   2.768   0.810
  848SOL     OW 2571   2.727   2.210   0.195
  848SOL    HW1 2572   2.786   2.273   0.146
  848SOL    HW2 2573   2.746   2.116   0.166
  849SOL     OW 2574   2.412   2.058   0.885
  849SOL    HW1 2575   2.407   2.053   0.985
  849SOL    HW2 2576   2.414   2.154   0.856
  850SOL     OW 2577   2.183   2.805   0.242
  850SOL    HW1 2578   2.265   2.844   0.200
  850SOL    HW2 2579   2.156   2.723   0.193
  851SOL     OW 2580   2.064   2.147   1.498
  851SOL    HW1 2581   1.984   2.207   1.485
  851SOL    HW2 2582   2.054   2.098   1.584
  852SOL     OW 2583   2.244   2.562   0.480
  852SOL    HW1 2584   2.289   2.472   0.477
  852SOL    HW2 2585   2.150   2.551   0.513
  853SOL     OW 2586   2.476   1.984   0.117
  853SOL    HW1 2587   2.574   1.962   0.124
  853SOL    HW2 2588   2.445   1.967   0.024
  854SOL     OW 2589   2.643   2.126   1.749
  854SOL    HW1 2590   2.710   2.065   1.792
  854SOL    HW2 2591   2.570   2.145   1.814
  855SOL     OW 2592   2.784   2.365   0.899
  855SOL    HW1 2593   2.759   2.356   0.803
  855SOL    HW2 2594   2.832   2.283   0.930
  856SOL     OW 2595   2.401   1.926   0.512
  856SOL    HW1 2596   2.320   1.927   0.570
  856SOL    HW2 2597   2.404   2.009   0.457
  857SOL     OW 2598   2.159   1.897   0.171
  857SOL    HW1 2599   2.208   1.981   0.150
  857SOL    HW2 2600   2.221   1.832   0.216
  858SOL     OW 2601   2.797   2.098   0.480
  858SOL    HW1 2602   2.749   2.139   0.402
  858SOL    HW2 2603   2.896   2.096   0.461
  859SOL     OW 2604   2.938   2.545   1.464
  859SOL    HW1 2605   2.858   2.484   1.467
  859SOL    HW2 2606   3.019   2.492   1.440
  860SOL     OW 2607   2.321   3.014   0.741
  860SOL    HW1 2608   2.250   2.987   0.806
  860SOL    HW2 2609   2.295   2.986   0.648
  861SOL     OW 2610   2.894   2.411   0.016
  861SOL    HW1 2611   2.853   2.493  -0.023
  861SOL    HW2 2612   2.958   2.437   0.089
  862SOL     OW 2613   1.940   2.418   1.386
  862SOL    HW1 2614   2.032   2.417   1.345
  862SOL    HW2 2615   1.934   2.492   1.453
  863SOL     OW 2616   2.423   2.084   1.147
  863SOL    HW1 2617   2.461   2.000   1.184
  863SOL    HW2 2618   2.335   2.103   1.191
  864SOL     OW 2619   2.728   2.316   0.642
  864SOL    HW1 2620   2.696   2.388   0.580
  864SOL    HW2 2621   2.752   2.235   0.589
  865SOL     OW 2622   2.879   1.901   0.753
  865SOL    HW1 2623   2.807   1.906   0.684
  865SOL    HW2 2624   2.855   1.832   0.822
  866SOL     OW 2625   2.389   2.118   0.328
  866SOL    HW1 2626   2.416   2.059   0.253
  866SOL    HW2 2627   2.389   2.213   0.297
  867SOL     OW 2628   2.777   1.951   1.402
  867SOL    HW1 2629   2.802   1.931   1.307
  867SOL    HW2 2630   2.849   2.007   1.444
  868SOL     OW 2631   2.842   2.978   1.719
  868SOL    HW1 2632   2.743   2.984   1.729
  868SOL    HW2 2633   2.865   2.898   1.663
  869SOL     OW 2634   2.567   2.912   0.368
  869SOL    HW1 2635   2.553   2.919   0.467
  869SOL    HW2 2636   2.651   2.861   0.350
  870SOL     OW 2637   2.272   2.675   1.251
  870SOL    HW1 2638   2.358   2.687   1.301
  870SOL    HW2 2639   2.230   2.588   1.278
  871SOL     OW 2640   2.229   2.962   0.501
  871SOL    HW1 2641   2.222   3.045   0.445
  871SOL    HW2 2642   2.233   2.882   0.441
  872SOL     OW 2643   2.428   2.399   0.865
  872SOL    HW1 2644   2.440   2.465   0.791
  872SOL    HW2 2645   2.474   2.433   0.948
  873SOL     OW 2646   2.264   2.613   1.598
  873SOL    HW1 2647   2.332   2.668   1.551
  873SOL    HW2 2648   2.304   2.525   1.625
  874SOL     OW 2649   2.875   1.967   1.770
  874SOL    HW1 2650   2.881   2.052   1.718
  874SOL    HW2 2651   2.907   1.891   1.713
  875SOL     OW 2652   2.366   1.912   1.740
  875SOL    HW1 2653   2.324   1.855   1.670
  875SOL    HW2 2654   2.300   1.981   1.772
  876SOL     OW 2655   2.435   2.732   1.029
  876SOL    HW1 2656   2.479   2.821   1.020
  876SOL    HW2 2657   2.372   2.732   1.106
  877SOL     OW 2658   3.222   2.724   1.045
  877SOL    HW1 2659   3.147   2.724   0.979
  877SOL    HW2 2660   3.259   2.632   1.054
  878SOL     OW 2661   3.071   2.387   0.275
  878SOL    HW1 2662   3.084   2.303   0.329
  878SOL    HW2 2663   3.042   2.461   0.335
  879SOL     OW 2664   2.169   2.075   1.231
  879SOL    HW1 2665   2.146   2.112   1.321
  879SOL    HW2 2666   2.139   1.980   1.225
  880SOL     OW 2667   2.594   2.496   1.064
  880SOL    HW1 2668   2.653   2.470   0.988
  880SOL    HW2 2669   2.566   2.592   1.053
  881SOL     OW 2670   2.169   1.925   0.618
  881SOL    HW1 2671   2.158   2.019   0.651
  881SOL    HW2 2672   2.164   1.862   0.695
  882SOL     OW 2673   2.885   2.628   0.966
  882SOL    HW1 2674   2.900   2.649   1.062
  882SOL    HW2 2675   2.855   2.533   0.957
  883SOL     OW 2676   2.212   2.760   1.804
  883SOL    HW1 2677   2.288   2.804   1.852
  883SOL    HW2 2678   2.247   2.713   1.722
  884SOL     OW 2679   2.181   2.672   0.949
  884SOL    HW1 2680   2.274   2.708   0.954
  884SOL    HW2 2681   2.175   2.587   1.001
  885SOL     OW 2682   2.201   2.371   1.006
  885SOL    HW1 2683   2.149   2.288   0.989
  885SOL    HW2 2684   2.278   2.376   0.942
  886SOL     OW 2685   3.000   2.242   1.678
  886SOL    HW1 2686   2.955   2.305   1.742
  886SOL    HW2 2687   3.093   2.273   1.661
  887SOL     OW 2688   3.022   2.069   1.477
  887SOL    HW1 2689   3.022   2.133   1.554
  887SOL    HW2 2690   3.050   2.117   1.394
  888SOL     OW 2691   2.864   2.658   1.238
  888SOL    HW1 2692   2.905   2.626   1.324
  888SOL    HW2 2693   2.768   2.631   1.235
  889SOL     OW 2694   1.902   2.406   1.114
  889SOL    HW1 2695   1.987   2.373   1.073
  889SOL    HW2 2696   1.915   2.421   1.212
  890SOL     OW 2697   2.051   2.382   1.722
  890SOL    HW1 2698   2.110   2.342   1.652
  890SOL    HW2 2699   1.993   2.453   1.681
  891SOL     OW 2700   2.677   2.434   0.325
  891SOL    HW1 2701   2.684   2.345   0.279
  891SOL    HW2 2702   2.583   2.468   0.317
  892SOL     OW 2703   2.533   2.326   1.269
  892SOL    HW1 2704   2.499   2.237   1.239
  892SOL    HW2 2705   2.559   2.380   1.189
  893SOL     OW 2706   2.335   2.362   0.191
  893SOL    HW1 2707   2.396   2.442   0.195
  893SOL    HW2 2708   2.240   2.393   0.198
  894SOL     OW 2709   2.021   2.999   1.466
  894SOL    HW1 2710   2.043   2.938   1.542
  894SOL    HW2 2711   2.031   2.950   1.380
  895SOL     OW 2712   2.765   1.948   0.133
  895SOL    HW1 2713   2.816   1.949   0.047
  895SOL    HW2 2714   2.821   1.906   0.204
  896SOL     OW 2715   2.125   2.188   0.720
  896SOL    HW1 2716   2.046   2.239   0.686
  896SOL    HW2 2717   2.116   2.173   0.818
  897SOL     OW 2718   2.684   2.864   1.372
  897SOL    HW1 2719   2.724   2.863   1.280
  897SOL    HW2 2720   2.694   2.956   1.412
  898SOL     OW 2721   2.778   2.772   0.291
  898SOL    HW1 2722   2.841   2.810   0.223
  898SOL    HW2 2723   2.818   2.689   0.330
  899SOL     OW 2724   2.234   3.150   1.490
  899SOL    HW1 2725   2.221   3.243   1.456
  899SOL    HW2 2726   2.150   3.098   1.477
  900SOL     OW 2727   2.901   2.960   0.696
  900SOL    HW1 2728   2.831   2.913   0.750
  900SOL    HW2 2729   2.960   2.892   0.653
  901SOL     OW 2730   2.876   2.098   0.971
  901SOL    HW1 2731   2.868   2.062   0.878
  901SOL    HW2 2732   2.874   2.022   1.036
  902SOL     OW 2733   1.967   2.875   1.726
  902SOL    HW1 2734   1.890   2.842   1.780
  902SOL    HW2 2735   2.052   2.845   1.768
  903SOL     OW 2736   2.534   2.065   1.489
  903SOL    HW1 2737   2.624   2.049   1.449
  903SOL    HW2 2738   2.542   2.070   1.588
  904SOL     OW 2739   1.934   2.028   0.318
  904SOL    HW1 2740   1.917   2.111   0.264
  904SOL    HW2 2741   2.024   1.991   0.296
  905SOL     OW 2742   2.475   2.704   1.431
  905SOL    HW1 2743   2.531   2.785   1.414
  905SOL    HW2 2744   2.534   2.624   1.434
  906SOL     OW 2745   2.578   2.427   1.708
  906SOL    HW1 2746   2.597   2.492   1.782
  906SOL    HW2 2747   2.638   2.347   1.717
  907SOL     OW 2748   2.456   2.607   0.652
  907SOL    HW1 2749   2.506   2.692   0.633
  907SOL    HW2 2750   2.368   2.609   0.604
  908SOL     OW 2751   2.721   2.818   0.861
  908SOL    HW1 2752   2.775   2.749   0.909
  908SOL    HW2 2753   2.689   2.887   0.927
  909SOL     OW 2754   2.945   2.846   0.087
  909SOL    HW1 2755   2.922   2.899   0.005
  909SOL    HW2 2756   3.026   2.790   0.068
  910SOL     OW 2757   1.941   3.102   0.653
  910SOL    HW1 2758   1.940   3.055   0.741
  910SOL    HW2 2759   2.023   3.074   0.602
  911SOL     OW 2760   2.290   2.286   0.520
  911SOL    HW1 2761   2.320   2.214   0.458
  911SOL    HW2 2762   2.251   2.246   0.603
  912SOL     OW 2763   2.179   2.409   1.280
  912SOL    HW1 2764   2.217   2.350   1.352
  912SOL    HW2 2765   2.219   2.383   1.192
  913SOL     OW 2766   2.863   1.896   1.154
  913SOL    HW1 2767   2.800   1.824   1.123
  913SOL    HW2 2768   2.956   1.860   1.154
  914SOL     OW 2769   2.632   3.192   0.301
  914SOL    HW1 2770   2.586   3.105   0.318
  914SOL    HW2 2771   2.723   3.189   0.342
  915SOL     OW 2772   3.214   1.914   0.168
  915SOL    HW1 2773   3.249   1.873   0.084
  915SOL    HW2 2774   3.124   1.876   0.188
  916SOL     OW 2775   2.092   2.490   1.975
  916SOL    HW1 2776   1.999   2.488   2.012
  916SOL    HW2 2777   2.093   2.451   1.883
  917SOL     OW 2778   2.087   2.137   2.858
  917SOL    HW1 2779   2.122   2.120   2.950
  917SOL    HW2 2780   1.999   2.092   2.846
  918SOL     OW 2781   1.881   2.230   2.509
  918SOL    HW1 2782   1.799   2.273   2.548
  918SOL    HW2 2783   1.853   2.157   2.446
  919SOL     OW 2784   2.997   2.565   2.579
  919SOL    HW1 2785   3.054   2.643   2.554
  919SOL    HW2 2786   2.937   2.591   2.655
  920SOL     OW 2787   2.630   3.006   2.885
  920SOL    HW1 2788   2.552   3.023   2.945
  920SOL    HW2 2789   2.664   3.093   2.849
  921SOL     OW 2790   2.547   2.874   2.527
  921SOL    HW1 2791   2.616   2.858   2.597
  921SOL    HW2 2792   2.474   2.931   2.565
  922SOL     OW 2793   2.102   2.953   2.748
  922SOL    HW1 2794   2.116   2.869   2.800
  922SOL    HW2 2795   2.047   3.017   2.803
  923SOL     OW 2796   2.468   2.826   1.985
  923SOL    HW1 2797   2.475   2.910   1.931
  923SOL    HW2 2798   2.514   2.839   2.073
  924SOL     OW 2799   1.984   2.505   2.425
  924SOL    HW1 2800   1.939   2.417   2.442
  924SOL    HW2 2801   1.983   2.559   2.509
  925SOL     OW 2802   2.475   3.227   2.588
  925SOL    HW1 2803   2.426   3.140   2.597
  925SOL    HW2 2804   2.452   3.270   2.501
  926SOL     OW 2805   2.671   1.866   2.364
  926SOL    HW1 2806   2.711   1.957   2.355
  926SOL    HW2 2807   2.571   1.874   2.370
  927SOL     OW 2808   2.059   2.838   3.126
  927SOL    HW1 2809   2.148   2.793   3.112
  927SOL    HW2 2810   1.986   2.773   3.107
  928SOL     OW 2811   2.460   2.591   2.132
  928SOL    HW1 2812   2.484   2.660   2.064
  928SOL    HW2 2813   2.382   2.624   2.186
  929SOL     OW 2814   2.903   2.563   2.291
  929SOL    HW1 2815   2.929   2.559   2.387
  929SOL    HW2 2816   2.818   2.512   2.277
  930SOL     OW 2817   1.938   2.673   2.651
  930SOL    HW1 2818   2.037   2.661   2.660
  930SOL    HW2 2819   1.914   2.768   2.672
  931SOL     OW 2820   2.727   2.210   2.057
  931SOL    HW1 2821   2.786   2.273   2.008
  931SOL    HW2 2822   2.746   2.116   2.028
  932SOL     OW 2823   2.412   2.058   2.747
  932SOL    HW1 2824   2.407   2.053   2.847
  932SOL    HW2 2825   2.414   2.154   2.718
  933SOL     OW 2826   2.183   2.805   2.104
  933SOL    HW1 2827   2.265   2.844   2.062
  933SOL    HW2 2828   2.156   2.723   2.055
  934SOL     OW 2829   2.244   2.562   2.342
  934SOL    HW1 2830   2.289   2.472   2.339
  934SOL    HW2 2831   2.150   2.551   2.375
  935SOL     OW 2832   2.476   1.984   1.979
  935SOL    HW1 2833   2.574   1.962   1.986
  935SOL    HW2 2834   2.445   1.967   1.886
  936SOL     OW 2835   2.784   2.365   2.761
  936SOL    HW1 2836   2.759   2.356   2.665
  936SOL    HW2 2837   2.832   2.283   2.792
  937SOL     OW 2838   2.401   1.926   2.374
  937SOL    HW1 2839   2.320   1.927   2.432
  937SOL    HW2 2840   2.404   2.009   2.319
  938SOL     OW 2841   2.159   1.897   2.033
  938SOL    HW1 2842   2.208   1.981   2.012
  938SOL    HW2 2843   2.221   1.832   2.078
  939SOL     OW 2844   2.797   2.098   2.342
  939SOL    HW1 2845   2.749   2.139   2.264
  939SOL    HW2 2846   2.896   2.096   2.323
  940SOL     OW 2847   2.321   3.014   2.603
  940SOL    HW1 2848   2.250   2.987   2.668
  940SOL    HW2 2849   2.295   2.986   2.510
  941SOL     OW 2850   2.894   2.411   1.878
  941SOL    HW1 2851   2.853   2.493   1.839
  941SOL    HW2 2852   2.958   2.437   1.951
  942SOL     OW 2853   2.728   2.316   2.504
  942SOL    HW1 2854   2.696   2.388   2.442
  942SOL    HW2 2855   2.752   2.235   2.451
  943SOL     OW 2856   2.879   1.901   2.615
  943SOL    HW1 2857   2.807   1.906   2.546
  943SOL    HW2 2858   2.855   1.832   2.684
  944SOL     OW 2859   2.389   2.118   2.190
  944SOL    HW1 2860   2.416   2.059   2.115
  944SOL    HW2 2861   2.389   2.213   2.159
  945SOL     OW 2862   2.567   2.912   2.230
  945SOL    HW1 2863   2.553   2.919   2.329
  945SOL    HW2 2864   2.651   2.861   2.212
  946SOL     OW 2865   2.272   2.675   3.113
  946SOL    HW1 2866   2.358   2.687   3.163
  946SOL    HW2 2867   2.230   2.588   3.140
  947SOL     OW 2868   2.229   2.962   2.363
  947SOL    HW1 2869   2.222   3.045   2.307
  947SOL    HW2 2870   2.233   2.882   2.303
  948SOL     OW 2871   2.428   2.399   2.727
  948SOL    HW1 2872   2.440   2.465   2.653
  948SOL    HW2 2873   2.474   2.433   2.810
  949SOL     OW 2874   2.435   2.732   2.891
  949SOL    HW1 2875   2.479   2.821   2.882
  949SOL    HW2 2876   2.372   2.732   2.968
  950SOL     OW 2877   3.222   2.724   2.907
  950SOL    HW1 2878   3.147   2.724   2.841
  950SOL    HW2 2879   3.259   2.632   2.916
  951SOL     OW 2880   3.071   2.387   2.137
  951SOL    HW1 2881   3.084   2.303   2.191
  951SOL    HW2 2882   3.042   2.461   2.197
  952SOL     OW 2883   2.169   2.075   3.093
  952SOL    HW1 2884   2.146   2.112   3.183
  952SOL    HW2 2885   2.139   1.980   3.087
  953SOL     OW 2886   2.594   2.496   2.926
  953SOL    HW1 2887   2.653   2.470   2.850
  953SOL    HW2 2888   2.566   2.592   2.915
  954SOL     OW 2889   2.169   1.925   2.480
  954SOL    HW1 2890   2.158   2.019   2.513
  954SOL    HW2 2891   2.164   1.862   2.557
  955SOL     OW 2892   2.885   2.628   2.828
  955SOL    HW1 2893   2.900   2.649   2.924
  955SOL    HW2 2894   2.855   2.533   2.819
  956SOL     OW 2895   3.402   2.136   1.987
  956SOL    HW1 2896   3.341   2.061   2.010
  956SOL    HW2 2897   3.424   2.188   2.070
  957SOL     OW 2898   2.181   2.672   2.811
  957SOL    HW1 2899   2.274   2.708   2.816
  957SOL    HW2 2900   2.175   2.587   2.863
  958SOL     OW 2901   2.201   2.371   2.868
  958SOL    HW1 2902   2.149   2.288   2.851
  958SOL    HW2 2903   2.278   2.376   2.804
  959SOL     OW 2904   3.022   2.069   3.339
  959SOL    HW1 2905   3.022   2.133   3.416
  959SOL    HW2 2906   3.050   2.117   3.256
  960SOL     OW 2907   2.864   2.658   3.100
  960SOL    HW1 2908   2.905   2.626   3.186
  960SOL    HW2 2909   2.768   2.631   3.097
  961SOL     OW 2910   1.902   2.406   2.976
  961SOL    HW1 2911   1.987   2.373   2.935
  961SOL    HW2 2912   1.915   2.421   3.074
  962SOL     OW 2913   2.677   2.434   2.187
  962SOL    HW1 2914   2.684   2.345   2.141
  962SOL    HW2 2915   2.583   2.468   2.179
  963SOL     OW 2916   2.533   2.326   3.131
  963SOL    HW1 2917   2.499   2.237   3.101
  963SOL    HW2 2918   2.559   2.380   3.051
  964SOL     OW 2919   2.335   2.362   2.053
  964SOL    HW1 2920   2.396   2.442   2.057
  964SOL    HW2 2921   2.240   2.393   2.060
  965SOL     OW 2922   2.021   2.999   3.328
  965SOL    HW1 2923   2.043   2.938   3.404
  965SOL    HW2 2924   2.031   2.950   3.242
  966SOL     OW 2925   2.125   2.188   2.582
  966SOL    HW1 2926   2.046   2.239   2.548
  966SOL    HW2 2927   2.116   2.173   2.680
  967SOL     OW 2928   2.684   2.864   3.234
  967SOL    HW1 2929   2.724   2.863   3.142
  967SOL    HW2 2930   2.694   2.956   3.274
  968SOL     OW 2931   2.778   2.772   2.153
  968SOL    HW1 2932   2.841   2.810   2.085
  968SOL    HW2 2933   2.818   2.689   2.192
  969SOL     OW 2934   2.901   2.960   2.558
  969SOL    HW1 2935   2.831   2.913   2.612
  969SOL    HW2 2936   2.960   2.892   2.515
  970SOL     OW 2937   2.876   2.098   2.833
  970SOL    HW1 2938   2.868   2.062   2.740
  970SOL    HW2 2939   2.874   2.022   2.898
  971SOL     OW 2940   1.937   2.207   1.895
  971SOL    HW1 2941   1.845   2.179   1.866
  971SOL    HW2 2942   1.968   2.284   1.839
  972SOL     OW 2943   1.934   2.028   2.180
  972SOL    HW1 2944   1.917   2.111   2.126
  972SOL    HW2 2945   2.024   1.991   2.158
  973SOL     OW 2946   2.456   2.607   2.514
  973SOL    HW1 2947   2.506   2.692   2.495
  973SOL    HW2 2948   2.368   2.609   2.466
  974SOL     OW 2949   2.721   2.818   2.723
  974SOL    HW1 2950   2.775   2.749   2.771
  974SOL    HW2 2951   2.689   2.887   2.789
  975SOL     OW 2952   2.945   2.846   1.949
  975SOL    HW1 2953   2.922   2.899   1.867
  975SOL    HW2 2954   3.026   2.790   1.930
  976SOL     OW 2955   1.941   3.102   2.515
  976SOL    HW1 2956   1.940   3.055   2.603
  976SOL    HW2 2957   2.023   3.074   2.464
  977SOL     OW 2958   2.290   2.286   2.382
  977SOL    HW1 2959   2.320   2.214   2.320
  977SOL    HW2 2960   2.251   2.246   2.465
  978SOL     OW 2961   2.863   1.896   3.016
  978SOL    HW1 2962   2.800   1.824   2.985
  978SOL    HW2 2963   2.956   1.860   3.016
  979SOL     OW 2964   2.632   3.192   2.163
  979SOL    HW1 2965   2.586   3.105   2.180
  979SOL    HW2 2966   2.723   3.189   2.204
  980SOL     OW 2967   1.901   2.939   2.162
  980SOL    HW1 2968   2.000   2.928   2.153
  980SOL    HW2 2969   1.861   2.853   2.194
   3.12103   3.12103   3.12103
