; mobley_3999471_GMX.top created by acpype (v: 2023.10.27) on Thu May 14 13:50:19 2026

[ defaults ]
; nbfunc        comb-rule       gen-pairs       fudgeLJ fudgeQQ
1               2               yes             0.5     0.8333333333

; Include mobley_3999471_GMX.itp topology
#include "mobley_3999471_GMX.itp"

; Ligand position restraints
#ifdef POSRES_LIG
#include "posre_mobley_3999471.itp"
#endif

#include "../common/SOL.TIP3P.itp"

[ system ]
mobley_3999471 in water

[ molecules ]
; Compound        nmols
 mobley_3999471   1     
SOL               440
