mobley_2763835_GMX.gro created by acpype (v: 2023.10.27) on Thu May 14 13:16:54 2026
 2140
    1MOL     C1    1   1.420   1.347   1.107
    1MOL     C2    2   1.313   1.407   1.174
    1MOL     C3    3   1.525   1.291   1.179
    1MOL     C4    4   1.311   1.410   1.314
    1MOL     C5    5   1.523   1.294   1.319
    1MOL     C6    6   1.416   1.353   1.386
    1MOL     C7    7   1.413   1.495   1.718
    1MOL     C8    8   1.348   1.466   1.584
    1MOL     O1    9   1.414   1.356   1.522
    1MOL     H1   10   1.421   1.345   0.998
    1MOL     H2   11   1.231   1.451   1.118
    1MOL     H3   12   1.608   1.244   1.127
    1MOL     H4   13   1.228   1.457   1.366
    1MOL     H5   14   1.605   1.249   1.375
    1MOL     H6   15   1.364   1.579   1.768
    1MOL     H7   16   1.407   1.406   1.782
    1MOL     H8   17   1.519   1.518   1.705
    1MOL     H9   18   1.355   1.553   1.518
    1MOL    H10   19   1.242   1.441   1.597
    2SOL     OW   20   0.230   0.628   0.113
    2SOL    HW1   21   0.137   0.626   0.150
    2SOL    HW2   22   0.231   0.589   0.021
    3SOL     OW   23   0.225   0.275   0.996
    3SOL    HW1   24   0.260   0.258   1.088
    3SOL    HW2   25   0.137   0.230   0.984
    4SOL     OW   26   0.019   0.368   0.647
    4SOL    HW1   27  -0.063   0.411   0.686
    4SOL    HW2   28  -0.009   0.295   0.584
    5SOL     OW   29   0.569   1.275   1.165
    5SOL    HW1   30   0.476   1.268   1.128
    5SOL    HW2   31   0.580   1.364   1.209
    6SOL     OW   32   1.555   1.511   0.703
    6SOL    HW1   33   1.498   1.495   0.784
    6SOL    HW2   34   1.496   1.521   0.623
    7SOL     OW   35   1.135   0.703   0.717
    7SOL    HW1   36   1.192   0.781   0.692
    7SOL    HW2   37   1.075   0.729   0.793
    8SOL     OW   38   1.755   0.607   0.231
    8SOL    HW1   39   1.743   0.594   0.132
    8SOL    HW2   40   1.725   0.526   0.280
    9SOL     OW   41   0.768   1.144   1.023
    9SOL    HW1   42   0.690   1.161   1.083
    9SOL    HW2   43   0.802   1.231   0.987
   10SOL     OW   44   0.850   0.798   1.823
   10SOL    HW1   45   0.846   0.874   1.888
   10SOL    HW2   46   0.872   0.834   1.732
   11SOL     OW   47   0.685   1.012   0.665
   11SOL    HW1   48   0.754   0.996   0.735
   11SOL    HW2   49   0.612   1.069   0.703
   12SOL     OW   50   0.686   1.161   1.803
   12SOL    HW1   51   0.746   1.240   1.817
   12SOL    HW2   52   0.600   1.192   1.762
   13SOL     OW   53   0.335   1.435   1.061
   13SOL    HW1   54   0.257   1.404   1.008
   13SOL    HW2   55   0.393   1.493   1.004
   14SOL     OW   56   0.438   0.392   1.499
   14SOL    HW1   57   0.520   0.336   1.508
   14SOL    HW2   58   0.357   0.334   1.503
   15SOL     OW   59   1.603   0.447   0.737
   15SOL    HW1   60   1.529   0.493   0.687
   15SOL    HW2   61   1.654   0.515   0.790
   16SOL     OW   62   0.231   1.713   0.483
   16SOL    HW1   63   0.265   1.790   0.537
   16SOL    HW2   64   0.275   1.713   0.393
   17SOL     OW   65   1.127   1.341   1.690
   17SOL    HW1   66   1.174   1.341   1.778
   17SOL    HW2   67   1.079   1.254   1.679
   18SOL     OW   68   0.230   1.434   0.538
   18SOL    HW1   69   0.204   1.530   0.538
   18SOL    HW2   70   0.159   1.380   0.583
   19SOL     OW   71   0.240   1.091   0.886
   19SOL    HW1   72   0.254   1.007   0.938
   19SOL    HW2   73   0.185   1.155   0.941
   20SOL     OW   74   0.620   1.786   1.439
   20SOL    HW1   75   0.528   1.769   1.474
   20SOL    HW2   76   0.648   1.878   1.465
   21SOL     OW   77   0.606   0.964   0.123
   21SOL    HW1   78   0.613   1.048   0.069
   21SOL    HW2   79   0.652   0.977   0.211
   22SOL     OW   80   1.594   0.114   1.480
   22SOL    HW1   81   1.576   0.181   1.408
   22SOL    HW2   82   1.591   0.160   1.569
   23SOL     OW   83   0.122   0.643   0.563
   23SOL    HW1   84   0.077   0.555   0.580
   23SOL    HW2   85   0.121   0.697   0.647
   24SOL     OW   86   1.842   1.767   0.359
   24SOL    HW1   87   1.896   1.738   0.439
   24SOL    HW2   88   1.872   1.857   0.330
   25SOL     OW   89   0.027   1.596   0.117
   25SOL    HW1   90   0.008   1.500   0.138
   25SOL    HW2   91  -0.006   1.654   0.192
   26SOL     OW   92   1.689   0.922   0.612
   26SOL    HW1   93   1.784   0.893   0.620
   26SOL    HW2   94   1.681   0.987   0.537
   27SOL     OW   95   1.641   1.108   0.432
   27SOL    HW1   96   1.727   1.110   0.380
   27SOL    HW2   97   1.655   1.155   0.520
   28SOL     OW   98   0.113   0.737   1.597
   28SOL    HW1   99   0.201   0.724   1.642
   28SOL    HW2  100   0.100   0.834   1.575
   29SOL     OW  101   0.613   1.365   0.726
   29SOL    HW1  102   0.564   1.278   0.735
   29SOL    HW2  103   0.590   1.408   0.639
   30SOL     OW  104   0.809   0.004   0.502
   30SOL    HW1  105   0.849   0.095   0.493
   30SOL    HW2  106   0.709   0.012   0.508
   31SOL     OW  107   0.197   0.976   1.264
   31SOL    HW1  108   0.286   0.931   1.250
   31SOL    HW2  109   0.124   0.911   1.245
   32SOL     OW  110   1.525   0.999   0.190
   32SOL    HW1  111   1.462   0.923   0.203
   32SOL    HW2  112   1.573   1.017   0.276
   33SOL     OW  113   1.187   1.792   1.616
   33SOL    HW1  114   1.211   1.852   1.540
   33SOL    HW2  115   1.194   1.697   1.586
   34SOL     OW  116   0.317   0.251   1.801
   34SOL    HW1  117   0.388   0.322   1.807
   34SOL    HW2  118   0.229   0.290   1.829
   35SOL     OW  119   1.667   1.714   0.572
   35SOL    HW1  120   1.626   1.691   0.484
   35SOL    HW2  121   1.649   1.640   0.637
   36SOL     OW  122   0.598   0.729   0.270
   36SOL    HW1  123   0.622   0.798   0.202
   36SOL    HW2  124   0.520   0.762   0.324
   37SOL     OW  125   1.281   0.345   0.944
   37SOL    HW1  126   1.195   0.295   0.931
   37SOL    HW2  127   1.343   0.291   1.000
   38SOL     OW  128   1.576   1.662   0.307
   38SOL    HW1  129   1.665   1.708   0.310
   38SOL    HW2  130   1.555   1.638   0.212
   39SOL     OW  131   0.807   0.605   1.465
   39SOL    HW1  132   0.760   0.602   1.554
   39SOL    HW2  133   0.756   0.550   1.399
   40SOL     OW  134   1.394   0.469   1.674
   40SOL    HW1  135   1.374   0.512   1.762
   40SOL    HW2  136   1.472   0.407   1.683
   41SOL     OW  137   0.973   0.890   1.572
   41SOL    HW1  138   1.019   0.806   1.543
   41SOL    HW2  139   0.917   0.924   1.497
   42SOL     OW  140   0.991   0.410   1.242
   42SOL    HW1  141   0.914   0.444   1.296
   42SOL    HW2  142   0.957   0.359   1.163
   43SOL     OW  143   1.041   0.701   0.429
   43SOL    HW1  144   1.067   0.697   0.525
   43SOL    HW2  145   0.956   0.650   0.415
   44SOL     OW  146   0.076   0.811   0.789
   44SOL    HW1  147   0.175   0.799   0.798
   44SOL    HW2  148   0.052   0.906   0.810
   45SOL     OW  149   0.130   1.821   1.571
   45SOL    HW1  150   0.120   1.806   1.670
   45SOL    HW2  151   0.044   1.857   1.535
   46SOL     OW  152   0.865   0.348   0.195
   46SOL    HW1  153   0.924   0.411   0.146
   46SOL    HW2  154   0.884   0.254   0.166
   47SOL     OW  155   1.719   0.585   1.831
   47SOL    HW1  156   1.693   0.674   1.795
   47SOL    HW2  157   1.717   0.517   1.758
   48SOL     OW  158   1.362   1.144   0.545
   48SOL    HW1  159   1.445   1.115   0.497
   48SOL    HW2  160   1.313   1.211   0.489
   49SOL     OW  161   0.550   0.196   0.885
   49SOL    HW1  162   0.545   0.191   0.985
   49SOL    HW2  163   0.552   0.292   0.856
   50SOL     OW  164   1.008   1.456   0.477
   50SOL    HW1  165   0.962   1.528   0.425
   50SOL    HW2  166   1.004   1.476   0.575
   51SOL     OW  167   0.351   1.801   0.853
   51SOL    HW1  168   0.401   1.715   0.859
   51SOL    HW2  169   0.416   1.878   0.850
   52SOL     OW  170   1.795   1.066   0.873
   52SOL    HW1  171   1.733   1.051   0.797
   52SOL    HW2  172   1.743   1.077   0.958
   53SOL     OW  173   0.321   0.943   0.242
   53SOL    HW1  174   0.403   0.982   0.200
   53SOL    HW2  175   0.294   0.861   0.193
   54SOL     OW  176   1.458   0.735   0.728
   54SOL    HW1  177   1.453   0.670   0.803
   54SOL    HW2  178   1.538   0.794   0.741
   55SOL     OW  179   0.461   1.266   1.727
   55SOL    HW1  180   0.411   1.267   1.641
   55SOL    HW2  181   0.398   1.248   1.803
   56SOL     OW  182   1.111   1.776   0.237
   56SOL    HW1  183   1.051   1.714   0.287
   56SOL    HW2  184   1.142   1.732   0.152
   57SOL     OW  185   0.202   0.285   1.498
   57SOL    HW1  186   0.122   0.345   1.485
   57SOL    HW2  187   0.192   0.236   1.584
   58SOL     OW  188   1.632   1.377   0.081
   58SOL    HW1  189   1.600   1.471   0.071
   58SOL    HW2  190   1.556   1.314   0.069
   59SOL     OW  191   0.464   1.743   0.323
   59SOL    HW1  192   0.497   1.782   0.409
   59SOL    HW2  193   0.540   1.736   0.258
   60SOL     OW  194   1.400   0.107   0.426
   60SOL    HW1  195   1.376   0.070   0.336
   60SOL    HW2  196   1.499   0.123   0.430
   61SOL     OW  197   0.249   1.785   1.241
   61SOL    HW1  198   0.306   1.720   1.291
   61SOL    HW2  199   0.233   1.752   1.148
   62SOL     OW  200   0.940   1.698   0.904
   62SOL    HW1  201   1.020   1.641   0.925
   62SOL    HW2  202   0.891   1.658   0.827
   63SOL     OW  203   0.382   0.700   0.480
   63SOL    HW1  204   0.427   0.610   0.477
   63SOL    HW2  205   0.288   0.689   0.513
   64SOL     OW  206   1.547   0.222   1.729
   64SOL    HW1  207   1.542   0.259   1.821
   64SOL    HW2  208   1.475   0.153   1.717
   65SOL     OW  209   0.614   0.122   0.117
   65SOL    HW1  210   0.712   0.100   0.124
   65SOL    HW2  211   0.583   0.105   0.024
   66SOL     OW  212   0.781   0.264   1.749
   66SOL    HW1  213   0.848   0.203   1.792
   66SOL    HW2  214   0.708   0.283   1.814
   67SOL     OW  215   0.888   1.514   1.195
   67SOL    HW1  216   0.865   1.489   1.101
   67SOL    HW2  217   0.949   1.445   1.234
   68SOL     OW  218   1.351   0.590   1.433
   68SOL    HW1  219   1.379   0.547   1.518
   68SOL    HW2  220   1.376   0.686   1.434
   69SOL     OW  221   0.803   1.402   0.924
   69SOL    HW1  222   0.893   1.416   0.882
   69SOL    HW2  223   0.732   1.404   0.853
   70SOL     OW  224   0.922   0.503   0.899
   70SOL    HW1  225   0.897   0.494   0.803
   70SOL    HW2  226   0.970   0.421   0.930
   71SOL     OW  227   0.539   0.064   0.512
   71SOL    HW1  228   0.458   0.065   0.570
   71SOL    HW2  229   0.542   0.147   0.457
   72SOL     OW  230   1.434   1.188   0.041
   72SOL    HW1  231   1.466   1.112   0.098
   72SOL    HW2  232   1.342   1.215   0.071
   73SOL     OW  233   0.297   0.035   0.171
   73SOL    HW1  234   0.346   0.119   0.150
   73SOL    HW2  235   0.359  -0.030   0.216
   74SOL     OW  236   0.935   0.236   0.480
   74SOL    HW1  237   0.887   0.277   0.402
   74SOL    HW2  238   1.034   0.234   0.461
   75SOL     OW  239   1.076   0.683   1.464
   75SOL    HW1  240   0.996   0.622   1.467
   75SOL    HW2  241   1.157   0.630   1.440
   76SOL     OW  242   1.227   1.570   0.793
   76SOL    HW1  243   1.248   1.644   0.728
   76SOL    HW2  244   1.295   1.570   0.866
   77SOL     OW  245   0.459   1.152   0.741
   77SOL    HW1  246   0.388   1.125   0.806
   77SOL    HW2  247   0.433   1.124   0.648
   78SOL     OW  248   1.271   1.797   0.591
   78SOL    HW1  249   1.315   1.861   0.527
   78SOL    HW2  250   1.221   1.849   0.661
   79SOL     OW  251   1.032   0.549   0.016
   79SOL    HW1  252   0.991   0.631  -0.023
   79SOL    HW2  253   1.096   0.575   0.089
   80SOL     OW  254   0.078   0.556   1.386
   80SOL    HW1  255   0.170   0.555   1.345
   80SOL    HW2  256   0.072   0.630   1.453
   81SOL     OW  257   0.561   0.222   1.147
   81SOL    HW1  258   0.599   0.138   1.184
   81SOL    HW2  259   0.473   0.241   1.191
   82SOL     OW  260   0.866   0.454   0.642
   82SOL    HW1  261   0.834   0.526   0.580
   82SOL    HW2  262   0.890   0.373   0.589
   83SOL     OW  263   1.017   0.039   0.753
   83SOL    HW1  264   0.945   0.044   0.684
   83SOL    HW2  265   0.993  -0.030   0.822
   84SOL     OW  266   1.429   1.173   0.867
   84SOL    HW1  267   1.374   1.089   0.860
   84SOL    HW2  268   1.455   1.202   0.775
   85SOL     OW  269   1.466   0.590   0.992
   85SOL    HW1  270   1.436   0.495   0.999
   85SOL    HW2  271   1.539   0.606   1.058
   86SOL     OW  272   1.857   0.833   0.377
   86SOL    HW1  273   1.899   0.769   0.441
   86SOL    HW2  274   1.819   0.782   0.299
   87SOL     OW  275   0.488   1.385   0.174
   87SOL    HW1  276   0.401   1.370   0.221
   87SOL    HW2  277   0.471   1.411   0.079
   88SOL     OW  278   1.664   1.280   0.657
   88SOL    HW1  279   1.763   1.288   0.671
   88SOL    HW2  280   1.619   1.364   0.688
   89SOL     OW  281   1.390   0.575   0.078
   89SOL    HW1  282   1.336   0.554   0.159
   89SOL    HW2  283   1.481   0.534   0.087
   90SOL     OW  284   0.527   0.256   0.328
   90SOL    HW1  285   0.554   0.197   0.253
   90SOL    HW2  286   0.527   0.351   0.297
   91SOL     OW  287   1.754   1.223   1.588
   91SOL    HW1  288   1.845   1.184   1.575
   91SOL    HW2  289   1.762   1.319   1.612
   92SOL     OW  290   1.064   1.347   1.340
   92SOL    HW1  291   0.984   1.324   1.395
   92SOL    HW2  292   1.147   1.321   1.389
   93SOL     OW  293   1.592   1.629   1.625
   93SOL    HW1  294   1.619   1.663   1.535
   93SOL    HW2  295   1.671   1.591   1.671
   94SOL     OW  296   1.111   1.195   1.100
   94SOL    HW1  297   1.071   1.239   1.181
   94SOL    HW2  298   1.070   1.232   1.017
   95SOL     OW  299   0.915   0.089   1.402
   95SOL    HW1  300   0.940   0.069   1.307
   95SOL    HW2  301   0.987   0.145   1.444
   96SOL     OW  302   0.980   1.116   1.719
   96SOL    HW1  303   0.881   1.122   1.729
   96SOL    HW2  304   1.003   1.036   1.663
   97SOL     OW  305   0.705   1.050   0.368
   97SOL    HW1  306   0.691   1.057   0.467
   97SOL    HW2  307   0.789   0.999   0.350
   98SOL     OW  308   0.410   0.813   1.251
   98SOL    HW1  309   0.496   0.825   1.301
   98SOL    HW2  310   0.368   0.726   1.278
   99SOL     OW  311   1.274   0.386   1.262
   99SOL    HW1  312   1.295   0.460   1.326
   99SOL    HW2  313   1.185   0.403   1.219
  100SOL     OW  314   0.064   1.564   1.331
  100SOL    HW1  315   0.018   1.646   1.297
  100SOL    HW2  316   0.162   1.583   1.340
  101SOL     OW  317   0.367   1.100   0.501
  101SOL    HW1  318   0.360   1.183   0.445
  101SOL    HW2  319   0.371   1.020   0.441
  102SOL     OW  320   0.566   0.537   0.865
  102SOL    HW1  321   0.578   0.603   0.791
  102SOL    HW2  322   0.612   0.571   0.948
  103SOL     OW  323   1.252   1.348   0.388
  103SOL    HW1  324   1.302   1.425   0.428
  103SOL    HW2  325   1.157   1.350   0.420
  104SOL     OW  326   1.582   0.639   0.472
  104SOL    HW1  327   1.551   0.700   0.545
  104SOL    HW2  328   1.632   0.691   0.403
  105SOL     OW  329   0.354   1.510   1.329
  105SOL    HW1  330   0.333   1.466   1.242
  105SOL    HW2  331   0.451   1.536   1.332
  106SOL     OW  332   0.402   0.751   1.598
  106SOL    HW1  333   0.470   0.806   1.551
  106SOL    HW2  334   0.442   0.663   1.625
  107SOL     OW  335   1.587   0.779   1.670
  107SOL    HW1  336   1.495   0.817   1.665
  107SOL    HW2  337   1.647   0.826   1.605
  108SOL     OW  338   1.013   0.105   1.770
  108SOL    HW1  339   1.019   0.190   1.718
  108SOL    HW2  340   1.045   0.029   1.713
  109SOL     OW  341   0.504   0.050   1.740
  109SOL    HW1  342   0.462  -0.007   1.670
  109SOL    HW2  343   0.438   0.119   1.772
  110SOL     OW  344   0.573   0.870   1.029
  110SOL    HW1  345   0.617   0.959   1.020
  110SOL    HW2  346   0.510   0.870   1.106
  111SOL     OW  347   1.360   0.862   1.045
  111SOL    HW1  348   1.285   0.862   0.979
  111SOL    HW2  349   1.397   0.770   1.054
  112SOL     OW  350   1.209   0.525   0.275
  112SOL    HW1  351   1.222   0.441   0.329
  112SOL    HW2  352   1.180   0.599   0.335
  113SOL     OW  353   0.307   0.213   1.231
  113SOL    HW1  354   0.284   0.250   1.321
  113SOL    HW2  355   0.277   0.118   1.225
  114SOL     OW  356   0.037   1.310   1.282
  114SOL    HW1  357   0.090   1.261   1.350
  114SOL    HW2  358   0.059   1.408   1.287
  115SOL     OW  359   0.732   0.634   1.064
  115SOL    HW1  360   0.791   0.608   0.988
  115SOL    HW2  361   0.704   0.730   1.053
  116SOL     OW  362   1.728   0.935   1.854
  116SOL    HW1  363   1.682   0.928   1.765
  116SOL    HW2  364   1.666   0.979   1.920
  117SOL     OW  365   0.307   0.063   0.618
  117SOL    HW1  366   0.296   0.157   0.651
  117SOL    HW2  367   0.302   0.000   0.695
  118SOL     OW  368   1.622   0.367   0.374
  118SOL    HW1  369   1.624   0.291   0.438
  118SOL    HW2  370   1.574   0.444   0.414
  119SOL     OW  371   1.023   0.766   0.966
  119SOL    HW1  372   1.038   0.787   1.062
  119SOL    HW2  373   0.993   0.671   0.957
  120SOL     OW  374   0.980   1.573   1.700
  120SOL    HW1  375   0.960   1.617   1.612
  120SOL    HW2  376   1.019   1.482   1.684
  121SOL     OW  377   1.859   1.518   1.605
  121SOL    HW1  378   1.873   1.545   1.510
  121SOL    HW2  379   1.942   1.540   1.658
  122SOL     OW  380   0.350   0.898   1.804
  122SOL    HW1  381   0.426   0.942   1.852
  122SOL    HW2  382   0.385   0.851   1.722
  123SOL     OW  383   1.540   0.274   0.125
  123SOL    HW1  384   1.479   0.199   0.148
  123SOL    HW2  385   1.562   0.326   0.208
  124SOL     OW  386   1.303   0.838   0.042
  124SOL    HW1  387   1.337   0.745   0.057
  124SOL    HW2  388   1.321   0.865  -0.053
  125SOL     OW  389   1.068   1.333   0.849
  125SOL    HW1  390   1.075   1.249   0.794
  125SOL    HW2  391   1.130   1.402   0.813
  126SOL     OW  392   0.319   0.810   0.949
  126SOL    HW1  393   0.412   0.846   0.954
  126SOL    HW2  394   0.313   0.725   1.001
  127SOL     OW  395   0.339   0.509   1.006
  127SOL    HW1  396   0.287   0.426   0.989
  127SOL    HW2  397   0.416   0.514   0.942
  128SOL     OW  398   1.138   0.380   1.678
  128SOL    HW1  399   1.093   0.443   1.742
  128SOL    HW2  400   1.231   0.411   1.661
  129SOL     OW  401   1.160   0.207   1.477
  129SOL    HW1  402   1.160   0.271   1.554
  129SOL    HW2  403   1.188   0.255   1.394
  130SOL     OW  404   0.008   1.326   0.200
  130SOL    HW1  405  -0.085   1.347   0.169
  130SOL    HW2  406   0.018   1.227   0.213
  131SOL     OW  407   0.088   1.801   0.927
  131SOL    HW1  408   0.046   1.715   0.900
  131SOL    HW2  409   0.182   1.804   0.893
  132SOL     OW  410   0.504   1.568   0.910
  132SOL    HW1  411   0.570   1.642   0.919
  132SOL    HW2  412   0.548   1.489   0.868
  133SOL     OW  413   1.002   0.796   1.238
  133SOL    HW1  414   1.043   0.764   1.324
  133SOL    HW2  415   0.906   0.769   1.235
  134SOL     OW  416   0.040   0.544   1.114
  134SOL    HW1  417   0.125   0.511   1.073
  134SOL    HW2  418   0.053   0.559   1.212
  135SOL     OW  419   0.189   0.520   1.722
  135SOL    HW1  420   0.248   0.480   1.652
  135SOL    HW2  421   0.131   0.591   1.681
  136SOL     OW  422   1.369   0.950   1.660
  136SOL    HW1  423   1.408   1.039   1.680
  136SOL    HW2  424   1.379   0.930   1.563
  137SOL     OW  425   0.815   0.572   0.325
  137SOL    HW1  426   0.822   0.483   0.279
  137SOL    HW2  427   0.721   0.606   0.317
  138SOL     OW  428   1.657   0.604   1.206
  138SOL    HW1  429   1.619   0.535   1.268
  138SOL    HW2  430   1.739   0.568   1.162
  139SOL     OW  431   0.252   1.564   1.744
  139SOL    HW1  432   0.222   1.621   1.820
  139SOL    HW2  433   0.245   1.467   1.770
  140SOL     OW  434   0.671   0.464   1.269
  140SOL    HW1  435   0.637   0.375   1.239
  140SOL    HW2  436   0.697   0.518   1.189
  141SOL     OW  437   0.930   1.678   1.465
  141SOL    HW1  438   0.906   1.660   1.370
  141SOL    HW2  439   0.960   1.772   1.475
  142SOL     OW  440   0.473   0.500   0.191
  142SOL    HW1  441   0.534   0.580   0.195
  142SOL    HW2  442   0.378   0.531   0.198
  143SOL     OW  443   0.159   1.137   1.466
  143SOL    HW1  444   0.181   1.076   1.542
  143SOL    HW2  445   0.169   1.088   1.380
  144SOL     OW  446   1.347   1.059   1.234
  144SOL    HW1  447   1.371   0.996   1.160
  144SOL    HW2  448   1.257   1.099   1.216
  145SOL     OW  449   1.302   0.855   0.309
  145SOL    HW1  450   1.216   0.824   0.351
  145SOL    HW2  451   1.298   0.841   0.210
  146SOL     OW  452   1.759   1.747   1.154
  146SOL    HW1  453   1.820   1.777   1.081
  146SOL    HW2  454   1.721   1.658   1.132
  147SOL     OW  455   1.252   1.731   1.128
  147SOL    HW1  456   1.336   1.736   1.074
  147SOL    HW2  457   1.229   1.635   1.146
  148SOL     OW  458   0.083   1.258   1.022
  148SOL    HW1  459   0.078   1.257   1.122
  148SOL    HW2  460   0.000   1.217   0.984
  149SOL     OW  461   0.688   1.662   1.716
  149SOL    HW1  462   0.632   1.743   1.725
  149SOL    HW2  463   0.740   1.666   1.630
  150SOL     OW  464   0.903   0.086   0.133
  150SOL    HW1  465   0.954   0.087   0.047
  150SOL    HW2  466   0.959   0.044   0.204
  151SOL     OW  467   1.726   0.135   0.523
  151SOL    HW1  468   1.799   0.118   0.456
  151SOL    HW2  469   1.695   0.048   0.561
  152SOL     OW  470   1.388   1.573   0.477
  152SOL    HW1  471   1.455   1.585   0.403
  152SOL    HW2  472   1.348   1.662   0.500
  153SOL     OW  473   0.130   1.794   1.851
  153SOL    HW1  474   0.089   1.720   1.904
  153SOL    HW2  475   0.194   1.845   1.909
  154SOL     OW  476   1.280   0.927   0.672
  154SOL    HW1  477   1.340   0.846   0.674
  154SOL    HW2  478   1.320   0.996   0.612
  155SOL     OW  479   0.830   1.273   1.422
  155SOL    HW1  480   0.825   1.306   1.517
  155SOL    HW2  481   0.744   1.292   1.376
  156SOL     OW  482   0.672   1.616   0.154
  156SOL    HW1  483   0.681   1.626   0.055
  156SOL    HW2  484   0.632   1.527   0.175
  157SOL     OW  485   1.650   1.720   1.394
  157SOL    HW1  486   1.703   1.730   1.310
  157SOL    HW2  487   1.623   1.810   1.428
  158SOL     OW  488   1.841   0.175   0.963
  158SOL    HW1  489   1.880   0.090   0.927
  158SOL    HW2  490   1.743   0.177   0.944
  159SOL     OW  491   0.263   0.326   0.720
  159SOL    HW1  492   0.184   0.377   0.686
  159SOL    HW2  493   0.254   0.311   0.818
  160SOL     OW  494   1.194   1.612   0.031
  160SOL    HW1  495   1.200   1.519   0.068
  160SOL    HW2  496   1.135   1.612  -0.049
  161SOL     OW  497   0.822   1.002   1.372
  161SOL    HW1  498   0.862   1.001   1.280
  161SOL    HW2  499   0.832   1.094   1.412
  162SOL     OW  500   0.916   0.910   0.291
  162SOL    HW1  501   0.979   0.948   0.223
  162SOL    HW2  502   0.956   0.827   0.330
  163SOL     OW  503   1.504   1.607   0.044
  163SOL    HW1  504   1.412   1.644   0.051
  163SOL    HW2  505   1.542   1.627  -0.046
  164SOL     OW  506   0.372   1.288   1.490
  164SOL    HW1  507   0.359   1.381   1.456
  164SOL    HW2  508   0.288   1.236   1.477
  165SOL     OW  509   1.039   1.098   0.696
  165SOL    HW1  510   0.969   1.051   0.750
  165SOL    HW2  511   1.098   1.030   0.653
  166SOL     OW  512   1.014   0.236   0.971
  166SOL    HW1  513   1.006   0.200   0.878
  166SOL    HW2  514   1.012   0.160   1.036
  167SOL     OW  515   0.590   1.487   0.491
  167SOL    HW1  516   0.632   1.429   0.421
  167SOL    HW2  517   0.546   1.566   0.447
  168SOL     OW  518   1.709   0.385   1.381
  168SOL    HW1  519   1.782   0.454   1.385
  168SOL    HW2  520   1.737   0.310   1.322
  169SOL     OW  521   0.255   1.348   0.290
  169SOL    HW1  522   0.159   1.349   0.263
  169SOL    HW2  523   0.267   1.401   0.374
  170SOL     OW  524   0.105   1.013   1.726
  170SOL    HW1  525   0.028   0.980   1.780
  170SOL    HW2  526   0.190   0.983   1.768
  171SOL     OW  527   0.672   0.203   1.489
  171SOL    HW1  528   0.762   0.187   1.449
  171SOL    HW2  529   0.680   0.208   1.588
  172SOL     OW  530   0.075   0.345   0.033
  172SOL    HW1  531  -0.017   0.317   0.004
  172SOL    HW2  532   0.106   0.422  -0.023
  173SOL     OW  533   1.440   0.856   1.398
  173SOL    HW1  534   1.383   0.908   1.335
  173SOL    HW2  535   1.536   0.868   1.374
  174SOL     OW  536   0.072   0.166   0.318
  174SOL    HW1  537   0.055   0.249   0.264
  174SOL    HW2  538   0.162   0.129   0.296
  175SOL     OW  539   1.183   1.335   0.119
  175SOL    HW1  540   1.084   1.324   0.121
  175SOL    HW2  541   1.217   1.350   0.212
  176SOL     OW  542   0.613   0.842   1.431
  176SOL    HW1  543   0.669   0.923   1.414
  176SOL    HW2  544   0.672   0.762   1.434
  177SOL     OW  545   1.493   1.767   0.959
  177SOL    HW1  546   1.526   1.831   0.890
  177SOL    HW2  547   1.559   1.761   1.034
  178SOL     OW  548   0.716   0.565   1.708
  178SOL    HW1  549   0.735   0.630   1.782
  178SOL    HW2  550   0.776   0.485   1.717
  179SOL     OW  551   1.450   1.220   1.633
  179SOL    HW1  552   1.441   1.210   1.732
  179SOL    HW2  553   1.546   1.213   1.607
  180SOL     OW  554   0.390   1.741   1.560
  180SOL    HW1  555   0.299   1.782   1.558
  180SOL    HW2  556   0.383   1.647   1.592
  181SOL     OW  557   1.674   0.883   1.254
  181SOL    HW1  558   1.647   0.794   1.217
  181SOL    HW2  559   1.675   0.951   1.181
  182SOL     OW  560   1.225   0.325   0.449
  182SOL    HW1  561   1.290   0.251   0.438
  182SOL    HW2  562   1.245   0.375   0.533
  183SOL     OW  563   0.594   0.745   0.652
  183SOL    HW1  564   0.644   0.830   0.633
  183SOL    HW2  565   0.506   0.747   0.604
  184SOL     OW  566   1.777   0.342   1.642
  184SOL    HW1  567   1.760   0.373   1.548
  184SOL    HW2  568   1.693   0.305   1.680
  185SOL     OW  569   1.730   0.934   1.517
  185SOL    HW1  570   1.768   1.025   1.532
  185SOL    HW2  571   1.722   0.917   1.418
  186SOL     OW  572   0.859   1.374   0.016
  186SOL    HW1  573   0.813   1.389   0.104
  186SOL    HW2  574   0.903   1.459  -0.014
  187SOL     OW  575   0.661   1.790   0.953
  187SOL    HW1  576   0.615   1.878   0.940
  187SOL    HW2  577   0.760   1.802   0.946
  188SOL     OW  578   0.859   0.956   0.861
  188SOL    HW1  579   0.913   0.887   0.909
  188SOL    HW2  580   0.827   1.025   0.927
  189SOL     OW  581   1.083   0.984   0.087
  189SOL    HW1  582   1.060   1.037   0.005
  189SOL    HW2  583   1.164   0.928   0.068
  190SOL     OW  584   1.861   1.569   0.851
  190SOL    HW1  585   1.790   1.557   0.781
  190SOL    HW2  586   1.862   1.490   0.911
  191SOL     OW  587   0.221   1.314   1.844
  191SOL    HW1  588   0.156   1.241   1.823
  191SOL    HW2  589   0.225   1.328   1.942
  192SOL     OW  590   0.079   1.240   0.653
  192SOL    HW1  591   0.078   1.193   0.741
  192SOL    HW2  592   0.161   1.212   0.602
  193SOL     OW  593   0.672   1.391   1.624
  193SOL    HW1  594   0.594   1.341   1.662
  193SOL    HW2  595   0.669   1.486   1.655
  194SOL     OW  596   1.824   0.192   1.227
  194SOL    HW1  597   1.820   0.102   1.271
  194SOL    HW2  598   1.827   0.181   1.128
  195SOL     OW  599   0.428   0.424   0.520
  195SOL    HW1  600   0.458   0.352   0.458
  195SOL    HW2  601   0.389   0.384   0.603
  196SOL     OW  602   1.705   1.487   1.104
  196SOL    HW1  603   1.612   1.462   1.077
  196SOL    HW2  604   1.731   1.437   1.186
  197SOL     OW  605   0.317   0.547   1.280
  197SOL    HW1  606   0.355   0.488   1.352
  197SOL    HW2  607   0.357   0.521   1.192
  198SOL     OW  608   0.812   1.586   0.687
  198SOL    HW1  609   0.844   1.596   0.593
  198SOL    HW2  610   0.733   1.524   0.689
  199SOL     OW  611   1.424   0.214   1.112
  199SOL    HW1  612   1.476   0.149   1.167
  199SOL    HW2  613   1.375   0.277   1.173
  200SOL     OW  614   1.001   0.034   1.154
  200SOL    HW1  615   0.938  -0.038   1.123
  200SOL    HW2  616   1.094  -0.002   1.154
  201SOL     OW  617   0.770   1.330   0.301
  201SOL    HW1  618   0.724   1.243   0.318
  201SOL    HW2  619   0.861   1.327   0.342
  202SOL     OW  620   0.618   1.567   1.284
  202SOL    HW1  621   0.613   1.649   1.341
  202SOL    HW2  622   0.707   1.564   1.239
  203SOL     OW  623   1.352   0.052   0.168
  203SOL    HW1  624   1.387   0.011   0.084
  203SOL    HW2  625   1.262   0.014   0.188
  204SOL     OW  626   1.300   0.453   0.691
  204SOL    HW1  627   1.241   0.533   0.695
  204SOL    HW2  628   1.315   0.418   0.784
  205SOL     OW  629   1.593   0.221   0.882
  205SOL    HW1  630   1.509   0.220   0.936
  205SOL    HW2  631   1.595   0.304   0.826
  206SOL     OW  632   0.039   1.077   0.300
  206SOL    HW1  633   0.138   1.066   0.291
  206SOL    HW2  634  -0.001   0.991   0.332
  207SOL     OW  635   0.875   1.646   0.337
  207SOL    HW1  636   0.798   1.611   0.283
  207SOL    HW2  637   0.843   1.717   0.399
  208SOL     OW  638   0.230   0.628   1.975
  208SOL    HW1  639   0.137   0.626   2.012
  208SOL    HW2  640   0.231   0.589   1.883
  209SOL     OW  641   0.019   0.368   2.509
  209SOL    HW1  642  -0.063   0.411   2.548
  209SOL    HW2  643  -0.009   0.295   2.446
  210SOL     OW  644   1.555   1.511   2.565
  210SOL    HW1  645   1.498   1.495   2.646
  210SOL    HW2  646   1.496   1.521   2.485
  211SOL     OW  647   1.135   0.703   2.579
  211SOL    HW1  648   1.192   0.781   2.554
  211SOL    HW2  649   1.075   0.729   2.655
  212SOL     OW  650   1.755   0.607   2.093
  212SOL    HW1  651   1.743   0.594   1.994
  212SOL    HW2  652   1.725   0.526   2.142
  213SOL     OW  653   0.768   1.144   2.885
  213SOL    HW1  654   0.690   1.161   2.945
  213SOL    HW2  655   0.802   1.231   2.849
  214SOL     OW  656   0.685   1.012   2.527
  214SOL    HW1  657   0.754   0.996   2.597
  214SOL    HW2  658   0.612   1.069   2.565
  215SOL     OW  659   1.603   0.447   2.599
  215SOL    HW1  660   1.529   0.493   2.549
  215SOL    HW2  661   1.654   0.515   2.652
  216SOL     OW  662   0.231   1.713   2.345
  216SOL    HW1  663   0.265   1.790   2.399
  216SOL    HW2  664   0.275   1.713   2.255
  217SOL     OW  665   0.230   1.434   2.400
  217SOL    HW1  666   0.204   1.530   2.400
  217SOL    HW2  667   0.159   1.380   2.445
  218SOL     OW  668   0.240   1.091   2.748
  218SOL    HW1  669   0.254   1.007   2.800
  218SOL    HW2  670   0.185   1.155   2.803
  219SOL     OW  671   0.606   0.964   1.985
  219SOL    HW1  672   0.613   1.048   1.931
  219SOL    HW2  673   0.652   0.977   2.073
  220SOL     OW  674   0.122   0.643   2.425
  220SOL    HW1  675   0.077   0.555   2.442
  220SOL    HW2  676   0.121   0.697   2.509
  221SOL     OW  677   1.842   1.767   2.221
  221SOL    HW1  678   1.896   1.738   2.301
  221SOL    HW2  679   1.872   1.857   2.192
  222SOL     OW  680   0.027   1.596   1.979
  222SOL    HW1  681   0.008   1.500   2.000
  222SOL    HW2  682  -0.006   1.654   2.054
  223SOL     OW  683   1.689   0.922   2.474
  223SOL    HW1  684   1.784   0.893   2.482
  223SOL    HW2  685   1.681   0.987   2.399
  224SOL     OW  686   1.641   1.108   2.294
  224SOL    HW1  687   1.727   1.110   2.242
  224SOL    HW2  688   1.655   1.155   2.382
  225SOL     OW  689   0.613   1.365   2.588
  225SOL    HW1  690   0.564   1.278   2.597
  225SOL    HW2  691   0.590   1.408   2.501
  226SOL     OW  692   0.809   0.004   2.364
  226SOL    HW1  693   0.849   0.095   2.355
  226SOL    HW2  694   0.709   0.012   2.370
  227SOL     OW  695   1.525   0.999   2.052
  227SOL    HW1  696   1.462   0.923   2.065
  227SOL    HW2  697   1.573   1.017   2.138
  228SOL     OW  698   1.667   1.714   2.434
  228SOL    HW1  699   1.626   1.691   2.346
  228SOL    HW2  700   1.649   1.640   2.499
  229SOL     OW  701   0.598   0.729   2.132
  229SOL    HW1  702   0.622   0.798   2.064
  229SOL    HW2  703   0.520   0.762   2.186
  230SOL     OW  704   1.281   0.345   2.806
  230SOL    HW1  705   1.195   0.295   2.793
  230SOL    HW2  706   1.343   0.291   2.862
  231SOL     OW  707   1.576   1.662   2.169
  231SOL    HW1  708   1.665   1.708   2.172
  231SOL    HW2  709   1.555   1.638   2.074
  232SOL     OW  710   1.041   0.701   2.291
  232SOL    HW1  711   1.067   0.697   2.387
  232SOL    HW2  712   0.956   0.650   2.277
  233SOL     OW  713   0.076   0.811   2.651
  233SOL    HW1  714   0.175   0.799   2.660
  233SOL    HW2  715   0.052   0.906   2.672
  234SOL     OW  716   0.865   0.348   2.057
  234SOL    HW1  717   0.924   0.411   2.008
  234SOL    HW2  718   0.884   0.254   2.028
  235SOL     OW  719   1.362   1.144   2.407
  235SOL    HW1  720   1.445   1.115   2.359
  235SOL    HW2  721   1.313   1.211   2.351
  236SOL     OW  722   1.008   1.456   2.339
  236SOL    HW1  723   0.962   1.528   2.287
  236SOL    HW2  724   1.004   1.476   2.437
  237SOL     OW  725   0.351   1.801   2.715
  237SOL    HW1  726   0.401   1.715   2.721
  237SOL    HW2  727   0.416   1.878   2.712
  238SOL     OW  728   1.795   1.066   2.735
  238SOL    HW1  729   1.733   1.051   2.659
  238SOL    HW2  730   1.743   1.077   2.820
  239SOL     OW  731   0.321   0.943   2.104
  239SOL    HW1  732   0.403   0.982   2.062
  239SOL    HW2  733   0.294   0.861   2.055
  240SOL     OW  734   1.458   0.735   2.590
  240SOL    HW1  735   1.453   0.670   2.665
  240SOL    HW2  736   1.538   0.794   2.603
  241SOL     OW  737   1.111   1.776   2.099
  241SOL    HW1  738   1.051   1.714   2.149
  241SOL    HW2  739   1.142   1.732   2.014
  242SOL     OW  740   1.632   1.377   1.943
  242SOL    HW1  741   1.600   1.471   1.933
  242SOL    HW2  742   1.556   1.314   1.931
  243SOL     OW  743   0.464   1.743   2.185
  243SOL    HW1  744   0.497   1.782   2.271
  243SOL    HW2  745   0.540   1.736   2.120
  244SOL     OW  746   1.400   0.107   2.288
  244SOL    HW1  747   1.376   0.070   2.198
  244SOL    HW2  748   1.499   0.123   2.292
  245SOL     OW  749   0.382   0.700   2.342
  245SOL    HW1  750   0.427   0.610   2.339
  245SOL    HW2  751   0.288   0.689   2.375
  246SOL     OW  752   0.614   0.122   1.979
  246SOL    HW1  753   0.712   0.100   1.986
  246SOL    HW2  754   0.583   0.105   1.886
  247SOL     OW  755   0.539   0.064   2.374
  247SOL    HW1  756   0.458   0.065   2.432
  247SOL    HW2  757   0.542   0.147   2.319
  248SOL     OW  758   1.434   1.188   1.903
  248SOL    HW1  759   1.466   1.112   1.960
  248SOL    HW2  760   1.342   1.215   1.933
  249SOL     OW  761   0.297   0.035   2.033
  249SOL    HW1  762   0.346   0.119   2.012
  249SOL    HW2  763   0.359  -0.030   2.078
  250SOL     OW  764   0.935   0.236   2.342
  250SOL    HW1  765   0.887   0.277   2.264
  250SOL    HW2  766   1.034   0.234   2.323
  251SOL     OW  767   0.459   1.152   2.603
  251SOL    HW1  768   0.388   1.125   2.668
  251SOL    HW2  769   0.433   1.124   2.510
  252SOL     OW  770   1.271   1.797   2.453
  252SOL    HW1  771   1.315   1.861   2.389
  252SOL    HW2  772   1.221   1.849   2.523
  253SOL     OW  773   1.032   0.549   1.878
  253SOL    HW1  774   0.991   0.631   1.839
  253SOL    HW2  775   1.096   0.575   1.951
  254SOL     OW  776   0.866   0.454   2.504
  254SOL    HW1  777   0.834   0.526   2.442
  254SOL    HW2  778   0.890   0.373   2.451
  255SOL     OW  779   1.017   0.039   2.615
  255SOL    HW1  780   0.945   0.044   2.546
  255SOL    HW2  781   0.993  -0.030   2.684
  256SOL     OW  782   1.857   0.833   2.239
  256SOL    HW1  783   1.899   0.769   2.303
  256SOL    HW2  784   1.819   0.782   2.161
  257SOL     OW  785   0.488   1.385   2.036
  257SOL    HW1  786   0.401   1.370   2.083
  257SOL    HW2  787   0.471   1.411   1.941
  258SOL     OW  788   1.664   1.280   2.519
  258SOL    HW1  789   1.763   1.288   2.533
  258SOL    HW2  790   1.619   1.364   2.550
  259SOL     OW  791   1.390   0.575   1.940
  259SOL    HW1  792   1.336   0.554   2.021
  259SOL    HW2  793   1.481   0.534   1.949
  260SOL     OW  794   0.527   0.256   2.190
  260SOL    HW1  795   0.554   0.197   2.115
  260SOL    HW2  796   0.527   0.351   2.159
  261SOL     OW  797   0.705   1.050   2.230
  261SOL    HW1  798   0.691   1.057   2.329
  261SOL    HW2  799   0.789   0.999   2.212
  262SOL     OW  800   0.367   1.100   2.363
  262SOL    HW1  801   0.360   1.183   2.307
  262SOL    HW2  802   0.371   1.020   2.303
  263SOL     OW  803   0.566   0.537   2.727
  263SOL    HW1  804   0.578   0.603   2.653
  263SOL    HW2  805   0.612   0.571   2.810
  264SOL     OW  806   1.252   1.348   2.250
  264SOL    HW1  807   1.302   1.425   2.290
  264SOL    HW2  808   1.157   1.350   2.282
  265SOL     OW  809   1.582   0.639   2.334
  265SOL    HW1  810   1.551   0.700   2.407
  265SOL    HW2  811   1.632   0.691   2.265
  266SOL     OW  812   1.209   0.525   2.137
  266SOL    HW1  813   1.222   0.441   2.191
  266SOL    HW2  814   1.180   0.599   2.197
  267SOL     OW  815   0.732   0.634   2.926
  267SOL    HW1  816   0.791   0.608   2.850
  267SOL    HW2  817   0.704   0.730   2.915
  268SOL     OW  818   0.307   0.063   2.480
  268SOL    HW1  819   0.296   0.157   2.513
  268SOL    HW2  820   0.302   0.000   2.557
  269SOL     OW  821   1.622   0.367   2.236
  269SOL    HW1  822   1.624   0.291   2.300
  269SOL    HW2  823   1.574   0.444   2.276
  270SOL     OW  824   1.540   0.274   1.987
  270SOL    HW1  825   1.479   0.199   2.010
  270SOL    HW2  826   1.562   0.326   2.070
  271SOL     OW  827   1.303   0.838   1.904
  271SOL    HW1  828   1.337   0.745   1.919
  271SOL    HW2  829   1.321   0.865   1.809
  272SOL     OW  830   1.068   1.333   2.711
  272SOL    HW1  831   1.075   1.249   2.656
  272SOL    HW2  832   1.130   1.402   2.675
  273SOL     OW  833   0.008   1.326   2.062
  273SOL    HW1  834  -0.085   1.347   2.031
  273SOL    HW2  835   0.018   1.227   2.075
  274SOL     OW  836   0.088   1.801   2.789
  274SOL    HW1  837   0.046   1.715   2.762
  274SOL    HW2  838   0.182   1.804   2.755
  275SOL     OW  839   0.504   1.568   2.772
  275SOL    HW1  840   0.570   1.642   2.781
  275SOL    HW2  841   0.548   1.489   2.730
  276SOL     OW  842   0.815   0.572   2.187
  276SOL    HW1  843   0.822   0.483   2.141
  276SOL    HW2  844   0.721   0.606   2.179
  277SOL     OW  845   0.473   0.500   2.053
  277SOL    HW1  846   0.534   0.580   2.057
  277SOL    HW2  847   0.378   0.531   2.060
  278SOL     OW  848   1.302   0.855   2.171
  278SOL    HW1  849   1.216   0.824   2.213
  278SOL    HW2  850   1.298   0.841   2.072
  279SOL     OW  851   1.726   0.135   2.385
  279SOL    HW1  852   1.799   0.118   2.318
  279SOL    HW2  853   1.695   0.048   2.423
  280SOL     OW  854   1.388   1.573   2.339
  280SOL    HW1  855   1.455   1.585   2.265
  280SOL    HW2  856   1.348   1.662   2.362
  281SOL     OW  857   1.280   0.927   2.534
  281SOL    HW1  858   1.340   0.846   2.536
  281SOL    HW2  859   1.320   0.996   2.474
  282SOL     OW  860   0.672   1.616   2.016
  282SOL    HW1  861   0.681   1.626   1.917
  282SOL    HW2  862   0.632   1.527   2.037
  283SOL     OW  863   1.841   0.175   2.825
  283SOL    HW1  864   1.880   0.090   2.789
  283SOL    HW2  865   1.743   0.177   2.806
  284SOL     OW  866   0.263   0.326   2.582
  284SOL    HW1  867   0.184   0.377   2.548
  284SOL    HW2  868   0.254   0.311   2.680
  285SOL     OW  869   1.194   1.612   1.893
  285SOL    HW1  870   1.200   1.519   1.930
  285SOL    HW2  871   1.135   1.612   1.813
  286SOL     OW  872   0.916   0.910   2.153
  286SOL    HW1  873   0.979   0.948   2.085
  286SOL    HW2  874   0.956   0.827   2.192
  287SOL     OW  875   1.504   1.607   1.906
  287SOL    HW1  876   1.412   1.644   1.913
  287SOL    HW2  877   1.542   1.627   1.816
  288SOL     OW  878   1.039   1.098   2.558
  288SOL    HW1  879   0.969   1.051   2.612
  288SOL    HW2  880   1.098   1.030   2.515
  289SOL     OW  881   0.590   1.487   2.353
  289SOL    HW1  882   0.632   1.429   2.283
  289SOL    HW2  883   0.546   1.566   2.309
  290SOL     OW  884   0.255   1.348   2.152
  290SOL    HW1  885   0.159   1.349   2.125
  290SOL    HW2  886   0.267   1.401   2.236
  291SOL     OW  887   0.075   0.345   1.895
  291SOL    HW1  888  -0.017   0.317   1.866
  291SOL    HW2  889   0.106   0.422   1.839
  292SOL     OW  890   0.072   0.166   2.180
  292SOL    HW1  891   0.055   0.249   2.126
  292SOL    HW2  892   0.162   0.129   2.158
  293SOL     OW  893   1.183   1.335   1.981
  293SOL    HW1  894   1.084   1.324   1.983
  293SOL    HW2  895   1.217   1.350   2.074
  294SOL     OW  896   1.225   0.325   2.311
  294SOL    HW1  897   1.290   0.251   2.300
  294SOL    HW2  898   1.245   0.375   2.395
  295SOL     OW  899   0.594   0.745   2.514
  295SOL    HW1  900   0.644   0.830   2.495
  295SOL    HW2  901   0.506   0.747   2.466
  296SOL     OW  902   0.859   1.374   1.878
  296SOL    HW1  903   0.813   1.389   1.966
  296SOL    HW2  904   0.903   1.459   1.848
  297SOL     OW  905   0.661   1.790   2.815
  297SOL    HW1  906   0.615   1.878   2.802
  297SOL    HW2  907   0.760   1.802   2.808
  298SOL     OW  908   0.859   0.956   2.723
  298SOL    HW1  909   0.913   0.887   2.771
  298SOL    HW2  910   0.827   1.025   2.789
  299SOL     OW  911   1.083   0.984   1.949
  299SOL    HW1  912   1.060   1.037   1.867
  299SOL    HW2  913   1.164   0.928   1.930
  300SOL     OW  914   1.861   1.569   2.713
  300SOL    HW1  915   1.790   1.557   2.643
  300SOL    HW2  916   1.862   1.490   2.773
  301SOL     OW  917   0.079   1.240   2.515
  301SOL    HW1  918   0.078   1.193   2.603
  301SOL    HW2  919   0.161   1.212   2.464
  302SOL     OW  920   0.428   0.424   2.382
  302SOL    HW1  921   0.458   0.352   2.320
  302SOL    HW2  922   0.389   0.384   2.465
  303SOL     OW  923   0.812   1.586   2.549
  303SOL    HW1  924   0.844   1.596   2.455
  303SOL    HW2  925   0.733   1.524   2.551
  304SOL     OW  926   0.770   1.330   2.163
  304SOL    HW1  927   0.724   1.243   2.180
  304SOL    HW2  928   0.861   1.327   2.204
  305SOL     OW  929   1.352   0.052   2.030
  305SOL    HW1  930   1.387   0.011   1.946
  305SOL    HW2  931   1.262   0.014   2.050
  306SOL     OW  932   1.300   0.453   2.553
  306SOL    HW1  933   1.241   0.533   2.557
  306SOL    HW2  934   1.315   0.418   2.646
  307SOL     OW  935   0.039   1.077   2.162
  307SOL    HW1  936   0.138   1.066   2.153
  307SOL    HW2  937  -0.001   0.991   2.194
  308SOL     OW  938   0.875   1.646   2.199
  308SOL    HW1  939   0.798   1.611   2.145
  308SOL    HW2  940   0.843   1.717   2.261
  309SOL     OW  941   0.230   2.490   0.113
  309SOL    HW1  942   0.137   2.488   0.150
  309SOL    HW2  943   0.231   2.451   0.021
  310SOL     OW  944   0.225   2.137   0.996
  310SOL    HW1  945   0.260   2.120   1.088
  310SOL    HW2  946   0.137   2.092   0.984
  311SOL     OW  947   0.019   2.230   0.647
  311SOL    HW1  948  -0.063   2.273   0.686
  311SOL    HW2  949  -0.009   2.157   0.584
  312SOL     OW  950   1.135   2.565   0.717
  312SOL    HW1  951   1.192   2.643   0.692
  312SOL    HW2  952   1.075   2.591   0.793
  313SOL     OW  953   1.755   2.469   0.231
  313SOL    HW1  954   1.743   2.456   0.132
  313SOL    HW2  955   1.725   2.388   0.280
  314SOL     OW  956   0.850   2.660   1.823
  314SOL    HW1  957   0.846   2.736   1.888
  314SOL    HW2  958   0.872   2.696   1.732
  315SOL     OW  959   0.685   2.874   0.665
  315SOL    HW1  960   0.754   2.858   0.735
  315SOL    HW2  961   0.612   2.931   0.703
  316SOL     OW  962   0.438   2.254   1.499
  316SOL    HW1  963   0.520   2.198   1.508
  316SOL    HW2  964   0.357   2.196   1.503
  317SOL     OW  965   1.603   2.309   0.737
  317SOL    HW1  966   1.529   2.355   0.687
  317SOL    HW2  967   1.654   2.377   0.790
  318SOL     OW  968   1.594   1.976   1.480
  318SOL    HW1  969   1.576   2.043   1.408
  318SOL    HW2  970   1.591   2.022   1.569
  319SOL     OW  971   0.122   2.505   0.563
  319SOL    HW1  972   0.077   2.417   0.580
  319SOL    HW2  973   0.121   2.559   0.647
  320SOL     OW  974   0.113   2.599   1.597
  320SOL    HW1  975   0.201   2.586   1.642
  320SOL    HW2  976   0.100   2.696   1.575
  321SOL     OW  977   0.809   1.866   0.502
  321SOL    HW1  978   0.849   1.957   0.493
  321SOL    HW2  979   0.709   1.874   0.508
  322SOL     OW  980   0.317   2.113   1.801
  322SOL    HW1  981   0.388   2.184   1.807
  322SOL    HW2  982   0.229   2.152   1.829
  323SOL     OW  983   0.598   2.591   0.270
  323SOL    HW1  984   0.622   2.660   0.202
  323SOL    HW2  985   0.520   2.624   0.324
  324SOL     OW  986   1.281   2.207   0.944
  324SOL    HW1  987   1.195   2.157   0.931
  324SOL    HW2  988   1.343   2.153   1.000
  325SOL     OW  989   0.807   2.467   1.465
  325SOL    HW1  990   0.760   2.464   1.554
  325SOL    HW2  991   0.756   2.412   1.399
  326SOL     OW  992   1.394   2.331   1.674
  326SOL    HW1  993   1.374   2.374   1.762
  326SOL    HW2  994   1.472   2.269   1.683
  327SOL     OW  995   0.991   2.272   1.242
  327SOL    HW1  996   0.914   2.306   1.296
  327SOL    HW2  997   0.957   2.221   1.163
  328SOL     OW  998   1.041   2.563   0.429
  328SOL    HW1  999   1.067   2.559   0.525
  328SOL    HW2 1000   0.956   2.512   0.415
  329SOL     OW 1001   0.076   2.673   0.789
  329SOL    HW1 1002   0.175   2.661   0.798
  329SOL    HW2 1003   0.052   2.768   0.810
  330SOL     OW 1004   0.865   2.210   0.195
  330SOL    HW1 1005   0.924   2.273   0.146
  330SOL    HW2 1006   0.884   2.116   0.166
  331SOL     OW 1007   1.719   2.447   1.831
  331SOL    HW1 1008   1.693   2.536   1.795
  331SOL    HW2 1009   1.717   2.379   1.758
  332SOL     OW 1010   0.550   2.058   0.885
  332SOL    HW1 1011   0.545   2.053   0.985
  332SOL    HW2 1012   0.552   2.154   0.856
  333SOL     OW 1013   1.458   2.597   0.728
  333SOL    HW1 1014   1.453   2.532   0.803
  333SOL    HW2 1015   1.538   2.656   0.741
  334SOL     OW 1016   0.202   2.147   1.498
  334SOL    HW1 1017   0.122   2.207   1.485
  334SOL    HW2 1018   0.192   2.098   1.584
  335SOL     OW 1019   1.400   1.969   0.426
  335SOL    HW1 1020   1.376   1.932   0.336
  335SOL    HW2 1021   1.499   1.985   0.430
  336SOL     OW 1022   0.382   2.562   0.480
  336SOL    HW1 1023   0.427   2.472   0.477
  336SOL    HW2 1024   0.288   2.551   0.513
  337SOL     OW 1025   1.547   2.084   1.729
  337SOL    HW1 1026   1.542   2.121   1.821
  337SOL    HW2 1027   1.475   2.015   1.717
  338SOL     OW 1028   0.781   2.126   1.749
  338SOL    HW1 1029   0.848   2.065   1.792
  338SOL    HW2 1030   0.708   2.145   1.814
  339SOL     OW 1031   1.351   2.452   1.433
  339SOL    HW1 1032   1.379   2.409   1.518
  339SOL    HW2 1033   1.376   2.548   1.434
  340SOL     OW 1034   0.922   2.365   0.899
  340SOL    HW1 1035   0.897   2.356   0.803
  340SOL    HW2 1036   0.970   2.283   0.930
  341SOL     OW 1037   0.539   1.926   0.512
  341SOL    HW1 1038   0.458   1.927   0.570
  341SOL    HW2 1039   0.542   2.009   0.457
  342SOL     OW 1040   0.297   1.897   0.171
  342SOL    HW1 1041   0.346   1.981   0.150
  342SOL    HW2 1042   0.359   1.832   0.216
  343SOL     OW 1043   0.935   2.098   0.480
  343SOL    HW1 1044   0.887   2.139   0.402
  343SOL    HW2 1045   1.034   2.096   0.461
  344SOL     OW 1046   1.076   2.545   1.464
  344SOL    HW1 1047   0.996   2.484   1.467
  344SOL    HW2 1048   1.157   2.492   1.440
  345SOL     OW 1049   1.032   2.411   0.016
  345SOL    HW1 1050   0.991   2.493  -0.023
  345SOL    HW2 1051   1.096   2.437   0.089
  346SOL     OW 1052   0.078   2.418   1.386
  346SOL    HW1 1053   0.170   2.417   1.345
  346SOL    HW2 1054   0.072   2.492   1.453
  347SOL     OW 1055   0.561   2.084   1.147
  347SOL    HW1 1056   0.599   2.000   1.184
  347SOL    HW2 1057   0.473   2.103   1.191
  348SOL     OW 1058   0.866   2.316   0.642
  348SOL    HW1 1059   0.834   2.388   0.580
  348SOL    HW2 1060   0.890   2.235   0.589
  349SOL     OW 1061   1.017   1.901   0.753
  349SOL    HW1 1062   0.945   1.906   0.684
  349SOL    HW2 1063   0.993   1.832   0.822
  350SOL     OW 1064   1.466   2.452   0.992
  350SOL    HW1 1065   1.436   2.357   0.999
  350SOL    HW2 1066   1.539   2.468   1.058
  351SOL     OW 1067   1.857   2.695   0.377
  351SOL    HW1 1068   1.899   2.631   0.441
  351SOL    HW2 1069   1.819   2.644   0.299
  352SOL     OW 1070   1.390   2.437   0.078
  352SOL    HW1 1071   1.336   2.416   0.159
  352SOL    HW2 1072   1.481   2.396   0.087
  353SOL     OW 1073   0.527   2.118   0.328
  353SOL    HW1 1074   0.554   2.059   0.253
  353SOL    HW2 1075   0.527   2.213   0.297
  354SOL     OW 1076   0.915   1.951   1.402
  354SOL    HW1 1077   0.940   1.931   1.307
  354SOL    HW2 1078   0.987   2.007   1.444
  355SOL     OW 1079   0.410   2.675   1.251
  355SOL    HW1 1080   0.496   2.687   1.301
  355SOL    HW2 1081   0.368   2.588   1.278
  356SOL     OW 1082   1.274   2.248   1.262
  356SOL    HW1 1083   1.295   2.322   1.326
  356SOL    HW2 1084   1.185   2.265   1.219
  357SOL     OW 1085   0.566   2.399   0.865
  357SOL    HW1 1086   0.578   2.465   0.791
  357SOL    HW2 1087   0.612   2.433   0.948
  358SOL     OW 1088   1.582   2.501   0.472
  358SOL    HW1 1089   1.551   2.562   0.545
  358SOL    HW2 1090   1.632   2.553   0.403
  359SOL     OW 1091   0.402   2.613   1.598
  359SOL    HW1 1092   0.470   2.668   1.551
  359SOL    HW2 1093   0.442   2.525   1.625
  360SOL     OW 1094   1.587   2.641   1.670
  360SOL    HW1 1095   1.495   2.679   1.665
  360SOL    HW2 1096   1.647   2.688   1.605
  361SOL     OW 1097   1.013   1.967   1.770
  361SOL    HW1 1098   1.019   2.052   1.718
  361SOL    HW2 1099   1.045   1.891   1.713
  362SOL     OW 1100   0.504   1.912   1.740
  362SOL    HW1 1101   0.462   1.855   1.670
  362SOL    HW2 1102   0.438   1.981   1.772
  363SOL     OW 1103   0.573   2.732   1.029
  363SOL    HW1 1104   0.617   2.821   1.020
  363SOL    HW2 1105   0.510   2.732   1.106
  364SOL     OW 1106   1.360   2.724   1.045
  364SOL    HW1 1107   1.285   2.724   0.979
  364SOL    HW2 1108   1.397   2.632   1.054
  365SOL     OW 1109   1.209   2.387   0.275
  365SOL    HW1 1110   1.222   2.303   0.329
  365SOL    HW2 1111   1.180   2.461   0.335
  366SOL     OW 1112   0.307   2.075   1.231
  366SOL    HW1 1113   0.284   2.112   1.321
  366SOL    HW2 1114   0.277   1.980   1.225
  367SOL     OW 1115   0.732   2.496   1.064
  367SOL    HW1 1116   0.791   2.470   0.988
  367SOL    HW2 1117   0.704   2.592   1.053
  368SOL     OW 1118   1.728   2.797   1.854
  368SOL    HW1 1119   1.682   2.790   1.765
  368SOL    HW2 1120   1.666   2.841   1.920
  369SOL     OW 1121   0.307   1.925   0.618
  369SOL    HW1 1122   0.296   2.019   0.651
  369SOL    HW2 1123   0.302   1.862   0.695
  370SOL     OW 1124   1.622   2.229   0.374
  370SOL    HW1 1125   1.624   2.153   0.438
  370SOL    HW2 1126   1.574   2.306   0.414
  371SOL     OW 1127   1.023   2.628   0.966
  371SOL    HW1 1128   1.038   2.649   1.062
  371SOL    HW2 1129   0.993   2.533   0.957
  372SOL     OW 1130   1.540   2.136   0.125
  372SOL    HW1 1131   1.479   2.061   0.148
  372SOL    HW2 1132   1.562   2.188   0.208
  373SOL     OW 1133   0.319   2.672   0.949
  373SOL    HW1 1134   0.412   2.708   0.954
  373SOL    HW2 1135   0.313   2.587   1.001
  374SOL     OW 1136   0.339   2.371   1.006
  374SOL    HW1 1137   0.287   2.288   0.989
  374SOL    HW2 1138   0.416   2.376   0.942
  375SOL     OW 1139   1.138   2.242   1.678
  375SOL    HW1 1140   1.093   2.305   1.742
  375SOL    HW2 1141   1.231   2.273   1.661
  376SOL     OW 1142   1.160   2.069   1.477
  376SOL    HW1 1143   1.160   2.133   1.554
  376SOL    HW2 1144   1.188   2.117   1.394
  377SOL     OW 1145   1.002   2.658   1.238
  377SOL    HW1 1146   1.043   2.626   1.324
  377SOL    HW2 1147   0.906   2.631   1.235
  378SOL     OW 1148   0.040   2.406   1.114
  378SOL    HW1 1149   0.125   2.373   1.073
  378SOL    HW2 1150   0.053   2.421   1.212
  379SOL     OW 1151   0.189   2.382   1.722
  379SOL    HW1 1152   0.248   2.342   1.652
  379SOL    HW2 1153   0.131   2.453   1.681
  380SOL     OW 1154   0.815   2.434   0.325
  380SOL    HW1 1155   0.822   2.345   0.279
  380SOL    HW2 1156   0.721   2.468   0.317
  381SOL     OW 1157   1.657   2.466   1.206
  381SOL    HW1 1158   1.619   2.397   1.268
  381SOL    HW2 1159   1.739   2.430   1.162
  382SOL     OW 1160   0.671   2.326   1.269
  382SOL    HW1 1161   0.637   2.237   1.239
  382SOL    HW2 1162   0.697   2.380   1.189
  383SOL     OW 1163   0.473   2.362   0.191
  383SOL    HW1 1164   0.534   2.442   0.195
  383SOL    HW2 1165   0.378   2.393   0.198
  384SOL     OW 1166   0.903   1.948   0.133
  384SOL    HW1 1167   0.954   1.949   0.047
  384SOL    HW2 1168   0.959   1.906   0.204
  385SOL     OW 1169   1.726   1.997   0.523
  385SOL    HW1 1170   1.799   1.980   0.456
  385SOL    HW2 1171   1.695   1.910   0.561
  386SOL     OW 1172   1.280   2.789   0.672
  386SOL    HW1 1173   1.340   2.708   0.674
  386SOL    HW2 1174   1.320   2.858   0.612
  387SOL     OW 1175   1.841   2.037   0.963
  387SOL    HW1 1176   1.880   1.952   0.927
  387SOL    HW2 1177   1.743   2.039   0.944
  388SOL     OW 1178   0.263   2.188   0.720
  388SOL    HW1 1179   0.184   2.239   0.686
  388SOL    HW2 1180   0.254   2.173   0.818
  389SOL     OW 1181   1.014   2.098   0.971
  389SOL    HW1 1182   1.006   2.062   0.878
  389SOL    HW2 1183   1.012   2.022   1.036
  390SOL     OW 1184   1.709   2.247   1.381
  390SOL    HW1 1185   1.782   2.316   1.385
  390SOL    HW2 1186   1.737   2.172   1.322
  391SOL     OW 1187   0.105   2.875   1.726
  391SOL    HW1 1188   0.028   2.842   1.780
  391SOL    HW2 1189   0.190   2.845   1.768
  392SOL     OW 1190   0.672   2.065   1.489
  392SOL    HW1 1191   0.762   2.049   1.449
  392SOL    HW2 1192   0.680   2.070   1.588
  393SOL     OW 1193   0.075   2.207   0.033
  393SOL    HW1 1194  -0.017   2.179   0.004
  393SOL    HW2 1195   0.106   2.284  -0.023
  394SOL     OW 1196   1.440   2.718   1.398
  394SOL    HW1 1197   1.383   2.770   1.335
  394SOL    HW2 1198   1.536   2.730   1.374
  395SOL     OW 1199   0.072   2.028   0.318
  395SOL    HW1 1200   0.055   2.111   0.264
  395SOL    HW2 1201   0.162   1.991   0.296
  396SOL     OW 1202   0.613   2.704   1.431
  396SOL    HW1 1203   0.669   2.785   1.414
  396SOL    HW2 1204   0.672   2.624   1.434
  397SOL     OW 1205   0.716   2.427   1.708
  397SOL    HW1 1206   0.735   2.492   1.782
  397SOL    HW2 1207   0.776   2.347   1.717
  398SOL     OW 1208   1.674   2.745   1.254
  398SOL    HW1 1209   1.647   2.656   1.217
  398SOL    HW2 1210   1.675   2.813   1.181
  399SOL     OW 1211   1.225   2.187   0.449
  399SOL    HW1 1212   1.290   2.113   0.438
  399SOL    HW2 1213   1.245   2.237   0.533
  400SOL     OW 1214   0.594   2.607   0.652
  400SOL    HW1 1215   0.644   2.692   0.633
  400SOL    HW2 1216   0.506   2.609   0.604
  401SOL     OW 1217   1.777   2.204   1.642
  401SOL    HW1 1218   1.760   2.235   1.548
  401SOL    HW2 1219   1.693   2.167   1.680
  402SOL     OW 1220   1.730   2.796   1.517
  402SOL    HW1 1221   1.768   2.887   1.532
  402SOL    HW2 1222   1.722   2.779   1.418
  403SOL     OW 1223   1.824   2.054   1.227
  403SOL    HW1 1224   1.820   1.964   1.271
  403SOL    HW2 1225   1.827   2.043   1.128
  404SOL     OW 1226   0.428   2.286   0.520
  404SOL    HW1 1227   0.458   2.214   0.458
  404SOL    HW2 1228   0.389   2.246   0.603
  405SOL     OW 1229   0.317   2.409   1.280
  405SOL    HW1 1230   0.355   2.350   1.352
  405SOL    HW2 1231   0.357   2.383   1.192
  406SOL     OW 1232   1.424   2.076   1.112
  406SOL    HW1 1233   1.476   2.011   1.167
  406SOL    HW2 1234   1.375   2.139   1.173
  407SOL     OW 1235   1.001   1.896   1.154
  407SOL    HW1 1236   0.938   1.824   1.123
  407SOL    HW2 1237   1.094   1.860   1.154
  408SOL     OW 1238   1.352   1.914   0.168
  408SOL    HW1 1239   1.387   1.873   0.084
  408SOL    HW2 1240   1.262   1.876   0.188
  409SOL     OW 1241   1.300   2.315   0.691
  409SOL    HW1 1242   1.241   2.395   0.695
  409SOL    HW2 1243   1.315   2.280   0.784
  410SOL     OW 1244   1.593   2.083   0.882
  410SOL    HW1 1245   1.509   2.082   0.936
  410SOL    HW2 1246   1.595   2.166   0.826
  411SOL     OW 1247   0.230   2.490   1.975
  411SOL    HW1 1248   0.137   2.488   2.012
  411SOL    HW2 1249   0.231   2.451   1.883
  412SOL     OW 1250   0.019   2.230   2.509
  412SOL    HW1 1251  -0.063   2.273   2.548
  412SOL    HW2 1252  -0.009   2.157   2.446
  413SOL     OW 1253   1.135   2.565   2.579
  413SOL    HW1 1254   1.192   2.643   2.554
  413SOL    HW2 1255   1.075   2.591   2.655
  414SOL     OW 1256   1.755   2.469   2.093
  414SOL    HW1 1257   1.743   2.456   1.994
  414SOL    HW2 1258   1.725   2.388   2.142
  415SOL     OW 1259   0.685   2.874   2.527
  415SOL    HW1 1260   0.754   2.858   2.597
  415SOL    HW2 1261   0.612   2.931   2.565
  416SOL     OW 1262   1.603   2.309   2.599
  416SOL    HW1 1263   1.529   2.355   2.549
  416SOL    HW2 1264   1.654   2.377   2.652
  417SOL     OW 1265   0.240   2.953   2.748
  417SOL    HW1 1266   0.254   2.869   2.800
  417SOL    HW2 1267   0.185   3.017   2.803
  418SOL     OW 1268   0.122   2.505   2.425
  418SOL    HW1 1269   0.077   2.417   2.442
  418SOL    HW2 1270   0.121   2.559   2.509
  419SOL     OW 1271   0.809   1.866   2.364
  419SOL    HW1 1272   0.849   1.957   2.355
  419SOL    HW2 1273   0.709   1.874   2.370
  420SOL     OW 1274   0.598   2.591   2.132
  420SOL    HW1 1275   0.622   2.660   2.064
  420SOL    HW2 1276   0.520   2.624   2.186
  421SOL     OW 1277   1.281   2.207   2.806
  421SOL    HW1 1278   1.195   2.157   2.793
  421SOL    HW2 1279   1.343   2.153   2.862
  422SOL     OW 1280   1.041   2.563   2.291
  422SOL    HW1 1281   1.067   2.559   2.387
  422SOL    HW2 1282   0.956   2.512   2.277
  423SOL     OW 1283   0.076   2.673   2.651
  423SOL    HW1 1284   0.175   2.661   2.660
  423SOL    HW2 1285   0.052   2.768   2.672
  424SOL     OW 1286   0.865   2.210   2.057
  424SOL    HW1 1287   0.924   2.273   2.008
  424SOL    HW2 1288   0.884   2.116   2.028
  425SOL     OW 1289   0.550   2.058   2.747
  425SOL    HW1 1290   0.545   2.053   2.847
  425SOL    HW2 1291   0.552   2.154   2.718
  426SOL     OW 1292   1.458   2.597   2.590
  426SOL    HW1 1293   1.453   2.532   2.665
  426SOL    HW2 1294   1.538   2.656   2.603
  427SOL     OW 1295   1.400   1.969   2.288
  427SOL    HW1 1296   1.376   1.932   2.198
  427SOL    HW2 1297   1.499   1.985   2.292
  428SOL     OW 1298   0.382   2.562   2.342
  428SOL    HW1 1299   0.427   2.472   2.339
  428SOL    HW2 1300   0.288   2.551   2.375
  429SOL     OW 1301   0.614   1.984   1.979
  429SOL    HW1 1302   0.712   1.962   1.986
  429SOL    HW2 1303   0.583   1.967   1.886
  430SOL     OW 1304   0.539   1.926   2.374
  430SOL    HW1 1305   0.458   1.927   2.432
  430SOL    HW2 1306   0.542   2.009   2.319
  431SOL     OW 1307   0.297   1.897   2.033
  431SOL    HW1 1308   0.346   1.981   2.012
  431SOL    HW2 1309   0.359   1.832   2.078
  432SOL     OW 1310   0.935   2.098   2.342
  432SOL    HW1 1311   0.887   2.139   2.264
  432SOL    HW2 1312   1.034   2.096   2.323
  433SOL     OW 1313   0.459   3.014   2.603
  433SOL    HW1 1314   0.388   2.987   2.668
  433SOL    HW2 1315   0.433   2.986   2.510
  434SOL     OW 1316   1.032   2.411   1.878
  434SOL    HW1 1317   0.991   2.493   1.839
  434SOL    HW2 1318   1.096   2.437   1.951
  435SOL     OW 1319   0.866   2.316   2.504
  435SOL    HW1 1320   0.834   2.388   2.442
  435SOL    HW2 1321   0.890   2.235   2.451
  436SOL     OW 1322   1.017   1.901   2.615
  436SOL    HW1 1323   0.945   1.906   2.546
  436SOL    HW2 1324   0.993   1.832   2.684
  437SOL     OW 1325   1.429   3.035   2.729
  437SOL    HW1 1326   1.374   2.951   2.722
  437SOL    HW2 1327   1.455   3.064   2.637
  438SOL     OW 1328   1.857   2.695   2.239
  438SOL    HW1 1329   1.899   2.631   2.303
  438SOL    HW2 1330   1.819   2.644   2.161
  439SOL     OW 1331   1.390   2.437   1.940
  439SOL    HW1 1332   1.336   2.416   2.021
  439SOL    HW2 1333   1.481   2.396   1.949
  440SOL     OW 1334   0.527   2.118   2.190
  440SOL    HW1 1335   0.554   2.059   2.115
  440SOL    HW2 1336   0.527   2.213   2.159
  441SOL     OW 1337   1.111   3.057   2.962
  441SOL    HW1 1338   1.071   3.101   3.043
  441SOL    HW2 1339   1.070   3.094   2.879
  442SOL     OW 1340   0.566   2.399   2.727
  442SOL    HW1 1341   0.578   2.465   2.653
  442SOL    HW2 1342   0.612   2.433   2.810
  443SOL     OW 1343   1.582   2.501   2.334
  443SOL    HW1 1344   1.551   2.562   2.407
  443SOL    HW2 1345   1.632   2.553   2.265
  444SOL     OW 1346   1.209   2.387   2.137
  444SOL    HW1 1347   1.222   2.303   2.191
  444SOL    HW2 1348   1.180   2.461   2.197
  445SOL     OW 1349   0.732   2.496   2.926
  445SOL    HW1 1350   0.791   2.470   2.850
  445SOL    HW2 1351   0.704   2.592   2.915
  446SOL     OW 1352   0.307   1.925   2.480
  446SOL    HW1 1353   0.296   2.019   2.513
  446SOL    HW2 1354   0.302   1.862   2.557
  447SOL     OW 1355   1.622   2.229   2.236
  447SOL    HW1 1356   1.624   2.153   2.300
  447SOL    HW2 1357   1.574   2.306   2.276
  448SOL     OW 1358   1.540   2.136   1.987
  448SOL    HW1 1359   1.479   2.061   2.010
  448SOL    HW2 1360   1.562   2.188   2.070
  449SOL     OW 1361   0.815   2.434   2.187
  449SOL    HW1 1362   0.822   2.345   2.141
  449SOL    HW2 1363   0.721   2.468   2.179
  450SOL     OW 1364   0.473   2.362   2.053
  450SOL    HW1 1365   0.534   2.442   2.057
  450SOL    HW2 1366   0.378   2.393   2.060
  451SOL     OW 1367   1.726   1.997   2.385
  451SOL    HW1 1368   1.799   1.980   2.318
  451SOL    HW2 1369   1.695   1.910   2.423
  452SOL     OW 1370   1.280   2.789   2.534
  452SOL    HW1 1371   1.340   2.708   2.536
  452SOL    HW2 1372   1.320   2.858   2.474
  453SOL     OW 1373   1.841   2.037   2.825
  453SOL    HW1 1374   1.880   1.952   2.789
  453SOL    HW2 1375   1.743   2.039   2.806
  454SOL     OW 1376   0.263   2.188   2.582
  454SOL    HW1 1377   0.184   2.239   2.548
  454SOL    HW2 1378   0.254   2.173   2.680
  455SOL     OW 1379   0.916   2.772   2.153
  455SOL    HW1 1380   0.979   2.810   2.085
  455SOL    HW2 1381   0.956   2.689   2.192
  456SOL     OW 1382   0.075   2.207   1.895
  456SOL    HW1 1383  -0.017   2.179   1.866
  456SOL    HW2 1384   0.106   2.284   1.839
  457SOL     OW 1385   0.072   2.028   2.180
  457SOL    HW1 1386   0.055   2.111   2.126
  457SOL    HW2 1387   0.162   1.991   2.158
  458SOL     OW 1388   1.674   2.745   3.116
  458SOL    HW1 1389   1.647   2.656   3.079
  458SOL    HW2 1390   1.675   2.813   3.043
  459SOL     OW 1391   1.225   2.187   2.311
  459SOL    HW1 1392   1.290   2.113   2.300
  459SOL    HW2 1393   1.245   2.237   2.395
  460SOL     OW 1394   0.594   2.607   2.514
  460SOL    HW1 1395   0.644   2.692   2.495
  460SOL    HW2 1396   0.506   2.609   2.466
  461SOL     OW 1397   0.428   2.286   2.382
  461SOL    HW1 1398   0.458   2.214   2.320
  461SOL    HW2 1399   0.389   2.246   2.465
  462SOL     OW 1400   1.352   1.914   2.030
  462SOL    HW1 1401   1.387   1.873   1.946
  462SOL    HW2 1402   1.262   1.876   2.050
  463SOL     OW 1403   1.300   2.315   2.553
  463SOL    HW1 1404   1.241   2.395   2.557
  463SOL    HW2 1405   1.315   2.280   2.646
  464SOL     OW 1406   2.092   0.628   0.113
  464SOL    HW1 1407   1.999   0.626   0.150
  464SOL    HW2 1408   2.093   0.589   0.021
  465SOL     OW 1409   2.087   0.275   0.996
  465SOL    HW1 1410   2.122   0.258   1.088
  465SOL    HW2 1411   1.999   0.230   0.984
  466SOL     OW 1412   1.881   0.368   0.647
  466SOL    HW1 1413   1.799   0.411   0.686
  466SOL    HW2 1414   1.853   0.295   0.584
  467SOL     OW 1415   2.431   1.275   1.165
  467SOL    HW1 1416   2.338   1.268   1.128
  467SOL    HW2 1417   2.442   1.364   1.209
  468SOL     OW 1418   2.630   1.144   1.023
  468SOL    HW1 1419   2.552   1.161   1.083
  468SOL    HW2 1420   2.664   1.231   0.987
  469SOL     OW 1421   2.712   0.798   1.823
  469SOL    HW1 1422   2.708   0.874   1.888
  469SOL    HW2 1423   2.734   0.834   1.732
  470SOL     OW 1424   2.547   1.012   0.665
  470SOL    HW1 1425   2.616   0.996   0.735
  470SOL    HW2 1426   2.474   1.069   0.703
  471SOL     OW 1427   2.548   1.161   1.803
  471SOL    HW1 1428   2.608   1.240   1.817
  471SOL    HW2 1429   2.462   1.192   1.762
  472SOL     OW 1430   2.197   1.435   1.061
  472SOL    HW1 1431   2.119   1.404   1.008
  472SOL    HW2 1432   2.255   1.493   1.004
  473SOL     OW 1433   2.300   0.392   1.499
  473SOL    HW1 1434   2.382   0.336   1.508
  473SOL    HW2 1435   2.219   0.334   1.503
  474SOL     OW 1436   2.093   1.713   0.483
  474SOL    HW1 1437   2.127   1.790   0.537
  474SOL    HW2 1438   2.137   1.713   0.393
  475SOL     OW 1439   2.092   1.434   0.538
  475SOL    HW1 1440   2.066   1.530   0.538
  475SOL    HW2 1441   2.021   1.380   0.583
  476SOL     OW 1442   2.102   1.091   0.886
  476SOL    HW1 1443   2.116   1.007   0.938
  476SOL    HW2 1444   2.047   1.155   0.941
  477SOL     OW 1445   2.482   1.786   1.439
  477SOL    HW1 1446   2.390   1.769   1.474
  477SOL    HW2 1447   2.510   1.878   1.465
  478SOL     OW 1448   2.468   0.964   0.123
  478SOL    HW1 1449   2.475   1.048   0.069
  478SOL    HW2 1450   2.514   0.977   0.211
  479SOL     OW 1451   1.984   0.643   0.563
  479SOL    HW1 1452   1.939   0.555   0.580
  479SOL    HW2 1453   1.983   0.697   0.647
  480SOL     OW 1454   1.889   1.596   0.117
  480SOL    HW1 1455   1.870   1.500   0.138
  480SOL    HW2 1456   1.856   1.654   0.192
  481SOL     OW 1457   1.975   0.737   1.597
  481SOL    HW1 1458   2.063   0.724   1.642
  481SOL    HW2 1459   1.962   0.834   1.575
  482SOL     OW 1460   2.475   1.365   0.726
  482SOL    HW1 1461   2.426   1.278   0.735
  482SOL    HW2 1462   2.452   1.408   0.639
  483SOL     OW 1463   2.671   0.004   0.502
  483SOL    HW1 1464   2.711   0.095   0.493
  483SOL    HW2 1465   2.571   0.012   0.508
  484SOL     OW 1466   2.059   0.976   1.264
  484SOL    HW1 1467   2.148   0.931   1.250
  484SOL    HW2 1468   1.986   0.911   1.245
  485SOL     OW 1469   2.179   0.251   1.801
  485SOL    HW1 1470   2.250   0.322   1.807
  485SOL    HW2 1471   2.091   0.290   1.829
  486SOL     OW 1472   2.460   0.729   0.270
  486SOL    HW1 1473   2.484   0.798   0.202
  486SOL    HW2 1474   2.382   0.762   0.324
  487SOL     OW 1475   2.669   0.605   1.465
  487SOL    HW1 1476   2.622   0.602   1.554
  487SOL    HW2 1477   2.618   0.550   1.399
  488SOL     OW 1478   1.938   0.811   0.789
  488SOL    HW1 1479   2.037   0.799   0.798
  488SOL    HW2 1480   1.914   0.906   0.810
  489SOL     OW 1481   1.992   1.821   1.571
  489SOL    HW1 1482   1.982   1.806   1.670
  489SOL    HW2 1483   1.906   1.857   1.535
  490SOL     OW 1484   2.727   0.348   0.195
  490SOL    HW1 1485   2.786   0.411   0.146
  490SOL    HW2 1486   2.746   0.254   0.166
  491SOL     OW 1487   2.412   0.196   0.885
  491SOL    HW1 1488   2.407   0.191   0.985
  491SOL    HW2 1489   2.414   0.292   0.856
  492SOL     OW 1490   2.870   1.456   0.477
  492SOL    HW1 1491   2.824   1.528   0.425
  492SOL    HW2 1492   2.866   1.476   0.575
  493SOL     OW 1493   2.213   1.801   0.853
  493SOL    HW1 1494   2.263   1.715   0.859
  493SOL    HW2 1495   2.278   1.878   0.850
  494SOL     OW 1496   2.183   0.943   0.242
  494SOL    HW1 1497   2.265   0.982   0.200
  494SOL    HW2 1498   2.156   0.861   0.193
  495SOL     OW 1499   2.323   1.266   1.727
  495SOL    HW1 1500   2.273   1.267   1.641
  495SOL    HW2 1501   2.260   1.248   1.803
  496SOL     OW 1502   2.973   1.776   0.237
  496SOL    HW1 1503   2.913   1.714   0.287
  496SOL    HW2 1504   3.004   1.732   0.152
  497SOL     OW 1505   2.064   0.285   1.498
  497SOL    HW1 1506   1.984   0.345   1.485
  497SOL    HW2 1507   2.054   0.236   1.584
  498SOL     OW 1508   2.326   1.743   0.323
  498SOL    HW1 1509   2.359   1.782   0.409
  498SOL    HW2 1510   2.402   1.736   0.258
  499SOL     OW 1511   2.111   1.785   1.241
  499SOL    HW1 1512   2.168   1.720   1.291
  499SOL    HW2 1513   2.095   1.752   1.148
  500SOL     OW 1514   2.244   0.700   0.480
  500SOL    HW1 1515   2.289   0.610   0.477
  500SOL    HW2 1516   2.150   0.689   0.513
  501SOL     OW 1517   2.476   0.122   0.117
  501SOL    HW1 1518   2.574   0.100   0.124
  501SOL    HW2 1519   2.445   0.105   0.024
  502SOL     OW 1520   2.643   0.264   1.749
  502SOL    HW1 1521   2.710   0.203   1.792
  502SOL    HW2 1522   2.570   0.283   1.814
  503SOL     OW 1523   2.665   1.402   0.924
  503SOL    HW1 1524   2.755   1.416   0.882
  503SOL    HW2 1525   2.594   1.404   0.853
  504SOL     OW 1526   2.784   0.503   0.899
  504SOL    HW1 1527   2.759   0.494   0.803
  504SOL    HW2 1528   2.832   0.421   0.930
  505SOL     OW 1529   2.401   0.064   0.512
  505SOL    HW1 1530   2.320   0.065   0.570
  505SOL    HW2 1531   2.404   0.147   0.457
  506SOL     OW 1532   2.159   0.035   0.171
  506SOL    HW1 1533   2.208   0.119   0.150
  506SOL    HW2 1534   2.221  -0.030   0.216
  507SOL     OW 1535   2.321   1.152   0.741
  507SOL    HW1 1536   2.250   1.125   0.806
  507SOL    HW2 1537   2.295   1.124   0.648
  508SOL     OW 1538   1.940   0.556   1.386
  508SOL    HW1 1539   2.032   0.555   1.345
  508SOL    HW2 1540   1.934   0.630   1.453
  509SOL     OW 1541   2.423   0.222   1.147
  509SOL    HW1 1542   2.461   0.138   1.184
  509SOL    HW2 1543   2.335   0.241   1.191
  510SOL     OW 1544   2.350   1.385   0.174
  510SOL    HW1 1545   2.263   1.370   0.221
  510SOL    HW2 1546   2.333   1.411   0.079
  511SOL     OW 1547   2.389   0.256   0.328
  511SOL    HW1 1548   2.416   0.197   0.253
  511SOL    HW2 1549   2.389   0.351   0.297
  512SOL     OW 1550   2.777   0.089   1.402
  512SOL    HW1 1551   2.802   0.069   1.307
  512SOL    HW2 1552   2.849   0.145   1.444
  513SOL     OW 1553   2.567   1.050   0.368
  513SOL    HW1 1554   2.553   1.057   0.467
  513SOL    HW2 1555   2.651   0.999   0.350
  514SOL     OW 1556   2.272   0.813   1.251
  514SOL    HW1 1557   2.358   0.825   1.301
  514SOL    HW2 1558   2.230   0.726   1.278
  515SOL     OW 1559   1.926   1.564   1.331
  515SOL    HW1 1560   1.880   1.646   1.297
  515SOL    HW2 1561   2.024   1.583   1.340
  516SOL     OW 1562   2.229   1.100   0.501
  516SOL    HW1 1563   2.222   1.183   0.445
  516SOL    HW2 1564   2.233   1.020   0.441
  517SOL     OW 1565   2.428   0.537   0.865
  517SOL    HW1 1566   2.440   0.603   0.791
  517SOL    HW2 1567   2.474   0.571   0.948
  518SOL     OW 1568   2.216   1.510   1.329
  518SOL    HW1 1569   2.195   1.466   1.242
  518SOL    HW2 1570   2.313   1.536   1.332
  519SOL     OW 1571   2.264   0.751   1.598
  519SOL    HW1 1572   2.332   0.806   1.551
  519SOL    HW2 1573   2.304   0.663   1.625
  520SOL     OW 1574   2.366   0.050   1.740
  520SOL    HW1 1575   2.324  -0.007   1.670
  520SOL    HW2 1576   2.300   0.119   1.772
  521SOL     OW 1577   2.435   0.870   1.029
  521SOL    HW1 1578   2.479   0.959   1.020
  521SOL    HW2 1579   2.372   0.870   1.106
  522SOL     OW 1580   2.169   0.213   1.231
  522SOL    HW1 1581   2.146   0.250   1.321
  522SOL    HW2 1582   2.139   0.118   1.225
  523SOL     OW 1583   1.899   1.310   1.282
  523SOL    HW1 1584   1.952   1.261   1.350
  523SOL    HW2 1585   1.921   1.408   1.287
  524SOL     OW 1586   2.594   0.634   1.064
  524SOL    HW1 1587   2.653   0.608   0.988
  524SOL    HW2 1588   2.566   0.730   1.053
  525SOL     OW 1589   2.169   0.063   0.618
  525SOL    HW1 1590   2.158   0.157   0.651
  525SOL    HW2 1591   2.164   0.000   0.695
  526SOL     OW 1592   2.885   0.766   0.966
  526SOL    HW1 1593   2.900   0.787   1.062
  526SOL    HW2 1594   2.855   0.671   0.957
  527SOL     OW 1595   2.842   1.573   1.700
  527SOL    HW1 1596   2.822   1.617   1.612
  527SOL    HW2 1597   2.881   1.482   1.684
  528SOL     OW 1598   2.212   0.898   1.804
  528SOL    HW1 1599   2.288   0.942   1.852
  528SOL    HW2 1600   2.247   0.851   1.722
  529SOL     OW 1601   2.181   0.810   0.949
  529SOL    HW1 1602   2.274   0.846   0.954
  529SOL    HW2 1603   2.175   0.725   1.001
  530SOL     OW 1604   2.201   0.509   1.006
  530SOL    HW1 1605   2.149   0.426   0.989
  530SOL    HW2 1606   2.278   0.514   0.942
  531SOL     OW 1607   1.870   1.326   0.200
  531SOL    HW1 1608   1.777   1.347   0.169
  531SOL    HW2 1609   1.880   1.227   0.213
  532SOL     OW 1610   1.950   1.801   0.927
  532SOL    HW1 1611   1.908   1.715   0.900
  532SOL    HW2 1612   2.044   1.804   0.893
  533SOL     OW 1613   2.366   1.568   0.910
  533SOL    HW1 1614   2.432   1.642   0.919
  533SOL    HW2 1615   2.410   1.489   0.868
  534SOL     OW 1616   1.902   0.544   1.114
  534SOL    HW1 1617   1.987   0.511   1.073
  534SOL    HW2 1618   1.915   0.559   1.212
  535SOL     OW 1619   2.051   0.520   1.722
  535SOL    HW1 1620   2.110   0.480   1.652
  535SOL    HW2 1621   1.993   0.591   1.681
  536SOL     OW 1622   2.677   0.572   0.325
  536SOL    HW1 1623   2.684   0.483   0.279
  536SOL    HW2 1624   2.583   0.606   0.317
  537SOL     OW 1625   2.114   1.564   1.744
  537SOL    HW1 1626   2.084   1.621   1.820
  537SOL    HW2 1627   2.107   1.467   1.770
  538SOL     OW 1628   2.533   0.464   1.269
  538SOL    HW1 1629   2.499   0.375   1.239
  538SOL    HW2 1630   2.559   0.518   1.189
  539SOL     OW 1631   2.335   0.500   0.191
  539SOL    HW1 1632   2.396   0.580   0.195
  539SOL    HW2 1633   2.240   0.531   0.198
  540SOL     OW 1634   2.021   1.137   1.466
  540SOL    HW1 1635   2.043   1.076   1.542
  540SOL    HW2 1636   2.031   1.088   1.380
  541SOL     OW 1637   1.945   1.258   1.022
  541SOL    HW1 1638   1.940   1.257   1.122
  541SOL    HW2 1639   1.862   1.217   0.984
  542SOL     OW 1640   2.550   1.662   1.716
  542SOL    HW1 1641   2.494   1.743   1.725
  542SOL    HW2 1642   2.602   1.666   1.630
  543SOL     OW 1643   2.765   0.086   0.133
  543SOL    HW1 1644   2.816   0.087   0.047
  543SOL    HW2 1645   2.821   0.044   0.204
  544SOL     OW 1646   1.992   1.794   1.851
  544SOL    HW1 1647   1.951   1.720   1.904
  544SOL    HW2 1648   2.056   1.845   1.909
  545SOL     OW 1649   2.692   1.273   1.422
  545SOL    HW1 1650   2.687   1.306   1.517
  545SOL    HW2 1651   2.606   1.292   1.376
  546SOL     OW 1652   2.534   1.616   0.154
  546SOL    HW1 1653   2.543   1.626   0.055
  546SOL    HW2 1654   2.494   1.527   0.175
  547SOL     OW 1655   2.125   0.326   0.720
  547SOL    HW1 1656   2.046   0.377   0.686
  547SOL    HW2 1657   2.116   0.311   0.818
  548SOL     OW 1658   3.056   1.612   0.031
  548SOL    HW1 1659   3.062   1.519   0.068
  548SOL    HW2 1660   2.997   1.612  -0.049
  549SOL     OW 1661   2.684   1.002   1.372
  549SOL    HW1 1662   2.724   1.001   1.280
  549SOL    HW2 1663   2.694   1.094   1.412
  550SOL     OW 1664   2.234   1.288   1.490
  550SOL    HW1 1665   2.221   1.381   1.456
  550SOL    HW2 1666   2.150   1.236   1.477
  551SOL     OW 1667   2.452   1.487   0.491
  551SOL    HW1 1668   2.494   1.429   0.421
  551SOL    HW2 1669   2.408   1.566   0.447
  552SOL     OW 1670   2.117   1.348   0.290
  552SOL    HW1 1671   2.021   1.349   0.263
  552SOL    HW2 1672   2.129   1.401   0.374
  553SOL     OW 1673   1.967   1.013   1.726
  553SOL    HW1 1674   1.890   0.980   1.780
  553SOL    HW2 1675   2.052   0.983   1.768
  554SOL     OW 1676   2.534   0.203   1.489
  554SOL    HW1 1677   2.624   0.187   1.449
  554SOL    HW2 1678   2.542   0.208   1.588
  555SOL     OW 1679   1.934   0.166   0.318
  555SOL    HW1 1680   1.917   0.249   0.264
  555SOL    HW2 1681   2.024   0.129   0.296
  556SOL     OW 1682   2.475   0.842   1.431
  556SOL    HW1 1683   2.531   0.923   1.414
  556SOL    HW2 1684   2.534   0.762   1.434
  557SOL     OW 1685   2.578   0.565   1.708
  557SOL    HW1 1686   2.597   0.630   1.782
  557SOL    HW2 1687   2.638   0.485   1.717
  558SOL     OW 1688   2.252   1.741   1.560
  558SOL    HW1 1689   2.161   1.782   1.558
  558SOL    HW2 1690   2.245   1.647   1.592
  559SOL     OW 1691   2.456   0.745   0.652
  559SOL    HW1 1692   2.506   0.830   0.633
  559SOL    HW2 1693   2.368   0.747   0.604
  560SOL     OW 1694   2.523   1.790   0.953
  560SOL    HW1 1695   2.477   1.878   0.940
  560SOL    HW2 1696   2.622   1.802   0.946
  561SOL     OW 1697   2.083   1.314   1.844
  561SOL    HW1 1698   2.018   1.241   1.823
  561SOL    HW2 1699   2.087   1.328   1.942
  562SOL     OW 1700   1.941   1.240   0.653
  562SOL    HW1 1701   1.940   1.193   0.741
  562SOL    HW2 1702   2.023   1.212   0.602
  563SOL     OW 1703   2.534   1.391   1.624
  563SOL    HW1 1704   2.456   1.341   1.662
  563SOL    HW2 1705   2.531   1.486   1.655
  564SOL     OW 1706   2.290   0.424   0.520
  564SOL    HW1 1707   2.320   0.352   0.458
  564SOL    HW2 1708   2.251   0.384   0.603
  565SOL     OW 1709   2.179   0.547   1.280
  565SOL    HW1 1710   2.217   0.488   1.352
  565SOL    HW2 1711   2.219   0.521   1.192
  566SOL     OW 1712   2.674   1.586   0.687
  566SOL    HW1 1713   2.706   1.596   0.593
  566SOL    HW2 1714   2.595   1.524   0.689
  567SOL     OW 1715   2.863   0.034   1.154
  567SOL    HW1 1716   2.800  -0.038   1.123
  567SOL    HW2 1717   2.956  -0.002   1.154
  568SOL     OW 1718   2.632   1.330   0.301
  568SOL    HW1 1719   2.586   1.243   0.318
  568SOL    HW2 1720   2.723   1.327   0.342
  569SOL     OW 1721   2.480   1.567   1.284
  569SOL    HW1 1722   2.475   1.649   1.341
  569SOL    HW2 1723   2.569   1.564   1.239
  570SOL     OW 1724   1.901   1.077   0.300
  570SOL    HW1 1725   2.000   1.066   0.291
  570SOL    HW2 1726   1.861   0.991   0.332
  571SOL     OW 1727   2.737   1.646   0.337
  571SOL    HW1 1728   2.660   1.611   0.283
  571SOL    HW2 1729   2.705   1.717   0.399
  572SOL     OW 1730   2.092   0.628   1.975
  572SOL    HW1 1731   1.999   0.626   2.012
  572SOL    HW2 1732   2.093   0.589   1.883
  573SOL     OW 1733   2.087   0.275   2.858
  573SOL    HW1 1734   2.122   0.258   2.950
  573SOL    HW2 1735   1.999   0.230   2.846
  574SOL     OW 1736   1.881   0.368   2.509
  574SOL    HW1 1737   1.799   0.411   2.548
  574SOL    HW2 1738   1.853   0.295   2.446
  575SOL     OW 1739   2.630   1.144   2.885
  575SOL    HW1 1740   2.552   1.161   2.945
  575SOL    HW2 1741   2.664   1.231   2.849
  576SOL     OW 1742   2.547   1.012   2.527
  576SOL    HW1 1743   2.616   0.996   2.597
  576SOL    HW2 1744   2.474   1.069   2.565
  577SOL     OW 1745   2.093   1.713   2.345
  577SOL    HW1 1746   2.127   1.790   2.399
  577SOL    HW2 1747   2.137   1.713   2.255
  578SOL     OW 1748   2.092   1.434   2.400
  578SOL    HW1 1749   2.066   1.530   2.400
  578SOL    HW2 1750   2.021   1.380   2.445
  579SOL     OW 1751   2.102   1.091   2.748
  579SOL    HW1 1752   2.116   1.007   2.800
  579SOL    HW2 1753   2.047   1.155   2.803
  580SOL     OW 1754   2.468   0.964   1.985
  580SOL    HW1 1755   2.475   1.048   1.931
  580SOL    HW2 1756   2.514   0.977   2.073
  581SOL     OW 1757   1.984   0.643   2.425
  581SOL    HW1 1758   1.939   0.555   2.442
  581SOL    HW2 1759   1.983   0.697   2.509
  582SOL     OW 1760   1.889   1.596   1.979
  582SOL    HW1 1761   1.870   1.500   2.000
  582SOL    HW2 1762   1.856   1.654   2.054
  583SOL     OW 1763   2.475   1.365   2.588
  583SOL    HW1 1764   2.426   1.278   2.597
  583SOL    HW2 1765   2.452   1.408   2.501
  584SOL     OW 1766   2.671   0.004   2.364
  584SOL    HW1 1767   2.711   0.095   2.355
  584SOL    HW2 1768   2.571   0.012   2.370
  585SOL     OW 1769   2.460   0.729   2.132
  585SOL    HW1 1770   2.484   0.798   2.064
  585SOL    HW2 1771   2.382   0.762   2.186
  586SOL     OW 1772   1.938   0.811   2.651
  586SOL    HW1 1773   2.037   0.799   2.660
  586SOL    HW2 1774   1.914   0.906   2.672
  587SOL     OW 1775   2.727   0.348   2.057
  587SOL    HW1 1776   2.786   0.411   2.008
  587SOL    HW2 1777   2.746   0.254   2.028
  588SOL     OW 1778   2.870   1.456   2.339
  588SOL    HW1 1779   2.824   1.528   2.287
  588SOL    HW2 1780   2.866   1.476   2.437
  589SOL     OW 1781   2.213   1.801   2.715
  589SOL    HW1 1782   2.263   1.715   2.721
  589SOL    HW2 1783   2.278   1.878   2.712
  590SOL     OW 1784   2.183   0.943   2.104
  590SOL    HW1 1785   2.265   0.982   2.062
  590SOL    HW2 1786   2.156   0.861   2.055
  591SOL     OW 1787   2.973   1.776   2.099
  591SOL    HW1 1788   2.913   1.714   2.149
  591SOL    HW2 1789   3.004   1.732   2.014
  592SOL     OW 1790   2.326   1.743   2.185
  592SOL    HW1 1791   2.359   1.782   2.271
  592SOL    HW2 1792   2.402   1.736   2.120
  593SOL     OW 1793   2.244   0.700   2.342
  593SOL    HW1 1794   2.289   0.610   2.339
  593SOL    HW2 1795   2.150   0.689   2.375
  594SOL     OW 1796   2.476   0.122   1.979
  594SOL    HW1 1797   2.574   0.100   1.986
  594SOL    HW2 1798   2.445   0.105   1.886
  595SOL     OW 1799   2.665   1.402   2.786
  595SOL    HW1 1800   2.755   1.416   2.744
  595SOL    HW2 1801   2.594   1.404   2.715
  596SOL     OW 1802   2.401   0.064   2.374
  596SOL    HW1 1803   2.320   0.065   2.432
  596SOL    HW2 1804   2.404   0.147   2.319
  597SOL     OW 1805   2.159   0.035   2.033
  597SOL    HW1 1806   2.208   0.119   2.012
  597SOL    HW2 1807   2.221  -0.030   2.078
  598SOL     OW 1808   2.321   1.152   2.603
  598SOL    HW1 1809   2.250   1.125   2.668
  598SOL    HW2 1810   2.295   1.124   2.510
  599SOL     OW 1811   2.350   1.385   2.036
  599SOL    HW1 1812   2.263   1.370   2.083
  599SOL    HW2 1813   2.333   1.411   1.941
  600SOL     OW 1814   2.389   0.256   2.190
  600SOL    HW1 1815   2.416   0.197   2.115
  600SOL    HW2 1816   2.389   0.351   2.159
  601SOL     OW 1817   2.567   1.050   2.230
  601SOL    HW1 1818   2.553   1.057   2.329
  601SOL    HW2 1819   2.651   0.999   2.212
  602SOL     OW 1820   2.229   1.100   2.363
  602SOL    HW1 1821   2.222   1.183   2.307
  602SOL    HW2 1822   2.233   1.020   2.303
  603SOL     OW 1823   2.428   0.537   2.727
  603SOL    HW1 1824   2.440   0.603   2.653
  603SOL    HW2 1825   2.474   0.571   2.810
  604SOL     OW 1826   2.594   0.634   2.926
  604SOL    HW1 1827   2.653   0.608   2.850
  604SOL    HW2 1828   2.566   0.730   2.915
  605SOL     OW 1829   2.169   0.063   2.480
  605SOL    HW1 1830   2.158   0.157   2.513
  605SOL    HW2 1831   2.164   0.000   2.557
  606SOL     OW 1832   2.885   0.766   2.828
  606SOL    HW1 1833   2.900   0.787   2.924
  606SOL    HW2 1834   2.855   0.671   2.819
  607SOL     OW 1835   1.870   1.326   2.062
  607SOL    HW1 1836   1.777   1.347   2.031
  607SOL    HW2 1837   1.880   1.227   2.075
  608SOL     OW 1838   1.950   1.801   2.789
  608SOL    HW1 1839   1.908   1.715   2.762
  608SOL    HW2 1840   2.044   1.804   2.755
  609SOL     OW 1841   2.366   1.568   2.772
  609SOL    HW1 1842   2.432   1.642   2.781
  609SOL    HW2 1843   2.410   1.489   2.730
  610SOL     OW 1844   2.677   0.572   2.187
  610SOL    HW1 1845   2.684   0.483   2.141
  610SOL    HW2 1846   2.583   0.606   2.179
  611SOL     OW 1847   2.335   0.500   2.053
  611SOL    HW1 1848   2.396   0.580   2.057
  611SOL    HW2 1849   2.240   0.531   2.060
  612SOL     OW 1850   2.765   0.086   1.995
  612SOL    HW1 1851   2.816   0.087   1.909
  612SOL    HW2 1852   2.821   0.044   2.066
  613SOL     OW 1853   2.534   1.616   2.016
  613SOL    HW1 1854   2.543   1.626   1.917
  613SOL    HW2 1855   2.494   1.527   2.037
  614SOL     OW 1856   2.125   0.326   2.582
  614SOL    HW1 1857   2.046   0.377   2.548
  614SOL    HW2 1858   2.116   0.311   2.680
  615SOL     OW 1859   2.452   1.487   2.353
  615SOL    HW1 1860   2.494   1.429   2.283
  615SOL    HW2 1861   2.408   1.566   2.309
  616SOL     OW 1862   2.117   1.348   2.152
  616SOL    HW1 1863   2.021   1.349   2.125
  616SOL    HW2 1864   2.129   1.401   2.236
  617SOL     OW 1865   1.937   0.345   1.895
  617SOL    HW1 1866   1.845   0.317   1.866
  617SOL    HW2 1867   1.968   0.422   1.839
  618SOL     OW 1868   1.934   0.166   2.180
  618SOL    HW1 1869   1.917   0.249   2.126
  618SOL    HW2 1870   2.024   0.129   2.158
  619SOL     OW 1871   2.456   0.745   2.514
  619SOL    HW1 1872   2.506   0.830   2.495
  619SOL    HW2 1873   2.368   0.747   2.466
  620SOL     OW 1874   2.523   1.790   2.815
  620SOL    HW1 1875   2.477   1.878   2.802
  620SOL    HW2 1876   2.622   1.802   2.808
  621SOL     OW 1877   1.941   1.240   2.515
  621SOL    HW1 1878   1.940   1.193   2.603
  621SOL    HW2 1879   2.023   1.212   2.464
  622SOL     OW 1880   2.290   0.424   2.382
  622SOL    HW1 1881   2.320   0.352   2.320
  622SOL    HW2 1882   2.251   0.384   2.465
  623SOL     OW 1883   2.674   1.586   2.549
  623SOL    HW1 1884   2.706   1.596   2.455
  623SOL    HW2 1885   2.595   1.524   2.551
  624SOL     OW 1886   2.632   1.330   2.163
  624SOL    HW1 1887   2.586   1.243   2.180
  624SOL    HW2 1888   2.723   1.327   2.204
  625SOL     OW 1889   1.901   1.077   2.162
  625SOL    HW1 1890   2.000   1.066   2.153
  625SOL    HW2 1891   1.861   0.991   2.194
  626SOL     OW 1892   2.737   1.646   2.199
  626SOL    HW1 1893   2.660   1.611   2.145
  626SOL    HW2 1894   2.705   1.717   2.261
  627SOL     OW 1895   2.092   2.490   0.113
  627SOL    HW1 1896   1.999   2.488   0.150
  627SOL    HW2 1897   2.093   2.451   0.021
  628SOL     OW 1898   2.087   2.137   0.996
  628SOL    HW1 1899   2.122   2.120   1.088
  628SOL    HW2 1900   1.999   2.092   0.984
  629SOL     OW 1901   1.881   2.230   0.647
  629SOL    HW1 1902   1.799   2.273   0.686
  629SOL    HW2 1903   1.853   2.157   0.584
  630SOL     OW 1904   2.712   2.660   1.823
  630SOL    HW1 1905   2.708   2.736   1.888
  630SOL    HW2 1906   2.734   2.696   1.732
  631SOL     OW 1907   2.547   2.874   0.665
  631SOL    HW1 1908   2.616   2.858   0.735
  631SOL    HW2 1909   2.474   2.931   0.703
  632SOL     OW 1910   2.300   2.254   1.499
  632SOL    HW1 1911   2.382   2.198   1.508
  632SOL    HW2 1912   2.219   2.196   1.503
  633SOL     OW 1913   1.984   2.505   0.563
  633SOL    HW1 1914   1.939   2.417   0.580
  633SOL    HW2 1915   1.983   2.559   0.647
  634SOL     OW 1916   1.975   2.599   1.597
  634SOL    HW1 1917   2.063   2.586   1.642
  634SOL    HW2 1918   1.962   2.696   1.575
  635SOL     OW 1919   2.671   1.866   0.502
  635SOL    HW1 1920   2.711   1.957   0.493
  635SOL    HW2 1921   2.571   1.874   0.508
  636SOL     OW 1922   2.179   2.113   1.801
  636SOL    HW1 1923   2.250   2.184   1.807
  636SOL    HW2 1924   2.091   2.152   1.829
  637SOL     OW 1925   2.460   2.591   0.270
  637SOL    HW1 1926   2.484   2.660   0.202
  637SOL    HW2 1927   2.382   2.624   0.324
  638SOL     OW 1928   2.669   2.467   1.465
  638SOL    HW1 1929   2.622   2.464   1.554
  638SOL    HW2 1930   2.618   2.412   1.399
  639SOL     OW 1931   1.938   2.673   0.789
  639SOL    HW1 1932   2.037   2.661   0.798
  639SOL    HW2 1933   1.914   2.768   0.810
  640SOL     OW 1934   2.727   2.210   0.195
  640SOL    HW1 1935   2.786   2.273   0.146
  640SOL    HW2 1936   2.746   2.116   0.166
  641SOL     OW 1937   2.412   2.058   0.885
  641SOL    HW1 1938   2.407   2.053   0.985
  641SOL    HW2 1939   2.414   2.154   0.856
  642SOL     OW 1940   2.064   2.147   1.498
  642SOL    HW1 1941   1.984   2.207   1.485
  642SOL    HW2 1942   2.054   2.098   1.584
  643SOL     OW 1943   2.244   2.562   0.480
  643SOL    HW1 1944   2.289   2.472   0.477
  643SOL    HW2 1945   2.150   2.551   0.513
  644SOL     OW 1946   2.643   2.126   1.749
  644SOL    HW1 1947   2.710   2.065   1.792
  644SOL    HW2 1948   2.570   2.145   1.814
  645SOL     OW 1949   2.784   2.365   0.899
  645SOL    HW1 1950   2.759   2.356   0.803
  645SOL    HW2 1951   2.832   2.283   0.930
  646SOL     OW 1952   2.401   1.926   0.512
  646SOL    HW1 1953   2.320   1.927   0.570
  646SOL    HW2 1954   2.404   2.009   0.457
  647SOL     OW 1955   2.159   1.897   0.171
  647SOL    HW1 1956   2.208   1.981   0.150
  647SOL    HW2 1957   2.221   1.832   0.216
  648SOL     OW 1958   1.940   2.418   1.386
  648SOL    HW1 1959   2.032   2.417   1.345
  648SOL    HW2 1960   1.934   2.492   1.453
  649SOL     OW 1961   2.423   2.084   1.147
  649SOL    HW1 1962   2.461   2.000   1.184
  649SOL    HW2 1963   2.335   2.103   1.191
  650SOL     OW 1964   2.389   2.118   0.328
  650SOL    HW1 1965   2.416   2.059   0.253
  650SOL    HW2 1966   2.389   2.213   0.297
  651SOL     OW 1967   2.777   1.951   1.402
  651SOL    HW1 1968   2.802   1.931   1.307
  651SOL    HW2 1969   2.849   2.007   1.444
  652SOL     OW 1970   2.272   2.675   1.251
  652SOL    HW1 1971   2.358   2.687   1.301
  652SOL    HW2 1972   2.230   2.588   1.278
  653SOL     OW 1973   2.428   2.399   0.865
  653SOL    HW1 1974   2.440   2.465   0.791
  653SOL    HW2 1975   2.474   2.433   0.948
  654SOL     OW 1976   2.264   2.613   1.598
  654SOL    HW1 1977   2.332   2.668   1.551
  654SOL    HW2 1978   2.304   2.525   1.625
  655SOL     OW 1979   2.366   1.912   1.740
  655SOL    HW1 1980   2.324   1.855   1.670
  655SOL    HW2 1981   2.300   1.981   1.772
  656SOL     OW 1982   2.435   2.732   1.029
  656SOL    HW1 1983   2.479   2.821   1.020
  656SOL    HW2 1984   2.372   2.732   1.106
  657SOL     OW 1985   2.169   2.075   1.231
  657SOL    HW1 1986   2.146   2.112   1.321
  657SOL    HW2 1987   2.139   1.980   1.225
  658SOL     OW 1988   2.594   2.496   1.064
  658SOL    HW1 1989   2.653   2.470   0.988
  658SOL    HW2 1990   2.566   2.592   1.053
  659SOL     OW 1991   2.169   1.925   0.618
  659SOL    HW1 1992   2.158   2.019   0.651
  659SOL    HW2 1993   2.164   1.862   0.695
  660SOL     OW 1994   2.885   2.628   0.966
  660SOL    HW1 1995   2.900   2.649   1.062
  660SOL    HW2 1996   2.855   2.533   0.957
  661SOL     OW 1997   2.181   2.672   0.949
  661SOL    HW1 1998   2.274   2.708   0.954
  661SOL    HW2 1999   2.175   2.587   1.001
  662SOL     OW 2000   2.201   2.371   1.006
  662SOL    HW1 2001   2.149   2.288   0.989
  662SOL    HW2 2002   2.278   2.376   0.942
  663SOL     OW 2003   2.864   2.658   1.238
  663SOL    HW1 2004   2.905   2.626   1.324
  663SOL    HW2 2005   2.768   2.631   1.235
  664SOL     OW 2006   1.902   2.406   1.114
  664SOL    HW1 2007   1.987   2.373   1.073
  664SOL    HW2 2008   1.915   2.421   1.212
  665SOL     OW 2009   2.051   2.382   1.722
  665SOL    HW1 2010   2.110   2.342   1.652
  665SOL    HW2 2011   1.993   2.453   1.681
  666SOL     OW 2012   2.677   2.434   0.325
  666SOL    HW1 2013   2.684   2.345   0.279
  666SOL    HW2 2014   2.583   2.468   0.317
  667SOL     OW 2015   2.533   2.326   1.269
  667SOL    HW1 2016   2.499   2.237   1.239
  667SOL    HW2 2017   2.559   2.380   1.189
  668SOL     OW 2018   2.335   2.362   0.191
  668SOL    HW1 2019   2.396   2.442   0.195
  668SOL    HW2 2020   2.240   2.393   0.198
  669SOL     OW 2021   2.765   1.948   0.133
  669SOL    HW1 2022   2.816   1.949   0.047
  669SOL    HW2 2023   2.821   1.906   0.204
  670SOL     OW 2024   2.125   2.188   0.720
  670SOL    HW1 2025   2.046   2.239   0.686
  670SOL    HW2 2026   2.116   2.173   0.818
  671SOL     OW 2027   2.901   2.960   0.696
  671SOL    HW1 2028   2.831   2.913   0.750
  671SOL    HW2 2029   2.960   2.892   0.653
  672SOL     OW 2030   1.967   2.875   1.726
  672SOL    HW1 2031   1.890   2.842   1.780
  672SOL    HW2 2032   2.052   2.845   1.768
  673SOL     OW 2033   2.534   2.065   1.489
  673SOL    HW1 2034   2.624   2.049   1.449
  673SOL    HW2 2035   2.542   2.070   1.588
  674SOL     OW 2036   1.934   2.028   0.318
  674SOL    HW1 2037   1.917   2.111   0.264
  674SOL    HW2 2038   2.024   1.991   0.296
  675SOL     OW 2039   2.475   2.704   1.431
  675SOL    HW1 2040   2.531   2.785   1.414
  675SOL    HW2 2041   2.534   2.624   1.434
  676SOL     OW 2042   2.578   2.427   1.708
  676SOL    HW1 2043   2.597   2.492   1.782
  676SOL    HW2 2044   2.638   2.347   1.717
  677SOL     OW 2045   2.456   2.607   0.652
  677SOL    HW1 2046   2.506   2.692   0.633
  677SOL    HW2 2047   2.368   2.609   0.604
  678SOL     OW 2048   2.290   2.286   0.520
  678SOL    HW1 2049   2.320   2.214   0.458
  678SOL    HW2 2050   2.251   2.246   0.603
  679SOL     OW 2051   2.179   2.409   1.280
  679SOL    HW1 2052   2.217   2.350   1.352
  679SOL    HW2 2053   2.219   2.383   1.192
  680SOL     OW 2054   2.092   2.490   1.975
  680SOL    HW1 2055   1.999   2.488   2.012
  680SOL    HW2 2056   2.093   2.451   1.883
  681SOL     OW 2057   2.087   2.137   2.858
  681SOL    HW1 2058   2.122   2.120   2.950
  681SOL    HW2 2059   1.999   2.092   2.846
  682SOL     OW 2060   1.881   2.230   2.509
  682SOL    HW1 2061   1.799   2.273   2.548
  682SOL    HW2 2062   1.853   2.157   2.446
  683SOL     OW 2063   2.547   2.874   2.527
  683SOL    HW1 2064   2.616   2.858   2.597
  683SOL    HW2 2065   2.474   2.931   2.565
  684SOL     OW 2066   1.984   2.505   2.425
  684SOL    HW1 2067   1.939   2.417   2.442
  684SOL    HW2 2068   1.983   2.559   2.509
  685SOL     OW 2069   2.671   1.866   2.364
  685SOL    HW1 2070   2.711   1.957   2.355
  685SOL    HW2 2071   2.571   1.874   2.370
  686SOL     OW 2072   2.460   2.591   2.132
  686SOL    HW1 2073   2.484   2.660   2.064
  686SOL    HW2 2074   2.382   2.624   2.186
  687SOL     OW 2075   1.938   2.673   2.651
  687SOL    HW1 2076   2.037   2.661   2.660
  687SOL    HW2 2077   1.914   2.768   2.672
  688SOL     OW 2078   2.727   2.210   2.057
  688SOL    HW1 2079   2.786   2.273   2.008
  688SOL    HW2 2080   2.746   2.116   2.028
  689SOL     OW 2081   2.412   2.058   2.747
  689SOL    HW1 2082   2.407   2.053   2.847
  689SOL    HW2 2083   2.414   2.154   2.718
  690SOL     OW 2084   2.244   2.562   2.342
  690SOL    HW1 2085   2.289   2.472   2.339
  690SOL    HW2 2086   2.150   2.551   2.375
  691SOL     OW 2087   2.476   1.984   1.979
  691SOL    HW1 2088   2.574   1.962   1.986
  691SOL    HW2 2089   2.445   1.967   1.886
  692SOL     OW 2090   2.401   1.926   2.374
  692SOL    HW1 2091   2.320   1.927   2.432
  692SOL    HW2 2092   2.404   2.009   2.319
  693SOL     OW 2093   2.159   1.897   2.033
  693SOL    HW1 2094   2.208   1.981   2.012
  693SOL    HW2 2095   2.221   1.832   2.078
  694SOL     OW 2096   2.321   3.014   2.603
  694SOL    HW1 2097   2.250   2.987   2.668
  694SOL    HW2 2098   2.295   2.986   2.510
  695SOL     OW 2099   2.389   2.118   2.190
  695SOL    HW1 2100   2.416   2.059   2.115
  695SOL    HW2 2101   2.389   2.213   2.159
  696SOL     OW 2102   2.428   2.399   2.727
  696SOL    HW1 2103   2.440   2.465   2.653
  696SOL    HW2 2104   2.474   2.433   2.810
  697SOL     OW 2105   2.594   2.496   2.926
  697SOL    HW1 2106   2.653   2.470   2.850
  697SOL    HW2 2107   2.566   2.592   2.915
  698SOL     OW 2108   2.169   1.925   2.480
  698SOL    HW1 2109   2.158   2.019   2.513
  698SOL    HW2 2110   2.164   1.862   2.557
  699SOL     OW 2111   2.885   2.628   2.828
  699SOL    HW1 2112   2.900   2.649   2.924
  699SOL    HW2 2113   2.855   2.533   2.819
  700SOL     OW 2114   2.677   2.434   2.187
  700SOL    HW1 2115   2.684   2.345   2.141
  700SOL    HW2 2116   2.583   2.468   2.179
  701SOL     OW 2117   2.335   2.362   2.053
  701SOL    HW1 2118   2.396   2.442   2.057
  701SOL    HW2 2119   2.240   2.393   2.060
  702SOL     OW 2120   2.765   1.948   1.995
  702SOL    HW1 2121   2.816   1.949   1.909
  702SOL    HW2 2122   2.821   1.906   2.066
  703SOL     OW 2123   2.125   2.188   2.582
  703SOL    HW1 2124   2.046   2.239   2.548
  703SOL    HW2 2125   2.116   2.173   2.680
  704SOL     OW 2126   2.901   2.960   2.558
  704SOL    HW1 2127   2.831   2.913   2.612
  704SOL    HW2 2128   2.960   2.892   2.515
  705SOL     OW 2129   1.937   2.207   1.895
  705SOL    HW1 2130   1.845   2.179   1.866
  705SOL    HW2 2131   1.968   2.284   1.839
  706SOL     OW 2132   1.934   2.028   2.180
  706SOL    HW1 2133   1.917   2.111   2.126
  706SOL    HW2 2134   2.024   1.991   2.158
  707SOL     OW 2135   2.456   2.607   2.514
  707SOL    HW1 2136   2.506   2.692   2.495
  707SOL    HW2 2137   2.368   2.609   2.466
  708SOL     OW 2138   2.290   2.286   2.382
  708SOL    HW1 2139   2.320   2.214   2.320
  708SOL    HW2 2140   2.251   2.246   2.465
   2.80679   2.80679   2.80679
