mobley_3525176_GMX.gro created by acpype (v: 2023.10.27) on Thu May 14 14:01:39 2026
 2865
    1MOL     C1    1   1.622   1.151   1.336
    1MOL     C2    2   1.717   1.202   1.424
    1MOL     C3    3   1.521   1.233   1.286
    1MOL     C4    4   1.709   1.336   1.464
    1MOL     C5    5   1.513   1.366   1.326
    1MOL     C6    6   1.607   1.416   1.415
    1MOL     C7    7   1.397   1.895   1.782
    1MOL     C8    8   1.599   1.561   1.458
    1MOL     C9    9   1.413   1.748   1.746
    1MOL    C10   10   1.514   1.583   1.584
    1MOL    C11   11   1.501   1.731   1.622
    1MOL     H1   12   1.628   1.047   1.304
    1MOL     H2   13   1.796   1.139   1.463
    1MOL     H3   14   1.447   1.192   1.217
    1MOL     H4   15   1.783   1.375   1.534
    1MOL     H5   16   1.433   1.429   1.288
    1MOL     H6   17   1.349   1.950   1.700
    1MOL     H7   18   1.334   1.905   1.871
    1MOL     H8   19   1.493   1.942   1.803
    1MOL     H9   20   1.700   1.601   1.474
    1MOL    H10   21   1.557   1.619   1.375
    1MOL    H11   22   1.458   1.695   1.831
    1MOL    H12   23   1.315   1.704   1.728
    1MOL    H13   24   1.556   1.527   1.668
    1MOL    H14   25   1.414   1.542   1.565
    1MOL    H15   26   1.600   1.774   1.641
    1MOL    H16   27   1.457   1.786   1.538
    2SOL     OW   28   0.230   0.628   0.113
    2SOL    HW1   29   0.137   0.626   0.150
    2SOL    HW2   30   0.231   0.589   0.021
    3SOL     OW   31   0.225   0.275   0.996
    3SOL    HW1   32   0.260   0.258   1.088
    3SOL    HW2   33   0.137   0.230   0.984
    4SOL     OW   34   0.019   0.368   0.647
    4SOL    HW1   35  -0.063   0.411   0.686
    4SOL    HW2   36  -0.009   0.295   0.584
    5SOL     OW   37   0.569   1.275   1.165
    5SOL    HW1   38   0.476   1.268   1.128
    5SOL    HW2   39   0.580   1.364   1.209
    6SOL     OW   40   1.555   1.511   0.703
    6SOL    HW1   41   1.498   1.495   0.784
    6SOL    HW2   42   1.496   1.521   0.623
    7SOL     OW   43   1.135   0.703   0.717
    7SOL    HW1   44   1.192   0.781   0.692
    7SOL    HW2   45   1.075   0.729   0.793
    8SOL     OW   46   1.755   0.607   0.231
    8SOL    HW1   47   1.743   0.594   0.132
    8SOL    HW2   48   1.725   0.526   0.280
    9SOL     OW   49   0.768   1.144   1.023
    9SOL    HW1   50   0.690   1.161   1.083
    9SOL    HW2   51   0.802   1.231   0.987
   10SOL     OW   52   0.850   0.798   1.823
   10SOL    HW1   53   0.846   0.874   1.888
   10SOL    HW2   54   0.872   0.834   1.732
   11SOL     OW   55   0.685   1.012   0.665
   11SOL    HW1   56   0.754   0.996   0.735
   11SOL    HW2   57   0.612   1.069   0.703
   12SOL     OW   58   0.686   1.161   1.803
   12SOL    HW1   59   0.746   1.240   1.817
   12SOL    HW2   60   0.600   1.192   1.762
   13SOL     OW   61   0.335   1.435   1.061
   13SOL    HW1   62   0.257   1.404   1.008
   13SOL    HW2   63   0.393   1.493   1.004
   14SOL     OW   64   0.438   0.392   1.499
   14SOL    HW1   65   0.520   0.336   1.508
   14SOL    HW2   66   0.357   0.334   1.503
   15SOL     OW   67   1.603   0.447   0.737
   15SOL    HW1   68   1.529   0.493   0.687
   15SOL    HW2   69   1.654   0.515   0.790
   16SOL     OW   70   0.231   1.713   0.483
   16SOL    HW1   71   0.265   1.790   0.537
   16SOL    HW2   72   0.275   1.713   0.393
   17SOL     OW   73   1.127   1.341   1.690
   17SOL    HW1   74   1.174   1.341   1.778
   17SOL    HW2   75   1.079   1.254   1.679
   18SOL     OW   76   0.230   1.434   0.538
   18SOL    HW1   77   0.204   1.530   0.538
   18SOL    HW2   78   0.159   1.380   0.583
   19SOL     OW   79   0.240   1.091   0.886
   19SOL    HW1   80   0.254   1.007   0.938
   19SOL    HW2   81   0.185   1.155   0.941
   20SOL     OW   82   0.620   1.786   1.439
   20SOL    HW1   83   0.528   1.769   1.474
   20SOL    HW2   84   0.648   1.878   1.465
   21SOL     OW   85   0.606   0.964   0.123
   21SOL    HW1   86   0.613   1.048   0.069
   21SOL    HW2   87   0.652   0.977   0.211
   22SOL     OW   88   1.594   0.114   1.480
   22SOL    HW1   89   1.576   0.181   1.408
   22SOL    HW2   90   1.591   0.160   1.569
   23SOL     OW   91   0.122   0.643   0.563
   23SOL    HW1   92   0.077   0.555   0.580
   23SOL    HW2   93   0.121   0.697   0.647
   24SOL     OW   94   1.842   1.767   0.359
   24SOL    HW1   95   1.896   1.738   0.439
   24SOL    HW2   96   1.872   1.857   0.330
   25SOL     OW   97   0.027   1.596   0.117
   25SOL    HW1   98   0.008   1.500   0.138
   25SOL    HW2   99  -0.006   1.654   0.192
   26SOL     OW  100   1.689   0.922   0.612
   26SOL    HW1  101   1.784   0.893   0.620
   26SOL    HW2  102   1.681   0.987   0.537
   27SOL     OW  103   1.641   1.108   0.432
   27SOL    HW1  104   1.727   1.110   0.380
   27SOL    HW2  105   1.655   1.155   0.520
   28SOL     OW  106   0.113   0.737   1.597
   28SOL    HW1  107   0.201   0.724   1.642
   28SOL    HW2  108   0.100   0.834   1.575
   29SOL     OW  109   0.613   1.365   0.726
   29SOL    HW1  110   0.564   1.278   0.735
   29SOL    HW2  111   0.590   1.408   0.639
   30SOL     OW  112   1.293   1.228   1.423
   30SOL    HW1  113   1.330   1.155   1.365
   30SOL    HW2  114   1.345   1.233   1.508
   31SOL     OW  115   0.809   0.004   0.502
   31SOL    HW1  116   0.849   0.095   0.493
   31SOL    HW2  117   0.709   0.012   0.508
   32SOL     OW  118   0.197   0.976   1.264
   32SOL    HW1  119   0.286   0.931   1.250
   32SOL    HW2  120   0.124   0.911   1.245
   33SOL     OW  121   1.525   0.999   0.190
   33SOL    HW1  122   1.462   0.923   0.203
   33SOL    HW2  123   1.573   1.017   0.276
   34SOL     OW  124   1.187   1.792   1.616
   34SOL    HW1  125   1.211   1.852   1.540
   34SOL    HW2  126   1.194   1.697   1.586
   35SOL     OW  127   0.317   0.251   1.801
   35SOL    HW1  128   0.388   0.322   1.807
   35SOL    HW2  129   0.229   0.290   1.829
   36SOL     OW  130   1.466   1.417   0.953
   36SOL    HW1  131   1.407   1.423   1.033
   36SOL    HW2  132   1.451   1.329   0.907
   37SOL     OW  133   1.667   1.714   0.572
   37SOL    HW1  134   1.626   1.691   0.484
   37SOL    HW2  135   1.649   1.640   0.637
   38SOL     OW  136   0.598   0.729   0.270
   38SOL    HW1  137   0.622   0.798   0.202
   38SOL    HW2  138   0.520   0.762   0.324
   39SOL     OW  139   1.281   0.345   0.944
   39SOL    HW1  140   1.195   0.295   0.931
   39SOL    HW2  141   1.343   0.291   1.000
   40SOL     OW  142   1.576   1.662   0.307
   40SOL    HW1  143   1.665   1.708   0.310
   40SOL    HW2  144   1.555   1.638   0.212
   41SOL     OW  145   0.807   0.605   1.465
   41SOL    HW1  146   0.760   0.602   1.554
   41SOL    HW2  147   0.756   0.550   1.399
   42SOL     OW  148   1.394   0.469   1.674
   42SOL    HW1  149   1.374   0.512   1.762
   42SOL    HW2  150   1.472   0.407   1.683
   43SOL     OW  151   0.973   0.890   1.572
   43SOL    HW1  152   1.019   0.806   1.543
   43SOL    HW2  153   0.917   0.924   1.497
   44SOL     OW  154   0.991   0.410   1.242
   44SOL    HW1  155   0.914   0.444   1.296
   44SOL    HW2  156   0.957   0.359   1.163
   45SOL     OW  157   1.041   0.701   0.429
   45SOL    HW1  158   1.067   0.697   0.525
   45SOL    HW2  159   0.956   0.650   0.415
   46SOL     OW  160   0.076   0.811   0.789
   46SOL    HW1  161   0.175   0.799   0.798
   46SOL    HW2  162   0.052   0.906   0.810
   47SOL     OW  163   0.130   1.821   1.571
   47SOL    HW1  164   0.120   1.806   1.670
   47SOL    HW2  165   0.044   1.857   1.535
   48SOL     OW  166   0.865   0.348   0.195
   48SOL    HW1  167   0.924   0.411   0.146
   48SOL    HW2  168   0.884   0.254   0.166
   49SOL     OW  169   1.719   0.585   1.831
   49SOL    HW1  170   1.693   0.674   1.795
   49SOL    HW2  171   1.717   0.517   1.758
   50SOL     OW  172   1.362   1.144   0.545
   50SOL    HW1  173   1.445   1.115   0.497
   50SOL    HW2  174   1.313   1.211   0.489
   51SOL     OW  175   0.550   0.196   0.885
   51SOL    HW1  176   0.545   0.191   0.985
   51SOL    HW2  177   0.552   0.292   0.856
   52SOL     OW  178   1.008   1.456   0.477
   52SOL    HW1  179   0.962   1.528   0.425
   52SOL    HW2  180   1.004   1.476   0.575
   53SOL     OW  181   0.351   1.801   0.853
   53SOL    HW1  182   0.401   1.715   0.859
   53SOL    HW2  183   0.416   1.878   0.850
   54SOL     OW  184   1.795   1.066   0.873
   54SOL    HW1  185   1.733   1.051   0.797
   54SOL    HW2  186   1.743   1.077   0.958
   55SOL     OW  187   1.227   1.550   1.506
   55SOL    HW1  188   1.233   1.473   1.570
   55SOL    HW2  189   1.175   1.524   1.426
   56SOL     OW  190   0.321   0.943   0.242
   56SOL    HW1  191   0.403   0.982   0.200
   56SOL    HW2  192   0.294   0.861   0.193
   57SOL     OW  193   1.458   0.735   0.728
   57SOL    HW1  194   1.453   0.670   0.803
   57SOL    HW2  195   1.538   0.794   0.741
   58SOL     OW  196   0.461   1.266   1.727
   58SOL    HW1  197   0.411   1.267   1.641
   58SOL    HW2  198   0.398   1.248   1.803
   59SOL     OW  199   1.111   1.776   0.237
   59SOL    HW1  200   1.051   1.714   0.287
   59SOL    HW2  201   1.142   1.732   0.152
   60SOL     OW  202   0.202   0.285   1.498
   60SOL    HW1  203   0.122   0.345   1.485
   60SOL    HW2  204   0.192   0.236   1.584
   61SOL     OW  205   1.632   1.377   0.081
   61SOL    HW1  206   1.600   1.471   0.071
   61SOL    HW2  207   1.556   1.314   0.069
   62SOL     OW  208   0.464   1.743   0.323
   62SOL    HW1  209   0.497   1.782   0.409
   62SOL    HW2  210   0.540   1.736   0.258
   63SOL     OW  211   1.400   0.107   0.426
   63SOL    HW1  212   1.376   0.070   0.336
   63SOL    HW2  213   1.499   0.123   0.430
   64SOL     OW  214   0.249   1.785   1.241
   64SOL    HW1  215   0.306   1.720   1.291
   64SOL    HW2  216   0.233   1.752   1.148
   65SOL     OW  217   0.940   1.698   0.904
   65SOL    HW1  218   1.020   1.641   0.925
   65SOL    HW2  219   0.891   1.658   0.827
   66SOL     OW  220   0.382   0.700   0.480
   66SOL    HW1  221   0.427   0.610   0.477
   66SOL    HW2  222   0.288   0.689   0.513
   67SOL     OW  223   1.547   0.222   1.729
   67SOL    HW1  224   1.542   0.259   1.821
   67SOL    HW2  225   1.475   0.153   1.717
   68SOL     OW  226   0.614   0.122   0.117
   68SOL    HW1  227   0.712   0.100   0.124
   68SOL    HW2  228   0.583   0.105   0.024
   69SOL     OW  229   0.781   0.264   1.749
   69SOL    HW1  230   0.848   0.203   1.792
   69SOL    HW2  231   0.708   0.283   1.814
   70SOL     OW  232   0.888   1.514   1.195
   70SOL    HW1  233   0.865   1.489   1.101
   70SOL    HW2  234   0.949   1.445   1.234
   71SOL     OW  235   1.351   0.590   1.433
   71SOL    HW1  236   1.379   0.547   1.518
   71SOL    HW2  237   1.376   0.686   1.434
   72SOL     OW  238   0.803   1.402   0.924
   72SOL    HW1  239   0.893   1.416   0.882
   72SOL    HW2  240   0.732   1.404   0.853
   73SOL     OW  241   0.922   0.503   0.899
   73SOL    HW1  242   0.897   0.494   0.803
   73SOL    HW2  243   0.970   0.421   0.930
   74SOL     OW  244   0.539   0.064   0.512
   74SOL    HW1  245   0.458   0.065   0.570
   74SOL    HW2  246   0.542   0.147   0.457
   75SOL     OW  247   1.434   1.188   0.041
   75SOL    HW1  248   1.466   1.112   0.098
   75SOL    HW2  249   1.342   1.215   0.071
   76SOL     OW  250   0.297   0.035   0.171
   76SOL    HW1  251   0.346   0.119   0.150
   76SOL    HW2  252   0.359  -0.030   0.216
   77SOL     OW  253   0.935   0.236   0.480
   77SOL    HW1  254   0.887   0.277   0.402
   77SOL    HW2  255   1.034   0.234   0.461
   78SOL     OW  256   1.076   0.683   1.464
   78SOL    HW1  257   0.996   0.622   1.467
   78SOL    HW2  258   1.157   0.630   1.440
   79SOL     OW  259   1.227   1.570   0.793
   79SOL    HW1  260   1.248   1.644   0.728
   79SOL    HW2  261   1.295   1.570   0.866
   80SOL     OW  262   0.459   1.152   0.741
   80SOL    HW1  263   0.388   1.125   0.806
   80SOL    HW2  264   0.433   1.124   0.648
   81SOL     OW  265   1.271   1.797   0.591
   81SOL    HW1  266   1.315   1.861   0.527
   81SOL    HW2  267   1.221   1.849   0.661
   82SOL     OW  268   1.032   0.549   0.016
   82SOL    HW1  269   0.991   0.631  -0.023
   82SOL    HW2  270   1.096   0.575   0.089
   83SOL     OW  271   0.078   0.556   1.386
   83SOL    HW1  272   0.170   0.555   1.345
   83SOL    HW2  273   0.072   0.630   1.453
   84SOL     OW  274   0.561   0.222   1.147
   84SOL    HW1  275   0.599   0.138   1.184
   84SOL    HW2  276   0.473   0.241   1.191
   85SOL     OW  277   0.866   0.454   0.642
   85SOL    HW1  278   0.834   0.526   0.580
   85SOL    HW2  279   0.890   0.373   0.589
   86SOL     OW  280   1.017   0.039   0.753
   86SOL    HW1  281   0.945   0.044   0.684
   86SOL    HW2  282   0.993  -0.030   0.822
   87SOL     OW  283   1.429   1.173   0.867
   87SOL    HW1  284   1.374   1.089   0.860
   87SOL    HW2  285   1.455   1.202   0.775
   88SOL     OW  286   1.466   0.590   0.992
   88SOL    HW1  287   1.436   0.495   0.999
   88SOL    HW2  288   1.539   0.606   1.058
   89SOL     OW  289   1.857   0.833   0.377
   89SOL    HW1  290   1.899   0.769   0.441
   89SOL    HW2  291   1.819   0.782   0.299
   90SOL     OW  292   0.488   1.385   0.174
   90SOL    HW1  293   0.401   1.370   0.221
   90SOL    HW2  294   0.471   1.411   0.079
   91SOL     OW  295   1.664   1.280   0.657
   91SOL    HW1  296   1.763   1.288   0.671
   91SOL    HW2  297   1.619   1.364   0.688
   92SOL     OW  298   1.390   0.575   0.078
   92SOL    HW1  299   1.336   0.554   0.159
   92SOL    HW2  300   1.481   0.534   0.087
   93SOL     OW  301   0.527   0.256   0.328
   93SOL    HW1  302   0.554   0.197   0.253
   93SOL    HW2  303   0.527   0.351   0.297
   94SOL     OW  304   1.064   1.347   1.340
   94SOL    HW1  305   0.984   1.324   1.395
   94SOL    HW2  306   1.147   1.321   1.389
   95SOL     OW  307   1.111   1.195   1.100
   95SOL    HW1  308   1.071   1.239   1.181
   95SOL    HW2  309   1.070   1.232   1.017
   96SOL     OW  310   1.638   1.099   1.079
   96SOL    HW1  311   1.643   1.180   1.138
   96SOL    HW2  312   1.552   1.101   1.028
   97SOL     OW  313   0.915   0.089   1.402
   97SOL    HW1  314   0.940   0.069   1.307
   97SOL    HW2  315   0.987   0.145   1.444
   98SOL     OW  316   0.980   1.116   1.719
   98SOL    HW1  317   0.881   1.122   1.729
   98SOL    HW2  318   1.003   1.036   1.663
   99SOL     OW  319   0.705   1.050   0.368
   99SOL    HW1  320   0.691   1.057   0.467
   99SOL    HW2  321   0.789   0.999   0.350
  100SOL     OW  322   0.410   0.813   1.251
  100SOL    HW1  323   0.496   0.825   1.301
  100SOL    HW2  324   0.368   0.726   1.278
  101SOL     OW  325   1.274   0.386   1.262
  101SOL    HW1  326   1.295   0.460   1.326
  101SOL    HW2  327   1.185   0.403   1.219
  102SOL     OW  328   0.064   1.564   1.331
  102SOL    HW1  329   0.018   1.646   1.297
  102SOL    HW2  330   0.162   1.583   1.340
  103SOL     OW  331   0.367   1.100   0.501
  103SOL    HW1  332   0.360   1.183   0.445
  103SOL    HW2  333   0.371   1.020   0.441
  104SOL     OW  334   0.566   0.537   0.865
  104SOL    HW1  335   0.578   0.603   0.791
  104SOL    HW2  336   0.612   0.571   0.948
  105SOL     OW  337   1.252   1.348   0.388
  105SOL    HW1  338   1.302   1.425   0.428
  105SOL    HW2  339   1.157   1.350   0.420
  106SOL     OW  340   1.582   0.639   0.472
  106SOL    HW1  341   1.551   0.700   0.545
  106SOL    HW2  342   1.632   0.691   0.403
  107SOL     OW  343   0.354   1.510   1.329
  107SOL    HW1  344   0.333   1.466   1.242
  107SOL    HW2  345   0.451   1.536   1.332
  108SOL     OW  346   0.402   0.751   1.598
  108SOL    HW1  347   0.470   0.806   1.551
  108SOL    HW2  348   0.442   0.663   1.625
  109SOL     OW  349   1.587   0.779   1.670
  109SOL    HW1  350   1.495   0.817   1.665
  109SOL    HW2  351   1.647   0.826   1.605
  110SOL     OW  352   1.013   0.105   1.770
  110SOL    HW1  353   1.019   0.190   1.718
  110SOL    HW2  354   1.045   0.029   1.713
  111SOL     OW  355   0.504   0.050   1.740
  111SOL    HW1  356   0.462  -0.007   1.670
  111SOL    HW2  357   0.438   0.119   1.772
  112SOL     OW  358   0.573   0.870   1.029
  112SOL    HW1  359   0.617   0.959   1.020
  112SOL    HW2  360   0.510   0.870   1.106
  113SOL     OW  361   1.360   0.862   1.045
  113SOL    HW1  362   1.285   0.862   0.979
  113SOL    HW2  363   1.397   0.770   1.054
  114SOL     OW  364   1.209   0.525   0.275
  114SOL    HW1  365   1.222   0.441   0.329
  114SOL    HW2  366   1.180   0.599   0.335
  115SOL     OW  367   0.307   0.213   1.231
  115SOL    HW1  368   0.284   0.250   1.321
  115SOL    HW2  369   0.277   0.118   1.225
  116SOL     OW  370   0.037   1.310   1.282
  116SOL    HW1  371   0.090   1.261   1.350
  116SOL    HW2  372   0.059   1.408   1.287
  117SOL     OW  373   0.732   0.634   1.064
  117SOL    HW1  374   0.791   0.608   0.988
  117SOL    HW2  375   0.704   0.730   1.053
  118SOL     OW  376   1.728   0.935   1.854
  118SOL    HW1  377   1.682   0.928   1.765
  118SOL    HW2  378   1.666   0.979   1.920
  119SOL     OW  379   0.307   0.063   0.618
  119SOL    HW1  380   0.296   0.157   0.651
  119SOL    HW2  381   0.302   0.000   0.695
  120SOL     OW  382   1.622   0.367   0.374
  120SOL    HW1  383   1.624   0.291   0.438
  120SOL    HW2  384   1.574   0.444   0.414
  121SOL     OW  385   1.023   0.766   0.966
  121SOL    HW1  386   1.038   0.787   1.062
  121SOL    HW2  387   0.993   0.671   0.957
  122SOL     OW  388   0.980   1.573   1.700
  122SOL    HW1  389   0.960   1.617   1.612
  122SOL    HW2  390   1.019   1.482   1.684
  123SOL     OW  391   1.859   1.518   1.605
  123SOL    HW1  392   1.873   1.545   1.510
  123SOL    HW2  393   1.942   1.540   1.658
  124SOL     OW  394   0.350   0.898   1.804
  124SOL    HW1  395   0.426   0.942   1.852
  124SOL    HW2  396   0.385   0.851   1.722
  125SOL     OW  397   1.540   0.274   0.125
  125SOL    HW1  398   1.479   0.199   0.148
  125SOL    HW2  399   1.562   0.326   0.208
  126SOL     OW  400   1.303   0.838   0.042
  126SOL    HW1  401   1.337   0.745   0.057
  126SOL    HW2  402   1.321   0.865  -0.053
  127SOL     OW  403   1.068   1.333   0.849
  127SOL    HW1  404   1.075   1.249   0.794
  127SOL    HW2  405   1.130   1.402   0.813
  128SOL     OW  406   0.319   0.810   0.949
  128SOL    HW1  407   0.412   0.846   0.954
  128SOL    HW2  408   0.313   0.725   1.001
  129SOL     OW  409   0.339   0.509   1.006
  129SOL    HW1  410   0.287   0.426   0.989
  129SOL    HW2  411   0.416   0.514   0.942
  130SOL     OW  412   1.138   0.380   1.678
  130SOL    HW1  413   1.093   0.443   1.742
  130SOL    HW2  414   1.231   0.411   1.661
  131SOL     OW  415   1.160   0.207   1.477
  131SOL    HW1  416   1.160   0.271   1.554
  131SOL    HW2  417   1.188   0.255   1.394
  132SOL     OW  418   0.008   1.326   0.200
  132SOL    HW1  419  -0.085   1.347   0.169
  132SOL    HW2  420   0.018   1.227   0.213
  133SOL     OW  421   0.088   1.801   0.927
  133SOL    HW1  422   0.046   1.715   0.900
  133SOL    HW2  423   0.182   1.804   0.893
  134SOL     OW  424   0.504   1.568   0.910
  134SOL    HW1  425   0.570   1.642   0.919
  134SOL    HW2  426   0.548   1.489   0.868
  135SOL     OW  427   1.002   0.796   1.238
  135SOL    HW1  428   1.043   0.764   1.324
  135SOL    HW2  429   0.906   0.769   1.235
  136SOL     OW  430   0.040   0.544   1.114
  136SOL    HW1  431   0.125   0.511   1.073
  136SOL    HW2  432   0.053   0.559   1.212
  137SOL     OW  433   0.189   0.520   1.722
  137SOL    HW1  434   0.248   0.480   1.652
  137SOL    HW2  435   0.131   0.591   1.681
  138SOL     OW  436   1.369   0.950   1.660
  138SOL    HW1  437   1.408   1.039   1.680
  138SOL    HW2  438   1.379   0.930   1.563
  139SOL     OW  439   0.815   0.572   0.325
  139SOL    HW1  440   0.822   0.483   0.279
  139SOL    HW2  441   0.721   0.606   0.317
  140SOL     OW  442   1.657   0.604   1.206
  140SOL    HW1  443   1.619   0.535   1.268
  140SOL    HW2  444   1.739   0.568   1.162
  141SOL     OW  445   0.252   1.564   1.744
  141SOL    HW1  446   0.222   1.621   1.820
  141SOL    HW2  447   0.245   1.467   1.770
  142SOL     OW  448   0.671   0.464   1.269
  142SOL    HW1  449   0.637   0.375   1.239
  142SOL    HW2  450   0.697   0.518   1.189
  143SOL     OW  451   0.930   1.678   1.465
  143SOL    HW1  452   0.906   1.660   1.370
  143SOL    HW2  453   0.960   1.772   1.475
  144SOL     OW  454   0.473   0.500   0.191
  144SOL    HW1  455   0.534   0.580   0.195
  144SOL    HW2  456   0.378   0.531   0.198
  145SOL     OW  457   0.159   1.137   1.466
  145SOL    HW1  458   0.181   1.076   1.542
  145SOL    HW2  459   0.169   1.088   1.380
  146SOL     OW  460   1.347   1.059   1.234
  146SOL    HW1  461   1.371   0.996   1.160
  146SOL    HW2  462   1.257   1.099   1.216
  147SOL     OW  463   1.302   0.855   0.309
  147SOL    HW1  464   1.216   0.824   0.351
  147SOL    HW2  465   1.298   0.841   0.210
  148SOL     OW  466   1.759   1.747   1.154
  148SOL    HW1  467   1.820   1.777   1.081
  148SOL    HW2  468   1.721   1.658   1.132
  149SOL     OW  469   1.252   1.731   1.128
  149SOL    HW1  470   1.336   1.736   1.074
  149SOL    HW2  471   1.229   1.635   1.146
  150SOL     OW  472   0.083   1.258   1.022
  150SOL    HW1  473   0.078   1.257   1.122
  150SOL    HW2  474   0.000   1.217   0.984
  151SOL     OW  475   0.688   1.662   1.716
  151SOL    HW1  476   0.632   1.743   1.725
  151SOL    HW2  477   0.740   1.666   1.630
  152SOL     OW  478   0.903   0.086   0.133
  152SOL    HW1  479   0.954   0.087   0.047
  152SOL    HW2  480   0.959   0.044   0.204
  153SOL     OW  481   1.726   0.135   0.523
  153SOL    HW1  482   1.799   0.118   0.456
  153SOL    HW2  483   1.695   0.048   0.561
  154SOL     OW  484   1.388   1.573   0.477
  154SOL    HW1  485   1.455   1.585   0.403
  154SOL    HW2  486   1.348   1.662   0.500
  155SOL     OW  487   0.130   1.794   1.851
  155SOL    HW1  488   0.089   1.720   1.904
  155SOL    HW2  489   0.194   1.845   1.909
  156SOL     OW  490   1.280   0.927   0.672
  156SOL    HW1  491   1.340   0.846   0.674
  156SOL    HW2  492   1.320   0.996   0.612
  157SOL     OW  493   0.830   1.273   1.422
  157SOL    HW1  494   0.825   1.306   1.517
  157SOL    HW2  495   0.744   1.292   1.376
  158SOL     OW  496   0.672   1.616   0.154
  158SOL    HW1  497   0.681   1.626   0.055
  158SOL    HW2  498   0.632   1.527   0.175
  159SOL     OW  499   1.841   0.175   0.963
  159SOL    HW1  500   1.880   0.090   0.927
  159SOL    HW2  501   1.743   0.177   0.944
  160SOL     OW  502   0.263   0.326   0.720
  160SOL    HW1  503   0.184   0.377   0.686
  160SOL    HW2  504   0.254   0.311   0.818
  161SOL     OW  505   1.194   1.612   0.031
  161SOL    HW1  506   1.200   1.519   0.068
  161SOL    HW2  507   1.135   1.612  -0.049
  162SOL     OW  508   0.822   1.002   1.372
  162SOL    HW1  509   0.862   1.001   1.280
  162SOL    HW2  510   0.832   1.094   1.412
  163SOL     OW  511   0.916   0.910   0.291
  163SOL    HW1  512   0.979   0.948   0.223
  163SOL    HW2  513   0.956   0.827   0.330
  164SOL     OW  514   1.504   1.607   0.044
  164SOL    HW1  515   1.412   1.644   0.051
  164SOL    HW2  516   1.542   1.627  -0.046
  165SOL     OW  517   0.372   1.288   1.490
  165SOL    HW1  518   0.359   1.381   1.456
  165SOL    HW2  519   0.288   1.236   1.477
  166SOL     OW  520   1.039   1.098   0.696
  166SOL    HW1  521   0.969   1.051   0.750
  166SOL    HW2  522   1.098   1.030   0.653
  167SOL     OW  523   1.014   0.236   0.971
  167SOL    HW1  524   1.006   0.200   0.878
  167SOL    HW2  525   1.012   0.160   1.036
  168SOL     OW  526   0.590   1.487   0.491
  168SOL    HW1  527   0.632   1.429   0.421
  168SOL    HW2  528   0.546   1.566   0.447
  169SOL     OW  529   1.709   0.385   1.381
  169SOL    HW1  530   1.782   0.454   1.385
  169SOL    HW2  531   1.737   0.310   1.322
  170SOL     OW  532   0.255   1.348   0.290
  170SOL    HW1  533   0.159   1.349   0.263
  170SOL    HW2  534   0.267   1.401   0.374
  171SOL     OW  535   0.105   1.013   1.726
  171SOL    HW1  536   0.028   0.980   1.780
  171SOL    HW2  537   0.190   0.983   1.768
  172SOL     OW  538   0.672   0.203   1.489
  172SOL    HW1  539   0.762   0.187   1.449
  172SOL    HW2  540   0.680   0.208   1.588
  173SOL     OW  541   0.075   0.345   0.033
  173SOL    HW1  542  -0.017   0.317   0.004
  173SOL    HW2  543   0.106   0.422  -0.023
  174SOL     OW  544   1.440   0.856   1.398
  174SOL    HW1  545   1.383   0.908   1.335
  174SOL    HW2  546   1.536   0.868   1.374
  175SOL     OW  547   0.072   0.166   0.318
  175SOL    HW1  548   0.055   0.249   0.264
  175SOL    HW2  549   0.162   0.129   0.296
  176SOL     OW  550   1.183   1.335   0.119
  176SOL    HW1  551   1.084   1.324   0.121
  176SOL    HW2  552   1.217   1.350   0.212
  177SOL     OW  553   0.613   0.842   1.431
  177SOL    HW1  554   0.669   0.923   1.414
  177SOL    HW2  555   0.672   0.762   1.434
  178SOL     OW  556   1.493   1.767   0.959
  178SOL    HW1  557   1.526   1.831   0.890
  178SOL    HW2  558   1.559   1.761   1.034
  179SOL     OW  559   0.716   0.565   1.708
  179SOL    HW1  560   0.735   0.630   1.782
  179SOL    HW2  561   0.776   0.485   1.717
  180SOL     OW  562   1.450   1.220   1.633
  180SOL    HW1  563   1.441   1.210   1.732
  180SOL    HW2  564   1.546   1.213   1.607
  181SOL     OW  565   0.390   1.741   1.560
  181SOL    HW1  566   0.299   1.782   1.558
  181SOL    HW2  567   0.383   1.647   1.592
  182SOL     OW  568   1.674   0.883   1.254
  182SOL    HW1  569   1.647   0.794   1.217
  182SOL    HW2  570   1.675   0.951   1.181
  183SOL     OW  571   1.225   0.325   0.449
  183SOL    HW1  572   1.290   0.251   0.438
  183SOL    HW2  573   1.245   0.375   0.533
  184SOL     OW  574   0.594   0.745   0.652
  184SOL    HW1  575   0.644   0.830   0.633
  184SOL    HW2  576   0.506   0.747   0.604
  185SOL     OW  577   1.777   0.342   1.642
  185SOL    HW1  578   1.760   0.373   1.548
  185SOL    HW2  579   1.693   0.305   1.680
  186SOL     OW  580   0.859   1.374   0.016
  186SOL    HW1  581   0.813   1.389   0.104
  186SOL    HW2  582   0.903   1.459  -0.014
  187SOL     OW  583   0.661   1.790   0.953
  187SOL    HW1  584   0.615   1.878   0.940
  187SOL    HW2  585   0.760   1.802   0.946
  188SOL     OW  586   0.859   0.956   0.861
  188SOL    HW1  587   0.913   0.887   0.909
  188SOL    HW2  588   0.827   1.025   0.927
  189SOL     OW  589   1.083   0.984   0.087
  189SOL    HW1  590   1.060   1.037   0.005
  189SOL    HW2  591   1.164   0.928   0.068
  190SOL     OW  592   1.861   1.569   0.851
  190SOL    HW1  593   1.790   1.557   0.781
  190SOL    HW2  594   1.862   1.490   0.911
  191SOL     OW  595   0.221   1.314   1.844
  191SOL    HW1  596   0.156   1.241   1.823
  191SOL    HW2  597   0.225   1.328   1.942
  192SOL     OW  598   0.079   1.240   0.653
  192SOL    HW1  599   0.078   1.193   0.741
  192SOL    HW2  600   0.161   1.212   0.602
  193SOL     OW  601   0.672   1.391   1.624
  193SOL    HW1  602   0.594   1.341   1.662
  193SOL    HW2  603   0.669   1.486   1.655
  194SOL     OW  604   1.824   0.192   1.227
  194SOL    HW1  605   1.820   0.102   1.271
  194SOL    HW2  606   1.827   0.181   1.128
  195SOL     OW  607   0.428   0.424   0.520
  195SOL    HW1  608   0.458   0.352   0.458
  195SOL    HW2  609   0.389   0.384   0.603
  196SOL     OW  610   1.705   1.487   1.104
  196SOL    HW1  611   1.612   1.462   1.077
  196SOL    HW2  612   1.731   1.437   1.186
  197SOL     OW  613   0.317   0.547   1.280
  197SOL    HW1  614   0.355   0.488   1.352
  197SOL    HW2  615   0.357   0.521   1.192
  198SOL     OW  616   0.812   1.586   0.687
  198SOL    HW1  617   0.844   1.596   0.593
  198SOL    HW2  618   0.733   1.524   0.689
  199SOL     OW  619   1.424   0.214   1.112
  199SOL    HW1  620   1.476   0.149   1.167
  199SOL    HW2  621   1.375   0.277   1.173
  200SOL     OW  622   1.001   0.034   1.154
  200SOL    HW1  623   0.938  -0.038   1.123
  200SOL    HW2  624   1.094  -0.002   1.154
  201SOL     OW  625   0.770   1.330   0.301
  201SOL    HW1  626   0.724   1.243   0.318
  201SOL    HW2  627   0.861   1.327   0.342
  202SOL     OW  628   0.618   1.567   1.284
  202SOL    HW1  629   0.613   1.649   1.341
  202SOL    HW2  630   0.707   1.564   1.239
  203SOL     OW  631   1.352   0.052   0.168
  203SOL    HW1  632   1.387   0.011   0.084
  203SOL    HW2  633   1.262   0.014   0.188
  204SOL     OW  634   1.300   0.453   0.691
  204SOL    HW1  635   1.241   0.533   0.695
  204SOL    HW2  636   1.315   0.418   0.784
  205SOL     OW  637   1.593   0.221   0.882
  205SOL    HW1  638   1.509   0.220   0.936
  205SOL    HW2  639   1.595   0.304   0.826
  206SOL     OW  640   0.039   1.077   0.300
  206SOL    HW1  641   0.138   1.066   0.291
  206SOL    HW2  642  -0.001   0.991   0.332
  207SOL     OW  643   0.875   1.646   0.337
  207SOL    HW1  644   0.798   1.611   0.283
  207SOL    HW2  645   0.843   1.717   0.399
  208SOL     OW  646   0.230   0.628   1.975
  208SOL    HW1  647   0.137   0.626   2.012
  208SOL    HW2  648   0.231   0.589   1.883
  209SOL     OW  649   0.225   0.275   2.858
  209SOL    HW1  650   0.260   0.258   2.950
  209SOL    HW2  651   0.137   0.230   2.846
  210SOL     OW  652   0.019   0.368   2.509
  210SOL    HW1  653  -0.063   0.411   2.548
  210SOL    HW2  654  -0.009   0.295   2.446
  211SOL     OW  655   0.569   1.275   3.027
  211SOL    HW1  656   0.476   1.268   2.990
  211SOL    HW2  657   0.580   1.364   3.071
  212SOL     OW  658   1.555   1.511   2.565
  212SOL    HW1  659   1.498   1.495   2.646
  212SOL    HW2  660   1.496   1.521   2.485
  213SOL     OW  661   1.135   0.703   2.579
  213SOL    HW1  662   1.192   0.781   2.554
  213SOL    HW2  663   1.075   0.729   2.655
  214SOL     OW  664   1.755   0.607   2.093
  214SOL    HW1  665   1.743   0.594   1.994
  214SOL    HW2  666   1.725   0.526   2.142
  215SOL     OW  667   0.768   1.144   2.885
  215SOL    HW1  668   0.690   1.161   2.945
  215SOL    HW2  669   0.802   1.231   2.849
  216SOL     OW  670   0.685   1.012   2.527
  216SOL    HW1  671   0.754   0.996   2.597
  216SOL    HW2  672   0.612   1.069   2.565
  217SOL     OW  673   0.335   1.435   2.923
  217SOL    HW1  674   0.257   1.404   2.870
  217SOL    HW2  675   0.393   1.493   2.866
  218SOL     OW  676   1.603   0.447   2.599
  218SOL    HW1  677   1.529   0.493   2.549
  218SOL    HW2  678   1.654   0.515   2.652
  219SOL     OW  679   0.231   1.713   2.345
  219SOL    HW1  680   0.265   1.790   2.399
  219SOL    HW2  681   0.275   1.713   2.255
  220SOL     OW  682   0.230   1.434   2.400
  220SOL    HW1  683   0.204   1.530   2.400
  220SOL    HW2  684   0.159   1.380   2.445
  221SOL     OW  685   0.240   1.091   2.748
  221SOL    HW1  686   0.254   1.007   2.800
  221SOL    HW2  687   0.185   1.155   2.803
  222SOL     OW  688   0.606   0.964   1.985
  222SOL    HW1  689   0.613   1.048   1.931
  222SOL    HW2  690   0.652   0.977   2.073
  223SOL     OW  691   0.122   0.643   2.425
  223SOL    HW1  692   0.077   0.555   2.442
  223SOL    HW2  693   0.121   0.697   2.509
  224SOL     OW  694   1.842   1.767   2.221
  224SOL    HW1  695   1.896   1.738   2.301
  224SOL    HW2  696   1.872   1.857   2.192
  225SOL     OW  697   0.027   1.596   1.979
  225SOL    HW1  698   0.008   1.500   2.000
  225SOL    HW2  699  -0.006   1.654   2.054
  226SOL     OW  700   1.689   0.922   2.474
  226SOL    HW1  701   1.784   0.893   2.482
  226SOL    HW2  702   1.681   0.987   2.399
  227SOL     OW  703   1.641   1.108   2.294
  227SOL    HW1  704   1.727   1.110   2.242
  227SOL    HW2  705   1.655   1.155   2.382
  228SOL     OW  706   0.613   1.365   2.588
  228SOL    HW1  707   0.564   1.278   2.597
  228SOL    HW2  708   0.590   1.408   2.501
  229SOL     OW  709   0.809   0.004   2.364
  229SOL    HW1  710   0.849   0.095   2.355
  229SOL    HW2  711   0.709   0.012   2.370
  230SOL     OW  712   0.197   0.976   3.126
  230SOL    HW1  713   0.286   0.931   3.112
  230SOL    HW2  714   0.124   0.911   3.107
  231SOL     OW  715   1.525   0.999   2.052
  231SOL    HW1  716   1.462   0.923   2.065
  231SOL    HW2  717   1.573   1.017   2.138
  232SOL     OW  718   1.466   1.417   2.815
  232SOL    HW1  719   1.407   1.423   2.895
  232SOL    HW2  720   1.451   1.329   2.769
  233SOL     OW  721   1.667   1.714   2.434
  233SOL    HW1  722   1.626   1.691   2.346
  233SOL    HW2  723   1.649   1.640   2.499
  234SOL     OW  724   0.598   0.729   2.132
  234SOL    HW1  725   0.622   0.798   2.064
  234SOL    HW2  726   0.520   0.762   2.186
  235SOL     OW  727   1.281   0.345   2.806
  235SOL    HW1  728   1.195   0.295   2.793
  235SOL    HW2  729   1.343   0.291   2.862
  236SOL     OW  730   1.576   1.662   2.169
  236SOL    HW1  731   1.665   1.708   2.172
  236SOL    HW2  732   1.555   1.638   2.074
  237SOL     OW  733   1.041   0.701   2.291
  237SOL    HW1  734   1.067   0.697   2.387
  237SOL    HW2  735   0.956   0.650   2.277
  238SOL     OW  736   0.076   0.811   2.651
  238SOL    HW1  737   0.175   0.799   2.660
  238SOL    HW2  738   0.052   0.906   2.672
  239SOL     OW  739   0.865   0.348   2.057
  239SOL    HW1  740   0.924   0.411   2.008
  239SOL    HW2  741   0.884   0.254   2.028
  240SOL     OW  742   1.362   1.144   2.407
  240SOL    HW1  743   1.445   1.115   2.359
  240SOL    HW2  744   1.313   1.211   2.351
  241SOL     OW  745   0.550   0.196   2.747
  241SOL    HW1  746   0.545   0.191   2.847
  241SOL    HW2  747   0.552   0.292   2.718
  242SOL     OW  748   1.008   1.456   2.339
  242SOL    HW1  749   0.962   1.528   2.287
  242SOL    HW2  750   1.004   1.476   2.437
  243SOL     OW  751   0.351   1.801   2.715
  243SOL    HW1  752   0.401   1.715   2.721
  243SOL    HW2  753   0.416   1.878   2.712
  244SOL     OW  754   1.795   1.066   2.735
  244SOL    HW1  755   1.733   1.051   2.659
  244SOL    HW2  756   1.743   1.077   2.820
  245SOL     OW  757   0.321   0.943   2.104
  245SOL    HW1  758   0.403   0.982   2.062
  245SOL    HW2  759   0.294   0.861   2.055
  246SOL     OW  760   1.458   0.735   2.590
  246SOL    HW1  761   1.453   0.670   2.665
  246SOL    HW2  762   1.538   0.794   2.603
  247SOL     OW  763   1.111   1.776   2.099
  247SOL    HW1  764   1.051   1.714   2.149
  247SOL    HW2  765   1.142   1.732   2.014
  248SOL     OW  766   1.632   1.377   1.943
  248SOL    HW1  767   1.600   1.471   1.933
  248SOL    HW2  768   1.556   1.314   1.931
  249SOL     OW  769   0.464   1.743   2.185
  249SOL    HW1  770   0.497   1.782   2.271
  249SOL    HW2  771   0.540   1.736   2.120
  250SOL     OW  772   1.400   0.107   2.288
  250SOL    HW1  773   1.376   0.070   2.198
  250SOL    HW2  774   1.499   0.123   2.292
  251SOL     OW  775   0.249   1.785   3.103
  251SOL    HW1  776   0.306   1.720   3.153
  251SOL    HW2  777   0.233   1.752   3.010
  252SOL     OW  778   0.940   1.698   2.766
  252SOL    HW1  779   1.020   1.641   2.787
  252SOL    HW2  780   0.891   1.658   2.689
  253SOL     OW  781   0.382   0.700   2.342
  253SOL    HW1  782   0.427   0.610   2.339
  253SOL    HW2  783   0.288   0.689   2.375
  254SOL     OW  784   0.614   0.122   1.979
  254SOL    HW1  785   0.712   0.100   1.986
  254SOL    HW2  786   0.583   0.105   1.886
  255SOL     OW  787   0.803   1.402   2.786
  255SOL    HW1  788   0.893   1.416   2.744
  255SOL    HW2  789   0.732   1.404   2.715
  256SOL     OW  790   0.922   0.503   2.761
  256SOL    HW1  791   0.897   0.494   2.665
  256SOL    HW2  792   0.970   0.421   2.792
  257SOL     OW  793   0.539   0.064   2.374
  257SOL    HW1  794   0.458   0.065   2.432
  257SOL    HW2  795   0.542   0.147   2.319
  258SOL     OW  796   1.434   1.188   1.903
  258SOL    HW1  797   1.466   1.112   1.960
  258SOL    HW2  798   1.342   1.215   1.933
  259SOL     OW  799   0.297   0.035   2.033
  259SOL    HW1  800   0.346   0.119   2.012
  259SOL    HW2  801   0.359  -0.030   2.078
  260SOL     OW  802   0.935   0.236   2.342
  260SOL    HW1  803   0.887   0.277   2.264
  260SOL    HW2  804   1.034   0.234   2.323
  261SOL     OW  805   1.227   1.570   2.655
  261SOL    HW1  806   1.248   1.644   2.590
  261SOL    HW2  807   1.295   1.570   2.728
  262SOL     OW  808   0.459   1.152   2.603
  262SOL    HW1  809   0.388   1.125   2.668
  262SOL    HW2  810   0.433   1.124   2.510
  263SOL     OW  811   1.271   1.797   2.453
  263SOL    HW1  812   1.315   1.861   2.389
  263SOL    HW2  813   1.221   1.849   2.523
  264SOL     OW  814   1.032   0.549   1.878
  264SOL    HW1  815   0.991   0.631   1.839
  264SOL    HW2  816   1.096   0.575   1.951
  265SOL     OW  817   0.866   0.454   2.504
  265SOL    HW1  818   0.834   0.526   2.442
  265SOL    HW2  819   0.890   0.373   2.451
  266SOL     OW  820   1.017   0.039   2.615
  266SOL    HW1  821   0.945   0.044   2.546
  266SOL    HW2  822   0.993  -0.030   2.684
  267SOL     OW  823   1.429   1.173   2.729
  267SOL    HW1  824   1.374   1.089   2.722
  267SOL    HW2  825   1.455   1.202   2.637
  268SOL     OW  826   1.466   0.590   2.854
  268SOL    HW1  827   1.436   0.495   2.861
  268SOL    HW2  828   1.539   0.606   2.920
  269SOL     OW  829   1.857   0.833   2.239
  269SOL    HW1  830   1.899   0.769   2.303
  269SOL    HW2  831   1.819   0.782   2.161
  270SOL     OW  832   0.488   1.385   2.036
  270SOL    HW1  833   0.401   1.370   2.083
  270SOL    HW2  834   0.471   1.411   1.941
  271SOL     OW  835   1.664   1.280   2.519
  271SOL    HW1  836   1.763   1.288   2.533
  271SOL    HW2  837   1.619   1.364   2.550
  272SOL     OW  838   1.390   0.575   1.940
  272SOL    HW1  839   1.336   0.554   2.021
  272SOL    HW2  840   1.481   0.534   1.949
  273SOL     OW  841   0.527   0.256   2.190
  273SOL    HW1  842   0.554   0.197   2.115
  273SOL    HW2  843   0.527   0.351   2.159
  274SOL     OW  844   1.111   1.195   2.962
  274SOL    HW1  845   1.071   1.239   3.043
  274SOL    HW2  846   1.070   1.232   2.879
  275SOL     OW  847   1.638   1.099   2.941
  275SOL    HW1  848   1.643   1.180   3.000
  275SOL    HW2  849   1.552   1.101   2.890
  276SOL     OW  850   0.705   1.050   2.230
  276SOL    HW1  851   0.691   1.057   2.329
  276SOL    HW2  852   0.789   0.999   2.212
  277SOL     OW  853   0.410   0.813   3.113
  277SOL    HW1  854   0.496   0.825   3.163
  277SOL    HW2  855   0.368   0.726   3.140
  278SOL     OW  856   0.367   1.100   2.363
  278SOL    HW1  857   0.360   1.183   2.307
  278SOL    HW2  858   0.371   1.020   2.303
  279SOL     OW  859   0.566   0.537   2.727
  279SOL    HW1  860   0.578   0.603   2.653
  279SOL    HW2  861   0.612   0.571   2.810
  280SOL     OW  862   1.252   1.348   2.250
  280SOL    HW1  863   1.302   1.425   2.290
  280SOL    HW2  864   1.157   1.350   2.282
  281SOL     OW  865   1.272   1.445   3.004
  281SOL    HW1  866   1.319   1.458   3.091
  281SOL    HW2  867   1.206   1.371   3.013
  282SOL     OW  868   1.582   0.639   2.334
  282SOL    HW1  869   1.551   0.700   2.407
  282SOL    HW2  870   1.632   0.691   2.265
  283SOL     OW  871   0.573   0.870   2.891
  283SOL    HW1  872   0.617   0.959   2.882
  283SOL    HW2  873   0.510   0.870   2.968
  284SOL     OW  874   1.209   0.525   2.137
  284SOL    HW1  875   1.222   0.441   2.191
  284SOL    HW2  876   1.180   0.599   2.197
  285SOL     OW  877   0.307   0.213   3.093
  285SOL    HW1  878   0.284   0.250   3.183
  285SOL    HW2  879   0.277   0.118   3.087
  286SOL     OW  880   0.732   0.634   2.926
  286SOL    HW1  881   0.791   0.608   2.850
  286SOL    HW2  882   0.704   0.730   2.915
  287SOL     OW  883   0.307   0.063   2.480
  287SOL    HW1  884   0.296   0.157   2.513
  287SOL    HW2  885   0.302   0.000   2.557
  288SOL     OW  886   1.622   0.367   2.236
  288SOL    HW1  887   1.624   0.291   2.300
  288SOL    HW2  888   1.574   0.444   2.276
  289SOL     OW  889   1.023   0.766   2.828
  289SOL    HW1  890   1.038   0.787   2.924
  289SOL    HW2  891   0.993   0.671   2.819
  290SOL     OW  892   1.540   0.274   1.987
  290SOL    HW1  893   1.479   0.199   2.010
  290SOL    HW2  894   1.562   0.326   2.070
  291SOL     OW  895   1.303   0.838   1.904
  291SOL    HW1  896   1.337   0.745   1.919
  291SOL    HW2  897   1.321   0.865   1.809
  292SOL     OW  898   1.068   1.333   2.711
  292SOL    HW1  899   1.075   1.249   2.656
  292SOL    HW2  900   1.130   1.402   2.675
  293SOL     OW  901   0.319   0.810   2.811
  293SOL    HW1  902   0.412   0.846   2.816
  293SOL    HW2  903   0.313   0.725   2.863
  294SOL     OW  904   0.339   0.509   2.868
  294SOL    HW1  905   0.287   0.426   2.851
  294SOL    HW2  906   0.416   0.514   2.804
  295SOL     OW  907   0.008   1.326   2.062
  295SOL    HW1  908  -0.085   1.347   2.031
  295SOL    HW2  909   0.018   1.227   2.075
  296SOL     OW  910   0.088   1.801   2.789
  296SOL    HW1  911   0.046   1.715   2.762
  296SOL    HW2  912   0.182   1.804   2.755
  297SOL     OW  913   0.504   1.568   2.772
  297SOL    HW1  914   0.570   1.642   2.781
  297SOL    HW2  915   0.548   1.489   2.730
  298SOL     OW  916   1.002   0.796   3.100
  298SOL    HW1  917   1.043   0.764   3.186
  298SOL    HW2  918   0.906   0.769   3.097
  299SOL     OW  919   0.040   0.544   2.976
  299SOL    HW1  920   0.125   0.511   2.935
  299SOL    HW2  921   0.053   0.559   3.074
  300SOL     OW  922   0.815   0.572   2.187
  300SOL    HW1  923   0.822   0.483   2.141
  300SOL    HW2  924   0.721   0.606   2.179
  301SOL     OW  925   1.657   0.604   3.068
  301SOL    HW1  926   1.619   0.535   3.130
  301SOL    HW2  927   1.739   0.568   3.024
  302SOL     OW  928   0.671   0.464   3.131
  302SOL    HW1  929   0.637   0.375   3.101
  302SOL    HW2  930   0.697   0.518   3.051
  303SOL     OW  931   0.473   0.500   2.053
  303SOL    HW1  932   0.534   0.580   2.057
  303SOL    HW2  933   0.378   0.531   2.060
  304SOL     OW  934   1.302   0.855   2.171
  304SOL    HW1  935   1.216   0.824   2.213
  304SOL    HW2  936   1.298   0.841   2.072
  305SOL     OW  937   1.759   1.747   3.016
  305SOL    HW1  938   1.820   1.777   2.943
  305SOL    HW2  939   1.721   1.658   2.994
  306SOL     OW  940   0.083   1.258   2.884
  306SOL    HW1  941   0.078   1.257   2.984
  306SOL    HW2  942   0.000   1.217   2.846
  307SOL     OW  943   1.726   0.135   2.385
  307SOL    HW1  944   1.799   0.118   2.318
  307SOL    HW2  945   1.695   0.048   2.423
  308SOL     OW  946   1.388   1.573   2.339
  308SOL    HW1  947   1.455   1.585   2.265
  308SOL    HW2  948   1.348   1.662   2.362
  309SOL     OW  949   1.280   0.927   2.534
  309SOL    HW1  950   1.340   0.846   2.536
  309SOL    HW2  951   1.320   0.996   2.474
  310SOL     OW  952   0.672   1.616   2.016
  310SOL    HW1  953   0.681   1.626   1.917
  310SOL    HW2  954   0.632   1.527   2.037
  311SOL     OW  955   1.841   0.175   2.825
  311SOL    HW1  956   1.880   0.090   2.789
  311SOL    HW2  957   1.743   0.177   2.806
  312SOL     OW  958   0.263   0.326   2.582
  312SOL    HW1  959   0.184   0.377   2.548
  312SOL    HW2  960   0.254   0.311   2.680
  313SOL     OW  961   1.194   1.612   1.893
  313SOL    HW1  962   1.200   1.519   1.930
  313SOL    HW2  963   1.135   1.612   1.813
  314SOL     OW  964   0.822   1.002   3.234
  314SOL    HW1  965   0.862   1.001   3.142
  314SOL    HW2  966   0.832   1.094   3.274
  315SOL     OW  967   0.916   0.910   2.153
  315SOL    HW1  968   0.979   0.948   2.085
  315SOL    HW2  969   0.956   0.827   2.192
  316SOL     OW  970   1.039   1.098   2.558
  316SOL    HW1  971   0.969   1.051   2.612
  316SOL    HW2  972   1.098   1.030   2.515
  317SOL     OW  973   1.014   0.236   2.833
  317SOL    HW1  974   1.006   0.200   2.740
  317SOL    HW2  975   1.012   0.160   2.898
  318SOL     OW  976   0.590   1.487   2.353
  318SOL    HW1  977   0.632   1.429   2.283
  318SOL    HW2  978   0.546   1.566   2.309
  319SOL     OW  979   1.709   0.385   3.243
  319SOL    HW1  980   1.782   0.454   3.247
  319SOL    HW2  981   1.737   0.310   3.184
  320SOL     OW  982   0.255   1.348   2.152
  320SOL    HW1  983   0.159   1.349   2.125
  320SOL    HW2  984   0.267   1.401   2.236
  321SOL     OW  985   0.075   0.345   1.895
  321SOL    HW1  986  -0.017   0.317   1.866
  321SOL    HW2  987   0.106   0.422   1.839
  322SOL     OW  988   0.072   0.166   2.180
  322SOL    HW1  989   0.055   0.249   2.126
  322SOL    HW2  990   0.162   0.129   2.158
  323SOL     OW  991   1.183   1.335   1.981
  323SOL    HW1  992   1.084   1.324   1.983
  323SOL    HW2  993   1.217   1.350   2.074
  324SOL     OW  994   1.493   1.767   2.821
  324SOL    HW1  995   1.526   1.831   2.752
  324SOL    HW2  996   1.559   1.761   2.896
  325SOL     OW  997   1.674   0.883   3.116
  325SOL    HW1  998   1.647   0.794   3.079
  325SOL    HW2  999   1.675   0.951   3.043
  326SOL     OW 1000   1.225   0.325   2.311
  326SOL    HW1 1001   1.290   0.251   2.300
  326SOL    HW2 1002   1.245   0.375   2.395
  327SOL     OW 1003   0.594   0.745   2.514
  327SOL    HW1 1004   0.644   0.830   2.495
  327SOL    HW2 1005   0.506   0.747   2.466
  328SOL     OW 1006   0.859   1.374   1.878
  328SOL    HW1 1007   0.813   1.389   1.966
  328SOL    HW2 1008   0.903   1.459   1.848
  329SOL     OW 1009   0.661   1.790   2.815
  329SOL    HW1 1010   0.615   1.878   2.802
  329SOL    HW2 1011   0.760   1.802   2.808
  330SOL     OW 1012   0.859   0.956   2.723
  330SOL    HW1 1013   0.913   0.887   2.771
  330SOL    HW2 1014   0.827   1.025   2.789
  331SOL     OW 1015   1.083   0.984   1.949
  331SOL    HW1 1016   1.060   1.037   1.867
  331SOL    HW2 1017   1.164   0.928   1.930
  332SOL     OW 1018   1.861   1.569   2.713
  332SOL    HW1 1019   1.790   1.557   2.643
  332SOL    HW2 1020   1.862   1.490   2.773
  333SOL     OW 1021   0.079   1.240   2.515
  333SOL    HW1 1022   0.078   1.193   2.603
  333SOL    HW2 1023   0.161   1.212   2.464
  334SOL     OW 1024   1.824   0.192   3.089
  334SOL    HW1 1025   1.820   0.102   3.133
  334SOL    HW2 1026   1.827   0.181   2.990
  335SOL     OW 1027   0.428   0.424   2.382
  335SOL    HW1 1028   0.458   0.352   2.320
  335SOL    HW2 1029   0.389   0.384   2.465
  336SOL     OW 1030   0.812   1.586   2.549
  336SOL    HW1 1031   0.844   1.596   2.455
  336SOL    HW2 1032   0.733   1.524   2.551
  337SOL     OW 1033   1.424   0.214   2.974
  337SOL    HW1 1034   1.476   0.149   3.029
  337SOL    HW2 1035   1.375   0.277   3.035
  338SOL     OW 1036   0.770   1.330   2.163
  338SOL    HW1 1037   0.724   1.243   2.180
  338SOL    HW2 1038   0.861   1.327   2.204
  339SOL     OW 1039   1.352   0.052   2.030
  339SOL    HW1 1040   1.387   0.011   1.946
  339SOL    HW2 1041   1.262   0.014   2.050
  340SOL     OW 1042   1.300   0.453   2.553
  340SOL    HW1 1043   1.241   0.533   2.557
  340SOL    HW2 1044   1.315   0.418   2.646
  341SOL     OW 1045   1.593   0.221   2.744
  341SOL    HW1 1046   1.509   0.220   2.798
  341SOL    HW2 1047   1.595   0.304   2.688
  342SOL     OW 1048   0.039   1.077   2.162
  342SOL    HW1 1049   0.138   1.066   2.153
  342SOL    HW2 1050  -0.001   0.991   2.194
  343SOL     OW 1051   0.875   1.646   2.199
  343SOL    HW1 1052   0.798   1.611   2.145
  343SOL    HW2 1053   0.843   1.717   2.261
  344SOL     OW 1054   0.230   2.490   0.113
  344SOL    HW1 1055   0.137   2.488   0.150
  344SOL    HW2 1056   0.231   2.451   0.021
  345SOL     OW 1057   0.225   2.137   0.996
  345SOL    HW1 1058   0.260   2.120   1.088
  345SOL    HW2 1059   0.137   2.092   0.984
  346SOL     OW 1060   0.019   2.230   0.647
  346SOL    HW1 1061  -0.063   2.273   0.686
  346SOL    HW2 1062  -0.009   2.157   0.584
  347SOL     OW 1063   1.135   2.565   0.717
  347SOL    HW1 1064   1.192   2.643   0.692
  347SOL    HW2 1065   1.075   2.591   0.793
  348SOL     OW 1066   1.755   2.469   0.231
  348SOL    HW1 1067   1.743   2.456   0.132
  348SOL    HW2 1068   1.725   2.388   0.280
  349SOL     OW 1069   0.768   3.006   1.023
  349SOL    HW1 1070   0.690   3.023   1.083
  349SOL    HW2 1071   0.802   3.093   0.987
  350SOL     OW 1072   0.850   2.660   1.823
  350SOL    HW1 1073   0.846   2.736   1.888
  350SOL    HW2 1074   0.872   2.696   1.732
  351SOL     OW 1075   0.685   2.874   0.665
  351SOL    HW1 1076   0.754   2.858   0.735
  351SOL    HW2 1077   0.612   2.931   0.703
  352SOL     OW 1078   1.460   3.367   1.339
  352SOL    HW1 1079   1.484   3.461   1.365
  352SOL    HW2 1080   1.444   3.313   1.421
  353SOL     OW 1081   0.438   2.254   1.499
  353SOL    HW1 1082   0.520   2.198   1.508
  353SOL    HW2 1083   0.357   2.196   1.503
  354SOL     OW 1084   1.603   2.309   0.737
  354SOL    HW1 1085   1.529   2.355   0.687
  354SOL    HW2 1086   1.654   2.377   0.790
  355SOL     OW 1087   0.240   2.953   0.886
  355SOL    HW1 1088   0.254   2.869   0.938
  355SOL    HW2 1089   0.185   3.017   0.941
  356SOL     OW 1090   0.606   2.826   0.123
  356SOL    HW1 1091   0.613   2.910   0.069
  356SOL    HW2 1092   0.652   2.839   0.211
  357SOL     OW 1093   1.594   1.976   1.480
  357SOL    HW1 1094   1.576   2.043   1.408
  357SOL    HW2 1095   1.591   2.022   1.569
  358SOL     OW 1096   0.122   2.505   0.563
  358SOL    HW1 1097   0.077   2.417   0.580
  358SOL    HW2 1098   0.121   2.559   0.647
  359SOL     OW 1099   1.689   2.784   0.612
  359SOL    HW1 1100   1.784   2.755   0.620
  359SOL    HW2 1101   1.681   2.849   0.537
  360SOL     OW 1102   0.113   2.599   1.597
  360SOL    HW1 1103   0.201   2.586   1.642
  360SOL    HW2 1104   0.100   2.696   1.575
  361SOL     OW 1105   0.613   3.227   0.726
  361SOL    HW1 1106   0.564   3.140   0.735
  361SOL    HW2 1107   0.590   3.270   0.639
  362SOL     OW 1108   1.293   3.090   1.423
  362SOL    HW1 1109   1.330   3.017   1.365
  362SOL    HW2 1110   1.345   3.095   1.508
  363SOL     OW 1111   0.809   1.866   0.502
  363SOL    HW1 1112   0.849   1.957   0.493
  363SOL    HW2 1113   0.709   1.874   0.508
  364SOL     OW 1114   0.197   2.838   1.264
  364SOL    HW1 1115   0.286   2.793   1.250
  364SOL    HW2 1116   0.124   2.773   1.245
  365SOL     OW 1117   1.525   2.861   0.190
  365SOL    HW1 1118   1.462   2.785   0.203
  365SOL    HW2 1119   1.573   2.879   0.276
  366SOL     OW 1120   0.317   2.113   1.801
  366SOL    HW1 1121   0.388   2.184   1.807
  366SOL    HW2 1122   0.229   2.152   1.829
  367SOL     OW 1123   0.598   2.591   0.270
  367SOL    HW1 1124   0.622   2.660   0.202
  367SOL    HW2 1125   0.520   2.624   0.324
  368SOL     OW 1126   1.281   2.207   0.944
  368SOL    HW1 1127   1.195   2.157   0.931
  368SOL    HW2 1128   1.343   2.153   1.000
  369SOL     OW 1129   0.807   2.467   1.465
  369SOL    HW1 1130   0.760   2.464   1.554
  369SOL    HW2 1131   0.756   2.412   1.399
  370SOL     OW 1132   1.394   2.331   1.674
  370SOL    HW1 1133   1.374   2.374   1.762
  370SOL    HW2 1134   1.472   2.269   1.683
  371SOL     OW 1135   0.973   2.752   1.572
  371SOL    HW1 1136   1.019   2.668   1.543
  371SOL    HW2 1137   0.917   2.786   1.497
  372SOL     OW 1138   0.991   2.272   1.242
  372SOL    HW1 1139   0.914   2.306   1.296
  372SOL    HW2 1140   0.957   2.221   1.163
  373SOL     OW 1141   1.041   2.563   0.429
  373SOL    HW1 1142   1.067   2.559   0.525
  373SOL    HW2 1143   0.956   2.512   0.415
  374SOL     OW 1144   0.076   2.673   0.789
  374SOL    HW1 1145   0.175   2.661   0.798
  374SOL    HW2 1146   0.052   2.768   0.810
  375SOL     OW 1147   0.865   2.210   0.195
  375SOL    HW1 1148   0.924   2.273   0.146
  375SOL    HW2 1149   0.884   2.116   0.166
  376SOL     OW 1150   1.719   2.447   1.831
  376SOL    HW1 1151   1.693   2.536   1.795
  376SOL    HW2 1152   1.717   2.379   1.758
  377SOL     OW 1153   0.550   2.058   0.885
  377SOL    HW1 1154   0.545   2.053   0.985
  377SOL    HW2 1155   0.552   2.154   0.856
  378SOL     OW 1156   1.795   2.928   0.873
  378SOL    HW1 1157   1.733   2.913   0.797
  378SOL    HW2 1158   1.743   2.939   0.958
  379SOL     OW 1159   0.321   2.805   0.242
  379SOL    HW1 1160   0.403   2.844   0.200
  379SOL    HW2 1161   0.294   2.723   0.193
  380SOL     OW 1162   1.458   2.597   0.728
  380SOL    HW1 1163   1.453   2.532   0.803
  380SOL    HW2 1164   1.538   2.656   0.741
  381SOL     OW 1165   0.202   2.147   1.498
  381SOL    HW1 1166   0.122   2.207   1.485
  381SOL    HW2 1167   0.192   2.098   1.584
  382SOL     OW 1168   1.400   1.969   0.426
  382SOL    HW1 1169   1.376   1.932   0.336
  382SOL    HW2 1170   1.499   1.985   0.430
  383SOL     OW 1171   0.382   2.562   0.480
  383SOL    HW1 1172   0.427   2.472   0.477
  383SOL    HW2 1173   0.288   2.551   0.513
  384SOL     OW 1174   0.614   1.984   0.117
  384SOL    HW1 1175   0.712   1.962   0.124
  384SOL    HW2 1176   0.583   1.967   0.024
  385SOL     OW 1177   0.781   2.126   1.749
  385SOL    HW1 1178   0.848   2.065   1.792
  385SOL    HW2 1179   0.708   2.145   1.814
  386SOL     OW 1180   1.351   2.452   1.433
  386SOL    HW1 1181   1.379   2.409   1.518
  386SOL    HW2 1182   1.376   2.548   1.434
  387SOL     OW 1183   0.922   2.365   0.899
  387SOL    HW1 1184   0.897   2.356   0.803
  387SOL    HW2 1185   0.970   2.283   0.930
  388SOL     OW 1186   0.539   1.926   0.512
  388SOL    HW1 1187   0.458   1.927   0.570
  388SOL    HW2 1188   0.542   2.009   0.457
  389SOL     OW 1189   0.297   1.897   0.171
  389SOL    HW1 1190   0.346   1.981   0.150
  389SOL    HW2 1191   0.359   1.832   0.216
  390SOL     OW 1192   0.935   2.098   0.480
  390SOL    HW1 1193   0.887   2.139   0.402
  390SOL    HW2 1194   1.034   2.096   0.461
  391SOL     OW 1195   1.076   2.545   1.464
  391SOL    HW1 1196   0.996   2.484   1.467
  391SOL    HW2 1197   1.157   2.492   1.440
  392SOL     OW 1198   0.459   3.014   0.741
  392SOL    HW1 1199   0.388   2.987   0.806
  392SOL    HW2 1200   0.433   2.986   0.648
  393SOL     OW 1201   1.032   2.411   0.016
  393SOL    HW1 1202   0.991   2.493  -0.023
  393SOL    HW2 1203   1.096   2.437   0.089
  394SOL     OW 1204   0.078   2.418   1.386
  394SOL    HW1 1205   0.170   2.417   1.345
  394SOL    HW2 1206   0.072   2.492   1.453
  395SOL     OW 1207   0.561   2.084   1.147
  395SOL    HW1 1208   0.599   2.000   1.184
  395SOL    HW2 1209   0.473   2.103   1.191
  396SOL     OW 1210   0.866   2.316   0.642
  396SOL    HW1 1211   0.834   2.388   0.580
  396SOL    HW2 1212   0.890   2.235   0.589
  397SOL     OW 1213   1.017   1.901   0.753
  397SOL    HW1 1214   0.945   1.906   0.684
  397SOL    HW2 1215   0.993   1.832   0.822
  398SOL     OW 1216   1.429   3.035   0.867
  398SOL    HW1 1217   1.374   2.951   0.860
  398SOL    HW2 1218   1.455   3.064   0.775
  399SOL     OW 1219   1.466   2.452   0.992
  399SOL    HW1 1220   1.436   2.357   0.999
  399SOL    HW2 1221   1.539   2.468   1.058
  400SOL     OW 1222   1.857   2.695   0.377
  400SOL    HW1 1223   1.899   2.631   0.441
  400SOL    HW2 1224   1.819   2.644   0.299
  401SOL     OW 1225   1.390   2.437   0.078
  401SOL    HW1 1226   1.336   2.416   0.159
  401SOL    HW2 1227   1.481   2.396   0.087
  402SOL     OW 1228   0.527   2.118   0.328
  402SOL    HW1 1229   0.554   2.059   0.253
  402SOL    HW2 1230   0.527   2.213   0.297
  403SOL     OW 1231   1.754   3.085   1.588
  403SOL    HW1 1232   1.845   3.046   1.575
  403SOL    HW2 1233   1.762   3.181   1.612
  404SOL     OW 1234   1.638   2.961   1.079
  404SOL    HW1 1235   1.643   3.042   1.138
  404SOL    HW2 1236   1.552   2.963   1.028
  405SOL     OW 1237   0.915   1.951   1.402
  405SOL    HW1 1238   0.940   1.931   1.307
  405SOL    HW2 1239   0.987   2.007   1.444
  406SOL     OW 1240   0.705   2.912   0.368
  406SOL    HW1 1241   0.691   2.919   0.467
  406SOL    HW2 1242   0.789   2.861   0.350
  407SOL     OW 1243   0.410   2.675   1.251
  407SOL    HW1 1244   0.496   2.687   1.301
  407SOL    HW2 1245   0.368   2.588   1.278
  408SOL     OW 1246   1.274   2.248   1.262
  408SOL    HW1 1247   1.295   2.322   1.326
  408SOL    HW2 1248   1.185   2.265   1.219
  409SOL     OW 1249   0.367   2.962   0.501
  409SOL    HW1 1250   0.360   3.045   0.445
  409SOL    HW2 1251   0.371   2.882   0.441
  410SOL     OW 1252   0.566   2.399   0.865
  410SOL    HW1 1253   0.578   2.465   0.791
  410SOL    HW2 1254   0.612   2.433   0.948
  411SOL     OW 1255   1.582   2.501   0.472
  411SOL    HW1 1256   1.551   2.562   0.545
  411SOL    HW2 1257   1.632   2.553   0.403
  412SOL     OW 1258   0.402   2.613   1.598
  412SOL    HW1 1259   0.470   2.668   1.551
  412SOL    HW2 1260   0.442   2.525   1.625
  413SOL     OW 1261   1.587   2.641   1.670
  413SOL    HW1 1262   1.495   2.679   1.665
  413SOL    HW2 1263   1.647   2.688   1.605
  414SOL     OW 1264   1.013   1.967   1.770
  414SOL    HW1 1265   1.019   2.052   1.718
  414SOL    HW2 1266   1.045   1.891   1.713
  415SOL     OW 1267   0.504   1.912   1.740
  415SOL    HW1 1268   0.462   1.855   1.670
  415SOL    HW2 1269   0.438   1.981   1.772
  416SOL     OW 1270   0.573   2.732   1.029
  416SOL    HW1 1271   0.617   2.821   1.020
  416SOL    HW2 1272   0.510   2.732   1.106
  417SOL     OW 1273   1.360   2.724   1.045
  417SOL    HW1 1274   1.285   2.724   0.979
  417SOL    HW2 1275   1.397   2.632   1.054
  418SOL     OW 1276   1.209   2.387   0.275
  418SOL    HW1 1277   1.222   2.303   0.329
  418SOL    HW2 1278   1.180   2.461   0.335
  419SOL     OW 1279   0.307   2.075   1.231
  419SOL    HW1 1280   0.284   2.112   1.321
  419SOL    HW2 1281   0.277   1.980   1.225
  420SOL     OW 1282   0.037   3.172   1.282
  420SOL    HW1 1283   0.090   3.123   1.350
  420SOL    HW2 1284   0.059   3.270   1.287
  421SOL     OW 1285   0.732   2.496   1.064
  421SOL    HW1 1286   0.791   2.470   0.988
  421SOL    HW2 1287   0.704   2.592   1.053
  422SOL     OW 1288   1.728   2.797   1.854
  422SOL    HW1 1289   1.682   2.790   1.765
  422SOL    HW2 1290   1.666   2.841   1.920
  423SOL     OW 1291   0.307   1.925   0.618
  423SOL    HW1 1292   0.296   2.019   0.651
  423SOL    HW2 1293   0.302   1.862   0.695
  424SOL     OW 1294   1.622   2.229   0.374
  424SOL    HW1 1295   1.624   2.153   0.438
  424SOL    HW2 1296   1.574   2.306   0.414
  425SOL     OW 1297   1.023   2.628   0.966
  425SOL    HW1 1298   1.038   2.649   1.062
  425SOL    HW2 1299   0.993   2.533   0.957
  426SOL     OW 1300   0.350   2.760   1.804
  426SOL    HW1 1301   0.426   2.804   1.852
  426SOL    HW2 1302   0.385   2.713   1.722
  427SOL     OW 1303   1.540   2.136   0.125
  427SOL    HW1 1304   1.479   2.061   0.148
  427SOL    HW2 1305   1.562   2.188   0.208
  428SOL     OW 1306   1.303   2.700   0.042
  428SOL    HW1 1307   1.337   2.607   0.057
  428SOL    HW2 1308   1.321   2.727  -0.053
  429SOL     OW 1309   0.319   2.672   0.949
  429SOL    HW1 1310   0.412   2.708   0.954
  429SOL    HW2 1311   0.313   2.587   1.001
  430SOL     OW 1312   0.339   2.371   1.006
  430SOL    HW1 1313   0.287   2.288   0.989
  430SOL    HW2 1314   0.416   2.376   0.942
  431SOL     OW 1315   1.138   2.242   1.678
  431SOL    HW1 1316   1.093   2.305   1.742
  431SOL    HW2 1317   1.231   2.273   1.661
  432SOL     OW 1318   1.160   2.069   1.477
  432SOL    HW1 1319   1.160   2.133   1.554
  432SOL    HW2 1320   1.188   2.117   1.394
  433SOL     OW 1321   1.002   2.658   1.238
  433SOL    HW1 1322   1.043   2.626   1.324
  433SOL    HW2 1323   0.906   2.631   1.235
  434SOL     OW 1324   0.040   2.406   1.114
  434SOL    HW1 1325   0.125   2.373   1.073
  434SOL    HW2 1326   0.053   2.421   1.212
  435SOL     OW 1327   0.189   2.382   1.722
  435SOL    HW1 1328   0.248   2.342   1.652
  435SOL    HW2 1329   0.131   2.453   1.681
  436SOL     OW 1330   1.369   2.812   1.660
  436SOL    HW1 1331   1.408   2.901   1.680
  436SOL    HW2 1332   1.379   2.792   1.563
  437SOL     OW 1333   0.815   2.434   0.325
  437SOL    HW1 1334   0.822   2.345   0.279
  437SOL    HW2 1335   0.721   2.468   0.317
  438SOL     OW 1336   1.657   2.466   1.206
  438SOL    HW1 1337   1.619   2.397   1.268
  438SOL    HW2 1338   1.739   2.430   1.162
  439SOL     OW 1339   0.671   2.326   1.269
  439SOL    HW1 1340   0.637   2.237   1.239
  439SOL    HW2 1341   0.697   2.380   1.189
  440SOL     OW 1342   0.473   2.362   0.191
  440SOL    HW1 1343   0.534   2.442   0.195
  440SOL    HW2 1344   0.378   2.393   0.198
  441SOL     OW 1345   0.159   2.999   1.466
  441SOL    HW1 1346   0.181   2.938   1.542
  441SOL    HW2 1347   0.169   2.950   1.380
  442SOL     OW 1348   1.347   2.921   1.234
  442SOL    HW1 1349   1.371   2.858   1.160
  442SOL    HW2 1350   1.257   2.961   1.216
  443SOL     OW 1351   1.302   2.717   0.309
  443SOL    HW1 1352   1.216   2.686   0.351
  443SOL    HW2 1353   1.298   2.703   0.210
  444SOL     OW 1354   0.083   3.120   1.022
  444SOL    HW1 1355   0.078   3.119   1.122
  444SOL    HW2 1356   0.000   3.079   0.984
  445SOL     OW 1357   0.903   1.948   0.133
  445SOL    HW1 1358   0.954   1.949   0.047
  445SOL    HW2 1359   0.959   1.906   0.204
  446SOL     OW 1360   1.726   1.997   0.523
  446SOL    HW1 1361   1.799   1.980   0.456
  446SOL    HW2 1362   1.695   1.910   0.561
  447SOL     OW 1363   1.280   2.789   0.672
  447SOL    HW1 1364   1.340   2.708   0.674
  447SOL    HW2 1365   1.320   2.858   0.612
  448SOL     OW 1366   1.841   2.037   0.963
  448SOL    HW1 1367   1.880   1.952   0.927
  448SOL    HW2 1368   1.743   2.039   0.944
  449SOL     OW 1369   0.263   2.188   0.720
  449SOL    HW1 1370   0.184   2.239   0.686
  449SOL    HW2 1371   0.254   2.173   0.818
  450SOL     OW 1372   0.822   2.864   1.372
  450SOL    HW1 1373   0.862   2.863   1.280
  450SOL    HW2 1374   0.832   2.956   1.412
  451SOL     OW 1375   0.916   2.772   0.291
  451SOL    HW1 1376   0.979   2.810   0.223
  451SOL    HW2 1377   0.956   2.689   0.330
  452SOL     OW 1378   0.372   3.150   1.490
  452SOL    HW1 1379   0.359   3.243   1.456
  452SOL    HW2 1380   0.288   3.098   1.477
  453SOL     OW 1381   1.014   2.098   0.971
  453SOL    HW1 1382   1.006   2.062   0.878
  453SOL    HW2 1383   1.012   2.022   1.036
  454SOL     OW 1384   1.709   2.247   1.381
  454SOL    HW1 1385   1.782   2.316   1.385
  454SOL    HW2 1386   1.737   2.172   1.322
  455SOL     OW 1387   0.105   2.875   1.726
  455SOL    HW1 1388   0.028   2.842   1.780
  455SOL    HW2 1389   0.190   2.845   1.768
  456SOL     OW 1390   0.672   2.065   1.489
  456SOL    HW1 1391   0.762   2.049   1.449
  456SOL    HW2 1392   0.680   2.070   1.588
  457SOL     OW 1393   0.075   2.207   0.033
  457SOL    HW1 1394  -0.017   2.179   0.004
  457SOL    HW2 1395   0.106   2.284  -0.023
  458SOL     OW 1396   1.440   2.718   1.398
  458SOL    HW1 1397   1.383   2.770   1.335
  458SOL    HW2 1398   1.536   2.730   1.374
  459SOL     OW 1399   0.072   2.028   0.318
  459SOL    HW1 1400   0.055   2.111   0.264
  459SOL    HW2 1401   0.162   1.991   0.296
  460SOL     OW 1402   0.613   2.704   1.431
  460SOL    HW1 1403   0.669   2.785   1.414
  460SOL    HW2 1404   0.672   2.624   1.434
  461SOL     OW 1405   0.716   2.427   1.708
  461SOL    HW1 1406   0.735   2.492   1.782
  461SOL    HW2 1407   0.776   2.347   1.717
  462SOL     OW 1408   1.450   3.082   1.633
  462SOL    HW1 1409   1.441   3.072   1.732
  462SOL    HW2 1410   1.546   3.075   1.607
  463SOL     OW 1411   1.674   2.745   1.254
  463SOL    HW1 1412   1.647   2.656   1.217
  463SOL    HW2 1413   1.675   2.813   1.181
  464SOL     OW 1414   1.225   2.187   0.449
  464SOL    HW1 1415   1.290   2.113   0.438
  464SOL    HW2 1416   1.245   2.237   0.533
  465SOL     OW 1417   0.594   2.607   0.652
  465SOL    HW1 1418   0.644   2.692   0.633
  465SOL    HW2 1419   0.506   2.609   0.604
  466SOL     OW 1420   1.777   2.204   1.642
  466SOL    HW1 1421   1.760   2.235   1.548
  466SOL    HW2 1422   1.693   2.167   1.680
  467SOL     OW 1423   1.730   2.796   1.517
  467SOL    HW1 1424   1.768   2.887   1.532
  467SOL    HW2 1425   1.722   2.779   1.418
  468SOL     OW 1426   0.859   2.818   0.861
  468SOL    HW1 1427   0.913   2.749   0.909
  468SOL    HW2 1428   0.827   2.887   0.927
  469SOL     OW 1429   1.083   2.846   0.087
  469SOL    HW1 1430   1.060   2.899   0.005
  469SOL    HW2 1431   1.164   2.790   0.068
  470SOL     OW 1432   0.079   3.102   0.653
  470SOL    HW1 1433   0.078   3.055   0.741
  470SOL    HW2 1434   0.161   3.074   0.602
  471SOL     OW 1435   1.824   2.054   1.227
  471SOL    HW1 1436   1.820   1.964   1.271
  471SOL    HW2 1437   1.827   2.043   1.128
  472SOL     OW 1438   0.428   2.286   0.520
  472SOL    HW1 1439   0.458   2.214   0.458
  472SOL    HW2 1440   0.389   2.246   0.603
  473SOL     OW 1441   0.317   2.409   1.280
  473SOL    HW1 1442   0.355   2.350   1.352
  473SOL    HW2 1443   0.357   2.383   1.192
  474SOL     OW 1444   1.424   2.076   1.112
  474SOL    HW1 1445   1.476   2.011   1.167
  474SOL    HW2 1446   1.375   2.139   1.173
  475SOL     OW 1447   1.001   1.896   1.154
  475SOL    HW1 1448   0.938   1.824   1.123
  475SOL    HW2 1449   1.094   1.860   1.154
  476SOL     OW 1450   0.770   3.192   0.301
  476SOL    HW1 1451   0.724   3.105   0.318
  476SOL    HW2 1452   0.861   3.189   0.342
  477SOL     OW 1453   1.352   1.914   0.168
  477SOL    HW1 1454   1.387   1.873   0.084
  477SOL    HW2 1455   1.262   1.876   0.188
  478SOL     OW 1456   1.300   2.315   0.691
  478SOL    HW1 1457   1.241   2.395   0.695
  478SOL    HW2 1458   1.315   2.280   0.784
  479SOL     OW 1459   1.593   2.083   0.882
  479SOL    HW1 1460   1.509   2.082   0.936
  479SOL    HW2 1461   1.595   2.166   0.826
  480SOL     OW 1462   0.039   2.939   0.300
  480SOL    HW1 1463   0.138   2.928   0.291
  480SOL    HW2 1464  -0.001   2.853   0.332
  481SOL     OW 1465   0.230   2.490   1.975
  481SOL    HW1 1466   0.137   2.488   2.012
  481SOL    HW2 1467   0.231   2.451   1.883
  482SOL     OW 1468   0.225   2.137   2.858
  482SOL    HW1 1469   0.260   2.120   2.950
  482SOL    HW2 1470   0.137   2.092   2.846
  483SOL     OW 1471   0.019   2.230   2.509
  483SOL    HW1 1472  -0.063   2.273   2.548
  483SOL    HW2 1473  -0.009   2.157   2.446
  484SOL     OW 1474   1.135   2.565   2.579
  484SOL    HW1 1475   1.192   2.643   2.554
  484SOL    HW2 1476   1.075   2.591   2.655
  485SOL     OW 1477   1.755   2.469   2.093
  485SOL    HW1 1478   1.743   2.456   1.994
  485SOL    HW2 1479   1.725   2.388   2.142
  486SOL     OW 1480   0.768   3.006   2.885
  486SOL    HW1 1481   0.690   3.023   2.945
  486SOL    HW2 1482   0.802   3.093   2.849
  487SOL     OW 1483   0.685   2.874   2.527
  487SOL    HW1 1484   0.754   2.858   2.597
  487SOL    HW2 1485   0.612   2.931   2.565
  488SOL     OW 1486   1.603   2.309   2.599
  488SOL    HW1 1487   1.529   2.355   2.549
  488SOL    HW2 1488   1.654   2.377   2.652
  489SOL     OW 1489   0.240   2.953   2.748
  489SOL    HW1 1490   0.254   2.869   2.800
  489SOL    HW2 1491   0.185   3.017   2.803
  490SOL     OW 1492   0.606   2.826   1.985
  490SOL    HW1 1493   0.613   2.910   1.931
  490SOL    HW2 1494   0.652   2.839   2.073
  491SOL     OW 1495   0.122   2.505   2.425
  491SOL    HW1 1496   0.077   2.417   2.442
  491SOL    HW2 1497   0.121   2.559   2.509
  492SOL     OW 1498   1.689   2.784   2.474
  492SOL    HW1 1499   1.784   2.755   2.482
  492SOL    HW2 1500   1.681   2.849   2.399
  493SOL     OW 1501   0.613   3.227   2.588
  493SOL    HW1 1502   0.564   3.140   2.597
  493SOL    HW2 1503   0.590   3.270   2.501
  494SOL     OW 1504   0.809   1.866   2.364
  494SOL    HW1 1505   0.849   1.957   2.355
  494SOL    HW2 1506   0.709   1.874   2.370
  495SOL     OW 1507   0.197   2.838   3.126
  495SOL    HW1 1508   0.286   2.793   3.112
  495SOL    HW2 1509   0.124   2.773   3.107
  496SOL     OW 1510   1.525   2.861   2.052
  496SOL    HW1 1511   1.462   2.785   2.065
  496SOL    HW2 1512   1.573   2.879   2.138
  497SOL     OW 1513   0.598   2.591   2.132
  497SOL    HW1 1514   0.622   2.660   2.064
  497SOL    HW2 1515   0.520   2.624   2.186
  498SOL     OW 1516   1.281   2.207   2.806
  498SOL    HW1 1517   1.195   2.157   2.793
  498SOL    HW2 1518   1.343   2.153   2.862
  499SOL     OW 1519   1.041   2.563   2.291
  499SOL    HW1 1520   1.067   2.559   2.387
  499SOL    HW2 1521   0.956   2.512   2.277
  500SOL     OW 1522   0.076   2.673   2.651
  500SOL    HW1 1523   0.175   2.661   2.660
  500SOL    HW2 1524   0.052   2.768   2.672
  501SOL     OW 1525   0.865   2.210   2.057
  501SOL    HW1 1526   0.924   2.273   2.008
  501SOL    HW2 1527   0.884   2.116   2.028
  502SOL     OW 1528   0.550   2.058   2.747
  502SOL    HW1 1529   0.545   2.053   2.847
  502SOL    HW2 1530   0.552   2.154   2.718
  503SOL     OW 1531   1.795   2.928   2.735
  503SOL    HW1 1532   1.733   2.913   2.659
  503SOL    HW2 1533   1.743   2.939   2.820
  504SOL     OW 1534   0.321   2.805   2.104
  504SOL    HW1 1535   0.403   2.844   2.062
  504SOL    HW2 1536   0.294   2.723   2.055
  505SOL     OW 1537   1.458   2.597   2.590
  505SOL    HW1 1538   1.453   2.532   2.665
  505SOL    HW2 1539   1.538   2.656   2.603
  506SOL     OW 1540   1.400   1.969   2.288
  506SOL    HW1 1541   1.376   1.932   2.198
  506SOL    HW2 1542   1.499   1.985   2.292
  507SOL     OW 1543   0.382   2.562   2.342
  507SOL    HW1 1544   0.427   2.472   2.339
  507SOL    HW2 1545   0.288   2.551   2.375
  508SOL     OW 1546   0.614   1.984   1.979
  508SOL    HW1 1547   0.712   1.962   1.986
  508SOL    HW2 1548   0.583   1.967   1.886
  509SOL     OW 1549   0.888   3.376   3.057
  509SOL    HW1 1550   0.865   3.351   2.963
  509SOL    HW2 1551   0.949   3.307   3.096
  510SOL     OW 1552   0.922   2.365   2.761
  510SOL    HW1 1553   0.897   2.356   2.665
  510SOL    HW2 1554   0.970   2.283   2.792
  511SOL     OW 1555   0.539   1.926   2.374
  511SOL    HW1 1556   0.458   1.927   2.432
  511SOL    HW2 1557   0.542   2.009   2.319
  512SOL     OW 1558   0.297   1.897   2.033
  512SOL    HW1 1559   0.346   1.981   2.012
  512SOL    HW2 1560   0.359   1.832   2.078
  513SOL     OW 1561   0.935   2.098   2.342
  513SOL    HW1 1562   0.887   2.139   2.264
  513SOL    HW2 1563   1.034   2.096   2.323
  514SOL     OW 1564   0.459   3.014   2.603
  514SOL    HW1 1565   0.388   2.987   2.668
  514SOL    HW2 1566   0.433   2.986   2.510
  515SOL     OW 1567   1.032   2.411   1.878
  515SOL    HW1 1568   0.991   2.493   1.839
  515SOL    HW2 1569   1.096   2.437   1.951
  516SOL     OW 1570   0.866   2.316   2.504
  516SOL    HW1 1571   0.834   2.388   2.442
  516SOL    HW2 1572   0.890   2.235   2.451
  517SOL     OW 1573   1.017   1.901   2.615
  517SOL    HW1 1574   0.945   1.906   2.546
  517SOL    HW2 1575   0.993   1.832   2.684
  518SOL     OW 1576   1.429   3.035   2.729
  518SOL    HW1 1577   1.374   2.951   2.722
  518SOL    HW2 1578   1.455   3.064   2.637
  519SOL     OW 1579   1.466   2.452   2.854
  519SOL    HW1 1580   1.436   2.357   2.861
  519SOL    HW2 1581   1.539   2.468   2.920
  520SOL     OW 1582   1.857   2.695   2.239
  520SOL    HW1 1583   1.899   2.631   2.303
  520SOL    HW2 1584   1.819   2.644   2.161
  521SOL     OW 1585   1.390   2.437   1.940
  521SOL    HW1 1586   1.336   2.416   2.021
  521SOL    HW2 1587   1.481   2.396   1.949
  522SOL     OW 1588   0.527   2.118   2.190
  522SOL    HW1 1589   0.554   2.059   2.115
  522SOL    HW2 1590   0.527   2.213   2.159
  523SOL     OW 1591   1.111   3.057   2.962
  523SOL    HW1 1592   1.071   3.101   3.043
  523SOL    HW2 1593   1.070   3.094   2.879
  524SOL     OW 1594   1.638   2.961   2.941
  524SOL    HW1 1595   1.643   3.042   3.000
  524SOL    HW2 1596   1.552   2.963   2.890
  525SOL     OW 1597   0.705   2.912   2.230
  525SOL    HW1 1598   0.691   2.919   2.329
  525SOL    HW2 1599   0.789   2.861   2.212
  526SOL     OW 1600   0.410   2.675   3.113
  526SOL    HW1 1601   0.496   2.687   3.163
  526SOL    HW2 1602   0.368   2.588   3.140
  527SOL     OW 1603   0.367   2.962   2.363
  527SOL    HW1 1604   0.360   3.045   2.307
  527SOL    HW2 1605   0.371   2.882   2.303
  528SOL     OW 1606   0.566   2.399   2.727
  528SOL    HW1 1607   0.578   2.465   2.653
  528SOL    HW2 1608   0.612   2.433   2.810
  529SOL     OW 1609   1.582   2.501   2.334
  529SOL    HW1 1610   1.551   2.562   2.407
  529SOL    HW2 1611   1.632   2.553   2.265
  530SOL     OW 1612   0.573   2.732   2.891
  530SOL    HW1 1613   0.617   2.821   2.882
  530SOL    HW2 1614   0.510   2.732   2.968
  531SOL     OW 1615   1.209   2.387   2.137
  531SOL    HW1 1616   1.222   2.303   2.191
  531SOL    HW2 1617   1.180   2.461   2.197
  532SOL     OW 1618   0.307   2.075   3.093
  532SOL    HW1 1619   0.284   2.112   3.183
  532SOL    HW2 1620   0.277   1.980   3.087
  533SOL     OW 1621   0.732   2.496   2.926
  533SOL    HW1 1622   0.791   2.470   2.850
  533SOL    HW2 1623   0.704   2.592   2.915
  534SOL     OW 1624   0.307   1.925   2.480
  534SOL    HW1 1625   0.296   2.019   2.513
  534SOL    HW2 1626   0.302   1.862   2.557
  535SOL     OW 1627   1.622   2.229   2.236
  535SOL    HW1 1628   1.624   2.153   2.300
  535SOL    HW2 1629   1.574   2.306   2.276
  536SOL     OW 1630   1.023   2.628   2.828
  536SOL    HW1 1631   1.038   2.649   2.924
  536SOL    HW2 1632   0.993   2.533   2.819
  537SOL     OW 1633   1.540   2.136   1.987
  537SOL    HW1 1634   1.479   2.061   2.010
  537SOL    HW2 1635   1.562   2.188   2.070
  538SOL     OW 1636   1.303   2.700   1.904
  538SOL    HW1 1637   1.337   2.607   1.919
  538SOL    HW2 1638   1.321   2.727   1.809
  539SOL     OW 1639   0.319   2.672   2.811
  539SOL    HW1 1640   0.412   2.708   2.816
  539SOL    HW2 1641   0.313   2.587   2.863
  540SOL     OW 1642   0.339   2.371   2.868
  540SOL    HW1 1643   0.287   2.288   2.851
  540SOL    HW2 1644   0.416   2.376   2.804
  541SOL     OW 1645   1.002   2.658   3.100
  541SOL    HW1 1646   1.043   2.626   3.186
  541SOL    HW2 1647   0.906   2.631   3.097
  542SOL     OW 1648   0.040   2.406   2.976
  542SOL    HW1 1649   0.125   2.373   2.935
  542SOL    HW2 1650   0.053   2.421   3.074
  543SOL     OW 1651   0.815   2.434   2.187
  543SOL    HW1 1652   0.822   2.345   2.141
  543SOL    HW2 1653   0.721   2.468   2.179
  544SOL     OW 1654   1.657   2.466   3.068
  544SOL    HW1 1655   1.619   2.397   3.130
  544SOL    HW2 1656   1.739   2.430   3.024
  545SOL     OW 1657   0.671   2.326   3.131
  545SOL    HW1 1658   0.637   2.237   3.101
  545SOL    HW2 1659   0.697   2.380   3.051
  546SOL     OW 1660   0.473   2.362   2.053
  546SOL    HW1 1661   0.534   2.442   2.057
  546SOL    HW2 1662   0.378   2.393   2.060
  547SOL     OW 1663   1.347   2.921   3.096
  547SOL    HW1 1664   1.371   2.858   3.022
  547SOL    HW2 1665   1.257   2.961   3.078
  548SOL     OW 1666   1.302   2.717   2.171
  548SOL    HW1 1667   1.216   2.686   2.213
  548SOL    HW2 1668   1.298   2.703   2.072
  549SOL     OW 1669   0.083   3.120   2.884
  549SOL    HW1 1670   0.078   3.119   2.984
  549SOL    HW2 1671   0.000   3.079   2.846
  550SOL     OW 1672   1.726   1.997   2.385
  550SOL    HW1 1673   1.799   1.980   2.318
  550SOL    HW2 1674   1.695   1.910   2.423
  551SOL     OW 1675   1.280   2.789   2.534
  551SOL    HW1 1676   1.340   2.708   2.536
  551SOL    HW2 1677   1.320   2.858   2.474
  552SOL     OW 1678   1.841   2.037   2.825
  552SOL    HW1 1679   1.880   1.952   2.789
  552SOL    HW2 1680   1.743   2.039   2.806
  553SOL     OW 1681   0.263   2.188   2.582
  553SOL    HW1 1682   0.184   2.239   2.548
  553SOL    HW2 1683   0.254   2.173   2.680
  554SOL     OW 1684   0.822   2.864   3.234
  554SOL    HW1 1685   0.862   2.863   3.142
  554SOL    HW2 1686   0.832   2.956   3.274
  555SOL     OW 1687   0.916   2.772   2.153
  555SOL    HW1 1688   0.979   2.810   2.085
  555SOL    HW2 1689   0.956   2.689   2.192
  556SOL     OW 1690   1.014   2.098   2.833
  556SOL    HW1 1691   1.006   2.062   2.740
  556SOL    HW2 1692   1.012   2.022   2.898
  557SOL     OW 1693   1.709   2.247   3.243
  557SOL    HW1 1694   1.782   2.316   3.247
  557SOL    HW2 1695   1.737   2.172   3.184
  558SOL     OW 1696   0.075   2.207   1.895
  558SOL    HW1 1697  -0.017   2.179   1.866
  558SOL    HW2 1698   0.106   2.284   1.839
  559SOL     OW 1699   0.072   2.028   2.180
  559SOL    HW1 1700   0.055   2.111   2.126
  559SOL    HW2 1701   0.162   1.991   2.158
  560SOL     OW 1702   1.674   2.745   3.116
  560SOL    HW1 1703   1.647   2.656   3.079
  560SOL    HW2 1704   1.675   2.813   3.043
  561SOL     OW 1705   1.225   2.187   2.311
  561SOL    HW1 1706   1.290   2.113   2.300
  561SOL    HW2 1707   1.245   2.237   2.395
  562SOL     OW 1708   0.594   2.607   2.514
  562SOL    HW1 1709   0.644   2.692   2.495
  562SOL    HW2 1710   0.506   2.609   2.466
  563SOL     OW 1711   1.730   2.796   3.379
  563SOL    HW1 1712   1.768   2.887   3.394
  563SOL    HW2 1713   1.722   2.779   3.280
  564SOL     OW 1714   0.859   2.818   2.723
  564SOL    HW1 1715   0.913   2.749   2.771
  564SOL    HW2 1716   0.827   2.887   2.789
  565SOL     OW 1717   1.083   2.846   1.949
  565SOL    HW1 1718   1.060   2.899   1.867
  565SOL    HW2 1719   1.164   2.790   1.930
  566SOL     OW 1720   0.079   3.102   2.515
  566SOL    HW1 1721   0.078   3.055   2.603
  566SOL    HW2 1722   0.161   3.074   2.464
  567SOL     OW 1723   1.824   2.054   3.089
  567SOL    HW1 1724   1.820   1.964   3.133
  567SOL    HW2 1725   1.827   2.043   2.990
  568SOL     OW 1726   0.428   2.286   2.382
  568SOL    HW1 1727   0.458   2.214   2.320
  568SOL    HW2 1728   0.389   2.246   2.465
  569SOL     OW 1729   1.424   2.076   2.974
  569SOL    HW1 1730   1.476   2.011   3.029
  569SOL    HW2 1731   1.375   2.139   3.035
  570SOL     OW 1732   0.770   3.192   2.163
  570SOL    HW1 1733   0.724   3.105   2.180
  570SOL    HW2 1734   0.861   3.189   2.204
  571SOL     OW 1735   1.300   2.315   2.553
  571SOL    HW1 1736   1.241   2.395   2.557
  571SOL    HW2 1737   1.315   2.280   2.646
  572SOL     OW 1738   1.593   2.083   2.744
  572SOL    HW1 1739   1.509   2.082   2.798
  572SOL    HW2 1740   1.595   2.166   2.688
  573SOL     OW 1741   0.039   2.939   2.162
  573SOL    HW1 1742   0.138   2.928   2.153
  573SOL    HW2 1743  -0.001   2.853   2.194
  574SOL     OW 1744   2.092   0.628   0.113
  574SOL    HW1 1745   1.999   0.626   0.150
  574SOL    HW2 1746   2.093   0.589   0.021
  575SOL     OW 1747   2.087   0.275   0.996
  575SOL    HW1 1748   2.122   0.258   1.088
  575SOL    HW2 1749   1.999   0.230   0.984
  576SOL     OW 1750   1.881   0.368   0.647
  576SOL    HW1 1751   1.799   0.411   0.686
  576SOL    HW2 1752   1.853   0.295   0.584
  577SOL     OW 1753   2.431   1.275   1.165
  577SOL    HW1 1754   2.338   1.268   1.128
  577SOL    HW2 1755   2.442   1.364   1.209
  578SOL     OW 1756   2.630   1.144   1.023
  578SOL    HW1 1757   2.552   1.161   1.083
  578SOL    HW2 1758   2.664   1.231   0.987
  579SOL     OW 1759   2.712   0.798   1.823
  579SOL    HW1 1760   2.708   0.874   1.888
  579SOL    HW2 1761   2.734   0.834   1.732
  580SOL     OW 1762   2.547   1.012   0.665
  580SOL    HW1 1763   2.616   0.996   0.735
  580SOL    HW2 1764   2.474   1.069   0.703
  581SOL     OW 1765   2.548   1.161   1.803
  581SOL    HW1 1766   2.608   1.240   1.817
  581SOL    HW2 1767   2.462   1.192   1.762
  582SOL     OW 1768   2.197   1.435   1.061
  582SOL    HW1 1769   2.119   1.404   1.008
  582SOL    HW2 1770   2.255   1.493   1.004
  583SOL     OW 1771   2.300   0.392   1.499
  583SOL    HW1 1772   2.382   0.336   1.508
  583SOL    HW2 1773   2.219   0.334   1.503
  584SOL     OW 1774   2.093   1.713   0.483
  584SOL    HW1 1775   2.127   1.790   0.537
  584SOL    HW2 1776   2.137   1.713   0.393
  585SOL     OW 1777   2.989   1.341   1.690
  585SOL    HW1 1778   3.036   1.341   1.778
  585SOL    HW2 1779   2.941   1.254   1.679
  586SOL     OW 1780   2.092   1.434   0.538
  586SOL    HW1 1781   2.066   1.530   0.538
  586SOL    HW2 1782   2.021   1.380   0.583
  587SOL     OW 1783   2.102   1.091   0.886
  587SOL    HW1 1784   2.116   1.007   0.938
  587SOL    HW2 1785   2.047   1.155   0.941
  588SOL     OW 1786   2.482   1.786   1.439
  588SOL    HW1 1787   2.390   1.769   1.474
  588SOL    HW2 1788   2.510   1.878   1.465
  589SOL     OW 1789   2.468   0.964   0.123
  589SOL    HW1 1790   2.475   1.048   0.069
  589SOL    HW2 1791   2.514   0.977   0.211
  590SOL     OW 1792   1.984   0.643   0.563
  590SOL    HW1 1793   1.939   0.555   0.580
  590SOL    HW2 1794   1.983   0.697   0.647
  591SOL     OW 1795   1.889   1.596   0.117
  591SOL    HW1 1796   1.870   1.500   0.138
  591SOL    HW2 1797   1.856   1.654   0.192
  592SOL     OW 1798   1.975   0.737   1.597
  592SOL    HW1 1799   2.063   0.724   1.642
  592SOL    HW2 1800   1.962   0.834   1.575
  593SOL     OW 1801   2.475   1.365   0.726
  593SOL    HW1 1802   2.426   1.278   0.735
  593SOL    HW2 1803   2.452   1.408   0.639
  594SOL     OW 1804   2.671   0.004   0.502
  594SOL    HW1 1805   2.711   0.095   0.493
  594SOL    HW2 1806   2.571   0.012   0.508
  595SOL     OW 1807   2.059   0.976   1.264
  595SOL    HW1 1808   2.148   0.931   1.250
  595SOL    HW2 1809   1.986   0.911   1.245
  596SOL     OW 1810   2.179   0.251   1.801
  596SOL    HW1 1811   2.250   0.322   1.807
  596SOL    HW2 1812   2.091   0.290   1.829
  597SOL     OW 1813   2.460   0.729   0.270
  597SOL    HW1 1814   2.484   0.798   0.202
  597SOL    HW2 1815   2.382   0.762   0.324
  598SOL     OW 1816   2.669   0.605   1.465
  598SOL    HW1 1817   2.622   0.602   1.554
  598SOL    HW2 1818   2.618   0.550   1.399
  599SOL     OW 1819   2.835   0.890   1.572
  599SOL    HW1 1820   2.881   0.806   1.543
  599SOL    HW2 1821   2.779   0.924   1.497
  600SOL     OW 1822   2.853   0.410   1.242
  600SOL    HW1 1823   2.776   0.444   1.296
  600SOL    HW2 1824   2.819   0.359   1.163
  601SOL     OW 1825   2.903   0.701   0.429
  601SOL    HW1 1826   2.929   0.697   0.525
  601SOL    HW2 1827   2.818   0.650   0.415
  602SOL     OW 1828   1.938   0.811   0.789
  602SOL    HW1 1829   2.037   0.799   0.798
  602SOL    HW2 1830   1.914   0.906   0.810
  603SOL     OW 1831   1.992   1.821   1.571
  603SOL    HW1 1832   1.982   1.806   1.670
  603SOL    HW2 1833   1.906   1.857   1.535
  604SOL     OW 1834   2.727   0.348   0.195
  604SOL    HW1 1835   2.786   0.411   0.146
  604SOL    HW2 1836   2.746   0.254   0.166
  605SOL     OW 1837   2.412   0.196   0.885
  605SOL    HW1 1838   2.407   0.191   0.985
  605SOL    HW2 1839   2.414   0.292   0.856
  606SOL     OW 1840   2.870   1.456   0.477
  606SOL    HW1 1841   2.824   1.528   0.425
  606SOL    HW2 1842   2.866   1.476   0.575
  607SOL     OW 1843   2.213   1.801   0.853
  607SOL    HW1 1844   2.263   1.715   0.859
  607SOL    HW2 1845   2.278   1.878   0.850
  608SOL     OW 1846   2.183   0.943   0.242
  608SOL    HW1 1847   2.265   0.982   0.200
  608SOL    HW2 1848   2.156   0.861   0.193
  609SOL     OW 1849   2.323   1.266   1.727
  609SOL    HW1 1850   2.273   1.267   1.641
  609SOL    HW2 1851   2.260   1.248   1.803
  610SOL     OW 1852   2.064   0.285   1.498
  610SOL    HW1 1853   1.984   0.345   1.485
  610SOL    HW2 1854   2.054   0.236   1.584
  611SOL     OW 1855   2.326   1.743   0.323
  611SOL    HW1 1856   2.359   1.782   0.409
  611SOL    HW2 1857   2.402   1.736   0.258
  612SOL     OW 1858   2.111   1.785   1.241
  612SOL    HW1 1859   2.168   1.720   1.291
  612SOL    HW2 1860   2.095   1.752   1.148
  613SOL     OW 1861   2.802   1.698   0.904
  613SOL    HW1 1862   2.882   1.641   0.925
  613SOL    HW2 1863   2.753   1.658   0.827
  614SOL     OW 1864   2.244   0.700   0.480
  614SOL    HW1 1865   2.289   0.610   0.477
  614SOL    HW2 1866   2.150   0.689   0.513
  615SOL     OW 1867   2.476   0.122   0.117
  615SOL    HW1 1868   2.574   0.100   0.124
  615SOL    HW2 1869   2.445   0.105   0.024
  616SOL     OW 1870   2.643   0.264   1.749
  616SOL    HW1 1871   2.710   0.203   1.792
  616SOL    HW2 1872   2.570   0.283   1.814
  617SOL     OW 1873   2.750   1.514   1.195
  617SOL    HW1 1874   2.727   1.489   1.101
  617SOL    HW2 1875   2.811   1.445   1.234
  618SOL     OW 1876   2.665   1.402   0.924
  618SOL    HW1 1877   2.755   1.416   0.882
  618SOL    HW2 1878   2.594   1.404   0.853
  619SOL     OW 1879   2.784   0.503   0.899
  619SOL    HW1 1880   2.759   0.494   0.803
  619SOL    HW2 1881   2.832   0.421   0.930
  620SOL     OW 1882   2.401   0.064   0.512
  620SOL    HW1 1883   2.320   0.065   0.570
  620SOL    HW2 1884   2.404   0.147   0.457
  621SOL     OW 1885   2.159   0.035   0.171
  621SOL    HW1 1886   2.208   0.119   0.150
  621SOL    HW2 1887   2.221  -0.030   0.216
  622SOL     OW 1888   2.797   0.236   0.480
  622SOL    HW1 1889   2.749   0.277   0.402
  622SOL    HW2 1890   2.896   0.234   0.461
  623SOL     OW 1891   3.089   1.570   0.793
  623SOL    HW1 1892   3.110   1.644   0.728
  623SOL    HW2 1893   3.157   1.570   0.866
  624SOL     OW 1894   2.321   1.152   0.741
  624SOL    HW1 1895   2.250   1.125   0.806
  624SOL    HW2 1896   2.295   1.124   0.648
  625SOL     OW 1897   3.133   1.797   0.591
  625SOL    HW1 1898   3.177   1.861   0.527
  625SOL    HW2 1899   3.083   1.849   0.661
  626SOL     OW 1900   2.894   0.549   0.016
  626SOL    HW1 1901   2.853   0.631  -0.023
  626SOL    HW2 1902   2.958   0.575   0.089
  627SOL     OW 1903   1.940   0.556   1.386
  627SOL    HW1 1904   2.032   0.555   1.345
  627SOL    HW2 1905   1.934   0.630   1.453
  628SOL     OW 1906   2.423   0.222   1.147
  628SOL    HW1 1907   2.461   0.138   1.184
  628SOL    HW2 1908   2.335   0.241   1.191
  629SOL     OW 1909   2.728   0.454   0.642
  629SOL    HW1 1910   2.696   0.526   0.580
  629SOL    HW2 1911   2.752   0.373   0.589
  630SOL     OW 1912   2.879   0.039   0.753
  630SOL    HW1 1913   2.807   0.044   0.684
  630SOL    HW2 1914   2.855  -0.030   0.822
  631SOL     OW 1915   2.350   1.385   0.174
  631SOL    HW1 1916   2.263   1.370   0.221
  631SOL    HW2 1917   2.333   1.411   0.079
  632SOL     OW 1918   2.389   0.256   0.328
  632SOL    HW1 1919   2.416   0.197   0.253
  632SOL    HW2 1920   2.389   0.351   0.297
  633SOL     OW 1921   2.777   0.089   1.402
  633SOL    HW1 1922   2.802   0.069   1.307
  633SOL    HW2 1923   2.849   0.145   1.444
  634SOL     OW 1924   2.842   1.116   1.719
  634SOL    HW1 1925   2.743   1.122   1.729
  634SOL    HW2 1926   2.865   1.036   1.663
  635SOL     OW 1927   2.567   1.050   0.368
  635SOL    HW1 1928   2.553   1.057   0.467
  635SOL    HW2 1929   2.651   0.999   0.350
  636SOL     OW 1930   2.272   0.813   1.251
  636SOL    HW1 1931   2.358   0.825   1.301
  636SOL    HW2 1932   2.230   0.726   1.278
  637SOL     OW 1933   1.926   1.564   1.331
  637SOL    HW1 1934   1.880   1.646   1.297
  637SOL    HW2 1935   2.024   1.583   1.340
  638SOL     OW 1936   2.229   1.100   0.501
  638SOL    HW1 1937   2.222   1.183   0.445
  638SOL    HW2 1938   2.233   1.020   0.441
  639SOL     OW 1939   2.428   0.537   0.865
  639SOL    HW1 1940   2.440   0.603   0.791
  639SOL    HW2 1941   2.474   0.571   0.948
  640SOL     OW 1942   3.114   1.348   0.388
  640SOL    HW1 1943   3.164   1.425   0.428
  640SOL    HW2 1944   3.019   1.350   0.420
  641SOL     OW 1945   2.216   1.510   1.329
  641SOL    HW1 1946   2.195   1.466   1.242
  641SOL    HW2 1947   2.313   1.536   1.332
  642SOL     OW 1948   2.264   0.751   1.598
  642SOL    HW1 1949   2.332   0.806   1.551
  642SOL    HW2 1950   2.304   0.663   1.625
  643SOL     OW 1951   2.875   0.105   1.770
  643SOL    HW1 1952   2.881   0.190   1.718
  643SOL    HW2 1953   2.907   0.029   1.713
  644SOL     OW 1954   2.366   0.050   1.740
  644SOL    HW1 1955   2.324  -0.007   1.670
  644SOL    HW2 1956   2.300   0.119   1.772
  645SOL     OW 1957   2.435   0.870   1.029
  645SOL    HW1 1958   2.479   0.959   1.020
  645SOL    HW2 1959   2.372   0.870   1.106
  646SOL     OW 1960   3.222   0.862   1.045
  646SOL    HW1 1961   3.147   0.862   0.979
  646SOL    HW2 1962   3.259   0.770   1.054
  647SOL     OW 1963   3.071   0.525   0.275
  647SOL    HW1 1964   3.084   0.441   0.329
  647SOL    HW2 1965   3.042   0.599   0.335
  648SOL     OW 1966   2.169   0.213   1.231
  648SOL    HW1 1967   2.146   0.250   1.321
  648SOL    HW2 1968   2.139   0.118   1.225
  649SOL     OW 1969   1.899   1.310   1.282
  649SOL    HW1 1970   1.952   1.261   1.350
  649SOL    HW2 1971   1.921   1.408   1.287
  650SOL     OW 1972   2.594   0.634   1.064
  650SOL    HW1 1973   2.653   0.608   0.988
  650SOL    HW2 1974   2.566   0.730   1.053
  651SOL     OW 1975   2.169   0.063   0.618
  651SOL    HW1 1976   2.158   0.157   0.651
  651SOL    HW2 1977   2.164   0.000   0.695
  652SOL     OW 1978   2.885   0.766   0.966
  652SOL    HW1 1979   2.900   0.787   1.062
  652SOL    HW2 1980   2.855   0.671   0.957
  653SOL     OW 1981   2.842   1.573   1.700
  653SOL    HW1 1982   2.822   1.617   1.612
  653SOL    HW2 1983   2.881   1.482   1.684
  654SOL     OW 1984   2.212   0.898   1.804
  654SOL    HW1 1985   2.288   0.942   1.852
  654SOL    HW2 1986   2.247   0.851   1.722
  655SOL     OW 1987   2.930   1.333   0.849
  655SOL    HW1 1988   2.937   1.249   0.794
  655SOL    HW2 1989   2.992   1.402   0.813
  656SOL     OW 1990   2.181   0.810   0.949
  656SOL    HW1 1991   2.274   0.846   0.954
  656SOL    HW2 1992   2.175   0.725   1.001
  657SOL     OW 1993   2.201   0.509   1.006
  657SOL    HW1 1994   2.149   0.426   0.989
  657SOL    HW2 1995   2.278   0.514   0.942
  658SOL     OW 1996   3.000   0.380   1.678
  658SOL    HW1 1997   2.955   0.443   1.742
  658SOL    HW2 1998   3.093   0.411   1.661
  659SOL     OW 1999   3.022   0.207   1.477
  659SOL    HW1 2000   3.022   0.271   1.554
  659SOL    HW2 2001   3.050   0.255   1.394
  660SOL     OW 2002   1.870   1.326   0.200
  660SOL    HW1 2003   1.777   1.347   0.169
  660SOL    HW2 2004   1.880   1.227   0.213
  661SOL     OW 2005   1.950   1.801   0.927
  661SOL    HW1 2006   1.908   1.715   0.900
  661SOL    HW2 2007   2.044   1.804   0.893
  662SOL     OW 2008   2.366   1.568   0.910
  662SOL    HW1 2009   2.432   1.642   0.919
  662SOL    HW2 2010   2.410   1.489   0.868
  663SOL     OW 2011   2.864   0.796   1.238
  663SOL    HW1 2012   2.905   0.764   1.324
  663SOL    HW2 2013   2.768   0.769   1.235
  664SOL     OW 2014   1.902   0.544   1.114
  664SOL    HW1 2015   1.987   0.511   1.073
  664SOL    HW2 2016   1.915   0.559   1.212
  665SOL     OW 2017   2.051   0.520   1.722
  665SOL    HW1 2018   2.110   0.480   1.652
  665SOL    HW2 2019   1.993   0.591   1.681
  666SOL     OW 2020   2.677   0.572   0.325
  666SOL    HW1 2021   2.684   0.483   0.279
  666SOL    HW2 2022   2.583   0.606   0.317
  667SOL     OW 2023   2.114   1.564   1.744
  667SOL    HW1 2024   2.084   1.621   1.820
  667SOL    HW2 2025   2.107   1.467   1.770
  668SOL     OW 2026   2.533   0.464   1.269
  668SOL    HW1 2027   2.499   0.375   1.239
  668SOL    HW2 2028   2.559   0.518   1.189
  669SOL     OW 2029   2.792   1.678   1.465
  669SOL    HW1 2030   2.768   1.660   1.370
  669SOL    HW2 2031   2.822   1.772   1.475
  670SOL     OW 2032   2.335   0.500   0.191
  670SOL    HW1 2033   2.396   0.580   0.195
  670SOL    HW2 2034   2.240   0.531   0.198
  671SOL     OW 2035   2.021   1.137   1.466
  671SOL    HW1 2036   2.043   1.076   1.542
  671SOL    HW2 2037   2.031   1.088   1.380
  672SOL     OW 2038   3.164   0.855   0.309
  672SOL    HW1 2039   3.078   0.824   0.351
  672SOL    HW2 2040   3.160   0.841   0.210
  673SOL     OW 2041   1.945   1.258   1.022
  673SOL    HW1 2042   1.940   1.257   1.122
  673SOL    HW2 2043   1.862   1.217   0.984
  674SOL     OW 2044   2.550   1.662   1.716
  674SOL    HW1 2045   2.494   1.743   1.725
  674SOL    HW2 2046   2.602   1.666   1.630
  675SOL     OW 2047   2.765   0.086   0.133
  675SOL    HW1 2048   2.816   0.087   0.047
  675SOL    HW2 2049   2.821   0.044   0.204
  676SOL     OW 2050   1.992   1.794   1.851
  676SOL    HW1 2051   1.951   1.720   1.904
  676SOL    HW2 2052   2.056   1.845   1.909
  677SOL     OW 2053   2.692   1.273   1.422
  677SOL    HW1 2054   2.687   1.306   1.517
  677SOL    HW2 2055   2.606   1.292   1.376
  678SOL     OW 2056   2.534   1.616   0.154
  678SOL    HW1 2057   2.543   1.626   0.055
  678SOL    HW2 2058   2.494   1.527   0.175
  679SOL     OW 2059   2.125   0.326   0.720
  679SOL    HW1 2060   2.046   0.377   0.686
  679SOL    HW2 2061   2.116   0.311   0.818
  680SOL     OW 2062   2.684   1.002   1.372
  680SOL    HW1 2063   2.724   1.001   1.280
  680SOL    HW2 2064   2.694   1.094   1.412
  681SOL     OW 2065   2.778   0.910   0.291
  681SOL    HW1 2066   2.841   0.948   0.223
  681SOL    HW2 2067   2.818   0.827   0.330
  682SOL     OW 2068   2.234   1.288   1.490
  682SOL    HW1 2069   2.221   1.381   1.456
  682SOL    HW2 2070   2.150   1.236   1.477
  683SOL     OW 2071   2.901   1.098   0.696
  683SOL    HW1 2072   2.831   1.051   0.750
  683SOL    HW2 2073   2.960   1.030   0.653
  684SOL     OW 2074   2.876   0.236   0.971
  684SOL    HW1 2075   2.868   0.200   0.878
  684SOL    HW2 2076   2.874   0.160   1.036
  685SOL     OW 2077   2.452   1.487   0.491
  685SOL    HW1 2078   2.494   1.429   0.421
  685SOL    HW2 2079   2.408   1.566   0.447
  686SOL     OW 2080   2.117   1.348   0.290
  686SOL    HW1 2081   2.021   1.349   0.263
  686SOL    HW2 2082   2.129   1.401   0.374
  687SOL     OW 2083   1.967   1.013   1.726
  687SOL    HW1 2084   1.890   0.980   1.780
  687SOL    HW2 2085   2.052   0.983   1.768
  688SOL     OW 2086   2.534   0.203   1.489
  688SOL    HW1 2087   2.624   0.187   1.449
  688SOL    HW2 2088   2.542   0.208   1.588
  689SOL     OW 2089   1.934   0.166   0.318
  689SOL    HW1 2090   1.917   0.249   0.264
  689SOL    HW2 2091   2.024   0.129   0.296
  690SOL     OW 2092   2.475   0.842   1.431
  690SOL    HW1 2093   2.531   0.923   1.414
  690SOL    HW2 2094   2.534   0.762   1.434
  691SOL     OW 2095   2.578   0.565   1.708
  691SOL    HW1 2096   2.597   0.630   1.782
  691SOL    HW2 2097   2.638   0.485   1.717
  692SOL     OW 2098   2.252   1.741   1.560
  692SOL    HW1 2099   2.161   1.782   1.558
  692SOL    HW2 2100   2.245   1.647   1.592
  693SOL     OW 2101   2.456   0.745   0.652
  693SOL    HW1 2102   2.506   0.830   0.633
  693SOL    HW2 2103   2.368   0.747   0.604
  694SOL     OW 2104   2.721   1.374   0.016
  694SOL    HW1 2105   2.675   1.389   0.104
  694SOL    HW2 2106   2.765   1.459  -0.014
  695SOL     OW 2107   2.523   1.790   0.953
  695SOL    HW1 2108   2.477   1.878   0.940
  695SOL    HW2 2109   2.622   1.802   0.946
  696SOL     OW 2110   2.721   0.956   0.861
  696SOL    HW1 2111   2.775   0.887   0.909
  696SOL    HW2 2112   2.689   1.025   0.927
  697SOL     OW 2113   2.945   0.984   0.087
  697SOL    HW1 2114   2.922   1.037   0.005
  697SOL    HW2 2115   3.026   0.928   0.068
  698SOL     OW 2116   2.083   1.314   1.844
  698SOL    HW1 2117   2.018   1.241   1.823
  698SOL    HW2 2118   2.087   1.328   1.942
  699SOL     OW 2119   1.941   1.240   0.653
  699SOL    HW1 2120   1.940   1.193   0.741
  699SOL    HW2 2121   2.023   1.212   0.602
  700SOL     OW 2122   2.534   1.391   1.624
  700SOL    HW1 2123   2.456   1.341   1.662
  700SOL    HW2 2124   2.531   1.486   1.655
  701SOL     OW 2125   2.290   0.424   0.520
  701SOL    HW1 2126   2.320   0.352   0.458
  701SOL    HW2 2127   2.251   0.384   0.603
  702SOL     OW 2128   2.179   0.547   1.280
  702SOL    HW1 2129   2.217   0.488   1.352
  702SOL    HW2 2130   2.219   0.521   1.192
  703SOL     OW 2131   2.674   1.586   0.687
  703SOL    HW1 2132   2.706   1.596   0.593
  703SOL    HW2 2133   2.595   1.524   0.689
  704SOL     OW 2134   2.863   0.034   1.154
  704SOL    HW1 2135   2.800  -0.038   1.123
  704SOL    HW2 2136   2.956  -0.002   1.154
  705SOL     OW 2137   2.632   1.330   0.301
  705SOL    HW1 2138   2.586   1.243   0.318
  705SOL    HW2 2139   2.723   1.327   0.342
  706SOL     OW 2140   2.480   1.567   1.284
  706SOL    HW1 2141   2.475   1.649   1.341
  706SOL    HW2 2142   2.569   1.564   1.239
  707SOL     OW 2143   1.901   1.077   0.300
  707SOL    HW1 2144   2.000   1.066   0.291
  707SOL    HW2 2145   1.861   0.991   0.332
  708SOL     OW 2146   2.737   1.646   0.337
  708SOL    HW1 2147   2.660   1.611   0.283
  708SOL    HW2 2148   2.705   1.717   0.399
  709SOL     OW 2149   2.092   0.628   1.975
  709SOL    HW1 2150   1.999   0.626   2.012
  709SOL    HW2 2151   2.093   0.589   1.883
  710SOL     OW 2152   2.087   0.275   2.858
  710SOL    HW1 2153   2.122   0.258   2.950
  710SOL    HW2 2154   1.999   0.230   2.846
  711SOL     OW 2155   1.881   0.368   2.509
  711SOL    HW1 2156   1.799   0.411   2.548
  711SOL    HW2 2157   1.853   0.295   2.446
  712SOL     OW 2158   2.431   1.275   3.027
  712SOL    HW1 2159   2.338   1.268   2.990
  712SOL    HW2 2160   2.442   1.364   3.071
  713SOL     OW 2161   2.630   1.144   2.885
  713SOL    HW1 2162   2.552   1.161   2.945
  713SOL    HW2 2163   2.664   1.231   2.849
  714SOL     OW 2164   2.547   1.012   2.527
  714SOL    HW1 2165   2.616   0.996   2.597
  714SOL    HW2 2166   2.474   1.069   2.565
  715SOL     OW 2167   2.197   1.435   2.923
  715SOL    HW1 2168   2.119   1.404   2.870
  715SOL    HW2 2169   2.255   1.493   2.866
  716SOL     OW 2170   2.093   1.713   2.345
  716SOL    HW1 2171   2.127   1.790   2.399
  716SOL    HW2 2172   2.137   1.713   2.255
  717SOL     OW 2173   2.092   1.434   2.400
  717SOL    HW1 2174   2.066   1.530   2.400
  717SOL    HW2 2175   2.021   1.380   2.445
  718SOL     OW 2176   2.102   1.091   2.748
  718SOL    HW1 2177   2.116   1.007   2.800
  718SOL    HW2 2178   2.047   1.155   2.803
  719SOL     OW 2179   2.468   0.964   1.985
  719SOL    HW1 2180   2.475   1.048   1.931
  719SOL    HW2 2181   2.514   0.977   2.073
  720SOL     OW 2182   1.984   0.643   2.425
  720SOL    HW1 2183   1.939   0.555   2.442
  720SOL    HW2 2184   1.983   0.697   2.509
  721SOL     OW 2185   1.889   1.596   1.979
  721SOL    HW1 2186   1.870   1.500   2.000
  721SOL    HW2 2187   1.856   1.654   2.054
  722SOL     OW 2188   2.475   1.365   2.588
  722SOL    HW1 2189   2.426   1.278   2.597
  722SOL    HW2 2190   2.452   1.408   2.501
  723SOL     OW 2191   2.671   0.004   2.364
  723SOL    HW1 2192   2.711   0.095   2.355
  723SOL    HW2 2193   2.571   0.012   2.370
  724SOL     OW 2194   2.059   0.976   3.126
  724SOL    HW1 2195   2.148   0.931   3.112
  724SOL    HW2 2196   1.986   0.911   3.107
  725SOL     OW 2197   2.460   0.729   2.132
  725SOL    HW1 2198   2.484   0.798   2.064
  725SOL    HW2 2199   2.382   0.762   2.186
  726SOL     OW 2200   2.903   0.701   2.291
  726SOL    HW1 2201   2.929   0.697   2.387
  726SOL    HW2 2202   2.818   0.650   2.277
  727SOL     OW 2203   1.938   0.811   2.651
  727SOL    HW1 2204   2.037   0.799   2.660
  727SOL    HW2 2205   1.914   0.906   2.672
  728SOL     OW 2206   2.727   0.348   2.057
  728SOL    HW1 2207   2.786   0.411   2.008
  728SOL    HW2 2208   2.746   0.254   2.028
  729SOL     OW 2209   2.412   0.196   2.747
  729SOL    HW1 2210   2.407   0.191   2.847
  729SOL    HW2 2211   2.414   0.292   2.718
  730SOL     OW 2212   2.870   1.456   2.339
  730SOL    HW1 2213   2.824   1.528   2.287
  730SOL    HW2 2214   2.866   1.476   2.437
  731SOL     OW 2215   2.213   1.801   2.715
  731SOL    HW1 2216   2.263   1.715   2.721
  731SOL    HW2 2217   2.278   1.878   2.712
  732SOL     OW 2218   2.183   0.943   2.104
  732SOL    HW1 2219   2.265   0.982   2.062
  732SOL    HW2 2220   2.156   0.861   2.055
  733SOL     OW 2221   2.326   1.743   2.185
  733SOL    HW1 2222   2.359   1.782   2.271
  733SOL    HW2 2223   2.402   1.736   2.120
  734SOL     OW 2224   2.111   1.785   3.103
  734SOL    HW1 2225   2.168   1.720   3.153
  734SOL    HW2 2226   2.095   1.752   3.010
  735SOL     OW 2227   2.802   1.698   2.766
  735SOL    HW1 2228   2.882   1.641   2.787
  735SOL    HW2 2229   2.753   1.658   2.689
  736SOL     OW 2230   2.244   0.700   2.342
  736SOL    HW1 2231   2.289   0.610   2.339
  736SOL    HW2 2232   2.150   0.689   2.375
  737SOL     OW 2233   2.476   0.122   1.979
  737SOL    HW1 2234   2.574   0.100   1.986
  737SOL    HW2 2235   2.445   0.105   1.886
  738SOL     OW 2236   2.665   1.402   2.786
  738SOL    HW1 2237   2.755   1.416   2.744
  738SOL    HW2 2238   2.594   1.404   2.715
  739SOL     OW 2239   2.784   0.503   2.761
  739SOL    HW1 2240   2.759   0.494   2.665
  739SOL    HW2 2241   2.832   0.421   2.792
  740SOL     OW 2242   2.401   0.064   2.374
  740SOL    HW1 2243   2.320   0.065   2.432
  740SOL    HW2 2244   2.404   0.147   2.319
  741SOL     OW 2245   2.159   0.035   2.033
  741SOL    HW1 2246   2.208   0.119   2.012
  741SOL    HW2 2247   2.221  -0.030   2.078
  742SOL     OW 2248   2.797   0.236   2.342
  742SOL    HW1 2249   2.749   0.277   2.264
  742SOL    HW2 2250   2.896   0.234   2.323
  743SOL     OW 2251   3.089   1.570   2.655
  743SOL    HW1 2252   3.110   1.644   2.590
  743SOL    HW2 2253   3.157   1.570   2.728
  744SOL     OW 2254   2.321   1.152   2.603
  744SOL    HW1 2255   2.250   1.125   2.668
  744SOL    HW2 2256   2.295   1.124   2.510
  745SOL     OW 2257   3.133   1.797   2.453
  745SOL    HW1 2258   3.177   1.861   2.389
  745SOL    HW2 2259   3.083   1.849   2.523
  746SOL     OW 2260   2.894   0.549   1.878
  746SOL    HW1 2261   2.853   0.631   1.839
  746SOL    HW2 2262   2.958   0.575   1.951
  747SOL     OW 2263   2.728   0.454   2.504
  747SOL    HW1 2264   2.696   0.526   2.442
  747SOL    HW2 2265   2.752   0.373   2.451
  748SOL     OW 2266   2.879   0.039   2.615
  748SOL    HW1 2267   2.807   0.044   2.546
  748SOL    HW2 2268   2.855  -0.030   2.684
  749SOL     OW 2269   2.350   1.385   2.036
  749SOL    HW1 2270   2.263   1.370   2.083
  749SOL    HW2 2271   2.333   1.411   1.941
  750SOL     OW 2272   2.389   0.256   2.190
  750SOL    HW1 2273   2.416   0.197   2.115
  750SOL    HW2 2274   2.389   0.351   2.159
  751SOL     OW 2275   2.567   1.050   2.230
  751SOL    HW1 2276   2.553   1.057   2.329
  751SOL    HW2 2277   2.651   0.999   2.212
  752SOL     OW 2278   2.272   0.813   3.113
  752SOL    HW1 2279   2.358   0.825   3.163
  752SOL    HW2 2280   2.230   0.726   3.140
  753SOL     OW 2281   2.229   1.100   2.363
  753SOL    HW1 2282   2.222   1.183   2.307
  753SOL    HW2 2283   2.233   1.020   2.303
  754SOL     OW 2284   2.428   0.537   2.727
  754SOL    HW1 2285   2.440   0.603   2.653
  754SOL    HW2 2286   2.474   0.571   2.810
  755SOL     OW 2287   3.114   1.348   2.250
  755SOL    HW1 2288   3.164   1.425   2.290
  755SOL    HW2 2289   3.019   1.350   2.282
  756SOL     OW 2290   3.134   1.445   3.004
  756SOL    HW1 2291   3.181   1.458   3.091
  756SOL    HW2 2292   3.068   1.371   3.013
  757SOL     OW 2293   2.435   0.870   2.891
  757SOL    HW1 2294   2.479   0.959   2.882
  757SOL    HW2 2295   2.372   0.870   2.968
  758SOL     OW 2296   3.222   0.862   2.907
  758SOL    HW1 2297   3.147   0.862   2.841
  758SOL    HW2 2298   3.259   0.770   2.916
  759SOL     OW 2299   3.071   0.525   2.137
  759SOL    HW1 2300   3.084   0.441   2.191
  759SOL    HW2 2301   3.042   0.599   2.197
  760SOL     OW 2302   2.169   0.213   3.093
  760SOL    HW1 2303   2.146   0.250   3.183
  760SOL    HW2 2304   2.139   0.118   3.087
  761SOL     OW 2305   2.594   0.634   2.926
  761SOL    HW1 2306   2.653   0.608   2.850
  761SOL    HW2 2307   2.566   0.730   2.915
  762SOL     OW 2308   2.169   0.063   2.480
  762SOL    HW1 2309   2.158   0.157   2.513
  762SOL    HW2 2310   2.164   0.000   2.557
  763SOL     OW 2311   2.885   0.766   2.828
  763SOL    HW1 2312   2.900   0.787   2.924
  763SOL    HW2 2313   2.855   0.671   2.819
  764SOL     OW 2314   3.165   0.838   1.904
  764SOL    HW1 2315   3.199   0.745   1.919
  764SOL    HW2 2316   3.183   0.865   1.809
  765SOL     OW 2317   2.930   1.333   2.711
  765SOL    HW1 2318   2.937   1.249   2.656
  765SOL    HW2 2319   2.992   1.402   2.675
  766SOL     OW 2320   2.181   0.810   2.811
  766SOL    HW1 2321   2.274   0.846   2.816
  766SOL    HW2 2322   2.175   0.725   2.863
  767SOL     OW 2323   2.201   0.509   2.868
  767SOL    HW1 2324   2.149   0.426   2.851
  767SOL    HW2 2325   2.278   0.514   2.804
  768SOL     OW 2326   1.870   1.326   2.062
  768SOL    HW1 2327   1.777   1.347   2.031
  768SOL    HW2 2328   1.880   1.227   2.075
  769SOL     OW 2329   1.950   1.801   2.789
  769SOL    HW1 2330   1.908   1.715   2.762
  769SOL    HW2 2331   2.044   1.804   2.755
  770SOL     OW 2332   2.366   1.568   2.772
  770SOL    HW1 2333   2.432   1.642   2.781
  770SOL    HW2 2334   2.410   1.489   2.730
  771SOL     OW 2335   2.864   0.796   3.100
  771SOL    HW1 2336   2.905   0.764   3.186
  771SOL    HW2 2337   2.768   0.769   3.097
  772SOL     OW 2338   1.902   0.544   2.976
  772SOL    HW1 2339   1.987   0.511   2.935
  772SOL    HW2 2340   1.915   0.559   3.074
  773SOL     OW 2341   2.677   0.572   2.187
  773SOL    HW1 2342   2.684   0.483   2.141
  773SOL    HW2 2343   2.583   0.606   2.179
  774SOL     OW 2344   2.533   0.464   3.131
  774SOL    HW1 2345   2.499   0.375   3.101
  774SOL    HW2 2346   2.559   0.518   3.051
  775SOL     OW 2347   2.335   0.500   2.053
  775SOL    HW1 2348   2.396   0.580   2.057
  775SOL    HW2 2349   2.240   0.531   2.060
  776SOL     OW 2350   3.164   0.855   2.171
  776SOL    HW1 2351   3.078   0.824   2.213
  776SOL    HW2 2352   3.160   0.841   2.072
  777SOL     OW 2353   1.945   1.258   2.884
  777SOL    HW1 2354   1.940   1.257   2.984
  777SOL    HW2 2355   1.862   1.217   2.846
  778SOL     OW 2356   2.534   1.616   2.016
  778SOL    HW1 2357   2.543   1.626   1.917
  778SOL    HW2 2358   2.494   1.527   2.037
  779SOL     OW 2359   2.125   0.326   2.582
  779SOL    HW1 2360   2.046   0.377   2.548
  779SOL    HW2 2361   2.116   0.311   2.680
  780SOL     OW 2362   2.684   1.002   3.234
  780SOL    HW1 2363   2.724   1.001   3.142
  780SOL    HW2 2364   2.694   1.094   3.274
  781SOL     OW 2365   2.778   0.910   2.153
  781SOL    HW1 2366   2.841   0.948   2.085
  781SOL    HW2 2367   2.818   0.827   2.192
  782SOL     OW 2368   2.901   1.098   2.558
  782SOL    HW1 2369   2.831   1.051   2.612
  782SOL    HW2 2370   2.960   1.030   2.515
  783SOL     OW 2371   2.876   0.236   2.833
  783SOL    HW1 2372   2.868   0.200   2.740
  783SOL    HW2 2373   2.874   0.160   2.898
  784SOL     OW 2374   2.452   1.487   2.353
  784SOL    HW1 2375   2.494   1.429   2.283
  784SOL    HW2 2376   2.408   1.566   2.309
  785SOL     OW 2377   2.117   1.348   2.152
  785SOL    HW1 2378   2.021   1.349   2.125
  785SOL    HW2 2379   2.129   1.401   2.236
  786SOL     OW 2380   1.937   0.345   1.895
  786SOL    HW1 2381   1.845   0.317   1.866
  786SOL    HW2 2382   1.968   0.422   1.839
  787SOL     OW 2383   1.934   0.166   2.180
  787SOL    HW1 2384   1.917   0.249   2.126
  787SOL    HW2 2385   2.024   0.129   2.158
  788SOL     OW 2386   2.456   0.745   2.514
  788SOL    HW1 2387   2.506   0.830   2.495
  788SOL    HW2 2388   2.368   0.747   2.466
  789SOL     OW 2389   2.721   1.374   1.878
  789SOL    HW1 2390   2.675   1.389   1.966
  789SOL    HW2 2391   2.765   1.459   1.848
  790SOL     OW 2392   2.523   1.790   2.815
  790SOL    HW1 2393   2.477   1.878   2.802
  790SOL    HW2 2394   2.622   1.802   2.808
  791SOL     OW 2395   2.721   0.956   2.723
  791SOL    HW1 2396   2.775   0.887   2.771
  791SOL    HW2 2397   2.689   1.025   2.789
  792SOL     OW 2398   2.945   0.984   1.949
  792SOL    HW1 2399   2.922   1.037   1.867
  792SOL    HW2 2400   3.026   0.928   1.930
  793SOL     OW 2401   1.941   1.240   2.515
  793SOL    HW1 2402   1.940   1.193   2.603
  793SOL    HW2 2403   2.023   1.212   2.464
  794SOL     OW 2404   2.290   0.424   2.382
  794SOL    HW1 2405   2.320   0.352   2.320
  794SOL    HW2 2406   2.251   0.384   2.465
  795SOL     OW 2407   2.674   1.586   2.549
  795SOL    HW1 2408   2.706   1.596   2.455
  795SOL    HW2 2409   2.595   1.524   2.551
  796SOL     OW 2410   2.632   1.330   2.163
  796SOL    HW1 2411   2.586   1.243   2.180
  796SOL    HW2 2412   2.723   1.327   2.204
  797SOL     OW 2413   1.901   1.077   2.162
  797SOL    HW1 2414   2.000   1.066   2.153
  797SOL    HW2 2415   1.861   0.991   2.194
  798SOL     OW 2416   2.737   1.646   2.199
  798SOL    HW1 2417   2.660   1.611   2.145
  798SOL    HW2 2418   2.705   1.717   2.261
  799SOL     OW 2419   2.092   2.490   0.113
  799SOL    HW1 2420   1.999   2.488   0.150
  799SOL    HW2 2421   2.093   2.451   0.021
  800SOL     OW 2422   2.087   2.137   0.996
  800SOL    HW1 2423   2.122   2.120   1.088
  800SOL    HW2 2424   1.999   2.092   0.984
  801SOL     OW 2425   1.881   2.230   0.647
  801SOL    HW1 2426   1.799   2.273   0.686
  801SOL    HW2 2427   1.853   2.157   0.584
  802SOL     OW 2428   2.630   3.006   1.023
  802SOL    HW1 2429   2.552   3.023   1.083
  802SOL    HW2 2430   2.664   3.093   0.987
  803SOL     OW 2431   2.712   2.660   1.823
  803SOL    HW1 2432   2.708   2.736   1.888
  803SOL    HW2 2433   2.734   2.696   1.732
  804SOL     OW 2434   2.547   2.874   0.665
  804SOL    HW1 2435   2.616   2.858   0.735
  804SOL    HW2 2436   2.474   2.931   0.703
  805SOL     OW 2437   2.300   2.254   1.499
  805SOL    HW1 2438   2.382   2.198   1.508
  805SOL    HW2 2439   2.219   2.196   1.503
  806SOL     OW 2440   2.102   2.953   0.886
  806SOL    HW1 2441   2.116   2.869   0.938
  806SOL    HW2 2442   2.047   3.017   0.941
  807SOL     OW 2443   2.468   2.826   0.123
  807SOL    HW1 2444   2.475   2.910   0.069
  807SOL    HW2 2445   2.514   2.839   0.211
  808SOL     OW 2446   1.984   2.505   0.563
  808SOL    HW1 2447   1.939   2.417   0.580
  808SOL    HW2 2448   1.983   2.559   0.647
  809SOL     OW 2449   1.975   2.599   1.597
  809SOL    HW1 2450   2.063   2.586   1.642
  809SOL    HW2 2451   1.962   2.696   1.575
  810SOL     OW 2452   2.475   3.227   0.726
  810SOL    HW1 2453   2.426   3.140   0.735
  810SOL    HW2 2454   2.452   3.270   0.639
  811SOL     OW 2455   2.671   1.866   0.502
  811SOL    HW1 2456   2.711   1.957   0.493
  811SOL    HW2 2457   2.571   1.874   0.508
  812SOL     OW 2458   2.059   2.838   1.264
  812SOL    HW1 2459   2.148   2.793   1.250
  812SOL    HW2 2460   1.986   2.773   1.245
  813SOL     OW 2461   2.179   2.113   1.801
  813SOL    HW1 2462   2.250   2.184   1.807
  813SOL    HW2 2463   2.091   2.152   1.829
  814SOL     OW 2464   2.460   2.591   0.270
  814SOL    HW1 2465   2.484   2.660   0.202
  814SOL    HW2 2466   2.382   2.624   0.324
  815SOL     OW 2467   2.669   2.467   1.465
  815SOL    HW1 2468   2.622   2.464   1.554
  815SOL    HW2 2469   2.618   2.412   1.399
  816SOL     OW 2470   2.835   2.752   1.572
  816SOL    HW1 2471   2.881   2.668   1.543
  816SOL    HW2 2472   2.779   2.786   1.497
  817SOL     OW 2473   2.853   2.272   1.242
  817SOL    HW1 2474   2.776   2.306   1.296
  817SOL    HW2 2475   2.819   2.221   1.163
  818SOL     OW 2476   2.903   2.563   0.429
  818SOL    HW1 2477   2.929   2.559   0.525
  818SOL    HW2 2478   2.818   2.512   0.415
  819SOL     OW 2479   1.938   2.673   0.789
  819SOL    HW1 2480   2.037   2.661   0.798
  819SOL    HW2 2481   1.914   2.768   0.810
  820SOL     OW 2482   2.727   2.210   0.195
  820SOL    HW1 2483   2.786   2.273   0.146
  820SOL    HW2 2484   2.746   2.116   0.166
  821SOL     OW 2485   2.412   2.058   0.885
  821SOL    HW1 2486   2.407   2.053   0.985
  821SOL    HW2 2487   2.414   2.154   0.856
  822SOL     OW 2488   2.183   2.805   0.242
  822SOL    HW1 2489   2.265   2.844   0.200
  822SOL    HW2 2490   2.156   2.723   0.193
  823SOL     OW 2491   2.064   2.147   1.498
  823SOL    HW1 2492   1.984   2.207   1.485
  823SOL    HW2 2493   2.054   2.098   1.584
  824SOL     OW 2494   2.244   2.562   0.480
  824SOL    HW1 2495   2.289   2.472   0.477
  824SOL    HW2 2496   2.150   2.551   0.513
  825SOL     OW 2497   2.476   1.984   0.117
  825SOL    HW1 2498   2.574   1.962   0.124
  825SOL    HW2 2499   2.445   1.967   0.024
  826SOL     OW 2500   2.643   2.126   1.749
  826SOL    HW1 2501   2.710   2.065   1.792
  826SOL    HW2 2502   2.570   2.145   1.814
  827SOL     OW 2503   2.784   2.365   0.899
  827SOL    HW1 2504   2.759   2.356   0.803
  827SOL    HW2 2505   2.832   2.283   0.930
  828SOL     OW 2506   2.401   1.926   0.512
  828SOL    HW1 2507   2.320   1.927   0.570
  828SOL    HW2 2508   2.404   2.009   0.457
  829SOL     OW 2509   2.159   1.897   0.171
  829SOL    HW1 2510   2.208   1.981   0.150
  829SOL    HW2 2511   2.221   1.832   0.216
  830SOL     OW 2512   2.797   2.098   0.480
  830SOL    HW1 2513   2.749   2.139   0.402
  830SOL    HW2 2514   2.896   2.096   0.461
  831SOL     OW 2515   2.321   3.014   0.741
  831SOL    HW1 2516   2.250   2.987   0.806
  831SOL    HW2 2517   2.295   2.986   0.648
  832SOL     OW 2518   2.894   2.411   0.016
  832SOL    HW1 2519   2.853   2.493  -0.023
  832SOL    HW2 2520   2.958   2.437   0.089
  833SOL     OW 2521   1.940   2.418   1.386
  833SOL    HW1 2522   2.032   2.417   1.345
  833SOL    HW2 2523   1.934   2.492   1.453
  834SOL     OW 2524   2.423   2.084   1.147
  834SOL    HW1 2525   2.461   2.000   1.184
  834SOL    HW2 2526   2.335   2.103   1.191
  835SOL     OW 2527   2.728   2.316   0.642
  835SOL    HW1 2528   2.696   2.388   0.580
  835SOL    HW2 2529   2.752   2.235   0.589
  836SOL     OW 2530   2.879   1.901   0.753
  836SOL    HW1 2531   2.807   1.906   0.684
  836SOL    HW2 2532   2.855   1.832   0.822
  837SOL     OW 2533   2.389   2.118   0.328
  837SOL    HW1 2534   2.416   2.059   0.253
  837SOL    HW2 2535   2.389   2.213   0.297
  838SOL     OW 2536   2.777   1.951   1.402
  838SOL    HW1 2537   2.802   1.931   1.307
  838SOL    HW2 2538   2.849   2.007   1.444
  839SOL     OW 2539   2.567   2.912   0.368
  839SOL    HW1 2540   2.553   2.919   0.467
  839SOL    HW2 2541   2.651   2.861   0.350
  840SOL     OW 2542   2.272   2.675   1.251
  840SOL    HW1 2543   2.358   2.687   1.301
  840SOL    HW2 2544   2.230   2.588   1.278
  841SOL     OW 2545   2.229   2.962   0.501
  841SOL    HW1 2546   2.222   3.045   0.445
  841SOL    HW2 2547   2.233   2.882   0.441
  842SOL     OW 2548   2.428   2.399   0.865
  842SOL    HW1 2549   2.440   2.465   0.791
  842SOL    HW2 2550   2.474   2.433   0.948
  843SOL     OW 2551   2.264   2.613   1.598
  843SOL    HW1 2552   2.332   2.668   1.551
  843SOL    HW2 2553   2.304   2.525   1.625
  844SOL     OW 2554   2.875   1.967   1.770
  844SOL    HW1 2555   2.881   2.052   1.718
  844SOL    HW2 2556   2.907   1.891   1.713
  845SOL     OW 2557   2.366   1.912   1.740
  845SOL    HW1 2558   2.324   1.855   1.670
  845SOL    HW2 2559   2.300   1.981   1.772
  846SOL     OW 2560   2.435   2.732   1.029
  846SOL    HW1 2561   2.479   2.821   1.020
  846SOL    HW2 2562   2.372   2.732   1.106
  847SOL     OW 2563   3.222   2.724   1.045
  847SOL    HW1 2564   3.147   2.724   0.979
  847SOL    HW2 2565   3.259   2.632   1.054
  848SOL     OW 2566   3.071   2.387   0.275
  848SOL    HW1 2567   3.084   2.303   0.329
  848SOL    HW2 2568   3.042   2.461   0.335
  849SOL     OW 2569   2.169   2.075   1.231
  849SOL    HW1 2570   2.146   2.112   1.321
  849SOL    HW2 2571   2.139   1.980   1.225
  850SOL     OW 2572   2.594   2.496   1.064
  850SOL    HW1 2573   2.653   2.470   0.988
  850SOL    HW2 2574   2.566   2.592   1.053
  851SOL     OW 2575   2.169   1.925   0.618
  851SOL    HW1 2576   2.158   2.019   0.651
  851SOL    HW2 2577   2.164   1.862   0.695
  852SOL     OW 2578   2.885   2.628   0.966
  852SOL    HW1 2579   2.900   2.649   1.062
  852SOL    HW2 2580   2.855   2.533   0.957
  853SOL     OW 2581   2.212   2.760   1.804
  853SOL    HW1 2582   2.288   2.804   1.852
  853SOL    HW2 2583   2.247   2.713   1.722
  854SOL     OW 2584   2.181   2.672   0.949
  854SOL    HW1 2585   2.274   2.708   0.954
  854SOL    HW2 2586   2.175   2.587   1.001
  855SOL     OW 2587   2.201   2.371   1.006
  855SOL    HW1 2588   2.149   2.288   0.989
  855SOL    HW2 2589   2.278   2.376   0.942
  856SOL     OW 2590   3.000   2.242   1.678
  856SOL    HW1 2591   2.955   2.305   1.742
  856SOL    HW2 2592   3.093   2.273   1.661
  857SOL     OW 2593   3.022   2.069   1.477
  857SOL    HW1 2594   3.022   2.133   1.554
  857SOL    HW2 2595   3.050   2.117   1.394
  858SOL     OW 2596   2.864   2.658   1.238
  858SOL    HW1 2597   2.905   2.626   1.324
  858SOL    HW2 2598   2.768   2.631   1.235
  859SOL     OW 2599   1.902   2.406   1.114
  859SOL    HW1 2600   1.987   2.373   1.073
  859SOL    HW2 2601   1.915   2.421   1.212
  860SOL     OW 2602   2.051   2.382   1.722
  860SOL    HW1 2603   2.110   2.342   1.652
  860SOL    HW2 2604   1.993   2.453   1.681
  861SOL     OW 2605   2.677   2.434   0.325
  861SOL    HW1 2606   2.684   2.345   0.279
  861SOL    HW2 2607   2.583   2.468   0.317
  862SOL     OW 2608   2.533   2.326   1.269
  862SOL    HW1 2609   2.499   2.237   1.239
  862SOL    HW2 2610   2.559   2.380   1.189
  863SOL     OW 2611   2.335   2.362   0.191
  863SOL    HW1 2612   2.396   2.442   0.195
  863SOL    HW2 2613   2.240   2.393   0.198
  864SOL     OW 2614   2.021   2.999   1.466
  864SOL    HW1 2615   2.043   2.938   1.542
  864SOL    HW2 2616   2.031   2.950   1.380
  865SOL     OW 2617   3.164   2.717   0.309
  865SOL    HW1 2618   3.078   2.686   0.351
  865SOL    HW2 2619   3.160   2.703   0.210
  866SOL     OW 2620   2.765   1.948   0.133
  866SOL    HW1 2621   2.816   1.949   0.047
  866SOL    HW2 2622   2.821   1.906   0.204
  867SOL     OW 2623   2.125   2.188   0.720
  867SOL    HW1 2624   2.046   2.239   0.686
  867SOL    HW2 2625   2.116   2.173   0.818
  868SOL     OW 2626   2.684   2.864   1.372
  868SOL    HW1 2627   2.724   2.863   1.280
  868SOL    HW2 2628   2.694   2.956   1.412
  869SOL     OW 2629   2.778   2.772   0.291
  869SOL    HW1 2630   2.841   2.810   0.223
  869SOL    HW2 2631   2.818   2.689   0.330
  870SOL     OW 2632   2.234   3.150   1.490
  870SOL    HW1 2633   2.221   3.243   1.456
  870SOL    HW2 2634   2.150   3.098   1.477
  871SOL     OW 2635   2.876   2.098   0.971
  871SOL    HW1 2636   2.868   2.062   0.878
  871SOL    HW2 2637   2.874   2.022   1.036
  872SOL     OW 2638   1.967   2.875   1.726
  872SOL    HW1 2639   1.890   2.842   1.780
  872SOL    HW2 2640   2.052   2.845   1.768
  873SOL     OW 2641   2.534   2.065   1.489
  873SOL    HW1 2642   2.624   2.049   1.449
  873SOL    HW2 2643   2.542   2.070   1.588
  874SOL     OW 2644   1.934   2.028   0.318
  874SOL    HW1 2645   1.917   2.111   0.264
  874SOL    HW2 2646   2.024   1.991   0.296
  875SOL     OW 2647   2.475   2.704   1.431
  875SOL    HW1 2648   2.531   2.785   1.414
  875SOL    HW2 2649   2.534   2.624   1.434
  876SOL     OW 2650   2.578   2.427   1.708
  876SOL    HW1 2651   2.597   2.492   1.782
  876SOL    HW2 2652   2.638   2.347   1.717
  877SOL     OW 2653   2.456   2.607   0.652
  877SOL    HW1 2654   2.506   2.692   0.633
  877SOL    HW2 2655   2.368   2.609   0.604
  878SOL     OW 2656   2.721   2.818   0.861
  878SOL    HW1 2657   2.775   2.749   0.909
  878SOL    HW2 2658   2.689   2.887   0.927
  879SOL     OW 2659   2.945   2.846   0.087
  879SOL    HW1 2660   2.922   2.899   0.005
  879SOL    HW2 2661   3.026   2.790   0.068
  880SOL     OW 2662   1.941   3.102   0.653
  880SOL    HW1 2663   1.940   3.055   0.741
  880SOL    HW2 2664   2.023   3.074   0.602
  881SOL     OW 2665   2.290   2.286   0.520
  881SOL    HW1 2666   2.320   2.214   0.458
  881SOL    HW2 2667   2.251   2.246   0.603
  882SOL     OW 2668   2.179   2.409   1.280
  882SOL    HW1 2669   2.217   2.350   1.352
  882SOL    HW2 2670   2.219   2.383   1.192
  883SOL     OW 2671   2.863   1.896   1.154
  883SOL    HW1 2672   2.800   1.824   1.123
  883SOL    HW2 2673   2.956   1.860   1.154
  884SOL     OW 2674   2.632   3.192   0.301
  884SOL    HW1 2675   2.586   3.105   0.318
  884SOL    HW2 2676   2.723   3.189   0.342
  885SOL     OW 2677   2.092   2.490   1.975
  885SOL    HW1 2678   1.999   2.488   2.012
  885SOL    HW2 2679   2.093   2.451   1.883
  886SOL     OW 2680   2.087   2.137   2.858
  886SOL    HW1 2681   2.122   2.120   2.950
  886SOL    HW2 2682   1.999   2.092   2.846
  887SOL     OW 2683   1.881   2.230   2.509
  887SOL    HW1 2684   1.799   2.273   2.548
  887SOL    HW2 2685   1.853   2.157   2.446
  888SOL     OW 2686   2.630   3.006   2.885
  888SOL    HW1 2687   2.552   3.023   2.945
  888SOL    HW2 2688   2.664   3.093   2.849
  889SOL     OW 2689   2.547   2.874   2.527
  889SOL    HW1 2690   2.616   2.858   2.597
  889SOL    HW2 2691   2.474   2.931   2.565
  890SOL     OW 2692   2.102   2.953   2.748
  890SOL    HW1 2693   2.116   2.869   2.800
  890SOL    HW2 2694   2.047   3.017   2.803
  891SOL     OW 2695   2.468   2.826   1.985
  891SOL    HW1 2696   2.475   2.910   1.931
  891SOL    HW2 2697   2.514   2.839   2.073
  892SOL     OW 2698   1.984   2.505   2.425
  892SOL    HW1 2699   1.939   2.417   2.442
  892SOL    HW2 2700   1.983   2.559   2.509
  893SOL     OW 2701   2.475   3.227   2.588
  893SOL    HW1 2702   2.426   3.140   2.597
  893SOL    HW2 2703   2.452   3.270   2.501
  894SOL     OW 2704   2.671   1.866   2.364
  894SOL    HW1 2705   2.711   1.957   2.355
  894SOL    HW2 2706   2.571   1.874   2.370
  895SOL     OW 2707   2.059   2.838   3.126
  895SOL    HW1 2708   2.148   2.793   3.112
  895SOL    HW2 2709   1.986   2.773   3.107
  896SOL     OW 2710   2.460   2.591   2.132
  896SOL    HW1 2711   2.484   2.660   2.064
  896SOL    HW2 2712   2.382   2.624   2.186
  897SOL     OW 2713   2.903   2.563   2.291
  897SOL    HW1 2714   2.929   2.559   2.387
  897SOL    HW2 2715   2.818   2.512   2.277
  898SOL     OW 2716   1.938   2.673   2.651
  898SOL    HW1 2717   2.037   2.661   2.660
  898SOL    HW2 2718   1.914   2.768   2.672
  899SOL     OW 2719   2.727   2.210   2.057
  899SOL    HW1 2720   2.786   2.273   2.008
  899SOL    HW2 2721   2.746   2.116   2.028
  900SOL     OW 2722   2.412   2.058   2.747
  900SOL    HW1 2723   2.407   2.053   2.847
  900SOL    HW2 2724   2.414   2.154   2.718
  901SOL     OW 2725   2.183   2.805   2.104
  901SOL    HW1 2726   2.265   2.844   2.062
  901SOL    HW2 2727   2.156   2.723   2.055
  902SOL     OW 2728   2.244   2.562   2.342
  902SOL    HW1 2729   2.289   2.472   2.339
  902SOL    HW2 2730   2.150   2.551   2.375
  903SOL     OW 2731   2.476   1.984   1.979
  903SOL    HW1 2732   2.574   1.962   1.986
  903SOL    HW2 2733   2.445   1.967   1.886
  904SOL     OW 2734   2.750   3.376   3.057
  904SOL    HW1 2735   2.727   3.351   2.963
  904SOL    HW2 2736   2.811   3.307   3.096
  905SOL     OW 2737   2.784   2.365   2.761
  905SOL    HW1 2738   2.759   2.356   2.665
  905SOL    HW2 2739   2.832   2.283   2.792
  906SOL     OW 2740   2.401   1.926   2.374
  906SOL    HW1 2741   2.320   1.927   2.432
  906SOL    HW2 2742   2.404   2.009   2.319
  907SOL     OW 2743   2.159   1.897   2.033
  907SOL    HW1 2744   2.208   1.981   2.012
  907SOL    HW2 2745   2.221   1.832   2.078
  908SOL     OW 2746   2.797   2.098   2.342
  908SOL    HW1 2747   2.749   2.139   2.264
  908SOL    HW2 2748   2.896   2.096   2.323
  909SOL     OW 2749   2.321   3.014   2.603
  909SOL    HW1 2750   2.250   2.987   2.668
  909SOL    HW2 2751   2.295   2.986   2.510
  910SOL     OW 2752   2.894   2.411   1.878
  910SOL    HW1 2753   2.853   2.493   1.839
  910SOL    HW2 2754   2.958   2.437   1.951
  911SOL     OW 2755   2.728   2.316   2.504
  911SOL    HW1 2756   2.696   2.388   2.442
  911SOL    HW2 2757   2.752   2.235   2.451
  912SOL     OW 2758   2.879   1.901   2.615
  912SOL    HW1 2759   2.807   1.906   2.546
  912SOL    HW2 2760   2.855   1.832   2.684
  913SOL     OW 2761   2.389   2.118   2.190
  913SOL    HW1 2762   2.416   2.059   2.115
  913SOL    HW2 2763   2.389   2.213   2.159
  914SOL     OW 2764   2.567   2.912   2.230
  914SOL    HW1 2765   2.553   2.919   2.329
  914SOL    HW2 2766   2.651   2.861   2.212
  915SOL     OW 2767   2.272   2.675   3.113
  915SOL    HW1 2768   2.358   2.687   3.163
  915SOL    HW2 2769   2.230   2.588   3.140
  916SOL     OW 2770   2.229   2.962   2.363
  916SOL    HW1 2771   2.222   3.045   2.307
  916SOL    HW2 2772   2.233   2.882   2.303
  917SOL     OW 2773   2.428   2.399   2.727
  917SOL    HW1 2774   2.440   2.465   2.653
  917SOL    HW2 2775   2.474   2.433   2.810
  918SOL     OW 2776   2.435   2.732   2.891
  918SOL    HW1 2777   2.479   2.821   2.882
  918SOL    HW2 2778   2.372   2.732   2.968
  919SOL     OW 2779   3.222   2.724   2.907
  919SOL    HW1 2780   3.147   2.724   2.841
  919SOL    HW2 2781   3.259   2.632   2.916
  920SOL     OW 2782   3.071   2.387   2.137
  920SOL    HW1 2783   3.084   2.303   2.191
  920SOL    HW2 2784   3.042   2.461   2.197
  921SOL     OW 2785   2.169   2.075   3.093
  921SOL    HW1 2786   2.146   2.112   3.183
  921SOL    HW2 2787   2.139   1.980   3.087
  922SOL     OW 2788   2.594   2.496   2.926
  922SOL    HW1 2789   2.653   2.470   2.850
  922SOL    HW2 2790   2.566   2.592   2.915
  923SOL     OW 2791   2.169   1.925   2.480
  923SOL    HW1 2792   2.158   2.019   2.513
  923SOL    HW2 2793   2.164   1.862   2.557
  924SOL     OW 2794   2.885   2.628   2.828
  924SOL    HW1 2795   2.900   2.649   2.924
  924SOL    HW2 2796   2.855   2.533   2.819
  925SOL     OW 2797   3.165   2.700   1.904
  925SOL    HW1 2798   3.199   2.607   1.919
  925SOL    HW2 2799   3.183   2.727   1.809
  926SOL     OW 2800   2.181   2.672   2.811
  926SOL    HW1 2801   2.274   2.708   2.816
  926SOL    HW2 2802   2.175   2.587   2.863
  927SOL     OW 2803   2.201   2.371   2.868
  927SOL    HW1 2804   2.149   2.288   2.851
  927SOL    HW2 2805   2.278   2.376   2.804
  928SOL     OW 2806   2.864   2.658   3.100
  928SOL    HW1 2807   2.905   2.626   3.186
  928SOL    HW2 2808   2.768   2.631   3.097
  929SOL     OW 2809   1.902   2.406   2.976
  929SOL    HW1 2810   1.987   2.373   2.935
  929SOL    HW2 2811   1.915   2.421   3.074
  930SOL     OW 2812   2.677   2.434   2.187
  930SOL    HW1 2813   2.684   2.345   2.141
  930SOL    HW2 2814   2.583   2.468   2.179
  931SOL     OW 2815   2.533   2.326   3.131
  931SOL    HW1 2816   2.499   2.237   3.101
  931SOL    HW2 2817   2.559   2.380   3.051
  932SOL     OW 2818   2.335   2.362   2.053
  932SOL    HW1 2819   2.396   2.442   2.057
  932SOL    HW2 2820   2.240   2.393   2.060
  933SOL     OW 2821   2.021   2.999   3.328
  933SOL    HW1 2822   2.043   2.938   3.404
  933SOL    HW2 2823   2.031   2.950   3.242
  934SOL     OW 2824   3.164   2.717   2.171
  934SOL    HW1 2825   3.078   2.686   2.213
  934SOL    HW2 2826   3.160   2.703   2.072
  935SOL     OW 2827   2.125   2.188   2.582
  935SOL    HW1 2828   2.046   2.239   2.548
  935SOL    HW2 2829   2.116   2.173   2.680
  936SOL     OW 2830   2.684   2.864   3.234
  936SOL    HW1 2831   2.724   2.863   3.142
  936SOL    HW2 2832   2.694   2.956   3.274
  937SOL     OW 2833   2.778   2.772   2.153
  937SOL    HW1 2834   2.841   2.810   2.085
  937SOL    HW2 2835   2.818   2.689   2.192
  938SOL     OW 2836   2.876   2.098   2.833
  938SOL    HW1 2837   2.868   2.062   2.740
  938SOL    HW2 2838   2.874   2.022   2.898
  939SOL     OW 2839   1.937   2.207   1.895
  939SOL    HW1 2840   1.845   2.179   1.866
  939SOL    HW2 2841   1.968   2.284   1.839
  940SOL     OW 2842   1.934   2.028   2.180
  940SOL    HW1 2843   1.917   2.111   2.126
  940SOL    HW2 2844   2.024   1.991   2.158
  941SOL     OW 2845   2.456   2.607   2.514
  941SOL    HW1 2846   2.506   2.692   2.495
  941SOL    HW2 2847   2.368   2.609   2.466
  942SOL     OW 2848   2.721   2.818   2.723
  942SOL    HW1 2849   2.775   2.749   2.771
  942SOL    HW2 2850   2.689   2.887   2.789
  943SOL     OW 2851   2.945   2.846   1.949
  943SOL    HW1 2852   2.922   2.899   1.867
  943SOL    HW2 2853   3.026   2.790   1.930
  944SOL     OW 2854   1.941   3.102   2.515
  944SOL    HW1 2855   1.940   3.055   2.603
  944SOL    HW2 2856   2.023   3.074   2.464
  945SOL     OW 2857   2.290   2.286   2.382
  945SOL    HW1 2858   2.320   2.214   2.320
  945SOL    HW2 2859   2.251   2.246   2.465
  946SOL     OW 2860   2.632   3.192   2.163
  946SOL    HW1 2861   2.586   3.105   2.180
  946SOL    HW2 2862   2.723   3.189   2.204
  947SOL     OW 2863   1.901   2.939   2.162
  947SOL    HW1 2864   2.000   2.928   2.153
  947SOL    HW2 2865   1.861   2.853   2.194
   3.06962   3.06962   3.06962
