; mobley_6843802_GMX.itp created by acpype (v: 2023.10.27) on Thu May 14 13:29:21 2026

[ atomtypes ]
;name   bond_type     mass     charge   ptype   sigma         epsilon       Amb
 ca       ca          0.00000  0.00000   A     3.31521e-01   4.13379e-01 ; 1.86  0.0988
 c3       c3          0.00000  0.00000   A     3.39771e-01   4.51035e-01 ; 1.91  0.1078
 os       os          0.00000  0.00000   A     3.15610e-01   3.03758e-01 ; 1.77  0.0726
 f        f           0.00000  0.00000   A     3.03422e-01   3.48109e-01 ; 1.70  0.0832
 ha       ha          0.00000  0.00000   A     2.62548e-01   6.73624e-02 ; 1.47  0.0161
 h2       h2          0.00000  0.00000   A     2.24382e-01   8.70272e-02 ; 1.26  0.0208

[ moleculetype ]
;name            nrexcl
 mobley_6843802   3

[ atoms ]
;   nr  type  resi  res  atom  cgnr     charge      mass       ; qtot   bond_type
     1   ca     1   MOL    C1    1    -0.144000     12.01000 ; qtot -0.144
     2   ca     1   MOL    C2    2    -0.105500     12.01000 ; qtot -0.249
     3   ca     1   MOL    C3    3    -0.105500     12.01000 ; qtot -0.355
     4   ca     1   MOL    C4    4    -0.155500     12.01000 ; qtot -0.510
     5   ca     1   MOL    C5    5    -0.155500     12.01000 ; qtot -0.666
     6   ca     1   MOL    C6    6     0.102100     12.01000 ; qtot -0.564
     7   c3     1   MOL    C7    7     0.316400     12.01000 ; qtot -0.247
     8   c3     1   MOL    C8    8     0.382900     12.01000 ; qtot 0.135
     9   os     1   MOL    O1    9    -0.352900     16.00000 ; qtot -0.217
    10    f     1   MOL    F1   10    -0.223300     19.00000 ; qtot -0.441
    11    f     1   MOL    F2   11    -0.230800     19.00000 ; qtot -0.672
    12    f     1   MOL    F3   12    -0.230800     19.00000 ; qtot -0.902
    13   ha     1   MOL    H1   13     0.137000      1.00800 ; qtot -0.765
    14   ha     1   MOL    H2   14     0.138000      1.00800 ; qtot -0.627
    15   ha     1   MOL    H3   15     0.138000      1.00800 ; qtot -0.489
    16   ha     1   MOL    H4   16     0.149000      1.00800 ; qtot -0.340
    17   ha     1   MOL    H5   17     0.149000      1.00800 ; qtot -0.191
    18   h2     1   MOL    H6   18     0.091700      1.00800 ; qtot -0.100
    19   h2     1   MOL    H7   19     0.099700      1.00800 ; qtot 0.000

[ bonds ]
;   ai     aj funct   r             k
     1      2   1    1.3986e-01    2.9644e+05 ;     C1 - C2    
     1      3   1    1.3986e-01    2.9644e+05 ;     C1 - C3    
     1     13   1    1.0860e-01    3.0183e+05 ;     C1 - H1    
     2      4   1    1.3986e-01    2.9644e+05 ;     C2 - C4    
     2     14   1    1.0860e-01    3.0183e+05 ;     C2 - H2    
     3      5   1    1.3986e-01    2.9644e+05 ;     C3 - C5    
     3     15   1    1.0860e-01    3.0183e+05 ;     C3 - H3    
     4      6   1    1.3986e-01    2.9644e+05 ;     C4 - C6    
     4     16   1    1.0860e-01    3.0183e+05 ;     C4 - H4    
     5      6   1    1.3986e-01    2.9644e+05 ;     C5 - C6    
     5     17   1    1.0860e-01    3.0183e+05 ;     C5 - H5    
     6      9   1    1.3688e-01    2.8731e+05 ;     C6 - O1    
     7      8   1    1.5354e-01    1.9154e+05 ;     C7 - C8    
     7      9   1    1.4273e-01    2.3620e+05 ;     C7 - O1    
     7     10   1    1.3512e-01    2.7973e+05 ;     C7 - F1    
     7     18   1    1.0950e-01    2.9039e+05 ;     C7 - H6    
     8     11   1    1.3512e-01    2.7973e+05 ;     C8 - F2    
     8     12   1    1.3512e-01    2.7973e+05 ;     C8 - F3    
     8     19   1    1.0950e-01    2.9039e+05 ;     C8 - H7    

[ pairs ]
;   ai     aj    funct
     1      6      1 ;     C1 - C6    
     1     16      1 ;     C1 - H4    
     1     17      1 ;     C1 - H5    
     2      5      1 ;     C2 - C5    
     2      9      1 ;     C2 - O1    
     2     15      1 ;     C2 - H3    
     3      4      1 ;     C3 - C4    
     3      9      1 ;     C3 - O1    
     3     14      1 ;     C3 - H2    
     4      7      1 ;     C4 - C7    
     4     17      1 ;     C4 - H5    
     5      7      1 ;     C5 - C7    
     5     16      1 ;     C5 - H4    
     6      8      1 ;     C6 - C8    
     6     10      1 ;     C6 - F1    
     6     14      1 ;     C6 - H2    
     6     15      1 ;     C6 - H3    
     6     18      1 ;     C6 - H6    
     9     11      1 ;     O1 - F2    
     9     12      1 ;     O1 - F3    
     9     16      1 ;     O1 - H4    
     9     17      1 ;     O1 - H5    
     9     19      1 ;     O1 - H7    
    10     11      1 ;     F1 - F2    
    10     12      1 ;     F1 - F3    
    10     19      1 ;     F1 - H7    
    11     18      1 ;     F2 - H6    
    12     18      1 ;     F3 - H6    
    13      4      1 ;     H1 - C4    
    13      5      1 ;     H1 - C5    
    13     14      1 ;     H1 - H2    
    13     15      1 ;     H1 - H3    
    14     16      1 ;     H2 - H4    
    15     17      1 ;     H3 - H5    
    18     19      1 ;     H6 - H7    

[ angles ]
;   ai     aj     ak    funct   theta         cth
     1      2      4      1    1.2002e+02    5.3279e+02 ;     C1 - C2     - C4    
     1      2     14      1    1.1988e+02    3.7572e+02 ;     C1 - C2     - H2    
     1      3      5      1    1.2002e+02    5.3279e+02 ;     C1 - C3     - C5    
     1      3     15      1    1.1988e+02    3.7572e+02 ;     C1 - C3     - H3    
     2      1      3      1    1.2002e+02    5.3279e+02 ;     C2 - C1     - C3    
     2      1     13      1    1.1988e+02    3.7572e+02 ;     C2 - C1     - H1    
     2      4      6      1    1.2002e+02    5.3279e+02 ;     C2 - C4     - C6    
     2      4     16      1    1.1988e+02    3.7572e+02 ;     C2 - C4     - H4    
     3      1     13      1    1.1988e+02    3.7572e+02 ;     C3 - C1     - H1    
     3      5      6      1    1.2002e+02    5.3279e+02 ;     C3 - C5     - C6    
     3      5     17      1    1.1988e+02    3.7572e+02 ;     C3 - C5     - H5    
     4      2     14      1    1.1988e+02    3.7572e+02 ;     C4 - C2     - H2    
     4      6      5      1    1.2002e+02    5.3279e+02 ;     C4 - C6     - C5    
     4      6      9      1    1.1911e+02    6.6107e+02 ;     C4 - C6     - O1    
     5      3     15      1    1.1988e+02    3.7572e+02 ;     C5 - C3     - H3    
     5      6      9      1    1.1911e+02    6.6107e+02 ;     C5 - C6     - O1    
     6      4     16      1    1.1988e+02    3.7572e+02 ;     C6 - C4     - H4    
     6      5     17      1    1.1988e+02    3.7572e+02 ;     C6 - C5     - H5    
     6      9      7      1    1.1839e+02    7.3856e+02 ;     C6 - O1     - C7    
     7      8     11      1    1.0948e+02    6.6408e+02 ;     C7 - C8     - F2    
     7      8     12      1    1.0948e+02    6.6408e+02 ;     C7 - C8     - F3    
     7      8     19      1    1.1042e+02    3.6091e+02 ;     C7 - C8     - H7    
     8      7      9      1    1.0762e+02    6.4802e+02 ;     C8 - C7     - O1    
     8      7     10      1    1.0948e+02    6.6408e+02 ;     C8 - C7     - F1    
     8      7     18      1    1.1042e+02    3.6091e+02 ;     C8 - C7     - H6    
     9      7     10      1    1.1134e+02    8.4232e+02 ;     O1 - C7     - F1    
     9      7     18      1    1.1103e+02    4.6894e+02 ;     O1 - C7     - H6    
    10      7     18      1    1.0907e+02    5.0032e+02 ;     F1 - C7     - H6    
    11      8     12      1    1.0737e+02    8.9437e+02 ;     F2 - C8     - F3    
    11      8     19      1    1.0907e+02    5.0032e+02 ;     F2 - C8     - H7    
    12      8     19      1    1.0907e+02    5.0032e+02 ;     F3 - C8     - H7    

[ dihedrals ] ; propers
; for gromacs 4.5 or higher, using funct 9
;    i      j      k      l   func   phase     kd      pn
     1      2      4      6      9   180.00  15.16700   2 ;     C1-    C2-    C4-    C6
     1      2      4     16      9   180.00  15.16700   2 ;     C1-    C2-    C4-    H4
     1      3      5      6      9   180.00  15.16700   2 ;     C1-    C3-    C5-    C6
     1      3      5     17      9   180.00  15.16700   2 ;     C1-    C3-    C5-    H5
     2      1      3      5      9   180.00  15.16700   2 ;     C2-    C1-    C3-    C5
     2      1      3     15      9   180.00  15.16700   2 ;     C2-    C1-    C3-    H3
     2      4      6      5      9   180.00  15.16700   2 ;     C2-    C4-    C6-    C5
     2      4      6      9      9   180.00  15.16700   2 ;     C2-    C4-    C6-    O1
     3      1      2      4      9   180.00  15.16700   2 ;     C3-    C1-    C2-    C4
     3      1      2     14      9   180.00  15.16700   2 ;     C3-    C1-    C2-    H2
     3      5      6      4      9   180.00  15.16700   2 ;     C3-    C5-    C6-    C4
     3      5      6      9      9   180.00  15.16700   2 ;     C3-    C5-    C6-    O1
     4      6      5     17      9   180.00  15.16700   2 ;     C4-    C6-    C5-    H5
     4      6      9      7      9   180.00   6.94544   2 ;     C4-    C6-    O1-    C7
     5      6      4     16      9   180.00  15.16700   2 ;     C5-    C6-    C4-    H4
     5      6      9      7      9   180.00   6.94544   2 ;     C5-    C6-    O1-    C7
     6      4      2     14      9   180.00  15.16700   2 ;     C6-    C4-    C2-    H2
     6      5      3     15      9   180.00  15.16700   2 ;     C6-    C5-    C3-    H3
     6      9      7      8      9     0.00   1.60387   3 ;     C6-    O1-    C7-    C8
     6      9      7     10      9     0.00   1.60387   3 ;     C6-    O1-    C7-    F1
     6      9      7     18      9     0.00   1.60387   3 ;     C6-    O1-    C7-    H6
     9      6      4     16      9   180.00  15.16700   2 ;     O1-    C6-    C4-    H4
     9      6      5     17      9   180.00  15.16700   2 ;     O1-    C6-    C5-    H5
     9      7      8     11      9     0.00   0.65084   3 ;     O1-    C7-    C8-    F2
     9      7      8     12      9     0.00   0.65084   3 ;     O1-    C7-    C8-    F3
     9      7      8     19      9     0.00   0.65084   3 ;     O1-    C7-    C8-    H7
    10      7      8     11      9     0.00   7.57304   2 ;     F1-    C7-    C8-    F2
    10      7      8     12      9     0.00   7.57304   2 ;     F1-    C7-    C8-    F3
    10      7      8     19      9     0.00   0.65084   3 ;     F1-    C7-    C8-    H7
    11      8      7     18      9     0.00   0.65084   3 ;     F2-    C8-    C7-    H6
    12      8      7     18      9     0.00   0.65084   3 ;     F3-    C8-    C7-    H6
    13      1      2      4      9   180.00  15.16700   2 ;     H1-    C1-    C2-    C4
    13      1      2     14      9   180.00  15.16700   2 ;     H1-    C1-    C2-    H2
    13      1      3      5      9   180.00  15.16700   2 ;     H1-    C1-    C3-    C5
    13      1      3     15      9   180.00  15.16700   2 ;     H1-    C1-    C3-    H3
    14      2      4     16      9   180.00  15.16700   2 ;     H2-    C2-    C4-    H4
    15      3      5     17      9   180.00  15.16700   2 ;     H3-    C3-    C5-    H5
    18      7      8     19      9     0.00   0.65084   3 ;     H6-    C7-    C8-    H7

[ dihedrals ] ; impropers
; treated as propers in GROMACS to use correct AMBER analytical function
;    i      j      k      l   func   phase     kd      pn
     1      4      2     14      4   180.00   4.60240   2 ;     C1-    C4-    C2-    H2
     1      5      3     15      4   180.00   4.60240   2 ;     C1-    C5-    C3-    H3
     2      6      4     16      4   180.00   4.60240   2 ;     C2-    C6-    C4-    H4
     3      6      5     17      4   180.00   4.60240   2 ;     C3-    C6-    C5-    H5
     4      5      6      9      4   180.00   4.60240   2 ;     C4-    C5-    C6-    O1
    13      1      3      2      4   180.00   4.60240   2 ;     H1-    C1-    C3-    C2
