mobley_397645_GMX.gro created by acpype (v: 2023.10.27) on Thu May 14 13:55:14 2026
 2442
    1MOL     C1    1   1.398   1.490   1.114
    1MOL     C2    2   1.291   1.550   1.181
    1MOL     C3    3   1.503   1.434   1.186
    1MOL     C4    4   1.289   1.553   1.321
    1MOL     C5    5   1.501   1.437   1.326
    1MOL     C6    6   1.394   1.496   1.393
    1MOL     C7    7   1.392   1.499   1.538
    1MOL     C8    8   1.641   1.366   1.773
    1MOL     C9    9   1.513   1.436   1.734
    1MOL     O1   10   1.302   1.550   1.606
    1MOL     O2   11   1.503   1.439   1.591
    1MOL     H1   12   1.399   1.488   1.005
    1MOL     H2   13   1.209   1.594   1.125
    1MOL     H3   14   1.586   1.387   1.134
    1MOL     H4   15   1.205   1.600   1.372
    1MOL     H5   16   1.583   1.392   1.381
    1MOL     H6   17   1.652   1.362   1.882
    1MOL     H7   18   1.643   1.264   1.734
    1MOL     H8   19   1.728   1.418   1.731
    1MOL     H9   20   1.512   1.539   1.772
    1MOL    H10   21   1.426   1.382   1.774
    2SOL     OW   22   0.230   0.628   0.113
    2SOL    HW1   23   0.137   0.626   0.150
    2SOL    HW2   24   0.231   0.589   0.021
    3SOL     OW   25   0.225   0.275   0.996
    3SOL    HW1   26   0.260   0.258   1.088
    3SOL    HW2   27   0.137   0.230   0.984
    4SOL     OW   28   0.019   0.368   0.647
    4SOL    HW1   29  -0.063   0.411   0.686
    4SOL    HW2   30  -0.009   0.295   0.584
    5SOL     OW   31   0.569   1.275   1.165
    5SOL    HW1   32   0.476   1.268   1.128
    5SOL    HW2   33   0.580   1.364   1.209
    6SOL     OW   34   1.555   1.511   0.703
    6SOL    HW1   35   1.498   1.495   0.784
    6SOL    HW2   36   1.496   1.521   0.623
    7SOL     OW   37   1.135   0.703   0.717
    7SOL    HW1   38   1.192   0.781   0.692
    7SOL    HW2   39   1.075   0.729   0.793
    8SOL     OW   40   1.755   0.607   0.231
    8SOL    HW1   41   1.743   0.594   0.132
    8SOL    HW2   42   1.725   0.526   0.280
    9SOL     OW   43   0.768   1.144   1.023
    9SOL    HW1   44   0.690   1.161   1.083
    9SOL    HW2   45   0.802   1.231   0.987
   10SOL     OW   46   0.850   0.798   1.823
   10SOL    HW1   47   0.846   0.874   1.888
   10SOL    HW2   48   0.872   0.834   1.732
   11SOL     OW   49   0.685   1.012   0.665
   11SOL    HW1   50   0.754   0.996   0.735
   11SOL    HW2   51   0.612   1.069   0.703
   12SOL     OW   52   0.686   1.161   1.803
   12SOL    HW1   53   0.746   1.240   1.817
   12SOL    HW2   54   0.600   1.192   1.762
   13SOL     OW   55   0.335   1.435   1.061
   13SOL    HW1   56   0.257   1.404   1.008
   13SOL    HW2   57   0.393   1.493   1.004
   14SOL     OW   58   0.438   0.392   1.499
   14SOL    HW1   59   0.520   0.336   1.508
   14SOL    HW2   60   0.357   0.334   1.503
   15SOL     OW   61   1.603   0.447   0.737
   15SOL    HW1   62   1.529   0.493   0.687
   15SOL    HW2   63   1.654   0.515   0.790
   16SOL     OW   64   0.231   1.713   0.483
   16SOL    HW1   65   0.265   1.790   0.537
   16SOL    HW2   66   0.275   1.713   0.393
   17SOL     OW   67   1.127   1.341   1.690
   17SOL    HW1   68   1.174   1.341   1.778
   17SOL    HW2   69   1.079   1.254   1.679
   18SOL     OW   70   0.230   1.434   0.538
   18SOL    HW1   71   0.204   1.530   0.538
   18SOL    HW2   72   0.159   1.380   0.583
   19SOL     OW   73   0.240   1.091   0.886
   19SOL    HW1   74   0.254   1.007   0.938
   19SOL    HW2   75   0.185   1.155   0.941
   20SOL     OW   76   0.620   1.786   1.439
   20SOL    HW1   77   0.528   1.769   1.474
   20SOL    HW2   78   0.648   1.878   1.465
   21SOL     OW   79   0.606   0.964   0.123
   21SOL    HW1   80   0.613   1.048   0.069
   21SOL    HW2   81   0.652   0.977   0.211
   22SOL     OW   82   1.594   0.114   1.480
   22SOL    HW1   83   1.576   0.181   1.408
   22SOL    HW2   84   1.591   0.160   1.569
   23SOL     OW   85   0.122   0.643   0.563
   23SOL    HW1   86   0.077   0.555   0.580
   23SOL    HW2   87   0.121   0.697   0.647
   24SOL     OW   88   1.842   1.767   0.359
   24SOL    HW1   89   1.896   1.738   0.439
   24SOL    HW2   90   1.872   1.857   0.330
   25SOL     OW   91   0.027   1.596   0.117
   25SOL    HW1   92   0.008   1.500   0.138
   25SOL    HW2   93  -0.006   1.654   0.192
   26SOL     OW   94   1.689   0.922   0.612
   26SOL    HW1   95   1.784   0.893   0.620
   26SOL    HW2   96   1.681   0.987   0.537
   27SOL     OW   97   1.641   1.108   0.432
   27SOL    HW1   98   1.727   1.110   0.380
   27SOL    HW2   99   1.655   1.155   0.520
   28SOL     OW  100   0.113   0.737   1.597
   28SOL    HW1  101   0.201   0.724   1.642
   28SOL    HW2  102   0.100   0.834   1.575
   29SOL     OW  103   0.613   1.365   0.726
   29SOL    HW1  104   0.564   1.278   0.735
   29SOL    HW2  105   0.590   1.408   0.639
   30SOL     OW  106   1.293   1.228   1.423
   30SOL    HW1  107   1.330   1.155   1.365
   30SOL    HW2  108   1.345   1.233   1.508
   31SOL     OW  109   0.809   0.004   0.502
   31SOL    HW1  110   0.849   0.095   0.493
   31SOL    HW2  111   0.709   0.012   0.508
   32SOL     OW  112   0.197   0.976   1.264
   32SOL    HW1  113   0.286   0.931   1.250
   32SOL    HW2  114   0.124   0.911   1.245
   33SOL     OW  115   1.525   0.999   0.190
   33SOL    HW1  116   1.462   0.923   0.203
   33SOL    HW2  117   1.573   1.017   0.276
   34SOL     OW  118   1.187   1.792   1.616
   34SOL    HW1  119   1.211   1.852   1.540
   34SOL    HW2  120   1.194   1.697   1.586
   35SOL     OW  121   0.317   0.251   1.801
   35SOL    HW1  122   0.388   0.322   1.807
   35SOL    HW2  123   0.229   0.290   1.829
   36SOL     OW  124   1.667   1.714   0.572
   36SOL    HW1  125   1.626   1.691   0.484
   36SOL    HW2  126   1.649   1.640   0.637
   37SOL     OW  127   0.598   0.729   0.270
   37SOL    HW1  128   0.622   0.798   0.202
   37SOL    HW2  129   0.520   0.762   0.324
   38SOL     OW  130   1.281   0.345   0.944
   38SOL    HW1  131   1.195   0.295   0.931
   38SOL    HW2  132   1.343   0.291   1.000
   39SOL     OW  133   1.576   1.662   0.307
   39SOL    HW1  134   1.665   1.708   0.310
   39SOL    HW2  135   1.555   1.638   0.212
   40SOL     OW  136   0.807   0.605   1.465
   40SOL    HW1  137   0.760   0.602   1.554
   40SOL    HW2  138   0.756   0.550   1.399
   41SOL     OW  139   1.394   0.469   1.674
   41SOL    HW1  140   1.374   0.512   1.762
   41SOL    HW2  141   1.472   0.407   1.683
   42SOL     OW  142   0.973   0.890   1.572
   42SOL    HW1  143   1.019   0.806   1.543
   42SOL    HW2  144   0.917   0.924   1.497
   43SOL     OW  145   0.991   0.410   1.242
   43SOL    HW1  146   0.914   0.444   1.296
   43SOL    HW2  147   0.957   0.359   1.163
   44SOL     OW  148   1.041   0.701   0.429
   44SOL    HW1  149   1.067   0.697   0.525
   44SOL    HW2  150   0.956   0.650   0.415
   45SOL     OW  151   0.076   0.811   0.789
   45SOL    HW1  152   0.175   0.799   0.798
   45SOL    HW2  153   0.052   0.906   0.810
   46SOL     OW  154   0.130   1.821   1.571
   46SOL    HW1  155   0.120   1.806   1.670
   46SOL    HW2  156   0.044   1.857   1.535
   47SOL     OW  157   0.865   0.348   0.195
   47SOL    HW1  158   0.924   0.411   0.146
   47SOL    HW2  159   0.884   0.254   0.166
   48SOL     OW  160   1.719   0.585   1.831
   48SOL    HW1  161   1.693   0.674   1.795
   48SOL    HW2  162   1.717   0.517   1.758
   49SOL     OW  163   1.362   1.144   0.545
   49SOL    HW1  164   1.445   1.115   0.497
   49SOL    HW2  165   1.313   1.211   0.489
   50SOL     OW  166   0.550   0.196   0.885
   50SOL    HW1  167   0.545   0.191   0.985
   50SOL    HW2  168   0.552   0.292   0.856
   51SOL     OW  169   1.008   1.456   0.477
   51SOL    HW1  170   0.962   1.528   0.425
   51SOL    HW2  171   1.004   1.476   0.575
   52SOL     OW  172   0.351   1.801   0.853
   52SOL    HW1  173   0.401   1.715   0.859
   52SOL    HW2  174   0.416   1.878   0.850
   53SOL     OW  175   1.795   1.066   0.873
   53SOL    HW1  176   1.733   1.051   0.797
   53SOL    HW2  177   1.743   1.077   0.958
   54SOL     OW  178   0.321   0.943   0.242
   54SOL    HW1  179   0.403   0.982   0.200
   54SOL    HW2  180   0.294   0.861   0.193
   55SOL     OW  181   1.458   0.735   0.728
   55SOL    HW1  182   1.453   0.670   0.803
   55SOL    HW2  183   1.538   0.794   0.741
   56SOL     OW  184   0.461   1.266   1.727
   56SOL    HW1  185   0.411   1.267   1.641
   56SOL    HW2  186   0.398   1.248   1.803
   57SOL     OW  187   1.111   1.776   0.237
   57SOL    HW1  188   1.051   1.714   0.287
   57SOL    HW2  189   1.142   1.732   0.152
   58SOL     OW  190   0.202   0.285   1.498
   58SOL    HW1  191   0.122   0.345   1.485
   58SOL    HW2  192   0.192   0.236   1.584
   59SOL     OW  193   1.632   1.377   0.081
   59SOL    HW1  194   1.600   1.471   0.071
   59SOL    HW2  195   1.556   1.314   0.069
   60SOL     OW  196   0.464   1.743   0.323
   60SOL    HW1  197   0.497   1.782   0.409
   60SOL    HW2  198   0.540   1.736   0.258
   61SOL     OW  199   1.400   0.107   0.426
   61SOL    HW1  200   1.376   0.070   0.336
   61SOL    HW2  201   1.499   0.123   0.430
   62SOL     OW  202   0.249   1.785   1.241
   62SOL    HW1  203   0.306   1.720   1.291
   62SOL    HW2  204   0.233   1.752   1.148
   63SOL     OW  205   0.940   1.698   0.904
   63SOL    HW1  206   1.020   1.641   0.925
   63SOL    HW2  207   0.891   1.658   0.827
   64SOL     OW  208   0.382   0.700   0.480
   64SOL    HW1  209   0.427   0.610   0.477
   64SOL    HW2  210   0.288   0.689   0.513
   65SOL     OW  211   1.547   0.222   1.729
   65SOL    HW1  212   1.542   0.259   1.821
   65SOL    HW2  213   1.475   0.153   1.717
   66SOL     OW  214   0.614   0.122   0.117
   66SOL    HW1  215   0.712   0.100   0.124
   66SOL    HW2  216   0.583   0.105   0.024
   67SOL     OW  217   0.781   0.264   1.749
   67SOL    HW1  218   0.848   0.203   1.792
   67SOL    HW2  219   0.708   0.283   1.814
   68SOL     OW  220   0.888   1.514   1.195
   68SOL    HW1  221   0.865   1.489   1.101
   68SOL    HW2  222   0.949   1.445   1.234
   69SOL     OW  223   1.351   0.590   1.433
   69SOL    HW1  224   1.379   0.547   1.518
   69SOL    HW2  225   1.376   0.686   1.434
   70SOL     OW  226   0.803   1.402   0.924
   70SOL    HW1  227   0.893   1.416   0.882
   70SOL    HW2  228   0.732   1.404   0.853
   71SOL     OW  229   0.922   0.503   0.899
   71SOL    HW1  230   0.897   0.494   0.803
   71SOL    HW2  231   0.970   0.421   0.930
   72SOL     OW  232   0.539   0.064   0.512
   72SOL    HW1  233   0.458   0.065   0.570
   72SOL    HW2  234   0.542   0.147   0.457
   73SOL     OW  235   1.434   1.188   0.041
   73SOL    HW1  236   1.466   1.112   0.098
   73SOL    HW2  237   1.342   1.215   0.071
   74SOL     OW  238   0.297   0.035   0.171
   74SOL    HW1  239   0.346   0.119   0.150
   74SOL    HW2  240   0.359  -0.030   0.216
   75SOL     OW  241   0.935   0.236   0.480
   75SOL    HW1  242   0.887   0.277   0.402
   75SOL    HW2  243   1.034   0.234   0.461
   76SOL     OW  244   1.076   0.683   1.464
   76SOL    HW1  245   0.996   0.622   1.467
   76SOL    HW2  246   1.157   0.630   1.440
   77SOL     OW  247   1.227   1.570   0.793
   77SOL    HW1  248   1.248   1.644   0.728
   77SOL    HW2  249   1.295   1.570   0.866
   78SOL     OW  250   0.459   1.152   0.741
   78SOL    HW1  251   0.388   1.125   0.806
   78SOL    HW2  252   0.433   1.124   0.648
   79SOL     OW  253   1.271   1.797   0.591
   79SOL    HW1  254   1.315   1.861   0.527
   79SOL    HW2  255   1.221   1.849   0.661
   80SOL     OW  256   1.032   0.549   0.016
   80SOL    HW1  257   0.991   0.631  -0.023
   80SOL    HW2  258   1.096   0.575   0.089
   81SOL     OW  259   0.078   0.556   1.386
   81SOL    HW1  260   0.170   0.555   1.345
   81SOL    HW2  261   0.072   0.630   1.453
   82SOL     OW  262   0.561   0.222   1.147
   82SOL    HW1  263   0.599   0.138   1.184
   82SOL    HW2  264   0.473   0.241   1.191
   83SOL     OW  265   0.866   0.454   0.642
   83SOL    HW1  266   0.834   0.526   0.580
   83SOL    HW2  267   0.890   0.373   0.589
   84SOL     OW  268   1.017   0.039   0.753
   84SOL    HW1  269   0.945   0.044   0.684
   84SOL    HW2  270   0.993  -0.030   0.822
   85SOL     OW  271   1.429   1.173   0.867
   85SOL    HW1  272   1.374   1.089   0.860
   85SOL    HW2  273   1.455   1.202   0.775
   86SOL     OW  274   1.466   0.590   0.992
   86SOL    HW1  275   1.436   0.495   0.999
   86SOL    HW2  276   1.539   0.606   1.058
   87SOL     OW  277   1.857   0.833   0.377
   87SOL    HW1  278   1.899   0.769   0.441
   87SOL    HW2  279   1.819   0.782   0.299
   88SOL     OW  280   0.488   1.385   0.174
   88SOL    HW1  281   0.401   1.370   0.221
   88SOL    HW2  282   0.471   1.411   0.079
   89SOL     OW  283   1.664   1.280   0.657
   89SOL    HW1  284   1.763   1.288   0.671
   89SOL    HW2  285   1.619   1.364   0.688
   90SOL     OW  286   1.390   0.575   0.078
   90SOL    HW1  287   1.336   0.554   0.159
   90SOL    HW2  288   1.481   0.534   0.087
   91SOL     OW  289   0.527   0.256   0.328
   91SOL    HW1  290   0.554   0.197   0.253
   91SOL    HW2  291   0.527   0.351   0.297
   92SOL     OW  292   1.754   1.223   1.588
   92SOL    HW1  293   1.845   1.184   1.575
   92SOL    HW2  294   1.762   1.319   1.612
   93SOL     OW  295   1.064   1.347   1.340
   93SOL    HW1  296   0.984   1.324   1.395
   93SOL    HW2  297   1.147   1.321   1.389
   94SOL     OW  298   1.592   1.629   1.625
   94SOL    HW1  299   1.619   1.663   1.535
   94SOL    HW2  300   1.671   1.591   1.671
   95SOL     OW  301   1.111   1.195   1.100
   95SOL    HW1  302   1.071   1.239   1.181
   95SOL    HW2  303   1.070   1.232   1.017
   96SOL     OW  304   1.638   1.099   1.079
   96SOL    HW1  305   1.643   1.180   1.138
   96SOL    HW2  306   1.552   1.101   1.028
   97SOL     OW  307   0.915   0.089   1.402
   97SOL    HW1  308   0.940   0.069   1.307
   97SOL    HW2  309   0.987   0.145   1.444
   98SOL     OW  310   0.980   1.116   1.719
   98SOL    HW1  311   0.881   1.122   1.729
   98SOL    HW2  312   1.003   1.036   1.663
   99SOL     OW  313   0.705   1.050   0.368
   99SOL    HW1  314   0.691   1.057   0.467
   99SOL    HW2  315   0.789   0.999   0.350
  100SOL     OW  316   0.410   0.813   1.251
  100SOL    HW1  317   0.496   0.825   1.301
  100SOL    HW2  318   0.368   0.726   1.278
  101SOL     OW  319   1.274   0.386   1.262
  101SOL    HW1  320   1.295   0.460   1.326
  101SOL    HW2  321   1.185   0.403   1.219
  102SOL     OW  322   0.064   1.564   1.331
  102SOL    HW1  323   0.018   1.646   1.297
  102SOL    HW2  324   0.162   1.583   1.340
  103SOL     OW  325   0.367   1.100   0.501
  103SOL    HW1  326   0.360   1.183   0.445
  103SOL    HW2  327   0.371   1.020   0.441
  104SOL     OW  328   0.566   0.537   0.865
  104SOL    HW1  329   0.578   0.603   0.791
  104SOL    HW2  330   0.612   0.571   0.948
  105SOL     OW  331   1.252   1.348   0.388
  105SOL    HW1  332   1.302   1.425   0.428
  105SOL    HW2  333   1.157   1.350   0.420
  106SOL     OW  334   1.582   0.639   0.472
  106SOL    HW1  335   1.551   0.700   0.545
  106SOL    HW2  336   1.632   0.691   0.403
  107SOL     OW  337   0.354   1.510   1.329
  107SOL    HW1  338   0.333   1.466   1.242
  107SOL    HW2  339   0.451   1.536   1.332
  108SOL     OW  340   0.402   0.751   1.598
  108SOL    HW1  341   0.470   0.806   1.551
  108SOL    HW2  342   0.442   0.663   1.625
  109SOL     OW  343   1.587   0.779   1.670
  109SOL    HW1  344   1.495   0.817   1.665
  109SOL    HW2  345   1.647   0.826   1.605
  110SOL     OW  346   1.013   0.105   1.770
  110SOL    HW1  347   1.019   0.190   1.718
  110SOL    HW2  348   1.045   0.029   1.713
  111SOL     OW  349   0.504   0.050   1.740
  111SOL    HW1  350   0.462  -0.007   1.670
  111SOL    HW2  351   0.438   0.119   1.772
  112SOL     OW  352   0.573   0.870   1.029
  112SOL    HW1  353   0.617   0.959   1.020
  112SOL    HW2  354   0.510   0.870   1.106
  113SOL     OW  355   1.360   0.862   1.045
  113SOL    HW1  356   1.285   0.862   0.979
  113SOL    HW2  357   1.397   0.770   1.054
  114SOL     OW  358   1.209   0.525   0.275
  114SOL    HW1  359   1.222   0.441   0.329
  114SOL    HW2  360   1.180   0.599   0.335
  115SOL     OW  361   0.307   0.213   1.231
  115SOL    HW1  362   0.284   0.250   1.321
  115SOL    HW2  363   0.277   0.118   1.225
  116SOL     OW  364   0.037   1.310   1.282
  116SOL    HW1  365   0.090   1.261   1.350
  116SOL    HW2  366   0.059   1.408   1.287
  117SOL     OW  367   0.732   0.634   1.064
  117SOL    HW1  368   0.791   0.608   0.988
  117SOL    HW2  369   0.704   0.730   1.053
  118SOL     OW  370   1.728   0.935   1.854
  118SOL    HW1  371   1.682   0.928   1.765
  118SOL    HW2  372   1.666   0.979   1.920
  119SOL     OW  373   0.307   0.063   0.618
  119SOL    HW1  374   0.296   0.157   0.651
  119SOL    HW2  375   0.302   0.000   0.695
  120SOL     OW  376   1.622   0.367   0.374
  120SOL    HW1  377   1.624   0.291   0.438
  120SOL    HW2  378   1.574   0.444   0.414
  121SOL     OW  379   1.023   0.766   0.966
  121SOL    HW1  380   1.038   0.787   1.062
  121SOL    HW2  381   0.993   0.671   0.957
  122SOL     OW  382   0.980   1.573   1.700
  122SOL    HW1  383   0.960   1.617   1.612
  122SOL    HW2  384   1.019   1.482   1.684
  123SOL     OW  385   1.859   1.518   1.605
  123SOL    HW1  386   1.873   1.545   1.510
  123SOL    HW2  387   1.942   1.540   1.658
  124SOL     OW  388   0.350   0.898   1.804
  124SOL    HW1  389   0.426   0.942   1.852
  124SOL    HW2  390   0.385   0.851   1.722
  125SOL     OW  391   1.540   0.274   0.125
  125SOL    HW1  392   1.479   0.199   0.148
  125SOL    HW2  393   1.562   0.326   0.208
  126SOL     OW  394   1.303   0.838   0.042
  126SOL    HW1  395   1.337   0.745   0.057
  126SOL    HW2  396   1.321   0.865  -0.053
  127SOL     OW  397   1.068   1.333   0.849
  127SOL    HW1  398   1.075   1.249   0.794
  127SOL    HW2  399   1.130   1.402   0.813
  128SOL     OW  400   0.319   0.810   0.949
  128SOL    HW1  401   0.412   0.846   0.954
  128SOL    HW2  402   0.313   0.725   1.001
  129SOL     OW  403   0.339   0.509   1.006
  129SOL    HW1  404   0.287   0.426   0.989
  129SOL    HW2  405   0.416   0.514   0.942
  130SOL     OW  406   1.138   0.380   1.678
  130SOL    HW1  407   1.093   0.443   1.742
  130SOL    HW2  408   1.231   0.411   1.661
  131SOL     OW  409   1.160   0.207   1.477
  131SOL    HW1  410   1.160   0.271   1.554
  131SOL    HW2  411   1.188   0.255   1.394
  132SOL     OW  412   0.008   1.326   0.200
  132SOL    HW1  413  -0.085   1.347   0.169
  132SOL    HW2  414   0.018   1.227   0.213
  133SOL     OW  415   0.088   1.801   0.927
  133SOL    HW1  416   0.046   1.715   0.900
  133SOL    HW2  417   0.182   1.804   0.893
  134SOL     OW  418   0.504   1.568   0.910
  134SOL    HW1  419   0.570   1.642   0.919
  134SOL    HW2  420   0.548   1.489   0.868
  135SOL     OW  421   1.002   0.796   1.238
  135SOL    HW1  422   1.043   0.764   1.324
  135SOL    HW2  423   0.906   0.769   1.235
  136SOL     OW  424   0.040   0.544   1.114
  136SOL    HW1  425   0.125   0.511   1.073
  136SOL    HW2  426   0.053   0.559   1.212
  137SOL     OW  427   0.189   0.520   1.722
  137SOL    HW1  428   0.248   0.480   1.652
  137SOL    HW2  429   0.131   0.591   1.681
  138SOL     OW  430   1.369   0.950   1.660
  138SOL    HW1  431   1.408   1.039   1.680
  138SOL    HW2  432   1.379   0.930   1.563
  139SOL     OW  433   0.815   0.572   0.325
  139SOL    HW1  434   0.822   0.483   0.279
  139SOL    HW2  435   0.721   0.606   0.317
  140SOL     OW  436   1.657   0.604   1.206
  140SOL    HW1  437   1.619   0.535   1.268
  140SOL    HW2  438   1.739   0.568   1.162
  141SOL     OW  439   0.252   1.564   1.744
  141SOL    HW1  440   0.222   1.621   1.820
  141SOL    HW2  441   0.245   1.467   1.770
  142SOL     OW  442   0.671   0.464   1.269
  142SOL    HW1  443   0.637   0.375   1.239
  142SOL    HW2  444   0.697   0.518   1.189
  143SOL     OW  445   0.930   1.678   1.465
  143SOL    HW1  446   0.906   1.660   1.370
  143SOL    HW2  447   0.960   1.772   1.475
  144SOL     OW  448   0.473   0.500   0.191
  144SOL    HW1  449   0.534   0.580   0.195
  144SOL    HW2  450   0.378   0.531   0.198
  145SOL     OW  451   0.159   1.137   1.466
  145SOL    HW1  452   0.181   1.076   1.542
  145SOL    HW2  453   0.169   1.088   1.380
  146SOL     OW  454   1.347   1.059   1.234
  146SOL    HW1  455   1.371   0.996   1.160
  146SOL    HW2  456   1.257   1.099   1.216
  147SOL     OW  457   1.302   0.855   0.309
  147SOL    HW1  458   1.216   0.824   0.351
  147SOL    HW2  459   1.298   0.841   0.210
  148SOL     OW  460   1.759   1.747   1.154
  148SOL    HW1  461   1.820   1.777   1.081
  148SOL    HW2  462   1.721   1.658   1.132
  149SOL     OW  463   0.083   1.258   1.022
  149SOL    HW1  464   0.078   1.257   1.122
  149SOL    HW2  465   0.000   1.217   0.984
  150SOL     OW  466   0.688   1.662   1.716
  150SOL    HW1  467   0.632   1.743   1.725
  150SOL    HW2  468   0.740   1.666   1.630
  151SOL     OW  469   0.903   0.086   0.133
  151SOL    HW1  470   0.954   0.087   0.047
  151SOL    HW2  471   0.959   0.044   0.204
  152SOL     OW  472   1.726   0.135   0.523
  152SOL    HW1  473   1.799   0.118   0.456
  152SOL    HW2  474   1.695   0.048   0.561
  153SOL     OW  475   1.388   1.573   0.477
  153SOL    HW1  476   1.455   1.585   0.403
  153SOL    HW2  477   1.348   1.662   0.500
  154SOL     OW  478   0.130   1.794   1.851
  154SOL    HW1  479   0.089   1.720   1.904
  154SOL    HW2  480   0.194   1.845   1.909
  155SOL     OW  481   1.280   0.927   0.672
  155SOL    HW1  482   1.340   0.846   0.674
  155SOL    HW2  483   1.320   0.996   0.612
  156SOL     OW  484   0.830   1.273   1.422
  156SOL    HW1  485   0.825   1.306   1.517
  156SOL    HW2  486   0.744   1.292   1.376
  157SOL     OW  487   0.672   1.616   0.154
  157SOL    HW1  488   0.681   1.626   0.055
  157SOL    HW2  489   0.632   1.527   0.175
  158SOL     OW  490   1.650   1.720   1.394
  158SOL    HW1  491   1.703   1.730   1.310
  158SOL    HW2  492   1.623   1.810   1.428
  159SOL     OW  493   1.841   0.175   0.963
  159SOL    HW1  494   1.880   0.090   0.927
  159SOL    HW2  495   1.743   0.177   0.944
  160SOL     OW  496   0.263   0.326   0.720
  160SOL    HW1  497   0.184   0.377   0.686
  160SOL    HW2  498   0.254   0.311   0.818
  161SOL     OW  499   1.194   1.612   0.031
  161SOL    HW1  500   1.200   1.519   0.068
  161SOL    HW2  501   1.135   1.612  -0.049
  162SOL     OW  502   0.822   1.002   1.372
  162SOL    HW1  503   0.862   1.001   1.280
  162SOL    HW2  504   0.832   1.094   1.412
  163SOL     OW  505   0.916   0.910   0.291
  163SOL    HW1  506   0.979   0.948   0.223
  163SOL    HW2  507   0.956   0.827   0.330
  164SOL     OW  508   1.504   1.607   0.044
  164SOL    HW1  509   1.412   1.644   0.051
  164SOL    HW2  510   1.542   1.627  -0.046
  165SOL     OW  511   0.372   1.288   1.490
  165SOL    HW1  512   0.359   1.381   1.456
  165SOL    HW2  513   0.288   1.236   1.477
  166SOL     OW  514   1.039   1.098   0.696
  166SOL    HW1  515   0.969   1.051   0.750
  166SOL    HW2  516   1.098   1.030   0.653
  167SOL     OW  517   1.014   0.236   0.971
  167SOL    HW1  518   1.006   0.200   0.878
  167SOL    HW2  519   1.012   0.160   1.036
  168SOL     OW  520   0.590   1.487   0.491
  168SOL    HW1  521   0.632   1.429   0.421
  168SOL    HW2  522   0.546   1.566   0.447
  169SOL     OW  523   1.709   0.385   1.381
  169SOL    HW1  524   1.782   0.454   1.385
  169SOL    HW2  525   1.737   0.310   1.322
  170SOL     OW  526   0.255   1.348   0.290
  170SOL    HW1  527   0.159   1.349   0.263
  170SOL    HW2  528   0.267   1.401   0.374
  171SOL     OW  529   0.105   1.013   1.726
  171SOL    HW1  530   0.028   0.980   1.780
  171SOL    HW2  531   0.190   0.983   1.768
  172SOL     OW  532   0.672   0.203   1.489
  172SOL    HW1  533   0.762   0.187   1.449
  172SOL    HW2  534   0.680   0.208   1.588
  173SOL     OW  535   0.075   0.345   0.033
  173SOL    HW1  536  -0.017   0.317   0.004
  173SOL    HW2  537   0.106   0.422  -0.023
  174SOL     OW  538   1.440   0.856   1.398
  174SOL    HW1  539   1.383   0.908   1.335
  174SOL    HW2  540   1.536   0.868   1.374
  175SOL     OW  541   0.072   0.166   0.318
  175SOL    HW1  542   0.055   0.249   0.264
  175SOL    HW2  543   0.162   0.129   0.296
  176SOL     OW  544   1.183   1.335   0.119
  176SOL    HW1  545   1.084   1.324   0.121
  176SOL    HW2  546   1.217   1.350   0.212
  177SOL     OW  547   0.613   0.842   1.431
  177SOL    HW1  548   0.669   0.923   1.414
  177SOL    HW2  549   0.672   0.762   1.434
  178SOL     OW  550   1.493   1.767   0.959
  178SOL    HW1  551   1.526   1.831   0.890
  178SOL    HW2  552   1.559   1.761   1.034
  179SOL     OW  553   0.716   0.565   1.708
  179SOL    HW1  554   0.735   0.630   1.782
  179SOL    HW2  555   0.776   0.485   1.717
  180SOL     OW  556   1.450   1.220   1.633
  180SOL    HW1  557   1.441   1.210   1.732
  180SOL    HW2  558   1.546   1.213   1.607
  181SOL     OW  559   0.390   1.741   1.560
  181SOL    HW1  560   0.299   1.782   1.558
  181SOL    HW2  561   0.383   1.647   1.592
  182SOL     OW  562   1.674   0.883   1.254
  182SOL    HW1  563   1.647   0.794   1.217
  182SOL    HW2  564   1.675   0.951   1.181
  183SOL     OW  565   1.225   0.325   0.449
  183SOL    HW1  566   1.290   0.251   0.438
  183SOL    HW2  567   1.245   0.375   0.533
  184SOL     OW  568   0.594   0.745   0.652
  184SOL    HW1  569   0.644   0.830   0.633
  184SOL    HW2  570   0.506   0.747   0.604
  185SOL     OW  571   1.777   0.342   1.642
  185SOL    HW1  572   1.760   0.373   1.548
  185SOL    HW2  573   1.693   0.305   1.680
  186SOL     OW  574   1.730   0.934   1.517
  186SOL    HW1  575   1.768   1.025   1.532
  186SOL    HW2  576   1.722   0.917   1.418
  187SOL     OW  577   0.859   1.374   0.016
  187SOL    HW1  578   0.813   1.389   0.104
  187SOL    HW2  579   0.903   1.459  -0.014
  188SOL     OW  580   0.661   1.790   0.953
  188SOL    HW1  581   0.615   1.878   0.940
  188SOL    HW2  582   0.760   1.802   0.946
  189SOL     OW  583   0.859   0.956   0.861
  189SOL    HW1  584   0.913   0.887   0.909
  189SOL    HW2  585   0.827   1.025   0.927
  190SOL     OW  586   1.083   0.984   0.087
  190SOL    HW1  587   1.060   1.037   0.005
  190SOL    HW2  588   1.164   0.928   0.068
  191SOL     OW  589   1.861   1.569   0.851
  191SOL    HW1  590   1.790   1.557   0.781
  191SOL    HW2  591   1.862   1.490   0.911
  192SOL     OW  592   0.221   1.314   1.844
  192SOL    HW1  593   0.156   1.241   1.823
  192SOL    HW2  594   0.225   1.328   1.942
  193SOL     OW  595   0.079   1.240   0.653
  193SOL    HW1  596   0.078   1.193   0.741
  193SOL    HW2  597   0.161   1.212   0.602
  194SOL     OW  598   0.672   1.391   1.624
  194SOL    HW1  599   0.594   1.341   1.662
  194SOL    HW2  600   0.669   1.486   1.655
  195SOL     OW  601   1.824   0.192   1.227
  195SOL    HW1  602   1.820   0.102   1.271
  195SOL    HW2  603   1.827   0.181   1.128
  196SOL     OW  604   0.428   0.424   0.520
  196SOL    HW1  605   0.458   0.352   0.458
  196SOL    HW2  606   0.389   0.384   0.603
  197SOL     OW  607   0.317   0.547   1.280
  197SOL    HW1  608   0.355   0.488   1.352
  197SOL    HW2  609   0.357   0.521   1.192
  198SOL     OW  610   0.812   1.586   0.687
  198SOL    HW1  611   0.844   1.596   0.593
  198SOL    HW2  612   0.733   1.524   0.689
  199SOL     OW  613   1.424   0.214   1.112
  199SOL    HW1  614   1.476   0.149   1.167
  199SOL    HW2  615   1.375   0.277   1.173
  200SOL     OW  616   1.001   0.034   1.154
  200SOL    HW1  617   0.938  -0.038   1.123
  200SOL    HW2  618   1.094  -0.002   1.154
  201SOL     OW  619   0.770   1.330   0.301
  201SOL    HW1  620   0.724   1.243   0.318
  201SOL    HW2  621   0.861   1.327   0.342
  202SOL     OW  622   0.618   1.567   1.284
  202SOL    HW1  623   0.613   1.649   1.341
  202SOL    HW2  624   0.707   1.564   1.239
  203SOL     OW  625   1.352   0.052   0.168
  203SOL    HW1  626   1.387   0.011   0.084
  203SOL    HW2  627   1.262   0.014   0.188
  204SOL     OW  628   1.300   0.453   0.691
  204SOL    HW1  629   1.241   0.533   0.695
  204SOL    HW2  630   1.315   0.418   0.784
  205SOL     OW  631   1.593   0.221   0.882
  205SOL    HW1  632   1.509   0.220   0.936
  205SOL    HW2  633   1.595   0.304   0.826
  206SOL     OW  634   0.039   1.077   0.300
  206SOL    HW1  635   0.138   1.066   0.291
  206SOL    HW2  636  -0.001   0.991   0.332
  207SOL     OW  637   0.875   1.646   0.337
  207SOL    HW1  638   0.798   1.611   0.283
  207SOL    HW2  639   0.843   1.717   0.399
  208SOL     OW  640   0.230   0.628   1.975
  208SOL    HW1  641   0.137   0.626   2.012
  208SOL    HW2  642   0.231   0.589   1.883
  209SOL     OW  643   0.225   0.275   2.858
  209SOL    HW1  644   0.260   0.258   2.950
  209SOL    HW2  645   0.137   0.230   2.846
  210SOL     OW  646   0.019   0.368   2.509
  210SOL    HW1  647  -0.063   0.411   2.548
  210SOL    HW2  648  -0.009   0.295   2.446
  211SOL     OW  649   1.555   1.511   2.565
  211SOL    HW1  650   1.498   1.495   2.646
  211SOL    HW2  651   1.496   1.521   2.485
  212SOL     OW  652   1.135   0.703   2.579
  212SOL    HW1  653   1.192   0.781   2.554
  212SOL    HW2  654   1.075   0.729   2.655
  213SOL     OW  655   1.755   0.607   2.093
  213SOL    HW1  656   1.743   0.594   1.994
  213SOL    HW2  657   1.725   0.526   2.142
  214SOL     OW  658   0.768   1.144   2.885
  214SOL    HW1  659   0.690   1.161   2.945
  214SOL    HW2  660   0.802   1.231   2.849
  215SOL     OW  661   0.685   1.012   2.527
  215SOL    HW1  662   0.754   0.996   2.597
  215SOL    HW2  663   0.612   1.069   2.565
  216SOL     OW  664   0.335   1.435   2.923
  216SOL    HW1  665   0.257   1.404   2.870
  216SOL    HW2  666   0.393   1.493   2.866
  217SOL     OW  667   1.603   0.447   2.599
  217SOL    HW1  668   1.529   0.493   2.549
  217SOL    HW2  669   1.654   0.515   2.652
  218SOL     OW  670   0.231   1.713   2.345
  218SOL    HW1  671   0.265   1.790   2.399
  218SOL    HW2  672   0.275   1.713   2.255
  219SOL     OW  673   0.230   1.434   2.400
  219SOL    HW1  674   0.204   1.530   2.400
  219SOL    HW2  675   0.159   1.380   2.445
  220SOL     OW  676   0.240   1.091   2.748
  220SOL    HW1  677   0.254   1.007   2.800
  220SOL    HW2  678   0.185   1.155   2.803
  221SOL     OW  679   0.606   0.964   1.985
  221SOL    HW1  680   0.613   1.048   1.931
  221SOL    HW2  681   0.652   0.977   2.073
  222SOL     OW  682   0.122   0.643   2.425
  222SOL    HW1  683   0.077   0.555   2.442
  222SOL    HW2  684   0.121   0.697   2.509
  223SOL     OW  685   1.842   1.767   2.221
  223SOL    HW1  686   1.896   1.738   2.301
  223SOL    HW2  687   1.872   1.857   2.192
  224SOL     OW  688   0.027   1.596   1.979
  224SOL    HW1  689   0.008   1.500   2.000
  224SOL    HW2  690  -0.006   1.654   2.054
  225SOL     OW  691   1.689   0.922   2.474
  225SOL    HW1  692   1.784   0.893   2.482
  225SOL    HW2  693   1.681   0.987   2.399
  226SOL     OW  694   1.641   1.108   2.294
  226SOL    HW1  695   1.727   1.110   2.242
  226SOL    HW2  696   1.655   1.155   2.382
  227SOL     OW  697   0.613   1.365   2.588
  227SOL    HW1  698   0.564   1.278   2.597
  227SOL    HW2  699   0.590   1.408   2.501
  228SOL     OW  700   0.809   0.004   2.364
  228SOL    HW1  701   0.849   0.095   2.355
  228SOL    HW2  702   0.709   0.012   2.370
  229SOL     OW  703   1.525   0.999   2.052
  229SOL    HW1  704   1.462   0.923   2.065
  229SOL    HW2  705   1.573   1.017   2.138
  230SOL     OW  706   1.466   1.417   2.815
  230SOL    HW1  707   1.407   1.423   2.895
  230SOL    HW2  708   1.451   1.329   2.769
  231SOL     OW  709   1.667   1.714   2.434
  231SOL    HW1  710   1.626   1.691   2.346
  231SOL    HW2  711   1.649   1.640   2.499
  232SOL     OW  712   0.598   0.729   2.132
  232SOL    HW1  713   0.622   0.798   2.064
  232SOL    HW2  714   0.520   0.762   2.186
  233SOL     OW  715   1.281   0.345   2.806
  233SOL    HW1  716   1.195   0.295   2.793
  233SOL    HW2  717   1.343   0.291   2.862
  234SOL     OW  718   1.576   1.662   2.169
  234SOL    HW1  719   1.665   1.708   2.172
  234SOL    HW2  720   1.555   1.638   2.074
  235SOL     OW  721   1.041   0.701   2.291
  235SOL    HW1  722   1.067   0.697   2.387
  235SOL    HW2  723   0.956   0.650   2.277
  236SOL     OW  724   0.076   0.811   2.651
  236SOL    HW1  725   0.175   0.799   2.660
  236SOL    HW2  726   0.052   0.906   2.672
  237SOL     OW  727   0.865   0.348   2.057
  237SOL    HW1  728   0.924   0.411   2.008
  237SOL    HW2  729   0.884   0.254   2.028
  238SOL     OW  730   1.362   1.144   2.407
  238SOL    HW1  731   1.445   1.115   2.359
  238SOL    HW2  732   1.313   1.211   2.351
  239SOL     OW  733   1.008   1.456   2.339
  239SOL    HW1  734   0.962   1.528   2.287
  239SOL    HW2  735   1.004   1.476   2.437
  240SOL     OW  736   0.351   1.801   2.715
  240SOL    HW1  737   0.401   1.715   2.721
  240SOL    HW2  738   0.416   1.878   2.712
  241SOL     OW  739   1.795   1.066   2.735
  241SOL    HW1  740   1.733   1.051   2.659
  241SOL    HW2  741   1.743   1.077   2.820
  242SOL     OW  742   0.321   0.943   2.104
  242SOL    HW1  743   0.403   0.982   2.062
  242SOL    HW2  744   0.294   0.861   2.055
  243SOL     OW  745   1.458   0.735   2.590
  243SOL    HW1  746   1.453   0.670   2.665
  243SOL    HW2  747   1.538   0.794   2.603
  244SOL     OW  748   1.111   1.776   2.099
  244SOL    HW1  749   1.051   1.714   2.149
  244SOL    HW2  750   1.142   1.732   2.014
  245SOL     OW  751   0.464   1.743   2.185
  245SOL    HW1  752   0.497   1.782   2.271
  245SOL    HW2  753   0.540   1.736   2.120
  246SOL     OW  754   1.400   0.107   2.288
  246SOL    HW1  755   1.376   0.070   2.198
  246SOL    HW2  756   1.499   0.123   2.292
  247SOL     OW  757   0.249   1.785   3.103
  247SOL    HW1  758   0.306   1.720   3.153
  247SOL    HW2  759   0.233   1.752   3.010
  248SOL     OW  760   0.940   1.698   2.766
  248SOL    HW1  761   1.020   1.641   2.787
  248SOL    HW2  762   0.891   1.658   2.689
  249SOL     OW  763   0.382   0.700   2.342
  249SOL    HW1  764   0.427   0.610   2.339
  249SOL    HW2  765   0.288   0.689   2.375
  250SOL     OW  766   0.614   0.122   1.979
  250SOL    HW1  767   0.712   0.100   1.986
  250SOL    HW2  768   0.583   0.105   1.886
  251SOL     OW  769   0.922   0.503   2.761
  251SOL    HW1  770   0.897   0.494   2.665
  251SOL    HW2  771   0.970   0.421   2.792
  252SOL     OW  772   0.539   0.064   2.374
  252SOL    HW1  773   0.458   0.065   2.432
  252SOL    HW2  774   0.542   0.147   2.319
  253SOL     OW  775   1.434   1.188   1.903
  253SOL    HW1  776   1.466   1.112   1.960
  253SOL    HW2  777   1.342   1.215   1.933
  254SOL     OW  778   0.297   0.035   2.033
  254SOL    HW1  779   0.346   0.119   2.012
  254SOL    HW2  780   0.359  -0.030   2.078
  255SOL     OW  781   0.935   0.236   2.342
  255SOL    HW1  782   0.887   0.277   2.264
  255SOL    HW2  783   1.034   0.234   2.323
  256SOL     OW  784   1.227   1.570   2.655
  256SOL    HW1  785   1.248   1.644   2.590
  256SOL    HW2  786   1.295   1.570   2.728
  257SOL     OW  787   0.459   1.152   2.603
  257SOL    HW1  788   0.388   1.125   2.668
  257SOL    HW2  789   0.433   1.124   2.510
  258SOL     OW  790   1.271   1.797   2.453
  258SOL    HW1  791   1.315   1.861   2.389
  258SOL    HW2  792   1.221   1.849   2.523
  259SOL     OW  793   1.032   0.549   1.878
  259SOL    HW1  794   0.991   0.631   1.839
  259SOL    HW2  795   1.096   0.575   1.951
  260SOL     OW  796   0.866   0.454   2.504
  260SOL    HW1  797   0.834   0.526   2.442
  260SOL    HW2  798   0.890   0.373   2.451
  261SOL     OW  799   1.017   0.039   2.615
  261SOL    HW1  800   0.945   0.044   2.546
  261SOL    HW2  801   0.993  -0.030   2.684
  262SOL     OW  802   1.429   1.173   2.729
  262SOL    HW1  803   1.374   1.089   2.722
  262SOL    HW2  804   1.455   1.202   2.637
  263SOL     OW  805   1.857   0.833   2.239
  263SOL    HW1  806   1.899   0.769   2.303
  263SOL    HW2  807   1.819   0.782   2.161
  264SOL     OW  808   0.488   1.385   2.036
  264SOL    HW1  809   0.401   1.370   2.083
  264SOL    HW2  810   0.471   1.411   1.941
  265SOL     OW  811   1.664   1.280   2.519
  265SOL    HW1  812   1.763   1.288   2.533
  265SOL    HW2  813   1.619   1.364   2.550
  266SOL     OW  814   1.390   0.575   1.940
  266SOL    HW1  815   1.336   0.554   2.021
  266SOL    HW2  816   1.481   0.534   1.949
  267SOL     OW  817   0.527   0.256   2.190
  267SOL    HW1  818   0.554   0.197   2.115
  267SOL    HW2  819   0.527   0.351   2.159
  268SOL     OW  820   1.638   1.099   2.941
  268SOL    HW1  821   1.643   1.180   3.000
  268SOL    HW2  822   1.552   1.101   2.890
  269SOL     OW  823   0.705   1.050   2.230
  269SOL    HW1  824   0.691   1.057   2.329
  269SOL    HW2  825   0.789   0.999   2.212
  270SOL     OW  826   0.367   1.100   2.363
  270SOL    HW1  827   0.360   1.183   2.307
  270SOL    HW2  828   0.371   1.020   2.303
  271SOL     OW  829   0.566   0.537   2.727
  271SOL    HW1  830   0.578   0.603   2.653
  271SOL    HW2  831   0.612   0.571   2.810
  272SOL     OW  832   1.252   1.348   2.250
  272SOL    HW1  833   1.302   1.425   2.290
  272SOL    HW2  834   1.157   1.350   2.282
  273SOL     OW  835   1.582   0.639   2.334
  273SOL    HW1  836   1.551   0.700   2.407
  273SOL    HW2  837   1.632   0.691   2.265
  274SOL     OW  838   1.209   0.525   2.137
  274SOL    HW1  839   1.222   0.441   2.191
  274SOL    HW2  840   1.180   0.599   2.197
  275SOL     OW  841   0.732   0.634   2.926
  275SOL    HW1  842   0.791   0.608   2.850
  275SOL    HW2  843   0.704   0.730   2.915
  276SOL     OW  844   0.307   0.063   2.480
  276SOL    HW1  845   0.296   0.157   2.513
  276SOL    HW2  846   0.302   0.000   2.557
  277SOL     OW  847   1.622   0.367   2.236
  277SOL    HW1  848   1.624   0.291   2.300
  277SOL    HW2  849   1.574   0.444   2.276
  278SOL     OW  850   1.540   0.274   1.987
  278SOL    HW1  851   1.479   0.199   2.010
  278SOL    HW2  852   1.562   0.326   2.070
  279SOL     OW  853   1.303   0.838   1.904
  279SOL    HW1  854   1.337   0.745   1.919
  279SOL    HW2  855   1.321   0.865   1.809
  280SOL     OW  856   1.068   1.333   2.711
  280SOL    HW1  857   1.075   1.249   2.656
  280SOL    HW2  858   1.130   1.402   2.675
  281SOL     OW  859   0.319   0.810   2.811
  281SOL    HW1  860   0.412   0.846   2.816
  281SOL    HW2  861   0.313   0.725   2.863
  282SOL     OW  862   0.008   1.326   2.062
  282SOL    HW1  863  -0.085   1.347   2.031
  282SOL    HW2  864   0.018   1.227   2.075
  283SOL     OW  865   0.088   1.801   2.789
  283SOL    HW1  866   0.046   1.715   2.762
  283SOL    HW2  867   0.182   1.804   2.755
  284SOL     OW  868   0.504   1.568   2.772
  284SOL    HW1  869   0.570   1.642   2.781
  284SOL    HW2  870   0.548   1.489   2.730
  285SOL     OW  871   0.815   0.572   2.187
  285SOL    HW1  872   0.822   0.483   2.141
  285SOL    HW2  873   0.721   0.606   2.179
  286SOL     OW  874   0.671   0.464   3.131
  286SOL    HW1  875   0.637   0.375   3.101
  286SOL    HW2  876   0.697   0.518   3.051
  287SOL     OW  877   0.473   0.500   2.053
  287SOL    HW1  878   0.534   0.580   2.057
  287SOL    HW2  879   0.378   0.531   2.060
  288SOL     OW  880   1.302   0.855   2.171
  288SOL    HW1  881   1.216   0.824   2.213
  288SOL    HW2  882   1.298   0.841   2.072
  289SOL     OW  883   1.759   1.747   3.016
  289SOL    HW1  884   1.820   1.777   2.943
  289SOL    HW2  885   1.721   1.658   2.994
  290SOL     OW  886   0.083   1.258   2.884
  290SOL    HW1  887   0.078   1.257   2.984
  290SOL    HW2  888   0.000   1.217   2.846
  291SOL     OW  889   1.726   0.135   2.385
  291SOL    HW1  890   1.799   0.118   2.318
  291SOL    HW2  891   1.695   0.048   2.423
  292SOL     OW  892   1.388   1.573   2.339
  292SOL    HW1  893   1.455   1.585   2.265
  292SOL    HW2  894   1.348   1.662   2.362
  293SOL     OW  895   1.280   0.927   2.534
  293SOL    HW1  896   1.340   0.846   2.536
  293SOL    HW2  897   1.320   0.996   2.474
  294SOL     OW  898   0.672   1.616   2.016
  294SOL    HW1  899   0.681   1.626   1.917
  294SOL    HW2  900   0.632   1.527   2.037
  295SOL     OW  901   1.841   0.175   2.825
  295SOL    HW1  902   1.880   0.090   2.789
  295SOL    HW2  903   1.743   0.177   2.806
  296SOL     OW  904   0.263   0.326   2.582
  296SOL    HW1  905   0.184   0.377   2.548
  296SOL    HW2  906   0.254   0.311   2.680
  297SOL     OW  907   1.194   1.612   1.893
  297SOL    HW1  908   1.200   1.519   1.930
  297SOL    HW2  909   1.135   1.612   1.813
  298SOL     OW  910   0.916   0.910   2.153
  298SOL    HW1  911   0.979   0.948   2.085
  298SOL    HW2  912   0.956   0.827   2.192
  299SOL     OW  913   1.039   1.098   2.558
  299SOL    HW1  914   0.969   1.051   2.612
  299SOL    HW2  915   1.098   1.030   2.515
  300SOL     OW  916   0.590   1.487   2.353
  300SOL    HW1  917   0.632   1.429   2.283
  300SOL    HW2  918   0.546   1.566   2.309
  301SOL     OW  919   0.255   1.348   2.152
  301SOL    HW1  920   0.159   1.349   2.125
  301SOL    HW2  921   0.267   1.401   2.236
  302SOL     OW  922   0.075   0.345   1.895
  302SOL    HW1  923  -0.017   0.317   1.866
  302SOL    HW2  924   0.106   0.422   1.839
  303SOL     OW  925   0.072   0.166   2.180
  303SOL    HW1  926   0.055   0.249   2.126
  303SOL    HW2  927   0.162   0.129   2.158
  304SOL     OW  928   1.183   1.335   1.981
  304SOL    HW1  929   1.084   1.324   1.983
  304SOL    HW2  930   1.217   1.350   2.074
  305SOL     OW  931   1.674   0.883   3.116
  305SOL    HW1  932   1.647   0.794   3.079
  305SOL    HW2  933   1.675   0.951   3.043
  306SOL     OW  934   1.225   0.325   2.311
  306SOL    HW1  935   1.290   0.251   2.300
  306SOL    HW2  936   1.245   0.375   2.395
  307SOL     OW  937   0.594   0.745   2.514
  307SOL    HW1  938   0.644   0.830   2.495
  307SOL    HW2  939   0.506   0.747   2.466
  308SOL     OW  940   0.859   1.374   1.878
  308SOL    HW1  941   0.813   1.389   1.966
  308SOL    HW2  942   0.903   1.459   1.848
  309SOL     OW  943   0.661   1.790   2.815
  309SOL    HW1  944   0.615   1.878   2.802
  309SOL    HW2  945   0.760   1.802   2.808
  310SOL     OW  946   0.859   0.956   2.723
  310SOL    HW1  947   0.913   0.887   2.771
  310SOL    HW2  948   0.827   1.025   2.789
  311SOL     OW  949   1.083   0.984   1.949
  311SOL    HW1  950   1.060   1.037   1.867
  311SOL    HW2  951   1.164   0.928   1.930
  312SOL     OW  952   1.861   1.569   2.713
  312SOL    HW1  953   1.790   1.557   2.643
  312SOL    HW2  954   1.862   1.490   2.773
  313SOL     OW  955   0.079   1.240   2.515
  313SOL    HW1  956   0.078   1.193   2.603
  313SOL    HW2  957   0.161   1.212   2.464
  314SOL     OW  958   1.824   0.192   3.089
  314SOL    HW1  959   1.820   0.102   3.133
  314SOL    HW2  960   1.827   0.181   2.990
  315SOL     OW  961   0.428   0.424   2.382
  315SOL    HW1  962   0.458   0.352   2.320
  315SOL    HW2  963   0.389   0.384   2.465
  316SOL     OW  964   0.812   1.586   2.549
  316SOL    HW1  965   0.844   1.596   2.455
  316SOL    HW2  966   0.733   1.524   2.551
  317SOL     OW  967   0.770   1.330   2.163
  317SOL    HW1  968   0.724   1.243   2.180
  317SOL    HW2  969   0.861   1.327   2.204
  318SOL     OW  970   1.352   0.052   2.030
  318SOL    HW1  971   1.387   0.011   1.946
  318SOL    HW2  972   1.262   0.014   2.050
  319SOL     OW  973   1.300   0.453   2.553
  319SOL    HW1  974   1.241   0.533   2.557
  319SOL    HW2  975   1.315   0.418   2.646
  320SOL     OW  976   1.593   0.221   2.744
  320SOL    HW1  977   1.509   0.220   2.798
  320SOL    HW2  978   1.595   0.304   2.688
  321SOL     OW  979   0.039   1.077   2.162
  321SOL    HW1  980   0.138   1.066   2.153
  321SOL    HW2  981  -0.001   0.991   2.194
  322SOL     OW  982   0.875   1.646   2.199
  322SOL    HW1  983   0.798   1.611   2.145
  322SOL    HW2  984   0.843   1.717   2.261
  323SOL     OW  985   0.230   2.490   0.113
  323SOL    HW1  986   0.137   2.488   0.150
  323SOL    HW2  987   0.231   2.451   0.021
  324SOL     OW  988   0.225   2.137   0.996
  324SOL    HW1  989   0.260   2.120   1.088
  324SOL    HW2  990   0.137   2.092   0.984
  325SOL     OW  991   0.019   2.230   0.647
  325SOL    HW1  992  -0.063   2.273   0.686
  325SOL    HW2  993  -0.009   2.157   0.584
  326SOL     OW  994   1.135   2.565   0.717
  326SOL    HW1  995   1.192   2.643   0.692
  326SOL    HW2  996   1.075   2.591   0.793
  327SOL     OW  997   1.755   2.469   0.231
  327SOL    HW1  998   1.743   2.456   0.132
  327SOL    HW2  999   1.725   2.388   0.280
  328SOL     OW 1000   0.768   3.006   1.023
  328SOL    HW1 1001   0.690   3.023   1.083
  328SOL    HW2 1002   0.802   3.093   0.987
  329SOL     OW 1003   0.850   2.660   1.823
  329SOL    HW1 1004   0.846   2.736   1.888
  329SOL    HW2 1005   0.872   2.696   1.732
  330SOL     OW 1006   0.685   2.874   0.665
  330SOL    HW1 1007   0.754   2.858   0.735
  330SOL    HW2 1008   0.612   2.931   0.703
  331SOL     OW 1009   0.438   2.254   1.499
  331SOL    HW1 1010   0.520   2.198   1.508
  331SOL    HW2 1011   0.357   2.196   1.503
  332SOL     OW 1012   1.603   2.309   0.737
  332SOL    HW1 1013   1.529   2.355   0.687
  332SOL    HW2 1014   1.654   2.377   0.790
  333SOL     OW 1015   0.240   2.953   0.886
  333SOL    HW1 1016   0.254   2.869   0.938
  333SOL    HW2 1017   0.185   3.017   0.941
  334SOL     OW 1018   1.594   1.976   1.480
  334SOL    HW1 1019   1.576   2.043   1.408
  334SOL    HW2 1020   1.591   2.022   1.569
  335SOL     OW 1021   0.122   2.505   0.563
  335SOL    HW1 1022   0.077   2.417   0.580
  335SOL    HW2 1023   0.121   2.559   0.647
  336SOL     OW 1024   0.113   2.599   1.597
  336SOL    HW1 1025   0.201   2.586   1.642
  336SOL    HW2 1026   0.100   2.696   1.575
  337SOL     OW 1027   0.809   1.866   0.502
  337SOL    HW1 1028   0.849   1.957   0.493
  337SOL    HW2 1029   0.709   1.874   0.508
  338SOL     OW 1030   0.197   2.838   1.264
  338SOL    HW1 1031   0.286   2.793   1.250
  338SOL    HW2 1032   0.124   2.773   1.245
  339SOL     OW 1033   1.525   2.861   0.190
  339SOL    HW1 1034   1.462   2.785   0.203
  339SOL    HW2 1035   1.573   2.879   0.276
  340SOL     OW 1036   0.317   2.113   1.801
  340SOL    HW1 1037   0.388   2.184   1.807
  340SOL    HW2 1038   0.229   2.152   1.829
  341SOL     OW 1039   0.598   2.591   0.270
  341SOL    HW1 1040   0.622   2.660   0.202
  341SOL    HW2 1041   0.520   2.624   0.324
  342SOL     OW 1042   1.281   2.207   0.944
  342SOL    HW1 1043   1.195   2.157   0.931
  342SOL    HW2 1044   1.343   2.153   1.000
  343SOL     OW 1045   0.807   2.467   1.465
  343SOL    HW1 1046   0.760   2.464   1.554
  343SOL    HW2 1047   0.756   2.412   1.399
  344SOL     OW 1048   1.394   2.331   1.674
  344SOL    HW1 1049   1.374   2.374   1.762
  344SOL    HW2 1050   1.472   2.269   1.683
  345SOL     OW 1051   0.973   2.752   1.572
  345SOL    HW1 1052   1.019   2.668   1.543
  345SOL    HW2 1053   0.917   2.786   1.497
  346SOL     OW 1054   0.991   2.272   1.242
  346SOL    HW1 1055   0.914   2.306   1.296
  346SOL    HW2 1056   0.957   2.221   1.163
  347SOL     OW 1057   1.041   2.563   0.429
  347SOL    HW1 1058   1.067   2.559   0.525
  347SOL    HW2 1059   0.956   2.512   0.415
  348SOL     OW 1060   0.076   2.673   0.789
  348SOL    HW1 1061   0.175   2.661   0.798
  348SOL    HW2 1062   0.052   2.768   0.810
  349SOL     OW 1063   0.865   2.210   0.195
  349SOL    HW1 1064   0.924   2.273   0.146
  349SOL    HW2 1065   0.884   2.116   0.166
  350SOL     OW 1066   1.719   2.447   1.831
  350SOL    HW1 1067   1.693   2.536   1.795
  350SOL    HW2 1068   1.717   2.379   1.758
  351SOL     OW 1069   0.550   2.058   0.885
  351SOL    HW1 1070   0.545   2.053   0.985
  351SOL    HW2 1071   0.552   2.154   0.856
  352SOL     OW 1072   1.458   2.597   0.728
  352SOL    HW1 1073   1.453   2.532   0.803
  352SOL    HW2 1074   1.538   2.656   0.741
  353SOL     OW 1075   0.202   2.147   1.498
  353SOL    HW1 1076   0.122   2.207   1.485
  353SOL    HW2 1077   0.192   2.098   1.584
  354SOL     OW 1078   1.400   1.969   0.426
  354SOL    HW1 1079   1.376   1.932   0.336
  354SOL    HW2 1080   1.499   1.985   0.430
  355SOL     OW 1081   0.382   2.562   0.480
  355SOL    HW1 1082   0.427   2.472   0.477
  355SOL    HW2 1083   0.288   2.551   0.513
  356SOL     OW 1084   1.547   2.084   1.729
  356SOL    HW1 1085   1.542   2.121   1.821
  356SOL    HW2 1086   1.475   2.015   1.717
  357SOL     OW 1087   0.614   1.984   0.117
  357SOL    HW1 1088   0.712   1.962   0.124
  357SOL    HW2 1089   0.583   1.967   0.024
  358SOL     OW 1090   0.781   2.126   1.749
  358SOL    HW1 1091   0.848   2.065   1.792
  358SOL    HW2 1092   0.708   2.145   1.814
  359SOL     OW 1093   1.351   2.452   1.433
  359SOL    HW1 1094   1.379   2.409   1.518
  359SOL    HW2 1095   1.376   2.548   1.434
  360SOL     OW 1096   0.922   2.365   0.899
  360SOL    HW1 1097   0.897   2.356   0.803
  360SOL    HW2 1098   0.970   2.283   0.930
  361SOL     OW 1099   0.539   1.926   0.512
  361SOL    HW1 1100   0.458   1.927   0.570
  361SOL    HW2 1101   0.542   2.009   0.457
  362SOL     OW 1102   0.935   2.098   0.480
  362SOL    HW1 1103   0.887   2.139   0.402
  362SOL    HW2 1104   1.034   2.096   0.461
  363SOL     OW 1105   1.076   2.545   1.464
  363SOL    HW1 1106   0.996   2.484   1.467
  363SOL    HW2 1107   1.157   2.492   1.440
  364SOL     OW 1108   1.032   2.411   0.016
  364SOL    HW1 1109   0.991   2.493  -0.023
  364SOL    HW2 1110   1.096   2.437   0.089
  365SOL     OW 1111   0.078   2.418   1.386
  365SOL    HW1 1112   0.170   2.417   1.345
  365SOL    HW2 1113   0.072   2.492   1.453
  366SOL     OW 1114   0.561   2.084   1.147
  366SOL    HW1 1115   0.599   2.000   1.184
  366SOL    HW2 1116   0.473   2.103   1.191
  367SOL     OW 1117   0.866   2.316   0.642
  367SOL    HW1 1118   0.834   2.388   0.580
  367SOL    HW2 1119   0.890   2.235   0.589
  368SOL     OW 1120   1.017   1.901   0.753
  368SOL    HW1 1121   0.945   1.906   0.684
  368SOL    HW2 1122   0.993   1.832   0.822
  369SOL     OW 1123   1.466   2.452   0.992
  369SOL    HW1 1124   1.436   2.357   0.999
  369SOL    HW2 1125   1.539   2.468   1.058
  370SOL     OW 1126   1.857   2.695   0.377
  370SOL    HW1 1127   1.899   2.631   0.441
  370SOL    HW2 1128   1.819   2.644   0.299
  371SOL     OW 1129   1.390   2.437   0.078
  371SOL    HW1 1130   1.336   2.416   0.159
  371SOL    HW2 1131   1.481   2.396   0.087
  372SOL     OW 1132   0.527   2.118   0.328
  372SOL    HW1 1133   0.554   2.059   0.253
  372SOL    HW2 1134   0.527   2.213   0.297
  373SOL     OW 1135   1.638   2.961   1.079
  373SOL    HW1 1136   1.643   3.042   1.138
  373SOL    HW2 1137   1.552   2.963   1.028
  374SOL     OW 1138   0.915   1.951   1.402
  374SOL    HW1 1139   0.940   1.931   1.307
  374SOL    HW2 1140   0.987   2.007   1.444
  375SOL     OW 1141   0.410   2.675   1.251
  375SOL    HW1 1142   0.496   2.687   1.301
  375SOL    HW2 1143   0.368   2.588   1.278
  376SOL     OW 1144   1.274   2.248   1.262
  376SOL    HW1 1145   1.295   2.322   1.326
  376SOL    HW2 1146   1.185   2.265   1.219
  377SOL     OW 1147   0.566   2.399   0.865
  377SOL    HW1 1148   0.578   2.465   0.791
  377SOL    HW2 1149   0.612   2.433   0.948
  378SOL     OW 1150   1.582   2.501   0.472
  378SOL    HW1 1151   1.551   2.562   0.545
  378SOL    HW2 1152   1.632   2.553   0.403
  379SOL     OW 1153   0.402   2.613   1.598
  379SOL    HW1 1154   0.470   2.668   1.551
  379SOL    HW2 1155   0.442   2.525   1.625
  380SOL     OW 1156   1.587   2.641   1.670
  380SOL    HW1 1157   1.495   2.679   1.665
  380SOL    HW2 1158   1.647   2.688   1.605
  381SOL     OW 1159   1.013   1.967   1.770
  381SOL    HW1 1160   1.019   2.052   1.718
  381SOL    HW2 1161   1.045   1.891   1.713
  382SOL     OW 1162   0.504   1.912   1.740
  382SOL    HW1 1163   0.462   1.855   1.670
  382SOL    HW2 1164   0.438   1.981   1.772
  383SOL     OW 1165   0.573   2.732   1.029
  383SOL    HW1 1166   0.617   2.821   1.020
  383SOL    HW2 1167   0.510   2.732   1.106
  384SOL     OW 1168   1.360   2.724   1.045
  384SOL    HW1 1169   1.285   2.724   0.979
  384SOL    HW2 1170   1.397   2.632   1.054
  385SOL     OW 1171   1.209   2.387   0.275
  385SOL    HW1 1172   1.222   2.303   0.329
  385SOL    HW2 1173   1.180   2.461   0.335
  386SOL     OW 1174   0.307   2.075   1.231
  386SOL    HW1 1175   0.284   2.112   1.321
  386SOL    HW2 1176   0.277   1.980   1.225
  387SOL     OW 1177   0.037   3.172   1.282
  387SOL    HW1 1178   0.090   3.123   1.350
  387SOL    HW2 1179   0.059   3.270   1.287
  388SOL     OW 1180   0.732   2.496   1.064
  388SOL    HW1 1181   0.791   2.470   0.988
  388SOL    HW2 1182   0.704   2.592   1.053
  389SOL     OW 1183   1.728   2.797   1.854
  389SOL    HW1 1184   1.682   2.790   1.765
  389SOL    HW2 1185   1.666   2.841   1.920
  390SOL     OW 1186   0.307   1.925   0.618
  390SOL    HW1 1187   0.296   2.019   0.651
  390SOL    HW2 1188   0.302   1.862   0.695
  391SOL     OW 1189   1.622   2.229   0.374
  391SOL    HW1 1190   1.624   2.153   0.438
  391SOL    HW2 1191   1.574   2.306   0.414
  392SOL     OW 1192   1.023   2.628   0.966
  392SOL    HW1 1193   1.038   2.649   1.062
  392SOL    HW2 1194   0.993   2.533   0.957
  393SOL     OW 1195   0.350   2.760   1.804
  393SOL    HW1 1196   0.426   2.804   1.852
  393SOL    HW2 1197   0.385   2.713   1.722
  394SOL     OW 1198   1.540   2.136   0.125
  394SOL    HW1 1199   1.479   2.061   0.148
  394SOL    HW2 1200   1.562   2.188   0.208
  395SOL     OW 1201   1.303   2.700   0.042
  395SOL    HW1 1202   1.337   2.607   0.057
  395SOL    HW2 1203   1.321   2.727  -0.053
  396SOL     OW 1204   0.319   2.672   0.949
  396SOL    HW1 1205   0.412   2.708   0.954
  396SOL    HW2 1206   0.313   2.587   1.001
  397SOL     OW 1207   0.339   2.371   1.006
  397SOL    HW1 1208   0.287   2.288   0.989
  397SOL    HW2 1209   0.416   2.376   0.942
  398SOL     OW 1210   1.138   2.242   1.678
  398SOL    HW1 1211   1.093   2.305   1.742
  398SOL    HW2 1212   1.231   2.273   1.661
  399SOL     OW 1213   1.160   2.069   1.477
  399SOL    HW1 1214   1.160   2.133   1.554
  399SOL    HW2 1215   1.188   2.117   1.394
  400SOL     OW 1216   1.002   2.658   1.238
  400SOL    HW1 1217   1.043   2.626   1.324
  400SOL    HW2 1218   0.906   2.631   1.235
  401SOL     OW 1219   0.040   2.406   1.114
  401SOL    HW1 1220   0.125   2.373   1.073
  401SOL    HW2 1221   0.053   2.421   1.212
  402SOL     OW 1222   0.189   2.382   1.722
  402SOL    HW1 1223   0.248   2.342   1.652
  402SOL    HW2 1224   0.131   2.453   1.681
  403SOL     OW 1225   1.369   2.812   1.660
  403SOL    HW1 1226   1.408   2.901   1.680
  403SOL    HW2 1227   1.379   2.792   1.563
  404SOL     OW 1228   0.815   2.434   0.325
  404SOL    HW1 1229   0.822   2.345   0.279
  404SOL    HW2 1230   0.721   2.468   0.317
  405SOL     OW 1231   1.657   2.466   1.206
  405SOL    HW1 1232   1.619   2.397   1.268
  405SOL    HW2 1233   1.739   2.430   1.162
  406SOL     OW 1234   0.671   2.326   1.269
  406SOL    HW1 1235   0.637   2.237   1.239
  406SOL    HW2 1236   0.697   2.380   1.189
  407SOL     OW 1237   0.473   2.362   0.191
  407SOL    HW1 1238   0.534   2.442   0.195
  407SOL    HW2 1239   0.378   2.393   0.198
  408SOL     OW 1240   0.159   2.999   1.466
  408SOL    HW1 1241   0.181   2.938   1.542
  408SOL    HW2 1242   0.169   2.950   1.380
  409SOL     OW 1243   1.347   2.921   1.234
  409SOL    HW1 1244   1.371   2.858   1.160
  409SOL    HW2 1245   1.257   2.961   1.216
  410SOL     OW 1246   1.302   2.717   0.309
  410SOL    HW1 1247   1.216   2.686   0.351
  410SOL    HW2 1248   1.298   2.703   0.210
  411SOL     OW 1249   0.903   1.948   0.133
  411SOL    HW1 1250   0.954   1.949   0.047
  411SOL    HW2 1251   0.959   1.906   0.204
  412SOL     OW 1252   1.726   1.997   0.523
  412SOL    HW1 1253   1.799   1.980   0.456
  412SOL    HW2 1254   1.695   1.910   0.561
  413SOL     OW 1255   1.280   2.789   0.672
  413SOL    HW1 1256   1.340   2.708   0.674
  413SOL    HW2 1257   1.320   2.858   0.612
  414SOL     OW 1258   1.841   2.037   0.963
  414SOL    HW1 1259   1.880   1.952   0.927
  414SOL    HW2 1260   1.743   2.039   0.944
  415SOL     OW 1261   0.263   2.188   0.720
  415SOL    HW1 1262   0.184   2.239   0.686
  415SOL    HW2 1263   0.254   2.173   0.818
  416SOL     OW 1264   0.916   2.772   0.291
  416SOL    HW1 1265   0.979   2.810   0.223
  416SOL    HW2 1266   0.956   2.689   0.330
  417SOL     OW 1267   1.014   2.098   0.971
  417SOL    HW1 1268   1.006   2.062   0.878
  417SOL    HW2 1269   1.012   2.022   1.036
  418SOL     OW 1270   1.709   2.247   1.381
  418SOL    HW1 1271   1.782   2.316   1.385
  418SOL    HW2 1272   1.737   2.172   1.322
  419SOL     OW 1273   0.105   2.875   1.726
  419SOL    HW1 1274   0.028   2.842   1.780
  419SOL    HW2 1275   0.190   2.845   1.768
  420SOL     OW 1276   0.672   2.065   1.489
  420SOL    HW1 1277   0.762   2.049   1.449
  420SOL    HW2 1278   0.680   2.070   1.588
  421SOL     OW 1279   0.075   2.207   0.033
  421SOL    HW1 1280  -0.017   2.179   0.004
  421SOL    HW2 1281   0.106   2.284  -0.023
  422SOL     OW 1282   1.440   2.718   1.398
  422SOL    HW1 1283   1.383   2.770   1.335
  422SOL    HW2 1284   1.536   2.730   1.374
  423SOL     OW 1285   0.072   2.028   0.318
  423SOL    HW1 1286   0.055   2.111   0.264
  423SOL    HW2 1287   0.162   1.991   0.296
  424SOL     OW 1288   0.613   2.704   1.431
  424SOL    HW1 1289   0.669   2.785   1.414
  424SOL    HW2 1290   0.672   2.624   1.434
  425SOL     OW 1291   0.716   2.427   1.708
  425SOL    HW1 1292   0.735   2.492   1.782
  425SOL    HW2 1293   0.776   2.347   1.717
  426SOL     OW 1294   1.674   2.745   1.254
  426SOL    HW1 1295   1.647   2.656   1.217
  426SOL    HW2 1296   1.675   2.813   1.181
  427SOL     OW 1297   1.225   2.187   0.449
  427SOL    HW1 1298   1.290   2.113   0.438
  427SOL    HW2 1299   1.245   2.237   0.533
  428SOL     OW 1300   0.594   2.607   0.652
  428SOL    HW1 1301   0.644   2.692   0.633
  428SOL    HW2 1302   0.506   2.609   0.604
  429SOL     OW 1303   1.777   2.204   1.642
  429SOL    HW1 1304   1.760   2.235   1.548
  429SOL    HW2 1305   1.693   2.167   1.680
  430SOL     OW 1306   1.730   2.796   1.517
  430SOL    HW1 1307   1.768   2.887   1.532
  430SOL    HW2 1308   1.722   2.779   1.418
  431SOL     OW 1309   0.859   2.818   0.861
  431SOL    HW1 1310   0.913   2.749   0.909
  431SOL    HW2 1311   0.827   2.887   0.927
  432SOL     OW 1312   1.083   2.846   0.087
  432SOL    HW1 1313   1.060   2.899   0.005
  432SOL    HW2 1314   1.164   2.790   0.068
  433SOL     OW 1315   0.079   3.102   0.653
  433SOL    HW1 1316   0.078   3.055   0.741
  433SOL    HW2 1317   0.161   3.074   0.602
  434SOL     OW 1318   1.824   2.054   1.227
  434SOL    HW1 1319   1.820   1.964   1.271
  434SOL    HW2 1320   1.827   2.043   1.128
  435SOL     OW 1321   0.428   2.286   0.520
  435SOL    HW1 1322   0.458   2.214   0.458
  435SOL    HW2 1323   0.389   2.246   0.603
  436SOL     OW 1324   0.317   2.409   1.280
  436SOL    HW1 1325   0.355   2.350   1.352
  436SOL    HW2 1326   0.357   2.383   1.192
  437SOL     OW 1327   1.424   2.076   1.112
  437SOL    HW1 1328   1.476   2.011   1.167
  437SOL    HW2 1329   1.375   2.139   1.173
  438SOL     OW 1330   1.001   1.896   1.154
  438SOL    HW1 1331   0.938   1.824   1.123
  438SOL    HW2 1332   1.094   1.860   1.154
  439SOL     OW 1333   1.352   1.914   0.168
  439SOL    HW1 1334   1.387   1.873   0.084
  439SOL    HW2 1335   1.262   1.876   0.188
  440SOL     OW 1336   1.300   2.315   0.691
  440SOL    HW1 1337   1.241   2.395   0.695
  440SOL    HW2 1338   1.315   2.280   0.784
  441SOL     OW 1339   1.593   2.083   0.882
  441SOL    HW1 1340   1.509   2.082   0.936
  441SOL    HW2 1341   1.595   2.166   0.826
  442SOL     OW 1342   0.230   2.490   1.975
  442SOL    HW1 1343   0.137   2.488   2.012
  442SOL    HW2 1344   0.231   2.451   1.883
  443SOL     OW 1345   0.225   2.137   2.858
  443SOL    HW1 1346   0.260   2.120   2.950
  443SOL    HW2 1347   0.137   2.092   2.846
  444SOL     OW 1348   0.019   2.230   2.509
  444SOL    HW1 1349  -0.063   2.273   2.548
  444SOL    HW2 1350  -0.009   2.157   2.446
  445SOL     OW 1351   1.135   2.565   2.579
  445SOL    HW1 1352   1.192   2.643   2.554
  445SOL    HW2 1353   1.075   2.591   2.655
  446SOL     OW 1354   1.755   2.469   2.093
  446SOL    HW1 1355   1.743   2.456   1.994
  446SOL    HW2 1356   1.725   2.388   2.142
  447SOL     OW 1357   0.685   2.874   2.527
  447SOL    HW1 1358   0.754   2.858   2.597
  447SOL    HW2 1359   0.612   2.931   2.565
  448SOL     OW 1360   1.603   2.309   2.599
  448SOL    HW1 1361   1.529   2.355   2.549
  448SOL    HW2 1362   1.654   2.377   2.652
  449SOL     OW 1363   0.240   2.953   2.748
  449SOL    HW1 1364   0.254   2.869   2.800
  449SOL    HW2 1365   0.185   3.017   2.803
  450SOL     OW 1366   0.122   2.505   2.425
  450SOL    HW1 1367   0.077   2.417   2.442
  450SOL    HW2 1368   0.121   2.559   2.509
  451SOL     OW 1369   0.613   3.227   2.588
  451SOL    HW1 1370   0.564   3.140   2.597
  451SOL    HW2 1371   0.590   3.270   2.501
  452SOL     OW 1372   0.809   1.866   2.364
  452SOL    HW1 1373   0.849   1.957   2.355
  452SOL    HW2 1374   0.709   1.874   2.370
  453SOL     OW 1375   1.525   2.861   2.052
  453SOL    HW1 1376   1.462   2.785   2.065
  453SOL    HW2 1377   1.573   2.879   2.138
  454SOL     OW 1378   0.598   2.591   2.132
  454SOL    HW1 1379   0.622   2.660   2.064
  454SOL    HW2 1380   0.520   2.624   2.186
  455SOL     OW 1381   1.281   2.207   2.806
  455SOL    HW1 1382   1.195   2.157   2.793
  455SOL    HW2 1383   1.343   2.153   2.862
  456SOL     OW 1384   1.041   2.563   2.291
  456SOL    HW1 1385   1.067   2.559   2.387
  456SOL    HW2 1386   0.956   2.512   2.277
  457SOL     OW 1387   0.076   2.673   2.651
  457SOL    HW1 1388   0.175   2.661   2.660
  457SOL    HW2 1389   0.052   2.768   2.672
  458SOL     OW 1390   0.865   2.210   2.057
  458SOL    HW1 1391   0.924   2.273   2.008
  458SOL    HW2 1392   0.884   2.116   2.028
  459SOL     OW 1393   1.458   2.597   2.590
  459SOL    HW1 1394   1.453   2.532   2.665
  459SOL    HW2 1395   1.538   2.656   2.603
  460SOL     OW 1396   1.400   1.969   2.288
  460SOL    HW1 1397   1.376   1.932   2.198
  460SOL    HW2 1398   1.499   1.985   2.292
  461SOL     OW 1399   0.382   2.562   2.342
  461SOL    HW1 1400   0.427   2.472   2.339
  461SOL    HW2 1401   0.288   2.551   2.375
  462SOL     OW 1402   0.614   1.984   1.979
  462SOL    HW1 1403   0.712   1.962   1.986
  462SOL    HW2 1404   0.583   1.967   1.886
  463SOL     OW 1405   0.922   2.365   2.761
  463SOL    HW1 1406   0.897   2.356   2.665
  463SOL    HW2 1407   0.970   2.283   2.792
  464SOL     OW 1408   0.539   1.926   2.374
  464SOL    HW1 1409   0.458   1.927   2.432
  464SOL    HW2 1410   0.542   2.009   2.319
  465SOL     OW 1411   0.297   1.897   2.033
  465SOL    HW1 1412   0.346   1.981   2.012
  465SOL    HW2 1413   0.359   1.832   2.078
  466SOL     OW 1414   0.935   2.098   2.342
  466SOL    HW1 1415   0.887   2.139   2.264
  466SOL    HW2 1416   1.034   2.096   2.323
  467SOL     OW 1417   1.032   2.411   1.878
  467SOL    HW1 1418   0.991   2.493   1.839
  467SOL    HW2 1419   1.096   2.437   1.951
  468SOL     OW 1420   0.866   2.316   2.504
  468SOL    HW1 1421   0.834   2.388   2.442
  468SOL    HW2 1422   0.890   2.235   2.451
  469SOL     OW 1423   1.017   1.901   2.615
  469SOL    HW1 1424   0.945   1.906   2.546
  469SOL    HW2 1425   0.993   1.832   2.684
  470SOL     OW 1426   1.857   2.695   2.239
  470SOL    HW1 1427   1.899   2.631   2.303
  470SOL    HW2 1428   1.819   2.644   2.161
  471SOL     OW 1429   1.390   2.437   1.940
  471SOL    HW1 1430   1.336   2.416   2.021
  471SOL    HW2 1431   1.481   2.396   1.949
  472SOL     OW 1432   0.527   2.118   2.190
  472SOL    HW1 1433   0.554   2.059   2.115
  472SOL    HW2 1434   0.527   2.213   2.159
  473SOL     OW 1435   1.111   3.057   2.962
  473SOL    HW1 1436   1.071   3.101   3.043
  473SOL    HW2 1437   1.070   3.094   2.879
  474SOL     OW 1438   1.638   2.961   2.941
  474SOL    HW1 1439   1.643   3.042   3.000
  474SOL    HW2 1440   1.552   2.963   2.890
  475SOL     OW 1441   0.566   2.399   2.727
  475SOL    HW1 1442   0.578   2.465   2.653
  475SOL    HW2 1443   0.612   2.433   2.810
  476SOL     OW 1444   1.582   2.501   2.334
  476SOL    HW1 1445   1.551   2.562   2.407
  476SOL    HW2 1446   1.632   2.553   2.265
  477SOL     OW 1447   0.573   2.732   2.891
  477SOL    HW1 1448   0.617   2.821   2.882
  477SOL    HW2 1449   0.510   2.732   2.968
  478SOL     OW 1450   1.209   2.387   2.137
  478SOL    HW1 1451   1.222   2.303   2.191
  478SOL    HW2 1452   1.180   2.461   2.197
  479SOL     OW 1453   0.307   2.075   3.093
  479SOL    HW1 1454   0.284   2.112   3.183
  479SOL    HW2 1455   0.277   1.980   3.087
  480SOL     OW 1456   0.732   2.496   2.926
  480SOL    HW1 1457   0.791   2.470   2.850
  480SOL    HW2 1458   0.704   2.592   2.915
  481SOL     OW 1459   0.307   1.925   2.480
  481SOL    HW1 1460   0.296   2.019   2.513
  481SOL    HW2 1461   0.302   1.862   2.557
  482SOL     OW 1462   1.622   2.229   2.236
  482SOL    HW1 1463   1.624   2.153   2.300
  482SOL    HW2 1464   1.574   2.306   2.276
  483SOL     OW 1465   1.540   2.136   1.987
  483SOL    HW1 1466   1.479   2.061   2.010
  483SOL    HW2 1467   1.562   2.188   2.070
  484SOL     OW 1468   1.303   2.700   1.904
  484SOL    HW1 1469   1.337   2.607   1.919
  484SOL    HW2 1470   1.321   2.727   1.809
  485SOL     OW 1471   0.319   2.672   2.811
  485SOL    HW1 1472   0.412   2.708   2.816
  485SOL    HW2 1473   0.313   2.587   2.863
  486SOL     OW 1474   0.815   2.434   2.187
  486SOL    HW1 1475   0.822   2.345   2.141
  486SOL    HW2 1476   0.721   2.468   2.179
  487SOL     OW 1477   0.671   2.326   3.131
  487SOL    HW1 1478   0.637   2.237   3.101
  487SOL    HW2 1479   0.697   2.380   3.051
  488SOL     OW 1480   0.473   2.362   2.053
  488SOL    HW1 1481   0.534   2.442   2.057
  488SOL    HW2 1482   0.378   2.393   2.060
  489SOL     OW 1483   1.302   2.717   2.171
  489SOL    HW1 1484   1.216   2.686   2.213
  489SOL    HW2 1485   1.298   2.703   2.072
  490SOL     OW 1486   1.726   1.997   2.385
  490SOL    HW1 1487   1.799   1.980   2.318
  490SOL    HW2 1488   1.695   1.910   2.423
  491SOL     OW 1489   1.280   2.789   2.534
  491SOL    HW1 1490   1.340   2.708   2.536
  491SOL    HW2 1491   1.320   2.858   2.474
  492SOL     OW 1492   1.841   2.037   2.825
  492SOL    HW1 1493   1.880   1.952   2.789
  492SOL    HW2 1494   1.743   2.039   2.806
  493SOL     OW 1495   0.263   2.188   2.582
  493SOL    HW1 1496   0.184   2.239   2.548
  493SOL    HW2 1497   0.254   2.173   2.680
  494SOL     OW 1498   0.916   2.772   2.153
  494SOL    HW1 1499   0.979   2.810   2.085
  494SOL    HW2 1500   0.956   2.689   2.192
  495SOL     OW 1501   0.075   2.207   1.895
  495SOL    HW1 1502  -0.017   2.179   1.866
  495SOL    HW2 1503   0.106   2.284   1.839
  496SOL     OW 1504   0.072   2.028   2.180
  496SOL    HW1 1505   0.055   2.111   2.126
  496SOL    HW2 1506   0.162   1.991   2.158
  497SOL     OW 1507   1.674   2.745   3.116
  497SOL    HW1 1508   1.647   2.656   3.079
  497SOL    HW2 1509   1.675   2.813   3.043
  498SOL     OW 1510   1.225   2.187   2.311
  498SOL    HW1 1511   1.290   2.113   2.300
  498SOL    HW2 1512   1.245   2.237   2.395
  499SOL     OW 1513   0.594   2.607   2.514
  499SOL    HW1 1514   0.644   2.692   2.495
  499SOL    HW2 1515   0.506   2.609   2.466
  500SOL     OW 1516   0.859   2.818   2.723
  500SOL    HW1 1517   0.913   2.749   2.771
  500SOL    HW2 1518   0.827   2.887   2.789
  501SOL     OW 1519   1.083   2.846   1.949
  501SOL    HW1 1520   1.060   2.899   1.867
  501SOL    HW2 1521   1.164   2.790   1.930
  502SOL     OW 1522   0.079   3.102   2.515
  502SOL    HW1 1523   0.078   3.055   2.603
  502SOL    HW2 1524   0.161   3.074   2.464
  503SOL     OW 1525   1.824   2.054   3.089
  503SOL    HW1 1526   1.820   1.964   3.133
  503SOL    HW2 1527   1.827   2.043   2.990
  504SOL     OW 1528   0.428   2.286   2.382
  504SOL    HW1 1529   0.458   2.214   2.320
  504SOL    HW2 1530   0.389   2.246   2.465
  505SOL     OW 1531   1.352   1.914   2.030
  505SOL    HW1 1532   1.387   1.873   1.946
  505SOL    HW2 1533   1.262   1.876   2.050
  506SOL     OW 1534   1.300   2.315   2.553
  506SOL    HW1 1535   1.241   2.395   2.557
  506SOL    HW2 1536   1.315   2.280   2.646
  507SOL     OW 1537   1.593   2.083   2.744
  507SOL    HW1 1538   1.509   2.082   2.798
  507SOL    HW2 1539   1.595   2.166   2.688
  508SOL     OW 1540   2.092   0.628   0.113
  508SOL    HW1 1541   1.999   0.626   0.150
  508SOL    HW2 1542   2.093   0.589   0.021
  509SOL     OW 1543   2.087   0.275   0.996
  509SOL    HW1 1544   2.122   0.258   1.088
  509SOL    HW2 1545   1.999   0.230   0.984
  510SOL     OW 1546   1.881   0.368   0.647
  510SOL    HW1 1547   1.799   0.411   0.686
  510SOL    HW2 1548   1.853   0.295   0.584
  511SOL     OW 1549   2.431   1.275   1.165
  511SOL    HW1 1550   2.338   1.268   1.128
  511SOL    HW2 1551   2.442   1.364   1.209
  512SOL     OW 1552   2.630   1.144   1.023
  512SOL    HW1 1553   2.552   1.161   1.083
  512SOL    HW2 1554   2.664   1.231   0.987
  513SOL     OW 1555   2.712   0.798   1.823
  513SOL    HW1 1556   2.708   0.874   1.888
  513SOL    HW2 1557   2.734   0.834   1.732
  514SOL     OW 1558   2.547   1.012   0.665
  514SOL    HW1 1559   2.616   0.996   0.735
  514SOL    HW2 1560   2.474   1.069   0.703
  515SOL     OW 1561   2.548   1.161   1.803
  515SOL    HW1 1562   2.608   1.240   1.817
  515SOL    HW2 1563   2.462   1.192   1.762
  516SOL     OW 1564   2.197   1.435   1.061
  516SOL    HW1 1565   2.119   1.404   1.008
  516SOL    HW2 1566   2.255   1.493   1.004
  517SOL     OW 1567   2.300   0.392   1.499
  517SOL    HW1 1568   2.382   0.336   1.508
  517SOL    HW2 1569   2.219   0.334   1.503
  518SOL     OW 1570   2.093   1.713   0.483
  518SOL    HW1 1571   2.127   1.790   0.537
  518SOL    HW2 1572   2.137   1.713   0.393
  519SOL     OW 1573   2.092   1.434   0.538
  519SOL    HW1 1574   2.066   1.530   0.538
  519SOL    HW2 1575   2.021   1.380   0.583
  520SOL     OW 1576   2.102   1.091   0.886
  520SOL    HW1 1577   2.116   1.007   0.938
  520SOL    HW2 1578   2.047   1.155   0.941
  521SOL     OW 1579   2.482   1.786   1.439
  521SOL    HW1 1580   2.390   1.769   1.474
  521SOL    HW2 1581   2.510   1.878   1.465
  522SOL     OW 1582   2.468   0.964   0.123
  522SOL    HW1 1583   2.475   1.048   0.069
  522SOL    HW2 1584   2.514   0.977   0.211
  523SOL     OW 1585   1.984   0.643   0.563
  523SOL    HW1 1586   1.939   0.555   0.580
  523SOL    HW2 1587   1.983   0.697   0.647
  524SOL     OW 1588   1.889   1.596   0.117
  524SOL    HW1 1589   1.870   1.500   0.138
  524SOL    HW2 1590   1.856   1.654   0.192
  525SOL     OW 1591   1.975   0.737   1.597
  525SOL    HW1 1592   2.063   0.724   1.642
  525SOL    HW2 1593   1.962   0.834   1.575
  526SOL     OW 1594   2.475   1.365   0.726
  526SOL    HW1 1595   2.426   1.278   0.735
  526SOL    HW2 1596   2.452   1.408   0.639
  527SOL     OW 1597   2.671   0.004   0.502
  527SOL    HW1 1598   2.711   0.095   0.493
  527SOL    HW2 1599   2.571   0.012   0.508
  528SOL     OW 1600   2.059   0.976   1.264
  528SOL    HW1 1601   2.148   0.931   1.250
  528SOL    HW2 1602   1.986   0.911   1.245
  529SOL     OW 1603   2.179   0.251   1.801
  529SOL    HW1 1604   2.250   0.322   1.807
  529SOL    HW2 1605   2.091   0.290   1.829
  530SOL     OW 1606   2.460   0.729   0.270
  530SOL    HW1 1607   2.484   0.798   0.202
  530SOL    HW2 1608   2.382   0.762   0.324
  531SOL     OW 1609   2.669   0.605   1.465
  531SOL    HW1 1610   2.622   0.602   1.554
  531SOL    HW2 1611   2.618   0.550   1.399
  532SOL     OW 1612   2.835   0.890   1.572
  532SOL    HW1 1613   2.881   0.806   1.543
  532SOL    HW2 1614   2.779   0.924   1.497
  533SOL     OW 1615   1.938   0.811   0.789
  533SOL    HW1 1616   2.037   0.799   0.798
  533SOL    HW2 1617   1.914   0.906   0.810
  534SOL     OW 1618   1.992   1.821   1.571
  534SOL    HW1 1619   1.982   1.806   1.670
  534SOL    HW2 1620   1.906   1.857   1.535
  535SOL     OW 1621   2.727   0.348   0.195
  535SOL    HW1 1622   2.786   0.411   0.146
  535SOL    HW2 1623   2.746   0.254   0.166
  536SOL     OW 1624   2.412   0.196   0.885
  536SOL    HW1 1625   2.407   0.191   0.985
  536SOL    HW2 1626   2.414   0.292   0.856
  537SOL     OW 1627   2.870   1.456   0.477
  537SOL    HW1 1628   2.824   1.528   0.425
  537SOL    HW2 1629   2.866   1.476   0.575
  538SOL     OW 1630   2.213   1.801   0.853
  538SOL    HW1 1631   2.263   1.715   0.859
  538SOL    HW2 1632   2.278   1.878   0.850
  539SOL     OW 1633   2.183   0.943   0.242
  539SOL    HW1 1634   2.265   0.982   0.200
  539SOL    HW2 1635   2.156   0.861   0.193
  540SOL     OW 1636   2.323   1.266   1.727
  540SOL    HW1 1637   2.273   1.267   1.641
  540SOL    HW2 1638   2.260   1.248   1.803
  541SOL     OW 1639   2.064   0.285   1.498
  541SOL    HW1 1640   1.984   0.345   1.485
  541SOL    HW2 1641   2.054   0.236   1.584
  542SOL     OW 1642   2.326   1.743   0.323
  542SOL    HW1 1643   2.359   1.782   0.409
  542SOL    HW2 1644   2.402   1.736   0.258
  543SOL     OW 1645   2.111   1.785   1.241
  543SOL    HW1 1646   2.168   1.720   1.291
  543SOL    HW2 1647   2.095   1.752   1.148
  544SOL     OW 1648   2.244   0.700   0.480
  544SOL    HW1 1649   2.289   0.610   0.477
  544SOL    HW2 1650   2.150   0.689   0.513
  545SOL     OW 1651   2.476   0.122   0.117
  545SOL    HW1 1652   2.574   0.100   0.124
  545SOL    HW2 1653   2.445   0.105   0.024
  546SOL     OW 1654   2.643   0.264   1.749
  546SOL    HW1 1655   2.710   0.203   1.792
  546SOL    HW2 1656   2.570   0.283   1.814
  547SOL     OW 1657   2.750   1.514   1.195
  547SOL    HW1 1658   2.727   1.489   1.101
  547SOL    HW2 1659   2.811   1.445   1.234
  548SOL     OW 1660   2.665   1.402   0.924
  548SOL    HW1 1661   2.755   1.416   0.882
  548SOL    HW2 1662   2.594   1.404   0.853
  549SOL     OW 1663   2.784   0.503   0.899
  549SOL    HW1 1664   2.759   0.494   0.803
  549SOL    HW2 1665   2.832   0.421   0.930
  550SOL     OW 1666   2.401   0.064   0.512
  550SOL    HW1 1667   2.320   0.065   0.570
  550SOL    HW2 1668   2.404   0.147   0.457
  551SOL     OW 1669   2.159   0.035   0.171
  551SOL    HW1 1670   2.208   0.119   0.150
  551SOL    HW2 1671   2.221  -0.030   0.216
  552SOL     OW 1672   2.797   0.236   0.480
  552SOL    HW1 1673   2.749   0.277   0.402
  552SOL    HW2 1674   2.896   0.234   0.461
  553SOL     OW 1675   3.089   1.570   0.793
  553SOL    HW1 1676   3.110   1.644   0.728
  553SOL    HW2 1677   3.157   1.570   0.866
  554SOL     OW 1678   2.321   1.152   0.741
  554SOL    HW1 1679   2.250   1.125   0.806
  554SOL    HW2 1680   2.295   1.124   0.648
  555SOL     OW 1681   1.940   0.556   1.386
  555SOL    HW1 1682   2.032   0.555   1.345
  555SOL    HW2 1683   1.934   0.630   1.453
  556SOL     OW 1684   2.423   0.222   1.147
  556SOL    HW1 1685   2.461   0.138   1.184
  556SOL    HW2 1686   2.335   0.241   1.191
  557SOL     OW 1687   2.350   1.385   0.174
  557SOL    HW1 1688   2.263   1.370   0.221
  557SOL    HW2 1689   2.333   1.411   0.079
  558SOL     OW 1690   2.389   0.256   0.328
  558SOL    HW1 1691   2.416   0.197   0.253
  558SOL    HW2 1692   2.389   0.351   0.297
  559SOL     OW 1693   2.777   0.089   1.402
  559SOL    HW1 1694   2.802   0.069   1.307
  559SOL    HW2 1695   2.849   0.145   1.444
  560SOL     OW 1696   2.842   1.116   1.719
  560SOL    HW1 1697   2.743   1.122   1.729
  560SOL    HW2 1698   2.865   1.036   1.663
  561SOL     OW 1699   2.567   1.050   0.368
  561SOL    HW1 1700   2.553   1.057   0.467
  561SOL    HW2 1701   2.651   0.999   0.350
  562SOL     OW 1702   2.272   0.813   1.251
  562SOL    HW1 1703   2.358   0.825   1.301
  562SOL    HW2 1704   2.230   0.726   1.278
  563SOL     OW 1705   1.926   1.564   1.331
  563SOL    HW1 1706   1.880   1.646   1.297
  563SOL    HW2 1707   2.024   1.583   1.340
  564SOL     OW 1708   2.229   1.100   0.501
  564SOL    HW1 1709   2.222   1.183   0.445
  564SOL    HW2 1710   2.233   1.020   0.441
  565SOL     OW 1711   2.428   0.537   0.865
  565SOL    HW1 1712   2.440   0.603   0.791
  565SOL    HW2 1713   2.474   0.571   0.948
  566SOL     OW 1714   2.216   1.510   1.329
  566SOL    HW1 1715   2.195   1.466   1.242
  566SOL    HW2 1716   2.313   1.536   1.332
  567SOL     OW 1717   2.264   0.751   1.598
  567SOL    HW1 1718   2.332   0.806   1.551
  567SOL    HW2 1719   2.304   0.663   1.625
  568SOL     OW 1720   2.366   0.050   1.740
  568SOL    HW1 1721   2.324  -0.007   1.670
  568SOL    HW2 1722   2.300   0.119   1.772
  569SOL     OW 1723   2.435   0.870   1.029
  569SOL    HW1 1724   2.479   0.959   1.020
  569SOL    HW2 1725   2.372   0.870   1.106
  570SOL     OW 1726   3.071   0.525   0.275
  570SOL    HW1 1727   3.084   0.441   0.329
  570SOL    HW2 1728   3.042   0.599   0.335
  571SOL     OW 1729   2.169   0.213   1.231
  571SOL    HW1 1730   2.146   0.250   1.321
  571SOL    HW2 1731   2.139   0.118   1.225
  572SOL     OW 1732   1.899   1.310   1.282
  572SOL    HW1 1733   1.952   1.261   1.350
  572SOL    HW2 1734   1.921   1.408   1.287
  573SOL     OW 1735   2.594   0.634   1.064
  573SOL    HW1 1736   2.653   0.608   0.988
  573SOL    HW2 1737   2.566   0.730   1.053
  574SOL     OW 1738   2.169   0.063   0.618
  574SOL    HW1 1739   2.158   0.157   0.651
  574SOL    HW2 1740   2.164   0.000   0.695
  575SOL     OW 1741   2.885   0.766   0.966
  575SOL    HW1 1742   2.900   0.787   1.062
  575SOL    HW2 1743   2.855   0.671   0.957
  576SOL     OW 1744   2.842   1.573   1.700
  576SOL    HW1 1745   2.822   1.617   1.612
  576SOL    HW2 1746   2.881   1.482   1.684
  577SOL     OW 1747   2.212   0.898   1.804
  577SOL    HW1 1748   2.288   0.942   1.852
  577SOL    HW2 1749   2.247   0.851   1.722
  578SOL     OW 1750   2.181   0.810   0.949
  578SOL    HW1 1751   2.274   0.846   0.954
  578SOL    HW2 1752   2.175   0.725   1.001
  579SOL     OW 1753   2.201   0.509   1.006
  579SOL    HW1 1754   2.149   0.426   0.989
  579SOL    HW2 1755   2.278   0.514   0.942
  580SOL     OW 1756   1.870   1.326   0.200
  580SOL    HW1 1757   1.777   1.347   0.169
  580SOL    HW2 1758   1.880   1.227   0.213
  581SOL     OW 1759   1.950   1.801   0.927
  581SOL    HW1 1760   1.908   1.715   0.900
  581SOL    HW2 1761   2.044   1.804   0.893
  582SOL     OW 1762   2.366   1.568   0.910
  582SOL    HW1 1763   2.432   1.642   0.919
  582SOL    HW2 1764   2.410   1.489   0.868
  583SOL     OW 1765   2.864   0.796   1.238
  583SOL    HW1 1766   2.905   0.764   1.324
  583SOL    HW2 1767   2.768   0.769   1.235
  584SOL     OW 1768   1.902   0.544   1.114
  584SOL    HW1 1769   1.987   0.511   1.073
  584SOL    HW2 1770   1.915   0.559   1.212
  585SOL     OW 1771   2.051   0.520   1.722
  585SOL    HW1 1772   2.110   0.480   1.652
  585SOL    HW2 1773   1.993   0.591   1.681
  586SOL     OW 1774   2.677   0.572   0.325
  586SOL    HW1 1775   2.684   0.483   0.279
  586SOL    HW2 1776   2.583   0.606   0.317
  587SOL     OW 1777   2.114   1.564   1.744
  587SOL    HW1 1778   2.084   1.621   1.820
  587SOL    HW2 1779   2.107   1.467   1.770
  588SOL     OW 1780   2.533   0.464   1.269
  588SOL    HW1 1781   2.499   0.375   1.239
  588SOL    HW2 1782   2.559   0.518   1.189
  589SOL     OW 1783   2.792   1.678   1.465
  589SOL    HW1 1784   2.768   1.660   1.370
  589SOL    HW2 1785   2.822   1.772   1.475
  590SOL     OW 1786   2.335   0.500   0.191
  590SOL    HW1 1787   2.396   0.580   0.195
  590SOL    HW2 1788   2.240   0.531   0.198
  591SOL     OW 1789   2.021   1.137   1.466
  591SOL    HW1 1790   2.043   1.076   1.542
  591SOL    HW2 1791   2.031   1.088   1.380
  592SOL     OW 1792   1.945   1.258   1.022
  592SOL    HW1 1793   1.940   1.257   1.122
  592SOL    HW2 1794   1.862   1.217   0.984
  593SOL     OW 1795   2.550   1.662   1.716
  593SOL    HW1 1796   2.494   1.743   1.725
  593SOL    HW2 1797   2.602   1.666   1.630
  594SOL     OW 1798   2.765   0.086   0.133
  594SOL    HW1 1799   2.816   0.087   0.047
  594SOL    HW2 1800   2.821   0.044   0.204
  595SOL     OW 1801   1.992   1.794   1.851
  595SOL    HW1 1802   1.951   1.720   1.904
  595SOL    HW2 1803   2.056   1.845   1.909
  596SOL     OW 1804   3.142   0.927   0.672
  596SOL    HW1 1805   3.202   0.846   0.674
  596SOL    HW2 1806   3.182   0.996   0.612
  597SOL     OW 1807   2.692   1.273   1.422
  597SOL    HW1 1808   2.687   1.306   1.517
  597SOL    HW2 1809   2.606   1.292   1.376
  598SOL     OW 1810   2.534   1.616   0.154
  598SOL    HW1 1811   2.543   1.626   0.055
  598SOL    HW2 1812   2.494   1.527   0.175
  599SOL     OW 1813   2.125   0.326   0.720
  599SOL    HW1 1814   2.046   0.377   0.686
  599SOL    HW2 1815   2.116   0.311   0.818
  600SOL     OW 1816   2.684   1.002   1.372
  600SOL    HW1 1817   2.724   1.001   1.280
  600SOL    HW2 1818   2.694   1.094   1.412
  601SOL     OW 1819   2.778   0.910   0.291
  601SOL    HW1 1820   2.841   0.948   0.223
  601SOL    HW2 1821   2.818   0.827   0.330
  602SOL     OW 1822   2.234   1.288   1.490
  602SOL    HW1 1823   2.221   1.381   1.456
  602SOL    HW2 1824   2.150   1.236   1.477
  603SOL     OW 1825   2.876   0.236   0.971
  603SOL    HW1 1826   2.868   0.200   0.878
  603SOL    HW2 1827   2.874   0.160   1.036
  604SOL     OW 1828   2.452   1.487   0.491
  604SOL    HW1 1829   2.494   1.429   0.421
  604SOL    HW2 1830   2.408   1.566   0.447
  605SOL     OW 1831   2.117   1.348   0.290
  605SOL    HW1 1832   2.021   1.349   0.263
  605SOL    HW2 1833   2.129   1.401   0.374
  606SOL     OW 1834   1.967   1.013   1.726
  606SOL    HW1 1835   1.890   0.980   1.780
  606SOL    HW2 1836   2.052   0.983   1.768
  607SOL     OW 1837   2.534   0.203   1.489
  607SOL    HW1 1838   2.624   0.187   1.449
  607SOL    HW2 1839   2.542   0.208   1.588
  608SOL     OW 1840   1.937   0.345   0.033
  608SOL    HW1 1841   1.845   0.317   0.004
  608SOL    HW2 1842   1.968   0.422  -0.023
  609SOL     OW 1843   2.475   0.842   1.431
  609SOL    HW1 1844   2.531   0.923   1.414
  609SOL    HW2 1845   2.534   0.762   1.434
  610SOL     OW 1846   2.578   0.565   1.708
  610SOL    HW1 1847   2.597   0.630   1.782
  610SOL    HW2 1848   2.638   0.485   1.717
  611SOL     OW 1849   2.252   1.741   1.560
  611SOL    HW1 1850   2.161   1.782   1.558
  611SOL    HW2 1851   2.245   1.647   1.592
  612SOL     OW 1852   3.087   0.325   0.449
  612SOL    HW1 1853   3.152   0.251   0.438
  612SOL    HW2 1854   3.107   0.375   0.533
  613SOL     OW 1855   2.456   0.745   0.652
  613SOL    HW1 1856   2.506   0.830   0.633
  613SOL    HW2 1857   2.368   0.747   0.604
  614SOL     OW 1858   2.721   1.374   0.016
  614SOL    HW1 1859   2.675   1.389   0.104
  614SOL    HW2 1860   2.765   1.459  -0.014
  615SOL     OW 1861   2.523   1.790   0.953
  615SOL    HW1 1862   2.477   1.878   0.940
  615SOL    HW2 1863   2.622   1.802   0.946
  616SOL     OW 1864   2.721   0.956   0.861
  616SOL    HW1 1865   2.775   0.887   0.909
  616SOL    HW2 1866   2.689   1.025   0.927
  617SOL     OW 1867   2.945   0.984   0.087
  617SOL    HW1 1868   2.922   1.037   0.005
  617SOL    HW2 1869   3.026   0.928   0.068
  618SOL     OW 1870   2.083   1.314   1.844
  618SOL    HW1 1871   2.018   1.241   1.823
  618SOL    HW2 1872   2.087   1.328   1.942
  619SOL     OW 1873   1.941   1.240   0.653
  619SOL    HW1 1874   1.940   1.193   0.741
  619SOL    HW2 1875   2.023   1.212   0.602
  620SOL     OW 1876   2.534   1.391   1.624
  620SOL    HW1 1877   2.456   1.341   1.662
  620SOL    HW2 1878   2.531   1.486   1.655
  621SOL     OW 1879   2.290   0.424   0.520
  621SOL    HW1 1880   2.320   0.352   0.458
  621SOL    HW2 1881   2.251   0.384   0.603
  622SOL     OW 1882   2.179   0.547   1.280
  622SOL    HW1 1883   2.217   0.488   1.352
  622SOL    HW2 1884   2.219   0.521   1.192
  623SOL     OW 1885   2.674   1.586   0.687
  623SOL    HW1 1886   2.706   1.596   0.593
  623SOL    HW2 1887   2.595   1.524   0.689
  624SOL     OW 1888   2.863   0.034   1.154
  624SOL    HW1 1889   2.800  -0.038   1.123
  624SOL    HW2 1890   2.956  -0.002   1.154
  625SOL     OW 1891   2.632   1.330   0.301
  625SOL    HW1 1892   2.586   1.243   0.318
  625SOL    HW2 1893   2.723   1.327   0.342
  626SOL     OW 1894   2.480   1.567   1.284
  626SOL    HW1 1895   2.475   1.649   1.341
  626SOL    HW2 1896   2.569   1.564   1.239
  627SOL     OW 1897   1.901   1.077   0.300
  627SOL    HW1 1898   2.000   1.066   0.291
  627SOL    HW2 1899   1.861   0.991   0.332
  628SOL     OW 1900   2.737   1.646   0.337
  628SOL    HW1 1901   2.660   1.611   0.283
  628SOL    HW2 1902   2.705   1.717   0.399
  629SOL     OW 1903   2.092   0.628   1.975
  629SOL    HW1 1904   1.999   0.626   2.012
  629SOL    HW2 1905   2.093   0.589   1.883
  630SOL     OW 1906   2.087   0.275   2.858
  630SOL    HW1 1907   2.122   0.258   2.950
  630SOL    HW2 1908   1.999   0.230   2.846
  631SOL     OW 1909   1.881   0.368   2.509
  631SOL    HW1 1910   1.799   0.411   2.548
  631SOL    HW2 1911   1.853   0.295   2.446
  632SOL     OW 1912   2.630   1.144   2.885
  632SOL    HW1 1913   2.552   1.161   2.945
  632SOL    HW2 1914   2.664   1.231   2.849
  633SOL     OW 1915   2.547   1.012   2.527
  633SOL    HW1 1916   2.616   0.996   2.597
  633SOL    HW2 1917   2.474   1.069   2.565
  634SOL     OW 1918   2.197   1.435   2.923
  634SOL    HW1 1919   2.119   1.404   2.870
  634SOL    HW2 1920   2.255   1.493   2.866
  635SOL     OW 1921   2.093   1.713   2.345
  635SOL    HW1 1922   2.127   1.790   2.399
  635SOL    HW2 1923   2.137   1.713   2.255
  636SOL     OW 1924   2.092   1.434   2.400
  636SOL    HW1 1925   2.066   1.530   2.400
  636SOL    HW2 1926   2.021   1.380   2.445
  637SOL     OW 1927   2.102   1.091   2.748
  637SOL    HW1 1928   2.116   1.007   2.800
  637SOL    HW2 1929   2.047   1.155   2.803
  638SOL     OW 1930   2.468   0.964   1.985
  638SOL    HW1 1931   2.475   1.048   1.931
  638SOL    HW2 1932   2.514   0.977   2.073
  639SOL     OW 1933   1.984   0.643   2.425
  639SOL    HW1 1934   1.939   0.555   2.442
  639SOL    HW2 1935   1.983   0.697   2.509
  640SOL     OW 1936   1.889   1.596   1.979
  640SOL    HW1 1937   1.870   1.500   2.000
  640SOL    HW2 1938   1.856   1.654   2.054
  641SOL     OW 1939   2.475   1.365   2.588
  641SOL    HW1 1940   2.426   1.278   2.597
  641SOL    HW2 1941   2.452   1.408   2.501
  642SOL     OW 1942   2.671   0.004   2.364
  642SOL    HW1 1943   2.711   0.095   2.355
  642SOL    HW2 1944   2.571   0.012   2.370
  643SOL     OW 1945   2.460   0.729   2.132
  643SOL    HW1 1946   2.484   0.798   2.064
  643SOL    HW2 1947   2.382   0.762   2.186
  644SOL     OW 1948   1.938   0.811   2.651
  644SOL    HW1 1949   2.037   0.799   2.660
  644SOL    HW2 1950   1.914   0.906   2.672
  645SOL     OW 1951   2.727   0.348   2.057
  645SOL    HW1 1952   2.786   0.411   2.008
  645SOL    HW2 1953   2.746   0.254   2.028
  646SOL     OW 1954   2.870   1.456   2.339
  646SOL    HW1 1955   2.824   1.528   2.287
  646SOL    HW2 1956   2.866   1.476   2.437
  647SOL     OW 1957   2.213   1.801   2.715
  647SOL    HW1 1958   2.263   1.715   2.721
  647SOL    HW2 1959   2.278   1.878   2.712
  648SOL     OW 1960   2.183   0.943   2.104
  648SOL    HW1 1961   2.265   0.982   2.062
  648SOL    HW2 1962   2.156   0.861   2.055
  649SOL     OW 1963   2.326   1.743   2.185
  649SOL    HW1 1964   2.359   1.782   2.271
  649SOL    HW2 1965   2.402   1.736   2.120
  650SOL     OW 1966   2.111   1.785   3.103
  650SOL    HW1 1967   2.168   1.720   3.153
  650SOL    HW2 1968   2.095   1.752   3.010
  651SOL     OW 1969   2.244   0.700   2.342
  651SOL    HW1 1970   2.289   0.610   2.339
  651SOL    HW2 1971   2.150   0.689   2.375
  652SOL     OW 1972   2.476   0.122   1.979
  652SOL    HW1 1973   2.574   0.100   1.986
  652SOL    HW2 1974   2.445   0.105   1.886
  653SOL     OW 1975   2.784   0.503   2.761
  653SOL    HW1 1976   2.759   0.494   2.665
  653SOL    HW2 1977   2.832   0.421   2.792
  654SOL     OW 1978   2.401   0.064   2.374
  654SOL    HW1 1979   2.320   0.065   2.432
  654SOL    HW2 1980   2.404   0.147   2.319
  655SOL     OW 1981   2.159   0.035   2.033
  655SOL    HW1 1982   2.208   0.119   2.012
  655SOL    HW2 1983   2.221  -0.030   2.078
  656SOL     OW 1984   2.797   0.236   2.342
  656SOL    HW1 1985   2.749   0.277   2.264
  656SOL    HW2 1986   2.896   0.234   2.323
  657SOL     OW 1987   3.089   1.570   2.655
  657SOL    HW1 1988   3.110   1.644   2.590
  657SOL    HW2 1989   3.157   1.570   2.728
  658SOL     OW 1990   2.321   1.152   2.603
  658SOL    HW1 1991   2.250   1.125   2.668
  658SOL    HW2 1992   2.295   1.124   2.510
  659SOL     OW 1993   2.350   1.385   2.036
  659SOL    HW1 1994   2.263   1.370   2.083
  659SOL    HW2 1995   2.333   1.411   1.941
  660SOL     OW 1996   2.389   0.256   2.190
  660SOL    HW1 1997   2.416   0.197   2.115
  660SOL    HW2 1998   2.389   0.351   2.159
  661SOL     OW 1999   2.567   1.050   2.230
  661SOL    HW1 2000   2.553   1.057   2.329
  661SOL    HW2 2001   2.651   0.999   2.212
  662SOL     OW 2002   2.229   1.100   2.363
  662SOL    HW1 2003   2.222   1.183   2.307
  662SOL    HW2 2004   2.233   1.020   2.303
  663SOL     OW 2005   2.428   0.537   2.727
  663SOL    HW1 2006   2.440   0.603   2.653
  663SOL    HW2 2007   2.474   0.571   2.810
  664SOL     OW 2008   3.071   0.525   2.137
  664SOL    HW1 2009   3.084   0.441   2.191
  664SOL    HW2 2010   3.042   0.599   2.197
  665SOL     OW 2011   2.594   0.634   2.926
  665SOL    HW1 2012   2.653   0.608   2.850
  665SOL    HW2 2013   2.566   0.730   2.915
  666SOL     OW 2014   2.169   0.063   2.480
  666SOL    HW1 2015   2.158   0.157   2.513
  666SOL    HW2 2016   2.164   0.000   2.557
  667SOL     OW 2017   2.885   0.766   2.828
  667SOL    HW1 2018   2.900   0.787   2.924
  667SOL    HW2 2019   2.855   0.671   2.819
  668SOL     OW 2020   2.181   0.810   2.811
  668SOL    HW1 2021   2.274   0.846   2.816
  668SOL    HW2 2022   2.175   0.725   2.863
  669SOL     OW 2023   1.870   1.326   2.062
  669SOL    HW1 2024   1.777   1.347   2.031
  669SOL    HW2 2025   1.880   1.227   2.075
  670SOL     OW 2026   1.950   1.801   2.789
  670SOL    HW1 2027   1.908   1.715   2.762
  670SOL    HW2 2028   2.044   1.804   2.755
  671SOL     OW 2029   2.366   1.568   2.772
  671SOL    HW1 2030   2.432   1.642   2.781
  671SOL    HW2 2031   2.410   1.489   2.730
  672SOL     OW 2032   2.677   0.572   2.187
  672SOL    HW1 2033   2.684   0.483   2.141
  672SOL    HW2 2034   2.583   0.606   2.179
  673SOL     OW 2035   2.533   0.464   3.131
  673SOL    HW1 2036   2.499   0.375   3.101
  673SOL    HW2 2037   2.559   0.518   3.051
  674SOL     OW 2038   2.335   0.500   2.053
  674SOL    HW1 2039   2.396   0.580   2.057
  674SOL    HW2 2040   2.240   0.531   2.060
  675SOL     OW 2041   1.945   1.258   2.884
  675SOL    HW1 2042   1.940   1.257   2.984
  675SOL    HW2 2043   1.862   1.217   2.846
  676SOL     OW 2044   2.765   0.086   1.995
  676SOL    HW1 2045   2.816   0.087   1.909
  676SOL    HW2 2046   2.821   0.044   2.066
  677SOL     OW 2047   3.142   0.927   2.534
  677SOL    HW1 2048   3.202   0.846   2.536
  677SOL    HW2 2049   3.182   0.996   2.474
  678SOL     OW 2050   2.534   1.616   2.016
  678SOL    HW1 2051   2.543   1.626   1.917
  678SOL    HW2 2052   2.494   1.527   2.037
  679SOL     OW 2053   2.125   0.326   2.582
  679SOL    HW1 2054   2.046   0.377   2.548
  679SOL    HW2 2055   2.116   0.311   2.680
  680SOL     OW 2056   2.778   0.910   2.153
  680SOL    HW1 2057   2.841   0.948   2.085
  680SOL    HW2 2058   2.818   0.827   2.192
  681SOL     OW 2059   2.452   1.487   2.353
  681SOL    HW1 2060   2.494   1.429   2.283
  681SOL    HW2 2061   2.408   1.566   2.309
  682SOL     OW 2062   2.117   1.348   2.152
  682SOL    HW1 2063   2.021   1.349   2.125
  682SOL    HW2 2064   2.129   1.401   2.236
  683SOL     OW 2065   1.937   0.345   1.895
  683SOL    HW1 2066   1.845   0.317   1.866
  683SOL    HW2 2067   1.968   0.422   1.839
  684SOL     OW 2068   1.934   0.166   2.180
  684SOL    HW1 2069   1.917   0.249   2.126
  684SOL    HW2 2070   2.024   0.129   2.158
  685SOL     OW 2071   3.087   0.325   2.311
  685SOL    HW1 2072   3.152   0.251   2.300
  685SOL    HW2 2073   3.107   0.375   2.395
  686SOL     OW 2074   2.456   0.745   2.514
  686SOL    HW1 2075   2.506   0.830   2.495
  686SOL    HW2 2076   2.368   0.747   2.466
  687SOL     OW 2077   2.721   1.374   1.878
  687SOL    HW1 2078   2.675   1.389   1.966
  687SOL    HW2 2079   2.765   1.459   1.848
  688SOL     OW 2080   2.523   1.790   2.815
  688SOL    HW1 2081   2.477   1.878   2.802
  688SOL    HW2 2082   2.622   1.802   2.808
  689SOL     OW 2083   2.721   0.956   2.723
  689SOL    HW1 2084   2.775   0.887   2.771
  689SOL    HW2 2085   2.689   1.025   2.789
  690SOL     OW 2086   1.941   1.240   2.515
  690SOL    HW1 2087   1.940   1.193   2.603
  690SOL    HW2 2088   2.023   1.212   2.464
  691SOL     OW 2089   2.290   0.424   2.382
  691SOL    HW1 2090   2.320   0.352   2.320
  691SOL    HW2 2091   2.251   0.384   2.465
  692SOL     OW 2092   2.674   1.586   2.549
  692SOL    HW1 2093   2.706   1.596   2.455
  692SOL    HW2 2094   2.595   1.524   2.551
  693SOL     OW 2095   2.632   1.330   2.163
  693SOL    HW1 2096   2.586   1.243   2.180
  693SOL    HW2 2097   2.723   1.327   2.204
  694SOL     OW 2098   1.901   1.077   2.162
  694SOL    HW1 2099   2.000   1.066   2.153
  694SOL    HW2 2100   1.861   0.991   2.194
  695SOL     OW 2101   2.737   1.646   2.199
  695SOL    HW1 2102   2.660   1.611   2.145
  695SOL    HW2 2103   2.705   1.717   2.261
  696SOL     OW 2104   2.092   2.490   0.113
  696SOL    HW1 2105   1.999   2.488   0.150
  696SOL    HW2 2106   2.093   2.451   0.021
  697SOL     OW 2107   2.087   2.137   0.996
  697SOL    HW1 2108   2.122   2.120   1.088
  697SOL    HW2 2109   1.999   2.092   0.984
  698SOL     OW 2110   1.881   2.230   0.647
  698SOL    HW1 2111   1.799   2.273   0.686
  698SOL    HW2 2112   1.853   2.157   0.584
  699SOL     OW 2113   2.630   3.006   1.023
  699SOL    HW1 2114   2.552   3.023   1.083
  699SOL    HW2 2115   2.664   3.093   0.987
  700SOL     OW 2116   2.712   2.660   1.823
  700SOL    HW1 2117   2.708   2.736   1.888
  700SOL    HW2 2118   2.734   2.696   1.732
  701SOL     OW 2119   2.547   2.874   0.665
  701SOL    HW1 2120   2.616   2.858   0.735
  701SOL    HW2 2121   2.474   2.931   0.703
  702SOL     OW 2122   2.300   2.254   1.499
  702SOL    HW1 2123   2.382   2.198   1.508
  702SOL    HW2 2124   2.219   2.196   1.503
  703SOL     OW 2125   2.102   2.953   0.886
  703SOL    HW1 2126   2.116   2.869   0.938
  703SOL    HW2 2127   2.047   3.017   0.941
  704SOL     OW 2128   1.984   2.505   0.563
  704SOL    HW1 2129   1.939   2.417   0.580
  704SOL    HW2 2130   1.983   2.559   0.647
  705SOL     OW 2131   1.975   2.599   1.597
  705SOL    HW1 2132   2.063   2.586   1.642
  705SOL    HW2 2133   1.962   2.696   1.575
  706SOL     OW 2134   2.671   1.866   0.502
  706SOL    HW1 2135   2.711   1.957   0.493
  706SOL    HW2 2136   2.571   1.874   0.508
  707SOL     OW 2137   2.059   2.838   1.264
  707SOL    HW1 2138   2.148   2.793   1.250
  707SOL    HW2 2139   1.986   2.773   1.245
  708SOL     OW 2140   2.179   2.113   1.801
  708SOL    HW1 2141   2.250   2.184   1.807
  708SOL    HW2 2142   2.091   2.152   1.829
  709SOL     OW 2143   2.460   2.591   0.270
  709SOL    HW1 2144   2.484   2.660   0.202
  709SOL    HW2 2145   2.382   2.624   0.324
  710SOL     OW 2146   2.669   2.467   1.465
  710SOL    HW1 2147   2.622   2.464   1.554
  710SOL    HW2 2148   2.618   2.412   1.399
  711SOL     OW 2149   2.835   2.752   1.572
  711SOL    HW1 2150   2.881   2.668   1.543
  711SOL    HW2 2151   2.779   2.786   1.497
  712SOL     OW 2152   2.853   2.272   1.242
  712SOL    HW1 2153   2.776   2.306   1.296
  712SOL    HW2 2154   2.819   2.221   1.163
  713SOL     OW 2155   1.938   2.673   0.789
  713SOL    HW1 2156   2.037   2.661   0.798
  713SOL    HW2 2157   1.914   2.768   0.810
  714SOL     OW 2158   2.727   2.210   0.195
  714SOL    HW1 2159   2.786   2.273   0.146
  714SOL    HW2 2160   2.746   2.116   0.166
  715SOL     OW 2161   2.412   2.058   0.885
  715SOL    HW1 2162   2.407   2.053   0.985
  715SOL    HW2 2163   2.414   2.154   0.856
  716SOL     OW 2164   2.064   2.147   1.498
  716SOL    HW1 2165   1.984   2.207   1.485
  716SOL    HW2 2166   2.054   2.098   1.584
  717SOL     OW 2167   2.244   2.562   0.480
  717SOL    HW1 2168   2.289   2.472   0.477
  717SOL    HW2 2169   2.150   2.551   0.513
  718SOL     OW 2170   2.476   1.984   0.117
  718SOL    HW1 2171   2.574   1.962   0.124
  718SOL    HW2 2172   2.445   1.967   0.024
  719SOL     OW 2173   2.643   2.126   1.749
  719SOL    HW1 2174   2.710   2.065   1.792
  719SOL    HW2 2175   2.570   2.145   1.814
  720SOL     OW 2176   2.784   2.365   0.899
  720SOL    HW1 2177   2.759   2.356   0.803
  720SOL    HW2 2178   2.832   2.283   0.930
  721SOL     OW 2179   2.401   1.926   0.512
  721SOL    HW1 2180   2.320   1.927   0.570
  721SOL    HW2 2181   2.404   2.009   0.457
  722SOL     OW 2182   2.797   2.098   0.480
  722SOL    HW1 2183   2.749   2.139   0.402
  722SOL    HW2 2184   2.896   2.096   0.461
  723SOL     OW 2185   1.940   2.418   1.386
  723SOL    HW1 2186   2.032   2.417   1.345
  723SOL    HW2 2187   1.934   2.492   1.453
  724SOL     OW 2188   2.423   2.084   1.147
  724SOL    HW1 2189   2.461   2.000   1.184
  724SOL    HW2 2190   2.335   2.103   1.191
  725SOL     OW 2191   2.879   1.901   0.753
  725SOL    HW1 2192   2.807   1.906   0.684
  725SOL    HW2 2193   2.855   1.832   0.822
  726SOL     OW 2194   2.389   2.118   0.328
  726SOL    HW1 2195   2.416   2.059   0.253
  726SOL    HW2 2196   2.389   2.213   0.297
  727SOL     OW 2197   2.777   1.951   1.402
  727SOL    HW1 2198   2.802   1.931   1.307
  727SOL    HW2 2199   2.849   2.007   1.444
  728SOL     OW 2200   2.842   2.978   1.719
  728SOL    HW1 2201   2.743   2.984   1.729
  728SOL    HW2 2202   2.865   2.898   1.663
  729SOL     OW 2203   2.272   2.675   1.251
  729SOL    HW1 2204   2.358   2.687   1.301
  729SOL    HW2 2205   2.230   2.588   1.278
  730SOL     OW 2206   2.428   2.399   0.865
  730SOL    HW1 2207   2.440   2.465   0.791
  730SOL    HW2 2208   2.474   2.433   0.948
  731SOL     OW 2209   2.264   2.613   1.598
  731SOL    HW1 2210   2.332   2.668   1.551
  731SOL    HW2 2211   2.304   2.525   1.625
  732SOL     OW 2212   2.875   1.967   1.770
  732SOL    HW1 2213   2.881   2.052   1.718
  732SOL    HW2 2214   2.907   1.891   1.713
  733SOL     OW 2215   2.366   1.912   1.740
  733SOL    HW1 2216   2.324   1.855   1.670
  733SOL    HW2 2217   2.300   1.981   1.772
  734SOL     OW 2218   2.435   2.732   1.029
  734SOL    HW1 2219   2.479   2.821   1.020
  734SOL    HW2 2220   2.372   2.732   1.106
  735SOL     OW 2221   3.071   2.387   0.275
  735SOL    HW1 2222   3.084   2.303   0.329
  735SOL    HW2 2223   3.042   2.461   0.335
  736SOL     OW 2224   2.169   2.075   1.231
  736SOL    HW1 2225   2.146   2.112   1.321
  736SOL    HW2 2226   2.139   1.980   1.225
  737SOL     OW 2227   2.594   2.496   1.064
  737SOL    HW1 2228   2.653   2.470   0.988
  737SOL    HW2 2229   2.566   2.592   1.053
  738SOL     OW 2230   2.169   1.925   0.618
  738SOL    HW1 2231   2.158   2.019   0.651
  738SOL    HW2 2232   2.164   1.862   0.695
  739SOL     OW 2233   2.885   2.628   0.966
  739SOL    HW1 2234   2.900   2.649   1.062
  739SOL    HW2 2235   2.855   2.533   0.957
  740SOL     OW 2236   2.212   2.760   1.804
  740SOL    HW1 2237   2.288   2.804   1.852
  740SOL    HW2 2238   2.247   2.713   1.722
  741SOL     OW 2239   2.181   2.672   0.949
  741SOL    HW1 2240   2.274   2.708   0.954
  741SOL    HW2 2241   2.175   2.587   1.001
  742SOL     OW 2242   2.201   2.371   1.006
  742SOL    HW1 2243   2.149   2.288   0.989
  742SOL    HW2 2244   2.278   2.376   0.942
  743SOL     OW 2245   2.864   2.658   1.238
  743SOL    HW1 2246   2.905   2.626   1.324
  743SOL    HW2 2247   2.768   2.631   1.235
  744SOL     OW 2248   1.902   2.406   1.114
  744SOL    HW1 2249   1.987   2.373   1.073
  744SOL    HW2 2250   1.915   2.421   1.212
  745SOL     OW 2251   2.051   2.382   1.722
  745SOL    HW1 2252   2.110   2.342   1.652
  745SOL    HW2 2253   1.993   2.453   1.681
  746SOL     OW 2254   2.677   2.434   0.325
  746SOL    HW1 2255   2.684   2.345   0.279
  746SOL    HW2 2256   2.583   2.468   0.317
  747SOL     OW 2257   2.533   2.326   1.269
  747SOL    HW1 2258   2.499   2.237   1.239
  747SOL    HW2 2259   2.559   2.380   1.189
  748SOL     OW 2260   2.335   2.362   0.191
  748SOL    HW1 2261   2.396   2.442   0.195
  748SOL    HW2 2262   2.240   2.393   0.198
  749SOL     OW 2263   2.021   2.999   1.466
  749SOL    HW1 2264   2.043   2.938   1.542
  749SOL    HW2 2265   2.031   2.950   1.380
  750SOL     OW 2266   3.164   2.717   0.309
  750SOL    HW1 2267   3.078   2.686   0.351
  750SOL    HW2 2268   3.160   2.703   0.210
  751SOL     OW 2269   2.765   1.948   0.133
  751SOL    HW1 2270   2.816   1.949   0.047
  751SOL    HW2 2271   2.821   1.906   0.204
  752SOL     OW 2272   2.125   2.188   0.720
  752SOL    HW1 2273   2.046   2.239   0.686
  752SOL    HW2 2274   2.116   2.173   0.818
  753SOL     OW 2275   2.778   2.772   0.291
  753SOL    HW1 2276   2.841   2.810   0.223
  753SOL    HW2 2277   2.818   2.689   0.330
  754SOL     OW 2278   2.876   2.098   0.971
  754SOL    HW1 2279   2.868   2.062   0.878
  754SOL    HW2 2280   2.874   2.022   1.036
  755SOL     OW 2281   1.967   2.875   1.726
  755SOL    HW1 2282   1.890   2.842   1.780
  755SOL    HW2 2283   2.052   2.845   1.768
  756SOL     OW 2284   2.534   2.065   1.489
  756SOL    HW1 2285   2.624   2.049   1.449
  756SOL    HW2 2286   2.542   2.070   1.588
  757SOL     OW 2287   1.937   2.207   0.033
  757SOL    HW1 2288   1.845   2.179   0.004
  757SOL    HW2 2289   1.968   2.284  -0.023
  758SOL     OW 2290   2.475   2.704   1.431
  758SOL    HW1 2291   2.531   2.785   1.414
  758SOL    HW2 2292   2.534   2.624   1.434
  759SOL     OW 2293   2.578   2.427   1.708
  759SOL    HW1 2294   2.597   2.492   1.782
  759SOL    HW2 2295   2.638   2.347   1.717
  760SOL     OW 2296   3.087   2.187   0.449
  760SOL    HW1 2297   3.152   2.113   0.438
  760SOL    HW2 2298   3.107   2.237   0.533
  761SOL     OW 2299   2.456   2.607   0.652
  761SOL    HW1 2300   2.506   2.692   0.633
  761SOL    HW2 2301   2.368   2.609   0.604
  762SOL     OW 2302   2.721   2.818   0.861
  762SOL    HW1 2303   2.775   2.749   0.909
  762SOL    HW2 2304   2.689   2.887   0.927
  763SOL     OW 2305   2.945   2.846   0.087
  763SOL    HW1 2306   2.922   2.899   0.005
  763SOL    HW2 2307   3.026   2.790   0.068
  764SOL     OW 2308   1.941   3.102   0.653
  764SOL    HW1 2309   1.940   3.055   0.741
  764SOL    HW2 2310   2.023   3.074   0.602
  765SOL     OW 2311   2.290   2.286   0.520
  765SOL    HW1 2312   2.320   2.214   0.458
  765SOL    HW2 2313   2.251   2.246   0.603
  766SOL     OW 2314   2.179   2.409   1.280
  766SOL    HW1 2315   2.217   2.350   1.352
  766SOL    HW2 2316   2.219   2.383   1.192
  767SOL     OW 2317   2.863   1.896   1.154
  767SOL    HW1 2318   2.800   1.824   1.123
  767SOL    HW2 2319   2.956   1.860   1.154
  768SOL     OW 2320   2.092   2.490   1.975
  768SOL    HW1 2321   1.999   2.488   2.012
  768SOL    HW2 2322   2.093   2.451   1.883
  769SOL     OW 2323   2.087   2.137   2.858
  769SOL    HW1 2324   2.122   2.120   2.950
  769SOL    HW2 2325   1.999   2.092   2.846
  770SOL     OW 2326   1.881   2.230   2.509
  770SOL    HW1 2327   1.799   2.273   2.548
  770SOL    HW2 2328   1.853   2.157   2.446
  771SOL     OW 2329   2.547   2.874   2.527
  771SOL    HW1 2330   2.616   2.858   2.597
  771SOL    HW2 2331   2.474   2.931   2.565
  772SOL     OW 2332   2.102   2.953   2.748
  772SOL    HW1 2333   2.116   2.869   2.800
  772SOL    HW2 2334   2.047   3.017   2.803
  773SOL     OW 2335   1.984   2.505   2.425
  773SOL    HW1 2336   1.939   2.417   2.442
  773SOL    HW2 2337   1.983   2.559   2.509
  774SOL     OW 2338   2.475   3.227   2.588
  774SOL    HW1 2339   2.426   3.140   2.597
  774SOL    HW2 2340   2.452   3.270   2.501
  775SOL     OW 2341   2.671   1.866   2.364
  775SOL    HW1 2342   2.711   1.957   2.355
  775SOL    HW2 2343   2.571   1.874   2.370
  776SOL     OW 2344   2.460   2.591   2.132
  776SOL    HW1 2345   2.484   2.660   2.064
  776SOL    HW2 2346   2.382   2.624   2.186
  777SOL     OW 2347   1.938   2.673   2.651
  777SOL    HW1 2348   2.037   2.661   2.660
  777SOL    HW2 2349   1.914   2.768   2.672
  778SOL     OW 2350   2.727   2.210   2.057
  778SOL    HW1 2351   2.786   2.273   2.008
  778SOL    HW2 2352   2.746   2.116   2.028
  779SOL     OW 2353   2.244   2.562   2.342
  779SOL    HW1 2354   2.289   2.472   2.339
  779SOL    HW2 2355   2.150   2.551   2.375
  780SOL     OW 2356   2.476   1.984   1.979
  780SOL    HW1 2357   2.574   1.962   1.986
  780SOL    HW2 2358   2.445   1.967   1.886
  781SOL     OW 2359   2.784   2.365   2.761
  781SOL    HW1 2360   2.759   2.356   2.665
  781SOL    HW2 2361   2.832   2.283   2.792
  782SOL     OW 2362   2.401   1.926   2.374
  782SOL    HW1 2363   2.320   1.927   2.432
  782SOL    HW2 2364   2.404   2.009   2.319
  783SOL     OW 2365   2.159   1.897   2.033
  783SOL    HW1 2366   2.208   1.981   2.012
  783SOL    HW2 2367   2.221   1.832   2.078
  784SOL     OW 2368   2.797   2.098   2.342
  784SOL    HW1 2369   2.749   2.139   2.264
  784SOL    HW2 2370   2.896   2.096   2.323
  785SOL     OW 2371   2.879   1.901   2.615
  785SOL    HW1 2372   2.807   1.906   2.546
  785SOL    HW2 2373   2.855   1.832   2.684
  786SOL     OW 2374   2.389   2.118   2.190
  786SOL    HW1 2375   2.416   2.059   2.115
  786SOL    HW2 2376   2.389   2.213   2.159
  787SOL     OW 2377   2.973   3.057   2.962
  787SOL    HW1 2378   2.933   3.101   3.043
  787SOL    HW2 2379   2.932   3.094   2.879
  788SOL     OW 2380   2.428   2.399   2.727
  788SOL    HW1 2381   2.440   2.465   2.653
  788SOL    HW2 2382   2.474   2.433   2.810
  789SOL     OW 2383   2.435   2.732   2.891
  789SOL    HW1 2384   2.479   2.821   2.882
  789SOL    HW2 2385   2.372   2.732   2.968
  790SOL     OW 2386   3.071   2.387   2.137
  790SOL    HW1 2387   3.084   2.303   2.191
  790SOL    HW2 2388   3.042   2.461   2.197
  791SOL     OW 2389   2.169   2.075   3.093
  791SOL    HW1 2390   2.146   2.112   3.183
  791SOL    HW2 2391   2.139   1.980   3.087
  792SOL     OW 2392   2.594   2.496   2.926
  792SOL    HW1 2393   2.653   2.470   2.850
  792SOL    HW2 2394   2.566   2.592   2.915
  793SOL     OW 2395   2.169   1.925   2.480
  793SOL    HW1 2396   2.158   2.019   2.513
  793SOL    HW2 2397   2.164   1.862   2.557
  794SOL     OW 2398   2.885   2.628   2.828
  794SOL    HW1 2399   2.900   2.649   2.924
  794SOL    HW2 2400   2.855   2.533   2.819
  795SOL     OW 2401   2.181   2.672   2.811
  795SOL    HW1 2402   2.274   2.708   2.816
  795SOL    HW2 2403   2.175   2.587   2.863
  796SOL     OW 2404   2.677   2.434   2.187
  796SOL    HW1 2405   2.684   2.345   2.141
  796SOL    HW2 2406   2.583   2.468   2.179
  797SOL     OW 2407   2.533   2.326   3.131
  797SOL    HW1 2408   2.499   2.237   3.101
  797SOL    HW2 2409   2.559   2.380   3.051
  798SOL     OW 2410   2.335   2.362   2.053
  798SOL    HW1 2411   2.396   2.442   2.057
  798SOL    HW2 2412   2.240   2.393   2.060
  799SOL     OW 2413   3.164   2.717   2.171
  799SOL    HW1 2414   3.078   2.686   2.213
  799SOL    HW2 2415   3.160   2.703   2.072
  800SOL     OW 2416   2.125   2.188   2.582
  800SOL    HW1 2417   2.046   2.239   2.548
  800SOL    HW2 2418   2.116   2.173   2.680
  801SOL     OW 2419   2.778   2.772   2.153
  801SOL    HW1 2420   2.841   2.810   2.085
  801SOL    HW2 2421   2.818   2.689   2.192
  802SOL     OW 2422   1.937   2.207   1.895
  802SOL    HW1 2423   1.845   2.179   1.866
  802SOL    HW2 2424   1.968   2.284   1.839
  803SOL     OW 2425   1.934   2.028   2.180
  803SOL    HW1 2426   1.917   2.111   2.126
  803SOL    HW2 2427   2.024   1.991   2.158
  804SOL     OW 2428   3.087   2.187   2.311
  804SOL    HW1 2429   3.152   2.113   2.300
  804SOL    HW2 2430   3.107   2.237   2.395
  805SOL     OW 2431   2.456   2.607   2.514
  805SOL    HW1 2432   2.506   2.692   2.495
  805SOL    HW2 2433   2.368   2.609   2.466
  806SOL     OW 2434   2.721   2.818   2.723
  806SOL    HW1 2435   2.775   2.749   2.771
  806SOL    HW2 2436   2.689   2.887   2.789
  807SOL     OW 2437   1.941   3.102   2.515
  807SOL    HW1 2438   1.940   3.055   2.603
  807SOL    HW2 2439   2.023   3.074   2.464
  808SOL     OW 2440   2.290   2.286   2.382
  808SOL    HW1 2441   2.320   2.214   2.320
  808SOL    HW2 2442   2.251   2.246   2.465
   2.92142   2.92142   2.92142
