mobley_4715906_GMX.gro created by acpype (v: 2023.10.27) on Thu May 14 13:34:48 2026
 1743
    1MOL     C1    1   1.210   1.342   1.126
    1MOL     C2    2   1.156   1.427   1.240
    1MOL     C3    3   1.242   1.200   1.172
    1MOL     C4    4   1.249   1.427   1.361
    1MOL     C5    5   1.338   1.197   1.293
    1MOL     C6    6   1.282   1.284   1.408
    1MOL     C7    7   1.480   1.234   1.250
    1MOL     C8    8   1.373   1.287   1.530
    1MOL     H1    9   1.136   1.338   1.045
    1MOL     H2   10   1.300   1.389   1.085
    1MOL     H3   11   1.141   1.530   1.205
    1MOL     H4   12   1.058   1.390   1.270
    1MOL     H5   13   1.149   1.150   1.199
    1MOL     H6   14   1.285   1.143   1.089
    1MOL     H7   15   1.342   1.480   1.335
    1MOL     H8   16   1.203   1.483   1.443
    1MOL     H9   17   1.342   1.093   1.329
    1MOL    H10   18   1.187   1.238   1.440
    1MOL    H11   19   1.509   1.331   1.292
    1MOL    H12   20   1.552   1.159   1.286
    1MOL    H13   21   1.488   1.239   1.141
    1MOL    H14   22   1.458   1.354   1.513
    1MOL    H15   23   1.318   1.323   1.618
    1MOL    H16   24   1.411   1.187   1.552
    2SOL     OW   25   0.230   0.628   0.113
    2SOL    HW1   26   0.137   0.626   0.150
    2SOL    HW2   27   0.231   0.589   0.021
    3SOL     OW   28   0.225   0.275   0.996
    3SOL    HW1   29   0.260   0.258   1.088
    3SOL    HW2   30   0.137   0.230   0.984
    4SOL     OW   31   0.019   0.368   0.647
    4SOL    HW1   32  -0.063   0.411   0.686
    4SOL    HW2   33  -0.009   0.295   0.584
    5SOL     OW   34   0.569   1.275   1.165
    5SOL    HW1   35   0.476   1.268   1.128
    5SOL    HW2   36   0.580   1.364   1.209
    6SOL     OW   37   1.555   1.511   0.703
    6SOL    HW1   38   1.498   1.495   0.784
    6SOL    HW2   39   1.496   1.521   0.623
    7SOL     OW   40   1.135   0.703   0.717
    7SOL    HW1   41   1.192   0.781   0.692
    7SOL    HW2   42   1.075   0.729   0.793
    8SOL     OW   43   1.755   0.607   0.231
    8SOL    HW1   44   1.743   0.594   0.132
    8SOL    HW2   45   1.725   0.526   0.280
    9SOL     OW   46   0.768   1.144   1.023
    9SOL    HW1   47   0.690   1.161   1.083
    9SOL    HW2   48   0.802   1.231   0.987
   10SOL     OW   49   0.850   0.798   1.823
   10SOL    HW1   50   0.846   0.874   1.888
   10SOL    HW2   51   0.872   0.834   1.732
   11SOL     OW   52   0.685   1.012   0.665
   11SOL    HW1   53   0.754   0.996   0.735
   11SOL    HW2   54   0.612   1.069   0.703
   12SOL     OW   55   0.686   1.161   1.803
   12SOL    HW1   56   0.746   1.240   1.817
   12SOL    HW2   57   0.600   1.192   1.762
   13SOL     OW   58   0.335   1.435   1.061
   13SOL    HW1   59   0.257   1.404   1.008
   13SOL    HW2   60   0.393   1.493   1.004
   14SOL     OW   61   0.438   0.392   1.499
   14SOL    HW1   62   0.520   0.336   1.508
   14SOL    HW2   63   0.357   0.334   1.503
   15SOL     OW   64   1.603   0.447   0.737
   15SOL    HW1   65   1.529   0.493   0.687
   15SOL    HW2   66   1.654   0.515   0.790
   16SOL     OW   67   0.231   1.713   0.483
   16SOL    HW1   68   0.265   1.790   0.537
   16SOL    HW2   69   0.275   1.713   0.393
   17SOL     OW   70   1.127   1.341   1.690
   17SOL    HW1   71   1.174   1.341   1.778
   17SOL    HW2   72   1.079   1.254   1.679
   18SOL     OW   73   0.230   1.434   0.538
   18SOL    HW1   74   0.204   1.530   0.538
   18SOL    HW2   75   0.159   1.380   0.583
   19SOL     OW   76   0.240   1.091   0.886
   19SOL    HW1   77   0.254   1.007   0.938
   19SOL    HW2   78   0.185   1.155   0.941
   20SOL     OW   79   0.620   1.786   1.439
   20SOL    HW1   80   0.528   1.769   1.474
   20SOL    HW2   81   0.648   1.878   1.465
   21SOL     OW   82   0.606   0.964   0.123
   21SOL    HW1   83   0.613   1.048   0.069
   21SOL    HW2   84   0.652   0.977   0.211
   22SOL     OW   85   1.594   0.114   1.480
   22SOL    HW1   86   1.576   0.181   1.408
   22SOL    HW2   87   1.591   0.160   1.569
   23SOL     OW   88   0.122   0.643   0.563
   23SOL    HW1   89   0.077   0.555   0.580
   23SOL    HW2   90   0.121   0.697   0.647
   24SOL     OW   91   1.842   1.767   0.359
   24SOL    HW1   92   1.896   1.738   0.439
   24SOL    HW2   93   1.872   1.857   0.330
   25SOL     OW   94   0.027   1.596   0.117
   25SOL    HW1   95   0.008   1.500   0.138
   25SOL    HW2   96  -0.006   1.654   0.192
   26SOL     OW   97   1.689   0.922   0.612
   26SOL    HW1   98   1.784   0.893   0.620
   26SOL    HW2   99   1.681   0.987   0.537
   27SOL     OW  100   1.641   1.108   0.432
   27SOL    HW1  101   1.727   1.110   0.380
   27SOL    HW2  102   1.655   1.155   0.520
   28SOL     OW  103   0.113   0.737   1.597
   28SOL    HW1  104   0.201   0.724   1.642
   28SOL    HW2  105   0.100   0.834   1.575
   29SOL     OW  106   0.613   1.365   0.726
   29SOL    HW1  107   0.564   1.278   0.735
   29SOL    HW2  108   0.590   1.408   0.639
   30SOL     OW  109   0.809   0.004   0.502
   30SOL    HW1  110   0.849   0.095   0.493
   30SOL    HW2  111   0.709   0.012   0.508
   31SOL     OW  112   0.197   0.976   1.264
   31SOL    HW1  113   0.286   0.931   1.250
   31SOL    HW2  114   0.124   0.911   1.245
   32SOL     OW  115   1.525   0.999   0.190
   32SOL    HW1  116   1.462   0.923   0.203
   32SOL    HW2  117   1.573   1.017   0.276
   33SOL     OW  118   1.187   1.792   1.616
   33SOL    HW1  119   1.211   1.852   1.540
   33SOL    HW2  120   1.194   1.697   1.586
   34SOL     OW  121   0.317   0.251   1.801
   34SOL    HW1  122   0.388   0.322   1.807
   34SOL    HW2  123   0.229   0.290   1.829
   35SOL     OW  124   1.667   1.714   0.572
   35SOL    HW1  125   1.626   1.691   0.484
   35SOL    HW2  126   1.649   1.640   0.637
   36SOL     OW  127   0.598   0.729   0.270
   36SOL    HW1  128   0.622   0.798   0.202
   36SOL    HW2  129   0.520   0.762   0.324
   37SOL     OW  130   1.281   0.345   0.944
   37SOL    HW1  131   1.195   0.295   0.931
   37SOL    HW2  132   1.343   0.291   1.000
   38SOL     OW  133   1.576   1.662   0.307
   38SOL    HW1  134   1.665   1.708   0.310
   38SOL    HW2  135   1.555   1.638   0.212
   39SOL     OW  136   0.807   0.605   1.465
   39SOL    HW1  137   0.760   0.602   1.554
   39SOL    HW2  138   0.756   0.550   1.399
   40SOL     OW  139   1.394   0.469   1.674
   40SOL    HW1  140   1.374   0.512   1.762
   40SOL    HW2  141   1.472   0.407   1.683
   41SOL     OW  142   0.973   0.890   1.572
   41SOL    HW1  143   1.019   0.806   1.543
   41SOL    HW2  144   0.917   0.924   1.497
   42SOL     OW  145   0.991   0.410   1.242
   42SOL    HW1  146   0.914   0.444   1.296
   42SOL    HW2  147   0.957   0.359   1.163
   43SOL     OW  148   1.041   0.701   0.429
   43SOL    HW1  149   1.067   0.697   0.525
   43SOL    HW2  150   0.956   0.650   0.415
   44SOL     OW  151   0.076   0.811   0.789
   44SOL    HW1  152   0.175   0.799   0.798
   44SOL    HW2  153   0.052   0.906   0.810
   45SOL     OW  154   0.130   1.821   1.571
   45SOL    HW1  155   0.120   1.806   1.670
   45SOL    HW2  156   0.044   1.857   1.535
   46SOL     OW  157   0.865   0.348   0.195
   46SOL    HW1  158   0.924   0.411   0.146
   46SOL    HW2  159   0.884   0.254   0.166
   47SOL     OW  160   1.719   0.585   1.831
   47SOL    HW1  161   1.693   0.674   1.795
   47SOL    HW2  162   1.717   0.517   1.758
   48SOL     OW  163   1.362   1.144   0.545
   48SOL    HW1  164   1.445   1.115   0.497
   48SOL    HW2  165   1.313   1.211   0.489
   49SOL     OW  166   0.550   0.196   0.885
   49SOL    HW1  167   0.545   0.191   0.985
   49SOL    HW2  168   0.552   0.292   0.856
   50SOL     OW  169   1.008   1.456   0.477
   50SOL    HW1  170   0.962   1.528   0.425
   50SOL    HW2  171   1.004   1.476   0.575
   51SOL     OW  172   0.351   1.801   0.853
   51SOL    HW1  173   0.401   1.715   0.859
   51SOL    HW2  174   0.416   1.878   0.850
   52SOL     OW  175   1.795   1.066   0.873
   52SOL    HW1  176   1.733   1.051   0.797
   52SOL    HW2  177   1.743   1.077   0.958
   53SOL     OW  178   0.321   0.943   0.242
   53SOL    HW1  179   0.403   0.982   0.200
   53SOL    HW2  180   0.294   0.861   0.193
   54SOL     OW  181   1.458   0.735   0.728
   54SOL    HW1  182   1.453   0.670   0.803
   54SOL    HW2  183   1.538   0.794   0.741
   55SOL     OW  184   0.461   1.266   1.727
   55SOL    HW1  185   0.411   1.267   1.641
   55SOL    HW2  186   0.398   1.248   1.803
   56SOL     OW  187   1.111   1.776   0.237
   56SOL    HW1  188   1.051   1.714   0.287
   56SOL    HW2  189   1.142   1.732   0.152
   57SOL     OW  190   0.202   0.285   1.498
   57SOL    HW1  191   0.122   0.345   1.485
   57SOL    HW2  192   0.192   0.236   1.584
   58SOL     OW  193   1.632   1.377   0.081
   58SOL    HW1  194   1.600   1.471   0.071
   58SOL    HW2  195   1.556   1.314   0.069
   59SOL     OW  196   0.464   1.743   0.323
   59SOL    HW1  197   0.497   1.782   0.409
   59SOL    HW2  198   0.540   1.736   0.258
   60SOL     OW  199   1.400   0.107   0.426
   60SOL    HW1  200   1.376   0.070   0.336
   60SOL    HW2  201   1.499   0.123   0.430
   61SOL     OW  202   0.249   1.785   1.241
   61SOL    HW1  203   0.306   1.720   1.291
   61SOL    HW2  204   0.233   1.752   1.148
   62SOL     OW  205   0.940   1.698   0.904
   62SOL    HW1  206   1.020   1.641   0.925
   62SOL    HW2  207   0.891   1.658   0.827
   63SOL     OW  208   0.382   0.700   0.480
   63SOL    HW1  209   0.427   0.610   0.477
   63SOL    HW2  210   0.288   0.689   0.513
   64SOL     OW  211   1.547   0.222   1.729
   64SOL    HW1  212   1.542   0.259   1.821
   64SOL    HW2  213   1.475   0.153   1.717
   65SOL     OW  214   0.614   0.122   0.117
   65SOL    HW1  215   0.712   0.100   0.124
   65SOL    HW2  216   0.583   0.105   0.024
   66SOL     OW  217   0.781   0.264   1.749
   66SOL    HW1  218   0.848   0.203   1.792
   66SOL    HW2  219   0.708   0.283   1.814
   67SOL     OW  220   1.351   0.590   1.433
   67SOL    HW1  221   1.379   0.547   1.518
   67SOL    HW2  222   1.376   0.686   1.434
   68SOL     OW  223   0.803   1.402   0.924
   68SOL    HW1  224   0.893   1.416   0.882
   68SOL    HW2  225   0.732   1.404   0.853
   69SOL     OW  226   0.922   0.503   0.899
   69SOL    HW1  227   0.897   0.494   0.803
   69SOL    HW2  228   0.970   0.421   0.930
   70SOL     OW  229   0.539   0.064   0.512
   70SOL    HW1  230   0.458   0.065   0.570
   70SOL    HW2  231   0.542   0.147   0.457
   71SOL     OW  232   1.434   1.188   0.041
   71SOL    HW1  233   1.466   1.112   0.098
   71SOL    HW2  234   1.342   1.215   0.071
   72SOL     OW  235   0.297   0.035   0.171
   72SOL    HW1  236   0.346   0.119   0.150
   72SOL    HW2  237   0.359  -0.030   0.216
   73SOL     OW  238   0.935   0.236   0.480
   73SOL    HW1  239   0.887   0.277   0.402
   73SOL    HW2  240   1.034   0.234   0.461
   74SOL     OW  241   1.076   0.683   1.464
   74SOL    HW1  242   0.996   0.622   1.467
   74SOL    HW2  243   1.157   0.630   1.440
   75SOL     OW  244   1.227   1.570   0.793
   75SOL    HW1  245   1.248   1.644   0.728
   75SOL    HW2  246   1.295   1.570   0.866
   76SOL     OW  247   0.459   1.152   0.741
   76SOL    HW1  248   0.388   1.125   0.806
   76SOL    HW2  249   0.433   1.124   0.648
   77SOL     OW  250   1.271   1.797   0.591
   77SOL    HW1  251   1.315   1.861   0.527
   77SOL    HW2  252   1.221   1.849   0.661
   78SOL     OW  253   1.032   0.549   0.016
   78SOL    HW1  254   0.991   0.631  -0.023
   78SOL    HW2  255   1.096   0.575   0.089
   79SOL     OW  256   0.078   0.556   1.386
   79SOL    HW1  257   0.170   0.555   1.345
   79SOL    HW2  258   0.072   0.630   1.453
   80SOL     OW  259   0.561   0.222   1.147
   80SOL    HW1  260   0.599   0.138   1.184
   80SOL    HW2  261   0.473   0.241   1.191
   81SOL     OW  262   0.866   0.454   0.642
   81SOL    HW1  263   0.834   0.526   0.580
   81SOL    HW2  264   0.890   0.373   0.589
   82SOL     OW  265   1.017   0.039   0.753
   82SOL    HW1  266   0.945   0.044   0.684
   82SOL    HW2  267   0.993  -0.030   0.822
   83SOL     OW  268   1.429   1.173   0.867
   83SOL    HW1  269   1.374   1.089   0.860
   83SOL    HW2  270   1.455   1.202   0.775
   84SOL     OW  271   1.466   0.590   0.992
   84SOL    HW1  272   1.436   0.495   0.999
   84SOL    HW2  273   1.539   0.606   1.058
   85SOL     OW  274   1.857   0.833   0.377
   85SOL    HW1  275   1.899   0.769   0.441
   85SOL    HW2  276   1.819   0.782   0.299
   86SOL     OW  277   0.488   1.385   0.174
   86SOL    HW1  278   0.401   1.370   0.221
   86SOL    HW2  279   0.471   1.411   0.079
   87SOL     OW  280   1.664   1.280   0.657
   87SOL    HW1  281   1.763   1.288   0.671
   87SOL    HW2  282   1.619   1.364   0.688
   88SOL     OW  283   1.390   0.575   0.078
   88SOL    HW1  284   1.336   0.554   0.159
   88SOL    HW2  285   1.481   0.534   0.087
   89SOL     OW  286   0.527   0.256   0.328
   89SOL    HW1  287   0.554   0.197   0.253
   89SOL    HW2  288   0.527   0.351   0.297
   90SOL     OW  289   1.754   1.223   1.588
   90SOL    HW1  290   1.845   1.184   1.575
   90SOL    HW2  291   1.762   1.319   1.612
   91SOL     OW  292   1.592   1.629   1.625
   91SOL    HW1  293   1.619   1.663   1.535
   91SOL    HW2  294   1.671   1.591   1.671
   92SOL     OW  295   1.638   1.099   1.079
   92SOL    HW1  296   1.643   1.180   1.138
   92SOL    HW2  297   1.552   1.101   1.028
   93SOL     OW  298   0.915   0.089   1.402
   93SOL    HW1  299   0.940   0.069   1.307
   93SOL    HW2  300   0.987   0.145   1.444
   94SOL     OW  301   0.980   1.116   1.719
   94SOL    HW1  302   0.881   1.122   1.729
   94SOL    HW2  303   1.003   1.036   1.663
   95SOL     OW  304   0.705   1.050   0.368
   95SOL    HW1  305   0.691   1.057   0.467
   95SOL    HW2  306   0.789   0.999   0.350
   96SOL     OW  307   0.410   0.813   1.251
   96SOL    HW1  308   0.496   0.825   1.301
   96SOL    HW2  309   0.368   0.726   1.278
   97SOL     OW  310   1.274   0.386   1.262
   97SOL    HW1  311   1.295   0.460   1.326
   97SOL    HW2  312   1.185   0.403   1.219
   98SOL     OW  313   0.064   1.564   1.331
   98SOL    HW1  314   0.018   1.646   1.297
   98SOL    HW2  315   0.162   1.583   1.340
   99SOL     OW  316   0.367   1.100   0.501
   99SOL    HW1  317   0.360   1.183   0.445
   99SOL    HW2  318   0.371   1.020   0.441
  100SOL     OW  319   0.566   0.537   0.865
  100SOL    HW1  320   0.578   0.603   0.791
  100SOL    HW2  321   0.612   0.571   0.948
  101SOL     OW  322   1.252   1.348   0.388
  101SOL    HW1  323   1.302   1.425   0.428
  101SOL    HW2  324   1.157   1.350   0.420
  102SOL     OW  325   1.582   0.639   0.472
  102SOL    HW1  326   1.551   0.700   0.545
  102SOL    HW2  327   1.632   0.691   0.403
  103SOL     OW  328   0.354   1.510   1.329
  103SOL    HW1  329   0.333   1.466   1.242
  103SOL    HW2  330   0.451   1.536   1.332
  104SOL     OW  331   0.402   0.751   1.598
  104SOL    HW1  332   0.470   0.806   1.551
  104SOL    HW2  333   0.442   0.663   1.625
  105SOL     OW  334   1.587   0.779   1.670
  105SOL    HW1  335   1.495   0.817   1.665
  105SOL    HW2  336   1.647   0.826   1.605
  106SOL     OW  337   1.013   0.105   1.770
  106SOL    HW1  338   1.019   0.190   1.718
  106SOL    HW2  339   1.045   0.029   1.713
  107SOL     OW  340   0.504   0.050   1.740
  107SOL    HW1  341   0.462  -0.007   1.670
  107SOL    HW2  342   0.438   0.119   1.772
  108SOL     OW  343   0.573   0.870   1.029
  108SOL    HW1  344   0.617   0.959   1.020
  108SOL    HW2  345   0.510   0.870   1.106
  109SOL     OW  346   1.360   0.862   1.045
  109SOL    HW1  347   1.285   0.862   0.979
  109SOL    HW2  348   1.397   0.770   1.054
  110SOL     OW  349   1.209   0.525   0.275
  110SOL    HW1  350   1.222   0.441   0.329
  110SOL    HW2  351   1.180   0.599   0.335
  111SOL     OW  352   0.307   0.213   1.231
  111SOL    HW1  353   0.284   0.250   1.321
  111SOL    HW2  354   0.277   0.118   1.225
  112SOL     OW  355   0.037   1.310   1.282
  112SOL    HW1  356   0.090   1.261   1.350
  112SOL    HW2  357   0.059   1.408   1.287
  113SOL     OW  358   0.732   0.634   1.064
  113SOL    HW1  359   0.791   0.608   0.988
  113SOL    HW2  360   0.704   0.730   1.053
  114SOL     OW  361   1.728   0.935   1.854
  114SOL    HW1  362   1.682   0.928   1.765
  114SOL    HW2  363   1.666   0.979   1.920
  115SOL     OW  364   0.307   0.063   0.618
  115SOL    HW1  365   0.296   0.157   0.651
  115SOL    HW2  366   0.302   0.000   0.695
  116SOL     OW  367   1.622   0.367   0.374
  116SOL    HW1  368   1.624   0.291   0.438
  116SOL    HW2  369   1.574   0.444   0.414
  117SOL     OW  370   1.023   0.766   0.966
  117SOL    HW1  371   1.038   0.787   1.062
  117SOL    HW2  372   0.993   0.671   0.957
  118SOL     OW  373   0.980   1.573   1.700
  118SOL    HW1  374   0.960   1.617   1.612
  118SOL    HW2  375   1.019   1.482   1.684
  119SOL     OW  376   1.859   1.518   1.605
  119SOL    HW1  377   1.873   1.545   1.510
  119SOL    HW2  378   1.942   1.540   1.658
  120SOL     OW  379   0.350   0.898   1.804
  120SOL    HW1  380   0.426   0.942   1.852
  120SOL    HW2  381   0.385   0.851   1.722
  121SOL     OW  382   1.540   0.274   0.125
  121SOL    HW1  383   1.479   0.199   0.148
  121SOL    HW2  384   1.562   0.326   0.208
  122SOL     OW  385   1.303   0.838   0.042
  122SOL    HW1  386   1.337   0.745   0.057
  122SOL    HW2  387   1.321   0.865  -0.053
  123SOL     OW  388   1.068   1.333   0.849
  123SOL    HW1  389   1.075   1.249   0.794
  123SOL    HW2  390   1.130   1.402   0.813
  124SOL     OW  391   0.319   0.810   0.949
  124SOL    HW1  392   0.412   0.846   0.954
  124SOL    HW2  393   0.313   0.725   1.001
  125SOL     OW  394   0.339   0.509   1.006
  125SOL    HW1  395   0.287   0.426   0.989
  125SOL    HW2  396   0.416   0.514   0.942
  126SOL     OW  397   1.138   0.380   1.678
  126SOL    HW1  398   1.093   0.443   1.742
  126SOL    HW2  399   1.231   0.411   1.661
  127SOL     OW  400   1.160   0.207   1.477
  127SOL    HW1  401   1.160   0.271   1.554
  127SOL    HW2  402   1.188   0.255   1.394
  128SOL     OW  403   0.008   1.326   0.200
  128SOL    HW1  404  -0.085   1.347   0.169
  128SOL    HW2  405   0.018   1.227   0.213
  129SOL     OW  406   0.088   1.801   0.927
  129SOL    HW1  407   0.046   1.715   0.900
  129SOL    HW2  408   0.182   1.804   0.893
  130SOL     OW  409   0.504   1.568   0.910
  130SOL    HW1  410   0.570   1.642   0.919
  130SOL    HW2  411   0.548   1.489   0.868
  131SOL     OW  412   1.002   0.796   1.238
  131SOL    HW1  413   1.043   0.764   1.324
  131SOL    HW2  414   0.906   0.769   1.235
  132SOL     OW  415   0.040   0.544   1.114
  132SOL    HW1  416   0.125   0.511   1.073
  132SOL    HW2  417   0.053   0.559   1.212
  133SOL     OW  418   0.189   0.520   1.722
  133SOL    HW1  419   0.248   0.480   1.652
  133SOL    HW2  420   0.131   0.591   1.681
  134SOL     OW  421   1.369   0.950   1.660
  134SOL    HW1  422   1.408   1.039   1.680
  134SOL    HW2  423   1.379   0.930   1.563
  135SOL     OW  424   0.815   0.572   0.325
  135SOL    HW1  425   0.822   0.483   0.279
  135SOL    HW2  426   0.721   0.606   0.317
  136SOL     OW  427   1.657   0.604   1.206
  136SOL    HW1  428   1.619   0.535   1.268
  136SOL    HW2  429   1.739   0.568   1.162
  137SOL     OW  430   0.252   1.564   1.744
  137SOL    HW1  431   0.222   1.621   1.820
  137SOL    HW2  432   0.245   1.467   1.770
  138SOL     OW  433   0.671   0.464   1.269
  138SOL    HW1  434   0.637   0.375   1.239
  138SOL    HW2  435   0.697   0.518   1.189
  139SOL     OW  436   0.930   1.678   1.465
  139SOL    HW1  437   0.906   1.660   1.370
  139SOL    HW2  438   0.960   1.772   1.475
  140SOL     OW  439   0.473   0.500   0.191
  140SOL    HW1  440   0.534   0.580   0.195
  140SOL    HW2  441   0.378   0.531   0.198
  141SOL     OW  442   0.159   1.137   1.466
  141SOL    HW1  443   0.181   1.076   1.542
  141SOL    HW2  444   0.169   1.088   1.380
  142SOL     OW  445   1.302   0.855   0.309
  142SOL    HW1  446   1.216   0.824   0.351
  142SOL    HW2  447   1.298   0.841   0.210
  143SOL     OW  448   1.759   1.747   1.154
  143SOL    HW1  449   1.820   1.777   1.081
  143SOL    HW2  450   1.721   1.658   1.132
  144SOL     OW  451   1.252   1.731   1.128
  144SOL    HW1  452   1.336   1.736   1.074
  144SOL    HW2  453   1.229   1.635   1.146
  145SOL     OW  454   0.083   1.258   1.022
  145SOL    HW1  455   0.078   1.257   1.122
  145SOL    HW2  456   0.000   1.217   0.984
  146SOL     OW  457   0.688   1.662   1.716
  146SOL    HW1  458   0.632   1.743   1.725
  146SOL    HW2  459   0.740   1.666   1.630
  147SOL     OW  460   0.903   0.086   0.133
  147SOL    HW1  461   0.954   0.087   0.047
  147SOL    HW2  462   0.959   0.044   0.204
  148SOL     OW  463   1.726   0.135   0.523
  148SOL    HW1  464   1.799   0.118   0.456
  148SOL    HW2  465   1.695   0.048   0.561
  149SOL     OW  466   1.388   1.573   0.477
  149SOL    HW1  467   1.455   1.585   0.403
  149SOL    HW2  468   1.348   1.662   0.500
  150SOL     OW  469   0.130   1.794   1.851
  150SOL    HW1  470   0.089   1.720   1.904
  150SOL    HW2  471   0.194   1.845   1.909
  151SOL     OW  472   1.280   0.927   0.672
  151SOL    HW1  473   1.340   0.846   0.674
  151SOL    HW2  474   1.320   0.996   0.612
  152SOL     OW  475   0.830   1.273   1.422
  152SOL    HW1  476   0.825   1.306   1.517
  152SOL    HW2  477   0.744   1.292   1.376
  153SOL     OW  478   0.672   1.616   0.154
  153SOL    HW1  479   0.681   1.626   0.055
  153SOL    HW2  480   0.632   1.527   0.175
  154SOL     OW  481   1.650   1.720   1.394
  154SOL    HW1  482   1.703   1.730   1.310
  154SOL    HW2  483   1.623   1.810   1.428
  155SOL     OW  484   1.841   0.175   0.963
  155SOL    HW1  485   1.880   0.090   0.927
  155SOL    HW2  486   1.743   0.177   0.944
  156SOL     OW  487   0.263   0.326   0.720
  156SOL    HW1  488   0.184   0.377   0.686
  156SOL    HW2  489   0.254   0.311   0.818
  157SOL     OW  490   1.194   1.612   0.031
  157SOL    HW1  491   1.200   1.519   0.068
  157SOL    HW2  492   1.135   1.612  -0.049
  158SOL     OW  493   0.822   1.002   1.372
  158SOL    HW1  494   0.862   1.001   1.280
  158SOL    HW2  495   0.832   1.094   1.412
  159SOL     OW  496   0.916   0.910   0.291
  159SOL    HW1  497   0.979   0.948   0.223
  159SOL    HW2  498   0.956   0.827   0.330
  160SOL     OW  499   1.504   1.607   0.044
  160SOL    HW1  500   1.412   1.644   0.051
  160SOL    HW2  501   1.542   1.627  -0.046
  161SOL     OW  502   0.372   1.288   1.490
  161SOL    HW1  503   0.359   1.381   1.456
  161SOL    HW2  504   0.288   1.236   1.477
  162SOL     OW  505   1.039   1.098   0.696
  162SOL    HW1  506   0.969   1.051   0.750
  162SOL    HW2  507   1.098   1.030   0.653
  163SOL     OW  508   1.014   0.236   0.971
  163SOL    HW1  509   1.006   0.200   0.878
  163SOL    HW2  510   1.012   0.160   1.036
  164SOL     OW  511   0.590   1.487   0.491
  164SOL    HW1  512   0.632   1.429   0.421
  164SOL    HW2  513   0.546   1.566   0.447
  165SOL     OW  514   1.709   0.385   1.381
  165SOL    HW1  515   1.782   0.454   1.385
  165SOL    HW2  516   1.737   0.310   1.322
  166SOL     OW  517   0.255   1.348   0.290
  166SOL    HW1  518   0.159   1.349   0.263
  166SOL    HW2  519   0.267   1.401   0.374
  167SOL     OW  520   0.105   1.013   1.726
  167SOL    HW1  521   0.028   0.980   1.780
  167SOL    HW2  522   0.190   0.983   1.768
  168SOL     OW  523   0.672   0.203   1.489
  168SOL    HW1  524   0.762   0.187   1.449
  168SOL    HW2  525   0.680   0.208   1.588
  169SOL     OW  526   0.075   0.345   0.033
  169SOL    HW1  527  -0.017   0.317   0.004
  169SOL    HW2  528   0.106   0.422  -0.023
  170SOL     OW  529   1.440   0.856   1.398
  170SOL    HW1  530   1.383   0.908   1.335
  170SOL    HW2  531   1.536   0.868   1.374
  171SOL     OW  532   0.072   0.166   0.318
  171SOL    HW1  533   0.055   0.249   0.264
  171SOL    HW2  534   0.162   0.129   0.296
  172SOL     OW  535   1.183   1.335   0.119
  172SOL    HW1  536   1.084   1.324   0.121
  172SOL    HW2  537   1.217   1.350   0.212
  173SOL     OW  538   0.613   0.842   1.431
  173SOL    HW1  539   0.669   0.923   1.414
  173SOL    HW2  540   0.672   0.762   1.434
  174SOL     OW  541   1.493   1.767   0.959
  174SOL    HW1  542   1.526   1.831   0.890
  174SOL    HW2  543   1.559   1.761   1.034
  175SOL     OW  544   0.716   0.565   1.708
  175SOL    HW1  545   0.735   0.630   1.782
  175SOL    HW2  546   0.776   0.485   1.717
  176SOL     OW  547   0.390   1.741   1.560
  176SOL    HW1  548   0.299   1.782   1.558
  176SOL    HW2  549   0.383   1.647   1.592
  177SOL     OW  550   1.674   0.883   1.254
  177SOL    HW1  551   1.647   0.794   1.217
  177SOL    HW2  552   1.675   0.951   1.181
  178SOL     OW  553   1.225   0.325   0.449
  178SOL    HW1  554   1.290   0.251   0.438
  178SOL    HW2  555   1.245   0.375   0.533
  179SOL     OW  556   0.594   0.745   0.652
  179SOL    HW1  557   0.644   0.830   0.633
  179SOL    HW2  558   0.506   0.747   0.604
  180SOL     OW  559   1.777   0.342   1.642
  180SOL    HW1  560   1.760   0.373   1.548
  180SOL    HW2  561   1.693   0.305   1.680
  181SOL     OW  562   1.730   0.934   1.517
  181SOL    HW1  563   1.768   1.025   1.532
  181SOL    HW2  564   1.722   0.917   1.418
  182SOL     OW  565   0.859   1.374   0.016
  182SOL    HW1  566   0.813   1.389   0.104
  182SOL    HW2  567   0.903   1.459  -0.014
  183SOL     OW  568   0.661   1.790   0.953
  183SOL    HW1  569   0.615   1.878   0.940
  183SOL    HW2  570   0.760   1.802   0.946
  184SOL     OW  571   0.859   0.956   0.861
  184SOL    HW1  572   0.913   0.887   0.909
  184SOL    HW2  573   0.827   1.025   0.927
  185SOL     OW  574   1.083   0.984   0.087
  185SOL    HW1  575   1.060   1.037   0.005
  185SOL    HW2  576   1.164   0.928   0.068
  186SOL     OW  577   1.861   1.569   0.851
  186SOL    HW1  578   1.790   1.557   0.781
  186SOL    HW2  579   1.862   1.490   0.911
  187SOL     OW  580   0.221   1.314   1.844
  187SOL    HW1  581   0.156   1.241   1.823
  187SOL    HW2  582   0.225   1.328   1.942
  188SOL     OW  583   0.079   1.240   0.653
  188SOL    HW1  584   0.078   1.193   0.741
  188SOL    HW2  585   0.161   1.212   0.602
  189SOL     OW  586   0.672   1.391   1.624
  189SOL    HW1  587   0.594   1.341   1.662
  189SOL    HW2  588   0.669   1.486   1.655
  190SOL     OW  589   1.824   0.192   1.227
  190SOL    HW1  590   1.820   0.102   1.271
  190SOL    HW2  591   1.827   0.181   1.128
  191SOL     OW  592   0.428   0.424   0.520
  191SOL    HW1  593   0.458   0.352   0.458
  191SOL    HW2  594   0.389   0.384   0.603
  192SOL     OW  595   1.705   1.487   1.104
  192SOL    HW1  596   1.612   1.462   1.077
  192SOL    HW2  597   1.731   1.437   1.186
  193SOL     OW  598   0.317   0.547   1.280
  193SOL    HW1  599   0.355   0.488   1.352
  193SOL    HW2  600   0.357   0.521   1.192
  194SOL     OW  601   0.812   1.586   0.687
  194SOL    HW1  602   0.844   1.596   0.593
  194SOL    HW2  603   0.733   1.524   0.689
  195SOL     OW  604   1.424   0.214   1.112
  195SOL    HW1  605   1.476   0.149   1.167
  195SOL    HW2  606   1.375   0.277   1.173
  196SOL     OW  607   1.001   0.034   1.154
  196SOL    HW1  608   0.938  -0.038   1.123
  196SOL    HW2  609   1.094  -0.002   1.154
  197SOL     OW  610   0.770   1.330   0.301
  197SOL    HW1  611   0.724   1.243   0.318
  197SOL    HW2  612   0.861   1.327   0.342
  198SOL     OW  613   0.618   1.567   1.284
  198SOL    HW1  614   0.613   1.649   1.341
  198SOL    HW2  615   0.707   1.564   1.239
  199SOL     OW  616   1.352   0.052   0.168
  199SOL    HW1  617   1.387   0.011   0.084
  199SOL    HW2  618   1.262   0.014   0.188
  200SOL     OW  619   1.300   0.453   0.691
  200SOL    HW1  620   1.241   0.533   0.695
  200SOL    HW2  621   1.315   0.418   0.784
  201SOL     OW  622   1.593   0.221   0.882
  201SOL    HW1  623   1.509   0.220   0.936
  201SOL    HW2  624   1.595   0.304   0.826
  202SOL     OW  625   0.039   1.077   0.300
  202SOL    HW1  626   0.138   1.066   0.291
  202SOL    HW2  627  -0.001   0.991   0.332
  203SOL     OW  628   0.875   1.646   0.337
  203SOL    HW1  629   0.798   1.611   0.283
  203SOL    HW2  630   0.843   1.717   0.399
  204SOL     OW  631   0.230   0.628   1.975
  204SOL    HW1  632   0.137   0.626   2.012
  204SOL    HW2  633   0.231   0.589   1.883
  205SOL     OW  634   1.755   0.607   2.093
  205SOL    HW1  635   1.743   0.594   1.994
  205SOL    HW2  636   1.725   0.526   2.142
  206SOL     OW  637   1.603   0.447   2.599
  206SOL    HW1  638   1.529   0.493   2.549
  206SOL    HW2  639   1.654   0.515   2.652
  207SOL     OW  640   0.231   1.713   2.345
  207SOL    HW1  641   0.265   1.790   2.399
  207SOL    HW2  642   0.275   1.713   2.255
  208SOL     OW  643   0.230   1.434   2.400
  208SOL    HW1  644   0.204   1.530   2.400
  208SOL    HW2  645   0.159   1.380   2.445
  209SOL     OW  646   0.606   0.964   1.985
  209SOL    HW1  647   0.613   1.048   1.931
  209SOL    HW2  648   0.652   0.977   2.073
  210SOL     OW  649   0.122   0.643   2.425
  210SOL    HW1  650   0.077   0.555   2.442
  210SOL    HW2  651   0.121   0.697   2.509
  211SOL     OW  652   1.842   1.767   2.221
  211SOL    HW1  653   1.896   1.738   2.301
  211SOL    HW2  654   1.872   1.857   2.192
  212SOL     OW  655   0.027   1.596   1.979
  212SOL    HW1  656   0.008   1.500   2.000
  212SOL    HW2  657  -0.006   1.654   2.054
  213SOL     OW  658   1.689   0.922   2.474
  213SOL    HW1  659   1.784   0.893   2.482
  213SOL    HW2  660   1.681   0.987   2.399
  214SOL     OW  661   1.641   1.108   2.294
  214SOL    HW1  662   1.727   1.110   2.242
  214SOL    HW2  663   1.655   1.155   2.382
  215SOL     OW  664   0.613   1.365   2.588
  215SOL    HW1  665   0.564   1.278   2.597
  215SOL    HW2  666   0.590   1.408   2.501
  216SOL     OW  667   0.809   0.004   2.364
  216SOL    HW1  668   0.849   0.095   2.355
  216SOL    HW2  669   0.709   0.012   2.370
  217SOL     OW  670   1.525   0.999   2.052
  217SOL    HW1  671   1.462   0.923   2.065
  217SOL    HW2  672   1.573   1.017   2.138
  218SOL     OW  673   1.466   1.417   2.815
  218SOL    HW1  674   1.407   1.423   2.895
  218SOL    HW2  675   1.451   1.329   2.769
  219SOL     OW  676   0.598   0.729   2.132
  219SOL    HW1  677   0.622   0.798   2.064
  219SOL    HW2  678   0.520   0.762   2.186
  220SOL     OW  679   1.281   0.345   2.806
  220SOL    HW1  680   1.195   0.295   2.793
  220SOL    HW2  681   1.343   0.291   2.862
  221SOL     OW  682   1.576   1.662   2.169
  221SOL    HW1  683   1.665   1.708   2.172
  221SOL    HW2  684   1.555   1.638   2.074
  222SOL     OW  685   1.041   0.701   2.291
  222SOL    HW1  686   1.067   0.697   2.387
  222SOL    HW2  687   0.956   0.650   2.277
  223SOL     OW  688   0.076   0.811   2.651
  223SOL    HW1  689   0.175   0.799   2.660
  223SOL    HW2  690   0.052   0.906   2.672
  224SOL     OW  691   0.865   0.348   2.057
  224SOL    HW1  692   0.924   0.411   2.008
  224SOL    HW2  693   0.884   0.254   2.028
  225SOL     OW  694   1.362   1.144   2.407
  225SOL    HW1  695   1.445   1.115   2.359
  225SOL    HW2  696   1.313   1.211   2.351
  226SOL     OW  697   1.008   1.456   2.339
  226SOL    HW1  698   0.962   1.528   2.287
  226SOL    HW2  699   1.004   1.476   2.437
  227SOL     OW  700   0.351   1.801   2.715
  227SOL    HW1  701   0.401   1.715   2.721
  227SOL    HW2  702   0.416   1.878   2.712
  228SOL     OW  703   1.795   1.066   2.735
  228SOL    HW1  704   1.733   1.051   2.659
  228SOL    HW2  705   1.743   1.077   2.820
  229SOL     OW  706   0.321   0.943   2.104
  229SOL    HW1  707   0.403   0.982   2.062
  229SOL    HW2  708   0.294   0.861   2.055
  230SOL     OW  709   1.111   1.776   2.099
  230SOL    HW1  710   1.051   1.714   2.149
  230SOL    HW2  711   1.142   1.732   2.014
  231SOL     OW  712   1.632   1.377   1.943
  231SOL    HW1  713   1.600   1.471   1.933
  231SOL    HW2  714   1.556   1.314   1.931
  232SOL     OW  715   0.464   1.743   2.185
  232SOL    HW1  716   0.497   1.782   2.271
  232SOL    HW2  717   0.540   1.736   2.120
  233SOL     OW  718   1.400   0.107   2.288
  233SOL    HW1  719   1.376   0.070   2.198
  233SOL    HW2  720   1.499   0.123   2.292
  234SOL     OW  721   0.382   0.700   2.342
  234SOL    HW1  722   0.427   0.610   2.339
  234SOL    HW2  723   0.288   0.689   2.375
  235SOL     OW  724   0.614   0.122   1.979
  235SOL    HW1  725   0.712   0.100   1.986
  235SOL    HW2  726   0.583   0.105   1.886
  236SOL     OW  727   0.539   0.064   2.374
  236SOL    HW1  728   0.458   0.065   2.432
  236SOL    HW2  729   0.542   0.147   2.319
  237SOL     OW  730   1.434   1.188   1.903
  237SOL    HW1  731   1.466   1.112   1.960
  237SOL    HW2  732   1.342   1.215   1.933
  238SOL     OW  733   0.297   0.035   2.033
  238SOL    HW1  734   0.346   0.119   2.012
  238SOL    HW2  735   0.359  -0.030   2.078
  239SOL     OW  736   0.935   0.236   2.342
  239SOL    HW1  737   0.887   0.277   2.264
  239SOL    HW2  738   1.034   0.234   2.323
  240SOL     OW  739   0.459   1.152   2.603
  240SOL    HW1  740   0.388   1.125   2.668
  240SOL    HW2  741   0.433   1.124   2.510
  241SOL     OW  742   1.271   1.797   2.453
  241SOL    HW1  743   1.315   1.861   2.389
  241SOL    HW2  744   1.221   1.849   2.523
  242SOL     OW  745   1.032   0.549   1.878
  242SOL    HW1  746   0.991   0.631   1.839
  242SOL    HW2  747   1.096   0.575   1.951
  243SOL     OW  748   0.866   0.454   2.504
  243SOL    HW1  749   0.834   0.526   2.442
  243SOL    HW2  750   0.890   0.373   2.451
  244SOL     OW  751   1.466   0.590   2.854
  244SOL    HW1  752   1.436   0.495   2.861
  244SOL    HW2  753   1.539   0.606   2.920
  245SOL     OW  754   1.857   0.833   2.239
  245SOL    HW1  755   1.899   0.769   2.303
  245SOL    HW2  756   1.819   0.782   2.161
  246SOL     OW  757   0.488   1.385   2.036
  246SOL    HW1  758   0.401   1.370   2.083
  246SOL    HW2  759   0.471   1.411   1.941
  247SOL     OW  760   1.390   0.575   1.940
  247SOL    HW1  761   1.336   0.554   2.021
  247SOL    HW2  762   1.481   0.534   1.949
  248SOL     OW  763   0.527   0.256   2.190
  248SOL    HW1  764   0.554   0.197   2.115
  248SOL    HW2  765   0.527   0.351   2.159
  249SOL     OW  766   0.705   1.050   2.230
  249SOL    HW1  767   0.691   1.057   2.329
  249SOL    HW2  768   0.789   0.999   2.212
  250SOL     OW  769   0.367   1.100   2.363
  250SOL    HW1  770   0.360   1.183   2.307
  250SOL    HW2  771   0.371   1.020   2.303
  251SOL     OW  772   1.252   1.348   2.250
  251SOL    HW1  773   1.302   1.425   2.290
  251SOL    HW2  774   1.157   1.350   2.282
  252SOL     OW  775   1.582   0.639   2.334
  252SOL    HW1  776   1.551   0.700   2.407
  252SOL    HW2  777   1.632   0.691   2.265
  253SOL     OW  778   1.209   0.525   2.137
  253SOL    HW1  779   1.222   0.441   2.191
  253SOL    HW2  780   1.180   0.599   2.197
  254SOL     OW  781   0.307   0.063   2.480
  254SOL    HW1  782   0.296   0.157   2.513
  254SOL    HW2  783   0.302   0.000   2.557
  255SOL     OW  784   1.622   0.367   2.236
  255SOL    HW1  785   1.624   0.291   2.300
  255SOL    HW2  786   1.574   0.444   2.276
  256SOL     OW  787   1.540   0.274   1.987
  256SOL    HW1  788   1.479   0.199   2.010
  256SOL    HW2  789   1.562   0.326   2.070
  257SOL     OW  790   1.303   0.838   1.904
  257SOL    HW1  791   1.337   0.745   1.919
  257SOL    HW2  792   1.321   0.865   1.809
  258SOL     OW  793   0.008   1.326   2.062
  258SOL    HW1  794  -0.085   1.347   2.031
  258SOL    HW2  795   0.018   1.227   2.075
  259SOL     OW  796   0.815   0.572   2.187
  259SOL    HW1  797   0.822   0.483   2.141
  259SOL    HW2  798   0.721   0.606   2.179
  260SOL     OW  799   0.473   0.500   2.053
  260SOL    HW1  800   0.534   0.580   2.057
  260SOL    HW2  801   0.378   0.531   2.060
  261SOL     OW  802   1.302   0.855   2.171
  261SOL    HW1  803   1.216   0.824   2.213
  261SOL    HW2  804   1.298   0.841   2.072
  262SOL     OW  805   1.726   0.135   2.385
  262SOL    HW1  806   1.799   0.118   2.318
  262SOL    HW2  807   1.695   0.048   2.423
  263SOL     OW  808   1.388   1.573   2.339
  263SOL    HW1  809   1.455   1.585   2.265
  263SOL    HW2  810   1.348   1.662   2.362
  264SOL     OW  811   0.672   1.616   2.016
  264SOL    HW1  812   0.681   1.626   1.917
  264SOL    HW2  813   0.632   1.527   2.037
  265SOL     OW  814   1.841   0.175   2.825
  265SOL    HW1  815   1.880   0.090   2.789
  265SOL    HW2  816   1.743   0.177   2.806
  266SOL     OW  817   1.194   1.612   1.893
  266SOL    HW1  818   1.200   1.519   1.930
  266SOL    HW2  819   1.135   1.612   1.813
  267SOL     OW  820   0.916   0.910   2.153
  267SOL    HW1  821   0.979   0.948   2.085
  267SOL    HW2  822   0.956   0.827   2.192
  268SOL     OW  823   1.504   1.607   1.906
  268SOL    HW1  824   1.412   1.644   1.913
  268SOL    HW2  825   1.542   1.627   1.816
  269SOL     OW  826   0.590   1.487   2.353
  269SOL    HW1  827   0.632   1.429   2.283
  269SOL    HW2  828   0.546   1.566   2.309
  270SOL     OW  829   0.255   1.348   2.152
  270SOL    HW1  830   0.159   1.349   2.125
  270SOL    HW2  831   0.267   1.401   2.236
  271SOL     OW  832   0.075   0.345   1.895
  271SOL    HW1  833  -0.017   0.317   1.866
  271SOL    HW2  834   0.106   0.422   1.839
  272SOL     OW  835   0.072   0.166   2.180
  272SOL    HW1  836   0.055   0.249   2.126
  272SOL    HW2  837   0.162   0.129   2.158
  273SOL     OW  838   1.183   1.335   1.981
  273SOL    HW1  839   1.084   1.324   1.983
  273SOL    HW2  840   1.217   1.350   2.074
  274SOL     OW  841   1.225   0.325   2.311
  274SOL    HW1  842   1.290   0.251   2.300
  274SOL    HW2  843   1.245   0.375   2.395
  275SOL     OW  844   0.594   0.745   2.514
  275SOL    HW1  845   0.644   0.830   2.495
  275SOL    HW2  846   0.506   0.747   2.466
  276SOL     OW  847   0.859   1.374   1.878
  276SOL    HW1  848   0.813   1.389   1.966
  276SOL    HW2  849   0.903   1.459   1.848
  277SOL     OW  850   1.083   0.984   1.949
  277SOL    HW1  851   1.060   1.037   1.867
  277SOL    HW2  852   1.164   0.928   1.930
  278SOL     OW  853   0.079   1.240   2.515
  278SOL    HW1  854   0.078   1.193   2.603
  278SOL    HW2  855   0.161   1.212   2.464
  279SOL     OW  856   0.428   0.424   2.382
  279SOL    HW1  857   0.458   0.352   2.320
  279SOL    HW2  858   0.389   0.384   2.465
  280SOL     OW  859   0.812   1.586   2.549
  280SOL    HW1  860   0.844   1.596   2.455
  280SOL    HW2  861   0.733   1.524   2.551
  281SOL     OW  862   0.770   1.330   2.163
  281SOL    HW1  863   0.724   1.243   2.180
  281SOL    HW2  864   0.861   1.327   2.204
  282SOL     OW  865   1.352   0.052   2.030
  282SOL    HW1  866   1.387   0.011   1.946
  282SOL    HW2  867   1.262   0.014   2.050
  283SOL     OW  868   1.300   0.453   2.553
  283SOL    HW1  869   1.241   0.533   2.557
  283SOL    HW2  870   1.315   0.418   2.646
  284SOL     OW  871   0.039   1.077   2.162
  284SOL    HW1  872   0.138   1.066   2.153
  284SOL    HW2  873  -0.001   0.991   2.194
  285SOL     OW  874   0.875   1.646   2.199
  285SOL    HW1  875   0.798   1.611   2.145
  285SOL    HW2  876   0.843   1.717   2.261
  286SOL     OW  877   0.225   2.137   0.996
  286SOL    HW1  878   0.260   2.120   1.088
  286SOL    HW2  879   0.137   2.092   0.984
  287SOL     OW  880   0.019   2.230   0.647
  287SOL    HW1  881  -0.063   2.273   0.686
  287SOL    HW2  882  -0.009   2.157   0.584
  288SOL     OW  883   1.755   2.469   0.231
  288SOL    HW1  884   1.743   2.456   0.132
  288SOL    HW2  885   1.725   2.388   0.280
  289SOL     OW  886   0.685   2.874   0.665
  289SOL    HW1  887   0.754   2.858   0.735
  289SOL    HW2  888   0.612   2.931   0.703
  290SOL     OW  889   0.438   2.254   1.499
  290SOL    HW1  890   0.520   2.198   1.508
  290SOL    HW2  891   0.357   2.196   1.503
  291SOL     OW  892   1.603   2.309   0.737
  291SOL    HW1  893   1.529   2.355   0.687
  291SOL    HW2  894   1.654   2.377   0.790
  292SOL     OW  895   1.594   1.976   1.480
  292SOL    HW1  896   1.576   2.043   1.408
  292SOL    HW2  897   1.591   2.022   1.569
  293SOL     OW  898   0.122   2.505   0.563
  293SOL    HW1  899   0.077   2.417   0.580
  293SOL    HW2  900   0.121   2.559   0.647
  294SOL     OW  901   0.113   2.599   1.597
  294SOL    HW1  902   0.201   2.586   1.642
  294SOL    HW2  903   0.100   2.696   1.575
  295SOL     OW  904   0.809   1.866   0.502
  295SOL    HW1  905   0.849   1.957   0.493
  295SOL    HW2  906   0.709   1.874   0.508
  296SOL     OW  907   0.317   2.113   1.801
  296SOL    HW1  908   0.388   2.184   1.807
  296SOL    HW2  909   0.229   2.152   1.829
  297SOL     OW  910   1.281   2.207   0.944
  297SOL    HW1  911   1.195   2.157   0.931
  297SOL    HW2  912   1.343   2.153   1.000
  298SOL     OW  913   0.807   2.467   1.465
  298SOL    HW1  914   0.760   2.464   1.554
  298SOL    HW2  915   0.756   2.412   1.399
  299SOL     OW  916   1.394   2.331   1.674
  299SOL    HW1  917   1.374   2.374   1.762
  299SOL    HW2  918   1.472   2.269   1.683
  300SOL     OW  919   0.991   2.272   1.242
  300SOL    HW1  920   0.914   2.306   1.296
  300SOL    HW2  921   0.957   2.221   1.163
  301SOL     OW  922   1.041   2.563   0.429
  301SOL    HW1  923   1.067   2.559   0.525
  301SOL    HW2  924   0.956   2.512   0.415
  302SOL     OW  925   0.076   2.673   0.789
  302SOL    HW1  926   0.175   2.661   0.798
  302SOL    HW2  927   0.052   2.768   0.810
  303SOL     OW  928   0.865   2.210   0.195
  303SOL    HW1  929   0.924   2.273   0.146
  303SOL    HW2  930   0.884   2.116   0.166
  304SOL     OW  931   1.719   2.447   1.831
  304SOL    HW1  932   1.693   2.536   1.795
  304SOL    HW2  933   1.717   2.379   1.758
  305SOL     OW  934   0.550   2.058   0.885
  305SOL    HW1  935   0.545   2.053   0.985
  305SOL    HW2  936   0.552   2.154   0.856
  306SOL     OW  937   1.458   2.597   0.728
  306SOL    HW1  938   1.453   2.532   0.803
  306SOL    HW2  939   1.538   2.656   0.741
  307SOL     OW  940   0.202   2.147   1.498
  307SOL    HW1  941   0.122   2.207   1.485
  307SOL    HW2  942   0.192   2.098   1.584
  308SOL     OW  943   1.400   1.969   0.426
  308SOL    HW1  944   1.376   1.932   0.336
  308SOL    HW2  945   1.499   1.985   0.430
  309SOL     OW  946   0.382   2.562   0.480
  309SOL    HW1  947   0.427   2.472   0.477
  309SOL    HW2  948   0.288   2.551   0.513
  310SOL     OW  949   1.547   2.084   1.729
  310SOL    HW1  950   1.542   2.121   1.821
  310SOL    HW2  951   1.475   2.015   1.717
  311SOL     OW  952   0.614   1.984   0.117
  311SOL    HW1  953   0.712   1.962   0.124
  311SOL    HW2  954   0.583   1.967   0.024
  312SOL     OW  955   0.781   2.126   1.749
  312SOL    HW1  956   0.848   2.065   1.792
  312SOL    HW2  957   0.708   2.145   1.814
  313SOL     OW  958   1.351   2.452   1.433
  313SOL    HW1  959   1.379   2.409   1.518
  313SOL    HW2  960   1.376   2.548   1.434
  314SOL     OW  961   0.922   2.365   0.899
  314SOL    HW1  962   0.897   2.356   0.803
  314SOL    HW2  963   0.970   2.283   0.930
  315SOL     OW  964   0.539   1.926   0.512
  315SOL    HW1  965   0.458   1.927   0.570
  315SOL    HW2  966   0.542   2.009   0.457
  316SOL     OW  967   0.935   2.098   0.480
  316SOL    HW1  968   0.887   2.139   0.402
  316SOL    HW2  969   1.034   2.096   0.461
  317SOL     OW  970   1.076   2.545   1.464
  317SOL    HW1  971   0.996   2.484   1.467
  317SOL    HW2  972   1.157   2.492   1.440
  318SOL     OW  973   1.032   2.411   0.016
  318SOL    HW1  974   0.991   2.493  -0.023
  318SOL    HW2  975   1.096   2.437   0.089
  319SOL     OW  976   0.078   2.418   1.386
  319SOL    HW1  977   0.170   2.417   1.345
  319SOL    HW2  978   0.072   2.492   1.453
  320SOL     OW  979   0.561   2.084   1.147
  320SOL    HW1  980   0.599   2.000   1.184
  320SOL    HW2  981   0.473   2.103   1.191
  321SOL     OW  982   0.866   2.316   0.642
  321SOL    HW1  983   0.834   2.388   0.580
  321SOL    HW2  984   0.890   2.235   0.589
  322SOL     OW  985   1.017   1.901   0.753
  322SOL    HW1  986   0.945   1.906   0.684
  322SOL    HW2  987   0.993   1.832   0.822
  323SOL     OW  988   1.466   2.452   0.992
  323SOL    HW1  989   1.436   2.357   0.999
  323SOL    HW2  990   1.539   2.468   1.058
  324SOL     OW  991   1.390   2.437   0.078
  324SOL    HW1  992   1.336   2.416   0.159
  324SOL    HW2  993   1.481   2.396   0.087
  325SOL     OW  994   0.527   2.118   0.328
  325SOL    HW1  995   0.554   2.059   0.253
  325SOL    HW2  996   0.527   2.213   0.297
  326SOL     OW  997   0.915   1.951   1.402
  326SOL    HW1  998   0.940   1.931   1.307
  326SOL    HW2  999   0.987   2.007   1.444
  327SOL     OW 1000   1.274   2.248   1.262
  327SOL    HW1 1001   1.295   2.322   1.326
  327SOL    HW2 1002   1.185   2.265   1.219
  328SOL     OW 1003   0.566   2.399   0.865
  328SOL    HW1 1004   0.578   2.465   0.791
  328SOL    HW2 1005   0.612   2.433   0.948
  329SOL     OW 1006   1.582   2.501   0.472
  329SOL    HW1 1007   1.551   2.562   0.545
  329SOL    HW2 1008   1.632   2.553   0.403
  330SOL     OW 1009   1.013   1.967   1.770
  330SOL    HW1 1010   1.019   2.052   1.718
  330SOL    HW2 1011   1.045   1.891   1.713
  331SOL     OW 1012   0.504   1.912   1.740
  331SOL    HW1 1013   0.462   1.855   1.670
  331SOL    HW2 1014   0.438   1.981   1.772
  332SOL     OW 1015   1.209   2.387   0.275
  332SOL    HW1 1016   1.222   2.303   0.329
  332SOL    HW2 1017   1.180   2.461   0.335
  333SOL     OW 1018   0.307   2.075   1.231
  333SOL    HW1 1019   0.284   2.112   1.321
  333SOL    HW2 1020   0.277   1.980   1.225
  334SOL     OW 1021   0.732   2.496   1.064
  334SOL    HW1 1022   0.791   2.470   0.988
  334SOL    HW2 1023   0.704   2.592   1.053
  335SOL     OW 1024   0.307   1.925   0.618
  335SOL    HW1 1025   0.296   2.019   0.651
  335SOL    HW2 1026   0.302   1.862   0.695
  336SOL     OW 1027   1.622   2.229   0.374
  336SOL    HW1 1028   1.624   2.153   0.438
  336SOL    HW2 1029   1.574   2.306   0.414
  337SOL     OW 1030   1.540   2.136   0.125
  337SOL    HW1 1031   1.479   2.061   0.148
  337SOL    HW2 1032   1.562   2.188   0.208
  338SOL     OW 1033   0.319   2.672   0.949
  338SOL    HW1 1034   0.412   2.708   0.954
  338SOL    HW2 1035   0.313   2.587   1.001
  339SOL     OW 1036   0.339   2.371   1.006
  339SOL    HW1 1037   0.287   2.288   0.989
  339SOL    HW2 1038   0.416   2.376   0.942
  340SOL     OW 1039   1.138   2.242   1.678
  340SOL    HW1 1040   1.093   2.305   1.742
  340SOL    HW2 1041   1.231   2.273   1.661
  341SOL     OW 1042   1.160   2.069   1.477
  341SOL    HW1 1043   1.160   2.133   1.554
  341SOL    HW2 1044   1.188   2.117   1.394
  342SOL     OW 1045   0.040   2.406   1.114
  342SOL    HW1 1046   0.125   2.373   1.073
  342SOL    HW2 1047   0.053   2.421   1.212
  343SOL     OW 1048   0.189   2.382   1.722
  343SOL    HW1 1049   0.248   2.342   1.652
  343SOL    HW2 1050   0.131   2.453   1.681
  344SOL     OW 1051   0.815   2.434   0.325
  344SOL    HW1 1052   0.822   2.345   0.279
  344SOL    HW2 1053   0.721   2.468   0.317
  345SOL     OW 1054   1.657   2.466   1.206
  345SOL    HW1 1055   1.619   2.397   1.268
  345SOL    HW2 1056   1.739   2.430   1.162
  346SOL     OW 1057   0.671   2.326   1.269
  346SOL    HW1 1058   0.637   2.237   1.239
  346SOL    HW2 1059   0.697   2.380   1.189
  347SOL     OW 1060   0.473   2.362   0.191
  347SOL    HW1 1061   0.534   2.442   0.195
  347SOL    HW2 1062   0.378   2.393   0.198
  348SOL     OW 1063   0.903   1.948   0.133
  348SOL    HW1 1064   0.954   1.949   0.047
  348SOL    HW2 1065   0.959   1.906   0.204
  349SOL     OW 1066   1.726   1.997   0.523
  349SOL    HW1 1067   1.799   1.980   0.456
  349SOL    HW2 1068   1.695   1.910   0.561
  350SOL     OW 1069   1.280   2.789   0.672
  350SOL    HW1 1070   1.340   2.708   0.674
  350SOL    HW2 1071   1.320   2.858   0.612
  351SOL     OW 1072   1.841   2.037   0.963
  351SOL    HW1 1073   1.880   1.952   0.927
  351SOL    HW2 1074   1.743   2.039   0.944
  352SOL     OW 1075   0.263   2.188   0.720
  352SOL    HW1 1076   0.184   2.239   0.686
  352SOL    HW2 1077   0.254   2.173   0.818
  353SOL     OW 1078   1.014   2.098   0.971
  353SOL    HW1 1079   1.006   2.062   0.878
  353SOL    HW2 1080   1.012   2.022   1.036
  354SOL     OW 1081   1.709   2.247   1.381
  354SOL    HW1 1082   1.782   2.316   1.385
  354SOL    HW2 1083   1.737   2.172   1.322
  355SOL     OW 1084   0.672   2.065   1.489
  355SOL    HW1 1085   0.762   2.049   1.449
  355SOL    HW2 1086   0.680   2.070   1.588
  356SOL     OW 1087   0.075   2.207   0.033
  356SOL    HW1 1088  -0.017   2.179   0.004
  356SOL    HW2 1089   0.106   2.284  -0.023
  357SOL     OW 1090   0.072   2.028   0.318
  357SOL    HW1 1091   0.055   2.111   0.264
  357SOL    HW2 1092   0.162   1.991   0.296
  358SOL     OW 1093   0.716   2.427   1.708
  358SOL    HW1 1094   0.735   2.492   1.782
  358SOL    HW2 1095   0.776   2.347   1.717
  359SOL     OW 1096   1.225   2.187   0.449
  359SOL    HW1 1097   1.290   2.113   0.438
  359SOL    HW2 1098   1.245   2.237   0.533
  360SOL     OW 1099   1.777   2.204   1.642
  360SOL    HW1 1100   1.760   2.235   1.548
  360SOL    HW2 1101   1.693   2.167   1.680
  361SOL     OW 1102   1.083   2.846   0.087
  361SOL    HW1 1103   1.060   2.899   0.005
  361SOL    HW2 1104   1.164   2.790   0.068
  362SOL     OW 1105   1.824   2.054   1.227
  362SOL    HW1 1106   1.820   1.964   1.271
  362SOL    HW2 1107   1.827   2.043   1.128
  363SOL     OW 1108   0.428   2.286   0.520
  363SOL    HW1 1109   0.458   2.214   0.458
  363SOL    HW2 1110   0.389   2.246   0.603
  364SOL     OW 1111   0.317   2.409   1.280
  364SOL    HW1 1112   0.355   2.350   1.352
  364SOL    HW2 1113   0.357   2.383   1.192
  365SOL     OW 1114   1.424   2.076   1.112
  365SOL    HW1 1115   1.476   2.011   1.167
  365SOL    HW2 1116   1.375   2.139   1.173
  366SOL     OW 1117   1.001   1.896   1.154
  366SOL    HW1 1118   0.938   1.824   1.123
  366SOL    HW2 1119   1.094   1.860   1.154
  367SOL     OW 1120   1.352   1.914   0.168
  367SOL    HW1 1121   1.387   1.873   0.084
  367SOL    HW2 1122   1.262   1.876   0.188
  368SOL     OW 1123   1.300   2.315   0.691
  368SOL    HW1 1124   1.241   2.395   0.695
  368SOL    HW2 1125   1.315   2.280   0.784
  369SOL     OW 1126   1.593   2.083   0.882
  369SOL    HW1 1127   1.509   2.082   0.936
  369SOL    HW2 1128   1.595   2.166   0.826
  370SOL     OW 1129   1.135   2.565   2.579
  370SOL    HW1 1130   1.192   2.643   2.554
  370SOL    HW2 1131   1.075   2.591   2.655
  371SOL     OW 1132   1.755   2.469   2.093
  371SOL    HW1 1133   1.743   2.456   1.994
  371SOL    HW2 1134   1.725   2.388   2.142
  372SOL     OW 1135   0.685   2.874   2.527
  372SOL    HW1 1136   0.754   2.858   2.597
  372SOL    HW2 1137   0.612   2.931   2.565
  373SOL     OW 1138   1.603   2.309   2.599
  373SOL    HW1 1139   1.529   2.355   2.549
  373SOL    HW2 1140   1.654   2.377   2.652
  374SOL     OW 1141   0.122   2.505   2.425
  374SOL    HW1 1142   0.077   2.417   2.442
  374SOL    HW2 1143   0.121   2.559   2.509
  375SOL     OW 1144   0.809   1.866   2.364
  375SOL    HW1 1145   0.849   1.957   2.355
  375SOL    HW2 1146   0.709   1.874   2.370
  376SOL     OW 1147   1.281   2.207   2.806
  376SOL    HW1 1148   1.195   2.157   2.793
  376SOL    HW2 1149   1.343   2.153   2.862
  377SOL     OW 1150   1.041   2.563   2.291
  377SOL    HW1 1151   1.067   2.559   2.387
  377SOL    HW2 1152   0.956   2.512   2.277
  378SOL     OW 1153   0.076   2.673   2.651
  378SOL    HW1 1154   0.175   2.661   2.660
  378SOL    HW2 1155   0.052   2.768   2.672
  379SOL     OW 1156   0.865   2.210   2.057
  379SOL    HW1 1157   0.924   2.273   2.008
  379SOL    HW2 1158   0.884   2.116   2.028
  380SOL     OW 1159   1.400   1.969   2.288
  380SOL    HW1 1160   1.376   1.932   2.198
  380SOL    HW2 1161   1.499   1.985   2.292
  381SOL     OW 1162   0.382   2.562   2.342
  381SOL    HW1 1163   0.427   2.472   2.339
  381SOL    HW2 1164   0.288   2.551   2.375
  382SOL     OW 1165   0.614   1.984   1.979
  382SOL    HW1 1166   0.712   1.962   1.986
  382SOL    HW2 1167   0.583   1.967   1.886
  383SOL     OW 1168   0.539   1.926   2.374
  383SOL    HW1 1169   0.458   1.927   2.432
  383SOL    HW2 1170   0.542   2.009   2.319
  384SOL     OW 1171   0.297   1.897   2.033
  384SOL    HW1 1172   0.346   1.981   2.012
  384SOL    HW2 1173   0.359   1.832   2.078
  385SOL     OW 1174   0.935   2.098   2.342
  385SOL    HW1 1175   0.887   2.139   2.264
  385SOL    HW2 1176   1.034   2.096   2.323
  386SOL     OW 1177   1.032   2.411   1.878
  386SOL    HW1 1178   0.991   2.493   1.839
  386SOL    HW2 1179   1.096   2.437   1.951
  387SOL     OW 1180   0.866   2.316   2.504
  387SOL    HW1 1181   0.834   2.388   2.442
  387SOL    HW2 1182   0.890   2.235   2.451
  388SOL     OW 1183   1.466   2.452   2.854
  388SOL    HW1 1184   1.436   2.357   2.861
  388SOL    HW2 1185   1.539   2.468   2.920
  389SOL     OW 1186   1.390   2.437   1.940
  389SOL    HW1 1187   1.336   2.416   2.021
  389SOL    HW2 1188   1.481   2.396   1.949
  390SOL     OW 1189   0.527   2.118   2.190
  390SOL    HW1 1190   0.554   2.059   2.115
  390SOL    HW2 1191   0.527   2.213   2.159
  391SOL     OW 1192   1.582   2.501   2.334
  391SOL    HW1 1193   1.551   2.562   2.407
  391SOL    HW2 1194   1.632   2.553   2.265
  392SOL     OW 1195   1.209   2.387   2.137
  392SOL    HW1 1196   1.222   2.303   2.191
  392SOL    HW2 1197   1.180   2.461   2.197
  393SOL     OW 1198   0.307   1.925   2.480
  393SOL    HW1 1199   0.296   2.019   2.513
  393SOL    HW2 1200   0.302   1.862   2.557
  394SOL     OW 1201   1.622   2.229   2.236
  394SOL    HW1 1202   1.624   2.153   2.300
  394SOL    HW2 1203   1.574   2.306   2.276
  395SOL     OW 1204   1.540   2.136   1.987
  395SOL    HW1 1205   1.479   2.061   2.010
  395SOL    HW2 1206   1.562   2.188   2.070
  396SOL     OW 1207   0.815   2.434   2.187
  396SOL    HW1 1208   0.822   2.345   2.141
  396SOL    HW2 1209   0.721   2.468   2.179
  397SOL     OW 1210   0.473   2.362   2.053
  397SOL    HW1 1211   0.534   2.442   2.057
  397SOL    HW2 1212   0.378   2.393   2.060
  398SOL     OW 1213   1.726   1.997   2.385
  398SOL    HW1 1214   1.799   1.980   2.318
  398SOL    HW2 1215   1.695   1.910   2.423
  399SOL     OW 1216   1.280   2.789   2.534
  399SOL    HW1 1217   1.340   2.708   2.536
  399SOL    HW2 1218   1.320   2.858   2.474
  400SOL     OW 1219   1.841   2.037   2.825
  400SOL    HW1 1220   1.880   1.952   2.789
  400SOL    HW2 1221   1.743   2.039   2.806
  401SOL     OW 1222   0.075   2.207   1.895
  401SOL    HW1 1223  -0.017   2.179   1.866
  401SOL    HW2 1224   0.106   2.284   1.839
  402SOL     OW 1225   0.072   2.028   2.180
  402SOL    HW1 1226   0.055   2.111   2.126
  402SOL    HW2 1227   0.162   1.991   2.158
  403SOL     OW 1228   1.225   2.187   2.311
  403SOL    HW1 1229   1.290   2.113   2.300
  403SOL    HW2 1230   1.245   2.237   2.395
  404SOL     OW 1231   1.083   2.846   1.949
  404SOL    HW1 1232   1.060   2.899   1.867
  404SOL    HW2 1233   1.164   2.790   1.930
  405SOL     OW 1234   0.428   2.286   2.382
  405SOL    HW1 1235   0.458   2.214   2.320
  405SOL    HW2 1236   0.389   2.246   2.465
  406SOL     OW 1237   1.352   1.914   2.030
  406SOL    HW1 1238   1.387   1.873   1.946
  406SOL    HW2 1239   1.262   1.876   2.050
  407SOL     OW 1240   1.300   2.315   2.553
  407SOL    HW1 1241   1.241   2.395   2.557
  407SOL    HW2 1242   1.315   2.280   2.646
  408SOL     OW 1243   2.092   0.628   0.113
  408SOL    HW1 1244   1.999   0.626   0.150
  408SOL    HW2 1245   2.093   0.589   0.021
  409SOL     OW 1246   2.087   0.275   0.996
  409SOL    HW1 1247   2.122   0.258   1.088
  409SOL    HW2 1248   1.999   0.230   0.984
  410SOL     OW 1249   1.881   0.368   0.647
  410SOL    HW1 1250   1.799   0.411   0.686
  410SOL    HW2 1251   1.853   0.295   0.584
  411SOL     OW 1252   2.431   1.275   1.165
  411SOL    HW1 1253   2.338   1.268   1.128
  411SOL    HW2 1254   2.442   1.364   1.209
  412SOL     OW 1255   2.712   0.798   1.823
  412SOL    HW1 1256   2.708   0.874   1.888
  412SOL    HW2 1257   2.734   0.834   1.732
  413SOL     OW 1258   2.548   1.161   1.803
  413SOL    HW1 1259   2.608   1.240   1.817
  413SOL    HW2 1260   2.462   1.192   1.762
  414SOL     OW 1261   2.197   1.435   1.061
  414SOL    HW1 1262   2.119   1.404   1.008
  414SOL    HW2 1263   2.255   1.493   1.004
  415SOL     OW 1264   2.300   0.392   1.499
  415SOL    HW1 1265   2.382   0.336   1.508
  415SOL    HW2 1266   2.219   0.334   1.503
  416SOL     OW 1267   2.093   1.713   0.483
  416SOL    HW1 1268   2.127   1.790   0.537
  416SOL    HW2 1269   2.137   1.713   0.393
  417SOL     OW 1270   2.092   1.434   0.538
  417SOL    HW1 1271   2.066   1.530   0.538
  417SOL    HW2 1272   2.021   1.380   0.583
  418SOL     OW 1273   2.102   1.091   0.886
  418SOL    HW1 1274   2.116   1.007   0.938
  418SOL    HW2 1275   2.047   1.155   0.941
  419SOL     OW 1276   2.482   1.786   1.439
  419SOL    HW1 1277   2.390   1.769   1.474
  419SOL    HW2 1278   2.510   1.878   1.465
  420SOL     OW 1279   2.468   0.964   0.123
  420SOL    HW1 1280   2.475   1.048   0.069
  420SOL    HW2 1281   2.514   0.977   0.211
  421SOL     OW 1282   1.984   0.643   0.563
  421SOL    HW1 1283   1.939   0.555   0.580
  421SOL    HW2 1284   1.983   0.697   0.647
  422SOL     OW 1285   1.889   1.596   0.117
  422SOL    HW1 1286   1.870   1.500   0.138
  422SOL    HW2 1287   1.856   1.654   0.192
  423SOL     OW 1288   1.975   0.737   1.597
  423SOL    HW1 1289   2.063   0.724   1.642
  423SOL    HW2 1290   1.962   0.834   1.575
  424SOL     OW 1291   2.475   1.365   0.726
  424SOL    HW1 1292   2.426   1.278   0.735
  424SOL    HW2 1293   2.452   1.408   0.639
  425SOL     OW 1294   2.059   0.976   1.264
  425SOL    HW1 1295   2.148   0.931   1.250
  425SOL    HW2 1296   1.986   0.911   1.245
  426SOL     OW 1297   2.179   0.251   1.801
  426SOL    HW1 1298   2.250   0.322   1.807
  426SOL    HW2 1299   2.091   0.290   1.829
  427SOL     OW 1300   2.460   0.729   0.270
  427SOL    HW1 1301   2.484   0.798   0.202
  427SOL    HW2 1302   2.382   0.762   0.324
  428SOL     OW 1303   1.938   0.811   0.789
  428SOL    HW1 1304   2.037   0.799   0.798
  428SOL    HW2 1305   1.914   0.906   0.810
  429SOL     OW 1306   1.992   1.821   1.571
  429SOL    HW1 1307   1.982   1.806   1.670
  429SOL    HW2 1308   1.906   1.857   1.535
  430SOL     OW 1309   2.412   0.196   0.885
  430SOL    HW1 1310   2.407   0.191   0.985
  430SOL    HW2 1311   2.414   0.292   0.856
  431SOL     OW 1312   2.213   1.801   0.853
  431SOL    HW1 1313   2.263   1.715   0.859
  431SOL    HW2 1314   2.278   1.878   0.850
  432SOL     OW 1315   2.183   0.943   0.242
  432SOL    HW1 1316   2.265   0.982   0.200
  432SOL    HW2 1317   2.156   0.861   0.193
  433SOL     OW 1318   2.323   1.266   1.727
  433SOL    HW1 1319   2.273   1.267   1.641
  433SOL    HW2 1320   2.260   1.248   1.803
  434SOL     OW 1321   2.064   0.285   1.498
  434SOL    HW1 1322   1.984   0.345   1.485
  434SOL    HW2 1323   2.054   0.236   1.584
  435SOL     OW 1324   2.326   1.743   0.323
  435SOL    HW1 1325   2.359   1.782   0.409
  435SOL    HW2 1326   2.402   1.736   0.258
  436SOL     OW 1327   2.111   1.785   1.241
  436SOL    HW1 1328   2.168   1.720   1.291
  436SOL    HW2 1329   2.095   1.752   1.148
  437SOL     OW 1330   2.244   0.700   0.480
  437SOL    HW1 1331   2.289   0.610   0.477
  437SOL    HW2 1332   2.150   0.689   0.513
  438SOL     OW 1333   2.665   1.402   0.924
  438SOL    HW1 1334   2.755   1.416   0.882
  438SOL    HW2 1335   2.594   1.404   0.853
  439SOL     OW 1336   2.401   0.064   0.512
  439SOL    HW1 1337   2.320   0.065   0.570
  439SOL    HW2 1338   2.404   0.147   0.457
  440SOL     OW 1339   2.159   0.035   0.171
  440SOL    HW1 1340   2.208   0.119   0.150
  440SOL    HW2 1341   2.221  -0.030   0.216
  441SOL     OW 1342   2.797   0.236   0.480
  441SOL    HW1 1343   2.749   0.277   0.402
  441SOL    HW2 1344   2.896   0.234   0.461
  442SOL     OW 1345   2.321   1.152   0.741
  442SOL    HW1 1346   2.250   1.125   0.806
  442SOL    HW2 1347   2.295   1.124   0.648
  443SOL     OW 1348   1.940   0.556   1.386
  443SOL    HW1 1349   2.032   0.555   1.345
  443SOL    HW2 1350   1.934   0.630   1.453
  444SOL     OW 1351   2.423   0.222   1.147
  444SOL    HW1 1352   2.461   0.138   1.184
  444SOL    HW2 1353   2.335   0.241   1.191
  445SOL     OW 1354   2.350   1.385   0.174
  445SOL    HW1 1355   2.263   1.370   0.221
  445SOL    HW2 1356   2.333   1.411   0.079
  446SOL     OW 1357   2.389   0.256   0.328
  446SOL    HW1 1358   2.416   0.197   0.253
  446SOL    HW2 1359   2.389   0.351   0.297
  447SOL     OW 1360   2.272   0.813   1.251
  447SOL    HW1 1361   2.358   0.825   1.301
  447SOL    HW2 1362   2.230   0.726   1.278
  448SOL     OW 1363   1.926   1.564   1.331
  448SOL    HW1 1364   1.880   1.646   1.297
  448SOL    HW2 1365   2.024   1.583   1.340
  449SOL     OW 1366   2.229   1.100   0.501
  449SOL    HW1 1367   2.222   1.183   0.445
  449SOL    HW2 1368   2.233   1.020   0.441
  450SOL     OW 1369   2.428   0.537   0.865
  450SOL    HW1 1370   2.440   0.603   0.791
  450SOL    HW2 1371   2.474   0.571   0.948
  451SOL     OW 1372   2.216   1.510   1.329
  451SOL    HW1 1373   2.195   1.466   1.242
  451SOL    HW2 1374   2.313   1.536   1.332
  452SOL     OW 1375   2.264   0.751   1.598
  452SOL    HW1 1376   2.332   0.806   1.551
  452SOL    HW2 1377   2.304   0.663   1.625
  453SOL     OW 1378   2.366   0.050   1.740
  453SOL    HW1 1379   2.324  -0.007   1.670
  453SOL    HW2 1380   2.300   0.119   1.772
  454SOL     OW 1381   2.435   0.870   1.029
  454SOL    HW1 1382   2.479   0.959   1.020
  454SOL    HW2 1383   2.372   0.870   1.106
  455SOL     OW 1384   2.169   0.213   1.231
  455SOL    HW1 1385   2.146   0.250   1.321
  455SOL    HW2 1386   2.139   0.118   1.225
  456SOL     OW 1387   1.899   1.310   1.282
  456SOL    HW1 1388   1.952   1.261   1.350
  456SOL    HW2 1389   1.921   1.408   1.287
  457SOL     OW 1390   2.169   0.063   0.618
  457SOL    HW1 1391   2.158   0.157   0.651
  457SOL    HW2 1392   2.164   0.000   0.695
  458SOL     OW 1393   2.212   0.898   1.804
  458SOL    HW1 1394   2.288   0.942   1.852
  458SOL    HW2 1395   2.247   0.851   1.722
  459SOL     OW 1396   2.181   0.810   0.949
  459SOL    HW1 1397   2.274   0.846   0.954
  459SOL    HW2 1398   2.175   0.725   1.001
  460SOL     OW 1399   2.201   0.509   1.006
  460SOL    HW1 1400   2.149   0.426   0.989
  460SOL    HW2 1401   2.278   0.514   0.942
  461SOL     OW 1402   1.870   1.326   0.200
  461SOL    HW1 1403   1.777   1.347   0.169
  461SOL    HW2 1404   1.880   1.227   0.213
  462SOL     OW 1405   1.950   1.801   0.927
  462SOL    HW1 1406   1.908   1.715   0.900
  462SOL    HW2 1407   2.044   1.804   0.893
  463SOL     OW 1408   2.366   1.568   0.910
  463SOL    HW1 1409   2.432   1.642   0.919
  463SOL    HW2 1410   2.410   1.489   0.868
  464SOL     OW 1411   1.902   0.544   1.114
  464SOL    HW1 1412   1.987   0.511   1.073
  464SOL    HW2 1413   1.915   0.559   1.212
  465SOL     OW 1414   2.051   0.520   1.722
  465SOL    HW1 1415   2.110   0.480   1.652
  465SOL    HW2 1416   1.993   0.591   1.681
  466SOL     OW 1417   2.677   0.572   0.325
  466SOL    HW1 1418   2.684   0.483   0.279
  466SOL    HW2 1419   2.583   0.606   0.317
  467SOL     OW 1420   2.114   1.564   1.744
  467SOL    HW1 1421   2.084   1.621   1.820
  467SOL    HW2 1422   2.107   1.467   1.770
  468SOL     OW 1423   2.335   0.500   0.191
  468SOL    HW1 1424   2.396   0.580   0.195
  468SOL    HW2 1425   2.240   0.531   0.198
  469SOL     OW 1426   2.021   1.137   1.466
  469SOL    HW1 1427   2.043   1.076   1.542
  469SOL    HW2 1428   2.031   1.088   1.380
  470SOL     OW 1429   1.945   1.258   1.022
  470SOL    HW1 1430   1.940   1.257   1.122
  470SOL    HW2 1431   1.862   1.217   0.984
  471SOL     OW 1432   2.550   1.662   1.716
  471SOL    HW1 1433   2.494   1.743   1.725
  471SOL    HW2 1434   2.602   1.666   1.630
  472SOL     OW 1435   1.992   1.794   1.851
  472SOL    HW1 1436   1.951   1.720   1.904
  472SOL    HW2 1437   2.056   1.845   1.909
  473SOL     OW 1438   2.125   0.326   0.720
  473SOL    HW1 1439   2.046   0.377   0.686
  473SOL    HW2 1440   2.116   0.311   0.818
  474SOL     OW 1441   2.234   1.288   1.490
  474SOL    HW1 1442   2.221   1.381   1.456
  474SOL    HW2 1443   2.150   1.236   1.477
  475SOL     OW 1444   2.452   1.487   0.491
  475SOL    HW1 1445   2.494   1.429   0.421
  475SOL    HW2 1446   2.408   1.566   0.447
  476SOL     OW 1447   2.117   1.348   0.290
  476SOL    HW1 1448   2.021   1.349   0.263
  476SOL    HW2 1449   2.129   1.401   0.374
  477SOL     OW 1450   1.967   1.013   1.726
  477SOL    HW1 1451   1.890   0.980   1.780
  477SOL    HW2 1452   2.052   0.983   1.768
  478SOL     OW 1453   2.534   0.203   1.489
  478SOL    HW1 1454   2.624   0.187   1.449
  478SOL    HW2 1455   2.542   0.208   1.588
  479SOL     OW 1456   1.937   0.345   0.033
  479SOL    HW1 1457   1.845   0.317   0.004
  479SOL    HW2 1458   1.968   0.422  -0.023
  480SOL     OW 1459   2.475   0.842   1.431
  480SOL    HW1 1460   2.531   0.923   1.414
  480SOL    HW2 1461   2.534   0.762   1.434
  481SOL     OW 1462   2.578   0.565   1.708
  481SOL    HW1 1463   2.597   0.630   1.782
  481SOL    HW2 1464   2.638   0.485   1.717
  482SOL     OW 1465   2.252   1.741   1.560
  482SOL    HW1 1466   2.161   1.782   1.558
  482SOL    HW2 1467   2.245   1.647   1.592
  483SOL     OW 1468   2.456   0.745   0.652
  483SOL    HW1 1469   2.506   0.830   0.633
  483SOL    HW2 1470   2.368   0.747   0.604
  484SOL     OW 1471   2.083   1.314   1.844
  484SOL    HW1 1472   2.018   1.241   1.823
  484SOL    HW2 1473   2.087   1.328   1.942
  485SOL     OW 1474   1.941   1.240   0.653
  485SOL    HW1 1475   1.940   1.193   0.741
  485SOL    HW2 1476   2.023   1.212   0.602
  486SOL     OW 1477   2.534   1.391   1.624
  486SOL    HW1 1478   2.456   1.341   1.662
  486SOL    HW2 1479   2.531   1.486   1.655
  487SOL     OW 1480   2.290   0.424   0.520
  487SOL    HW1 1481   2.320   0.352   0.458
  487SOL    HW2 1482   2.251   0.384   0.603
  488SOL     OW 1483   2.179   0.547   1.280
  488SOL    HW1 1484   2.217   0.488   1.352
  488SOL    HW2 1485   2.219   0.521   1.192
  489SOL     OW 1486   1.901   1.077   0.300
  489SOL    HW1 1487   2.000   1.066   0.291
  489SOL    HW2 1488   1.861   0.991   0.332
  490SOL     OW 1489   2.092   0.628   1.975
  490SOL    HW1 1490   1.999   0.626   2.012
  490SOL    HW2 1491   2.093   0.589   1.883
  491SOL     OW 1492   2.087   0.275   2.858
  491SOL    HW1 1493   2.122   0.258   2.950
  491SOL    HW2 1494   1.999   0.230   2.846
  492SOL     OW 1495   2.093   1.713   2.345
  492SOL    HW1 1496   2.127   1.790   2.399
  492SOL    HW2 1497   2.137   1.713   2.255
  493SOL     OW 1498   2.092   1.434   2.400
  493SOL    HW1 1499   2.066   1.530   2.400
  493SOL    HW2 1500   2.021   1.380   2.445
  494SOL     OW 1501   2.468   0.964   1.985
  494SOL    HW1 1502   2.475   1.048   1.931
  494SOL    HW2 1503   2.514   0.977   2.073
  495SOL     OW 1504   1.984   0.643   2.425
  495SOL    HW1 1505   1.939   0.555   2.442
  495SOL    HW2 1506   1.983   0.697   2.509
  496SOL     OW 1507   1.889   1.596   1.979
  496SOL    HW1 1508   1.870   1.500   2.000
  496SOL    HW2 1509   1.856   1.654   2.054
  497SOL     OW 1510   2.475   1.365   2.588
  497SOL    HW1 1511   2.426   1.278   2.597
  497SOL    HW2 1512   2.452   1.408   2.501
  498SOL     OW 1513   2.460   0.729   2.132
  498SOL    HW1 1514   2.484   0.798   2.064
  498SOL    HW2 1515   2.382   0.762   2.186
  499SOL     OW 1516   1.938   0.811   2.651
  499SOL    HW1 1517   2.037   0.799   2.660
  499SOL    HW2 1518   1.914   0.906   2.672
  500SOL     OW 1519   2.213   1.801   2.715
  500SOL    HW1 1520   2.263   1.715   2.721
  500SOL    HW2 1521   2.278   1.878   2.712
  501SOL     OW 1522   2.183   0.943   2.104
  501SOL    HW1 1523   2.265   0.982   2.062
  501SOL    HW2 1524   2.156   0.861   2.055
  502SOL     OW 1525   2.326   1.743   2.185
  502SOL    HW1 1526   2.359   1.782   2.271
  502SOL    HW2 1527   2.402   1.736   2.120
  503SOL     OW 1528   2.244   0.700   2.342
  503SOL    HW1 1529   2.289   0.610   2.339
  503SOL    HW2 1530   2.150   0.689   2.375
  504SOL     OW 1531   2.476   0.122   1.979
  504SOL    HW1 1532   2.574   0.100   1.986
  504SOL    HW2 1533   2.445   0.105   1.886
  505SOL     OW 1534   2.401   0.064   2.374
  505SOL    HW1 1535   2.320   0.065   2.432
  505SOL    HW2 1536   2.404   0.147   2.319
  506SOL     OW 1537   2.159   0.035   2.033
  506SOL    HW1 1538   2.208   0.119   2.012
  506SOL    HW2 1539   2.221  -0.030   2.078
  507SOL     OW 1540   2.797   0.236   2.342
  507SOL    HW1 1541   2.749   0.277   2.264
  507SOL    HW2 1542   2.896   0.234   2.323
  508SOL     OW 1543   2.321   1.152   2.603
  508SOL    HW1 1544   2.250   1.125   2.668
  508SOL    HW2 1545   2.295   1.124   2.510
  509SOL     OW 1546   2.350   1.385   2.036
  509SOL    HW1 1547   2.263   1.370   2.083
  509SOL    HW2 1548   2.333   1.411   1.941
  510SOL     OW 1549   2.389   0.256   2.190
  510SOL    HW1 1550   2.416   0.197   2.115
  510SOL    HW2 1551   2.389   0.351   2.159
  511SOL     OW 1552   2.229   1.100   2.363
  511SOL    HW1 1553   2.222   1.183   2.307
  511SOL    HW2 1554   2.233   1.020   2.303
  512SOL     OW 1555   2.169   0.063   2.480
  512SOL    HW1 1556   2.158   0.157   2.513
  512SOL    HW2 1557   2.164   0.000   2.557
  513SOL     OW 1558   1.870   1.326   2.062
  513SOL    HW1 1559   1.777   1.347   2.031
  513SOL    HW2 1560   1.880   1.227   2.075
  514SOL     OW 1561   2.677   0.572   2.187
  514SOL    HW1 1562   2.684   0.483   2.141
  514SOL    HW2 1563   2.583   0.606   2.179
  515SOL     OW 1564   2.335   0.500   2.053
  515SOL    HW1 1565   2.396   0.580   2.057
  515SOL    HW2 1566   2.240   0.531   2.060
  516SOL     OW 1567   2.452   1.487   2.353
  516SOL    HW1 1568   2.494   1.429   2.283
  516SOL    HW2 1569   2.408   1.566   2.309
  517SOL     OW 1570   2.117   1.348   2.152
  517SOL    HW1 1571   2.021   1.349   2.125
  517SOL    HW2 1572   2.129   1.401   2.236
  518SOL     OW 1573   1.937   0.345   1.895
  518SOL    HW1 1574   1.845   0.317   1.866
  518SOL    HW2 1575   1.968   0.422   1.839
  519SOL     OW 1576   1.934   0.166   2.180
  519SOL    HW1 1577   1.917   0.249   2.126
  519SOL    HW2 1578   2.024   0.129   2.158
  520SOL     OW 1579   2.456   0.745   2.514
  520SOL    HW1 1580   2.506   0.830   2.495
  520SOL    HW2 1581   2.368   0.747   2.466
  521SOL     OW 1582   1.941   1.240   2.515
  521SOL    HW1 1583   1.940   1.193   2.603
  521SOL    HW2 1584   2.023   1.212   2.464
  522SOL     OW 1585   2.290   0.424   2.382
  522SOL    HW1 1586   2.320   0.352   2.320
  522SOL    HW2 1587   2.251   0.384   2.465
  523SOL     OW 1588   1.901   1.077   2.162
  523SOL    HW1 1589   2.000   1.066   2.153
  523SOL    HW2 1590   1.861   0.991   2.194
  524SOL     OW 1591   2.087   2.137   0.996
  524SOL    HW1 1592   2.122   2.120   1.088
  524SOL    HW2 1593   1.999   2.092   0.984
  525SOL     OW 1594   1.881   2.230   0.647
  525SOL    HW1 1595   1.799   2.273   0.686
  525SOL    HW2 1596   1.853   2.157   0.584
  526SOL     OW 1597   2.712   2.660   1.823
  526SOL    HW1 1598   2.708   2.736   1.888
  526SOL    HW2 1599   2.734   2.696   1.732
  527SOL     OW 1600   2.300   2.254   1.499
  527SOL    HW1 1601   2.382   2.198   1.508
  527SOL    HW2 1602   2.219   2.196   1.503
  528SOL     OW 1603   1.984   2.505   0.563
  528SOL    HW1 1604   1.939   2.417   0.580
  528SOL    HW2 1605   1.983   2.559   0.647
  529SOL     OW 1606   1.975   2.599   1.597
  529SOL    HW1 1607   2.063   2.586   1.642
  529SOL    HW2 1608   1.962   2.696   1.575
  530SOL     OW 1609   2.671   1.866   0.502
  530SOL    HW1 1610   2.711   1.957   0.493
  530SOL    HW2 1611   2.571   1.874   0.508
  531SOL     OW 1612   2.179   2.113   1.801
  531SOL    HW1 1613   2.250   2.184   1.807
  531SOL    HW2 1614   2.091   2.152   1.829
  532SOL     OW 1615   2.460   2.591   0.270
  532SOL    HW1 1616   2.484   2.660   0.202
  532SOL    HW2 1617   2.382   2.624   0.324
  533SOL     OW 1618   2.412   2.058   0.885
  533SOL    HW1 1619   2.407   2.053   0.985
  533SOL    HW2 1620   2.414   2.154   0.856
  534SOL     OW 1621   2.064   2.147   1.498
  534SOL    HW1 1622   1.984   2.207   1.485
  534SOL    HW2 1623   2.054   2.098   1.584
  535SOL     OW 1624   2.244   2.562   0.480
  535SOL    HW1 1625   2.289   2.472   0.477
  535SOL    HW2 1626   2.150   2.551   0.513
  536SOL     OW 1627   2.476   1.984   0.117
  536SOL    HW1 1628   2.574   1.962   0.124
  536SOL    HW2 1629   2.445   1.967   0.024
  537SOL     OW 1630   2.401   1.926   0.512
  537SOL    HW1 1631   2.320   1.927   0.570
  537SOL    HW2 1632   2.404   2.009   0.457
  538SOL     OW 1633   2.797   2.098   0.480
  538SOL    HW1 1634   2.749   2.139   0.402
  538SOL    HW2 1635   2.896   2.096   0.461
  539SOL     OW 1636   2.938   2.545   1.464
  539SOL    HW1 1637   2.858   2.484   1.467
  539SOL    HW2 1638   3.019   2.492   1.440
  540SOL     OW 1639   1.940   2.418   1.386
  540SOL    HW1 1640   2.032   2.417   1.345
  540SOL    HW2 1641   1.934   2.492   1.453
  541SOL     OW 1642   2.423   2.084   1.147
  541SOL    HW1 1643   2.461   2.000   1.184
  541SOL    HW2 1644   2.335   2.103   1.191
  542SOL     OW 1645   2.389   2.118   0.328
  542SOL    HW1 1646   2.416   2.059   0.253
  542SOL    HW2 1647   2.389   2.213   0.297
  543SOL     OW 1648   2.428   2.399   0.865
  543SOL    HW1 1649   2.440   2.465   0.791
  543SOL    HW2 1650   2.474   2.433   0.948
  544SOL     OW 1651   2.366   1.912   1.740
  544SOL    HW1 1652   2.324   1.855   1.670
  544SOL    HW2 1653   2.300   1.981   1.772
  545SOL     OW 1654   2.169   2.075   1.231
  545SOL    HW1 1655   2.146   2.112   1.321
  545SOL    HW2 1656   2.139   1.980   1.225
  546SOL     OW 1657   2.169   1.925   0.618
  546SOL    HW1 1658   2.158   2.019   0.651
  546SOL    HW2 1659   2.164   1.862   0.695
  547SOL     OW 1660   2.181   2.672   0.949
  547SOL    HW1 1661   2.274   2.708   0.954
  547SOL    HW2 1662   2.175   2.587   1.001
  548SOL     OW 1663   2.201   2.371   1.006
  548SOL    HW1 1664   2.149   2.288   0.989
  548SOL    HW2 1665   2.278   2.376   0.942
  549SOL     OW 1666   1.902   2.406   1.114
  549SOL    HW1 1667   1.987   2.373   1.073
  549SOL    HW2 1668   1.915   2.421   1.212
  550SOL     OW 1669   2.051   2.382   1.722
  550SOL    HW1 1670   2.110   2.342   1.652
  550SOL    HW2 1671   1.993   2.453   1.681
  551SOL     OW 1672   2.677   2.434   0.325
  551SOL    HW1 1673   2.684   2.345   0.279
  551SOL    HW2 1674   2.583   2.468   0.317
  552SOL     OW 1675   2.335   2.362   0.191
  552SOL    HW1 1676   2.396   2.442   0.195
  552SOL    HW2 1677   2.240   2.393   0.198
  553SOL     OW 1678   2.765   1.948   0.133
  553SOL    HW1 1679   2.816   1.949   0.047
  553SOL    HW2 1680   2.821   1.906   0.204
  554SOL     OW 1681   2.125   2.188   0.720
  554SOL    HW1 1682   2.046   2.239   0.686
  554SOL    HW2 1683   2.116   2.173   0.818
  555SOL     OW 1684   2.534   2.065   1.489
  555SOL    HW1 1685   2.624   2.049   1.449
  555SOL    HW2 1686   2.542   2.070   1.588
  556SOL     OW 1687   1.937   2.207   0.033
  556SOL    HW1 1688   1.845   2.179   0.004
  556SOL    HW2 1689   1.968   2.284  -0.023
  557SOL     OW 1690   2.578   2.427   1.708
  557SOL    HW1 1691   2.597   2.492   1.782
  557SOL    HW2 1692   2.638   2.347   1.717
  558SOL     OW 1693   2.290   2.286   0.520
  558SOL    HW1 1694   2.320   2.214   0.458
  558SOL    HW2 1695   2.251   2.246   0.603
  559SOL     OW 1696   2.179   2.409   1.280
  559SOL    HW1 1697   2.217   2.350   1.352
  559SOL    HW2 1698   2.219   2.383   1.192
  560SOL     OW 1699   2.087   2.137   2.858
  560SOL    HW1 1700   2.122   2.120   2.950
  560SOL    HW2 1701   1.999   2.092   2.846
  561SOL     OW 1702   1.984   2.505   2.425
  561SOL    HW1 1703   1.939   2.417   2.442
  561SOL    HW2 1704   1.983   2.559   2.509
  562SOL     OW 1705   2.671   1.866   2.364
  562SOL    HW1 1706   2.711   1.957   2.355
  562SOL    HW2 1707   2.571   1.874   2.370
  563SOL     OW 1708   2.244   2.562   2.342
  563SOL    HW1 1709   2.289   2.472   2.339
  563SOL    HW2 1710   2.150   2.551   2.375
  564SOL     OW 1711   2.476   1.984   1.979
  564SOL    HW1 1712   2.574   1.962   1.986
  564SOL    HW2 1713   2.445   1.967   1.886
  565SOL     OW 1714   2.401   1.926   2.374
  565SOL    HW1 1715   2.320   1.927   2.432
  565SOL    HW2 1716   2.404   2.009   2.319
  566SOL     OW 1717   2.159   1.897   2.033
  566SOL    HW1 1718   2.208   1.981   2.012
  566SOL    HW2 1719   2.221   1.832   2.078
  567SOL     OW 1720   2.797   2.098   2.342
  567SOL    HW1 1721   2.749   2.139   2.264
  567SOL    HW2 1722   2.896   2.096   2.323
  568SOL     OW 1723   2.389   2.118   2.190
  568SOL    HW1 1724   2.416   2.059   2.115
  568SOL    HW2 1725   2.389   2.213   2.159
  569SOL     OW 1726   2.169   1.925   2.480
  569SOL    HW1 1727   2.158   2.019   2.513
  569SOL    HW2 1728   2.164   1.862   2.557
  570SOL     OW 1729   2.677   2.434   2.187
  570SOL    HW1 1730   2.684   2.345   2.141
  570SOL    HW2 1731   2.583   2.468   2.179
  571SOL     OW 1732   2.335   2.362   2.053
  571SOL    HW1 1733   2.396   2.442   2.057
  571SOL    HW2 1734   2.240   2.393   2.060
  572SOL     OW 1735   1.937   2.207   1.895
  572SOL    HW1 1736   1.845   2.179   1.866
  572SOL    HW2 1737   1.968   2.284   1.839
  573SOL     OW 1738   1.934   2.028   2.180
  573SOL    HW1 1739   1.917   2.111   2.126
  573SOL    HW2 1740   2.024   1.991   2.158
  574SOL     OW 1741   2.290   2.286   2.382
  574SOL    HW1 1742   2.320   2.214   2.320
  574SOL    HW2 1743   2.251   2.246   2.465
   2.60140   2.60140   2.60140
