; mobley_2099370_GMX.itp created by acpype (v: 2023.10.27) on Thu May 14 13:38:02 2026

[ atomtypes ]
;name   bond_type     mass     charge   ptype   sigma         epsilon       Amb
 ca       ca          0.00000  0.00000   A     3.31521e-01   4.13379e-01 ; 1.86  0.0988
 c        c           0.00000  0.00000   A     3.31521e-01   4.13379e-01 ; 1.86  0.0988
 c3       c3          0.00000  0.00000   A     3.39771e-01   4.51035e-01 ; 1.91  0.1078
 o        o           0.00000  0.00000   A     3.04812e-01   6.12119e-01 ; 1.71  0.1463
 oh       oh          0.00000  0.00000   A     3.24287e-01   3.89112e-01 ; 1.82  0.0930
 ha       ha          0.00000  0.00000   A     2.62548e-01   6.73624e-02 ; 1.47  0.0161
 hc       hc          0.00000  0.00000   A     2.60018e-01   8.70272e-02 ; 1.46  0.0208
 ho       ho          0.00000  0.00000   A     5.37925e-02   1.96648e-02 ; 0.30  0.0047

[ moleculetype ]
;name            nrexcl
 mobley_2099370   3

[ atoms ]
;   nr  type  resi  res  atom  cgnr     charge      mass       ; qtot   bond_type
     1   ca     1   MOL    C1    1    -0.103000     12.01000 ; qtot -0.103
     2   ca     1   MOL    C2    2    -0.141000     12.01000 ; qtot -0.244
     3   ca     1   MOL    C3    3    -0.141000     12.01000 ; qtot -0.385
     4   ca     1   MOL    C4    4    -0.145000     12.01000 ; qtot -0.530
     5   ca     1   MOL    C5    5    -0.081000     12.01000 ; qtot -0.611
     6   ca     1   MOL    C6    6    -0.081000     12.01000 ; qtot -0.692
     7   ca     1   MOL    C7    7    -0.071000     12.01000 ; qtot -0.763
     8   ca     1   MOL    C8    8    -0.092000     12.01000 ; qtot -0.855
     9   ca     1   MOL    C9    9    -0.074000     12.01000 ; qtot -0.929
    10   ca     1   MOL   C10   10    -0.172600     12.01000 ; qtot -1.102
    11   ca     1   MOL   C11   11    -0.166600     12.01000 ; qtot -1.268
    12   ca     1   MOL   C12   12    -0.109300     12.01000 ; qtot -1.377
    13    c     1   MOL   C13   13     0.589300     12.01000 ; qtot -0.788
    14    c     1   MOL   C14   14     0.639101     12.01000 ; qtot -0.149
    15   c3     1   MOL   C15   15    -0.092100     12.01000 ; qtot -0.241
    16   c3     1   MOL   C16   16    -0.055400     12.01000 ; qtot -0.297
    17    o     1   MOL    O1   17    -0.532100     16.00000 ; qtot -0.829
    18    o     1   MOL    O2   18    -0.551000     16.00000 ; qtot -1.380
    19   oh     1   MOL    O3   19    -0.606100     16.00000 ; qtot -1.986
    20   ha     1   MOL    H1   20     0.134000      1.00800 ; qtot -1.852
    21   ha     1   MOL    H2   21     0.137500      1.00800 ; qtot -1.714
    22   ha     1   MOL    H3   22     0.137500      1.00800 ; qtot -1.577
    23   ha     1   MOL    H4   23     0.140000      1.00800 ; qtot -1.437
    24   ha     1   MOL    H5   24     0.146500      1.00800 ; qtot -1.290
    25   ha     1   MOL    H6   25     0.146500      1.00800 ; qtot -1.144
    26   ha     1   MOL    H7   26     0.154000      1.00800 ; qtot -0.990
    27   ha     1   MOL    H8   27     0.137000      1.00800 ; qtot -0.853
    28   ha     1   MOL    H9   28     0.162000      1.00800 ; qtot -0.691
    29   hc     1   MOL   H10   29     0.053033      1.00800 ; qtot -0.638
    30   hc     1   MOL   H11   30     0.053033      1.00800 ; qtot -0.585
    31   hc     1   MOL   H12   31     0.053033      1.00800 ; qtot -0.532
    32   hc     1   MOL   H13   32     0.087700      1.00800 ; qtot -0.444
    33   ho     1   MOL   H14   33     0.444000      1.00800 ; qtot 0.000

[ bonds ]
;   ai     aj funct   r             k
     1      2   1    1.3986e-01    2.9644e+05 ;     C1 - C2    
     1      3   1    1.3986e-01    2.9644e+05 ;     C1 - C3    
     1     20   1    1.0860e-01    3.0183e+05 ;     C1 - H1    
     2      5   1    1.3986e-01    2.9644e+05 ;     C2 - C5    
     2     21   1    1.0860e-01    3.0183e+05 ;     C2 - H2    
     3      6   1    1.3986e-01    2.9644e+05 ;     C3 - C6    
     3     22   1    1.0860e-01    3.0183e+05 ;     C3 - H3    
     4      7   1    1.3986e-01    2.9644e+05 ;     C4 - C7    
     4      8   1    1.3986e-01    2.9644e+05 ;     C4 - C8    
     4     23   1    1.0860e-01    3.0183e+05 ;     C4 - H4    
     5     10   1    1.3986e-01    2.9644e+05 ;     C5 - C10   
     5     24   1    1.0860e-01    3.0183e+05 ;     C5 - H5    
     6     10   1    1.3986e-01    2.9644e+05 ;     C6 - C10   
     6     25   1    1.0860e-01    3.0183e+05 ;     C6 - H6    
     7     11   1    1.3986e-01    2.9644e+05 ;     C7 - C11   
     7     26   1    1.0860e-01    3.0183e+05 ;     C7 - H7    
     8     12   1    1.3986e-01    2.9644e+05 ;     C8 - C12   
     8     27   1    1.0860e-01    3.0183e+05 ;     C8 - H8    
     9     11   1    1.3986e-01    2.9644e+05 ;     C9 - C11   
     9     12   1    1.3986e-01    2.9644e+05 ;     C9 - C12   
     9     28   1    1.0860e-01    3.0183e+05 ;     C9 - H9    
    10     13   1    1.4907e-01    2.1994e+05 ;    C10 - C13   
    11     13   1    1.4907e-01    2.1994e+05 ;    C11 - C13   
    12     16   1    1.5147e-01    2.0410e+05 ;    C12 - C16   
    13     17   1    1.2190e-01    4.9421e+05 ;    C13 - O1    
    14     16   1    1.5270e-01    1.9652e+05 ;    C14 - C16   
    14     18   1    1.2190e-01    4.9421e+05 ;    C14 - O2    
    14     19   1    1.3556e-01    3.0064e+05 ;    C14 - O3    
    15     16   1    1.5354e-01    1.9154e+05 ;    C15 - C16   
    15     29   1    1.0962e-01    2.8891e+05 ;    C15 - H10   
    15     30   1    1.0962e-01    2.8891e+05 ;    C15 - H11   
    15     31   1    1.0962e-01    2.8891e+05 ;    C15 - H12   
    16     32   1    1.0962e-01    2.8891e+05 ;    C16 - H13   
    19     33   1    9.7250e-02    4.4811e+05 ;     O3 - H14   

[ pairs ]
;   ai     aj    funct
     1     10      1 ;     C1 - C10   
     1     24      1 ;     C1 - H5    
     1     25      1 ;     C1 - H6    
     2      6      1 ;     C2 - C6    
     2     13      1 ;     C2 - C13   
     2     22      1 ;     C2 - H3    
     3      5      1 ;     C3 - C5    
     3     13      1 ;     C3 - C13   
     3     21      1 ;     C3 - H2    
     4      9      1 ;     C4 - C9    
     4     13      1 ;     C4 - C13   
     4     16      1 ;     C4 - C16   
     5     11      1 ;     C5 - C11   
     5     17      1 ;     C5 - O1    
     5     25      1 ;     C5 - H6    
     6     11      1 ;     C6 - C11   
     6     17      1 ;     C6 - O1    
     6     24      1 ;     C6 - H5    
     7     10      1 ;     C7 - C10   
     7     12      1 ;     C7 - C12   
     7     17      1 ;     C7 - O1    
     7     27      1 ;     C7 - H8    
     7     28      1 ;     C7 - H9    
     8     11      1 ;     C8 - C11   
     8     14      1 ;     C8 - C14   
     8     15      1 ;     C8 - C15   
     8     26      1 ;     C8 - H7    
     8     28      1 ;     C8 - H9    
     8     32      1 ;     C8 - H13   
     9     10      1 ;     C9 - C10   
     9     14      1 ;     C9 - C14   
     9     15      1 ;     C9 - C15   
     9     17      1 ;     C9 - O1    
     9     26      1 ;     C9 - H7    
     9     27      1 ;     C9 - H8    
     9     32      1 ;     C9 - H13   
    10     21      1 ;    C10 - H2    
    10     22      1 ;    C10 - H3    
    11     16      1 ;    C11 - C16   
    11     23      1 ;    C11 - H4    
    12     13      1 ;    C12 - C13   
    12     18      1 ;    C12 - O2    
    12     19      1 ;    C12 - O3    
    12     23      1 ;    C12 - H4    
    12     29      1 ;    C12 - H10   
    12     30      1 ;    C12 - H11   
    12     31      1 ;    C12 - H12   
    13     24      1 ;    C13 - H5    
    13     25      1 ;    C13 - H6    
    13     26      1 ;    C13 - H7    
    13     28      1 ;    C13 - H9    
    14     29      1 ;    C14 - H10   
    14     30      1 ;    C14 - H11   
    14     31      1 ;    C14 - H12   
    15     18      1 ;    C15 - O2    
    15     19      1 ;    C15 - O3    
    16     27      1 ;    C16 - H8    
    16     28      1 ;    C16 - H9    
    16     33      1 ;    C16 - H14   
    18     32      1 ;     O2 - H13   
    18     33      1 ;     O2 - H14   
    19     32      1 ;     O3 - H13   
    20      5      1 ;     H1 - C5    
    20      6      1 ;     H1 - C6    
    20     21      1 ;     H1 - H2    
    20     22      1 ;     H1 - H3    
    21     24      1 ;     H2 - H5    
    22     25      1 ;     H3 - H6    
    23     26      1 ;     H4 - H7    
    23     27      1 ;     H4 - H8    
    29     32      1 ;    H10 - H13   
    30     32      1 ;    H11 - H13   
    31     32      1 ;    H12 - H13   

[ angles ]
;   ai     aj     ak    funct   theta         cth
     1      2      5      1    1.2002e+02    5.3279e+02 ;     C1 - C2     - C5    
     1      2     21      1    1.1988e+02    3.7572e+02 ;     C1 - C2     - H2    
     1      3      6      1    1.2002e+02    5.3279e+02 ;     C1 - C3     - C6    
     1      3     22      1    1.1988e+02    3.7572e+02 ;     C1 - C3     - H3    
     2      1      3      1    1.2002e+02    5.3279e+02 ;     C2 - C1     - C3    
     2      1     20      1    1.1988e+02    3.7572e+02 ;     C2 - C1     - H1    
     2      5     10      1    1.2002e+02    5.3279e+02 ;     C2 - C5     - C10   
     2      5     24      1    1.1988e+02    3.7572e+02 ;     C2 - C5     - H5    
     3      1     20      1    1.1988e+02    3.7572e+02 ;     C3 - C1     - H1    
     3      6     10      1    1.2002e+02    5.3279e+02 ;     C3 - C6     - C10   
     3      6     25      1    1.1988e+02    3.7572e+02 ;     C3 - C6     - H6    
     4      7     11      1    1.2002e+02    5.3279e+02 ;     C4 - C7     - C11   
     4      7     26      1    1.1988e+02    3.7572e+02 ;     C4 - C7     - H7    
     4      8     12      1    1.2002e+02    5.3279e+02 ;     C4 - C8     - C12   
     4      8     27      1    1.1988e+02    3.7572e+02 ;     C4 - C8     - H8    
     5      2     21      1    1.1988e+02    3.7572e+02 ;     C5 - C2     - H2    
     5     10      6      1    1.2002e+02    5.3279e+02 ;     C5 - C10    - C6    
     5     10     13      1    1.2033e+02    5.1413e+02 ;     C5 - C10    - C13   
     6      3     22      1    1.1988e+02    3.7572e+02 ;     C6 - C3     - H3    
     6     10     13      1    1.2033e+02    5.1413e+02 ;     C6 - C10    - C13   
     7      4      8      1    1.2002e+02    5.3279e+02 ;     C7 - C4     - C8    
     7      4     23      1    1.1988e+02    3.7572e+02 ;     C7 - C4     - H4    
     7     11      9      1    1.2002e+02    5.3279e+02 ;     C7 - C11    - C9    
     7     11     13      1    1.2033e+02    5.1413e+02 ;     C7 - C11    - C13   
     8      4     23      1    1.1988e+02    3.7572e+02 ;     C8 - C4     - H4    
     8     12      9      1    1.2002e+02    5.3279e+02 ;     C8 - C12    - C9    
     8     12     16      1    1.2083e+02    5.0827e+02 ;     C8 - C12    - C16   
     9     11     13      1    1.2033e+02    5.1413e+02 ;     C9 - C11    - C13   
     9     12     16      1    1.2083e+02    5.0827e+02 ;     C9 - C12    - C16   
    10      5     24      1    1.1988e+02    3.7572e+02 ;    C10 - C5     - H5    
    10      6     25      1    1.1988e+02    3.7572e+02 ;    C10 - C6     - H6    
    10     13     11      1    1.1793e+02    5.0434e+02 ;    C10 - C13    - C11   
    10     13     17      1    1.2260e+02    6.5237e+02 ;    C10 - C13    - O1    
    11      7     26      1    1.1988e+02    3.7572e+02 ;    C11 - C7     - H7    
    11      9     12      1    1.2002e+02    5.3279e+02 ;    C11 - C9     - C12   
    11      9     28      1    1.1988e+02    3.7572e+02 ;    C11 - C9     - H9    
    11     13     17      1    1.2260e+02    6.5237e+02 ;    C11 - C13    - O1    
    12      8     27      1    1.1988e+02    3.7572e+02 ;    C12 - C8     - H8    
    12      9     28      1    1.1988e+02    3.7572e+02 ;    C12 - C9     - H9    
    12     16     14      1    1.1116e+02    5.0911e+02 ;    C12 - C16    - C14   
    12     16     15      1    1.1242e+02    5.0484e+02 ;    C12 - C16    - C15   
    12     16     32      1    1.1063e+02    3.6493e+02 ;    C12 - C16    - H13   
    14     16     15      1    1.1143e+02    5.0509e+02 ;    C14 - C16    - C15   
    14     16     32      1    1.0895e+02    3.6510e+02 ;    C14 - C16    - H13   
    14     19     33      1    1.0654e+02    5.7287e+02 ;    C14 - O3     - H14   
    15     16     32      1    1.0968e+02    3.6208e+02 ;    C15 - C16    - H13   
    16     14     18      1    1.2290e+02    6.3973e+02 ;    C16 - C14    - O2    
    16     14     19      1    1.1274e+02    6.4785e+02 ;    C16 - C14    - O3    
    16     15     29      1    1.0968e+02    3.6208e+02 ;    C16 - C15    - H10   
    16     15     30      1    1.0968e+02    3.6208e+02 ;    C16 - C15    - H11   
    16     15     31      1    1.0968e+02    3.6208e+02 ;    C16 - C15    - H12   
    18     14     19      1    1.2209e+02    8.5379e+02 ;     O2 - C14    - O3    
    29     15     30      1    1.0773e+02    2.9957e+02 ;    H10 - C15    - H11   
    29     15     31      1    1.0773e+02    2.9957e+02 ;    H10 - C15    - H12   
    30     15     31      1    1.0773e+02    2.9957e+02 ;    H11 - C15    - H12   

[ dihedrals ] ; propers
; for gromacs 4.5 or higher, using funct 9
;    i      j      k      l   func   phase     kd      pn
     1      2      5     10      9   180.00  15.16700   2 ;     C1-    C2-    C5-   C10
     1      2      5     24      9   180.00  15.16700   2 ;     C1-    C2-    C5-    H5
     1      3      6     10      9   180.00  15.16700   2 ;     C1-    C3-    C6-   C10
     1      3      6     25      9   180.00  15.16700   2 ;     C1-    C3-    C6-    H6
     2      1      3      6      9   180.00  15.16700   2 ;     C2-    C1-    C3-    C6
     2      1      3     22      9   180.00  15.16700   2 ;     C2-    C1-    C3-    H3
     2      5     10      6      9   180.00  15.16700   2 ;     C2-    C5-   C10-    C6
     2      5     10     13      9   180.00  15.16700   2 ;     C2-    C5-   C10-   C13
     3      1      2      5      9   180.00  15.16700   2 ;     C3-    C1-    C2-    C5
     3      1      2     21      9   180.00  15.16700   2 ;     C3-    C1-    C2-    H2
     3      6     10      5      9   180.00  15.16700   2 ;     C3-    C6-   C10-    C5
     3      6     10     13      9   180.00  15.16700   2 ;     C3-    C6-   C10-   C13
     4      7     11      9      9   180.00  15.16700   2 ;     C4-    C7-   C11-    C9
     4      7     11     13      9   180.00  15.16700   2 ;     C4-    C7-   C11-   C13
     4      8     12      9      9   180.00  15.16700   2 ;     C4-    C8-   C12-    C9
     4      8     12     16      9   180.00  15.16700   2 ;     C4-    C8-   C12-   C16
     5     10      6     25      9   180.00  15.16700   2 ;     C5-   C10-    C6-    H6
     5     10     13     11      9   180.00   5.23000   2 ;     C5-   C10-   C13-   C11
     5     10     13     17      9   180.00   2.42672   2 ;     C5-   C10-   C13-    O1
     6     10      5     24      9   180.00  15.16700   2 ;     C6-   C10-    C5-    H5
     6     10     13     11      9   180.00   5.23000   2 ;     C6-   C10-   C13-   C11
     6     10     13     17      9   180.00   2.42672   2 ;     C6-   C10-   C13-    O1
     7      4      8     12      9   180.00  15.16700   2 ;     C7-    C4-    C8-   C12
     7      4      8     27      9   180.00  15.16700   2 ;     C7-    C4-    C8-    H8
     7     11      9     12      9   180.00  15.16700   2 ;     C7-   C11-    C9-   C12
     7     11      9     28      9   180.00  15.16700   2 ;     C7-   C11-    C9-    H9
     7     11     13     10      9   180.00   5.23000   2 ;     C7-   C11-   C13-   C10
     7     11     13     17      9   180.00   2.42672   2 ;     C7-   C11-   C13-    O1
     8      4      7     11      9   180.00  15.16700   2 ;     C8-    C4-    C7-   C11
     8      4      7     26      9   180.00  15.16700   2 ;     C8-    C4-    C7-    H7
     8     12      9     11      9   180.00  15.16700   2 ;     C8-   C12-    C9-   C11
     8     12      9     28      9   180.00  15.16700   2 ;     C8-   C12-    C9-    H9
     8     12     16     14      9     0.00   0.00000   0 ;     C8-   C12-   C16-   C14
     8     12     16     15      9   180.00   1.00416   2 ;     C8-   C12-   C16-   C15
     8     12     16     32      9     0.00   0.00000   0 ;     C8-   C12-   C16-   H13
     9     11      7     26      9   180.00  15.16700   2 ;     C9-   C11-    C7-    H7
     9     11     13     10      9   180.00   5.23000   2 ;     C9-   C11-   C13-   C10
     9     11     13     17      9   180.00   2.42672   2 ;     C9-   C11-   C13-    O1
     9     12      8     27      9   180.00  15.16700   2 ;     C9-   C12-    C8-    H8
     9     12     16     14      9     0.00   0.00000   0 ;     C9-   C12-   C16-   C14
     9     12     16     15      9   180.00   1.00416   2 ;     C9-   C12-   C16-   C15
     9     12     16     32      9     0.00   0.00000   0 ;     C9-   C12-   C16-   H13
    10      5      2     21      9   180.00  15.16700   2 ;    C10-    C5-    C2-    H2
    10      6      3     22      9   180.00  15.16700   2 ;    C10-    C6-    C3-    H3
    11      7      4     23      9   180.00  15.16700   2 ;    C11-    C7-    C4-    H4
    11      9     12     16      9   180.00  15.16700   2 ;    C11-    C9-   C12-   C16
    12      8      4     23      9   180.00  15.16700   2 ;    C12-    C8-    C4-    H4
    12      9     11     13      9   180.00  15.16700   2 ;    C12-    C9-   C11-   C13
    12     16     14     18      9   180.00   0.00000   2 ;    C12-   C16-   C14-    O2
    12     16     14     19      9   180.00   0.00000   2 ;    C12-   C16-   C14-    O3
    12     16     15     29      9     0.00   0.65084   3 ;    C12-   C16-   C15-   H10
    12     16     15     30      9     0.00   0.65084   3 ;    C12-   C16-   C15-   H11
    12     16     15     31      9     0.00   0.65084   3 ;    C12-   C16-   C15-   H12
    13     10      5     24      9   180.00  15.16700   2 ;    C13-   C10-    C5-    H5
    13     10      6     25      9   180.00  15.16700   2 ;    C13-   C10-    C6-    H6
    13     11      7     26      9   180.00  15.16700   2 ;    C13-   C11-    C7-    H7
    13     11      9     28      9   180.00  15.16700   2 ;    C13-   C11-    C9-    H9
    14     16     15     29      9     0.00   0.65084   3 ;    C14-   C16-   C15-   H10
    14     16     15     30      9     0.00   0.65084   3 ;    C14-   C16-   C15-   H11
    14     16     15     31      9     0.00   0.65084   3 ;    C14-   C16-   C15-   H12
    15     16     14     18      9     0.00   2.84512   1 ;    C15-   C16-   C14-    O2
    15     16     14     18      9   180.00   0.83680   2 ;    C15-   C16-   C14-    O2
    15     16     14     18      9   180.00   1.84096   3 ;    C15-   C16-   C14-    O2
    15     16     14     19      9   180.00   0.00000   2 ;    C15-   C16-   C14-    O3
    16     12      8     27      9   180.00  15.16700   2 ;    C16-   C12-    C8-    H8
    16     12      9     28      9   180.00  15.16700   2 ;    C16-   C12-    C9-    H9
    16     14     19     33      9   180.00   7.53120   2 ;    C16-   C14-    O3-   H14
    18     14     16     32      9     0.00  16.86152   1 ;     O2-   C14-   C16-   H13
    18     14     16     32      9   180.00  15.31344   2 ;     O2-   C14-   C16-   H13
    18     14     19     33      9     0.00   7.94960   1 ;     O2-   C14-    O3-   H14
    18     14     19     33      9   180.00   9.62320   2 ;     O2-   C14-    O3-   H14
    19     14     16     32      9   180.00   0.00000   2 ;     O3-   C14-   C16-   H13
    20      1      2      5      9   180.00  15.16700   2 ;     H1-    C1-    C2-    C5
    20      1      2     21      9   180.00  15.16700   2 ;     H1-    C1-    C2-    H2
    20      1      3      6      9   180.00  15.16700   2 ;     H1-    C1-    C3-    C6
    20      1      3     22      9   180.00  15.16700   2 ;     H1-    C1-    C3-    H3
    21      2      5     24      9   180.00  15.16700   2 ;     H2-    C2-    C5-    H5
    22      3      6     25      9   180.00  15.16700   2 ;     H3-    C3-    C6-    H6
    23      4      7     26      9   180.00  15.16700   2 ;     H4-    C4-    C7-    H7
    23      4      8     27      9   180.00  15.16700   2 ;     H4-    C4-    C8-    H8
    29     15     16     32      9     0.00   0.50208   3 ;    H10-   C15-   C16-   H13
    30     15     16     32      9     0.00   0.50208   3 ;    H11-   C15-   C16-   H13
    31     15     16     32      9     0.00   0.50208   3 ;    H12-   C15-   C16-   H13

[ dihedrals ] ; impropers
; treated as propers in GROMACS to use correct AMBER analytical function
;    i      j      k      l   func   phase     kd      pn
     1      5      2     21      4   180.00   4.60240   2 ;     C1-    C5-    C2-    H2
     1      6      3     22      4   180.00   4.60240   2 ;     C1-    C6-    C3-    H3
     2     10      5     24      4   180.00   4.60240   2 ;     C2-   C10-    C5-    H5
     3     10      6     25      4   180.00   4.60240   2 ;     C3-   C10-    C6-    H6
     4     11      7     26      4   180.00   4.60240   2 ;     C4-   C11-    C7-    H7
     4     12      8     27      4   180.00   4.60240   2 ;     C4-   C12-    C8-    H8
     7      8      4     23      4   180.00   4.60240   2 ;     C7-    C8-    C4-    H4
     8      9     12     16      4   180.00   4.60240   2 ;     C8-    C9-   C12-   C16
    10     11     13     17      4   180.00  43.93200   2 ;    C10-   C11-   C13-    O1
    11     12      9     28      4   180.00   4.60240   2 ;    C11-   C12-    C9-    H9
    13      5     10      6      4   180.00   4.60240   2 ;    C13-    C5-   C10-    C6
    13      7     11      9      4   180.00   4.60240   2 ;    C13-    C7-   C11-    C9
    16     18     14     19      4   180.00   4.60240   2 ;    C16-    O2-   C14-    O3
    20      1      3      2      4   180.00   4.60240   2 ;     H1-    C1-    C3-    C2
