mobley_6978427_GMX.gro created by acpype (v: 2023.10.27) on Thu May 14 14:01:07 2026
 1974
    1MOL     C1    1   1.291   1.482   1.398
    1MOL     C2    2   1.513   1.211   1.259
    1MOL     C3    3   1.455   1.325   1.175
    1MOL     C4    4   1.478   1.227   1.406
    1MOL     C5    5   1.304   1.338   1.194
    1MOL     C6    6   1.327   1.238   1.427
    1MOL     C7    7   1.262   1.347   1.341
    1MOL     C8    8   1.269   1.613   1.594
    1MOL     O1    9   1.346   1.573   1.336
    1MOL     O2   10   1.247   1.488   1.527
    1MOL     H1   11   1.474   1.115   1.222
    1MOL     H2   12   1.622   1.209   1.247
    1MOL     H3   13   1.504   1.419   1.202
    1MOL     H4   14   1.477   1.307   1.069
    1MOL     H5   15   1.517   1.142   1.463
    1MOL     H6   16   1.527   1.317   1.446
    1MOL     H7   17   1.269   1.427   1.139
    1MOL     H8   18   1.255   1.251   1.148
    1MOL     H9   19   1.281   1.142   1.403
    1MOL    H10   20   1.307   1.257   1.534
    1MOL    H11   21   1.153   1.336   1.347
    1MOL    H12   22   1.360   1.660   1.556
    1MOL    H13   23   1.278   1.596   1.701
    1MOL    H14   24   1.184   1.679   1.575
    2SOL     OW   25   0.230   0.628   0.113
    2SOL    HW1   26   0.137   0.626   0.150
    2SOL    HW2   27   0.231   0.589   0.021
    3SOL     OW   28   0.225   0.275   0.996
    3SOL    HW1   29   0.260   0.258   1.088
    3SOL    HW2   30   0.137   0.230   0.984
    4SOL     OW   31   0.019   0.368   0.647
    4SOL    HW1   32  -0.063   0.411   0.686
    4SOL    HW2   33  -0.009   0.295   0.584
    5SOL     OW   34   0.569   1.275   1.165
    5SOL    HW1   35   0.476   1.268   1.128
    5SOL    HW2   36   0.580   1.364   1.209
    6SOL     OW   37   1.555   1.511   0.703
    6SOL    HW1   38   1.498   1.495   0.784
    6SOL    HW2   39   1.496   1.521   0.623
    7SOL     OW   40   1.135   0.703   0.717
    7SOL    HW1   41   1.192   0.781   0.692
    7SOL    HW2   42   1.075   0.729   0.793
    8SOL     OW   43   1.755   0.607   0.231
    8SOL    HW1   44   1.743   0.594   0.132
    8SOL    HW2   45   1.725   0.526   0.280
    9SOL     OW   46   0.768   1.144   1.023
    9SOL    HW1   47   0.690   1.161   1.083
    9SOL    HW2   48   0.802   1.231   0.987
   10SOL     OW   49   0.850   0.798   1.823
   10SOL    HW1   50   0.846   0.874   1.888
   10SOL    HW2   51   0.872   0.834   1.732
   11SOL     OW   52   0.685   1.012   0.665
   11SOL    HW1   53   0.754   0.996   0.735
   11SOL    HW2   54   0.612   1.069   0.703
   12SOL     OW   55   0.686   1.161   1.803
   12SOL    HW1   56   0.746   1.240   1.817
   12SOL    HW2   57   0.600   1.192   1.762
   13SOL     OW   58   0.335   1.435   1.061
   13SOL    HW1   59   0.257   1.404   1.008
   13SOL    HW2   60   0.393   1.493   1.004
   14SOL     OW   61   0.438   0.392   1.499
   14SOL    HW1   62   0.520   0.336   1.508
   14SOL    HW2   63   0.357   0.334   1.503
   15SOL     OW   64   1.603   0.447   0.737
   15SOL    HW1   65   1.529   0.493   0.687
   15SOL    HW2   66   1.654   0.515   0.790
   16SOL     OW   67   0.231   1.713   0.483
   16SOL    HW1   68   0.265   1.790   0.537
   16SOL    HW2   69   0.275   1.713   0.393
   17SOL     OW   70   1.127   1.341   1.690
   17SOL    HW1   71   1.174   1.341   1.778
   17SOL    HW2   72   1.079   1.254   1.679
   18SOL     OW   73   0.230   1.434   0.538
   18SOL    HW1   74   0.204   1.530   0.538
   18SOL    HW2   75   0.159   1.380   0.583
   19SOL     OW   76   0.240   1.091   0.886
   19SOL    HW1   77   0.254   1.007   0.938
   19SOL    HW2   78   0.185   1.155   0.941
   20SOL     OW   79   0.620   1.786   1.439
   20SOL    HW1   80   0.528   1.769   1.474
   20SOL    HW2   81   0.648   1.878   1.465
   21SOL     OW   82   0.606   0.964   0.123
   21SOL    HW1   83   0.613   1.048   0.069
   21SOL    HW2   84   0.652   0.977   0.211
   22SOL     OW   85   1.594   0.114   1.480
   22SOL    HW1   86   1.576   0.181   1.408
   22SOL    HW2   87   1.591   0.160   1.569
   23SOL     OW   88   0.122   0.643   0.563
   23SOL    HW1   89   0.077   0.555   0.580
   23SOL    HW2   90   0.121   0.697   0.647
   24SOL     OW   91   1.842   1.767   0.359
   24SOL    HW1   92   1.896   1.738   0.439
   24SOL    HW2   93   1.872   1.857   0.330
   25SOL     OW   94   0.027   1.596   0.117
   25SOL    HW1   95   0.008   1.500   0.138
   25SOL    HW2   96  -0.006   1.654   0.192
   26SOL     OW   97   1.689   0.922   0.612
   26SOL    HW1   98   1.784   0.893   0.620
   26SOL    HW2   99   1.681   0.987   0.537
   27SOL     OW  100   1.641   1.108   0.432
   27SOL    HW1  101   1.727   1.110   0.380
   27SOL    HW2  102   1.655   1.155   0.520
   28SOL     OW  103   0.113   0.737   1.597
   28SOL    HW1  104   0.201   0.724   1.642
   28SOL    HW2  105   0.100   0.834   1.575
   29SOL     OW  106   0.613   1.365   0.726
   29SOL    HW1  107   0.564   1.278   0.735
   29SOL    HW2  108   0.590   1.408   0.639
   30SOL     OW  109   0.809   0.004   0.502
   30SOL    HW1  110   0.849   0.095   0.493
   30SOL    HW2  111   0.709   0.012   0.508
   31SOL     OW  112   0.197   0.976   1.264
   31SOL    HW1  113   0.286   0.931   1.250
   31SOL    HW2  114   0.124   0.911   1.245
   32SOL     OW  115   1.525   0.999   0.190
   32SOL    HW1  116   1.462   0.923   0.203
   32SOL    HW2  117   1.573   1.017   0.276
   33SOL     OW  118   0.317   0.251   1.801
   33SOL    HW1  119   0.388   0.322   1.807
   33SOL    HW2  120   0.229   0.290   1.829
   34SOL     OW  121   1.466   1.417   0.953
   34SOL    HW1  122   1.407   1.423   1.033
   34SOL    HW2  123   1.451   1.329   0.907
   35SOL     OW  124   1.667   1.714   0.572
   35SOL    HW1  125   1.626   1.691   0.484
   35SOL    HW2  126   1.649   1.640   0.637
   36SOL     OW  127   0.598   0.729   0.270
   36SOL    HW1  128   0.622   0.798   0.202
   36SOL    HW2  129   0.520   0.762   0.324
   37SOL     OW  130   1.281   0.345   0.944
   37SOL    HW1  131   1.195   0.295   0.931
   37SOL    HW2  132   1.343   0.291   1.000
   38SOL     OW  133   1.576   1.662   0.307
   38SOL    HW1  134   1.665   1.708   0.310
   38SOL    HW2  135   1.555   1.638   0.212
   39SOL     OW  136   0.807   0.605   1.465
   39SOL    HW1  137   0.760   0.602   1.554
   39SOL    HW2  138   0.756   0.550   1.399
   40SOL     OW  139   1.394   0.469   1.674
   40SOL    HW1  140   1.374   0.512   1.762
   40SOL    HW2  141   1.472   0.407   1.683
   41SOL     OW  142   0.973   0.890   1.572
   41SOL    HW1  143   1.019   0.806   1.543
   41SOL    HW2  144   0.917   0.924   1.497
   42SOL     OW  145   0.991   0.410   1.242
   42SOL    HW1  146   0.914   0.444   1.296
   42SOL    HW2  147   0.957   0.359   1.163
   43SOL     OW  148   1.041   0.701   0.429
   43SOL    HW1  149   1.067   0.697   0.525
   43SOL    HW2  150   0.956   0.650   0.415
   44SOL     OW  151   0.076   0.811   0.789
   44SOL    HW1  152   0.175   0.799   0.798
   44SOL    HW2  153   0.052   0.906   0.810
   45SOL     OW  154   0.130   1.821   1.571
   45SOL    HW1  155   0.120   1.806   1.670
   45SOL    HW2  156   0.044   1.857   1.535
   46SOL     OW  157   0.865   0.348   0.195
   46SOL    HW1  158   0.924   0.411   0.146
   46SOL    HW2  159   0.884   0.254   0.166
   47SOL     OW  160   1.719   0.585   1.831
   47SOL    HW1  161   1.693   0.674   1.795
   47SOL    HW2  162   1.717   0.517   1.758
   48SOL     OW  163   1.362   1.144   0.545
   48SOL    HW1  164   1.445   1.115   0.497
   48SOL    HW2  165   1.313   1.211   0.489
   49SOL     OW  166   0.550   0.196   0.885
   49SOL    HW1  167   0.545   0.191   0.985
   49SOL    HW2  168   0.552   0.292   0.856
   50SOL     OW  169   1.008   1.456   0.477
   50SOL    HW1  170   0.962   1.528   0.425
   50SOL    HW2  171   1.004   1.476   0.575
   51SOL     OW  172   0.351   1.801   0.853
   51SOL    HW1  173   0.401   1.715   0.859
   51SOL    HW2  174   0.416   1.878   0.850
   52SOL     OW  175   1.795   1.066   0.873
   52SOL    HW1  176   1.733   1.051   0.797
   52SOL    HW2  177   1.743   1.077   0.958
   53SOL     OW  178   0.321   0.943   0.242
   53SOL    HW1  179   0.403   0.982   0.200
   53SOL    HW2  180   0.294   0.861   0.193
   54SOL     OW  181   1.458   0.735   0.728
   54SOL    HW1  182   1.453   0.670   0.803
   54SOL    HW2  183   1.538   0.794   0.741
   55SOL     OW  184   0.461   1.266   1.727
   55SOL    HW1  185   0.411   1.267   1.641
   55SOL    HW2  186   0.398   1.248   1.803
   56SOL     OW  187   1.111   1.776   0.237
   56SOL    HW1  188   1.051   1.714   0.287
   56SOL    HW2  189   1.142   1.732   0.152
   57SOL     OW  190   0.202   0.285   1.498
   57SOL    HW1  191   0.122   0.345   1.485
   57SOL    HW2  192   0.192   0.236   1.584
   58SOL     OW  193   1.632   1.377   0.081
   58SOL    HW1  194   1.600   1.471   0.071
   58SOL    HW2  195   1.556   1.314   0.069
   59SOL     OW  196   0.464   1.743   0.323
   59SOL    HW1  197   0.497   1.782   0.409
   59SOL    HW2  198   0.540   1.736   0.258
   60SOL     OW  199   1.400   0.107   0.426
   60SOL    HW1  200   1.376   0.070   0.336
   60SOL    HW2  201   1.499   0.123   0.430
   61SOL     OW  202   0.249   1.785   1.241
   61SOL    HW1  203   0.306   1.720   1.291
   61SOL    HW2  204   0.233   1.752   1.148
   62SOL     OW  205   0.940   1.698   0.904
   62SOL    HW1  206   1.020   1.641   0.925
   62SOL    HW2  207   0.891   1.658   0.827
   63SOL     OW  208   0.382   0.700   0.480
   63SOL    HW1  209   0.427   0.610   0.477
   63SOL    HW2  210   0.288   0.689   0.513
   64SOL     OW  211   1.547   0.222   1.729
   64SOL    HW1  212   1.542   0.259   1.821
   64SOL    HW2  213   1.475   0.153   1.717
   65SOL     OW  214   0.614   0.122   0.117
   65SOL    HW1  215   0.712   0.100   0.124
   65SOL    HW2  216   0.583   0.105   0.024
   66SOL     OW  217   0.781   0.264   1.749
   66SOL    HW1  218   0.848   0.203   1.792
   66SOL    HW2  219   0.708   0.283   1.814
   67SOL     OW  220   0.888   1.514   1.195
   67SOL    HW1  221   0.865   1.489   1.101
   67SOL    HW2  222   0.949   1.445   1.234
   68SOL     OW  223   1.351   0.590   1.433
   68SOL    HW1  224   1.379   0.547   1.518
   68SOL    HW2  225   1.376   0.686   1.434
   69SOL     OW  226   0.803   1.402   0.924
   69SOL    HW1  227   0.893   1.416   0.882
   69SOL    HW2  228   0.732   1.404   0.853
   70SOL     OW  229   0.922   0.503   0.899
   70SOL    HW1  230   0.897   0.494   0.803
   70SOL    HW2  231   0.970   0.421   0.930
   71SOL     OW  232   0.539   0.064   0.512
   71SOL    HW1  233   0.458   0.065   0.570
   71SOL    HW2  234   0.542   0.147   0.457
   72SOL     OW  235   1.434   1.188   0.041
   72SOL    HW1  236   1.466   1.112   0.098
   72SOL    HW2  237   1.342   1.215   0.071
   73SOL     OW  238   0.297   0.035   0.171
   73SOL    HW1  239   0.346   0.119   0.150
   73SOL    HW2  240   0.359  -0.030   0.216
   74SOL     OW  241   0.935   0.236   0.480
   74SOL    HW1  242   0.887   0.277   0.402
   74SOL    HW2  243   1.034   0.234   0.461
   75SOL     OW  244   1.076   0.683   1.464
   75SOL    HW1  245   0.996   0.622   1.467
   75SOL    HW2  246   1.157   0.630   1.440
   76SOL     OW  247   1.227   1.570   0.793
   76SOL    HW1  248   1.248   1.644   0.728
   76SOL    HW2  249   1.295   1.570   0.866
   77SOL     OW  250   0.459   1.152   0.741
   77SOL    HW1  251   0.388   1.125   0.806
   77SOL    HW2  252   0.433   1.124   0.648
   78SOL     OW  253   1.271   1.797   0.591
   78SOL    HW1  254   1.315   1.861   0.527
   78SOL    HW2  255   1.221   1.849   0.661
   79SOL     OW  256   1.032   0.549   0.016
   79SOL    HW1  257   0.991   0.631  -0.023
   79SOL    HW2  258   1.096   0.575   0.089
   80SOL     OW  259   0.078   0.556   1.386
   80SOL    HW1  260   0.170   0.555   1.345
   80SOL    HW2  261   0.072   0.630   1.453
   81SOL     OW  262   0.561   0.222   1.147
   81SOL    HW1  263   0.599   0.138   1.184
   81SOL    HW2  264   0.473   0.241   1.191
   82SOL     OW  265   0.866   0.454   0.642
   82SOL    HW1  266   0.834   0.526   0.580
   82SOL    HW2  267   0.890   0.373   0.589
   83SOL     OW  268   1.017   0.039   0.753
   83SOL    HW1  269   0.945   0.044   0.684
   83SOL    HW2  270   0.993  -0.030   0.822
   84SOL     OW  271   1.429   1.173   0.867
   84SOL    HW1  272   1.374   1.089   0.860
   84SOL    HW2  273   1.455   1.202   0.775
   85SOL     OW  274   1.466   0.590   0.992
   85SOL    HW1  275   1.436   0.495   0.999
   85SOL    HW2  276   1.539   0.606   1.058
   86SOL     OW  277   1.857   0.833   0.377
   86SOL    HW1  278   1.899   0.769   0.441
   86SOL    HW2  279   1.819   0.782   0.299
   87SOL     OW  280   0.488   1.385   0.174
   87SOL    HW1  281   0.401   1.370   0.221
   87SOL    HW2  282   0.471   1.411   0.079
   88SOL     OW  283   1.664   1.280   0.657
   88SOL    HW1  284   1.763   1.288   0.671
   88SOL    HW2  285   1.619   1.364   0.688
   89SOL     OW  286   1.390   0.575   0.078
   89SOL    HW1  287   1.336   0.554   0.159
   89SOL    HW2  288   1.481   0.534   0.087
   90SOL     OW  289   0.527   0.256   0.328
   90SOL    HW1  290   0.554   0.197   0.253
   90SOL    HW2  291   0.527   0.351   0.297
   91SOL     OW  292   1.754   1.223   1.588
   91SOL    HW1  293   1.845   1.184   1.575
   91SOL    HW2  294   1.762   1.319   1.612
   92SOL     OW  295   1.592   1.629   1.625
   92SOL    HW1  296   1.619   1.663   1.535
   92SOL    HW2  297   1.671   1.591   1.671
   93SOL     OW  298   1.111   1.195   1.100
   93SOL    HW1  299   1.071   1.239   1.181
   93SOL    HW2  300   1.070   1.232   1.017
   94SOL     OW  301   0.915   0.089   1.402
   94SOL    HW1  302   0.940   0.069   1.307
   94SOL    HW2  303   0.987   0.145   1.444
   95SOL     OW  304   0.980   1.116   1.719
   95SOL    HW1  305   0.881   1.122   1.729
   95SOL    HW2  306   1.003   1.036   1.663
   96SOL     OW  307   0.705   1.050   0.368
   96SOL    HW1  308   0.691   1.057   0.467
   96SOL    HW2  309   0.789   0.999   0.350
   97SOL     OW  310   0.410   0.813   1.251
   97SOL    HW1  311   0.496   0.825   1.301
   97SOL    HW2  312   0.368   0.726   1.278
   98SOL     OW  313   1.274   0.386   1.262
   98SOL    HW1  314   1.295   0.460   1.326
   98SOL    HW2  315   1.185   0.403   1.219
   99SOL     OW  316   0.064   1.564   1.331
   99SOL    HW1  317   0.018   1.646   1.297
   99SOL    HW2  318   0.162   1.583   1.340
  100SOL     OW  319   0.367   1.100   0.501
  100SOL    HW1  320   0.360   1.183   0.445
  100SOL    HW2  321   0.371   1.020   0.441
  101SOL     OW  322   0.566   0.537   0.865
  101SOL    HW1  323   0.578   0.603   0.791
  101SOL    HW2  324   0.612   0.571   0.948
  102SOL     OW  325   1.252   1.348   0.388
  102SOL    HW1  326   1.302   1.425   0.428
  102SOL    HW2  327   1.157   1.350   0.420
  103SOL     OW  328   1.582   0.639   0.472
  103SOL    HW1  329   1.551   0.700   0.545
  103SOL    HW2  330   1.632   0.691   0.403
  104SOL     OW  331   0.354   1.510   1.329
  104SOL    HW1  332   0.333   1.466   1.242
  104SOL    HW2  333   0.451   1.536   1.332
  105SOL     OW  334   0.402   0.751   1.598
  105SOL    HW1  335   0.470   0.806   1.551
  105SOL    HW2  336   0.442   0.663   1.625
  106SOL     OW  337   1.587   0.779   1.670
  106SOL    HW1  338   1.495   0.817   1.665
  106SOL    HW2  339   1.647   0.826   1.605
  107SOL     OW  340   1.013   0.105   1.770
  107SOL    HW1  341   1.019   0.190   1.718
  107SOL    HW2  342   1.045   0.029   1.713
  108SOL     OW  343   0.504   0.050   1.740
  108SOL    HW1  344   0.462  -0.007   1.670
  108SOL    HW2  345   0.438   0.119   1.772
  109SOL     OW  346   0.573   0.870   1.029
  109SOL    HW1  347   0.617   0.959   1.020
  109SOL    HW2  348   0.510   0.870   1.106
  110SOL     OW  349   1.360   0.862   1.045
  110SOL    HW1  350   1.285   0.862   0.979
  110SOL    HW2  351   1.397   0.770   1.054
  111SOL     OW  352   1.209   0.525   0.275
  111SOL    HW1  353   1.222   0.441   0.329
  111SOL    HW2  354   1.180   0.599   0.335
  112SOL     OW  355   0.307   0.213   1.231
  112SOL    HW1  356   0.284   0.250   1.321
  112SOL    HW2  357   0.277   0.118   1.225
  113SOL     OW  358   0.037   1.310   1.282
  113SOL    HW1  359   0.090   1.261   1.350
  113SOL    HW2  360   0.059   1.408   1.287
  114SOL     OW  361   0.732   0.634   1.064
  114SOL    HW1  362   0.791   0.608   0.988
  114SOL    HW2  363   0.704   0.730   1.053
  115SOL     OW  364   1.728   0.935   1.854
  115SOL    HW1  365   1.682   0.928   1.765
  115SOL    HW2  366   1.666   0.979   1.920
  116SOL     OW  367   0.307   0.063   0.618
  116SOL    HW1  368   0.296   0.157   0.651
  116SOL    HW2  369   0.302   0.000   0.695
  117SOL     OW  370   1.622   0.367   0.374
  117SOL    HW1  371   1.624   0.291   0.438
  117SOL    HW2  372   1.574   0.444   0.414
  118SOL     OW  373   1.023   0.766   0.966
  118SOL    HW1  374   1.038   0.787   1.062
  118SOL    HW2  375   0.993   0.671   0.957
  119SOL     OW  376   0.980   1.573   1.700
  119SOL    HW1  377   0.960   1.617   1.612
  119SOL    HW2  378   1.019   1.482   1.684
  120SOL     OW  379   1.859   1.518   1.605
  120SOL    HW1  380   1.873   1.545   1.510
  120SOL    HW2  381   1.942   1.540   1.658
  121SOL     OW  382   0.350   0.898   1.804
  121SOL    HW1  383   0.426   0.942   1.852
  121SOL    HW2  384   0.385   0.851   1.722
  122SOL     OW  385   1.540   0.274   0.125
  122SOL    HW1  386   1.479   0.199   0.148
  122SOL    HW2  387   1.562   0.326   0.208
  123SOL     OW  388   1.303   0.838   0.042
  123SOL    HW1  389   1.337   0.745   0.057
  123SOL    HW2  390   1.321   0.865  -0.053
  124SOL     OW  391   1.068   1.333   0.849
  124SOL    HW1  392   1.075   1.249   0.794
  124SOL    HW2  393   1.130   1.402   0.813
  125SOL     OW  394   0.319   0.810   0.949
  125SOL    HW1  395   0.412   0.846   0.954
  125SOL    HW2  396   0.313   0.725   1.001
  126SOL     OW  397   0.339   0.509   1.006
  126SOL    HW1  398   0.287   0.426   0.989
  126SOL    HW2  399   0.416   0.514   0.942
  127SOL     OW  400   1.138   0.380   1.678
  127SOL    HW1  401   1.093   0.443   1.742
  127SOL    HW2  402   1.231   0.411   1.661
  128SOL     OW  403   1.160   0.207   1.477
  128SOL    HW1  404   1.160   0.271   1.554
  128SOL    HW2  405   1.188   0.255   1.394
  129SOL     OW  406   0.008   1.326   0.200
  129SOL    HW1  407  -0.085   1.347   0.169
  129SOL    HW2  408   0.018   1.227   0.213
  130SOL     OW  409   0.088   1.801   0.927
  130SOL    HW1  410   0.046   1.715   0.900
  130SOL    HW2  411   0.182   1.804   0.893
  131SOL     OW  412   0.504   1.568   0.910
  131SOL    HW1  413   0.570   1.642   0.919
  131SOL    HW2  414   0.548   1.489   0.868
  132SOL     OW  415   1.002   0.796   1.238
  132SOL    HW1  416   1.043   0.764   1.324
  132SOL    HW2  417   0.906   0.769   1.235
  133SOL     OW  418   0.040   0.544   1.114
  133SOL    HW1  419   0.125   0.511   1.073
  133SOL    HW2  420   0.053   0.559   1.212
  134SOL     OW  421   0.189   0.520   1.722
  134SOL    HW1  422   0.248   0.480   1.652
  134SOL    HW2  423   0.131   0.591   1.681
  135SOL     OW  424   1.369   0.950   1.660
  135SOL    HW1  425   1.408   1.039   1.680
  135SOL    HW2  426   1.379   0.930   1.563
  136SOL     OW  427   0.815   0.572   0.325
  136SOL    HW1  428   0.822   0.483   0.279
  136SOL    HW2  429   0.721   0.606   0.317
  137SOL     OW  430   1.657   0.604   1.206
  137SOL    HW1  431   1.619   0.535   1.268
  137SOL    HW2  432   1.739   0.568   1.162
  138SOL     OW  433   0.252   1.564   1.744
  138SOL    HW1  434   0.222   1.621   1.820
  138SOL    HW2  435   0.245   1.467   1.770
  139SOL     OW  436   0.671   0.464   1.269
  139SOL    HW1  437   0.637   0.375   1.239
  139SOL    HW2  438   0.697   0.518   1.189
  140SOL     OW  439   0.930   1.678   1.465
  140SOL    HW1  440   0.906   1.660   1.370
  140SOL    HW2  441   0.960   1.772   1.475
  141SOL     OW  442   0.473   0.500   0.191
  141SOL    HW1  443   0.534   0.580   0.195
  141SOL    HW2  444   0.378   0.531   0.198
  142SOL     OW  445   0.159   1.137   1.466
  142SOL    HW1  446   0.181   1.076   1.542
  142SOL    HW2  447   0.169   1.088   1.380
  143SOL     OW  448   1.302   0.855   0.309
  143SOL    HW1  449   1.216   0.824   0.351
  143SOL    HW2  450   1.298   0.841   0.210
  144SOL     OW  451   1.759   1.747   1.154
  144SOL    HW1  452   1.820   1.777   1.081
  144SOL    HW2  453   1.721   1.658   1.132
  145SOL     OW  454   1.252   1.731   1.128
  145SOL    HW1  455   1.336   1.736   1.074
  145SOL    HW2  456   1.229   1.635   1.146
  146SOL     OW  457   0.083   1.258   1.022
  146SOL    HW1  458   0.078   1.257   1.122
  146SOL    HW2  459   0.000   1.217   0.984
  147SOL     OW  460   0.688   1.662   1.716
  147SOL    HW1  461   0.632   1.743   1.725
  147SOL    HW2  462   0.740   1.666   1.630
  148SOL     OW  463   0.903   0.086   0.133
  148SOL    HW1  464   0.954   0.087   0.047
  148SOL    HW2  465   0.959   0.044   0.204
  149SOL     OW  466   1.726   0.135   0.523
  149SOL    HW1  467   1.799   0.118   0.456
  149SOL    HW2  468   1.695   0.048   0.561
  150SOL     OW  469   1.388   1.573   0.477
  150SOL    HW1  470   1.455   1.585   0.403
  150SOL    HW2  471   1.348   1.662   0.500
  151SOL     OW  472   0.130   1.794   1.851
  151SOL    HW1  473   0.089   1.720   1.904
  151SOL    HW2  474   0.194   1.845   1.909
  152SOL     OW  475   1.280   0.927   0.672
  152SOL    HW1  476   1.340   0.846   0.674
  152SOL    HW2  477   1.320   0.996   0.612
  153SOL     OW  478   0.830   1.273   1.422
  153SOL    HW1  479   0.825   1.306   1.517
  153SOL    HW2  480   0.744   1.292   1.376
  154SOL     OW  481   0.672   1.616   0.154
  154SOL    HW1  482   0.681   1.626   0.055
  154SOL    HW2  483   0.632   1.527   0.175
  155SOL     OW  484   1.650   1.720   1.394
  155SOL    HW1  485   1.703   1.730   1.310
  155SOL    HW2  486   1.623   1.810   1.428
  156SOL     OW  487   1.841   0.175   0.963
  156SOL    HW1  488   1.880   0.090   0.927
  156SOL    HW2  489   1.743   0.177   0.944
  157SOL     OW  490   0.263   0.326   0.720
  157SOL    HW1  491   0.184   0.377   0.686
  157SOL    HW2  492   0.254   0.311   0.818
  158SOL     OW  493   1.194   1.612   0.031
  158SOL    HW1  494   1.200   1.519   0.068
  158SOL    HW2  495   1.135   1.612  -0.049
  159SOL     OW  496   0.822   1.002   1.372
  159SOL    HW1  497   0.862   1.001   1.280
  159SOL    HW2  498   0.832   1.094   1.412
  160SOL     OW  499   0.916   0.910   0.291
  160SOL    HW1  500   0.979   0.948   0.223
  160SOL    HW2  501   0.956   0.827   0.330
  161SOL     OW  502   1.504   1.607   0.044
  161SOL    HW1  503   1.412   1.644   0.051
  161SOL    HW2  504   1.542   1.627  -0.046
  162SOL     OW  505   0.372   1.288   1.490
  162SOL    HW1  506   0.359   1.381   1.456
  162SOL    HW2  507   0.288   1.236   1.477
  163SOL     OW  508   1.039   1.098   0.696
  163SOL    HW1  509   0.969   1.051   0.750
  163SOL    HW2  510   1.098   1.030   0.653
  164SOL     OW  511   1.014   0.236   0.971
  164SOL    HW1  512   1.006   0.200   0.878
  164SOL    HW2  513   1.012   0.160   1.036
  165SOL     OW  514   0.590   1.487   0.491
  165SOL    HW1  515   0.632   1.429   0.421
  165SOL    HW2  516   0.546   1.566   0.447
  166SOL     OW  517   1.709   0.385   1.381
  166SOL    HW1  518   1.782   0.454   1.385
  166SOL    HW2  519   1.737   0.310   1.322
  167SOL     OW  520   0.255   1.348   0.290
  167SOL    HW1  521   0.159   1.349   0.263
  167SOL    HW2  522   0.267   1.401   0.374
  168SOL     OW  523   0.105   1.013   1.726
  168SOL    HW1  524   0.028   0.980   1.780
  168SOL    HW2  525   0.190   0.983   1.768
  169SOL     OW  526   0.672   0.203   1.489
  169SOL    HW1  527   0.762   0.187   1.449
  169SOL    HW2  528   0.680   0.208   1.588
  170SOL     OW  529   0.075   0.345   0.033
  170SOL    HW1  530  -0.017   0.317   0.004
  170SOL    HW2  531   0.106   0.422  -0.023
  171SOL     OW  532   1.440   0.856   1.398
  171SOL    HW1  533   1.383   0.908   1.335
  171SOL    HW2  534   1.536   0.868   1.374
  172SOL     OW  535   0.072   0.166   0.318
  172SOL    HW1  536   0.055   0.249   0.264
  172SOL    HW2  537   0.162   0.129   0.296
  173SOL     OW  538   1.183   1.335   0.119
  173SOL    HW1  539   1.084   1.324   0.121
  173SOL    HW2  540   1.217   1.350   0.212
  174SOL     OW  541   0.613   0.842   1.431
  174SOL    HW1  542   0.669   0.923   1.414
  174SOL    HW2  543   0.672   0.762   1.434
  175SOL     OW  544   1.493   1.767   0.959
  175SOL    HW1  545   1.526   1.831   0.890
  175SOL    HW2  546   1.559   1.761   1.034
  176SOL     OW  547   0.716   0.565   1.708
  176SOL    HW1  548   0.735   0.630   1.782
  176SOL    HW2  549   0.776   0.485   1.717
  177SOL     OW  550   1.450   1.220   1.633
  177SOL    HW1  551   1.441   1.210   1.732
  177SOL    HW2  552   1.546   1.213   1.607
  178SOL     OW  553   0.390   1.741   1.560
  178SOL    HW1  554   0.299   1.782   1.558
  178SOL    HW2  555   0.383   1.647   1.592
  179SOL     OW  556   1.674   0.883   1.254
  179SOL    HW1  557   1.647   0.794   1.217
  179SOL    HW2  558   1.675   0.951   1.181
  180SOL     OW  559   1.225   0.325   0.449
  180SOL    HW1  560   1.290   0.251   0.438
  180SOL    HW2  561   1.245   0.375   0.533
  181SOL     OW  562   0.594   0.745   0.652
  181SOL    HW1  563   0.644   0.830   0.633
  181SOL    HW2  564   0.506   0.747   0.604
  182SOL     OW  565   1.777   0.342   1.642
  182SOL    HW1  566   1.760   0.373   1.548
  182SOL    HW2  567   1.693   0.305   1.680
  183SOL     OW  568   1.730   0.934   1.517
  183SOL    HW1  569   1.768   1.025   1.532
  183SOL    HW2  570   1.722   0.917   1.418
  184SOL     OW  571   0.859   1.374   0.016
  184SOL    HW1  572   0.813   1.389   0.104
  184SOL    HW2  573   0.903   1.459  -0.014
  185SOL     OW  574   0.661   1.790   0.953
  185SOL    HW1  575   0.615   1.878   0.940
  185SOL    HW2  576   0.760   1.802   0.946
  186SOL     OW  577   0.859   0.956   0.861
  186SOL    HW1  578   0.913   0.887   0.909
  186SOL    HW2  579   0.827   1.025   0.927
  187SOL     OW  580   1.083   0.984   0.087
  187SOL    HW1  581   1.060   1.037   0.005
  187SOL    HW2  582   1.164   0.928   0.068
  188SOL     OW  583   1.861   1.569   0.851
  188SOL    HW1  584   1.790   1.557   0.781
  188SOL    HW2  585   1.862   1.490   0.911
  189SOL     OW  586   0.221   1.314   1.844
  189SOL    HW1  587   0.156   1.241   1.823
  189SOL    HW2  588   0.225   1.328   1.942
  190SOL     OW  589   0.079   1.240   0.653
  190SOL    HW1  590   0.078   1.193   0.741
  190SOL    HW2  591   0.161   1.212   0.602
  191SOL     OW  592   0.672   1.391   1.624
  191SOL    HW1  593   0.594   1.341   1.662
  191SOL    HW2  594   0.669   1.486   1.655
  192SOL     OW  595   1.824   0.192   1.227
  192SOL    HW1  596   1.820   0.102   1.271
  192SOL    HW2  597   1.827   0.181   1.128
  193SOL     OW  598   0.428   0.424   0.520
  193SOL    HW1  599   0.458   0.352   0.458
  193SOL    HW2  600   0.389   0.384   0.603
  194SOL     OW  601   1.705   1.487   1.104
  194SOL    HW1  602   1.612   1.462   1.077
  194SOL    HW2  603   1.731   1.437   1.186
  195SOL     OW  604   0.317   0.547   1.280
  195SOL    HW1  605   0.355   0.488   1.352
  195SOL    HW2  606   0.357   0.521   1.192
  196SOL     OW  607   0.812   1.586   0.687
  196SOL    HW1  608   0.844   1.596   0.593
  196SOL    HW2  609   0.733   1.524   0.689
  197SOL     OW  610   1.424   0.214   1.112
  197SOL    HW1  611   1.476   0.149   1.167
  197SOL    HW2  612   1.375   0.277   1.173
  198SOL     OW  613   1.001   0.034   1.154
  198SOL    HW1  614   0.938  -0.038   1.123
  198SOL    HW2  615   1.094  -0.002   1.154
  199SOL     OW  616   0.770   1.330   0.301
  199SOL    HW1  617   0.724   1.243   0.318
  199SOL    HW2  618   0.861   1.327   0.342
  200SOL     OW  619   0.618   1.567   1.284
  200SOL    HW1  620   0.613   1.649   1.341
  200SOL    HW2  621   0.707   1.564   1.239
  201SOL     OW  622   1.352   0.052   0.168
  201SOL    HW1  623   1.387   0.011   0.084
  201SOL    HW2  624   1.262   0.014   0.188
  202SOL     OW  625   1.300   0.453   0.691
  202SOL    HW1  626   1.241   0.533   0.695
  202SOL    HW2  627   1.315   0.418   0.784
  203SOL     OW  628   1.593   0.221   0.882
  203SOL    HW1  629   1.509   0.220   0.936
  203SOL    HW2  630   1.595   0.304   0.826
  204SOL     OW  631   0.039   1.077   0.300
  204SOL    HW1  632   0.138   1.066   0.291
  204SOL    HW2  633  -0.001   0.991   0.332
  205SOL     OW  634   0.875   1.646   0.337
  205SOL    HW1  635   0.798   1.611   0.283
  205SOL    HW2  636   0.843   1.717   0.399
  206SOL     OW  637   0.230   0.628   1.975
  206SOL    HW1  638   0.137   0.626   2.012
  206SOL    HW2  639   0.231   0.589   1.883
  207SOL     OW  640   0.225   0.275   2.858
  207SOL    HW1  641   0.260   0.258   2.950
  207SOL    HW2  642   0.137   0.230   2.846
  208SOL     OW  643   0.019   0.368   2.509
  208SOL    HW1  644  -0.063   0.411   2.548
  208SOL    HW2  645  -0.009   0.295   2.446
  209SOL     OW  646   1.555   1.511   2.565
  209SOL    HW1  647   1.498   1.495   2.646
  209SOL    HW2  648   1.496   1.521   2.485
  210SOL     OW  649   1.135   0.703   2.579
  210SOL    HW1  650   1.192   0.781   2.554
  210SOL    HW2  651   1.075   0.729   2.655
  211SOL     OW  652   1.755   0.607   2.093
  211SOL    HW1  653   1.743   0.594   1.994
  211SOL    HW2  654   1.725   0.526   2.142
  212SOL     OW  655   0.685   1.012   2.527
  212SOL    HW1  656   0.754   0.996   2.597
  212SOL    HW2  657   0.612   1.069   2.565
  213SOL     OW  658   1.603   0.447   2.599
  213SOL    HW1  659   1.529   0.493   2.549
  213SOL    HW2  660   1.654   0.515   2.652
  214SOL     OW  661   0.231   1.713   2.345
  214SOL    HW1  662   0.265   1.790   2.399
  214SOL    HW2  663   0.275   1.713   2.255
  215SOL     OW  664   0.230   1.434   2.400
  215SOL    HW1  665   0.204   1.530   2.400
  215SOL    HW2  666   0.159   1.380   2.445
  216SOL     OW  667   0.240   1.091   2.748
  216SOL    HW1  668   0.254   1.007   2.800
  216SOL    HW2  669   0.185   1.155   2.803
  217SOL     OW  670   0.606   0.964   1.985
  217SOL    HW1  671   0.613   1.048   1.931
  217SOL    HW2  672   0.652   0.977   2.073
  218SOL     OW  673   0.122   0.643   2.425
  218SOL    HW1  674   0.077   0.555   2.442
  218SOL    HW2  675   0.121   0.697   2.509
  219SOL     OW  676   1.842   1.767   2.221
  219SOL    HW1  677   1.896   1.738   2.301
  219SOL    HW2  678   1.872   1.857   2.192
  220SOL     OW  679   0.027   1.596   1.979
  220SOL    HW1  680   0.008   1.500   2.000
  220SOL    HW2  681  -0.006   1.654   2.054
  221SOL     OW  682   1.689   0.922   2.474
  221SOL    HW1  683   1.784   0.893   2.482
  221SOL    HW2  684   1.681   0.987   2.399
  222SOL     OW  685   1.641   1.108   2.294
  222SOL    HW1  686   1.727   1.110   2.242
  222SOL    HW2  687   1.655   1.155   2.382
  223SOL     OW  688   0.613   1.365   2.588
  223SOL    HW1  689   0.564   1.278   2.597
  223SOL    HW2  690   0.590   1.408   2.501
  224SOL     OW  691   0.809   0.004   2.364
  224SOL    HW1  692   0.849   0.095   2.355
  224SOL    HW2  693   0.709   0.012   2.370
  225SOL     OW  694   1.525   0.999   2.052
  225SOL    HW1  695   1.462   0.923   2.065
  225SOL    HW2  696   1.573   1.017   2.138
  226SOL     OW  697   1.667   1.714   2.434
  226SOL    HW1  698   1.626   1.691   2.346
  226SOL    HW2  699   1.649   1.640   2.499
  227SOL     OW  700   0.598   0.729   2.132
  227SOL    HW1  701   0.622   0.798   2.064
  227SOL    HW2  702   0.520   0.762   2.186
  228SOL     OW  703   1.281   0.345   2.806
  228SOL    HW1  704   1.195   0.295   2.793
  228SOL    HW2  705   1.343   0.291   2.862
  229SOL     OW  706   1.576   1.662   2.169
  229SOL    HW1  707   1.665   1.708   2.172
  229SOL    HW2  708   1.555   1.638   2.074
  230SOL     OW  709   1.041   0.701   2.291
  230SOL    HW1  710   1.067   0.697   2.387
  230SOL    HW2  711   0.956   0.650   2.277
  231SOL     OW  712   0.076   0.811   2.651
  231SOL    HW1  713   0.175   0.799   2.660
  231SOL    HW2  714   0.052   0.906   2.672
  232SOL     OW  715   0.865   0.348   2.057
  232SOL    HW1  716   0.924   0.411   2.008
  232SOL    HW2  717   0.884   0.254   2.028
  233SOL     OW  718   1.362   1.144   2.407
  233SOL    HW1  719   1.445   1.115   2.359
  233SOL    HW2  720   1.313   1.211   2.351
  234SOL     OW  721   1.008   1.456   2.339
  234SOL    HW1  722   0.962   1.528   2.287
  234SOL    HW2  723   1.004   1.476   2.437
  235SOL     OW  724   0.351   1.801   2.715
  235SOL    HW1  725   0.401   1.715   2.721
  235SOL    HW2  726   0.416   1.878   2.712
  236SOL     OW  727   1.795   1.066   2.735
  236SOL    HW1  728   1.733   1.051   2.659
  236SOL    HW2  729   1.743   1.077   2.820
  237SOL     OW  730   0.321   0.943   2.104
  237SOL    HW1  731   0.403   0.982   2.062
  237SOL    HW2  732   0.294   0.861   2.055
  238SOL     OW  733   1.458   0.735   2.590
  238SOL    HW1  734   1.453   0.670   2.665
  238SOL    HW2  735   1.538   0.794   2.603
  239SOL     OW  736   1.111   1.776   2.099
  239SOL    HW1  737   1.051   1.714   2.149
  239SOL    HW2  738   1.142   1.732   2.014
  240SOL     OW  739   1.632   1.377   1.943
  240SOL    HW1  740   1.600   1.471   1.933
  240SOL    HW2  741   1.556   1.314   1.931
  241SOL     OW  742   0.464   1.743   2.185
  241SOL    HW1  743   0.497   1.782   2.271
  241SOL    HW2  744   0.540   1.736   2.120
  242SOL     OW  745   1.400   0.107   2.288
  242SOL    HW1  746   1.376   0.070   2.198
  242SOL    HW2  747   1.499   0.123   2.292
  243SOL     OW  748   0.940   1.698   2.766
  243SOL    HW1  749   1.020   1.641   2.787
  243SOL    HW2  750   0.891   1.658   2.689
  244SOL     OW  751   0.382   0.700   2.342
  244SOL    HW1  752   0.427   0.610   2.339
  244SOL    HW2  753   0.288   0.689   2.375
  245SOL     OW  754   0.614   0.122   1.979
  245SOL    HW1  755   0.712   0.100   1.986
  245SOL    HW2  756   0.583   0.105   1.886
  246SOL     OW  757   0.539   0.064   2.374
  246SOL    HW1  758   0.458   0.065   2.432
  246SOL    HW2  759   0.542   0.147   2.319
  247SOL     OW  760   1.434   1.188   1.903
  247SOL    HW1  761   1.466   1.112   1.960
  247SOL    HW2  762   1.342   1.215   1.933
  248SOL     OW  763   0.297   0.035   2.033
  248SOL    HW1  764   0.346   0.119   2.012
  248SOL    HW2  765   0.359  -0.030   2.078
  249SOL     OW  766   0.935   0.236   2.342
  249SOL    HW1  767   0.887   0.277   2.264
  249SOL    HW2  768   1.034   0.234   2.323
  250SOL     OW  769   0.459   1.152   2.603
  250SOL    HW1  770   0.388   1.125   2.668
  250SOL    HW2  771   0.433   1.124   2.510
  251SOL     OW  772   1.271   1.797   2.453
  251SOL    HW1  773   1.315   1.861   2.389
  251SOL    HW2  774   1.221   1.849   2.523
  252SOL     OW  775   1.032   0.549   1.878
  252SOL    HW1  776   0.991   0.631   1.839
  252SOL    HW2  777   1.096   0.575   1.951
  253SOL     OW  778   0.866   0.454   2.504
  253SOL    HW1  779   0.834   0.526   2.442
  253SOL    HW2  780   0.890   0.373   2.451
  254SOL     OW  781   1.017   0.039   2.615
  254SOL    HW1  782   0.945   0.044   2.546
  254SOL    HW2  783   0.993  -0.030   2.684
  255SOL     OW  784   1.857   0.833   2.239
  255SOL    HW1  785   1.899   0.769   2.303
  255SOL    HW2  786   1.819   0.782   2.161
  256SOL     OW  787   0.488   1.385   2.036
  256SOL    HW1  788   0.401   1.370   2.083
  256SOL    HW2  789   0.471   1.411   1.941
  257SOL     OW  790   1.664   1.280   2.519
  257SOL    HW1  791   1.763   1.288   2.533
  257SOL    HW2  792   1.619   1.364   2.550
  258SOL     OW  793   1.390   0.575   1.940
  258SOL    HW1  794   1.336   0.554   2.021
  258SOL    HW2  795   1.481   0.534   1.949
  259SOL     OW  796   0.527   0.256   2.190
  259SOL    HW1  797   0.554   0.197   2.115
  259SOL    HW2  798   0.527   0.351   2.159
  260SOL     OW  799   0.705   1.050   2.230
  260SOL    HW1  800   0.691   1.057   2.329
  260SOL    HW2  801   0.789   0.999   2.212
  261SOL     OW  802   0.367   1.100   2.363
  261SOL    HW1  803   0.360   1.183   2.307
  261SOL    HW2  804   0.371   1.020   2.303
  262SOL     OW  805   1.252   1.348   2.250
  262SOL    HW1  806   1.302   1.425   2.290
  262SOL    HW2  807   1.157   1.350   2.282
  263SOL     OW  808   1.582   0.639   2.334
  263SOL    HW1  809   1.551   0.700   2.407
  263SOL    HW2  810   1.632   0.691   2.265
  264SOL     OW  811   1.209   0.525   2.137
  264SOL    HW1  812   1.222   0.441   2.191
  264SOL    HW2  813   1.180   0.599   2.197
  265SOL     OW  814   0.307   0.063   2.480
  265SOL    HW1  815   0.296   0.157   2.513
  265SOL    HW2  816   0.302   0.000   2.557
  266SOL     OW  817   1.622   0.367   2.236
  266SOL    HW1  818   1.624   0.291   2.300
  266SOL    HW2  819   1.574   0.444   2.276
  267SOL     OW  820   1.540   0.274   1.987
  267SOL    HW1  821   1.479   0.199   2.010
  267SOL    HW2  822   1.562   0.326   2.070
  268SOL     OW  823   1.303   0.838   1.904
  268SOL    HW1  824   1.337   0.745   1.919
  268SOL    HW2  825   1.321   0.865   1.809
  269SOL     OW  826   0.008   1.326   2.062
  269SOL    HW1  827  -0.085   1.347   2.031
  269SOL    HW2  828   0.018   1.227   2.075
  270SOL     OW  829   0.815   0.572   2.187
  270SOL    HW1  830   0.822   0.483   2.141
  270SOL    HW2  831   0.721   0.606   2.179
  271SOL     OW  832   0.473   0.500   2.053
  271SOL    HW1  833   0.534   0.580   2.057
  271SOL    HW2  834   0.378   0.531   2.060
  272SOL     OW  835   1.302   0.855   2.171
  272SOL    HW1  836   1.216   0.824   2.213
  272SOL    HW2  837   1.298   0.841   2.072
  273SOL     OW  838   1.726   0.135   2.385
  273SOL    HW1  839   1.799   0.118   2.318
  273SOL    HW2  840   1.695   0.048   2.423
  274SOL     OW  841   1.388   1.573   2.339
  274SOL    HW1  842   1.455   1.585   2.265
  274SOL    HW2  843   1.348   1.662   2.362
  275SOL     OW  844   1.280   0.927   2.534
  275SOL    HW1  845   1.340   0.846   2.536
  275SOL    HW2  846   1.320   0.996   2.474
  276SOL     OW  847   0.672   1.616   2.016
  276SOL    HW1  848   0.681   1.626   1.917
  276SOL    HW2  849   0.632   1.527   2.037
  277SOL     OW  850   1.841   0.175   2.825
  277SOL    HW1  851   1.880   0.090   2.789
  277SOL    HW2  852   1.743   0.177   2.806
  278SOL     OW  853   0.263   0.326   2.582
  278SOL    HW1  854   0.184   0.377   2.548
  278SOL    HW2  855   0.254   0.311   2.680
  279SOL     OW  856   1.194   1.612   1.893
  279SOL    HW1  857   1.200   1.519   1.930
  279SOL    HW2  858   1.135   1.612   1.813
  280SOL     OW  859   0.916   0.910   2.153
  280SOL    HW1  860   0.979   0.948   2.085
  280SOL    HW2  861   0.956   0.827   2.192
  281SOL     OW  862   1.504   1.607   1.906
  281SOL    HW1  863   1.412   1.644   1.913
  281SOL    HW2  864   1.542   1.627   1.816
  282SOL     OW  865   1.039   1.098   2.558
  282SOL    HW1  866   0.969   1.051   2.612
  282SOL    HW2  867   1.098   1.030   2.515
  283SOL     OW  868   0.590   1.487   2.353
  283SOL    HW1  869   0.632   1.429   2.283
  283SOL    HW2  870   0.546   1.566   2.309
  284SOL     OW  871   0.255   1.348   2.152
  284SOL    HW1  872   0.159   1.349   2.125
  284SOL    HW2  873   0.267   1.401   2.236
  285SOL     OW  874   0.075   0.345   1.895
  285SOL    HW1  875  -0.017   0.317   1.866
  285SOL    HW2  876   0.106   0.422   1.839
  286SOL     OW  877   0.072   0.166   2.180
  286SOL    HW1  878   0.055   0.249   2.126
  286SOL    HW2  879   0.162   0.129   2.158
  287SOL     OW  880   1.183   1.335   1.981
  287SOL    HW1  881   1.084   1.324   1.983
  287SOL    HW2  882   1.217   1.350   2.074
  288SOL     OW  883   1.225   0.325   2.311
  288SOL    HW1  884   1.290   0.251   2.300
  288SOL    HW2  885   1.245   0.375   2.395
  289SOL     OW  886   0.594   0.745   2.514
  289SOL    HW1  887   0.644   0.830   2.495
  289SOL    HW2  888   0.506   0.747   2.466
  290SOL     OW  889   0.859   1.374   1.878
  290SOL    HW1  890   0.813   1.389   1.966
  290SOL    HW2  891   0.903   1.459   1.848
  291SOL     OW  892   0.661   1.790   2.815
  291SOL    HW1  893   0.615   1.878   2.802
  291SOL    HW2  894   0.760   1.802   2.808
  292SOL     OW  895   0.859   0.956   2.723
  292SOL    HW1  896   0.913   0.887   2.771
  292SOL    HW2  897   0.827   1.025   2.789
  293SOL     OW  898   1.083   0.984   1.949
  293SOL    HW1  899   1.060   1.037   1.867
  293SOL    HW2  900   1.164   0.928   1.930
  294SOL     OW  901   0.079   1.240   2.515
  294SOL    HW1  902   0.078   1.193   2.603
  294SOL    HW2  903   0.161   1.212   2.464
  295SOL     OW  904   0.428   0.424   2.382
  295SOL    HW1  905   0.458   0.352   2.320
  295SOL    HW2  906   0.389   0.384   2.465
  296SOL     OW  907   1.705   1.487   2.966
  296SOL    HW1  908   1.612   1.462   2.939
  296SOL    HW2  909   1.731   1.437   3.048
  297SOL     OW  910   0.812   1.586   2.549
  297SOL    HW1  911   0.844   1.596   2.455
  297SOL    HW2  912   0.733   1.524   2.551
  298SOL     OW  913   0.770   1.330   2.163
  298SOL    HW1  914   0.724   1.243   2.180
  298SOL    HW2  915   0.861   1.327   2.204
  299SOL     OW  916   1.352   0.052   2.030
  299SOL    HW1  917   1.387   0.011   1.946
  299SOL    HW2  918   1.262   0.014   2.050
  300SOL     OW  919   1.300   0.453   2.553
  300SOL    HW1  920   1.241   0.533   2.557
  300SOL    HW2  921   1.315   0.418   2.646
  301SOL     OW  922   0.039   1.077   2.162
  301SOL    HW1  923   0.138   1.066   2.153
  301SOL    HW2  924  -0.001   0.991   2.194
  302SOL     OW  925   0.875   1.646   2.199
  302SOL    HW1  926   0.798   1.611   2.145
  302SOL    HW2  927   0.843   1.717   2.261
  303SOL     OW  928   0.230   2.490   0.113
  303SOL    HW1  929   0.137   2.488   0.150
  303SOL    HW2  930   0.231   2.451   0.021
  304SOL     OW  931   0.225   2.137   0.996
  304SOL    HW1  932   0.260   2.120   1.088
  304SOL    HW2  933   0.137   2.092   0.984
  305SOL     OW  934   0.019   2.230   0.647
  305SOL    HW1  935  -0.063   2.273   0.686
  305SOL    HW2  936  -0.009   2.157   0.584
  306SOL     OW  937   1.755   2.469   0.231
  306SOL    HW1  938   1.743   2.456   0.132
  306SOL    HW2  939   1.725   2.388   0.280
  307SOL     OW  940   0.850   2.660   1.823
  307SOL    HW1  941   0.846   2.736   1.888
  307SOL    HW2  942   0.872   2.696   1.732
  308SOL     OW  943   0.685   2.874   0.665
  308SOL    HW1  944   0.754   2.858   0.735
  308SOL    HW2  945   0.612   2.931   0.703
  309SOL     OW  946   0.438   2.254   1.499
  309SOL    HW1  947   0.520   2.198   1.508
  309SOL    HW2  948   0.357   2.196   1.503
  310SOL     OW  949   1.603   2.309   0.737
  310SOL    HW1  950   1.529   2.355   0.687
  310SOL    HW2  951   1.654   2.377   0.790
  311SOL     OW  952   1.594   1.976   1.480
  311SOL    HW1  953   1.576   2.043   1.408
  311SOL    HW2  954   1.591   2.022   1.569
  312SOL     OW  955   0.122   2.505   0.563
  312SOL    HW1  956   0.077   2.417   0.580
  312SOL    HW2  957   0.121   2.559   0.647
  313SOL     OW  958   0.113   2.599   1.597
  313SOL    HW1  959   0.201   2.586   1.642
  313SOL    HW2  960   0.100   2.696   1.575
  314SOL     OW  961   0.809   1.866   0.502
  314SOL    HW1  962   0.849   1.957   0.493
  314SOL    HW2  963   0.709   1.874   0.508
  315SOL     OW  964   0.317   2.113   1.801
  315SOL    HW1  965   0.388   2.184   1.807
  315SOL    HW2  966   0.229   2.152   1.829
  316SOL     OW  967   0.598   2.591   0.270
  316SOL    HW1  968   0.622   2.660   0.202
  316SOL    HW2  969   0.520   2.624   0.324
  317SOL     OW  970   1.281   2.207   0.944
  317SOL    HW1  971   1.195   2.157   0.931
  317SOL    HW2  972   1.343   2.153   1.000
  318SOL     OW  973   0.807   2.467   1.465
  318SOL    HW1  974   0.760   2.464   1.554
  318SOL    HW2  975   0.756   2.412   1.399
  319SOL     OW  976   1.394   2.331   1.674
  319SOL    HW1  977   1.374   2.374   1.762
  319SOL    HW2  978   1.472   2.269   1.683
  320SOL     OW  979   0.991   2.272   1.242
  320SOL    HW1  980   0.914   2.306   1.296
  320SOL    HW2  981   0.957   2.221   1.163
  321SOL     OW  982   1.041   2.563   0.429
  321SOL    HW1  983   1.067   2.559   0.525
  321SOL    HW2  984   0.956   2.512   0.415
  322SOL     OW  985   0.076   2.673   0.789
  322SOL    HW1  986   0.175   2.661   0.798
  322SOL    HW2  987   0.052   2.768   0.810
  323SOL     OW  988   0.865   2.210   0.195
  323SOL    HW1  989   0.924   2.273   0.146
  323SOL    HW2  990   0.884   2.116   0.166
  324SOL     OW  991   1.719   2.447   1.831
  324SOL    HW1  992   1.693   2.536   1.795
  324SOL    HW2  993   1.717   2.379   1.758
  325SOL     OW  994   0.550   2.058   0.885
  325SOL    HW1  995   0.545   2.053   0.985
  325SOL    HW2  996   0.552   2.154   0.856
  326SOL     OW  997   1.458   2.597   0.728
  326SOL    HW1  998   1.453   2.532   0.803
  326SOL    HW2  999   1.538   2.656   0.741
  327SOL     OW 1000   0.202   2.147   1.498
  327SOL    HW1 1001   0.122   2.207   1.485
  327SOL    HW2 1002   0.192   2.098   1.584
  328SOL     OW 1003   1.400   1.969   0.426
  328SOL    HW1 1004   1.376   1.932   0.336
  328SOL    HW2 1005   1.499   1.985   0.430
  329SOL     OW 1006   0.382   2.562   0.480
  329SOL    HW1 1007   0.427   2.472   0.477
  329SOL    HW2 1008   0.288   2.551   0.513
  330SOL     OW 1009   1.547   2.084   1.729
  330SOL    HW1 1010   1.542   2.121   1.821
  330SOL    HW2 1011   1.475   2.015   1.717
  331SOL     OW 1012   0.781   2.126   1.749
  331SOL    HW1 1013   0.848   2.065   1.792
  331SOL    HW2 1014   0.708   2.145   1.814
  332SOL     OW 1015   1.351   2.452   1.433
  332SOL    HW1 1016   1.379   2.409   1.518
  332SOL    HW2 1017   1.376   2.548   1.434
  333SOL     OW 1018   0.922   2.365   0.899
  333SOL    HW1 1019   0.897   2.356   0.803
  333SOL    HW2 1020   0.970   2.283   0.930
  334SOL     OW 1021   0.539   1.926   0.512
  334SOL    HW1 1022   0.458   1.927   0.570
  334SOL    HW2 1023   0.542   2.009   0.457
  335SOL     OW 1024   0.297   1.897   0.171
  335SOL    HW1 1025   0.346   1.981   0.150
  335SOL    HW2 1026   0.359   1.832   0.216
  336SOL     OW 1027   0.935   2.098   0.480
  336SOL    HW1 1028   0.887   2.139   0.402
  336SOL    HW2 1029   1.034   2.096   0.461
  337SOL     OW 1030   1.076   2.545   1.464
  337SOL    HW1 1031   0.996   2.484   1.467
  337SOL    HW2 1032   1.157   2.492   1.440
  338SOL     OW 1033   1.032   2.411   0.016
  338SOL    HW1 1034   0.991   2.493  -0.023
  338SOL    HW2 1035   1.096   2.437   0.089
  339SOL     OW 1036   0.078   2.418   1.386
  339SOL    HW1 1037   0.170   2.417   1.345
  339SOL    HW2 1038   0.072   2.492   1.453
  340SOL     OW 1039   0.561   2.084   1.147
  340SOL    HW1 1040   0.599   2.000   1.184
  340SOL    HW2 1041   0.473   2.103   1.191
  341SOL     OW 1042   0.866   2.316   0.642
  341SOL    HW1 1043   0.834   2.388   0.580
  341SOL    HW2 1044   0.890   2.235   0.589
  342SOL     OW 1045   1.017   1.901   0.753
  342SOL    HW1 1046   0.945   1.906   0.684
  342SOL    HW2 1047   0.993   1.832   0.822
  343SOL     OW 1048   1.466   2.452   0.992
  343SOL    HW1 1049   1.436   2.357   0.999
  343SOL    HW2 1050   1.539   2.468   1.058
  344SOL     OW 1051   1.857   2.695   0.377
  344SOL    HW1 1052   1.899   2.631   0.441
  344SOL    HW2 1053   1.819   2.644   0.299
  345SOL     OW 1054   1.390   2.437   0.078
  345SOL    HW1 1055   1.336   2.416   0.159
  345SOL    HW2 1056   1.481   2.396   0.087
  346SOL     OW 1057   0.527   2.118   0.328
  346SOL    HW1 1058   0.554   2.059   0.253
  346SOL    HW2 1059   0.527   2.213   0.297
  347SOL     OW 1060   0.915   1.951   1.402
  347SOL    HW1 1061   0.940   1.931   1.307
  347SOL    HW2 1062   0.987   2.007   1.444
  348SOL     OW 1063   0.705   2.912   0.368
  348SOL    HW1 1064   0.691   2.919   0.467
  348SOL    HW2 1065   0.789   2.861   0.350
  349SOL     OW 1066   0.410   2.675   1.251
  349SOL    HW1 1067   0.496   2.687   1.301
  349SOL    HW2 1068   0.368   2.588   1.278
  350SOL     OW 1069   1.274   2.248   1.262
  350SOL    HW1 1070   1.295   2.322   1.326
  350SOL    HW2 1071   1.185   2.265   1.219
  351SOL     OW 1072   0.566   2.399   0.865
  351SOL    HW1 1073   0.578   2.465   0.791
  351SOL    HW2 1074   0.612   2.433   0.948
  352SOL     OW 1075   1.582   2.501   0.472
  352SOL    HW1 1076   1.551   2.562   0.545
  352SOL    HW2 1077   1.632   2.553   0.403
  353SOL     OW 1078   1.587   2.641   1.670
  353SOL    HW1 1079   1.495   2.679   1.665
  353SOL    HW2 1080   1.647   2.688   1.605
  354SOL     OW 1081   1.013   1.967   1.770
  354SOL    HW1 1082   1.019   2.052   1.718
  354SOL    HW2 1083   1.045   1.891   1.713
  355SOL     OW 1084   0.504   1.912   1.740
  355SOL    HW1 1085   0.462   1.855   1.670
  355SOL    HW2 1086   0.438   1.981   1.772
  356SOL     OW 1087   1.360   2.724   1.045
  356SOL    HW1 1088   1.285   2.724   0.979
  356SOL    HW2 1089   1.397   2.632   1.054
  357SOL     OW 1090   1.209   2.387   0.275
  357SOL    HW1 1091   1.222   2.303   0.329
  357SOL    HW2 1092   1.180   2.461   0.335
  358SOL     OW 1093   0.307   2.075   1.231
  358SOL    HW1 1094   0.284   2.112   1.321
  358SOL    HW2 1095   0.277   1.980   1.225
  359SOL     OW 1096   0.732   2.496   1.064
  359SOL    HW1 1097   0.791   2.470   0.988
  359SOL    HW2 1098   0.704   2.592   1.053
  360SOL     OW 1099   1.728   2.797   1.854
  360SOL    HW1 1100   1.682   2.790   1.765
  360SOL    HW2 1101   1.666   2.841   1.920
  361SOL     OW 1102   0.307   1.925   0.618
  361SOL    HW1 1103   0.296   2.019   0.651
  361SOL    HW2 1104   0.302   1.862   0.695
  362SOL     OW 1105   1.622   2.229   0.374
  362SOL    HW1 1106   1.624   2.153   0.438
  362SOL    HW2 1107   1.574   2.306   0.414
  363SOL     OW 1108   1.540   2.136   0.125
  363SOL    HW1 1109   1.479   2.061   0.148
  363SOL    HW2 1110   1.562   2.188   0.208
  364SOL     OW 1111   0.319   2.672   0.949
  364SOL    HW1 1112   0.412   2.708   0.954
  364SOL    HW2 1113   0.313   2.587   1.001
  365SOL     OW 1114   0.339   2.371   1.006
  365SOL    HW1 1115   0.287   2.288   0.989
  365SOL    HW2 1116   0.416   2.376   0.942
  366SOL     OW 1117   1.138   2.242   1.678
  366SOL    HW1 1118   1.093   2.305   1.742
  366SOL    HW2 1119   1.231   2.273   1.661
  367SOL     OW 1120   1.160   2.069   1.477
  367SOL    HW1 1121   1.160   2.133   1.554
  367SOL    HW2 1122   1.188   2.117   1.394
  368SOL     OW 1123   0.040   2.406   1.114
  368SOL    HW1 1124   0.125   2.373   1.073
  368SOL    HW2 1125   0.053   2.421   1.212
  369SOL     OW 1126   0.189   2.382   1.722
  369SOL    HW1 1127   0.248   2.342   1.652
  369SOL    HW2 1128   0.131   2.453   1.681
  370SOL     OW 1129   0.815   2.434   0.325
  370SOL    HW1 1130   0.822   2.345   0.279
  370SOL    HW2 1131   0.721   2.468   0.317
  371SOL     OW 1132   1.657   2.466   1.206
  371SOL    HW1 1133   1.619   2.397   1.268
  371SOL    HW2 1134   1.739   2.430   1.162
  372SOL     OW 1135   0.671   2.326   1.269
  372SOL    HW1 1136   0.637   2.237   1.239
  372SOL    HW2 1137   0.697   2.380   1.189
  373SOL     OW 1138   0.473   2.362   0.191
  373SOL    HW1 1139   0.534   2.442   0.195
  373SOL    HW2 1140   0.378   2.393   0.198
  374SOL     OW 1141   0.903   1.948   0.133
  374SOL    HW1 1142   0.954   1.949   0.047
  374SOL    HW2 1143   0.959   1.906   0.204
  375SOL     OW 1144   1.726   1.997   0.523
  375SOL    HW1 1145   1.799   1.980   0.456
  375SOL    HW2 1146   1.695   1.910   0.561
  376SOL     OW 1147   1.280   2.789   0.672
  376SOL    HW1 1148   1.340   2.708   0.674
  376SOL    HW2 1149   1.320   2.858   0.612
  377SOL     OW 1150   1.841   2.037   0.963
  377SOL    HW1 1151   1.880   1.952   0.927
  377SOL    HW2 1152   1.743   2.039   0.944
  378SOL     OW 1153   0.263   2.188   0.720
  378SOL    HW1 1154   0.184   2.239   0.686
  378SOL    HW2 1155   0.254   2.173   0.818
  379SOL     OW 1156   1.014   2.098   0.971
  379SOL    HW1 1157   1.006   2.062   0.878
  379SOL    HW2 1158   1.012   2.022   1.036
  380SOL     OW 1159   1.709   2.247   1.381
  380SOL    HW1 1160   1.782   2.316   1.385
  380SOL    HW2 1161   1.737   2.172   1.322
  381SOL     OW 1162   0.105   2.875   1.726
  381SOL    HW1 1163   0.028   2.842   1.780
  381SOL    HW2 1164   0.190   2.845   1.768
  382SOL     OW 1165   0.672   2.065   1.489
  382SOL    HW1 1166   0.762   2.049   1.449
  382SOL    HW2 1167   0.680   2.070   1.588
  383SOL     OW 1168   0.075   2.207   0.033
  383SOL    HW1 1169  -0.017   2.179   0.004
  383SOL    HW2 1170   0.106   2.284  -0.023
  384SOL     OW 1171   1.440   2.718   1.398
  384SOL    HW1 1172   1.383   2.770   1.335
  384SOL    HW2 1173   1.536   2.730   1.374
  385SOL     OW 1174   0.072   2.028   0.318
  385SOL    HW1 1175   0.055   2.111   0.264
  385SOL    HW2 1176   0.162   1.991   0.296
  386SOL     OW 1177   0.613   2.704   1.431
  386SOL    HW1 1178   0.669   2.785   1.414
  386SOL    HW2 1179   0.672   2.624   1.434
  387SOL     OW 1180   0.716   2.427   1.708
  387SOL    HW1 1181   0.735   2.492   1.782
  387SOL    HW2 1182   0.776   2.347   1.717
  388SOL     OW 1183   1.674   2.745   1.254
  388SOL    HW1 1184   1.647   2.656   1.217
  388SOL    HW2 1185   1.675   2.813   1.181
  389SOL     OW 1186   1.225   2.187   0.449
  389SOL    HW1 1187   1.290   2.113   0.438
  389SOL    HW2 1188   1.245   2.237   0.533
  390SOL     OW 1189   0.594   2.607   0.652
  390SOL    HW1 1190   0.644   2.692   0.633
  390SOL    HW2 1191   0.506   2.609   0.604
  391SOL     OW 1192   1.777   2.204   1.642
  391SOL    HW1 1193   1.760   2.235   1.548
  391SOL    HW2 1194   1.693   2.167   1.680
  392SOL     OW 1195   1.824   2.054   1.227
  392SOL    HW1 1196   1.820   1.964   1.271
  392SOL    HW2 1197   1.827   2.043   1.128
  393SOL     OW 1198   0.428   2.286   0.520
  393SOL    HW1 1199   0.458   2.214   0.458
  393SOL    HW2 1200   0.389   2.246   0.603
  394SOL     OW 1201   0.317   2.409   1.280
  394SOL    HW1 1202   0.355   2.350   1.352
  394SOL    HW2 1203   0.357   2.383   1.192
  395SOL     OW 1204   1.424   2.076   1.112
  395SOL    HW1 1205   1.476   2.011   1.167
  395SOL    HW2 1206   1.375   2.139   1.173
  396SOL     OW 1207   1.001   1.896   1.154
  396SOL    HW1 1208   0.938   1.824   1.123
  396SOL    HW2 1209   1.094   1.860   1.154
  397SOL     OW 1210   1.352   1.914   0.168
  397SOL    HW1 1211   1.387   1.873   0.084
  397SOL    HW2 1212   1.262   1.876   0.188
  398SOL     OW 1213   1.300   2.315   0.691
  398SOL    HW1 1214   1.241   2.395   0.695
  398SOL    HW2 1215   1.315   2.280   0.784
  399SOL     OW 1216   1.593   2.083   0.882
  399SOL    HW1 1217   1.509   2.082   0.936
  399SOL    HW2 1218   1.595   2.166   0.826
  400SOL     OW 1219   0.230   2.490   1.975
  400SOL    HW1 1220   0.137   2.488   2.012
  400SOL    HW2 1221   0.231   2.451   1.883
  401SOL     OW 1222   0.225   2.137   2.858
  401SOL    HW1 1223   0.260   2.120   2.950
  401SOL    HW2 1224   0.137   2.092   2.846
  402SOL     OW 1225   0.019   2.230   2.509
  402SOL    HW1 1226  -0.063   2.273   2.548
  402SOL    HW2 1227  -0.009   2.157   2.446
  403SOL     OW 1228   1.755   2.469   2.093
  403SOL    HW1 1229   1.743   2.456   1.994
  403SOL    HW2 1230   1.725   2.388   2.142
  404SOL     OW 1231   0.685   2.874   2.527
  404SOL    HW1 1232   0.754   2.858   2.597
  404SOL    HW2 1233   0.612   2.931   2.565
  405SOL     OW 1234   1.603   2.309   2.599
  405SOL    HW1 1235   1.529   2.355   2.549
  405SOL    HW2 1236   1.654   2.377   2.652
  406SOL     OW 1237   0.122   2.505   2.425
  406SOL    HW1 1238   0.077   2.417   2.442
  406SOL    HW2 1239   0.121   2.559   2.509
  407SOL     OW 1240   0.809   1.866   2.364
  407SOL    HW1 1241   0.849   1.957   2.355
  407SOL    HW2 1242   0.709   1.874   2.370
  408SOL     OW 1243   0.598   2.591   2.132
  408SOL    HW1 1244   0.622   2.660   2.064
  408SOL    HW2 1245   0.520   2.624   2.186
  409SOL     OW 1246   1.281   2.207   2.806
  409SOL    HW1 1247   1.195   2.157   2.793
  409SOL    HW2 1248   1.343   2.153   2.862
  410SOL     OW 1249   1.041   2.563   2.291
  410SOL    HW1 1250   1.067   2.559   2.387
  410SOL    HW2 1251   0.956   2.512   2.277
  411SOL     OW 1252   0.076   2.673   2.651
  411SOL    HW1 1253   0.175   2.661   2.660
  411SOL    HW2 1254   0.052   2.768   2.672
  412SOL     OW 1255   0.865   2.210   2.057
  412SOL    HW1 1256   0.924   2.273   2.008
  412SOL    HW2 1257   0.884   2.116   2.028
  413SOL     OW 1258   1.458   2.597   2.590
  413SOL    HW1 1259   1.453   2.532   2.665
  413SOL    HW2 1260   1.538   2.656   2.603
  414SOL     OW 1261   1.400   1.969   2.288
  414SOL    HW1 1262   1.376   1.932   2.198
  414SOL    HW2 1263   1.499   1.985   2.292
  415SOL     OW 1264   0.382   2.562   2.342
  415SOL    HW1 1265   0.427   2.472   2.339
  415SOL    HW2 1266   0.288   2.551   2.375
  416SOL     OW 1267   0.614   1.984   1.979
  416SOL    HW1 1268   0.712   1.962   1.986
  416SOL    HW2 1269   0.583   1.967   1.886
  417SOL     OW 1270   0.539   1.926   2.374
  417SOL    HW1 1271   0.458   1.927   2.432
  417SOL    HW2 1272   0.542   2.009   2.319
  418SOL     OW 1273   0.297   1.897   2.033
  418SOL    HW1 1274   0.346   1.981   2.012
  418SOL    HW2 1275   0.359   1.832   2.078
  419SOL     OW 1276   0.935   2.098   2.342
  419SOL    HW1 1277   0.887   2.139   2.264
  419SOL    HW2 1278   1.034   2.096   2.323
  420SOL     OW 1279   1.032   2.411   1.878
  420SOL    HW1 1280   0.991   2.493   1.839
  420SOL    HW2 1281   1.096   2.437   1.951
  421SOL     OW 1282   0.866   2.316   2.504
  421SOL    HW1 1283   0.834   2.388   2.442
  421SOL    HW2 1284   0.890   2.235   2.451
  422SOL     OW 1285   1.017   1.901   2.615
  422SOL    HW1 1286   0.945   1.906   2.546
  422SOL    HW2 1287   0.993   1.832   2.684
  423SOL     OW 1288   1.857   2.695   2.239
  423SOL    HW1 1289   1.899   2.631   2.303
  423SOL    HW2 1290   1.819   2.644   2.161
  424SOL     OW 1291   1.390   2.437   1.940
  424SOL    HW1 1292   1.336   2.416   2.021
  424SOL    HW2 1293   1.481   2.396   1.949
  425SOL     OW 1294   0.527   2.118   2.190
  425SOL    HW1 1295   0.554   2.059   2.115
  425SOL    HW2 1296   0.527   2.213   2.159
  426SOL     OW 1297   0.705   2.912   2.230
  426SOL    HW1 1298   0.691   2.919   2.329
  426SOL    HW2 1299   0.789   2.861   2.212
  427SOL     OW 1300   1.582   2.501   2.334
  427SOL    HW1 1301   1.551   2.562   2.407
  427SOL    HW2 1302   1.632   2.553   2.265
  428SOL     OW 1303   1.209   2.387   2.137
  428SOL    HW1 1304   1.222   2.303   2.191
  428SOL    HW2 1305   1.180   2.461   2.197
  429SOL     OW 1306   0.307   1.925   2.480
  429SOL    HW1 1307   0.296   2.019   2.513
  429SOL    HW2 1308   0.302   1.862   2.557
  430SOL     OW 1309   1.622   2.229   2.236
  430SOL    HW1 1310   1.624   2.153   2.300
  430SOL    HW2 1311   1.574   2.306   2.276
  431SOL     OW 1312   1.540   2.136   1.987
  431SOL    HW1 1313   1.479   2.061   2.010
  431SOL    HW2 1314   1.562   2.188   2.070
  432SOL     OW 1315   0.815   2.434   2.187
  432SOL    HW1 1316   0.822   2.345   2.141
  432SOL    HW2 1317   0.721   2.468   2.179
  433SOL     OW 1318   0.473   2.362   2.053
  433SOL    HW1 1319   0.534   2.442   2.057
  433SOL    HW2 1320   0.378   2.393   2.060
  434SOL     OW 1321   1.726   1.997   2.385
  434SOL    HW1 1322   1.799   1.980   2.318
  434SOL    HW2 1323   1.695   1.910   2.423
  435SOL     OW 1324   1.280   2.789   2.534
  435SOL    HW1 1325   1.340   2.708   2.536
  435SOL    HW2 1326   1.320   2.858   2.474
  436SOL     OW 1327   1.841   2.037   2.825
  436SOL    HW1 1328   1.880   1.952   2.789
  436SOL    HW2 1329   1.743   2.039   2.806
  437SOL     OW 1330   0.263   2.188   2.582
  437SOL    HW1 1331   0.184   2.239   2.548
  437SOL    HW2 1332   0.254   2.173   2.680
  438SOL     OW 1333   0.916   2.772   2.153
  438SOL    HW1 1334   0.979   2.810   2.085
  438SOL    HW2 1335   0.956   2.689   2.192
  439SOL     OW 1336   1.039   2.960   2.558
  439SOL    HW1 1337   0.969   2.913   2.612
  439SOL    HW2 1338   1.098   2.892   2.515
  440SOL     OW 1339   0.075   2.207   1.895
  440SOL    HW1 1340  -0.017   2.179   1.866
  440SOL    HW2 1341   0.106   2.284   1.839
  441SOL     OW 1342   0.072   2.028   2.180
  441SOL    HW1 1343   0.055   2.111   2.126
  441SOL    HW2 1344   0.162   1.991   2.158
  442SOL     OW 1345   1.225   2.187   2.311
  442SOL    HW1 1346   1.290   2.113   2.300
  442SOL    HW2 1347   1.245   2.237   2.395
  443SOL     OW 1348   0.594   2.607   2.514
  443SOL    HW1 1349   0.644   2.692   2.495
  443SOL    HW2 1350   0.506   2.609   2.466
  444SOL     OW 1351   0.428   2.286   2.382
  444SOL    HW1 1352   0.458   2.214   2.320
  444SOL    HW2 1353   0.389   2.246   2.465
  445SOL     OW 1354   1.352   1.914   2.030
  445SOL    HW1 1355   1.387   1.873   1.946
  445SOL    HW2 1356   1.262   1.876   2.050
  446SOL     OW 1357   1.300   2.315   2.553
  446SOL    HW1 1358   1.241   2.395   2.557
  446SOL    HW2 1359   1.315   2.280   2.646
  447SOL     OW 1360   2.092   0.628   0.113
  447SOL    HW1 1361   1.999   0.626   0.150
  447SOL    HW2 1362   2.093   0.589   0.021
  448SOL     OW 1363   2.087   0.275   0.996
  448SOL    HW1 1364   2.122   0.258   1.088
  448SOL    HW2 1365   1.999   0.230   0.984
  449SOL     OW 1366   1.881   0.368   0.647
  449SOL    HW1 1367   1.799   0.411   0.686
  449SOL    HW2 1368   1.853   0.295   0.584
  450SOL     OW 1369   2.431   1.275   1.165
  450SOL    HW1 1370   2.338   1.268   1.128
  450SOL    HW2 1371   2.442   1.364   1.209
  451SOL     OW 1372   2.712   0.798   1.823
  451SOL    HW1 1373   2.708   0.874   1.888
  451SOL    HW2 1374   2.734   0.834   1.732
  452SOL     OW 1375   2.547   1.012   0.665
  452SOL    HW1 1376   2.616   0.996   0.735
  452SOL    HW2 1377   2.474   1.069   0.703
  453SOL     OW 1378   2.548   1.161   1.803
  453SOL    HW1 1379   2.608   1.240   1.817
  453SOL    HW2 1380   2.462   1.192   1.762
  454SOL     OW 1381   2.197   1.435   1.061
  454SOL    HW1 1382   2.119   1.404   1.008
  454SOL    HW2 1383   2.255   1.493   1.004
  455SOL     OW 1384   2.300   0.392   1.499
  455SOL    HW1 1385   2.382   0.336   1.508
  455SOL    HW2 1386   2.219   0.334   1.503
  456SOL     OW 1387   2.093   1.713   0.483
  456SOL    HW1 1388   2.127   1.790   0.537
  456SOL    HW2 1389   2.137   1.713   0.393
  457SOL     OW 1390   2.092   1.434   0.538
  457SOL    HW1 1391   2.066   1.530   0.538
  457SOL    HW2 1392   2.021   1.380   0.583
  458SOL     OW 1393   2.102   1.091   0.886
  458SOL    HW1 1394   2.116   1.007   0.938
  458SOL    HW2 1395   2.047   1.155   0.941
  459SOL     OW 1396   2.482   1.786   1.439
  459SOL    HW1 1397   2.390   1.769   1.474
  459SOL    HW2 1398   2.510   1.878   1.465
  460SOL     OW 1399   2.468   0.964   0.123
  460SOL    HW1 1400   2.475   1.048   0.069
  460SOL    HW2 1401   2.514   0.977   0.211
  461SOL     OW 1402   1.984   0.643   0.563
  461SOL    HW1 1403   1.939   0.555   0.580
  461SOL    HW2 1404   1.983   0.697   0.647
  462SOL     OW 1405   1.889   1.596   0.117
  462SOL    HW1 1406   1.870   1.500   0.138
  462SOL    HW2 1407   1.856   1.654   0.192
  463SOL     OW 1408   1.975   0.737   1.597
  463SOL    HW1 1409   2.063   0.724   1.642
  463SOL    HW2 1410   1.962   0.834   1.575
  464SOL     OW 1411   2.475   1.365   0.726
  464SOL    HW1 1412   2.426   1.278   0.735
  464SOL    HW2 1413   2.452   1.408   0.639
  465SOL     OW 1414   2.671   0.004   0.502
  465SOL    HW1 1415   2.711   0.095   0.493
  465SOL    HW2 1416   2.571   0.012   0.508
  466SOL     OW 1417   2.059   0.976   1.264
  466SOL    HW1 1418   2.148   0.931   1.250
  466SOL    HW2 1419   1.986   0.911   1.245
  467SOL     OW 1420   2.179   0.251   1.801
  467SOL    HW1 1421   2.250   0.322   1.807
  467SOL    HW2 1422   2.091   0.290   1.829
  468SOL     OW 1423   2.460   0.729   0.270
  468SOL    HW1 1424   2.484   0.798   0.202
  468SOL    HW2 1425   2.382   0.762   0.324
  469SOL     OW 1426   1.938   0.811   0.789
  469SOL    HW1 1427   2.037   0.799   0.798
  469SOL    HW2 1428   1.914   0.906   0.810
  470SOL     OW 1429   1.992   1.821   1.571
  470SOL    HW1 1430   1.982   1.806   1.670
  470SOL    HW2 1431   1.906   1.857   1.535
  471SOL     OW 1432   2.412   0.196   0.885
  471SOL    HW1 1433   2.407   0.191   0.985
  471SOL    HW2 1434   2.414   0.292   0.856
  472SOL     OW 1435   2.213   1.801   0.853
  472SOL    HW1 1436   2.263   1.715   0.859
  472SOL    HW2 1437   2.278   1.878   0.850
  473SOL     OW 1438   2.183   0.943   0.242
  473SOL    HW1 1439   2.265   0.982   0.200
  473SOL    HW2 1440   2.156   0.861   0.193
  474SOL     OW 1441   2.323   1.266   1.727
  474SOL    HW1 1442   2.273   1.267   1.641
  474SOL    HW2 1443   2.260   1.248   1.803
  475SOL     OW 1444   2.064   0.285   1.498
  475SOL    HW1 1445   1.984   0.345   1.485
  475SOL    HW2 1446   2.054   0.236   1.584
  476SOL     OW 1447   2.326   1.743   0.323
  476SOL    HW1 1448   2.359   1.782   0.409
  476SOL    HW2 1449   2.402   1.736   0.258
  477SOL     OW 1450   2.111   1.785   1.241
  477SOL    HW1 1451   2.168   1.720   1.291
  477SOL    HW2 1452   2.095   1.752   1.148
  478SOL     OW 1453   2.244   0.700   0.480
  478SOL    HW1 1454   2.289   0.610   0.477
  478SOL    HW2 1455   2.150   0.689   0.513
  479SOL     OW 1456   2.476   0.122   0.117
  479SOL    HW1 1457   2.574   0.100   0.124
  479SOL    HW2 1458   2.445   0.105   0.024
  480SOL     OW 1459   2.665   1.402   0.924
  480SOL    HW1 1460   2.755   1.416   0.882
  480SOL    HW2 1461   2.594   1.404   0.853
  481SOL     OW 1462   2.784   0.503   0.899
  481SOL    HW1 1463   2.759   0.494   0.803
  481SOL    HW2 1464   2.832   0.421   0.930
  482SOL     OW 1465   2.401   0.064   0.512
  482SOL    HW1 1466   2.320   0.065   0.570
  482SOL    HW2 1467   2.404   0.147   0.457
  483SOL     OW 1468   2.159   0.035   0.171
  483SOL    HW1 1469   2.208   0.119   0.150
  483SOL    HW2 1470   2.221  -0.030   0.216
  484SOL     OW 1471   2.321   1.152   0.741
  484SOL    HW1 1472   2.250   1.125   0.806
  484SOL    HW2 1473   2.295   1.124   0.648
  485SOL     OW 1474   1.940   0.556   1.386
  485SOL    HW1 1475   2.032   0.555   1.345
  485SOL    HW2 1476   1.934   0.630   1.453
  486SOL     OW 1477   2.423   0.222   1.147
  486SOL    HW1 1478   2.461   0.138   1.184
  486SOL    HW2 1479   2.335   0.241   1.191
  487SOL     OW 1480   2.350   1.385   0.174
  487SOL    HW1 1481   2.263   1.370   0.221
  487SOL    HW2 1482   2.333   1.411   0.079
  488SOL     OW 1483   2.389   0.256   0.328
  488SOL    HW1 1484   2.416   0.197   0.253
  488SOL    HW2 1485   2.389   0.351   0.297
  489SOL     OW 1486   2.777   0.089   1.402
  489SOL    HW1 1487   2.802   0.069   1.307
  489SOL    HW2 1488   2.849   0.145   1.444
  490SOL     OW 1489   2.272   0.813   1.251
  490SOL    HW1 1490   2.358   0.825   1.301
  490SOL    HW2 1491   2.230   0.726   1.278
  491SOL     OW 1492   1.926   1.564   1.331
  491SOL    HW1 1493   1.880   1.646   1.297
  491SOL    HW2 1494   2.024   1.583   1.340
  492SOL     OW 1495   2.229   1.100   0.501
  492SOL    HW1 1496   2.222   1.183   0.445
  492SOL    HW2 1497   2.233   1.020   0.441
  493SOL     OW 1498   2.428   0.537   0.865
  493SOL    HW1 1499   2.440   0.603   0.791
  493SOL    HW2 1500   2.474   0.571   0.948
  494SOL     OW 1501   2.216   1.510   1.329
  494SOL    HW1 1502   2.195   1.466   1.242
  494SOL    HW2 1503   2.313   1.536   1.332
  495SOL     OW 1504   2.264   0.751   1.598
  495SOL    HW1 1505   2.332   0.806   1.551
  495SOL    HW2 1506   2.304   0.663   1.625
  496SOL     OW 1507   2.366   0.050   1.740
  496SOL    HW1 1508   2.324  -0.007   1.670
  496SOL    HW2 1509   2.300   0.119   1.772
  497SOL     OW 1510   2.435   0.870   1.029
  497SOL    HW1 1511   2.479   0.959   1.020
  497SOL    HW2 1512   2.372   0.870   1.106
  498SOL     OW 1513   2.169   0.213   1.231
  498SOL    HW1 1514   2.146   0.250   1.321
  498SOL    HW2 1515   2.139   0.118   1.225
  499SOL     OW 1516   1.899   1.310   1.282
  499SOL    HW1 1517   1.952   1.261   1.350
  499SOL    HW2 1518   1.921   1.408   1.287
  500SOL     OW 1519   2.594   0.634   1.064
  500SOL    HW1 1520   2.653   0.608   0.988
  500SOL    HW2 1521   2.566   0.730   1.053
  501SOL     OW 1522   2.169   0.063   0.618
  501SOL    HW1 1523   2.158   0.157   0.651
  501SOL    HW2 1524   2.164   0.000   0.695
  502SOL     OW 1525   2.212   0.898   1.804
  502SOL    HW1 1526   2.288   0.942   1.852
  502SOL    HW2 1527   2.247   0.851   1.722
  503SOL     OW 1528   2.930   1.333   0.849
  503SOL    HW1 1529   2.937   1.249   0.794
  503SOL    HW2 1530   2.992   1.402   0.813
  504SOL     OW 1531   2.181   0.810   0.949
  504SOL    HW1 1532   2.274   0.846   0.954
  504SOL    HW2 1533   2.175   0.725   1.001
  505SOL     OW 1534   2.201   0.509   1.006
  505SOL    HW1 1535   2.149   0.426   0.989
  505SOL    HW2 1536   2.278   0.514   0.942
  506SOL     OW 1537   1.870   1.326   0.200
  506SOL    HW1 1538   1.777   1.347   0.169
  506SOL    HW2 1539   1.880   1.227   0.213
  507SOL     OW 1540   1.950   1.801   0.927
  507SOL    HW1 1541   1.908   1.715   0.900
  507SOL    HW2 1542   2.044   1.804   0.893
  508SOL     OW 1543   2.366   1.568   0.910
  508SOL    HW1 1544   2.432   1.642   0.919
  508SOL    HW2 1545   2.410   1.489   0.868
  509SOL     OW 1546   1.902   0.544   1.114
  509SOL    HW1 1547   1.987   0.511   1.073
  509SOL    HW2 1548   1.915   0.559   1.212
  510SOL     OW 1549   2.051   0.520   1.722
  510SOL    HW1 1550   2.110   0.480   1.652
  510SOL    HW2 1551   1.993   0.591   1.681
  511SOL     OW 1552   2.677   0.572   0.325
  511SOL    HW1 1553   2.684   0.483   0.279
  511SOL    HW2 1554   2.583   0.606   0.317
  512SOL     OW 1555   2.114   1.564   1.744
  512SOL    HW1 1556   2.084   1.621   1.820
  512SOL    HW2 1557   2.107   1.467   1.770
  513SOL     OW 1558   2.533   0.464   1.269
  513SOL    HW1 1559   2.499   0.375   1.239
  513SOL    HW2 1560   2.559   0.518   1.189
  514SOL     OW 1561   2.335   0.500   0.191
  514SOL    HW1 1562   2.396   0.580   0.195
  514SOL    HW2 1563   2.240   0.531   0.198
  515SOL     OW 1564   2.021   1.137   1.466
  515SOL    HW1 1565   2.043   1.076   1.542
  515SOL    HW2 1566   2.031   1.088   1.380
  516SOL     OW 1567   1.945   1.258   1.022
  516SOL    HW1 1568   1.940   1.257   1.122
  516SOL    HW2 1569   1.862   1.217   0.984
  517SOL     OW 1570   2.550   1.662   1.716
  517SOL    HW1 1571   2.494   1.743   1.725
  517SOL    HW2 1572   2.602   1.666   1.630
  518SOL     OW 1573   1.992   1.794   1.851
  518SOL    HW1 1574   1.951   1.720   1.904
  518SOL    HW2 1575   2.056   1.845   1.909
  519SOL     OW 1576   2.534   1.616   0.154
  519SOL    HW1 1577   2.543   1.626   0.055
  519SOL    HW2 1578   2.494   1.527   0.175
  520SOL     OW 1579   2.125   0.326   0.720
  520SOL    HW1 1580   2.046   0.377   0.686
  520SOL    HW2 1581   2.116   0.311   0.818
  521SOL     OW 1582   2.684   1.002   1.372
  521SOL    HW1 1583   2.724   1.001   1.280
  521SOL    HW2 1584   2.694   1.094   1.412
  522SOL     OW 1585   2.234   1.288   1.490
  522SOL    HW1 1586   2.221   1.381   1.456
  522SOL    HW2 1587   2.150   1.236   1.477
  523SOL     OW 1588   2.452   1.487   0.491
  523SOL    HW1 1589   2.494   1.429   0.421
  523SOL    HW2 1590   2.408   1.566   0.447
  524SOL     OW 1591   2.117   1.348   0.290
  524SOL    HW1 1592   2.021   1.349   0.263
  524SOL    HW2 1593   2.129   1.401   0.374
  525SOL     OW 1594   1.967   1.013   1.726
  525SOL    HW1 1595   1.890   0.980   1.780
  525SOL    HW2 1596   2.052   0.983   1.768
  526SOL     OW 1597   2.534   0.203   1.489
  526SOL    HW1 1598   2.624   0.187   1.449
  526SOL    HW2 1599   2.542   0.208   1.588
  527SOL     OW 1600   1.937   0.345   0.033
  527SOL    HW1 1601   1.845   0.317   0.004
  527SOL    HW2 1602   1.968   0.422  -0.023
  528SOL     OW 1603   1.934   0.166   0.318
  528SOL    HW1 1604   1.917   0.249   0.264
  528SOL    HW2 1605   2.024   0.129   0.296
  529SOL     OW 1606   2.475   0.842   1.431
  529SOL    HW1 1607   2.531   0.923   1.414
  529SOL    HW2 1608   2.534   0.762   1.434
  530SOL     OW 1609   2.578   0.565   1.708
  530SOL    HW1 1610   2.597   0.630   1.782
  530SOL    HW2 1611   2.638   0.485   1.717
  531SOL     OW 1612   2.252   1.741   1.560
  531SOL    HW1 1613   2.161   1.782   1.558
  531SOL    HW2 1614   2.245   1.647   1.592
  532SOL     OW 1615   2.456   0.745   0.652
  532SOL    HW1 1616   2.506   0.830   0.633
  532SOL    HW2 1617   2.368   0.747   0.604
  533SOL     OW 1618   2.523   1.790   0.953
  533SOL    HW1 1619   2.477   1.878   0.940
  533SOL    HW2 1620   2.622   1.802   0.946
  534SOL     OW 1621   2.083   1.314   1.844
  534SOL    HW1 1622   2.018   1.241   1.823
  534SOL    HW2 1623   2.087   1.328   1.942
  535SOL     OW 1624   1.941   1.240   0.653
  535SOL    HW1 1625   1.940   1.193   0.741
  535SOL    HW2 1626   2.023   1.212   0.602
  536SOL     OW 1627   2.534   1.391   1.624
  536SOL    HW1 1628   2.456   1.341   1.662
  536SOL    HW2 1629   2.531   1.486   1.655
  537SOL     OW 1630   2.290   0.424   0.520
  537SOL    HW1 1631   2.320   0.352   0.458
  537SOL    HW2 1632   2.251   0.384   0.603
  538SOL     OW 1633   2.179   0.547   1.280
  538SOL    HW1 1634   2.217   0.488   1.352
  538SOL    HW2 1635   2.219   0.521   1.192
  539SOL     OW 1636   2.674   1.586   0.687
  539SOL    HW1 1637   2.706   1.596   0.593
  539SOL    HW2 1638   2.595   1.524   0.689
  540SOL     OW 1639   2.863   0.034   1.154
  540SOL    HW1 1640   2.800  -0.038   1.123
  540SOL    HW2 1641   2.956  -0.002   1.154
  541SOL     OW 1642   2.480   1.567   1.284
  541SOL    HW1 1643   2.475   1.649   1.341
  541SOL    HW2 1644   2.569   1.564   1.239
  542SOL     OW 1645   1.901   1.077   0.300
  542SOL    HW1 1646   2.000   1.066   0.291
  542SOL    HW2 1647   1.861   0.991   0.332
  543SOL     OW 1648   2.092   0.628   1.975
  543SOL    HW1 1649   1.999   0.626   2.012
  543SOL    HW2 1650   2.093   0.589   1.883
  544SOL     OW 1651   2.087   0.275   2.858
  544SOL    HW1 1652   2.122   0.258   2.950
  544SOL    HW2 1653   1.999   0.230   2.846
  545SOL     OW 1654   1.881   0.368   2.509
  545SOL    HW1 1655   1.799   0.411   2.548
  545SOL    HW2 1656   1.853   0.295   2.446
  546SOL     OW 1657   2.547   1.012   2.527
  546SOL    HW1 1658   2.616   0.996   2.597
  546SOL    HW2 1659   2.474   1.069   2.565
  547SOL     OW 1660   2.093   1.713   2.345
  547SOL    HW1 1661   2.127   1.790   2.399
  547SOL    HW2 1662   2.137   1.713   2.255
  548SOL     OW 1663   2.092   1.434   2.400
  548SOL    HW1 1664   2.066   1.530   2.400
  548SOL    HW2 1665   2.021   1.380   2.445
  549SOL     OW 1666   2.102   1.091   2.748
  549SOL    HW1 1667   2.116   1.007   2.800
  549SOL    HW2 1668   2.047   1.155   2.803
  550SOL     OW 1669   2.468   0.964   1.985
  550SOL    HW1 1670   2.475   1.048   1.931
  550SOL    HW2 1671   2.514   0.977   2.073
  551SOL     OW 1672   1.984   0.643   2.425
  551SOL    HW1 1673   1.939   0.555   2.442
  551SOL    HW2 1674   1.983   0.697   2.509
  552SOL     OW 1675   1.889   1.596   1.979
  552SOL    HW1 1676   1.870   1.500   2.000
  552SOL    HW2 1677   1.856   1.654   2.054
  553SOL     OW 1678   2.475   1.365   2.588
  553SOL    HW1 1679   2.426   1.278   2.597
  553SOL    HW2 1680   2.452   1.408   2.501
  554SOL     OW 1681   2.671   0.004   2.364
  554SOL    HW1 1682   2.711   0.095   2.355
  554SOL    HW2 1683   2.571   0.012   2.370
  555SOL     OW 1684   2.460   0.729   2.132
  555SOL    HW1 1685   2.484   0.798   2.064
  555SOL    HW2 1686   2.382   0.762   2.186
  556SOL     OW 1687   1.938   0.811   2.651
  556SOL    HW1 1688   2.037   0.799   2.660
  556SOL    HW2 1689   1.914   0.906   2.672
  557SOL     OW 1690   2.213   1.801   2.715
  557SOL    HW1 1691   2.263   1.715   2.721
  557SOL    HW2 1692   2.278   1.878   2.712
  558SOL     OW 1693   2.183   0.943   2.104
  558SOL    HW1 1694   2.265   0.982   2.062
  558SOL    HW2 1695   2.156   0.861   2.055
  559SOL     OW 1696   2.326   1.743   2.185
  559SOL    HW1 1697   2.359   1.782   2.271
  559SOL    HW2 1698   2.402   1.736   2.120
  560SOL     OW 1699   2.244   0.700   2.342
  560SOL    HW1 1700   2.289   0.610   2.339
  560SOL    HW2 1701   2.150   0.689   2.375
  561SOL     OW 1702   2.476   0.122   1.979
  561SOL    HW1 1703   2.574   0.100   1.986
  561SOL    HW2 1704   2.445   0.105   1.886
  562SOL     OW 1705   2.401   0.064   2.374
  562SOL    HW1 1706   2.320   0.065   2.432
  562SOL    HW2 1707   2.404   0.147   2.319
  563SOL     OW 1708   2.159   0.035   2.033
  563SOL    HW1 1709   2.208   0.119   2.012
  563SOL    HW2 1710   2.221  -0.030   2.078
  564SOL     OW 1711   2.321   1.152   2.603
  564SOL    HW1 1712   2.250   1.125   2.668
  564SOL    HW2 1713   2.295   1.124   2.510
  565SOL     OW 1714   2.350   1.385   2.036
  565SOL    HW1 1715   2.263   1.370   2.083
  565SOL    HW2 1716   2.333   1.411   1.941
  566SOL     OW 1717   2.389   0.256   2.190
  566SOL    HW1 1718   2.416   0.197   2.115
  566SOL    HW2 1719   2.389   0.351   2.159
  567SOL     OW 1720   2.229   1.100   2.363
  567SOL    HW1 1721   2.222   1.183   2.307
  567SOL    HW2 1722   2.233   1.020   2.303
  568SOL     OW 1723   2.169   0.063   2.480
  568SOL    HW1 1724   2.158   0.157   2.513
  568SOL    HW2 1725   2.164   0.000   2.557
  569SOL     OW 1726   2.930   1.333   2.711
  569SOL    HW1 1727   2.937   1.249   2.656
  569SOL    HW2 1728   2.992   1.402   2.675
  570SOL     OW 1729   1.870   1.326   2.062
  570SOL    HW1 1730   1.777   1.347   2.031
  570SOL    HW2 1731   1.880   1.227   2.075
  571SOL     OW 1732   2.677   0.572   2.187
  571SOL    HW1 1733   2.684   0.483   2.141
  571SOL    HW2 1734   2.583   0.606   2.179
  572SOL     OW 1735   2.335   0.500   2.053
  572SOL    HW1 1736   2.396   0.580   2.057
  572SOL    HW2 1737   2.240   0.531   2.060
  573SOL     OW 1738   2.765   0.086   1.995
  573SOL    HW1 1739   2.816   0.087   1.909
  573SOL    HW2 1740   2.821   0.044   2.066
  574SOL     OW 1741   2.534   1.616   2.016
  574SOL    HW1 1742   2.543   1.626   1.917
  574SOL    HW2 1743   2.494   1.527   2.037
  575SOL     OW 1744   2.125   0.326   2.582
  575SOL    HW1 1745   2.046   0.377   2.548
  575SOL    HW2 1746   2.116   0.311   2.680
  576SOL     OW 1747   2.452   1.487   2.353
  576SOL    HW1 1748   2.494   1.429   2.283
  576SOL    HW2 1749   2.408   1.566   2.309
  577SOL     OW 1750   2.117   1.348   2.152
  577SOL    HW1 1751   2.021   1.349   2.125
  577SOL    HW2 1752   2.129   1.401   2.236
  578SOL     OW 1753   1.937   0.345   1.895
  578SOL    HW1 1754   1.845   0.317   1.866
  578SOL    HW2 1755   1.968   0.422   1.839
  579SOL     OW 1756   1.934   0.166   2.180
  579SOL    HW1 1757   1.917   0.249   2.126
  579SOL    HW2 1758   2.024   0.129   2.158
  580SOL     OW 1759   2.456   0.745   2.514
  580SOL    HW1 1760   2.506   0.830   2.495
  580SOL    HW2 1761   2.368   0.747   2.466
  581SOL     OW 1762   2.523   1.790   2.815
  581SOL    HW1 1763   2.477   1.878   2.802
  581SOL    HW2 1764   2.622   1.802   2.808
  582SOL     OW 1765   1.941   1.240   2.515
  582SOL    HW1 1766   1.940   1.193   2.603
  582SOL    HW2 1767   2.023   1.212   2.464
  583SOL     OW 1768   2.290   0.424   2.382
  583SOL    HW1 1769   2.320   0.352   2.320
  583SOL    HW2 1770   2.251   0.384   2.465
  584SOL     OW 1771   2.674   1.586   2.549
  584SOL    HW1 1772   2.706   1.596   2.455
  584SOL    HW2 1773   2.595   1.524   2.551
  585SOL     OW 1774   1.901   1.077   2.162
  585SOL    HW1 1775   2.000   1.066   2.153
  585SOL    HW2 1776   1.861   0.991   2.194
  586SOL     OW 1777   2.092   2.490   0.113
  586SOL    HW1 1778   1.999   2.488   0.150
  586SOL    HW2 1779   2.093   2.451   0.021
  587SOL     OW 1780   2.087   2.137   0.996
  587SOL    HW1 1781   2.122   2.120   1.088
  587SOL    HW2 1782   1.999   2.092   0.984
  588SOL     OW 1783   1.881   2.230   0.647
  588SOL    HW1 1784   1.799   2.273   0.686
  588SOL    HW2 1785   1.853   2.157   0.584
  589SOL     OW 1786   2.547   2.874   0.665
  589SOL    HW1 1787   2.616   2.858   0.735
  589SOL    HW2 1788   2.474   2.931   0.703
  590SOL     OW 1789   2.300   2.254   1.499
  590SOL    HW1 1790   2.382   2.198   1.508
  590SOL    HW2 1791   2.219   2.196   1.503
  591SOL     OW 1792   1.984   2.505   0.563
  591SOL    HW1 1793   1.939   2.417   0.580
  591SOL    HW2 1794   1.983   2.559   0.647
  592SOL     OW 1795   1.975   2.599   1.597
  592SOL    HW1 1796   2.063   2.586   1.642
  592SOL    HW2 1797   1.962   2.696   1.575
  593SOL     OW 1798   2.671   1.866   0.502
  593SOL    HW1 1799   2.711   1.957   0.493
  593SOL    HW2 1800   2.571   1.874   0.508
  594SOL     OW 1801   2.179   2.113   1.801
  594SOL    HW1 1802   2.250   2.184   1.807
  594SOL    HW2 1803   2.091   2.152   1.829
  595SOL     OW 1804   2.460   2.591   0.270
  595SOL    HW1 1805   2.484   2.660   0.202
  595SOL    HW2 1806   2.382   2.624   0.324
  596SOL     OW 1807   2.412   2.058   0.885
  596SOL    HW1 1808   2.407   2.053   0.985
  596SOL    HW2 1809   2.414   2.154   0.856
  597SOL     OW 1810   2.064   2.147   1.498
  597SOL    HW1 1811   1.984   2.207   1.485
  597SOL    HW2 1812   2.054   2.098   1.584
  598SOL     OW 1813   2.244   2.562   0.480
  598SOL    HW1 1814   2.289   2.472   0.477
  598SOL    HW2 1815   2.150   2.551   0.513
  599SOL     OW 1816   2.784   2.365   0.899
  599SOL    HW1 1817   2.759   2.356   0.803
  599SOL    HW2 1818   2.832   2.283   0.930
  600SOL     OW 1819   2.401   1.926   0.512
  600SOL    HW1 1820   2.320   1.927   0.570
  600SOL    HW2 1821   2.404   2.009   0.457
  601SOL     OW 1822   2.159   1.897   0.171
  601SOL    HW1 1823   2.208   1.981   0.150
  601SOL    HW2 1824   2.221   1.832   0.216
  602SOL     OW 1825   1.940   2.418   1.386
  602SOL    HW1 1826   2.032   2.417   1.345
  602SOL    HW2 1827   1.934   2.492   1.453
  603SOL     OW 1828   2.423   2.084   1.147
  603SOL    HW1 1829   2.461   2.000   1.184
  603SOL    HW2 1830   2.335   2.103   1.191
  604SOL     OW 1831   2.389   2.118   0.328
  604SOL    HW1 1832   2.416   2.059   0.253
  604SOL    HW2 1833   2.389   2.213   0.297
  605SOL     OW 1834   2.777   1.951   1.402
  605SOL    HW1 1835   2.802   1.931   1.307
  605SOL    HW2 1836   2.849   2.007   1.444
  606SOL     OW 1837   2.272   2.675   1.251
  606SOL    HW1 1838   2.358   2.687   1.301
  606SOL    HW2 1839   2.230   2.588   1.278
  607SOL     OW 1840   2.428   2.399   0.865
  607SOL    HW1 1841   2.440   2.465   0.791
  607SOL    HW2 1842   2.474   2.433   0.948
  608SOL     OW 1843   2.366   1.912   1.740
  608SOL    HW1 1844   2.324   1.855   1.670
  608SOL    HW2 1845   2.300   1.981   1.772
  609SOL     OW 1846   2.169   2.075   1.231
  609SOL    HW1 1847   2.146   2.112   1.321
  609SOL    HW2 1848   2.139   1.980   1.225
  610SOL     OW 1849   2.594   2.496   1.064
  610SOL    HW1 1850   2.653   2.470   0.988
  610SOL    HW2 1851   2.566   2.592   1.053
  611SOL     OW 1852   2.169   1.925   0.618
  611SOL    HW1 1853   2.158   2.019   0.651
  611SOL    HW2 1854   2.164   1.862   0.695
  612SOL     OW 1855   2.181   2.672   0.949
  612SOL    HW1 1856   2.274   2.708   0.954
  612SOL    HW2 1857   2.175   2.587   1.001
  613SOL     OW 1858   2.201   2.371   1.006
  613SOL    HW1 1859   2.149   2.288   0.989
  613SOL    HW2 1860   2.278   2.376   0.942
  614SOL     OW 1861   1.902   2.406   1.114
  614SOL    HW1 1862   1.987   2.373   1.073
  614SOL    HW2 1863   1.915   2.421   1.212
  615SOL     OW 1864   2.051   2.382   1.722
  615SOL    HW1 1865   2.110   2.342   1.652
  615SOL    HW2 1866   1.993   2.453   1.681
  616SOL     OW 1867   2.677   2.434   0.325
  616SOL    HW1 1868   2.684   2.345   0.279
  616SOL    HW2 1869   2.583   2.468   0.317
  617SOL     OW 1870   2.533   2.326   1.269
  617SOL    HW1 1871   2.499   2.237   1.239
  617SOL    HW2 1872   2.559   2.380   1.189
  618SOL     OW 1873   2.335   2.362   0.191
  618SOL    HW1 1874   2.396   2.442   0.195
  618SOL    HW2 1875   2.240   2.393   0.198
  619SOL     OW 1876   2.765   1.948   0.133
  619SOL    HW1 1877   2.816   1.949   0.047
  619SOL    HW2 1878   2.821   1.906   0.204
  620SOL     OW 1879   2.125   2.188   0.720
  620SOL    HW1 1880   2.046   2.239   0.686
  620SOL    HW2 1881   2.116   2.173   0.818
  621SOL     OW 1882   1.967   2.875   1.726
  621SOL    HW1 1883   1.890   2.842   1.780
  621SOL    HW2 1884   2.052   2.845   1.768
  622SOL     OW 1885   2.534   2.065   1.489
  622SOL    HW1 1886   2.624   2.049   1.449
  622SOL    HW2 1887   2.542   2.070   1.588
  623SOL     OW 1888   1.937   2.207   0.033
  623SOL    HW1 1889   1.845   2.179   0.004
  623SOL    HW2 1890   1.968   2.284  -0.023
  624SOL     OW 1891   1.934   2.028   0.318
  624SOL    HW1 1892   1.917   2.111   0.264
  624SOL    HW2 1893   2.024   1.991   0.296
  625SOL     OW 1894   2.475   2.704   1.431
  625SOL    HW1 1895   2.531   2.785   1.414
  625SOL    HW2 1896   2.534   2.624   1.434
  626SOL     OW 1897   2.578   2.427   1.708
  626SOL    HW1 1898   2.597   2.492   1.782
  626SOL    HW2 1899   2.638   2.347   1.717
  627SOL     OW 1900   2.456   2.607   0.652
  627SOL    HW1 1901   2.506   2.692   0.633
  627SOL    HW2 1902   2.368   2.609   0.604
  628SOL     OW 1903   2.290   2.286   0.520
  628SOL    HW1 1904   2.320   2.214   0.458
  628SOL    HW2 1905   2.251   2.246   0.603
  629SOL     OW 1906   2.179   2.409   1.280
  629SOL    HW1 1907   2.217   2.350   1.352
  629SOL    HW2 1908   2.219   2.383   1.192
  630SOL     OW 1909   2.092   2.490   1.975
  630SOL    HW1 1910   1.999   2.488   2.012
  630SOL    HW2 1911   2.093   2.451   1.883
  631SOL     OW 1912   2.087   2.137   2.858
  631SOL    HW1 1913   2.122   2.120   2.950
  631SOL    HW2 1914   1.999   2.092   2.846
  632SOL     OW 1915   1.881   2.230   2.509
  632SOL    HW1 1916   1.799   2.273   2.548
  632SOL    HW2 1917   1.853   2.157   2.446
  633SOL     OW 1918   2.547   2.874   2.527
  633SOL    HW1 1919   2.616   2.858   2.597
  633SOL    HW2 1920   2.474   2.931   2.565
  634SOL     OW 1921   1.984   2.505   2.425
  634SOL    HW1 1922   1.939   2.417   2.442
  634SOL    HW2 1923   1.983   2.559   2.509
  635SOL     OW 1924   2.671   1.866   2.364
  635SOL    HW1 1925   2.711   1.957   2.355
  635SOL    HW2 1926   2.571   1.874   2.370
  636SOL     OW 1927   2.460   2.591   2.132
  636SOL    HW1 1928   2.484   2.660   2.064
  636SOL    HW2 1929   2.382   2.624   2.186
  637SOL     OW 1930   2.244   2.562   2.342
  637SOL    HW1 1931   2.289   2.472   2.339
  637SOL    HW2 1932   2.150   2.551   2.375
  638SOL     OW 1933   2.476   1.984   1.979
  638SOL    HW1 1934   2.574   1.962   1.986
  638SOL    HW2 1935   2.445   1.967   1.886
  639SOL     OW 1936   2.401   1.926   2.374
  639SOL    HW1 1937   2.320   1.927   2.432
  639SOL    HW2 1938   2.404   2.009   2.319
  640SOL     OW 1939   2.159   1.897   2.033
  640SOL    HW1 1940   2.208   1.981   2.012
  640SOL    HW2 1941   2.221   1.832   2.078
  641SOL     OW 1942   2.879   1.901   2.615
  641SOL    HW1 1943   2.807   1.906   2.546
  641SOL    HW2 1944   2.855   1.832   2.684
  642SOL     OW 1945   2.389   2.118   2.190
  642SOL    HW1 1946   2.416   2.059   2.115
  642SOL    HW2 1947   2.389   2.213   2.159
  643SOL     OW 1948   2.169   1.925   2.480
  643SOL    HW1 1949   2.158   2.019   2.513
  643SOL    HW2 1950   2.164   1.862   2.557
  644SOL     OW 1951   2.677   2.434   2.187
  644SOL    HW1 1952   2.684   2.345   2.141
  644SOL    HW2 1953   2.583   2.468   2.179
  645SOL     OW 1954   2.335   2.362   2.053
  645SOL    HW1 1955   2.396   2.442   2.057
  645SOL    HW2 1956   2.240   2.393   2.060
  646SOL     OW 1957   2.765   1.948   1.995
  646SOL    HW1 1958   2.816   1.949   1.909
  646SOL    HW2 1959   2.821   1.906   2.066
  647SOL     OW 1960   2.125   2.188   2.582
  647SOL    HW1 1961   2.046   2.239   2.548
  647SOL    HW2 1962   2.116   2.173   2.680
  648SOL     OW 1963   1.937   2.207   1.895
  648SOL    HW1 1964   1.845   2.179   1.866
  648SOL    HW2 1965   1.968   2.284   1.839
  649SOL     OW 1966   1.934   2.028   2.180
  649SOL    HW1 1967   1.917   2.111   2.126
  649SOL    HW2 1968   2.024   1.991   2.158
  650SOL     OW 1969   2.456   2.607   2.514
  650SOL    HW1 1970   2.506   2.692   2.495
  650SOL    HW2 1971   2.368   2.609   2.466
  651SOL     OW 1972   2.290   2.286   2.382
  651SOL    HW1 1973   2.320   2.214   2.320
  651SOL    HW2 1974   2.251   2.246   2.465
   2.72581   2.72581   2.72581
