; mobley_7497999_GMX.itp created by acpype (v: 2023.10.27) on Thu May 14 13:17:45 2026

[ atomtypes ]
;name   bond_type     mass     charge   ptype   sigma         epsilon       Amb
 ca       ca          0.00000  0.00000   A     3.31521e-01   4.13379e-01 ; 1.86  0.0988
 c        c           0.00000  0.00000   A     3.31521e-01   4.13379e-01 ; 1.86  0.0988
 c3       c3          0.00000  0.00000   A     3.39771e-01   4.51035e-01 ; 1.91  0.1078
 o        o           0.00000  0.00000   A     3.04812e-01   6.12119e-01 ; 1.71  0.1463
 ha       ha          0.00000  0.00000   A     2.62548e-01   6.73624e-02 ; 1.47  0.0161
 hc       hc          0.00000  0.00000   A     2.60018e-01   8.70272e-02 ; 1.46  0.0208

[ moleculetype ]
;name            nrexcl
 mobley_7497999   3

[ atoms ]
;   nr  type  resi  res  atom  cgnr     charge      mass       ; qtot   bond_type
     1   ca     1   MOL    C1    1    -0.101000     12.01000 ; qtot -0.101
     2   ca     1   MOL    C2    2    -0.145500     12.01000 ; qtot -0.246
     3   ca     1   MOL    C3    3    -0.145500     12.01000 ; qtot -0.392
     4   ca     1   MOL    C4    4    -0.082000     12.01000 ; qtot -0.474
     5   ca     1   MOL    C5    5    -0.082000     12.01000 ; qtot -0.556
     6   ca     1   MOL    C6    6    -0.177600     12.01000 ; qtot -0.734
     7    c     1   MOL    C7    7     0.576700     12.01000 ; qtot -0.157
     8   c3     1   MOL    C8    8    -0.198100     12.01000 ; qtot -0.355
     9    o     1   MOL    O1    9    -0.537100     16.00000 ; qtot -0.892
    10   ha     1   MOL    H1   10     0.135000      1.00800 ; qtot -0.757
    11   ha     1   MOL    H2   11     0.136500      1.00800 ; qtot -0.621
    12   ha     1   MOL    H3   12     0.136500      1.00800 ; qtot -0.484
    13   ha     1   MOL    H4   13     0.145000      1.00800 ; qtot -0.339
    14   ha     1   MOL    H5   14     0.145000      1.00800 ; qtot -0.194
    15   hc     1   MOL    H6   15     0.064700      1.00800 ; qtot -0.129
    16   hc     1   MOL    H7   16     0.064700      1.00800 ; qtot -0.065
    17   hc     1   MOL    H8   17     0.064700      1.00800 ; qtot 0.000

[ bonds ]
;   ai     aj funct   r             k
     1      2   1    1.3986e-01    2.9644e+05 ;     C1 - C2    
     1      3   1    1.3986e-01    2.9644e+05 ;     C1 - C3    
     1     10   1    1.0860e-01    3.0183e+05 ;     C1 - H1    
     2      4   1    1.3986e-01    2.9644e+05 ;     C2 - C4    
     2     11   1    1.0860e-01    3.0183e+05 ;     C2 - H2    
     3      5   1    1.3986e-01    2.9644e+05 ;     C3 - C5    
     3     12   1    1.0860e-01    3.0183e+05 ;     C3 - H3    
     4      6   1    1.3986e-01    2.9644e+05 ;     C4 - C6    
     4     13   1    1.0860e-01    3.0183e+05 ;     C4 - H4    
     5      6   1    1.3986e-01    2.9644e+05 ;     C5 - C6    
     5     14   1    1.0860e-01    3.0183e+05 ;     C5 - H5    
     6      7   1    1.4907e-01    2.1994e+05 ;     C6 - C7    
     7      8   1    1.5270e-01    1.9652e+05 ;     C7 - C8    
     7      9   1    1.2190e-01    4.9421e+05 ;     C7 - O1    
     8     15   1    1.0962e-01    2.8891e+05 ;     C8 - H6    
     8     16   1    1.0962e-01    2.8891e+05 ;     C8 - H7    
     8     17   1    1.0962e-01    2.8891e+05 ;     C8 - H8    

[ pairs ]
;   ai     aj    funct
     1      6      1 ;     C1 - C6    
     1     13      1 ;     C1 - H4    
     1     14      1 ;     C1 - H5    
     2      5      1 ;     C2 - C5    
     2      7      1 ;     C2 - C7    
     2     12      1 ;     C2 - H3    
     3      4      1 ;     C3 - C4    
     3      7      1 ;     C3 - C7    
     3     11      1 ;     C3 - H2    
     4      8      1 ;     C4 - C8    
     4      9      1 ;     C4 - O1    
     4     14      1 ;     C4 - H5    
     5      8      1 ;     C5 - C8    
     5      9      1 ;     C5 - O1    
     5     13      1 ;     C5 - H4    
     6     11      1 ;     C6 - H2    
     6     12      1 ;     C6 - H3    
     6     15      1 ;     C6 - H6    
     6     16      1 ;     C6 - H7    
     6     17      1 ;     C6 - H8    
     7     13      1 ;     C7 - H4    
     7     14      1 ;     C7 - H5    
     9     15      1 ;     O1 - H6    
     9     16      1 ;     O1 - H7    
     9     17      1 ;     O1 - H8    
    10      4      1 ;     H1 - C4    
    10      5      1 ;     H1 - C5    
    10     11      1 ;     H1 - H2    
    10     12      1 ;     H1 - H3    
    11     13      1 ;     H2 - H4    
    12     14      1 ;     H3 - H5    

[ angles ]
;   ai     aj     ak    funct   theta         cth
     1      2      4      1    1.2002e+02    5.3279e+02 ;     C1 - C2     - C4    
     1      2     11      1    1.1988e+02    3.7572e+02 ;     C1 - C2     - H2    
     1      3      5      1    1.2002e+02    5.3279e+02 ;     C1 - C3     - C5    
     1      3     12      1    1.1988e+02    3.7572e+02 ;     C1 - C3     - H3    
     2      1      3      1    1.2002e+02    5.3279e+02 ;     C2 - C1     - C3    
     2      1     10      1    1.1988e+02    3.7572e+02 ;     C2 - C1     - H1    
     2      4      6      1    1.2002e+02    5.3279e+02 ;     C2 - C4     - C6    
     2      4     13      1    1.1988e+02    3.7572e+02 ;     C2 - C4     - H4    
     3      1     10      1    1.1988e+02    3.7572e+02 ;     C3 - C1     - H1    
     3      5      6      1    1.2002e+02    5.3279e+02 ;     C3 - C5     - C6    
     3      5     14      1    1.1988e+02    3.7572e+02 ;     C3 - C5     - H5    
     4      2     11      1    1.1988e+02    3.7572e+02 ;     C4 - C2     - H2    
     4      6      5      1    1.2002e+02    5.3279e+02 ;     C4 - C6     - C5    
     4      6      7      1    1.2033e+02    5.1413e+02 ;     C4 - C6     - C7    
     5      3     12      1    1.1988e+02    3.7572e+02 ;     C5 - C3     - H3    
     5      6      7      1    1.2033e+02    5.1413e+02 ;     C5 - C6     - C7    
     6      4     13      1    1.1988e+02    3.7572e+02 ;     C6 - C4     - H4    
     6      5     14      1    1.1988e+02    3.7572e+02 ;     C6 - C5     - H5    
     6      7      8      1    1.1899e+02    4.9589e+02 ;     C6 - C7     - C8    
     6      7      9      1    1.2260e+02    6.5237e+02 ;     C6 - C7     - O1    
     7      8     15      1    1.0895e+02    3.6510e+02 ;     C7 - C8     - H6    
     7      8     16      1    1.0895e+02    3.6510e+02 ;     C7 - C8     - H7    
     7      8     17      1    1.0895e+02    3.6510e+02 ;     C7 - C8     - H8    
     8      7      9      1    1.2290e+02    6.3973e+02 ;     C8 - C7     - O1    
    15      8     16      1    1.0773e+02    2.9957e+02 ;     H6 - C8     - H7    
    15      8     17      1    1.0773e+02    2.9957e+02 ;     H6 - C8     - H8    
    16      8     17      1    1.0773e+02    2.9957e+02 ;     H7 - C8     - H8    

[ dihedrals ] ; propers
; for gromacs 4.5 or higher, using funct 9
;    i      j      k      l   func   phase     kd      pn
     1      2      4      6      9   180.00  15.16700   2 ;     C1-    C2-    C4-    C6
     1      2      4     13      9   180.00  15.16700   2 ;     C1-    C2-    C4-    H4
     1      3      5      6      9   180.00  15.16700   2 ;     C1-    C3-    C5-    C6
     1      3      5     14      9   180.00  15.16700   2 ;     C1-    C3-    C5-    H5
     2      1      3      5      9   180.00  15.16700   2 ;     C2-    C1-    C3-    C5
     2      1      3     12      9   180.00  15.16700   2 ;     C2-    C1-    C3-    H3
     2      4      6      5      9   180.00  15.16700   2 ;     C2-    C4-    C6-    C5
     2      4      6      7      9   180.00  15.16700   2 ;     C2-    C4-    C6-    C7
     3      1      2      4      9   180.00  15.16700   2 ;     C3-    C1-    C2-    C4
     3      1      2     11      9   180.00  15.16700   2 ;     C3-    C1-    C2-    H2
     3      5      6      4      9   180.00  15.16700   2 ;     C3-    C5-    C6-    C4
     3      5      6      7      9   180.00  15.16700   2 ;     C3-    C5-    C6-    C7
     4      6      5     14      9   180.00  15.16700   2 ;     C4-    C6-    C5-    H5
     4      6      7      8      9   180.00   4.40157   2 ;     C4-    C6-    C7-    C8
     4      6      7      9      9   180.00   2.42672   2 ;     C4-    C6-    C7-    O1
     5      6      4     13      9   180.00  15.16700   2 ;     C5-    C6-    C4-    H4
     5      6      7      8      9   180.00   4.40157   2 ;     C5-    C6-    C7-    C8
     5      6      7      9      9   180.00   2.42672   2 ;     C5-    C6-    C7-    O1
     6      4      2     11      9   180.00  15.16700   2 ;     C6-    C4-    C2-    H2
     6      5      3     12      9   180.00  15.16700   2 ;     C6-    C5-    C3-    H3
     6      7      8     15      9   180.00   0.00000   2 ;     C6-    C7-    C8-    H6
     6      7      8     16      9   180.00   0.00000   2 ;     C6-    C7-    C8-    H7
     6      7      8     17      9   180.00   0.00000   2 ;     C6-    C7-    C8-    H8
     7      6      4     13      9   180.00  15.16700   2 ;     C7-    C6-    C4-    H4
     7      6      5     14      9   180.00  15.16700   2 ;     C7-    C6-    C5-    H5
     9      7      8     15      9     0.00  16.86152   1 ;     O1-    C7-    C8-    H6
     9      7      8     15      9   180.00  15.31344   2 ;     O1-    C7-    C8-    H6
     9      7      8     16      9     0.00  16.86152   1 ;     O1-    C7-    C8-    H7
     9      7      8     16      9   180.00  15.31344   2 ;     O1-    C7-    C8-    H7
     9      7      8     17      9     0.00  16.86152   1 ;     O1-    C7-    C8-    H8
     9      7      8     17      9   180.00  15.31344   2 ;     O1-    C7-    C8-    H8
    10      1      2      4      9   180.00  15.16700   2 ;     H1-    C1-    C2-    C4
    10      1      2     11      9   180.00  15.16700   2 ;     H1-    C1-    C2-    H2
    10      1      3      5      9   180.00  15.16700   2 ;     H1-    C1-    C3-    C5
    10      1      3     12      9   180.00  15.16700   2 ;     H1-    C1-    C3-    H3
    11      2      4     13      9   180.00  15.16700   2 ;     H2-    C2-    C4-    H4
    12      3      5     14      9   180.00  15.16700   2 ;     H3-    C3-    C5-    H5

[ dihedrals ] ; impropers
; treated as propers in GROMACS to use correct AMBER analytical function
;    i      j      k      l   func   phase     kd      pn
     1      4      2     11      4   180.00   4.60240   2 ;     C1-    C4-    C2-    H2
     1      5      3     12      4   180.00   4.60240   2 ;     C1-    C5-    C3-    H3
     2      6      4     13      4   180.00   4.60240   2 ;     C2-    C6-    C4-    H4
     3      6      5     14      4   180.00   4.60240   2 ;     C3-    C6-    C5-    H5
     7      4      6      5      4   180.00   4.60240   2 ;     C7-    C4-    C6-    C5
     8      6      7      9      4   180.00  43.93200   2 ;     C8-    C6-    C7-    O1
    10      1      3      2      4   180.00   4.60240   2 ;     H1-    C1-    C3-    C2
