; mobley_7690440_GMX.itp created by acpype (v: 2023.10.27) on Thu May 14 13:45:46 2026

[ atomtypes ]
;name   bond_type     mass     charge   ptype   sigma         epsilon       Amb
 c3       c3          0.00000  0.00000   A     3.39771e-01   4.51035e-01 ; 1.91  0.1078
 ss       ss          0.00000  0.00000   A     3.53241e-01   1.18156e+00 ; 1.98  0.2824
 h1       h1          0.00000  0.00000   A     2.42200e-01   8.70272e-02 ; 1.36  0.0208

[ moleculetype ]
;name            nrexcl
 mobley_7690440   3

[ atoms ]
;   nr  type  resi  res  atom  cgnr     charge      mass       ; qtot   bond_type
     1   c3     1   MOL    C1    1    -0.048000     12.01000 ; qtot -0.048
     2   c3     1   MOL    C2    2    -0.048000     12.01000 ; qtot -0.096
     3   ss     1   MOL    S1    3    -0.167100     32.06000 ; qtot -0.263
     4   ss     1   MOL    S2    4    -0.167100     32.06000 ; qtot -0.430
     5   h1     1   MOL    H1    5     0.071700      1.00800 ; qtot -0.359
     6   h1     1   MOL    H2    6     0.071700      1.00800 ; qtot -0.287
     7   h1     1   MOL    H3    7     0.071700      1.00800 ; qtot -0.215
     8   h1     1   MOL    H4    8     0.071700      1.00800 ; qtot -0.143
     9   h1     1   MOL    H5    9     0.071700      1.00800 ; qtot -0.072
    10   h1     1   MOL    H6   10     0.071700      1.00800 ; qtot -0.000

[ bonds ]
;   ai     aj funct   r             k
     1      3   1    1.8407e-01    1.5459e+05 ;     C1 - S1    
     1      5   1    1.0969e-01    2.8804e+05 ;     C1 - H1    
     1      6   1    1.0969e-01    2.8804e+05 ;     C1 - H2    
     1      7   1    1.0969e-01    2.8804e+05 ;     C1 - H3    
     2      4   1    1.8407e-01    1.5459e+05 ;     C2 - S2    
     2      8   1    1.0969e-01    2.8804e+05 ;     C2 - H4    
     2      9   1    1.0969e-01    2.8804e+05 ;     C2 - H5    
     2     10   1    1.0969e-01    2.8804e+05 ;     C2 - H6    
     3      4   1    2.0950e-01    1.9849e+05 ;     S1 - S2    

[ pairs ]
;   ai     aj    funct
     1      2      1 ;     C1 - C2    
     3      8      1 ;     S1 - H4    
     3      9      1 ;     S1 - H5    
     3     10      1 ;     S1 - H6    
     5      4      1 ;     H1 - S2    
     6      4      1 ;     H2 - S2    
     7      4      1 ;     H3 - S2    

[ angles ]
;   ai     aj     ak    funct   theta         cth
     1      3      4      1    1.0357e+02    8.1956e+02 ;     C1 - S1     - S2    
     2      4      3      1    1.0357e+02    8.1956e+02 ;     C2 - S2     - S1    
     3      1      5      1    1.0873e+02    3.5196e+02 ;     S1 - C1     - H1    
     3      1      6      1    1.0873e+02    3.5196e+02 ;     S1 - C1     - H2    
     3      1      7      1    1.0873e+02    3.5196e+02 ;     S1 - C1     - H3    
     4      2      8      1    1.0873e+02    3.5196e+02 ;     S2 - C2     - H4    
     4      2      9      1    1.0873e+02    3.5196e+02 ;     S2 - C2     - H5    
     4      2     10      1    1.0873e+02    3.5196e+02 ;     S2 - C2     - H6    
     5      1      6      1    1.0855e+02    2.9824e+02 ;     H1 - C1     - H2    
     5      1      7      1    1.0855e+02    2.9824e+02 ;     H1 - C1     - H3    
     6      1      7      1    1.0855e+02    2.9824e+02 ;     H2 - C1     - H3    
     8      2      9      1    1.0855e+02    2.9824e+02 ;     H4 - C2     - H5    
     8      2     10      1    1.0855e+02    2.9824e+02 ;     H4 - C2     - H6    
     9      2     10      1    1.0855e+02    2.9824e+02 ;     H5 - C2     - H6    

[ dihedrals ] ; propers
; for gromacs 4.5 or higher, using funct 9
;    i      j      k      l   func   phase     kd      pn
     1      3      4      2      9     0.00  12.63568   2 ;     C1-    S1-    S2-    C2
     3      4      2      8      9     0.00   1.39467   3 ;     S1-    S2-    C2-    H4
     3      4      2      9      9     0.00   1.39467   3 ;     S1-    S2-    C2-    H5
     3      4      2     10      9     0.00   1.39467   3 ;     S1-    S2-    C2-    H6
     5      1      3      4      9     0.00   1.39467   3 ;     H1-    C1-    S1-    S2
     6      1      3      4      9     0.00   1.39467   3 ;     H2-    C1-    S1-    S2
     7      1      3      4      9     0.00   1.39467   3 ;     H3-    C1-    S1-    S2
