mobley_3318135_GMX.gro created by acpype (v: 2023.10.27) on Thu May 14 13:34:35 2026
 3139
    1MOL     C1    1   1.621   1.581   1.611
    1MOL     C2    2   1.481   1.769   2.059
    1MOL     C3    3   1.749   1.365   1.170
    1MOL     C4    4   1.537   1.684   1.685
    1MOL     C5    5   1.605   1.580   1.460
    1MOL     C6    6   1.466   1.778   1.908
    1MOL     C7    7   1.668   1.474   1.238
    1MOL     C8    8   1.554   1.676   1.837
    1MOL     C9    9   1.686   1.471   1.390
    1MOL     O1   10   1.694   1.501   1.670
    1MOL     H1   11   1.417   1.843   2.108
    1MOL     H2   12   1.584   1.787   2.090
    1MOL     H3   13   1.452   1.669   2.095
    1MOL     H4   14   1.735   1.368   1.062
    1MOL     H5   15   1.856   1.377   1.191
    1MOL     H6   16   1.719   1.266   1.205
    1MOL     H7   17   1.565   1.783   1.649
    1MOL     H8   18   1.432   1.666   1.659
    1MOL     H9   19   1.634   1.679   1.421
    1MOL    H10   20   1.499   1.565   1.439
    1MOL    H11   21   1.492   1.880   1.876
    1MOL    H12   22   1.361   1.761   1.881
    1MOL    H13   23   1.562   1.461   1.212
    1MOL    H14   24   1.699   1.571   1.197
    1MOL    H15   25   1.660   1.694   1.862
    1MOL    H16   26   1.530   1.575   1.872
    1MOL    H17   27   1.652   1.374   1.427
    1MOL    H18   28   1.792   1.480   1.415
    2SOL     OW   29   0.230   0.628   0.113
    2SOL    HW1   30   0.137   0.626   0.150
    2SOL    HW2   31   0.231   0.589   0.021
    3SOL     OW   32   0.225   0.275   0.996
    3SOL    HW1   33   0.260   0.258   1.088
    3SOL    HW2   34   0.137   0.230   0.984
    4SOL     OW   35   0.019   0.368   0.647
    4SOL    HW1   36  -0.063   0.411   0.686
    4SOL    HW2   37  -0.009   0.295   0.584
    5SOL     OW   38   0.569   1.275   1.165
    5SOL    HW1   39   0.476   1.268   1.128
    5SOL    HW2   40   0.580   1.364   1.209
    6SOL     OW   41   1.555   1.511   0.703
    6SOL    HW1   42   1.498   1.495   0.784
    6SOL    HW2   43   1.496   1.521   0.623
    7SOL     OW   44   1.135   0.703   0.717
    7SOL    HW1   45   1.192   0.781   0.692
    7SOL    HW2   46   1.075   0.729   0.793
    8SOL     OW   47   1.755   0.607   0.231
    8SOL    HW1   48   1.743   0.594   0.132
    8SOL    HW2   49   1.725   0.526   0.280
    9SOL     OW   50   0.768   1.144   1.023
    9SOL    HW1   51   0.690   1.161   1.083
    9SOL    HW2   52   0.802   1.231   0.987
   10SOL     OW   53   0.850   0.798   1.823
   10SOL    HW1   54   0.846   0.874   1.888
   10SOL    HW2   55   0.872   0.834   1.732
   11SOL     OW   56   0.685   1.012   0.665
   11SOL    HW1   57   0.754   0.996   0.735
   11SOL    HW2   58   0.612   1.069   0.703
   12SOL     OW   59   0.686   1.161   1.803
   12SOL    HW1   60   0.746   1.240   1.817
   12SOL    HW2   61   0.600   1.192   1.762
   13SOL     OW   62   0.335   1.435   1.061
   13SOL    HW1   63   0.257   1.404   1.008
   13SOL    HW2   64   0.393   1.493   1.004
   14SOL     OW   65   0.438   0.392   1.499
   14SOL    HW1   66   0.520   0.336   1.508
   14SOL    HW2   67   0.357   0.334   1.503
   15SOL     OW   68   1.603   0.447   0.737
   15SOL    HW1   69   1.529   0.493   0.687
   15SOL    HW2   70   1.654   0.515   0.790
   16SOL     OW   71   0.231   1.713   0.483
   16SOL    HW1   72   0.265   1.790   0.537
   16SOL    HW2   73   0.275   1.713   0.393
   17SOL     OW   74   1.127   1.341   1.690
   17SOL    HW1   75   1.174   1.341   1.778
   17SOL    HW2   76   1.079   1.254   1.679
   18SOL     OW   77   0.230   1.434   0.538
   18SOL    HW1   78   0.204   1.530   0.538
   18SOL    HW2   79   0.159   1.380   0.583
   19SOL     OW   80   0.240   1.091   0.886
   19SOL    HW1   81   0.254   1.007   0.938
   19SOL    HW2   82   0.185   1.155   0.941
   20SOL     OW   83   0.620   1.786   1.439
   20SOL    HW1   84   0.528   1.769   1.474
   20SOL    HW2   85   0.648   1.878   1.465
   21SOL     OW   86   0.606   0.964   0.123
   21SOL    HW1   87   0.613   1.048   0.069
   21SOL    HW2   88   0.652   0.977   0.211
   22SOL     OW   89   1.594   0.114   1.480
   22SOL    HW1   90   1.576   0.181   1.408
   22SOL    HW2   91   1.591   0.160   1.569
   23SOL     OW   92   0.122   0.643   0.563
   23SOL    HW1   93   0.077   0.555   0.580
   23SOL    HW2   94   0.121   0.697   0.647
   24SOL     OW   95   1.842   1.767   0.359
   24SOL    HW1   96   1.896   1.738   0.439
   24SOL    HW2   97   1.872   1.857   0.330
   25SOL     OW   98   0.027   1.596   0.117
   25SOL    HW1   99   0.008   1.500   0.138
   25SOL    HW2  100  -0.006   1.654   0.192
   26SOL     OW  101   1.689   0.922   0.612
   26SOL    HW1  102   1.784   0.893   0.620
   26SOL    HW2  103   1.681   0.987   0.537
   27SOL     OW  104   1.641   1.108   0.432
   27SOL    HW1  105   1.727   1.110   0.380
   27SOL    HW2  106   1.655   1.155   0.520
   28SOL     OW  107   0.113   0.737   1.597
   28SOL    HW1  108   0.201   0.724   1.642
   28SOL    HW2  109   0.100   0.834   1.575
   29SOL     OW  110   0.613   1.365   0.726
   29SOL    HW1  111   0.564   1.278   0.735
   29SOL    HW2  112   0.590   1.408   0.639
   30SOL     OW  113   1.293   1.228   1.423
   30SOL    HW1  114   1.330   1.155   1.365
   30SOL    HW2  115   1.345   1.233   1.508
   31SOL     OW  116   0.809   0.004   0.502
   31SOL    HW1  117   0.849   0.095   0.493
   31SOL    HW2  118   0.709   0.012   0.508
   32SOL     OW  119   0.197   0.976   1.264
   32SOL    HW1  120   0.286   0.931   1.250
   32SOL    HW2  121   0.124   0.911   1.245
   33SOL     OW  122   1.525   0.999   0.190
   33SOL    HW1  123   1.462   0.923   0.203
   33SOL    HW2  124   1.573   1.017   0.276
   34SOL     OW  125   1.187   1.792   1.616
   34SOL    HW1  126   1.211   1.852   1.540
   34SOL    HW2  127   1.194   1.697   1.586
   35SOL     OW  128   0.317   0.251   1.801
   35SOL    HW1  129   0.388   0.322   1.807
   35SOL    HW2  130   0.229   0.290   1.829
   36SOL     OW  131   1.466   1.417   0.953
   36SOL    HW1  132   1.407   1.423   1.033
   36SOL    HW2  133   1.451   1.329   0.907
   37SOL     OW  134   1.667   1.714   0.572
   37SOL    HW1  135   1.626   1.691   0.484
   37SOL    HW2  136   1.649   1.640   0.637
   38SOL     OW  137   0.598   0.729   0.270
   38SOL    HW1  138   0.622   0.798   0.202
   38SOL    HW2  139   0.520   0.762   0.324
   39SOL     OW  140   1.281   0.345   0.944
   39SOL    HW1  141   1.195   0.295   0.931
   39SOL    HW2  142   1.343   0.291   1.000
   40SOL     OW  143   1.576   1.662   0.307
   40SOL    HW1  144   1.665   1.708   0.310
   40SOL    HW2  145   1.555   1.638   0.212
   41SOL     OW  146   0.807   0.605   1.465
   41SOL    HW1  147   0.760   0.602   1.554
   41SOL    HW2  148   0.756   0.550   1.399
   42SOL     OW  149   1.394   0.469   1.674
   42SOL    HW1  150   1.374   0.512   1.762
   42SOL    HW2  151   1.472   0.407   1.683
   43SOL     OW  152   0.973   0.890   1.572
   43SOL    HW1  153   1.019   0.806   1.543
   43SOL    HW2  154   0.917   0.924   1.497
   44SOL     OW  155   0.991   0.410   1.242
   44SOL    HW1  156   0.914   0.444   1.296
   44SOL    HW2  157   0.957   0.359   1.163
   45SOL     OW  158   1.041   0.701   0.429
   45SOL    HW1  159   1.067   0.697   0.525
   45SOL    HW2  160   0.956   0.650   0.415
   46SOL     OW  161   0.076   0.811   0.789
   46SOL    HW1  162   0.175   0.799   0.798
   46SOL    HW2  163   0.052   0.906   0.810
   47SOL     OW  164   0.130   1.821   1.571
   47SOL    HW1  165   0.120   1.806   1.670
   47SOL    HW2  166   0.044   1.857   1.535
   48SOL     OW  167   0.865   0.348   0.195
   48SOL    HW1  168   0.924   0.411   0.146
   48SOL    HW2  169   0.884   0.254   0.166
   49SOL     OW  170   1.719   0.585   1.831
   49SOL    HW1  171   1.693   0.674   1.795
   49SOL    HW2  172   1.717   0.517   1.758
   50SOL     OW  173   1.362   1.144   0.545
   50SOL    HW1  174   1.445   1.115   0.497
   50SOL    HW2  175   1.313   1.211   0.489
   51SOL     OW  176   0.550   0.196   0.885
   51SOL    HW1  177   0.545   0.191   0.985
   51SOL    HW2  178   0.552   0.292   0.856
   52SOL     OW  179   1.008   1.456   0.477
   52SOL    HW1  180   0.962   1.528   0.425
   52SOL    HW2  181   1.004   1.476   0.575
   53SOL     OW  182   0.351   1.801   0.853
   53SOL    HW1  183   0.401   1.715   0.859
   53SOL    HW2  184   0.416   1.878   0.850
   54SOL     OW  185   1.795   1.066   0.873
   54SOL    HW1  186   1.733   1.051   0.797
   54SOL    HW2  187   1.743   1.077   0.958
   55SOL     OW  188   1.227   1.550   1.506
   55SOL    HW1  189   1.233   1.473   1.570
   55SOL    HW2  190   1.175   1.524   1.426
   56SOL     OW  191   0.321   0.943   0.242
   56SOL    HW1  192   0.403   0.982   0.200
   56SOL    HW2  193   0.294   0.861   0.193
   57SOL     OW  194   1.458   0.735   0.728
   57SOL    HW1  195   1.453   0.670   0.803
   57SOL    HW2  196   1.538   0.794   0.741
   58SOL     OW  197   0.461   1.266   1.727
   58SOL    HW1  198   0.411   1.267   1.641
   58SOL    HW2  199   0.398   1.248   1.803
   59SOL     OW  200   1.111   1.776   0.237
   59SOL    HW1  201   1.051   1.714   0.287
   59SOL    HW2  202   1.142   1.732   0.152
   60SOL     OW  203   0.202   0.285   1.498
   60SOL    HW1  204   0.122   0.345   1.485
   60SOL    HW2  205   0.192   0.236   1.584
   61SOL     OW  206   1.632   1.377   0.081
   61SOL    HW1  207   1.600   1.471   0.071
   61SOL    HW2  208   1.556   1.314   0.069
   62SOL     OW  209   0.464   1.743   0.323
   62SOL    HW1  210   0.497   1.782   0.409
   62SOL    HW2  211   0.540   1.736   0.258
   63SOL     OW  212   1.400   0.107   0.426
   63SOL    HW1  213   1.376   0.070   0.336
   63SOL    HW2  214   1.499   0.123   0.430
   64SOL     OW  215   0.249   1.785   1.241
   64SOL    HW1  216   0.306   1.720   1.291
   64SOL    HW2  217   0.233   1.752   1.148
   65SOL     OW  218   0.940   1.698   0.904
   65SOL    HW1  219   1.020   1.641   0.925
   65SOL    HW2  220   0.891   1.658   0.827
   66SOL     OW  221   0.382   0.700   0.480
   66SOL    HW1  222   0.427   0.610   0.477
   66SOL    HW2  223   0.288   0.689   0.513
   67SOL     OW  224   1.547   0.222   1.729
   67SOL    HW1  225   1.542   0.259   1.821
   67SOL    HW2  226   1.475   0.153   1.717
   68SOL     OW  227   0.614   0.122   0.117
   68SOL    HW1  228   0.712   0.100   0.124
   68SOL    HW2  229   0.583   0.105   0.024
   69SOL     OW  230   0.781   0.264   1.749
   69SOL    HW1  231   0.848   0.203   1.792
   69SOL    HW2  232   0.708   0.283   1.814
   70SOL     OW  233   0.888   1.514   1.195
   70SOL    HW1  234   0.865   1.489   1.101
   70SOL    HW2  235   0.949   1.445   1.234
   71SOL     OW  236   1.351   0.590   1.433
   71SOL    HW1  237   1.379   0.547   1.518
   71SOL    HW2  238   1.376   0.686   1.434
   72SOL     OW  239   0.803   1.402   0.924
   72SOL    HW1  240   0.893   1.416   0.882
   72SOL    HW2  241   0.732   1.404   0.853
   73SOL     OW  242   0.922   0.503   0.899
   73SOL    HW1  243   0.897   0.494   0.803
   73SOL    HW2  244   0.970   0.421   0.930
   74SOL     OW  245   0.539   0.064   0.512
   74SOL    HW1  246   0.458   0.065   0.570
   74SOL    HW2  247   0.542   0.147   0.457
   75SOL     OW  248   1.434   1.188   0.041
   75SOL    HW1  249   1.466   1.112   0.098
   75SOL    HW2  250   1.342   1.215   0.071
   76SOL     OW  251   0.297   0.035   0.171
   76SOL    HW1  252   0.346   0.119   0.150
   76SOL    HW2  253   0.359  -0.030   0.216
   77SOL     OW  254   0.935   0.236   0.480
   77SOL    HW1  255   0.887   0.277   0.402
   77SOL    HW2  256   1.034   0.234   0.461
   78SOL     OW  257   1.076   0.683   1.464
   78SOL    HW1  258   0.996   0.622   1.467
   78SOL    HW2  259   1.157   0.630   1.440
   79SOL     OW  260   1.227   1.570   0.793
   79SOL    HW1  261   1.248   1.644   0.728
   79SOL    HW2  262   1.295   1.570   0.866
   80SOL     OW  263   0.459   1.152   0.741
   80SOL    HW1  264   0.388   1.125   0.806
   80SOL    HW2  265   0.433   1.124   0.648
   81SOL     OW  266   1.271   1.797   0.591
   81SOL    HW1  267   1.315   1.861   0.527
   81SOL    HW2  268   1.221   1.849   0.661
   82SOL     OW  269   1.032   0.549   0.016
   82SOL    HW1  270   0.991   0.631  -0.023
   82SOL    HW2  271   1.096   0.575   0.089
   83SOL     OW  272   0.078   0.556   1.386
   83SOL    HW1  273   0.170   0.555   1.345
   83SOL    HW2  274   0.072   0.630   1.453
   84SOL     OW  275   0.561   0.222   1.147
   84SOL    HW1  276   0.599   0.138   1.184
   84SOL    HW2  277   0.473   0.241   1.191
   85SOL     OW  278   0.866   0.454   0.642
   85SOL    HW1  279   0.834   0.526   0.580
   85SOL    HW2  280   0.890   0.373   0.589
   86SOL     OW  281   1.017   0.039   0.753
   86SOL    HW1  282   0.945   0.044   0.684
   86SOL    HW2  283   0.993  -0.030   0.822
   87SOL     OW  284   1.429   1.173   0.867
   87SOL    HW1  285   1.374   1.089   0.860
   87SOL    HW2  286   1.455   1.202   0.775
   88SOL     OW  287   1.466   0.590   0.992
   88SOL    HW1  288   1.436   0.495   0.999
   88SOL    HW2  289   1.539   0.606   1.058
   89SOL     OW  290   1.857   0.833   0.377
   89SOL    HW1  291   1.899   0.769   0.441
   89SOL    HW2  292   1.819   0.782   0.299
   90SOL     OW  293   0.488   1.385   0.174
   90SOL    HW1  294   0.401   1.370   0.221
   90SOL    HW2  295   0.471   1.411   0.079
   91SOL     OW  296   1.664   1.280   0.657
   91SOL    HW1  297   1.763   1.288   0.671
   91SOL    HW2  298   1.619   1.364   0.688
   92SOL     OW  299   1.390   0.575   0.078
   92SOL    HW1  300   1.336   0.554   0.159
   92SOL    HW2  301   1.481   0.534   0.087
   93SOL     OW  302   0.527   0.256   0.328
   93SOL    HW1  303   0.554   0.197   0.253
   93SOL    HW2  304   0.527   0.351   0.297
   94SOL     OW  305   1.754   1.223   1.588
   94SOL    HW1  306   1.845   1.184   1.575
   94SOL    HW2  307   1.762   1.319   1.612
   95SOL     OW  308   1.064   1.347   1.340
   95SOL    HW1  309   0.984   1.324   1.395
   95SOL    HW2  310   1.147   1.321   1.389
   96SOL     OW  311   1.111   1.195   1.100
   96SOL    HW1  312   1.071   1.239   1.181
   96SOL    HW2  313   1.070   1.232   1.017
   97SOL     OW  314   0.915   0.089   1.402
   97SOL    HW1  315   0.940   0.069   1.307
   97SOL    HW2  316   0.987   0.145   1.444
   98SOL     OW  317   0.980   1.116   1.719
   98SOL    HW1  318   0.881   1.122   1.729
   98SOL    HW2  319   1.003   1.036   1.663
   99SOL     OW  320   0.705   1.050   0.368
   99SOL    HW1  321   0.691   1.057   0.467
   99SOL    HW2  322   0.789   0.999   0.350
  100SOL     OW  323   0.410   0.813   1.251
  100SOL    HW1  324   0.496   0.825   1.301
  100SOL    HW2  325   0.368   0.726   1.278
  101SOL     OW  326   1.274   0.386   1.262
  101SOL    HW1  327   1.295   0.460   1.326
  101SOL    HW2  328   1.185   0.403   1.219
  102SOL     OW  329   0.064   1.564   1.331
  102SOL    HW1  330   0.018   1.646   1.297
  102SOL    HW2  331   0.162   1.583   1.340
  103SOL     OW  332   0.367   1.100   0.501
  103SOL    HW1  333   0.360   1.183   0.445
  103SOL    HW2  334   0.371   1.020   0.441
  104SOL     OW  335   0.566   0.537   0.865
  104SOL    HW1  336   0.578   0.603   0.791
  104SOL    HW2  337   0.612   0.571   0.948
  105SOL     OW  338   1.252   1.348   0.388
  105SOL    HW1  339   1.302   1.425   0.428
  105SOL    HW2  340   1.157   1.350   0.420
  106SOL     OW  341   1.272   1.445   1.142
  106SOL    HW1  342   1.319   1.458   1.229
  106SOL    HW2  343   1.206   1.371   1.151
  107SOL     OW  344   1.582   0.639   0.472
  107SOL    HW1  345   1.551   0.700   0.545
  107SOL    HW2  346   1.632   0.691   0.403
  108SOL     OW  347   0.354   1.510   1.329
  108SOL    HW1  348   0.333   1.466   1.242
  108SOL    HW2  349   0.451   1.536   1.332
  109SOL     OW  350   0.402   0.751   1.598
  109SOL    HW1  351   0.470   0.806   1.551
  109SOL    HW2  352   0.442   0.663   1.625
  110SOL     OW  353   1.587   0.779   1.670
  110SOL    HW1  354   1.495   0.817   1.665
  110SOL    HW2  355   1.647   0.826   1.605
  111SOL     OW  356   1.013   0.105   1.770
  111SOL    HW1  357   1.019   0.190   1.718
  111SOL    HW2  358   1.045   0.029   1.713
  112SOL     OW  359   0.504   0.050   1.740
  112SOL    HW1  360   0.462  -0.007   1.670
  112SOL    HW2  361   0.438   0.119   1.772
  113SOL     OW  362   0.573   0.870   1.029
  113SOL    HW1  363   0.617   0.959   1.020
  113SOL    HW2  364   0.510   0.870   1.106
  114SOL     OW  365   1.360   0.862   1.045
  114SOL    HW1  366   1.285   0.862   0.979
  114SOL    HW2  367   1.397   0.770   1.054
  115SOL     OW  368   1.209   0.525   0.275
  115SOL    HW1  369   1.222   0.441   0.329
  115SOL    HW2  370   1.180   0.599   0.335
  116SOL     OW  371   0.307   0.213   1.231
  116SOL    HW1  372   0.284   0.250   1.321
  116SOL    HW2  373   0.277   0.118   1.225
  117SOL     OW  374   0.037   1.310   1.282
  117SOL    HW1  375   0.090   1.261   1.350
  117SOL    HW2  376   0.059   1.408   1.287
  118SOL     OW  377   0.732   0.634   1.064
  118SOL    HW1  378   0.791   0.608   0.988
  118SOL    HW2  379   0.704   0.730   1.053
  119SOL     OW  380   1.728   0.935   1.854
  119SOL    HW1  381   1.682   0.928   1.765
  119SOL    HW2  382   1.666   0.979   1.920
  120SOL     OW  383   0.307   0.063   0.618
  120SOL    HW1  384   0.296   0.157   0.651
  120SOL    HW2  385   0.302   0.000   0.695
  121SOL     OW  386   1.622   0.367   0.374
  121SOL    HW1  387   1.624   0.291   0.438
  121SOL    HW2  388   1.574   0.444   0.414
  122SOL     OW  389   1.023   0.766   0.966
  122SOL    HW1  390   1.038   0.787   1.062
  122SOL    HW2  391   0.993   0.671   0.957
  123SOL     OW  392   0.980   1.573   1.700
  123SOL    HW1  393   0.960   1.617   1.612
  123SOL    HW2  394   1.019   1.482   1.684
  124SOL     OW  395   1.859   1.518   1.605
  124SOL    HW1  396   1.873   1.545   1.510
  124SOL    HW2  397   1.942   1.540   1.658
  125SOL     OW  398   0.350   0.898   1.804
  125SOL    HW1  399   0.426   0.942   1.852
  125SOL    HW2  400   0.385   0.851   1.722
  126SOL     OW  401   1.540   0.274   0.125
  126SOL    HW1  402   1.479   0.199   0.148
  126SOL    HW2  403   1.562   0.326   0.208
  127SOL     OW  404   1.303   0.838   0.042
  127SOL    HW1  405   1.337   0.745   0.057
  127SOL    HW2  406   1.321   0.865  -0.053
  128SOL     OW  407   1.068   1.333   0.849
  128SOL    HW1  408   1.075   1.249   0.794
  128SOL    HW2  409   1.130   1.402   0.813
  129SOL     OW  410   0.319   0.810   0.949
  129SOL    HW1  411   0.412   0.846   0.954
  129SOL    HW2  412   0.313   0.725   1.001
  130SOL     OW  413   0.339   0.509   1.006
  130SOL    HW1  414   0.287   0.426   0.989
  130SOL    HW2  415   0.416   0.514   0.942
  131SOL     OW  416   1.138   0.380   1.678
  131SOL    HW1  417   1.093   0.443   1.742
  131SOL    HW2  418   1.231   0.411   1.661
  132SOL     OW  419   1.160   0.207   1.477
  132SOL    HW1  420   1.160   0.271   1.554
  132SOL    HW2  421   1.188   0.255   1.394
  133SOL     OW  422   0.008   1.326   0.200
  133SOL    HW1  423  -0.085   1.347   0.169
  133SOL    HW2  424   0.018   1.227   0.213
  134SOL     OW  425   0.088   1.801   0.927
  134SOL    HW1  426   0.046   1.715   0.900
  134SOL    HW2  427   0.182   1.804   0.893
  135SOL     OW  428   0.504   1.568   0.910
  135SOL    HW1  429   0.570   1.642   0.919
  135SOL    HW2  430   0.548   1.489   0.868
  136SOL     OW  431   1.002   0.796   1.238
  136SOL    HW1  432   1.043   0.764   1.324
  136SOL    HW2  433   0.906   0.769   1.235
  137SOL     OW  434   0.040   0.544   1.114
  137SOL    HW1  435   0.125   0.511   1.073
  137SOL    HW2  436   0.053   0.559   1.212
  138SOL     OW  437   0.189   0.520   1.722
  138SOL    HW1  438   0.248   0.480   1.652
  138SOL    HW2  439   0.131   0.591   1.681
  139SOL     OW  440   1.369   0.950   1.660
  139SOL    HW1  441   1.408   1.039   1.680
  139SOL    HW2  442   1.379   0.930   1.563
  140SOL     OW  443   0.815   0.572   0.325
  140SOL    HW1  444   0.822   0.483   0.279
  140SOL    HW2  445   0.721   0.606   0.317
  141SOL     OW  446   1.657   0.604   1.206
  141SOL    HW1  447   1.619   0.535   1.268
  141SOL    HW2  448   1.739   0.568   1.162
  142SOL     OW  449   0.252   1.564   1.744
  142SOL    HW1  450   0.222   1.621   1.820
  142SOL    HW2  451   0.245   1.467   1.770
  143SOL     OW  452   0.671   0.464   1.269
  143SOL    HW1  453   0.637   0.375   1.239
  143SOL    HW2  454   0.697   0.518   1.189
  144SOL     OW  455   0.930   1.678   1.465
  144SOL    HW1  456   0.906   1.660   1.370
  144SOL    HW2  457   0.960   1.772   1.475
  145SOL     OW  458   0.473   0.500   0.191
  145SOL    HW1  459   0.534   0.580   0.195
  145SOL    HW2  460   0.378   0.531   0.198
  146SOL     OW  461   0.159   1.137   1.466
  146SOL    HW1  462   0.181   1.076   1.542
  146SOL    HW2  463   0.169   1.088   1.380
  147SOL     OW  464   1.347   1.059   1.234
  147SOL    HW1  465   1.371   0.996   1.160
  147SOL    HW2  466   1.257   1.099   1.216
  148SOL     OW  467   1.302   0.855   0.309
  148SOL    HW1  468   1.216   0.824   0.351
  148SOL    HW2  469   1.298   0.841   0.210
  149SOL     OW  470   1.252   1.731   1.128
  149SOL    HW1  471   1.336   1.736   1.074
  149SOL    HW2  472   1.229   1.635   1.146
  150SOL     OW  473   0.083   1.258   1.022
  150SOL    HW1  474   0.078   1.257   1.122
  150SOL    HW2  475   0.000   1.217   0.984
  151SOL     OW  476   0.688   1.662   1.716
  151SOL    HW1  477   0.632   1.743   1.725
  151SOL    HW2  478   0.740   1.666   1.630
  152SOL     OW  479   0.903   0.086   0.133
  152SOL    HW1  480   0.954   0.087   0.047
  152SOL    HW2  481   0.959   0.044   0.204
  153SOL     OW  482   1.726   0.135   0.523
  153SOL    HW1  483   1.799   0.118   0.456
  153SOL    HW2  484   1.695   0.048   0.561
  154SOL     OW  485   1.388   1.573   0.477
  154SOL    HW1  486   1.455   1.585   0.403
  154SOL    HW2  487   1.348   1.662   0.500
  155SOL     OW  488   0.130   1.794   1.851
  155SOL    HW1  489   0.089   1.720   1.904
  155SOL    HW2  490   0.194   1.845   1.909
  156SOL     OW  491   1.280   0.927   0.672
  156SOL    HW1  492   1.340   0.846   0.674
  156SOL    HW2  493   1.320   0.996   0.612
  157SOL     OW  494   0.830   1.273   1.422
  157SOL    HW1  495   0.825   1.306   1.517
  157SOL    HW2  496   0.744   1.292   1.376
  158SOL     OW  497   0.672   1.616   0.154
  158SOL    HW1  498   0.681   1.626   0.055
  158SOL    HW2  499   0.632   1.527   0.175
  159SOL     OW  500   1.841   0.175   0.963
  159SOL    HW1  501   1.880   0.090   0.927
  159SOL    HW2  502   1.743   0.177   0.944
  160SOL     OW  503   0.263   0.326   0.720
  160SOL    HW1  504   0.184   0.377   0.686
  160SOL    HW2  505   0.254   0.311   0.818
  161SOL     OW  506   1.194   1.612   0.031
  161SOL    HW1  507   1.200   1.519   0.068
  161SOL    HW2  508   1.135   1.612  -0.049
  162SOL     OW  509   0.822   1.002   1.372
  162SOL    HW1  510   0.862   1.001   1.280
  162SOL    HW2  511   0.832   1.094   1.412
  163SOL     OW  512   0.916   0.910   0.291
  163SOL    HW1  513   0.979   0.948   0.223
  163SOL    HW2  514   0.956   0.827   0.330
  164SOL     OW  515   1.504   1.607   0.044
  164SOL    HW1  516   1.412   1.644   0.051
  164SOL    HW2  517   1.542   1.627  -0.046
  165SOL     OW  518   0.372   1.288   1.490
  165SOL    HW1  519   0.359   1.381   1.456
  165SOL    HW2  520   0.288   1.236   1.477
  166SOL     OW  521   1.039   1.098   0.696
  166SOL    HW1  522   0.969   1.051   0.750
  166SOL    HW2  523   1.098   1.030   0.653
  167SOL     OW  524   1.014   0.236   0.971
  167SOL    HW1  525   1.006   0.200   0.878
  167SOL    HW2  526   1.012   0.160   1.036
  168SOL     OW  527   0.590   1.487   0.491
  168SOL    HW1  528   0.632   1.429   0.421
  168SOL    HW2  529   0.546   1.566   0.447
  169SOL     OW  530   1.709   0.385   1.381
  169SOL    HW1  531   1.782   0.454   1.385
  169SOL    HW2  532   1.737   0.310   1.322
  170SOL     OW  533   0.255   1.348   0.290
  170SOL    HW1  534   0.159   1.349   0.263
  170SOL    HW2  535   0.267   1.401   0.374
  171SOL     OW  536   0.105   1.013   1.726
  171SOL    HW1  537   0.028   0.980   1.780
  171SOL    HW2  538   0.190   0.983   1.768
  172SOL     OW  539   0.672   0.203   1.489
  172SOL    HW1  540   0.762   0.187   1.449
  172SOL    HW2  541   0.680   0.208   1.588
  173SOL     OW  542   0.075   0.345   0.033
  173SOL    HW1  543  -0.017   0.317   0.004
  173SOL    HW2  544   0.106   0.422  -0.023
  174SOL     OW  545   1.440   0.856   1.398
  174SOL    HW1  546   1.383   0.908   1.335
  174SOL    HW2  547   1.536   0.868   1.374
  175SOL     OW  548   0.072   0.166   0.318
  175SOL    HW1  549   0.055   0.249   0.264
  175SOL    HW2  550   0.162   0.129   0.296
  176SOL     OW  551   1.183   1.335   0.119
  176SOL    HW1  552   1.084   1.324   0.121
  176SOL    HW2  553   1.217   1.350   0.212
  177SOL     OW  554   0.613   0.842   1.431
  177SOL    HW1  555   0.669   0.923   1.414
  177SOL    HW2  556   0.672   0.762   1.434
  178SOL     OW  557   1.493   1.767   0.959
  178SOL    HW1  558   1.526   1.831   0.890
  178SOL    HW2  559   1.559   1.761   1.034
  179SOL     OW  560   0.716   0.565   1.708
  179SOL    HW1  561   0.735   0.630   1.782
  179SOL    HW2  562   0.776   0.485   1.717
  180SOL     OW  563   1.450   1.220   1.633
  180SOL    HW1  564   1.441   1.210   1.732
  180SOL    HW2  565   1.546   1.213   1.607
  181SOL     OW  566   0.390   1.741   1.560
  181SOL    HW1  567   0.299   1.782   1.558
  181SOL    HW2  568   0.383   1.647   1.592
  182SOL     OW  569   1.674   0.883   1.254
  182SOL    HW1  570   1.647   0.794   1.217
  182SOL    HW2  571   1.675   0.951   1.181
  183SOL     OW  572   1.225   0.325   0.449
  183SOL    HW1  573   1.290   0.251   0.438
  183SOL    HW2  574   1.245   0.375   0.533
  184SOL     OW  575   0.594   0.745   0.652
  184SOL    HW1  576   0.644   0.830   0.633
  184SOL    HW2  577   0.506   0.747   0.604
  185SOL     OW  578   1.777   0.342   1.642
  185SOL    HW1  579   1.760   0.373   1.548
  185SOL    HW2  580   1.693   0.305   1.680
  186SOL     OW  581   1.730   0.934   1.517
  186SOL    HW1  582   1.768   1.025   1.532
  186SOL    HW2  583   1.722   0.917   1.418
  187SOL     OW  584   0.859   1.374   0.016
  187SOL    HW1  585   0.813   1.389   0.104
  187SOL    HW2  586   0.903   1.459  -0.014
  188SOL     OW  587   0.661   1.790   0.953
  188SOL    HW1  588   0.615   1.878   0.940
  188SOL    HW2  589   0.760   1.802   0.946
  189SOL     OW  590   0.859   0.956   0.861
  189SOL    HW1  591   0.913   0.887   0.909
  189SOL    HW2  592   0.827   1.025   0.927
  190SOL     OW  593   1.083   0.984   0.087
  190SOL    HW1  594   1.060   1.037   0.005
  190SOL    HW2  595   1.164   0.928   0.068
  191SOL     OW  596   1.861   1.569   0.851
  191SOL    HW1  597   1.790   1.557   0.781
  191SOL    HW2  598   1.862   1.490   0.911
  192SOL     OW  599   0.221   1.314   1.844
  192SOL    HW1  600   0.156   1.241   1.823
  192SOL    HW2  601   0.225   1.328   1.942
  193SOL     OW  602   0.079   1.240   0.653
  193SOL    HW1  603   0.078   1.193   0.741
  193SOL    HW2  604   0.161   1.212   0.602
  194SOL     OW  605   0.672   1.391   1.624
  194SOL    HW1  606   0.594   1.341   1.662
  194SOL    HW2  607   0.669   1.486   1.655
  195SOL     OW  608   1.824   0.192   1.227
  195SOL    HW1  609   1.820   0.102   1.271
  195SOL    HW2  610   1.827   0.181   1.128
  196SOL     OW  611   0.428   0.424   0.520
  196SOL    HW1  612   0.458   0.352   0.458
  196SOL    HW2  613   0.389   0.384   0.603
  197SOL     OW  614   0.317   0.547   1.280
  197SOL    HW1  615   0.355   0.488   1.352
  197SOL    HW2  616   0.357   0.521   1.192
  198SOL     OW  617   0.812   1.586   0.687
  198SOL    HW1  618   0.844   1.596   0.593
  198SOL    HW2  619   0.733   1.524   0.689
  199SOL     OW  620   1.424   0.214   1.112
  199SOL    HW1  621   1.476   0.149   1.167
  199SOL    HW2  622   1.375   0.277   1.173
  200SOL     OW  623   1.001   0.034   1.154
  200SOL    HW1  624   0.938  -0.038   1.123
  200SOL    HW2  625   1.094  -0.002   1.154
  201SOL     OW  626   0.770   1.330   0.301
  201SOL    HW1  627   0.724   1.243   0.318
  201SOL    HW2  628   0.861   1.327   0.342
  202SOL     OW  629   0.618   1.567   1.284
  202SOL    HW1  630   0.613   1.649   1.341
  202SOL    HW2  631   0.707   1.564   1.239
  203SOL     OW  632   1.352   0.052   0.168
  203SOL    HW1  633   1.387   0.011   0.084
  203SOL    HW2  634   1.262   0.014   0.188
  204SOL     OW  635   1.300   0.453   0.691
  204SOL    HW1  636   1.241   0.533   0.695
  204SOL    HW2  637   1.315   0.418   0.784
  205SOL     OW  638   1.593   0.221   0.882
  205SOL    HW1  639   1.509   0.220   0.936
  205SOL    HW2  640   1.595   0.304   0.826
  206SOL     OW  641   0.039   1.077   0.300
  206SOL    HW1  642   0.138   1.066   0.291
  206SOL    HW2  643  -0.001   0.991   0.332
  207SOL     OW  644   0.875   1.646   0.337
  207SOL    HW1  645   0.798   1.611   0.283
  207SOL    HW2  646   0.843   1.717   0.399
  208SOL     OW  647   0.230   0.628   1.975
  208SOL    HW1  648   0.137   0.626   2.012
  208SOL    HW2  649   0.231   0.589   1.883
  209SOL     OW  650   0.225   0.275   2.858
  209SOL    HW1  651   0.260   0.258   2.950
  209SOL    HW2  652   0.137   0.230   2.846
  210SOL     OW  653   0.019   0.368   2.509
  210SOL    HW1  654  -0.063   0.411   2.548
  210SOL    HW2  655  -0.009   0.295   2.446
  211SOL     OW  656   0.569   1.275   3.027
  211SOL    HW1  657   0.476   1.268   2.990
  211SOL    HW2  658   0.580   1.364   3.071
  212SOL     OW  659   1.555   1.511   2.565
  212SOL    HW1  660   1.498   1.495   2.646
  212SOL    HW2  661   1.496   1.521   2.485
  213SOL     OW  662   1.135   0.703   2.579
  213SOL    HW1  663   1.192   0.781   2.554
  213SOL    HW2  664   1.075   0.729   2.655
  214SOL     OW  665   1.755   0.607   2.093
  214SOL    HW1  666   1.743   0.594   1.994
  214SOL    HW2  667   1.725   0.526   2.142
  215SOL     OW  668   0.768   1.144   2.885
  215SOL    HW1  669   0.690   1.161   2.945
  215SOL    HW2  670   0.802   1.231   2.849
  216SOL     OW  671   0.685   1.012   2.527
  216SOL    HW1  672   0.754   0.996   2.597
  216SOL    HW2  673   0.612   1.069   2.565
  217SOL     OW  674   0.335   1.435   2.923
  217SOL    HW1  675   0.257   1.404   2.870
  217SOL    HW2  676   0.393   1.493   2.866
  218SOL     OW  677   1.603   0.447   2.599
  218SOL    HW1  678   1.529   0.493   2.549
  218SOL    HW2  679   1.654   0.515   2.652
  219SOL     OW  680   0.231   1.713   2.345
  219SOL    HW1  681   0.265   1.790   2.399
  219SOL    HW2  682   0.275   1.713   2.255
  220SOL     OW  683   0.230   1.434   2.400
  220SOL    HW1  684   0.204   1.530   2.400
  220SOL    HW2  685   0.159   1.380   2.445
  221SOL     OW  686   0.240   1.091   2.748
  221SOL    HW1  687   0.254   1.007   2.800
  221SOL    HW2  688   0.185   1.155   2.803
  222SOL     OW  689   0.606   0.964   1.985
  222SOL    HW1  690   0.613   1.048   1.931
  222SOL    HW2  691   0.652   0.977   2.073
  223SOL     OW  692   0.122   0.643   2.425
  223SOL    HW1  693   0.077   0.555   2.442
  223SOL    HW2  694   0.121   0.697   2.509
  224SOL     OW  695   1.842   1.767   2.221
  224SOL    HW1  696   1.896   1.738   2.301
  224SOL    HW2  697   1.872   1.857   2.192
  225SOL     OW  698   0.027   1.596   1.979
  225SOL    HW1  699   0.008   1.500   2.000
  225SOL    HW2  700  -0.006   1.654   2.054
  226SOL     OW  701   1.689   0.922   2.474
  226SOL    HW1  702   1.784   0.893   2.482
  226SOL    HW2  703   1.681   0.987   2.399
  227SOL     OW  704   1.641   1.108   2.294
  227SOL    HW1  705   1.727   1.110   2.242
  227SOL    HW2  706   1.655   1.155   2.382
  228SOL     OW  707   0.113   0.737   3.459
  228SOL    HW1  708   0.201   0.724   3.504
  228SOL    HW2  709   0.100   0.834   3.437
  229SOL     OW  710   0.613   1.365   2.588
  229SOL    HW1  711   0.564   1.278   2.597
  229SOL    HW2  712   0.590   1.408   2.501
  230SOL     OW  713   0.809   0.004   2.364
  230SOL    HW1  714   0.849   0.095   2.355
  230SOL    HW2  715   0.709   0.012   2.370
  231SOL     OW  716   0.197   0.976   3.126
  231SOL    HW1  717   0.286   0.931   3.112
  231SOL    HW2  718   0.124   0.911   3.107
  232SOL     OW  719   1.525   0.999   2.052
  232SOL    HW1  720   1.462   0.923   2.065
  232SOL    HW2  721   1.573   1.017   2.138
  233SOL     OW  722   1.466   1.417   2.815
  233SOL    HW1  723   1.407   1.423   2.895
  233SOL    HW2  724   1.451   1.329   2.769
  234SOL     OW  725   1.667   1.714   2.434
  234SOL    HW1  726   1.626   1.691   2.346
  234SOL    HW2  727   1.649   1.640   2.499
  235SOL     OW  728   0.598   0.729   2.132
  235SOL    HW1  729   0.622   0.798   2.064
  235SOL    HW2  730   0.520   0.762   2.186
  236SOL     OW  731   1.281   0.345   2.806
  236SOL    HW1  732   1.195   0.295   2.793
  236SOL    HW2  733   1.343   0.291   2.862
  237SOL     OW  734   0.991   0.410   3.104
  237SOL    HW1  735   0.914   0.444   3.158
  237SOL    HW2  736   0.957   0.359   3.025
  238SOL     OW  737   1.041   0.701   2.291
  238SOL    HW1  738   1.067   0.697   2.387
  238SOL    HW2  739   0.956   0.650   2.277
  239SOL     OW  740   0.076   0.811   2.651
  239SOL    HW1  741   0.175   0.799   2.660
  239SOL    HW2  742   0.052   0.906   2.672
  240SOL     OW  743   0.130   1.821   3.433
  240SOL    HW1  744   0.120   1.806   3.532
  240SOL    HW2  745   0.044   1.857   3.397
  241SOL     OW  746   0.865   0.348   2.057
  241SOL    HW1  747   0.924   0.411   2.008
  241SOL    HW2  748   0.884   0.254   2.028
  242SOL     OW  749   1.362   1.144   2.407
  242SOL    HW1  750   1.445   1.115   2.359
  242SOL    HW2  751   1.313   1.211   2.351
  243SOL     OW  752   0.550   0.196   2.747
  243SOL    HW1  753   0.545   0.191   2.847
  243SOL    HW2  754   0.552   0.292   2.718
  244SOL     OW  755   1.008   1.456   2.339
  244SOL    HW1  756   0.962   1.528   2.287
  244SOL    HW2  757   1.004   1.476   2.437
  245SOL     OW  758   0.351   1.801   2.715
  245SOL    HW1  759   0.401   1.715   2.721
  245SOL    HW2  760   0.416   1.878   2.712
  246SOL     OW  761   1.795   1.066   2.735
  246SOL    HW1  762   1.733   1.051   2.659
  246SOL    HW2  763   1.743   1.077   2.820
  247SOL     OW  764   0.321   0.943   2.104
  247SOL    HW1  765   0.403   0.982   2.062
  247SOL    HW2  766   0.294   0.861   2.055
  248SOL     OW  767   1.458   0.735   2.590
  248SOL    HW1  768   1.453   0.670   2.665
  248SOL    HW2  769   1.538   0.794   2.603
  249SOL     OW  770   1.111   1.776   2.099
  249SOL    HW1  771   1.051   1.714   2.149
  249SOL    HW2  772   1.142   1.732   2.014
  250SOL     OW  773   1.632   1.377   1.943
  250SOL    HW1  774   1.600   1.471   1.933
  250SOL    HW2  775   1.556   1.314   1.931
  251SOL     OW  776   0.464   1.743   2.185
  251SOL    HW1  777   0.497   1.782   2.271
  251SOL    HW2  778   0.540   1.736   2.120
  252SOL     OW  779   1.400   0.107   2.288
  252SOL    HW1  780   1.376   0.070   2.198
  252SOL    HW2  781   1.499   0.123   2.292
  253SOL     OW  782   0.249   1.785   3.103
  253SOL    HW1  783   0.306   1.720   3.153
  253SOL    HW2  784   0.233   1.752   3.010
  254SOL     OW  785   0.940   1.698   2.766
  254SOL    HW1  786   1.020   1.641   2.787
  254SOL    HW2  787   0.891   1.658   2.689
  255SOL     OW  788   0.382   0.700   2.342
  255SOL    HW1  789   0.427   0.610   2.339
  255SOL    HW2  790   0.288   0.689   2.375
  256SOL     OW  791   0.614   0.122   1.979
  256SOL    HW1  792   0.712   0.100   1.986
  256SOL    HW2  793   0.583   0.105   1.886
  257SOL     OW  794   0.803   1.402   2.786
  257SOL    HW1  795   0.893   1.416   2.744
  257SOL    HW2  796   0.732   1.404   2.715
  258SOL     OW  797   0.922   0.503   2.761
  258SOL    HW1  798   0.897   0.494   2.665
  258SOL    HW2  799   0.970   0.421   2.792
  259SOL     OW  800   0.539   0.064   2.374
  259SOL    HW1  801   0.458   0.065   2.432
  259SOL    HW2  802   0.542   0.147   2.319
  260SOL     OW  803   1.434   1.188   1.903
  260SOL    HW1  804   1.466   1.112   1.960
  260SOL    HW2  805   1.342   1.215   1.933
  261SOL     OW  806   0.297   0.035   2.033
  261SOL    HW1  807   0.346   0.119   2.012
  261SOL    HW2  808   0.359  -0.030   2.078
  262SOL     OW  809   0.935   0.236   2.342
  262SOL    HW1  810   0.887   0.277   2.264
  262SOL    HW2  811   1.034   0.234   2.323
  263SOL     OW  812   1.227   1.570   2.655
  263SOL    HW1  813   1.248   1.644   2.590
  263SOL    HW2  814   1.295   1.570   2.728
  264SOL     OW  815   0.459   1.152   2.603
  264SOL    HW1  816   0.388   1.125   2.668
  264SOL    HW2  817   0.433   1.124   2.510
  265SOL     OW  818   1.271   1.797   2.453
  265SOL    HW1  819   1.315   1.861   2.389
  265SOL    HW2  820   1.221   1.849   2.523
  266SOL     OW  821   1.032   0.549   1.878
  266SOL    HW1  822   0.991   0.631   1.839
  266SOL    HW2  823   1.096   0.575   1.951
  267SOL     OW  824   0.561   0.222   3.009
  267SOL    HW1  825   0.599   0.138   3.046
  267SOL    HW2  826   0.473   0.241   3.053
  268SOL     OW  827   0.866   0.454   2.504
  268SOL    HW1  828   0.834   0.526   2.442
  268SOL    HW2  829   0.890   0.373   2.451
  269SOL     OW  830   1.017   0.039   2.615
  269SOL    HW1  831   0.945   0.044   2.546
  269SOL    HW2  832   0.993  -0.030   2.684
  270SOL     OW  833   1.429   1.173   2.729
  270SOL    HW1  834   1.374   1.089   2.722
  270SOL    HW2  835   1.455   1.202   2.637
  271SOL     OW  836   1.466   0.590   2.854
  271SOL    HW1  837   1.436   0.495   2.861
  271SOL    HW2  838   1.539   0.606   2.920
  272SOL     OW  839   1.857   0.833   2.239
  272SOL    HW1  840   1.899   0.769   2.303
  272SOL    HW2  841   1.819   0.782   2.161
  273SOL     OW  842   0.488   1.385   2.036
  273SOL    HW1  843   0.401   1.370   2.083
  273SOL    HW2  844   0.471   1.411   1.941
  274SOL     OW  845   1.664   1.280   2.519
  274SOL    HW1  846   1.763   1.288   2.533
  274SOL    HW2  847   1.619   1.364   2.550
  275SOL     OW  848   1.390   0.575   1.940
  275SOL    HW1  849   1.336   0.554   2.021
  275SOL    HW2  850   1.481   0.534   1.949
  276SOL     OW  851   0.527   0.256   2.190
  276SOL    HW1  852   0.554   0.197   2.115
  276SOL    HW2  853   0.527   0.351   2.159
  277SOL     OW  854   1.111   1.195   2.962
  277SOL    HW1  855   1.071   1.239   3.043
  277SOL    HW2  856   1.070   1.232   2.879
  278SOL     OW  857   1.638   1.099   2.941
  278SOL    HW1  858   1.643   1.180   3.000
  278SOL    HW2  859   1.552   1.101   2.890
  279SOL     OW  860   0.705   1.050   2.230
  279SOL    HW1  861   0.691   1.057   2.329
  279SOL    HW2  862   0.789   0.999   2.212
  280SOL     OW  863   0.410   0.813   3.113
  280SOL    HW1  864   0.496   0.825   3.163
  280SOL    HW2  865   0.368   0.726   3.140
  281SOL     OW  866   1.274   0.386   3.124
  281SOL    HW1  867   1.295   0.460   3.188
  281SOL    HW2  868   1.185   0.403   3.081
  282SOL     OW  869   0.367   1.100   2.363
  282SOL    HW1  870   0.360   1.183   2.307
  282SOL    HW2  871   0.371   1.020   2.303
  283SOL     OW  872   0.566   0.537   2.727
  283SOL    HW1  873   0.578   0.603   2.653
  283SOL    HW2  874   0.612   0.571   2.810
  284SOL     OW  875   1.252   1.348   2.250
  284SOL    HW1  876   1.302   1.425   2.290
  284SOL    HW2  877   1.157   1.350   2.282
  285SOL     OW  878   1.272   1.445   3.004
  285SOL    HW1  879   1.319   1.458   3.091
  285SOL    HW2  880   1.206   1.371   3.013
  286SOL     OW  881   1.582   0.639   2.334
  286SOL    HW1  882   1.551   0.700   2.407
  286SOL    HW2  883   1.632   0.691   2.265
  287SOL     OW  884   0.354   1.510   3.191
  287SOL    HW1  885   0.333   1.466   3.104
  287SOL    HW2  886   0.451   1.536   3.194
  288SOL     OW  887   0.573   0.870   2.891
  288SOL    HW1  888   0.617   0.959   2.882
  288SOL    HW2  889   0.510   0.870   2.968
  289SOL     OW  890   1.360   0.862   2.907
  289SOL    HW1  891   1.285   0.862   2.841
  289SOL    HW2  892   1.397   0.770   2.916
  290SOL     OW  893   1.209   0.525   2.137
  290SOL    HW1  894   1.222   0.441   2.191
  290SOL    HW2  895   1.180   0.599   2.197
  291SOL     OW  896   0.307   0.213   3.093
  291SOL    HW1  897   0.284   0.250   3.183
  291SOL    HW2  898   0.277   0.118   3.087
  292SOL     OW  899   0.037   1.310   3.144
  292SOL    HW1  900   0.090   1.261   3.212
  292SOL    HW2  901   0.059   1.408   3.149
  293SOL     OW  902   0.732   0.634   2.926
  293SOL    HW1  903   0.791   0.608   2.850
  293SOL    HW2  904   0.704   0.730   2.915
  294SOL     OW  905   0.307   0.063   2.480
  294SOL    HW1  906   0.296   0.157   2.513
  294SOL    HW2  907   0.302   0.000   2.557
  295SOL     OW  908   1.622   0.367   2.236
  295SOL    HW1  909   1.624   0.291   2.300
  295SOL    HW2  910   1.574   0.444   2.276
  296SOL     OW  911   1.023   0.766   2.828
  296SOL    HW1  912   1.038   0.787   2.924
  296SOL    HW2  913   0.993   0.671   2.819
  297SOL     OW  914   1.540   0.274   1.987
  297SOL    HW1  915   1.479   0.199   2.010
  297SOL    HW2  916   1.562   0.326   2.070
  298SOL     OW  917   1.303   0.838   1.904
  298SOL    HW1  918   1.337   0.745   1.919
  298SOL    HW2  919   1.321   0.865   1.809
  299SOL     OW  920   1.068   1.333   2.711
  299SOL    HW1  921   1.075   1.249   2.656
  299SOL    HW2  922   1.130   1.402   2.675
  300SOL     OW  923   0.319   0.810   2.811
  300SOL    HW1  924   0.412   0.846   2.816
  300SOL    HW2  925   0.313   0.725   2.863
  301SOL     OW  926   0.339   0.509   2.868
  301SOL    HW1  927   0.287   0.426   2.851
  301SOL    HW2  928   0.416   0.514   2.804
  302SOL     OW  929   1.160   0.207   3.339
  302SOL    HW1  930   1.160   0.271   3.416
  302SOL    HW2  931   1.188   0.255   3.256
  303SOL     OW  932   0.008   1.326   2.062
  303SOL    HW1  933  -0.085   1.347   2.031
  303SOL    HW2  934   0.018   1.227   2.075
  304SOL     OW  935   0.088   1.801   2.789
  304SOL    HW1  936   0.046   1.715   2.762
  304SOL    HW2  937   0.182   1.804   2.755
  305SOL     OW  938   0.504   1.568   2.772
  305SOL    HW1  939   0.570   1.642   2.781
  305SOL    HW2  940   0.548   1.489   2.730
  306SOL     OW  941   1.002   0.796   3.100
  306SOL    HW1  942   1.043   0.764   3.186
  306SOL    HW2  943   0.906   0.769   3.097
  307SOL     OW  944   0.040   0.544   2.976
  307SOL    HW1  945   0.125   0.511   2.935
  307SOL    HW2  946   0.053   0.559   3.074
  308SOL     OW  947   0.815   0.572   2.187
  308SOL    HW1  948   0.822   0.483   2.141
  308SOL    HW2  949   0.721   0.606   2.179
  309SOL     OW  950   1.657   0.604   3.068
  309SOL    HW1  951   1.619   0.535   3.130
  309SOL    HW2  952   1.739   0.568   3.024
  310SOL     OW  953   0.671   0.464   3.131
  310SOL    HW1  954   0.637   0.375   3.101
  310SOL    HW2  955   0.697   0.518   3.051
  311SOL     OW  956   0.930   1.678   3.327
  311SOL    HW1  957   0.906   1.660   3.232
  311SOL    HW2  958   0.960   1.772   3.337
  312SOL     OW  959   0.473   0.500   2.053
  312SOL    HW1  960   0.534   0.580   2.057
  312SOL    HW2  961   0.378   0.531   2.060
  313SOL     OW  962   1.347   1.059   3.096
  313SOL    HW1  963   1.371   0.996   3.022
  313SOL    HW2  964   1.257   1.099   3.078
  314SOL     OW  965   1.302   0.855   2.171
  314SOL    HW1  966   1.216   0.824   2.213
  314SOL    HW2  967   1.298   0.841   2.072
  315SOL     OW  968   1.759   1.747   3.016
  315SOL    HW1  969   1.820   1.777   2.943
  315SOL    HW2  970   1.721   1.658   2.994
  316SOL     OW  971   1.252   1.731   2.990
  316SOL    HW1  972   1.336   1.736   2.936
  316SOL    HW2  973   1.229   1.635   3.008
  317SOL     OW  974   0.083   1.258   2.884
  317SOL    HW1  975   0.078   1.257   2.984
  317SOL    HW2  976   0.000   1.217   2.846
  318SOL     OW  977   1.726   0.135   2.385
  318SOL    HW1  978   1.799   0.118   2.318
  318SOL    HW2  979   1.695   0.048   2.423
  319SOL     OW  980   1.388   1.573   2.339
  319SOL    HW1  981   1.455   1.585   2.265
  319SOL    HW2  982   1.348   1.662   2.362
  320SOL     OW  983   1.280   0.927   2.534
  320SOL    HW1  984   1.340   0.846   2.536
  320SOL    HW2  985   1.320   0.996   2.474
  321SOL     OW  986   0.672   1.616   2.016
  321SOL    HW1  987   0.681   1.626   1.917
  321SOL    HW2  988   0.632   1.527   2.037
  322SOL     OW  989   1.650   1.720   3.256
  322SOL    HW1  990   1.703   1.730   3.172
  322SOL    HW2  991   1.623   1.810   3.290
  323SOL     OW  992   1.841   0.175   2.825
  323SOL    HW1  993   1.880   0.090   2.789
  323SOL    HW2  994   1.743   0.177   2.806
  324SOL     OW  995   0.263   0.326   2.582
  324SOL    HW1  996   0.184   0.377   2.548
  324SOL    HW2  997   0.254   0.311   2.680
  325SOL     OW  998   1.194   1.612   1.893
  325SOL    HW1  999   1.200   1.519   1.930
  325SOL    HW2 1000   1.135   1.612   1.813
  326SOL     OW 1001   0.822   1.002   3.234
  326SOL    HW1 1002   0.862   1.001   3.142
  326SOL    HW2 1003   0.832   1.094   3.274
  327SOL     OW 1004   0.916   0.910   2.153
  327SOL    HW1 1005   0.979   0.948   2.085
  327SOL    HW2 1006   0.956   0.827   2.192
  328SOL     OW 1007   1.039   1.098   2.558
  328SOL    HW1 1008   0.969   1.051   2.612
  328SOL    HW2 1009   1.098   1.030   2.515
  329SOL     OW 1010   1.014   0.236   2.833
  329SOL    HW1 1011   1.006   0.200   2.740
  329SOL    HW2 1012   1.012   0.160   2.898
  330SOL     OW 1013   0.590   1.487   2.353
  330SOL    HW1 1014   0.632   1.429   2.283
  330SOL    HW2 1015   0.546   1.566   2.309
  331SOL     OW 1016   1.709   0.385   3.243
  331SOL    HW1 1017   1.782   0.454   3.247
  331SOL    HW2 1018   1.737   0.310   3.184
  332SOL     OW 1019   0.255   1.348   2.152
  332SOL    HW1 1020   0.159   1.349   2.125
  332SOL    HW2 1021   0.267   1.401   2.236
  333SOL     OW 1022   0.075   0.345   1.895
  333SOL    HW1 1023  -0.017   0.317   1.866
  333SOL    HW2 1024   0.106   0.422   1.839
  334SOL     OW 1025   0.072   0.166   2.180
  334SOL    HW1 1026   0.055   0.249   2.126
  334SOL    HW2 1027   0.162   0.129   2.158
  335SOL     OW 1028   1.183   1.335   1.981
  335SOL    HW1 1029   1.084   1.324   1.983
  335SOL    HW2 1030   1.217   1.350   2.074
  336SOL     OW 1031   1.493   1.767   2.821
  336SOL    HW1 1032   1.526   1.831   2.752
  336SOL    HW2 1033   1.559   1.761   2.896
  337SOL     OW 1034   1.674   0.883   3.116
  337SOL    HW1 1035   1.647   0.794   3.079
  337SOL    HW2 1036   1.675   0.951   3.043
  338SOL     OW 1037   1.225   0.325   2.311
  338SOL    HW1 1038   1.290   0.251   2.300
  338SOL    HW2 1039   1.245   0.375   2.395
  339SOL     OW 1040   0.594   0.745   2.514
  339SOL    HW1 1041   0.644   0.830   2.495
  339SOL    HW2 1042   0.506   0.747   2.466
  340SOL     OW 1043   1.730   0.934   3.379
  340SOL    HW1 1044   1.768   1.025   3.394
  340SOL    HW2 1045   1.722   0.917   3.280
  341SOL     OW 1046   0.859   1.374   1.878
  341SOL    HW1 1047   0.813   1.389   1.966
  341SOL    HW2 1048   0.903   1.459   1.848
  342SOL     OW 1049   0.661   1.790   2.815
  342SOL    HW1 1050   0.615   1.878   2.802
  342SOL    HW2 1051   0.760   1.802   2.808
  343SOL     OW 1052   0.859   0.956   2.723
  343SOL    HW1 1053   0.913   0.887   2.771
  343SOL    HW2 1054   0.827   1.025   2.789
  344SOL     OW 1055   1.083   0.984   1.949
  344SOL    HW1 1056   1.060   1.037   1.867
  344SOL    HW2 1057   1.164   0.928   1.930
  345SOL     OW 1058   1.861   1.569   2.713
  345SOL    HW1 1059   1.790   1.557   2.643
  345SOL    HW2 1060   1.862   1.490   2.773
  346SOL     OW 1061   0.079   1.240   2.515
  346SOL    HW1 1062   0.078   1.193   2.603
  346SOL    HW2 1063   0.161   1.212   2.464
  347SOL     OW 1064   1.824   0.192   3.089
  347SOL    HW1 1065   1.820   0.102   3.133
  347SOL    HW2 1066   1.827   0.181   2.990
  348SOL     OW 1067   0.428   0.424   2.382
  348SOL    HW1 1068   0.458   0.352   2.320
  348SOL    HW2 1069   0.389   0.384   2.465
  349SOL     OW 1070   1.705   1.487   2.966
  349SOL    HW1 1071   1.612   1.462   2.939
  349SOL    HW2 1072   1.731   1.437   3.048
  350SOL     OW 1073   0.812   1.586   2.549
  350SOL    HW1 1074   0.844   1.596   2.455
  350SOL    HW2 1075   0.733   1.524   2.551
  351SOL     OW 1076   1.424   0.214   2.974
  351SOL    HW1 1077   1.476   0.149   3.029
  351SOL    HW2 1078   1.375   0.277   3.035
  352SOL     OW 1079   1.001   0.034   3.016
  352SOL    HW1 1080   0.938  -0.038   2.985
  352SOL    HW2 1081   1.094  -0.002   3.016
  353SOL     OW 1082   0.770   1.330   2.163
  353SOL    HW1 1083   0.724   1.243   2.180
  353SOL    HW2 1084   0.861   1.327   2.204
  354SOL     OW 1085   1.352   0.052   2.030
  354SOL    HW1 1086   1.387   0.011   1.946
  354SOL    HW2 1087   1.262   0.014   2.050
  355SOL     OW 1088   1.300   0.453   2.553
  355SOL    HW1 1089   1.241   0.533   2.557
  355SOL    HW2 1090   1.315   0.418   2.646
  356SOL     OW 1091   1.593   0.221   2.744
  356SOL    HW1 1092   1.509   0.220   2.798
  356SOL    HW2 1093   1.595   0.304   2.688
  357SOL     OW 1094   0.039   1.077   2.162
  357SOL    HW1 1095   0.138   1.066   2.153
  357SOL    HW2 1096  -0.001   0.991   2.194
  358SOL     OW 1097   0.875   1.646   2.199
  358SOL    HW1 1098   0.798   1.611   2.145
  358SOL    HW2 1099   0.843   1.717   2.261
  359SOL     OW 1100   0.230   2.490   0.113
  359SOL    HW1 1101   0.137   2.488   0.150
  359SOL    HW2 1102   0.231   2.451   0.021
  360SOL     OW 1103   0.225   2.137   0.996
  360SOL    HW1 1104   0.260   2.120   1.088
  360SOL    HW2 1105   0.137   2.092   0.984
  361SOL     OW 1106   0.019   2.230   0.647
  361SOL    HW1 1107  -0.063   2.273   0.686
  361SOL    HW2 1108  -0.009   2.157   0.584
  362SOL     OW 1109   1.135   2.565   0.717
  362SOL    HW1 1110   1.192   2.643   0.692
  362SOL    HW2 1111   1.075   2.591   0.793
  363SOL     OW 1112   1.755   2.469   0.231
  363SOL    HW1 1113   1.743   2.456   0.132
  363SOL    HW2 1114   1.725   2.388   0.280
  364SOL     OW 1115   0.768   3.006   1.023
  364SOL    HW1 1116   0.690   3.023   1.083
  364SOL    HW2 1117   0.802   3.093   0.987
  365SOL     OW 1118   0.850   2.660   1.823
  365SOL    HW1 1119   0.846   2.736   1.888
  365SOL    HW2 1120   0.872   2.696   1.732
  366SOL     OW 1121   0.685   2.874   0.665
  366SOL    HW1 1122   0.754   2.858   0.735
  366SOL    HW2 1123   0.612   2.931   0.703
  367SOL     OW 1124   0.686   3.023   1.803
  367SOL    HW1 1125   0.746   3.102   1.817
  367SOL    HW2 1126   0.600   3.054   1.762
  368SOL     OW 1127   0.335   3.297   1.061
  368SOL    HW1 1128   0.257   3.266   1.008
  368SOL    HW2 1129   0.393   3.355   1.004
  369SOL     OW 1130   0.438   2.254   1.499
  369SOL    HW1 1131   0.520   2.198   1.508
  369SOL    HW2 1132   0.357   2.196   1.503
  370SOL     OW 1133   1.603   2.309   0.737
  370SOL    HW1 1134   1.529   2.355   0.687
  370SOL    HW2 1135   1.654   2.377   0.790
  371SOL     OW 1136   0.240   2.953   0.886
  371SOL    HW1 1137   0.254   2.869   0.938
  371SOL    HW2 1138   0.185   3.017   0.941
  372SOL     OW 1139   0.606   2.826   0.123
  372SOL    HW1 1140   0.613   2.910   0.069
  372SOL    HW2 1141   0.652   2.839   0.211
  373SOL     OW 1142   1.594   1.976   1.480
  373SOL    HW1 1143   1.576   2.043   1.408
  373SOL    HW2 1144   1.591   2.022   1.569
  374SOL     OW 1145   0.122   2.505   0.563
  374SOL    HW1 1146   0.077   2.417   0.580
  374SOL    HW2 1147   0.121   2.559   0.647
  375SOL     OW 1148   1.689   2.784   0.612
  375SOL    HW1 1149   1.784   2.755   0.620
  375SOL    HW2 1150   1.681   2.849   0.537
  376SOL     OW 1151   1.641   2.970   0.432
  376SOL    HW1 1152   1.727   2.972   0.380
  376SOL    HW2 1153   1.655   3.017   0.520
  377SOL     OW 1154   0.113   2.599   1.597
  377SOL    HW1 1155   0.201   2.586   1.642
  377SOL    HW2 1156   0.100   2.696   1.575
  378SOL     OW 1157   1.293   3.090   1.423
  378SOL    HW1 1158   1.330   3.017   1.365
  378SOL    HW2 1159   1.345   3.095   1.508
  379SOL     OW 1160   0.809   1.866   0.502
  379SOL    HW1 1161   0.849   1.957   0.493
  379SOL    HW2 1162   0.709   1.874   0.508
  380SOL     OW 1163   0.197   2.838   1.264
  380SOL    HW1 1164   0.286   2.793   1.250
  380SOL    HW2 1165   0.124   2.773   1.245
  381SOL     OW 1166   1.525   2.861   0.190
  381SOL    HW1 1167   1.462   2.785   0.203
  381SOL    HW2 1168   1.573   2.879   0.276
  382SOL     OW 1169   0.317   2.113   1.801
  382SOL    HW1 1170   0.388   2.184   1.807
  382SOL    HW2 1171   0.229   2.152   1.829
  383SOL     OW 1172   0.598   2.591   0.270
  383SOL    HW1 1173   0.622   2.660   0.202
  383SOL    HW2 1174   0.520   2.624   0.324
  384SOL     OW 1175   1.281   2.207   0.944
  384SOL    HW1 1176   1.195   2.157   0.931
  384SOL    HW2 1177   1.343   2.153   1.000
  385SOL     OW 1178   0.807   2.467   1.465
  385SOL    HW1 1179   0.760   2.464   1.554
  385SOL    HW2 1180   0.756   2.412   1.399
  386SOL     OW 1181   1.394   2.331   1.674
  386SOL    HW1 1182   1.374   2.374   1.762
  386SOL    HW2 1183   1.472   2.269   1.683
  387SOL     OW 1184   0.973   2.752   1.572
  387SOL    HW1 1185   1.019   2.668   1.543
  387SOL    HW2 1186   0.917   2.786   1.497
  388SOL     OW 1187   0.991   2.272   1.242
  388SOL    HW1 1188   0.914   2.306   1.296
  388SOL    HW2 1189   0.957   2.221   1.163
  389SOL     OW 1190   1.041   2.563   0.429
  389SOL    HW1 1191   1.067   2.559   0.525
  389SOL    HW2 1192   0.956   2.512   0.415
  390SOL     OW 1193   0.076   2.673   0.789
  390SOL    HW1 1194   0.175   2.661   0.798
  390SOL    HW2 1195   0.052   2.768   0.810
  391SOL     OW 1196   0.865   2.210   0.195
  391SOL    HW1 1197   0.924   2.273   0.146
  391SOL    HW2 1198   0.884   2.116   0.166
  392SOL     OW 1199   1.719   2.447   1.831
  392SOL    HW1 1200   1.693   2.536   1.795
  392SOL    HW2 1201   1.717   2.379   1.758
  393SOL     OW 1202   1.362   3.006   0.545
  393SOL    HW1 1203   1.445   2.977   0.497
  393SOL    HW2 1204   1.313   3.073   0.489
  394SOL     OW 1205   0.550   2.058   0.885
  394SOL    HW1 1206   0.545   2.053   0.985
  394SOL    HW2 1207   0.552   2.154   0.856
  395SOL     OW 1208   1.795   2.928   0.873
  395SOL    HW1 1209   1.733   2.913   0.797
  395SOL    HW2 1210   1.743   2.939   0.958
  396SOL     OW 1211   0.321   2.805   0.242
  396SOL    HW1 1212   0.403   2.844   0.200
  396SOL    HW2 1213   0.294   2.723   0.193
  397SOL     OW 1214   1.458   2.597   0.728
  397SOL    HW1 1215   1.453   2.532   0.803
  397SOL    HW2 1216   1.538   2.656   0.741
  398SOL     OW 1217   0.202   2.147   1.498
  398SOL    HW1 1218   0.122   2.207   1.485
  398SOL    HW2 1219   0.192   2.098   1.584
  399SOL     OW 1220   1.632   3.239   0.081
  399SOL    HW1 1221   1.600   3.333   0.071
  399SOL    HW2 1222   1.556   3.176   0.069
  400SOL     OW 1223   1.400   1.969   0.426
  400SOL    HW1 1224   1.376   1.932   0.336
  400SOL    HW2 1225   1.499   1.985   0.430
  401SOL     OW 1226   0.382   2.562   0.480
  401SOL    HW1 1227   0.427   2.472   0.477
  401SOL    HW2 1228   0.288   2.551   0.513
  402SOL     OW 1229   1.547   2.084   1.729
  402SOL    HW1 1230   1.542   2.121   1.821
  402SOL    HW2 1231   1.475   2.015   1.717
  403SOL     OW 1232   0.614   1.984   0.117
  403SOL    HW1 1233   0.712   1.962   0.124
  403SOL    HW2 1234   0.583   1.967   0.024
  404SOL     OW 1235   0.781   2.126   1.749
  404SOL    HW1 1236   0.848   2.065   1.792
  404SOL    HW2 1237   0.708   2.145   1.814
  405SOL     OW 1238   1.351   2.452   1.433
  405SOL    HW1 1239   1.379   2.409   1.518
  405SOL    HW2 1240   1.376   2.548   1.434
  406SOL     OW 1241   0.803   3.264   0.924
  406SOL    HW1 1242   0.893   3.278   0.882
  406SOL    HW2 1243   0.732   3.266   0.853
  407SOL     OW 1244   0.922   2.365   0.899
  407SOL    HW1 1245   0.897   2.356   0.803
  407SOL    HW2 1246   0.970   2.283   0.930
  408SOL     OW 1247   0.539   1.926   0.512
  408SOL    HW1 1248   0.458   1.927   0.570
  408SOL    HW2 1249   0.542   2.009   0.457
  409SOL     OW 1250   0.297   1.897   0.171
  409SOL    HW1 1251   0.346   1.981   0.150
  409SOL    HW2 1252   0.359   1.832   0.216
  410SOL     OW 1253   0.935   2.098   0.480
  410SOL    HW1 1254   0.887   2.139   0.402
  410SOL    HW2 1255   1.034   2.096   0.461
  411SOL     OW 1256   1.076   2.545   1.464
  411SOL    HW1 1257   0.996   2.484   1.467
  411SOL    HW2 1258   1.157   2.492   1.440
  412SOL     OW 1259   0.459   3.014   0.741
  412SOL    HW1 1260   0.388   2.987   0.806
  412SOL    HW2 1261   0.433   2.986   0.648
  413SOL     OW 1262   1.032   2.411   0.016
  413SOL    HW1 1263   0.991   2.493  -0.023
  413SOL    HW2 1264   1.096   2.437   0.089
  414SOL     OW 1265   0.078   2.418   1.386
  414SOL    HW1 1266   0.170   2.417   1.345
  414SOL    HW2 1267   0.072   2.492   1.453
  415SOL     OW 1268   0.561   2.084   1.147
  415SOL    HW1 1269   0.599   2.000   1.184
  415SOL    HW2 1270   0.473   2.103   1.191
  416SOL     OW 1271   0.866   2.316   0.642
  416SOL    HW1 1272   0.834   2.388   0.580
  416SOL    HW2 1273   0.890   2.235   0.589
  417SOL     OW 1274   1.017   1.901   0.753
  417SOL    HW1 1275   0.945   1.906   0.684
  417SOL    HW2 1276   0.993   1.832   0.822
  418SOL     OW 1277   1.429   3.035   0.867
  418SOL    HW1 1278   1.374   2.951   0.860
  418SOL    HW2 1279   1.455   3.064   0.775
  419SOL     OW 1280   1.466   2.452   0.992
  419SOL    HW1 1281   1.436   2.357   0.999
  419SOL    HW2 1282   1.539   2.468   1.058
  420SOL     OW 1283   1.857   2.695   0.377
  420SOL    HW1 1284   1.899   2.631   0.441
  420SOL    HW2 1285   1.819   2.644   0.299
  421SOL     OW 1286   1.390   2.437   0.078
  421SOL    HW1 1287   1.336   2.416   0.159
  421SOL    HW2 1288   1.481   2.396   0.087
  422SOL     OW 1289   0.527   2.118   0.328
  422SOL    HW1 1290   0.554   2.059   0.253
  422SOL    HW2 1291   0.527   2.213   0.297
  423SOL     OW 1292   1.754   3.085   1.588
  423SOL    HW1 1293   1.845   3.046   1.575
  423SOL    HW2 1294   1.762   3.181   1.612
  424SOL     OW 1295   1.638   2.961   1.079
  424SOL    HW1 1296   1.643   3.042   1.138
  424SOL    HW2 1297   1.552   2.963   1.028
  425SOL     OW 1298   0.915   1.951   1.402
  425SOL    HW1 1299   0.940   1.931   1.307
  425SOL    HW2 1300   0.987   2.007   1.444
  426SOL     OW 1301   0.980   2.978   1.719
  426SOL    HW1 1302   0.881   2.984   1.729
  426SOL    HW2 1303   1.003   2.898   1.663
  427SOL     OW 1304   0.705   2.912   0.368
  427SOL    HW1 1305   0.691   2.919   0.467
  427SOL    HW2 1306   0.789   2.861   0.350
  428SOL     OW 1307   0.410   2.675   1.251
  428SOL    HW1 1308   0.496   2.687   1.301
  428SOL    HW2 1309   0.368   2.588   1.278
  429SOL     OW 1310   1.274   2.248   1.262
  429SOL    HW1 1311   1.295   2.322   1.326
  429SOL    HW2 1312   1.185   2.265   1.219
  430SOL     OW 1313   0.367   2.962   0.501
  430SOL    HW1 1314   0.360   3.045   0.445
  430SOL    HW2 1315   0.371   2.882   0.441
  431SOL     OW 1316   0.566   2.399   0.865
  431SOL    HW1 1317   0.578   2.465   0.791
  431SOL    HW2 1318   0.612   2.433   0.948
  432SOL     OW 1319   1.582   2.501   0.472
  432SOL    HW1 1320   1.551   2.562   0.545
  432SOL    HW2 1321   1.632   2.553   0.403
  433SOL     OW 1322   0.402   2.613   1.598
  433SOL    HW1 1323   0.470   2.668   1.551
  433SOL    HW2 1324   0.442   2.525   1.625
  434SOL     OW 1325   1.587   2.641   1.670
  434SOL    HW1 1326   1.495   2.679   1.665
  434SOL    HW2 1327   1.647   2.688   1.605
  435SOL     OW 1328   1.013   1.967   1.770
  435SOL    HW1 1329   1.019   2.052   1.718
  435SOL    HW2 1330   1.045   1.891   1.713
  436SOL     OW 1331   0.504   1.912   1.740
  436SOL    HW1 1332   0.462   1.855   1.670
  436SOL    HW2 1333   0.438   1.981   1.772
  437SOL     OW 1334   0.573   2.732   1.029
  437SOL    HW1 1335   0.617   2.821   1.020
  437SOL    HW2 1336   0.510   2.732   1.106
  438SOL     OW 1337   1.360   2.724   1.045
  438SOL    HW1 1338   1.285   2.724   0.979
  438SOL    HW2 1339   1.397   2.632   1.054
  439SOL     OW 1340   1.209   2.387   0.275
  439SOL    HW1 1341   1.222   2.303   0.329
  439SOL    HW2 1342   1.180   2.461   0.335
  440SOL     OW 1343   0.307   2.075   1.231
  440SOL    HW1 1344   0.284   2.112   1.321
  440SOL    HW2 1345   0.277   1.980   1.225
  441SOL     OW 1346   0.037   3.172   1.282
  441SOL    HW1 1347   0.090   3.123   1.350
  441SOL    HW2 1348   0.059   3.270   1.287
  442SOL     OW 1349   0.732   2.496   1.064
  442SOL    HW1 1350   0.791   2.470   0.988
  442SOL    HW2 1351   0.704   2.592   1.053
  443SOL     OW 1352   1.728   2.797   1.854
  443SOL    HW1 1353   1.682   2.790   1.765
  443SOL    HW2 1354   1.666   2.841   1.920
  444SOL     OW 1355   0.307   1.925   0.618
  444SOL    HW1 1356   0.296   2.019   0.651
  444SOL    HW2 1357   0.302   1.862   0.695
  445SOL     OW 1358   1.622   2.229   0.374
  445SOL    HW1 1359   1.624   2.153   0.438
  445SOL    HW2 1360   1.574   2.306   0.414
  446SOL     OW 1361   1.023   2.628   0.966
  446SOL    HW1 1362   1.038   2.649   1.062
  446SOL    HW2 1363   0.993   2.533   0.957
  447SOL     OW 1364   1.859   3.380   1.605
  447SOL    HW1 1365   1.873   3.407   1.510
  447SOL    HW2 1366   1.942   3.402   1.658
  448SOL     OW 1367   0.350   2.760   1.804
  448SOL    HW1 1368   0.426   2.804   1.852
  448SOL    HW2 1369   0.385   2.713   1.722
  449SOL     OW 1370   1.540   2.136   0.125
  449SOL    HW1 1371   1.479   2.061   0.148
  449SOL    HW2 1372   1.562   2.188   0.208
  450SOL     OW 1373   1.303   2.700   0.042
  450SOL    HW1 1374   1.337   2.607   0.057
  450SOL    HW2 1375   1.321   2.727  -0.053
  451SOL     OW 1376   0.319   2.672   0.949
  451SOL    HW1 1377   0.412   2.708   0.954
  451SOL    HW2 1378   0.313   2.587   1.001
  452SOL     OW 1379   0.339   2.371   1.006
  452SOL    HW1 1380   0.287   2.288   0.989
  452SOL    HW2 1381   0.416   2.376   0.942
  453SOL     OW 1382   1.138   2.242   1.678
  453SOL    HW1 1383   1.093   2.305   1.742
  453SOL    HW2 1384   1.231   2.273   1.661
  454SOL     OW 1385   1.160   2.069   1.477
  454SOL    HW1 1386   1.160   2.133   1.554
  454SOL    HW2 1387   1.188   2.117   1.394
  455SOL     OW 1388   0.008   3.188   0.200
  455SOL    HW1 1389  -0.085   3.209   0.169
  455SOL    HW2 1390   0.018   3.089   0.213
  456SOL     OW 1391   1.002   2.658   1.238
  456SOL    HW1 1392   1.043   2.626   1.324
  456SOL    HW2 1393   0.906   2.631   1.235
  457SOL     OW 1394   0.040   2.406   1.114
  457SOL    HW1 1395   0.125   2.373   1.073
  457SOL    HW2 1396   0.053   2.421   1.212
  458SOL     OW 1397   0.189   2.382   1.722
  458SOL    HW1 1398   0.248   2.342   1.652
  458SOL    HW2 1399   0.131   2.453   1.681
  459SOL     OW 1400   1.369   2.812   1.660
  459SOL    HW1 1401   1.408   2.901   1.680
  459SOL    HW2 1402   1.379   2.792   1.563
  460SOL     OW 1403   0.815   2.434   0.325
  460SOL    HW1 1404   0.822   2.345   0.279
  460SOL    HW2 1405   0.721   2.468   0.317
  461SOL     OW 1406   1.657   2.466   1.206
  461SOL    HW1 1407   1.619   2.397   1.268
  461SOL    HW2 1408   1.739   2.430   1.162
  462SOL     OW 1409   0.671   2.326   1.269
  462SOL    HW1 1410   0.637   2.237   1.239
  462SOL    HW2 1411   0.697   2.380   1.189
  463SOL     OW 1412   0.473   2.362   0.191
  463SOL    HW1 1413   0.534   2.442   0.195
  463SOL    HW2 1414   0.378   2.393   0.198
  464SOL     OW 1415   0.159   2.999   1.466
  464SOL    HW1 1416   0.181   2.938   1.542
  464SOL    HW2 1417   0.169   2.950   1.380
  465SOL     OW 1418   1.347   2.921   1.234
  465SOL    HW1 1419   1.371   2.858   1.160
  465SOL    HW2 1420   1.257   2.961   1.216
  466SOL     OW 1421   1.302   2.717   0.309
  466SOL    HW1 1422   1.216   2.686   0.351
  466SOL    HW2 1423   1.298   2.703   0.210
  467SOL     OW 1424   0.083   3.120   1.022
  467SOL    HW1 1425   0.078   3.119   1.122
  467SOL    HW2 1426   0.000   3.079   0.984
  468SOL     OW 1427   0.903   1.948   0.133
  468SOL    HW1 1428   0.954   1.949   0.047
  468SOL    HW2 1429   0.959   1.906   0.204
  469SOL     OW 1430   1.726   1.997   0.523
  469SOL    HW1 1431   1.799   1.980   0.456
  469SOL    HW2 1432   1.695   1.910   0.561
  470SOL     OW 1433   1.280   2.789   0.672
  470SOL    HW1 1434   1.340   2.708   0.674
  470SOL    HW2 1435   1.320   2.858   0.612
  471SOL     OW 1436   1.841   2.037   0.963
  471SOL    HW1 1437   1.880   1.952   0.927
  471SOL    HW2 1438   1.743   2.039   0.944
  472SOL     OW 1439   0.263   2.188   0.720
  472SOL    HW1 1440   0.184   2.239   0.686
  472SOL    HW2 1441   0.254   2.173   0.818
  473SOL     OW 1442   0.822   2.864   1.372
  473SOL    HW1 1443   0.862   2.863   1.280
  473SOL    HW2 1444   0.832   2.956   1.412
  474SOL     OW 1445   0.916   2.772   0.291
  474SOL    HW1 1446   0.979   2.810   0.223
  474SOL    HW2 1447   0.956   2.689   0.330
  475SOL     OW 1448   0.372   3.150   1.490
  475SOL    HW1 1449   0.359   3.243   1.456
  475SOL    HW2 1450   0.288   3.098   1.477
  476SOL     OW 1451   1.614   3.154   1.289
  476SOL    HW1 1452   1.674   3.157   1.369
  476SOL    HW2 1453   1.539   3.218   1.302
  477SOL     OW 1454   1.039   2.960   0.696
  477SOL    HW1 1455   0.969   2.913   0.750
  477SOL    HW2 1456   1.098   2.892   0.653
  478SOL     OW 1457   1.014   2.098   0.971
  478SOL    HW1 1458   1.006   2.062   0.878
  478SOL    HW2 1459   1.012   2.022   1.036
  479SOL     OW 1460   1.709   2.247   1.381
  479SOL    HW1 1461   1.782   2.316   1.385
  479SOL    HW2 1462   1.737   2.172   1.322
  480SOL     OW 1463   0.105   2.875   1.726
  480SOL    HW1 1464   0.028   2.842   1.780
  480SOL    HW2 1465   0.190   2.845   1.768
  481SOL     OW 1466   0.672   2.065   1.489
  481SOL    HW1 1467   0.762   2.049   1.449
  481SOL    HW2 1468   0.680   2.070   1.588
  482SOL     OW 1469   0.075   2.207   0.033
  482SOL    HW1 1470  -0.017   2.179   0.004
  482SOL    HW2 1471   0.106   2.284  -0.023
  483SOL     OW 1472   1.440   2.718   1.398
  483SOL    HW1 1473   1.383   2.770   1.335
  483SOL    HW2 1474   1.536   2.730   1.374
  484SOL     OW 1475   0.072   2.028   0.318
  484SOL    HW1 1476   0.055   2.111   0.264
  484SOL    HW2 1477   0.162   1.991   0.296
  485SOL     OW 1478   0.613   2.704   1.431
  485SOL    HW1 1479   0.669   2.785   1.414
  485SOL    HW2 1480   0.672   2.624   1.434
  486SOL     OW 1481   0.716   2.427   1.708
  486SOL    HW1 1482   0.735   2.492   1.782
  486SOL    HW2 1483   0.776   2.347   1.717
  487SOL     OW 1484   1.450   3.082   1.633
  487SOL    HW1 1485   1.441   3.072   1.732
  487SOL    HW2 1486   1.546   3.075   1.607
  488SOL     OW 1487   1.674   2.745   1.254
  488SOL    HW1 1488   1.647   2.656   1.217
  488SOL    HW2 1489   1.675   2.813   1.181
  489SOL     OW 1490   1.225   2.187   0.449
  489SOL    HW1 1491   1.290   2.113   0.438
  489SOL    HW2 1492   1.245   2.237   0.533
  490SOL     OW 1493   0.594   2.607   0.652
  490SOL    HW1 1494   0.644   2.692   0.633
  490SOL    HW2 1495   0.506   2.609   0.604
  491SOL     OW 1496   1.777   2.204   1.642
  491SOL    HW1 1497   1.760   2.235   1.548
  491SOL    HW2 1498   1.693   2.167   1.680
  492SOL     OW 1499   1.730   2.796   1.517
  492SOL    HW1 1500   1.768   2.887   1.532
  492SOL    HW2 1501   1.722   2.779   1.418
  493SOL     OW 1502   0.859   2.818   0.861
  493SOL    HW1 1503   0.913   2.749   0.909
  493SOL    HW2 1504   0.827   2.887   0.927
  494SOL     OW 1505   1.083   2.846   0.087
  494SOL    HW1 1506   1.060   2.899   0.005
  494SOL    HW2 1507   1.164   2.790   0.068
  495SOL     OW 1508   0.079   3.102   0.653
  495SOL    HW1 1509   0.078   3.055   0.741
  495SOL    HW2 1510   0.161   3.074   0.602
  496SOL     OW 1511   1.824   2.054   1.227
  496SOL    HW1 1512   1.820   1.964   1.271
  496SOL    HW2 1513   1.827   2.043   1.128
  497SOL     OW 1514   0.428   2.286   0.520
  497SOL    HW1 1515   0.458   2.214   0.458
  497SOL    HW2 1516   0.389   2.246   0.603
  498SOL     OW 1517   0.317   2.409   1.280
  498SOL    HW1 1518   0.355   2.350   1.352
  498SOL    HW2 1519   0.357   2.383   1.192
  499SOL     OW 1520   1.424   2.076   1.112
  499SOL    HW1 1521   1.476   2.011   1.167
  499SOL    HW2 1522   1.375   2.139   1.173
  500SOL     OW 1523   1.001   1.896   1.154
  500SOL    HW1 1524   0.938   1.824   1.123
  500SOL    HW2 1525   1.094   1.860   1.154
  501SOL     OW 1526   0.770   3.192   0.301
  501SOL    HW1 1527   0.724   3.105   0.318
  501SOL    HW2 1528   0.861   3.189   0.342
  502SOL     OW 1529   1.352   1.914   0.168
  502SOL    HW1 1530   1.387   1.873   0.084
  502SOL    HW2 1531   1.262   1.876   0.188
  503SOL     OW 1532   1.300   2.315   0.691
  503SOL    HW1 1533   1.241   2.395   0.695
  503SOL    HW2 1534   1.315   2.280   0.784
  504SOL     OW 1535   1.593   2.083   0.882
  504SOL    HW1 1536   1.509   2.082   0.936
  504SOL    HW2 1537   1.595   2.166   0.826
  505SOL     OW 1538   0.039   2.939   0.300
  505SOL    HW1 1539   0.138   2.928   0.291
  505SOL    HW2 1540  -0.001   2.853   0.332
  506SOL     OW 1541   0.230   2.490   1.975
  506SOL    HW1 1542   0.137   2.488   2.012
  506SOL    HW2 1543   0.231   2.451   1.883
  507SOL     OW 1544   0.225   2.137   2.858
  507SOL    HW1 1545   0.260   2.120   2.950
  507SOL    HW2 1546   0.137   2.092   2.846
  508SOL     OW 1547   0.019   2.230   2.509
  508SOL    HW1 1548  -0.063   2.273   2.548
  508SOL    HW2 1549  -0.009   2.157   2.446
  509SOL     OW 1550   1.135   2.565   2.579
  509SOL    HW1 1551   1.192   2.643   2.554
  509SOL    HW2 1552   1.075   2.591   2.655
  510SOL     OW 1553   1.755   2.469   2.093
  510SOL    HW1 1554   1.743   2.456   1.994
  510SOL    HW2 1555   1.725   2.388   2.142
  511SOL     OW 1556   0.768   3.006   2.885
  511SOL    HW1 1557   0.690   3.023   2.945
  511SOL    HW2 1558   0.802   3.093   2.849
  512SOL     OW 1559   0.685   2.874   2.527
  512SOL    HW1 1560   0.754   2.858   2.597
  512SOL    HW2 1561   0.612   2.931   2.565
  513SOL     OW 1562   0.335   3.297   2.923
  513SOL    HW1 1563   0.257   3.266   2.870
  513SOL    HW2 1564   0.393   3.355   2.866
  514SOL     OW 1565   1.603   2.309   2.599
  514SOL    HW1 1566   1.529   2.355   2.549
  514SOL    HW2 1567   1.654   2.377   2.652
  515SOL     OW 1568   0.240   2.953   2.748
  515SOL    HW1 1569   0.254   2.869   2.800
  515SOL    HW2 1570   0.185   3.017   2.803
  516SOL     OW 1571   0.606   2.826   1.985
  516SOL    HW1 1572   0.613   2.910   1.931
  516SOL    HW2 1573   0.652   2.839   2.073
  517SOL     OW 1574   0.122   2.505   2.425
  517SOL    HW1 1575   0.077   2.417   2.442
  517SOL    HW2 1576   0.121   2.559   2.509
  518SOL     OW 1577   1.689   2.784   2.474
  518SOL    HW1 1578   1.784   2.755   2.482
  518SOL    HW2 1579   1.681   2.849   2.399
  519SOL     OW 1580   1.641   2.970   2.294
  519SOL    HW1 1581   1.727   2.972   2.242
  519SOL    HW2 1582   1.655   3.017   2.382
  520SOL     OW 1583   0.113   2.599   3.459
  520SOL    HW1 1584   0.201   2.586   3.504
  520SOL    HW2 1585   0.100   2.696   3.437
  521SOL     OW 1586   0.809   1.866   2.364
  521SOL    HW1 1587   0.849   1.957   2.355
  521SOL    HW2 1588   0.709   1.874   2.370
  522SOL     OW 1589   0.197   2.838   3.126
  522SOL    HW1 1590   0.286   2.793   3.112
  522SOL    HW2 1591   0.124   2.773   3.107
  523SOL     OW 1592   1.525   2.861   2.052
  523SOL    HW1 1593   1.462   2.785   2.065
  523SOL    HW2 1594   1.573   2.879   2.138
  524SOL     OW 1595   0.598   2.591   2.132
  524SOL    HW1 1596   0.622   2.660   2.064
  524SOL    HW2 1597   0.520   2.624   2.186
  525SOL     OW 1598   1.281   2.207   2.806
  525SOL    HW1 1599   1.195   2.157   2.793
  525SOL    HW2 1600   1.343   2.153   2.862
  526SOL     OW 1601   0.991   2.272   3.104
  526SOL    HW1 1602   0.914   2.306   3.158
  526SOL    HW2 1603   0.957   2.221   3.025
  527SOL     OW 1604   1.041   2.563   2.291
  527SOL    HW1 1605   1.067   2.559   2.387
  527SOL    HW2 1606   0.956   2.512   2.277
  528SOL     OW 1607   0.076   2.673   2.651
  528SOL    HW1 1608   0.175   2.661   2.660
  528SOL    HW2 1609   0.052   2.768   2.672
  529SOL     OW 1610   0.865   2.210   2.057
  529SOL    HW1 1611   0.924   2.273   2.008
  529SOL    HW2 1612   0.884   2.116   2.028
  530SOL     OW 1613   1.362   3.006   2.407
  530SOL    HW1 1614   1.445   2.977   2.359
  530SOL    HW2 1615   1.313   3.073   2.351
  531SOL     OW 1616   0.550   2.058   2.747
  531SOL    HW1 1617   0.545   2.053   2.847
  531SOL    HW2 1618   0.552   2.154   2.718
  532SOL     OW 1619   1.795   2.928   2.735
  532SOL    HW1 1620   1.733   2.913   2.659
  532SOL    HW2 1621   1.743   2.939   2.820
  533SOL     OW 1622   0.321   2.805   2.104
  533SOL    HW1 1623   0.403   2.844   2.062
  533SOL    HW2 1624   0.294   2.723   2.055
  534SOL     OW 1625   1.458   2.597   2.590
  534SOL    HW1 1626   1.453   2.532   2.665
  534SOL    HW2 1627   1.538   2.656   2.603
  535SOL     OW 1628   1.632   3.239   1.943
  535SOL    HW1 1629   1.600   3.333   1.933
  535SOL    HW2 1630   1.556   3.176   1.931
  536SOL     OW 1631   0.382   2.562   2.342
  536SOL    HW1 1632   0.427   2.472   2.339
  536SOL    HW2 1633   0.288   2.551   2.375
  537SOL     OW 1634   0.614   1.984   1.979
  537SOL    HW1 1635   0.712   1.962   1.986
  537SOL    HW2 1636   0.583   1.967   1.886
  538SOL     OW 1637   0.803   3.264   2.786
  538SOL    HW1 1638   0.893   3.278   2.744
  538SOL    HW2 1639   0.732   3.266   2.715
  539SOL     OW 1640   0.922   2.365   2.761
  539SOL    HW1 1641   0.897   2.356   2.665
  539SOL    HW2 1642   0.970   2.283   2.792
  540SOL     OW 1643   0.539   1.926   2.374
  540SOL    HW1 1644   0.458   1.927   2.432
  540SOL    HW2 1645   0.542   2.009   2.319
  541SOL     OW 1646   0.297   1.897   2.033
  541SOL    HW1 1647   0.346   1.981   2.012
  541SOL    HW2 1648   0.359   1.832   2.078
  542SOL     OW 1649   0.935   2.098   2.342
  542SOL    HW1 1650   0.887   2.139   2.264
  542SOL    HW2 1651   1.034   2.096   2.323
  543SOL     OW 1652   0.459   3.014   2.603
  543SOL    HW1 1653   0.388   2.987   2.668
  543SOL    HW2 1654   0.433   2.986   2.510
  544SOL     OW 1655   1.032   2.411   1.878
  544SOL    HW1 1656   0.991   2.493   1.839
  544SOL    HW2 1657   1.096   2.437   1.951
  545SOL     OW 1658   0.561   2.084   3.009
  545SOL    HW1 1659   0.599   2.000   3.046
  545SOL    HW2 1660   0.473   2.103   3.053
  546SOL     OW 1661   0.866   2.316   2.504
  546SOL    HW1 1662   0.834   2.388   2.442
  546SOL    HW2 1663   0.890   2.235   2.451
  547SOL     OW 1664   1.017   1.901   2.615
  547SOL    HW1 1665   0.945   1.906   2.546
  547SOL    HW2 1666   0.993   1.832   2.684
  548SOL     OW 1667   1.429   3.035   2.729
  548SOL    HW1 1668   1.374   2.951   2.722
  548SOL    HW2 1669   1.455   3.064   2.637
  549SOL     OW 1670   1.466   2.452   2.854
  549SOL    HW1 1671   1.436   2.357   2.861
  549SOL    HW2 1672   1.539   2.468   2.920
  550SOL     OW 1673   1.857   2.695   2.239
  550SOL    HW1 1674   1.899   2.631   2.303
  550SOL    HW2 1675   1.819   2.644   2.161
  551SOL     OW 1676   1.390   2.437   1.940
  551SOL    HW1 1677   1.336   2.416   2.021
  551SOL    HW2 1678   1.481   2.396   1.949
  552SOL     OW 1679   0.527   2.118   2.190
  552SOL    HW1 1680   0.554   2.059   2.115
  552SOL    HW2 1681   0.527   2.213   2.159
  553SOL     OW 1682   1.638   2.961   2.941
  553SOL    HW1 1683   1.643   3.042   3.000
  553SOL    HW2 1684   1.552   2.963   2.890
  554SOL     OW 1685   0.705   2.912   2.230
  554SOL    HW1 1686   0.691   2.919   2.329
  554SOL    HW2 1687   0.789   2.861   2.212
  555SOL     OW 1688   0.410   2.675   3.113
  555SOL    HW1 1689   0.496   2.687   3.163
  555SOL    HW2 1690   0.368   2.588   3.140
  556SOL     OW 1691   1.274   2.248   3.124
  556SOL    HW1 1692   1.295   2.322   3.188
  556SOL    HW2 1693   1.185   2.265   3.081
  557SOL     OW 1694   0.367   2.962   2.363
  557SOL    HW1 1695   0.360   3.045   2.307
  557SOL    HW2 1696   0.371   2.882   2.303
  558SOL     OW 1697   0.566   2.399   2.727
  558SOL    HW1 1698   0.578   2.465   2.653
  558SOL    HW2 1699   0.612   2.433   2.810
  559SOL     OW 1700   1.582   2.501   2.334
  559SOL    HW1 1701   1.551   2.562   2.407
  559SOL    HW2 1702   1.632   2.553   2.265
  560SOL     OW 1703   0.573   2.732   2.891
  560SOL    HW1 1704   0.617   2.821   2.882
  560SOL    HW2 1705   0.510   2.732   2.968
  561SOL     OW 1706   1.360   2.724   2.907
  561SOL    HW1 1707   1.285   2.724   2.841
  561SOL    HW2 1708   1.397   2.632   2.916
  562SOL     OW 1709   1.209   2.387   2.137
  562SOL    HW1 1710   1.222   2.303   2.191
  562SOL    HW2 1711   1.180   2.461   2.197
  563SOL     OW 1712   0.307   2.075   3.093
  563SOL    HW1 1713   0.284   2.112   3.183
  563SOL    HW2 1714   0.277   1.980   3.087
  564SOL     OW 1715   0.037   3.172   3.144
  564SOL    HW1 1716   0.090   3.123   3.212
  564SOL    HW2 1717   0.059   3.270   3.149
  565SOL     OW 1718   0.732   2.496   2.926
  565SOL    HW1 1719   0.791   2.470   2.850
  565SOL    HW2 1720   0.704   2.592   2.915
  566SOL     OW 1721   0.307   1.925   2.480
  566SOL    HW1 1722   0.296   2.019   2.513
  566SOL    HW2 1723   0.302   1.862   2.557
  567SOL     OW 1724   1.622   2.229   2.236
  567SOL    HW1 1725   1.624   2.153   2.300
  567SOL    HW2 1726   1.574   2.306   2.276
  568SOL     OW 1727   1.023   2.628   2.828
  568SOL    HW1 1728   1.038   2.649   2.924
  568SOL    HW2 1729   0.993   2.533   2.819
  569SOL     OW 1730   1.540   2.136   1.987
  569SOL    HW1 1731   1.479   2.061   2.010
  569SOL    HW2 1732   1.562   2.188   2.070
  570SOL     OW 1733   1.303   2.700   1.904
  570SOL    HW1 1734   1.337   2.607   1.919
  570SOL    HW2 1735   1.321   2.727   1.809
  571SOL     OW 1736   0.319   2.672   2.811
  571SOL    HW1 1737   0.412   2.708   2.816
  571SOL    HW2 1738   0.313   2.587   2.863
  572SOL     OW 1739   0.339   2.371   2.868
  572SOL    HW1 1740   0.287   2.288   2.851
  572SOL    HW2 1741   0.416   2.376   2.804
  573SOL     OW 1742   1.160   2.069   3.339
  573SOL    HW1 1743   1.160   2.133   3.416
  573SOL    HW2 1744   1.188   2.117   3.256
  574SOL     OW 1745   0.008   3.188   2.062
  574SOL    HW1 1746  -0.085   3.209   2.031
  574SOL    HW2 1747   0.018   3.089   2.075
  575SOL     OW 1748   1.002   2.658   3.100
  575SOL    HW1 1749   1.043   2.626   3.186
  575SOL    HW2 1750   0.906   2.631   3.097
  576SOL     OW 1751   0.040   2.406   2.976
  576SOL    HW1 1752   0.125   2.373   2.935
  576SOL    HW2 1753   0.053   2.421   3.074
  577SOL     OW 1754   0.815   2.434   2.187
  577SOL    HW1 1755   0.822   2.345   2.141
  577SOL    HW2 1756   0.721   2.468   2.179
  578SOL     OW 1757   1.657   2.466   3.068
  578SOL    HW1 1758   1.619   2.397   3.130
  578SOL    HW2 1759   1.739   2.430   3.024
  579SOL     OW 1760   0.671   2.326   3.131
  579SOL    HW1 1761   0.637   2.237   3.101
  579SOL    HW2 1762   0.697   2.380   3.051
  580SOL     OW 1763   0.473   2.362   2.053
  580SOL    HW1 1764   0.534   2.442   2.057
  580SOL    HW2 1765   0.378   2.393   2.060
  581SOL     OW 1766   1.347   2.921   3.096
  581SOL    HW1 1767   1.371   2.858   3.022
  581SOL    HW2 1768   1.257   2.961   3.078
  582SOL     OW 1769   1.302   2.717   2.171
  582SOL    HW1 1770   1.216   2.686   2.213
  582SOL    HW2 1771   1.298   2.703   2.072
  583SOL     OW 1772   0.083   3.120   2.884
  583SOL    HW1 1773   0.078   3.119   2.984
  583SOL    HW2 1774   0.000   3.079   2.846
  584SOL     OW 1775   1.726   1.997   2.385
  584SOL    HW1 1776   1.799   1.980   2.318
  584SOL    HW2 1777   1.695   1.910   2.423
  585SOL     OW 1778   1.280   2.789   2.534
  585SOL    HW1 1779   1.340   2.708   2.536
  585SOL    HW2 1780   1.320   2.858   2.474
  586SOL     OW 1781   1.841   2.037   2.825
  586SOL    HW1 1782   1.880   1.952   2.789
  586SOL    HW2 1783   1.743   2.039   2.806
  587SOL     OW 1784   0.263   2.188   2.582
  587SOL    HW1 1785   0.184   2.239   2.548
  587SOL    HW2 1786   0.254   2.173   2.680
  588SOL     OW 1787   1.194   3.474   1.893
  588SOL    HW1 1788   1.200   3.381   1.930
  588SOL    HW2 1789   1.135   3.474   1.813
  589SOL     OW 1790   0.822   2.864   3.234
  589SOL    HW1 1791   0.862   2.863   3.142
  589SOL    HW2 1792   0.832   2.956   3.274
  590SOL     OW 1793   0.916   2.772   2.153
  590SOL    HW1 1794   0.979   2.810   2.085
  590SOL    HW2 1795   0.956   2.689   2.192
  591SOL     OW 1796   1.039   2.960   2.558
  591SOL    HW1 1797   0.969   2.913   2.612
  591SOL    HW2 1798   1.098   2.892   2.515
  592SOL     OW 1799   1.014   2.098   2.833
  592SOL    HW1 1800   1.006   2.062   2.740
  592SOL    HW2 1801   1.012   2.022   2.898
  593SOL     OW 1802   1.709   2.247   3.243
  593SOL    HW1 1803   1.782   2.316   3.247
  593SOL    HW2 1804   1.737   2.172   3.184
  594SOL     OW 1805   0.075   2.207   1.895
  594SOL    HW1 1806  -0.017   2.179   1.866
  594SOL    HW2 1807   0.106   2.284   1.839
  595SOL     OW 1808   0.072   2.028   2.180
  595SOL    HW1 1809   0.055   2.111   2.126
  595SOL    HW2 1810   0.162   1.991   2.158
  596SOL     OW 1811   1.674   2.745   3.116
  596SOL    HW1 1812   1.647   2.656   3.079
  596SOL    HW2 1813   1.675   2.813   3.043
  597SOL     OW 1814   1.225   2.187   2.311
  597SOL    HW1 1815   1.290   2.113   2.300
  597SOL    HW2 1816   1.245   2.237   2.395
  598SOL     OW 1817   0.594   2.607   2.514
  598SOL    HW1 1818   0.644   2.692   2.495
  598SOL    HW2 1819   0.506   2.609   2.466
  599SOL     OW 1820   1.730   2.796   3.379
  599SOL    HW1 1821   1.768   2.887   3.394
  599SOL    HW2 1822   1.722   2.779   3.280
  600SOL     OW 1823   0.859   2.818   2.723
  600SOL    HW1 1824   0.913   2.749   2.771
  600SOL    HW2 1825   0.827   2.887   2.789
  601SOL     OW 1826   1.083   2.846   1.949
  601SOL    HW1 1827   1.060   2.899   1.867
  601SOL    HW2 1828   1.164   2.790   1.930
  602SOL     OW 1829   0.079   3.102   2.515
  602SOL    HW1 1830   0.078   3.055   2.603
  602SOL    HW2 1831   0.161   3.074   2.464
  603SOL     OW 1832   1.824   2.054   3.089
  603SOL    HW1 1833   1.820   1.964   3.133
  603SOL    HW2 1834   1.827   2.043   2.990
  604SOL     OW 1835   0.428   2.286   2.382
  604SOL    HW1 1836   0.458   2.214   2.320
  604SOL    HW2 1837   0.389   2.246   2.465
  605SOL     OW 1838   1.424   2.076   2.974
  605SOL    HW1 1839   1.476   2.011   3.029
  605SOL    HW2 1840   1.375   2.139   3.035
  606SOL     OW 1841   1.001   1.896   3.016
  606SOL    HW1 1842   0.938   1.824   2.985
  606SOL    HW2 1843   1.094   1.860   3.016
  607SOL     OW 1844   0.770   3.192   2.163
  607SOL    HW1 1845   0.724   3.105   2.180
  607SOL    HW2 1846   0.861   3.189   2.204
  608SOL     OW 1847   1.300   2.315   2.553
  608SOL    HW1 1848   1.241   2.395   2.557
  608SOL    HW2 1849   1.315   2.280   2.646
  609SOL     OW 1850   1.593   2.083   2.744
  609SOL    HW1 1851   1.509   2.082   2.798
  609SOL    HW2 1852   1.595   2.166   2.688
  610SOL     OW 1853   0.039   2.939   2.162
  610SOL    HW1 1854   0.138   2.928   2.153
  610SOL    HW2 1855  -0.001   2.853   2.194
  611SOL     OW 1856   2.092   0.628   0.113
  611SOL    HW1 1857   1.999   0.626   0.150
  611SOL    HW2 1858   2.093   0.589   0.021
  612SOL     OW 1859   2.087   0.275   0.996
  612SOL    HW1 1860   2.122   0.258   1.088
  612SOL    HW2 1861   1.999   0.230   0.984
  613SOL     OW 1862   1.881   0.368   0.647
  613SOL    HW1 1863   1.799   0.411   0.686
  613SOL    HW2 1864   1.853   0.295   0.584
  614SOL     OW 1865   2.431   1.275   1.165
  614SOL    HW1 1866   2.338   1.268   1.128
  614SOL    HW2 1867   2.442   1.364   1.209
  615SOL     OW 1868   2.997   0.703   0.717
  615SOL    HW1 1869   3.054   0.781   0.692
  615SOL    HW2 1870   2.937   0.729   0.793
  616SOL     OW 1871   2.630   1.144   1.023
  616SOL    HW1 1872   2.552   1.161   1.083
  616SOL    HW2 1873   2.664   1.231   0.987
  617SOL     OW 1874   2.712   0.798   1.823
  617SOL    HW1 1875   2.708   0.874   1.888
  617SOL    HW2 1876   2.734   0.834   1.732
  618SOL     OW 1877   2.547   1.012   0.665
  618SOL    HW1 1878   2.616   0.996   0.735
  618SOL    HW2 1879   2.474   1.069   0.703
  619SOL     OW 1880   2.548   1.161   1.803
  619SOL    HW1 1881   2.608   1.240   1.817
  619SOL    HW2 1882   2.462   1.192   1.762
  620SOL     OW 1883   2.197   1.435   1.061
  620SOL    HW1 1884   2.119   1.404   1.008
  620SOL    HW2 1885   2.255   1.493   1.004
  621SOL     OW 1886   2.300   0.392   1.499
  621SOL    HW1 1887   2.382   0.336   1.508
  621SOL    HW2 1888   2.219   0.334   1.503
  622SOL     OW 1889   2.093   1.713   0.483
  622SOL    HW1 1890   2.127   1.790   0.537
  622SOL    HW2 1891   2.137   1.713   0.393
  623SOL     OW 1892   2.989   1.341   1.690
  623SOL    HW1 1893   3.036   1.341   1.778
  623SOL    HW2 1894   2.941   1.254   1.679
  624SOL     OW 1895   2.092   1.434   0.538
  624SOL    HW1 1896   2.066   1.530   0.538
  624SOL    HW2 1897   2.021   1.380   0.583
  625SOL     OW 1898   2.102   1.091   0.886
  625SOL    HW1 1899   2.116   1.007   0.938
  625SOL    HW2 1900   2.047   1.155   0.941
  626SOL     OW 1901   2.482   1.786   1.439
  626SOL    HW1 1902   2.390   1.769   1.474
  626SOL    HW2 1903   2.510   1.878   1.465
  627SOL     OW 1904   2.468   0.964   0.123
  627SOL    HW1 1905   2.475   1.048   0.069
  627SOL    HW2 1906   2.514   0.977   0.211
  628SOL     OW 1907   1.984   0.643   0.563
  628SOL    HW1 1908   1.939   0.555   0.580
  628SOL    HW2 1909   1.983   0.697   0.647
  629SOL     OW 1910   1.889   1.596   0.117
  629SOL    HW1 1911   1.870   1.500   0.138
  629SOL    HW2 1912   1.856   1.654   0.192
  630SOL     OW 1913   1.975   0.737   1.597
  630SOL    HW1 1914   2.063   0.724   1.642
  630SOL    HW2 1915   1.962   0.834   1.575
  631SOL     OW 1916   2.475   1.365   0.726
  631SOL    HW1 1917   2.426   1.278   0.735
  631SOL    HW2 1918   2.452   1.408   0.639
  632SOL     OW 1919   2.671   0.004   0.502
  632SOL    HW1 1920   2.711   0.095   0.493
  632SOL    HW2 1921   2.571   0.012   0.508
  633SOL     OW 1922   2.059   0.976   1.264
  633SOL    HW1 1923   2.148   0.931   1.250
  633SOL    HW2 1924   1.986   0.911   1.245
  634SOL     OW 1925   3.049   1.792   1.616
  634SOL    HW1 1926   3.073   1.852   1.540
  634SOL    HW2 1927   3.056   1.697   1.586
  635SOL     OW 1928   2.179   0.251   1.801
  635SOL    HW1 1929   2.250   0.322   1.807
  635SOL    HW2 1930   2.091   0.290   1.829
  636SOL     OW 1931   2.460   0.729   0.270
  636SOL    HW1 1932   2.484   0.798   0.202
  636SOL    HW2 1933   2.382   0.762   0.324
  637SOL     OW 1934   3.143   0.345   0.944
  637SOL    HW1 1935   3.057   0.295   0.931
  637SOL    HW2 1936   3.205   0.291   1.000
  638SOL     OW 1937   2.669   0.605   1.465
  638SOL    HW1 1938   2.622   0.602   1.554
  638SOL    HW2 1939   2.618   0.550   1.399
  639SOL     OW 1940   2.835   0.890   1.572
  639SOL    HW1 1941   2.881   0.806   1.543
  639SOL    HW2 1942   2.779   0.924   1.497
  640SOL     OW 1943   2.853   0.410   1.242
  640SOL    HW1 1944   2.776   0.444   1.296
  640SOL    HW2 1945   2.819   0.359   1.163
  641SOL     OW 1946   2.903   0.701   0.429
  641SOL    HW1 1947   2.929   0.697   0.525
  641SOL    HW2 1948   2.818   0.650   0.415
  642SOL     OW 1949   1.938   0.811   0.789
  642SOL    HW1 1950   2.037   0.799   0.798
  642SOL    HW2 1951   1.914   0.906   0.810
  643SOL     OW 1952   1.992   1.821   1.571
  643SOL    HW1 1953   1.982   1.806   1.670
  643SOL    HW2 1954   1.906   1.857   1.535
  644SOL     OW 1955   2.727   0.348   0.195
  644SOL    HW1 1956   2.786   0.411   0.146
  644SOL    HW2 1957   2.746   0.254   0.166
  645SOL     OW 1958   2.412   0.196   0.885
  645SOL    HW1 1959   2.407   0.191   0.985
  645SOL    HW2 1960   2.414   0.292   0.856
  646SOL     OW 1961   2.870   1.456   0.477
  646SOL    HW1 1962   2.824   1.528   0.425
  646SOL    HW2 1963   2.866   1.476   0.575
  647SOL     OW 1964   2.213   1.801   0.853
  647SOL    HW1 1965   2.263   1.715   0.859
  647SOL    HW2 1966   2.278   1.878   0.850
  648SOL     OW 1967   3.089   1.550   1.506
  648SOL    HW1 1968   3.095   1.473   1.570
  648SOL    HW2 1969   3.037   1.524   1.426
  649SOL     OW 1970   2.183   0.943   0.242
  649SOL    HW1 1971   2.265   0.982   0.200
  649SOL    HW2 1972   2.156   0.861   0.193
  650SOL     OW 1973   2.323   1.266   1.727
  650SOL    HW1 1974   2.273   1.267   1.641
  650SOL    HW2 1975   2.260   1.248   1.803
  651SOL     OW 1976   2.973   1.776   0.237
  651SOL    HW1 1977   2.913   1.714   0.287
  651SOL    HW2 1978   3.004   1.732   0.152
  652SOL     OW 1979   2.326   1.743   0.323
  652SOL    HW1 1980   2.359   1.782   0.409
  652SOL    HW2 1981   2.402   1.736   0.258
  653SOL     OW 1982   2.111   1.785   1.241
  653SOL    HW1 1983   2.168   1.720   1.291
  653SOL    HW2 1984   2.095   1.752   1.148
  654SOL     OW 1985   2.802   1.698   0.904
  654SOL    HW1 1986   2.882   1.641   0.925
  654SOL    HW2 1987   2.753   1.658   0.827
  655SOL     OW 1988   2.244   0.700   0.480
  655SOL    HW1 1989   2.289   0.610   0.477
  655SOL    HW2 1990   2.150   0.689   0.513
  656SOL     OW 1991   2.476   0.122   0.117
  656SOL    HW1 1992   2.574   0.100   0.124
  656SOL    HW2 1993   2.445   0.105   0.024
  657SOL     OW 1994   2.643   0.264   1.749
  657SOL    HW1 1995   2.710   0.203   1.792
  657SOL    HW2 1996   2.570   0.283   1.814
  658SOL     OW 1997   2.750   1.514   1.195
  658SOL    HW1 1998   2.727   1.489   1.101
  658SOL    HW2 1999   2.811   1.445   1.234
  659SOL     OW 2000   2.665   1.402   0.924
  659SOL    HW1 2001   2.755   1.416   0.882
  659SOL    HW2 2002   2.594   1.404   0.853
  660SOL     OW 2003   2.784   0.503   0.899
  660SOL    HW1 2004   2.759   0.494   0.803
  660SOL    HW2 2005   2.832   0.421   0.930
  661SOL     OW 2006   2.401   0.064   0.512
  661SOL    HW1 2007   2.320   0.065   0.570
  661SOL    HW2 2008   2.404   0.147   0.457
  662SOL     OW 2009   2.159   0.035   0.171
  662SOL    HW1 2010   2.208   0.119   0.150
  662SOL    HW2 2011   2.221  -0.030   0.216
  663SOL     OW 2012   2.797   0.236   0.480
  663SOL    HW1 2013   2.749   0.277   0.402
  663SOL    HW2 2014   2.896   0.234   0.461
  664SOL     OW 2015   2.938   0.683   1.464
  664SOL    HW1 2016   2.858   0.622   1.467
  664SOL    HW2 2017   3.019   0.630   1.440
  665SOL     OW 2018   3.089   1.570   0.793
  665SOL    HW1 2019   3.110   1.644   0.728
  665SOL    HW2 2020   3.157   1.570   0.866
  666SOL     OW 2021   2.321   1.152   0.741
  666SOL    HW1 2022   2.250   1.125   0.806
  666SOL    HW2 2023   2.295   1.124   0.648
  667SOL     OW 2024   3.133   1.797   0.591
  667SOL    HW1 2025   3.177   1.861   0.527
  667SOL    HW2 2026   3.083   1.849   0.661
  668SOL     OW 2027   2.894   0.549   0.016
  668SOL    HW1 2028   2.853   0.631  -0.023
  668SOL    HW2 2029   2.958   0.575   0.089
  669SOL     OW 2030   1.940   0.556   1.386
  669SOL    HW1 2031   2.032   0.555   1.345
  669SOL    HW2 2032   1.934   0.630   1.453
  670SOL     OW 2033   2.423   0.222   1.147
  670SOL    HW1 2034   2.461   0.138   1.184
  670SOL    HW2 2035   2.335   0.241   1.191
  671SOL     OW 2036   2.728   0.454   0.642
  671SOL    HW1 2037   2.696   0.526   0.580
  671SOL    HW2 2038   2.752   0.373   0.589
  672SOL     OW 2039   2.879   0.039   0.753
  672SOL    HW1 2040   2.807   0.044   0.684
  672SOL    HW2 2041   2.855  -0.030   0.822
  673SOL     OW 2042   2.350   1.385   0.174
  673SOL    HW1 2043   2.263   1.370   0.221
  673SOL    HW2 2044   2.333   1.411   0.079
  674SOL     OW 2045   2.389   0.256   0.328
  674SOL    HW1 2046   2.416   0.197   0.253
  674SOL    HW2 2047   2.389   0.351   0.297
  675SOL     OW 2048   2.926   1.347   1.340
  675SOL    HW1 2049   2.846   1.324   1.395
  675SOL    HW2 2050   3.009   1.321   1.389
  676SOL     OW 2051   2.973   1.195   1.100
  676SOL    HW1 2052   2.933   1.239   1.181
  676SOL    HW2 2053   2.932   1.232   1.017
  677SOL     OW 2054   2.777   0.089   1.402
  677SOL    HW1 2055   2.802   0.069   1.307
  677SOL    HW2 2056   2.849   0.145   1.444
  678SOL     OW 2057   2.842   1.116   1.719
  678SOL    HW1 2058   2.743   1.122   1.729
  678SOL    HW2 2059   2.865   1.036   1.663
  679SOL     OW 2060   2.567   1.050   0.368
  679SOL    HW1 2061   2.553   1.057   0.467
  679SOL    HW2 2062   2.651   0.999   0.350
  680SOL     OW 2063   2.272   0.813   1.251
  680SOL    HW1 2064   2.358   0.825   1.301
  680SOL    HW2 2065   2.230   0.726   1.278
  681SOL     OW 2066   3.136   0.386   1.262
  681SOL    HW1 2067   3.157   0.460   1.326
  681SOL    HW2 2068   3.047   0.403   1.219
  682SOL     OW 2069   1.926   1.564   1.331
  682SOL    HW1 2070   1.880   1.646   1.297
  682SOL    HW2 2071   2.024   1.583   1.340
  683SOL     OW 2072   2.229   1.100   0.501
  683SOL    HW1 2073   2.222   1.183   0.445
  683SOL    HW2 2074   2.233   1.020   0.441
  684SOL     OW 2075   2.428   0.537   0.865
  684SOL    HW1 2076   2.440   0.603   0.791
  684SOL    HW2 2077   2.474   0.571   0.948
  685SOL     OW 2078   3.114   1.348   0.388
  685SOL    HW1 2079   3.164   1.425   0.428
  685SOL    HW2 2080   3.019   1.350   0.420
  686SOL     OW 2081   2.216   1.510   1.329
  686SOL    HW1 2082   2.195   1.466   1.242
  686SOL    HW2 2083   2.313   1.536   1.332
  687SOL     OW 2084   2.264   0.751   1.598
  687SOL    HW1 2085   2.332   0.806   1.551
  687SOL    HW2 2086   2.304   0.663   1.625
  688SOL     OW 2087   2.875   0.105   1.770
  688SOL    HW1 2088   2.881   0.190   1.718
  688SOL    HW2 2089   2.907   0.029   1.713
  689SOL     OW 2090   2.366   0.050   1.740
  689SOL    HW1 2091   2.324  -0.007   1.670
  689SOL    HW2 2092   2.300   0.119   1.772
  690SOL     OW 2093   2.435   0.870   1.029
  690SOL    HW1 2094   2.479   0.959   1.020
  690SOL    HW2 2095   2.372   0.870   1.106
  691SOL     OW 2096   3.222   0.862   1.045
  691SOL    HW1 2097   3.147   0.862   0.979
  691SOL    HW2 2098   3.259   0.770   1.054
  692SOL     OW 2099   3.071   0.525   0.275
  692SOL    HW1 2100   3.084   0.441   0.329
  692SOL    HW2 2101   3.042   0.599   0.335
  693SOL     OW 2102   2.169   0.213   1.231
  693SOL    HW1 2103   2.146   0.250   1.321
  693SOL    HW2 2104   2.139   0.118   1.225
  694SOL     OW 2105   2.594   0.634   1.064
  694SOL    HW1 2106   2.653   0.608   0.988
  694SOL    HW2 2107   2.566   0.730   1.053
  695SOL     OW 2108   2.169   0.063   0.618
  695SOL    HW1 2109   2.158   0.157   0.651
  695SOL    HW2 2110   2.164   0.000   0.695
  696SOL     OW 2111   3.484   0.367   0.374
  696SOL    HW1 2112   3.486   0.291   0.438
  696SOL    HW2 2113   3.436   0.444   0.414
  697SOL     OW 2114   2.885   0.766   0.966
  697SOL    HW1 2115   2.900   0.787   1.062
  697SOL    HW2 2116   2.855   0.671   0.957
  698SOL     OW 2117   2.842   1.573   1.700
  698SOL    HW1 2118   2.822   1.617   1.612
  698SOL    HW2 2119   2.881   1.482   1.684
  699SOL     OW 2120   2.212   0.898   1.804
  699SOL    HW1 2121   2.288   0.942   1.852
  699SOL    HW2 2122   2.247   0.851   1.722
  700SOL     OW 2123   3.165   0.838   0.042
  700SOL    HW1 2124   3.199   0.745   0.057
  700SOL    HW2 2125   3.183   0.865  -0.053
  701SOL     OW 2126   2.930   1.333   0.849
  701SOL    HW1 2127   2.937   1.249   0.794
  701SOL    HW2 2128   2.992   1.402   0.813
  702SOL     OW 2129   2.181   0.810   0.949
  702SOL    HW1 2130   2.274   0.846   0.954
  702SOL    HW2 2131   2.175   0.725   1.001
  703SOL     OW 2132   2.201   0.509   1.006
  703SOL    HW1 2133   2.149   0.426   0.989
  703SOL    HW2 2134   2.278   0.514   0.942
  704SOL     OW 2135   3.000   0.380   1.678
  704SOL    HW1 2136   2.955   0.443   1.742
  704SOL    HW2 2137   3.093   0.411   1.661
  705SOL     OW 2138   3.022   0.207   1.477
  705SOL    HW1 2139   3.022   0.271   1.554
  705SOL    HW2 2140   3.050   0.255   1.394
  706SOL     OW 2141   1.950   1.801   0.927
  706SOL    HW1 2142   1.908   1.715   0.900
  706SOL    HW2 2143   2.044   1.804   0.893
  707SOL     OW 2144   2.366   1.568   0.910
  707SOL    HW1 2145   2.432   1.642   0.919
  707SOL    HW2 2146   2.410   1.489   0.868
  708SOL     OW 2147   2.864   0.796   1.238
  708SOL    HW1 2148   2.905   0.764   1.324
  708SOL    HW2 2149   2.768   0.769   1.235
  709SOL     OW 2150   1.902   0.544   1.114
  709SOL    HW1 2151   1.987   0.511   1.073
  709SOL    HW2 2152   1.915   0.559   1.212
  710SOL     OW 2153   2.051   0.520   1.722
  710SOL    HW1 2154   2.110   0.480   1.652
  710SOL    HW2 2155   1.993   0.591   1.681
  711SOL     OW 2156   2.677   0.572   0.325
  711SOL    HW1 2157   2.684   0.483   0.279
  711SOL    HW2 2158   2.583   0.606   0.317
  712SOL     OW 2159   2.114   1.564   1.744
  712SOL    HW1 2160   2.084   1.621   1.820
  712SOL    HW2 2161   2.107   1.467   1.770
  713SOL     OW 2162   2.533   0.464   1.269
  713SOL    HW1 2163   2.499   0.375   1.239
  713SOL    HW2 2164   2.559   0.518   1.189
  714SOL     OW 2165   2.792   1.678   1.465
  714SOL    HW1 2166   2.768   1.660   1.370
  714SOL    HW2 2167   2.822   1.772   1.475
  715SOL     OW 2168   2.335   0.500   0.191
  715SOL    HW1 2169   2.396   0.580   0.195
  715SOL    HW2 2170   2.240   0.531   0.198
  716SOL     OW 2171   2.021   1.137   1.466
  716SOL    HW1 2172   2.043   1.076   1.542
  716SOL    HW2 2173   2.031   1.088   1.380
  717SOL     OW 2174   3.209   1.059   1.234
  717SOL    HW1 2175   3.233   0.996   1.160
  717SOL    HW2 2176   3.119   1.099   1.216
  718SOL     OW 2177   3.114   1.731   1.128
  718SOL    HW1 2178   3.198   1.736   1.074
  718SOL    HW2 2179   3.091   1.635   1.146
  719SOL     OW 2180   1.945   1.258   1.022
  719SOL    HW1 2181   1.940   1.257   1.122
  719SOL    HW2 2182   1.862   1.217   0.984
  720SOL     OW 2183   2.550   1.662   1.716
  720SOL    HW1 2184   2.494   1.743   1.725
  720SOL    HW2 2185   2.602   1.666   1.630
  721SOL     OW 2186   2.765   0.086   0.133
  721SOL    HW1 2187   2.816   0.087   0.047
  721SOL    HW2 2188   2.821   0.044   0.204
  722SOL     OW 2189   3.250   1.573   0.477
  722SOL    HW1 2190   3.317   1.585   0.403
  722SOL    HW2 2191   3.210   1.662   0.500
  723SOL     OW 2192   1.992   1.794   1.851
  723SOL    HW1 2193   1.951   1.720   1.904
  723SOL    HW2 2194   2.056   1.845   1.909
  724SOL     OW 2195   2.692   1.273   1.422
  724SOL    HW1 2196   2.687   1.306   1.517
  724SOL    HW2 2197   2.606   1.292   1.376
  725SOL     OW 2198   2.534   1.616   0.154
  725SOL    HW1 2199   2.543   1.626   0.055
  725SOL    HW2 2200   2.494   1.527   0.175
  726SOL     OW 2201   2.125   0.326   0.720
  726SOL    HW1 2202   2.046   0.377   0.686
  726SOL    HW2 2203   2.116   0.311   0.818
  727SOL     OW 2204   3.056   1.612   0.031
  727SOL    HW1 2205   3.062   1.519   0.068
  727SOL    HW2 2206   2.997   1.612  -0.049
  728SOL     OW 2207   2.684   1.002   1.372
  728SOL    HW1 2208   2.724   1.001   1.280
  728SOL    HW2 2209   2.694   1.094   1.412
  729SOL     OW 2210   2.778   0.910   0.291
  729SOL    HW1 2211   2.841   0.948   0.223
  729SOL    HW2 2212   2.818   0.827   0.330
  730SOL     OW 2213   2.234   1.288   1.490
  730SOL    HW1 2214   2.221   1.381   1.456
  730SOL    HW2 2215   2.150   1.236   1.477
  731SOL     OW 2216   2.901   1.098   0.696
  731SOL    HW1 2217   2.831   1.051   0.750
  731SOL    HW2 2218   2.960   1.030   0.653
  732SOL     OW 2219   2.876   0.236   0.971
  732SOL    HW1 2220   2.868   0.200   0.878
  732SOL    HW2 2221   2.874   0.160   1.036
  733SOL     OW 2222   2.452   1.487   0.491
  733SOL    HW1 2223   2.494   1.429   0.421
  733SOL    HW2 2224   2.408   1.566   0.447
  734SOL     OW 2225   2.117   1.348   0.290
  734SOL    HW1 2226   2.021   1.349   0.263
  734SOL    HW2 2227   2.129   1.401   0.374
  735SOL     OW 2228   1.967   1.013   1.726
  735SOL    HW1 2229   1.890   0.980   1.780
  735SOL    HW2 2230   2.052   0.983   1.768
  736SOL     OW 2231   2.534   0.203   1.489
  736SOL    HW1 2232   2.624   0.187   1.449
  736SOL    HW2 2233   2.542   0.208   1.588
  737SOL     OW 2234   1.934   0.166   0.318
  737SOL    HW1 2235   1.917   0.249   0.264
  737SOL    HW2 2236   2.024   0.129   0.296
  738SOL     OW 2237   2.475   0.842   1.431
  738SOL    HW1 2238   2.531   0.923   1.414
  738SOL    HW2 2239   2.534   0.762   1.434
  739SOL     OW 2240   2.578   0.565   1.708
  739SOL    HW1 2241   2.597   0.630   1.782
  739SOL    HW2 2242   2.638   0.485   1.717
  740SOL     OW 2243   2.252   1.741   1.560
  740SOL    HW1 2244   2.161   1.782   1.558
  740SOL    HW2 2245   2.245   1.647   1.592
  741SOL     OW 2246   2.456   0.745   0.652
  741SOL    HW1 2247   2.506   0.830   0.633
  741SOL    HW2 2248   2.368   0.747   0.604
  742SOL     OW 2249   2.721   1.374   0.016
  742SOL    HW1 2250   2.675   1.389   0.104
  742SOL    HW2 2251   2.765   1.459  -0.014
  743SOL     OW 2252   2.523   1.790   0.953
  743SOL    HW1 2253   2.477   1.878   0.940
  743SOL    HW2 2254   2.622   1.802   0.946
  744SOL     OW 2255   2.721   0.956   0.861
  744SOL    HW1 2256   2.775   0.887   0.909
  744SOL    HW2 2257   2.689   1.025   0.927
  745SOL     OW 2258   2.945   0.984   0.087
  745SOL    HW1 2259   2.922   1.037   0.005
  745SOL    HW2 2260   3.026   0.928   0.068
  746SOL     OW 2261   2.083   1.314   1.844
  746SOL    HW1 2262   2.018   1.241   1.823
  746SOL    HW2 2263   2.087   1.328   1.942
  747SOL     OW 2264   1.941   1.240   0.653
  747SOL    HW1 2265   1.940   1.193   0.741
  747SOL    HW2 2266   2.023   1.212   0.602
  748SOL     OW 2267   2.534   1.391   1.624
  748SOL    HW1 2268   2.456   1.341   1.662
  748SOL    HW2 2269   2.531   1.486   1.655
  749SOL     OW 2270   2.290   0.424   0.520
  749SOL    HW1 2271   2.320   0.352   0.458
  749SOL    HW2 2272   2.251   0.384   0.603
  750SOL     OW 2273   2.179   0.547   1.280
  750SOL    HW1 2274   2.217   0.488   1.352
  750SOL    HW2 2275   2.219   0.521   1.192
  751SOL     OW 2276   2.674   1.586   0.687
  751SOL    HW1 2277   2.706   1.596   0.593
  751SOL    HW2 2278   2.595   1.524   0.689
  752SOL     OW 2279   2.863   0.034   1.154
  752SOL    HW1 2280   2.800  -0.038   1.123
  752SOL    HW2 2281   2.956  -0.002   1.154
  753SOL     OW 2282   2.632   1.330   0.301
  753SOL    HW1 2283   2.586   1.243   0.318
  753SOL    HW2 2284   2.723   1.327   0.342
  754SOL     OW 2285   2.480   1.567   1.284
  754SOL    HW1 2286   2.475   1.649   1.341
  754SOL    HW2 2287   2.569   1.564   1.239
  755SOL     OW 2288   1.901   1.077   0.300
  755SOL    HW1 2289   2.000   1.066   0.291
  755SOL    HW2 2290   1.861   0.991   0.332
  756SOL     OW 2291   2.737   1.646   0.337
  756SOL    HW1 2292   2.660   1.611   0.283
  756SOL    HW2 2293   2.705   1.717   0.399
  757SOL     OW 2294   2.092   0.628   1.975
  757SOL    HW1 2295   1.999   0.626   2.012
  757SOL    HW2 2296   2.093   0.589   1.883
  758SOL     OW 2297   2.087   0.275   2.858
  758SOL    HW1 2298   2.122   0.258   2.950
  758SOL    HW2 2299   1.999   0.230   2.846
  759SOL     OW 2300   1.881   0.368   2.509
  759SOL    HW1 2301   1.799   0.411   2.548
  759SOL    HW2 2302   1.853   0.295   2.446
  760SOL     OW 2303   2.431   1.275   3.027
  760SOL    HW1 2304   2.338   1.268   2.990
  760SOL    HW2 2305   2.442   1.364   3.071
  761SOL     OW 2306   2.997   0.703   2.579
  761SOL    HW1 2307   3.054   0.781   2.554
  761SOL    HW2 2308   2.937   0.729   2.655
  762SOL     OW 2309   2.630   1.144   2.885
  762SOL    HW1 2310   2.552   1.161   2.945
  762SOL    HW2 2311   2.664   1.231   2.849
  763SOL     OW 2312   2.547   1.012   2.527
  763SOL    HW1 2313   2.616   0.996   2.597
  763SOL    HW2 2314   2.474   1.069   2.565
  764SOL     OW 2315   2.197   1.435   2.923
  764SOL    HW1 2316   2.119   1.404   2.870
  764SOL    HW2 2317   2.255   1.493   2.866
  765SOL     OW 2318   2.093   1.713   2.345
  765SOL    HW1 2319   2.127   1.790   2.399
  765SOL    HW2 2320   2.137   1.713   2.255
  766SOL     OW 2321   2.092   1.434   2.400
  766SOL    HW1 2322   2.066   1.530   2.400
  766SOL    HW2 2323   2.021   1.380   2.445
  767SOL     OW 2324   2.102   1.091   2.748
  767SOL    HW1 2325   2.116   1.007   2.800
  767SOL    HW2 2326   2.047   1.155   2.803
  768SOL     OW 2327   2.468   0.964   1.985
  768SOL    HW1 2328   2.475   1.048   1.931
  768SOL    HW2 2329   2.514   0.977   2.073
  769SOL     OW 2330   1.984   0.643   2.425
  769SOL    HW1 2331   1.939   0.555   2.442
  769SOL    HW2 2332   1.983   0.697   2.509
  770SOL     OW 2333   1.889   1.596   1.979
  770SOL    HW1 2334   1.870   1.500   2.000
  770SOL    HW2 2335   1.856   1.654   2.054
  771SOL     OW 2336   1.975   0.737   3.459
  771SOL    HW1 2337   2.063   0.724   3.504
  771SOL    HW2 2338   1.962   0.834   3.437
  772SOL     OW 2339   2.475   1.365   2.588
  772SOL    HW1 2340   2.426   1.278   2.597
  772SOL    HW2 2341   2.452   1.408   2.501
  773SOL     OW 2342   2.671   0.004   2.364
  773SOL    HW1 2343   2.711   0.095   2.355
  773SOL    HW2 2344   2.571   0.012   2.370
  774SOL     OW 2345   2.059   0.976   3.126
  774SOL    HW1 2346   2.148   0.931   3.112
  774SOL    HW2 2347   1.986   0.911   3.107
  775SOL     OW 2348   2.460   0.729   2.132
  775SOL    HW1 2349   2.484   0.798   2.064
  775SOL    HW2 2350   2.382   0.762   2.186
  776SOL     OW 2351   3.143   0.345   2.806
  776SOL    HW1 2352   3.057   0.295   2.793
  776SOL    HW2 2353   3.205   0.291   2.862
  777SOL     OW 2354   2.853   0.410   3.104
  777SOL    HW1 2355   2.776   0.444   3.158
  777SOL    HW2 2356   2.819   0.359   3.025
  778SOL     OW 2357   2.903   0.701   2.291
  778SOL    HW1 2358   2.929   0.697   2.387
  778SOL    HW2 2359   2.818   0.650   2.277
  779SOL     OW 2360   1.938   0.811   2.651
  779SOL    HW1 2361   2.037   0.799   2.660
  779SOL    HW2 2362   1.914   0.906   2.672
  780SOL     OW 2363   2.727   0.348   2.057
  780SOL    HW1 2364   2.786   0.411   2.008
  780SOL    HW2 2365   2.746   0.254   2.028
  781SOL     OW 2366   2.412   0.196   2.747
  781SOL    HW1 2367   2.407   0.191   2.847
  781SOL    HW2 2368   2.414   0.292   2.718
  782SOL     OW 2369   2.870   1.456   2.339
  782SOL    HW1 2370   2.824   1.528   2.287
  782SOL    HW2 2371   2.866   1.476   2.437
  783SOL     OW 2372   2.213   1.801   2.715
  783SOL    HW1 2373   2.263   1.715   2.721
  783SOL    HW2 2374   2.278   1.878   2.712
  784SOL     OW 2375   2.183   0.943   2.104
  784SOL    HW1 2376   2.265   0.982   2.062
  784SOL    HW2 2377   2.156   0.861   2.055
  785SOL     OW 2378   2.973   1.776   2.099
  785SOL    HW1 2379   2.913   1.714   2.149
  785SOL    HW2 2380   3.004   1.732   2.014
  786SOL     OW 2381   2.326   1.743   2.185
  786SOL    HW1 2382   2.359   1.782   2.271
  786SOL    HW2 2383   2.402   1.736   2.120
  787SOL     OW 2384   2.111   1.785   3.103
  787SOL    HW1 2385   2.168   1.720   3.153
  787SOL    HW2 2386   2.095   1.752   3.010
  788SOL     OW 2387   2.802   1.698   2.766
  788SOL    HW1 2388   2.882   1.641   2.787
  788SOL    HW2 2389   2.753   1.658   2.689
  789SOL     OW 2390   2.244   0.700   2.342
  789SOL    HW1 2391   2.289   0.610   2.339
  789SOL    HW2 2392   2.150   0.689   2.375
  790SOL     OW 2393   2.476   0.122   1.979
  790SOL    HW1 2394   2.574   0.100   1.986
  790SOL    HW2 2395   2.445   0.105   1.886
  791SOL     OW 2396   2.665   1.402   2.786
  791SOL    HW1 2397   2.755   1.416   2.744
  791SOL    HW2 2398   2.594   1.404   2.715
  792SOL     OW 2399   2.784   0.503   2.761
  792SOL    HW1 2400   2.759   0.494   2.665
  792SOL    HW2 2401   2.832   0.421   2.792
  793SOL     OW 2402   2.401   0.064   2.374
  793SOL    HW1 2403   2.320   0.065   2.432
  793SOL    HW2 2404   2.404   0.147   2.319
  794SOL     OW 2405   2.159   0.035   2.033
  794SOL    HW1 2406   2.208   0.119   2.012
  794SOL    HW2 2407   2.221  -0.030   2.078
  795SOL     OW 2408   2.797   0.236   2.342
  795SOL    HW1 2409   2.749   0.277   2.264
  795SOL    HW2 2410   2.896   0.234   2.323
  796SOL     OW 2411   3.089   1.570   2.655
  796SOL    HW1 2412   3.110   1.644   2.590
  796SOL    HW2 2413   3.157   1.570   2.728
  797SOL     OW 2414   2.321   1.152   2.603
  797SOL    HW1 2415   2.250   1.125   2.668
  797SOL    HW2 2416   2.295   1.124   2.510
  798SOL     OW 2417   3.133   1.797   2.453
  798SOL    HW1 2418   3.177   1.861   2.389
  798SOL    HW2 2419   3.083   1.849   2.523
  799SOL     OW 2420   2.894   0.549   1.878
  799SOL    HW1 2421   2.853   0.631   1.839
  799SOL    HW2 2422   2.958   0.575   1.951
  800SOL     OW 2423   2.423   0.222   3.009
  800SOL    HW1 2424   2.461   0.138   3.046
  800SOL    HW2 2425   2.335   0.241   3.053
  801SOL     OW 2426   2.728   0.454   2.504
  801SOL    HW1 2427   2.696   0.526   2.442
  801SOL    HW2 2428   2.752   0.373   2.451
  802SOL     OW 2429   2.879   0.039   2.615
  802SOL    HW1 2430   2.807   0.044   2.546
  802SOL    HW2 2431   2.855  -0.030   2.684
  803SOL     OW 2432   2.350   1.385   2.036
  803SOL    HW1 2433   2.263   1.370   2.083
  803SOL    HW2 2434   2.333   1.411   1.941
  804SOL     OW 2435   2.389   0.256   2.190
  804SOL    HW1 2436   2.416   0.197   2.115
  804SOL    HW2 2437   2.389   0.351   2.159
  805SOL     OW 2438   2.973   1.195   2.962
  805SOL    HW1 2439   2.933   1.239   3.043
  805SOL    HW2 2440   2.932   1.232   2.879
  806SOL     OW 2441   2.567   1.050   2.230
  806SOL    HW1 2442   2.553   1.057   2.329
  806SOL    HW2 2443   2.651   0.999   2.212
  807SOL     OW 2444   2.272   0.813   3.113
  807SOL    HW1 2445   2.358   0.825   3.163
  807SOL    HW2 2446   2.230   0.726   3.140
  808SOL     OW 2447   2.229   1.100   2.363
  808SOL    HW1 2448   2.222   1.183   2.307
  808SOL    HW2 2449   2.233   1.020   2.303
  809SOL     OW 2450   2.428   0.537   2.727
  809SOL    HW1 2451   2.440   0.603   2.653
  809SOL    HW2 2452   2.474   0.571   2.810
  810SOL     OW 2453   3.114   1.348   2.250
  810SOL    HW1 2454   3.164   1.425   2.290
  810SOL    HW2 2455   3.019   1.350   2.282
  811SOL     OW 2456   2.216   1.510   3.191
  811SOL    HW1 2457   2.195   1.466   3.104
  811SOL    HW2 2458   2.313   1.536   3.194
  812SOL     OW 2459   2.435   0.870   2.891
  812SOL    HW1 2460   2.479   0.959   2.882
  812SOL    HW2 2461   2.372   0.870   2.968
  813SOL     OW 2462   3.222   0.862   2.907
  813SOL    HW1 2463   3.147   0.862   2.841
  813SOL    HW2 2464   3.259   0.770   2.916
  814SOL     OW 2465   3.071   0.525   2.137
  814SOL    HW1 2466   3.084   0.441   2.191
  814SOL    HW2 2467   3.042   0.599   2.197
  815SOL     OW 2468   2.169   0.213   3.093
  815SOL    HW1 2469   2.146   0.250   3.183
  815SOL    HW2 2470   2.139   0.118   3.087
  816SOL     OW 2471   1.899   1.310   3.144
  816SOL    HW1 2472   1.952   1.261   3.212
  816SOL    HW2 2473   1.921   1.408   3.149
  817SOL     OW 2474   2.594   0.634   2.926
  817SOL    HW1 2475   2.653   0.608   2.850
  817SOL    HW2 2476   2.566   0.730   2.915
  818SOL     OW 2477   2.169   0.063   2.480
  818SOL    HW1 2478   2.158   0.157   2.513
  818SOL    HW2 2479   2.164   0.000   2.557
  819SOL     OW 2480   3.484   0.367   2.236
  819SOL    HW1 2481   3.486   0.291   2.300
  819SOL    HW2 2482   3.436   0.444   2.276
  820SOL     OW 2483   2.885   0.766   2.828
  820SOL    HW1 2484   2.900   0.787   2.924
  820SOL    HW2 2485   2.855   0.671   2.819
  821SOL     OW 2486   3.402   0.274   1.987
  821SOL    HW1 2487   3.341   0.199   2.010
  821SOL    HW2 2488   3.424   0.326   2.070
  822SOL     OW 2489   2.930   1.333   2.711
  822SOL    HW1 2490   2.937   1.249   2.656
  822SOL    HW2 2491   2.992   1.402   2.675
  823SOL     OW 2492   2.181   0.810   2.811
  823SOL    HW1 2493   2.274   0.846   2.816
  823SOL    HW2 2494   2.175   0.725   2.863
  824SOL     OW 2495   2.201   0.509   2.868
  824SOL    HW1 2496   2.149   0.426   2.851
  824SOL    HW2 2497   2.278   0.514   2.804
  825SOL     OW 2498   3.022   0.207   3.339
  825SOL    HW1 2499   3.022   0.271   3.416
  825SOL    HW2 2500   3.050   0.255   3.256
  826SOL     OW 2501   1.870   1.326   2.062
  826SOL    HW1 2502   1.777   1.347   2.031
  826SOL    HW2 2503   1.880   1.227   2.075
  827SOL     OW 2504   1.950   1.801   2.789
  827SOL    HW1 2505   1.908   1.715   2.762
  827SOL    HW2 2506   2.044   1.804   2.755
  828SOL     OW 2507   2.366   1.568   2.772
  828SOL    HW1 2508   2.432   1.642   2.781
  828SOL    HW2 2509   2.410   1.489   2.730
  829SOL     OW 2510   2.864   0.796   3.100
  829SOL    HW1 2511   2.905   0.764   3.186
  829SOL    HW2 2512   2.768   0.769   3.097
  830SOL     OW 2513   1.902   0.544   2.976
  830SOL    HW1 2514   1.987   0.511   2.935
  830SOL    HW2 2515   1.915   0.559   3.074
  831SOL     OW 2516   2.677   0.572   2.187
  831SOL    HW1 2517   2.684   0.483   2.141
  831SOL    HW2 2518   2.583   0.606   2.179
  832SOL     OW 2519   2.533   0.464   3.131
  832SOL    HW1 2520   2.499   0.375   3.101
  832SOL    HW2 2521   2.559   0.518   3.051
  833SOL     OW 2522   2.792   1.678   3.327
  833SOL    HW1 2523   2.768   1.660   3.232
  833SOL    HW2 2524   2.822   1.772   3.337
  834SOL     OW 2525   2.335   0.500   2.053
  834SOL    HW1 2526   2.396   0.580   2.057
  834SOL    HW2 2527   2.240   0.531   2.060
  835SOL     OW 2528   3.209   1.059   3.096
  835SOL    HW1 2529   3.233   0.996   3.022
  835SOL    HW2 2530   3.119   1.099   3.078
  836SOL     OW 2531   3.114   1.731   2.990
  836SOL    HW1 2532   3.198   1.736   2.936
  836SOL    HW2 2533   3.091   1.635   3.008
  837SOL     OW 2534   1.945   1.258   2.884
  837SOL    HW1 2535   1.940   1.257   2.984
  837SOL    HW2 2536   1.862   1.217   2.846
  838SOL     OW 2537   3.250   1.573   2.339
  838SOL    HW1 2538   3.317   1.585   2.265
  838SOL    HW2 2539   3.210   1.662   2.362
  839SOL     OW 2540   2.534   1.616   2.016
  839SOL    HW1 2541   2.543   1.626   1.917
  839SOL    HW2 2542   2.494   1.527   2.037
  840SOL     OW 2543   2.125   0.326   2.582
  840SOL    HW1 2544   2.046   0.377   2.548
  840SOL    HW2 2545   2.116   0.311   2.680
  841SOL     OW 2546   3.056   1.612   1.893
  841SOL    HW1 2547   3.062   1.519   1.930
  841SOL    HW2 2548   2.997   1.612   1.813
  842SOL     OW 2549   2.684   1.002   3.234
  842SOL    HW1 2550   2.724   1.001   3.142
  842SOL    HW2 2551   2.694   1.094   3.274
  843SOL     OW 2552   2.778   0.910   2.153
  843SOL    HW1 2553   2.841   0.948   2.085
  843SOL    HW2 2554   2.818   0.827   2.192
  844SOL     OW 2555   3.476   1.292   3.151
  844SOL    HW1 2556   3.536   1.295   3.231
  844SOL    HW2 2557   3.401   1.356   3.164
  845SOL     OW 2558   2.901   1.098   2.558
  845SOL    HW1 2559   2.831   1.051   2.612
  845SOL    HW2 2560   2.960   1.030   2.515
  846SOL     OW 2561   2.876   0.236   2.833
  846SOL    HW1 2562   2.868   0.200   2.740
  846SOL    HW2 2563   2.874   0.160   2.898
  847SOL     OW 2564   2.452   1.487   2.353
  847SOL    HW1 2565   2.494   1.429   2.283
  847SOL    HW2 2566   2.408   1.566   2.309
  848SOL     OW 2567   2.117   1.348   2.152
  848SOL    HW1 2568   2.021   1.349   2.125
  848SOL    HW2 2569   2.129   1.401   2.236
  849SOL     OW 2570   1.937   0.345   1.895
  849SOL    HW1 2571   1.845   0.317   1.866
  849SOL    HW2 2572   1.968   0.422   1.839
  850SOL     OW 2573   1.934   0.166   2.180
  850SOL    HW1 2574   1.917   0.249   2.126
  850SOL    HW2 2575   2.024   0.129   2.158
  851SOL     OW 2576   2.456   0.745   2.514
  851SOL    HW1 2577   2.506   0.830   2.495
  851SOL    HW2 2578   2.368   0.747   2.466
  852SOL     OW 2579   2.721   1.374   1.878
  852SOL    HW1 2580   2.675   1.389   1.966
  852SOL    HW2 2581   2.765   1.459   1.848
  853SOL     OW 2582   2.523   1.790   2.815
  853SOL    HW1 2583   2.477   1.878   2.802
  853SOL    HW2 2584   2.622   1.802   2.808
  854SOL     OW 2585   2.721   0.956   2.723
  854SOL    HW1 2586   2.775   0.887   2.771
  854SOL    HW2 2587   2.689   1.025   2.789
  855SOL     OW 2588   2.945   0.984   1.949
  855SOL    HW1 2589   2.922   1.037   1.867
  855SOL    HW2 2590   3.026   0.928   1.930
  856SOL     OW 2591   1.941   1.240   2.515
  856SOL    HW1 2592   1.940   1.193   2.603
  856SOL    HW2 2593   2.023   1.212   2.464
  857SOL     OW 2594   2.290   0.424   2.382
  857SOL    HW1 2595   2.320   0.352   2.320
  857SOL    HW2 2596   2.251   0.384   2.465
  858SOL     OW 2597   2.674   1.586   2.549
  858SOL    HW1 2598   2.706   1.596   2.455
  858SOL    HW2 2599   2.595   1.524   2.551
  859SOL     OW 2600   2.863   0.034   3.016
  859SOL    HW1 2601   2.800  -0.038   2.985
  859SOL    HW2 2602   2.956  -0.002   3.016
  860SOL     OW 2603   2.632   1.330   2.163
  860SOL    HW1 2604   2.586   1.243   2.180
  860SOL    HW2 2605   2.723   1.327   2.204
  861SOL     OW 2606   1.901   1.077   2.162
  861SOL    HW1 2607   2.000   1.066   2.153
  861SOL    HW2 2608   1.861   0.991   2.194
  862SOL     OW 2609   2.737   1.646   2.199
  862SOL    HW1 2610   2.660   1.611   2.145
  862SOL    HW2 2611   2.705   1.717   2.261
  863SOL     OW 2612   2.092   2.490   0.113
  863SOL    HW1 2613   1.999   2.488   0.150
  863SOL    HW2 2614   2.093   2.451   0.021
  864SOL     OW 2615   2.087   2.137   0.996
  864SOL    HW1 2616   2.122   2.120   1.088
  864SOL    HW2 2617   1.999   2.092   0.984
  865SOL     OW 2618   1.881   2.230   0.647
  865SOL    HW1 2619   1.799   2.273   0.686
  865SOL    HW2 2620   1.853   2.157   0.584
  866SOL     OW 2621   2.997   2.565   0.717
  866SOL    HW1 2622   3.054   2.643   0.692
  866SOL    HW2 2623   2.937   2.591   0.793
  867SOL     OW 2624   2.630   3.006   1.023
  867SOL    HW1 2625   2.552   3.023   1.083
  867SOL    HW2 2626   2.664   3.093   0.987
  868SOL     OW 2627   2.712   2.660   1.823
  868SOL    HW1 2628   2.708   2.736   1.888
  868SOL    HW2 2629   2.734   2.696   1.732
  869SOL     OW 2630   2.547   2.874   0.665
  869SOL    HW1 2631   2.616   2.858   0.735
  869SOL    HW2 2632   2.474   2.931   0.703
  870SOL     OW 2633   2.548   3.023   1.803
  870SOL    HW1 2634   2.608   3.102   1.817
  870SOL    HW2 2635   2.462   3.054   1.762
  871SOL     OW 2636   2.197   3.297   1.061
  871SOL    HW1 2637   2.119   3.266   1.008
  871SOL    HW2 2638   2.255   3.355   1.004
  872SOL     OW 2639   2.300   2.254   1.499
  872SOL    HW1 2640   2.382   2.198   1.508
  872SOL    HW2 2641   2.219   2.196   1.503
  873SOL     OW 2642   2.102   2.953   0.886
  873SOL    HW1 2643   2.116   2.869   0.938
  873SOL    HW2 2644   2.047   3.017   0.941
  874SOL     OW 2645   2.468   2.826   0.123
  874SOL    HW1 2646   2.475   2.910   0.069
  874SOL    HW2 2647   2.514   2.839   0.211
  875SOL     OW 2648   1.984   2.505   0.563
  875SOL    HW1 2649   1.939   2.417   0.580
  875SOL    HW2 2650   1.983   2.559   0.647
  876SOL     OW 2651   1.975   2.599   1.597
  876SOL    HW1 2652   2.063   2.586   1.642
  876SOL    HW2 2653   1.962   2.696   1.575
  877SOL     OW 2654   2.671   1.866   0.502
  877SOL    HW1 2655   2.711   1.957   0.493
  877SOL    HW2 2656   2.571   1.874   0.508
  878SOL     OW 2657   2.059   2.838   1.264
  878SOL    HW1 2658   2.148   2.793   1.250
  878SOL    HW2 2659   1.986   2.773   1.245
  879SOL     OW 2660   2.179   2.113   1.801
  879SOL    HW1 2661   2.250   2.184   1.807
  879SOL    HW2 2662   2.091   2.152   1.829
  880SOL     OW 2663   2.460   2.591   0.270
  880SOL    HW1 2664   2.484   2.660   0.202
  880SOL    HW2 2665   2.382   2.624   0.324
  881SOL     OW 2666   3.143   2.207   0.944
  881SOL    HW1 2667   3.057   2.157   0.931
  881SOL    HW2 2668   3.205   2.153   1.000
  882SOL     OW 2669   2.669   2.467   1.465
  882SOL    HW1 2670   2.622   2.464   1.554
  882SOL    HW2 2671   2.618   2.412   1.399
  883SOL     OW 2672   2.835   2.752   1.572
  883SOL    HW1 2673   2.881   2.668   1.543
  883SOL    HW2 2674   2.779   2.786   1.497
  884SOL     OW 2675   2.853   2.272   1.242
  884SOL    HW1 2676   2.776   2.306   1.296
  884SOL    HW2 2677   2.819   2.221   1.163
  885SOL     OW 2678   2.903   2.563   0.429
  885SOL    HW1 2679   2.929   2.559   0.525
  885SOL    HW2 2680   2.818   2.512   0.415
  886SOL     OW 2681   1.938   2.673   0.789
  886SOL    HW1 2682   2.037   2.661   0.798
  886SOL    HW2 2683   1.914   2.768   0.810
  887SOL     OW 2684   2.727   2.210   0.195
  887SOL    HW1 2685   2.786   2.273   0.146
  887SOL    HW2 2686   2.746   2.116   0.166
  888SOL     OW 2687   2.412   2.058   0.885
  888SOL    HW1 2688   2.407   2.053   0.985
  888SOL    HW2 2689   2.414   2.154   0.856
  889SOL     OW 2690   2.183   2.805   0.242
  889SOL    HW1 2691   2.265   2.844   0.200
  889SOL    HW2 2692   2.156   2.723   0.193
  890SOL     OW 2693   2.064   2.147   1.498
  890SOL    HW1 2694   1.984   2.207   1.485
  890SOL    HW2 2695   2.054   2.098   1.584
  891SOL     OW 2696   2.244   2.562   0.480
  891SOL    HW1 2697   2.289   2.472   0.477
  891SOL    HW2 2698   2.150   2.551   0.513
  892SOL     OW 2699   2.476   1.984   0.117
  892SOL    HW1 2700   2.574   1.962   0.124
  892SOL    HW2 2701   2.445   1.967   0.024
  893SOL     OW 2702   2.643   2.126   1.749
  893SOL    HW1 2703   2.710   2.065   1.792
  893SOL    HW2 2704   2.570   2.145   1.814
  894SOL     OW 2705   2.665   3.264   0.924
  894SOL    HW1 2706   2.755   3.278   0.882
  894SOL    HW2 2707   2.594   3.266   0.853
  895SOL     OW 2708   2.784   2.365   0.899
  895SOL    HW1 2709   2.759   2.356   0.803
  895SOL    HW2 2710   2.832   2.283   0.930
  896SOL     OW 2711   2.401   1.926   0.512
  896SOL    HW1 2712   2.320   1.927   0.570
  896SOL    HW2 2713   2.404   2.009   0.457
  897SOL     OW 2714   2.159   1.897   0.171
  897SOL    HW1 2715   2.208   1.981   0.150
  897SOL    HW2 2716   2.221   1.832   0.216
  898SOL     OW 2717   2.797   2.098   0.480
  898SOL    HW1 2718   2.749   2.139   0.402
  898SOL    HW2 2719   2.896   2.096   0.461
  899SOL     OW 2720   2.938   2.545   1.464
  899SOL    HW1 2721   2.858   2.484   1.467
  899SOL    HW2 2722   3.019   2.492   1.440
  900SOL     OW 2723   2.321   3.014   0.741
  900SOL    HW1 2724   2.250   2.987   0.806
  900SOL    HW2 2725   2.295   2.986   0.648
  901SOL     OW 2726   2.894   2.411   0.016
  901SOL    HW1 2727   2.853   2.493  -0.023
  901SOL    HW2 2728   2.958   2.437   0.089
  902SOL     OW 2729   1.940   2.418   1.386
  902SOL    HW1 2730   2.032   2.417   1.345
  902SOL    HW2 2731   1.934   2.492   1.453
  903SOL     OW 2732   2.423   2.084   1.147
  903SOL    HW1 2733   2.461   2.000   1.184
  903SOL    HW2 2734   2.335   2.103   1.191
  904SOL     OW 2735   2.728   2.316   0.642
  904SOL    HW1 2736   2.696   2.388   0.580
  904SOL    HW2 2737   2.752   2.235   0.589
  905SOL     OW 2738   2.879   1.901   0.753
  905SOL    HW1 2739   2.807   1.906   0.684
  905SOL    HW2 2740   2.855   1.832   0.822
  906SOL     OW 2741   2.389   2.118   0.328
  906SOL    HW1 2742   2.416   2.059   0.253
  906SOL    HW2 2743   2.389   2.213   0.297
  907SOL     OW 2744   2.777   1.951   1.402
  907SOL    HW1 2745   2.802   1.931   1.307
  907SOL    HW2 2746   2.849   2.007   1.444
  908SOL     OW 2747   2.842   2.978   1.719
  908SOL    HW1 2748   2.743   2.984   1.729
  908SOL    HW2 2749   2.865   2.898   1.663
  909SOL     OW 2750   2.567   2.912   0.368
  909SOL    HW1 2751   2.553   2.919   0.467
  909SOL    HW2 2752   2.651   2.861   0.350
  910SOL     OW 2753   2.272   2.675   1.251
  910SOL    HW1 2754   2.358   2.687   1.301
  910SOL    HW2 2755   2.230   2.588   1.278
  911SOL     OW 2756   3.136   2.248   1.262
  911SOL    HW1 2757   3.157   2.322   1.326
  911SOL    HW2 2758   3.047   2.265   1.219
  912SOL     OW 2759   2.229   2.962   0.501
  912SOL    HW1 2760   2.222   3.045   0.445
  912SOL    HW2 2761   2.233   2.882   0.441
  913SOL     OW 2762   2.428   2.399   0.865
  913SOL    HW1 2763   2.440   2.465   0.791
  913SOL    HW2 2764   2.474   2.433   0.948
  914SOL     OW 2765   3.114   3.210   0.388
  914SOL    HW1 2766   3.164   3.287   0.428
  914SOL    HW2 2767   3.019   3.212   0.420
  915SOL     OW 2768   2.264   2.613   1.598
  915SOL    HW1 2769   2.332   2.668   1.551
  915SOL    HW2 2770   2.304   2.525   1.625
  916SOL     OW 2771   2.875   1.967   1.770
  916SOL    HW1 2772   2.881   2.052   1.718
  916SOL    HW2 2773   2.907   1.891   1.713
  917SOL     OW 2774   2.366   1.912   1.740
  917SOL    HW1 2775   2.324   1.855   1.670
  917SOL    HW2 2776   2.300   1.981   1.772
  918SOL     OW 2777   2.435   2.732   1.029
  918SOL    HW1 2778   2.479   2.821   1.020
  918SOL    HW2 2779   2.372   2.732   1.106
  919SOL     OW 2780   3.222   2.724   1.045
  919SOL    HW1 2781   3.147   2.724   0.979
  919SOL    HW2 2782   3.259   2.632   1.054
  920SOL     OW 2783   3.071   2.387   0.275
  920SOL    HW1 2784   3.084   2.303   0.329
  920SOL    HW2 2785   3.042   2.461   0.335
  921SOL     OW 2786   2.169   2.075   1.231
  921SOL    HW1 2787   2.146   2.112   1.321
  921SOL    HW2 2788   2.139   1.980   1.225
  922SOL     OW 2789   2.594   2.496   1.064
  922SOL    HW1 2790   2.653   2.470   0.988
  922SOL    HW2 2791   2.566   2.592   1.053
  923SOL     OW 2792   2.169   1.925   0.618
  923SOL    HW1 2793   2.158   2.019   0.651
  923SOL    HW2 2794   2.164   1.862   0.695
  924SOL     OW 2795   3.484   2.229   0.374
  924SOL    HW1 2796   3.486   2.153   0.438
  924SOL    HW2 2797   3.436   2.306   0.414
  925SOL     OW 2798   2.885   2.628   0.966
  925SOL    HW1 2799   2.900   2.649   1.062
  925SOL    HW2 2800   2.855   2.533   0.957
  926SOL     OW 2801   2.212   2.760   1.804
  926SOL    HW1 2802   2.288   2.804   1.852
  926SOL    HW2 2803   2.247   2.713   1.722
  927SOL     OW 2804   3.165   2.700   0.042
  927SOL    HW1 2805   3.199   2.607   0.057
  927SOL    HW2 2806   3.183   2.727  -0.053
  928SOL     OW 2807   2.181   2.672   0.949
  928SOL    HW1 2808   2.274   2.708   0.954
  928SOL    HW2 2809   2.175   2.587   1.001
  929SOL     OW 2810   2.201   2.371   1.006
  929SOL    HW1 2811   2.149   2.288   0.989
  929SOL    HW2 2812   2.278   2.376   0.942
  930SOL     OW 2813   3.000   2.242   1.678
  930SOL    HW1 2814   2.955   2.305   1.742
  930SOL    HW2 2815   3.093   2.273   1.661
  931SOL     OW 2816   3.022   2.069   1.477
  931SOL    HW1 2817   3.022   2.133   1.554
  931SOL    HW2 2818   3.050   2.117   1.394
  932SOL     OW 2819   2.864   2.658   1.238
  932SOL    HW1 2820   2.905   2.626   1.324
  932SOL    HW2 2821   2.768   2.631   1.235
  933SOL     OW 2822   1.902   2.406   1.114
  933SOL    HW1 2823   1.987   2.373   1.073
  933SOL    HW2 2824   1.915   2.421   1.212
  934SOL     OW 2825   2.051   2.382   1.722
  934SOL    HW1 2826   2.110   2.342   1.652
  934SOL    HW2 2827   1.993   2.453   1.681
  935SOL     OW 2828   2.677   2.434   0.325
  935SOL    HW1 2829   2.684   2.345   0.279
  935SOL    HW2 2830   2.583   2.468   0.317
  936SOL     OW 2831   2.533   2.326   1.269
  936SOL    HW1 2832   2.499   2.237   1.239
  936SOL    HW2 2833   2.559   2.380   1.189
  937SOL     OW 2834   2.335   2.362   0.191
  937SOL    HW1 2835   2.396   2.442   0.195
  937SOL    HW2 2836   2.240   2.393   0.198
  938SOL     OW 2837   2.021   2.999   1.466
  938SOL    HW1 2838   2.043   2.938   1.542
  938SOL    HW2 2839   2.031   2.950   1.380
  939SOL     OW 2840   3.209   2.921   1.234
  939SOL    HW1 2841   3.233   2.858   1.160
  939SOL    HW2 2842   3.119   2.961   1.216
  940SOL     OW 2843   1.945   3.120   1.022
  940SOL    HW1 2844   1.940   3.119   1.122
  940SOL    HW2 2845   1.862   3.079   0.984
  941SOL     OW 2846   2.765   1.948   0.133
  941SOL    HW1 2847   2.816   1.949   0.047
  941SOL    HW2 2848   2.821   1.906   0.204
  942SOL     OW 2849   2.125   2.188   0.720
  942SOL    HW1 2850   2.046   2.239   0.686
  942SOL    HW2 2851   2.116   2.173   0.818
  943SOL     OW 2852   2.684   2.864   1.372
  943SOL    HW1 2853   2.724   2.863   1.280
  943SOL    HW2 2854   2.694   2.956   1.412
  944SOL     OW 2855   2.778   2.772   0.291
  944SOL    HW1 2856   2.841   2.810   0.223
  944SOL    HW2 2857   2.818   2.689   0.330
  945SOL     OW 2858   2.234   3.150   1.490
  945SOL    HW1 2859   2.221   3.243   1.456
  945SOL    HW2 2860   2.150   3.098   1.477
  946SOL     OW 2861   2.901   2.960   0.696
  946SOL    HW1 2862   2.831   2.913   0.750
  946SOL    HW2 2863   2.960   2.892   0.653
  947SOL     OW 2864   2.876   2.098   0.971
  947SOL    HW1 2865   2.868   2.062   0.878
  947SOL    HW2 2866   2.874   2.022   1.036
  948SOL     OW 2867   1.967   2.875   1.726
  948SOL    HW1 2868   1.890   2.842   1.780
  948SOL    HW2 2869   2.052   2.845   1.768
  949SOL     OW 2870   2.534   2.065   1.489
  949SOL    HW1 2871   2.624   2.049   1.449
  949SOL    HW2 2872   2.542   2.070   1.588
  950SOL     OW 2873   1.934   2.028   0.318
  950SOL    HW1 2874   1.917   2.111   0.264
  950SOL    HW2 2875   2.024   1.991   0.296
  951SOL     OW 2876   2.475   2.704   1.431
  951SOL    HW1 2877   2.531   2.785   1.414
  951SOL    HW2 2878   2.534   2.624   1.434
  952SOL     OW 2879   2.578   2.427   1.708
  952SOL    HW1 2880   2.597   2.492   1.782
  952SOL    HW2 2881   2.638   2.347   1.717
  953SOL     OW 2882   3.312   3.082   1.633
  953SOL    HW1 2883   3.303   3.072   1.732
  953SOL    HW2 2884   3.408   3.075   1.607
  954SOL     OW 2885   2.456   2.607   0.652
  954SOL    HW1 2886   2.506   2.692   0.633
  954SOL    HW2 2887   2.368   2.609   0.604
  955SOL     OW 2888   2.721   2.818   0.861
  955SOL    HW1 2889   2.775   2.749   0.909
  955SOL    HW2 2890   2.689   2.887   0.927
  956SOL     OW 2891   2.945   2.846   0.087
  956SOL    HW1 2892   2.922   2.899   0.005
  956SOL    HW2 2893   3.026   2.790   0.068
  957SOL     OW 2894   1.941   3.102   0.653
  957SOL    HW1 2895   1.940   3.055   0.741
  957SOL    HW2 2896   2.023   3.074   0.602
  958SOL     OW 2897   2.290   2.286   0.520
  958SOL    HW1 2898   2.320   2.214   0.458
  958SOL    HW2 2899   2.251   2.246   0.603
  959SOL     OW 2900   2.179   2.409   1.280
  959SOL    HW1 2901   2.217   2.350   1.352
  959SOL    HW2 2902   2.219   2.383   1.192
  960SOL     OW 2903   2.863   1.896   1.154
  960SOL    HW1 2904   2.800   1.824   1.123
  960SOL    HW2 2905   2.956   1.860   1.154
  961SOL     OW 2906   2.632   3.192   0.301
  961SOL    HW1 2907   2.586   3.105   0.318
  961SOL    HW2 2908   2.723   3.189   0.342
  962SOL     OW 2909   1.901   2.939   0.300
  962SOL    HW1 2910   2.000   2.928   0.291
  962SOL    HW2 2911   1.861   2.853   0.332
  963SOL     OW 2912   2.092   2.490   1.975
  963SOL    HW1 2913   1.999   2.488   2.012
  963SOL    HW2 2914   2.093   2.451   1.883
  964SOL     OW 2915   2.087   2.137   2.858
  964SOL    HW1 2916   2.122   2.120   2.950
  964SOL    HW2 2917   1.999   2.092   2.846
  965SOL     OW 2918   1.881   2.230   2.509
  965SOL    HW1 2919   1.799   2.273   2.548
  965SOL    HW2 2920   1.853   2.157   2.446
  966SOL     OW 2921   2.997   2.565   2.579
  966SOL    HW1 2922   3.054   2.643   2.554
  966SOL    HW2 2923   2.937   2.591   2.655
  967SOL     OW 2924   2.630   3.006   2.885
  967SOL    HW1 2925   2.552   3.023   2.945
  967SOL    HW2 2926   2.664   3.093   2.849
  968SOL     OW 2927   2.547   2.874   2.527
  968SOL    HW1 2928   2.616   2.858   2.597
  968SOL    HW2 2929   2.474   2.931   2.565
  969SOL     OW 2930   2.197   3.297   2.923
  969SOL    HW1 2931   2.119   3.266   2.870
  969SOL    HW2 2932   2.255   3.355   2.866
  970SOL     OW 2933   2.102   2.953   2.748
  970SOL    HW1 2934   2.116   2.869   2.800
  970SOL    HW2 2935   2.047   3.017   2.803
  971SOL     OW 2936   2.468   2.826   1.985
  971SOL    HW1 2937   2.475   2.910   1.931
  971SOL    HW2 2938   2.514   2.839   2.073
  972SOL     OW 2939   1.984   2.505   2.425
  972SOL    HW1 2940   1.939   2.417   2.442
  972SOL    HW2 2941   1.983   2.559   2.509
  973SOL     OW 2942   1.975   2.599   3.459
  973SOL    HW1 2943   2.063   2.586   3.504
  973SOL    HW2 2944   1.962   2.696   3.437
  974SOL     OW 2945   2.671   1.866   2.364
  974SOL    HW1 2946   2.711   1.957   2.355
  974SOL    HW2 2947   2.571   1.874   2.370
  975SOL     OW 2948   2.059   2.838   3.126
  975SOL    HW1 2949   2.148   2.793   3.112
  975SOL    HW2 2950   1.986   2.773   3.107
  976SOL     OW 2951   2.460   2.591   2.132
  976SOL    HW1 2952   2.484   2.660   2.064
  976SOL    HW2 2953   2.382   2.624   2.186
  977SOL     OW 2954   3.143   2.207   2.806
  977SOL    HW1 2955   3.057   2.157   2.793
  977SOL    HW2 2956   3.205   2.153   2.862
  978SOL     OW 2957   2.853   2.272   3.104
  978SOL    HW1 2958   2.776   2.306   3.158
  978SOL    HW2 2959   2.819   2.221   3.025
  979SOL     OW 2960   2.903   2.563   2.291
  979SOL    HW1 2961   2.929   2.559   2.387
  979SOL    HW2 2962   2.818   2.512   2.277
  980SOL     OW 2963   1.938   2.673   2.651
  980SOL    HW1 2964   2.037   2.661   2.660
  980SOL    HW2 2965   1.914   2.768   2.672
  981SOL     OW 2966   2.727   2.210   2.057
  981SOL    HW1 2967   2.786   2.273   2.008
  981SOL    HW2 2968   2.746   2.116   2.028
  982SOL     OW 2969   2.412   2.058   2.747
  982SOL    HW1 2970   2.407   2.053   2.847
  982SOL    HW2 2971   2.414   2.154   2.718
  983SOL     OW 2972   2.183   2.805   2.104
  983SOL    HW1 2973   2.265   2.844   2.062
  983SOL    HW2 2974   2.156   2.723   2.055
  984SOL     OW 2975   2.244   2.562   2.342
  984SOL    HW1 2976   2.289   2.472   2.339
  984SOL    HW2 2977   2.150   2.551   2.375
  985SOL     OW 2978   2.476   1.984   1.979
  985SOL    HW1 2979   2.574   1.962   1.986
  985SOL    HW2 2980   2.445   1.967   1.886
  986SOL     OW 2981   2.665   3.264   2.786
  986SOL    HW1 2982   2.755   3.278   2.744
  986SOL    HW2 2983   2.594   3.266   2.715
  987SOL     OW 2984   2.784   2.365   2.761
  987SOL    HW1 2985   2.759   2.356   2.665
  987SOL    HW2 2986   2.832   2.283   2.792
  988SOL     OW 2987   2.401   1.926   2.374
  988SOL    HW1 2988   2.320   1.927   2.432
  988SOL    HW2 2989   2.404   2.009   2.319
  989SOL     OW 2990   3.296   3.050   1.903
  989SOL    HW1 2991   3.328   2.974   1.960
  989SOL    HW2 2992   3.204   3.077   1.933
  990SOL     OW 2993   2.159   1.897   2.033
  990SOL    HW1 2994   2.208   1.981   2.012
  990SOL    HW2 2995   2.221   1.832   2.078
  991SOL     OW 2996   2.797   2.098   2.342
  991SOL    HW1 2997   2.749   2.139   2.264
  991SOL    HW2 2998   2.896   2.096   2.323
  992SOL     OW 2999   2.321   3.014   2.603
  992SOL    HW1 3000   2.250   2.987   2.668
  992SOL    HW2 3001   2.295   2.986   2.510
  993SOL     OW 3002   2.894   2.411   1.878
  993SOL    HW1 3003   2.853   2.493   1.839
  993SOL    HW2 3004   2.958   2.437   1.951
  994SOL     OW 3005   2.423   2.084   3.009
  994SOL    HW1 3006   2.461   2.000   3.046
  994SOL    HW2 3007   2.335   2.103   3.053
  995SOL     OW 3008   2.728   2.316   2.504
  995SOL    HW1 3009   2.696   2.388   2.442
  995SOL    HW2 3010   2.752   2.235   2.451
  996SOL     OW 3011   2.879   1.901   2.615
  996SOL    HW1 3012   2.807   1.906   2.546
  996SOL    HW2 3013   2.855   1.832   2.684
  997SOL     OW 3014   2.389   2.118   2.190
  997SOL    HW1 3015   2.416   2.059   2.115
  997SOL    HW2 3016   2.389   2.213   2.159
  998SOL     OW 3017   2.567   2.912   2.230
  998SOL    HW1 3018   2.553   2.919   2.329
  998SOL    HW2 3019   2.651   2.861   2.212
  999SOL     OW 3020   2.272   2.675   3.113
  999SOL    HW1 3021   2.358   2.687   3.163
  999SOL    HW2 3022   2.230   2.588   3.140
 1000SOL     OW 3023   2.229   2.962   2.363
 1000SOL    HW1 3024   2.222   3.045   2.307
 1000SOL    HW2 3025   2.233   2.882   2.303
 1001SOL     OW 3026   2.428   2.399   2.727
 1001SOL    HW1 3027   2.440   2.465   2.653
 1001SOL    HW2 3028   2.474   2.433   2.810
 1002SOL     OW 3029   3.114   3.210   2.250
 1002SOL    HW1 3030   3.164   3.287   2.290
 1002SOL    HW2 3031   3.019   3.212   2.282
 1003SOL     OW 3032   2.435   2.732   2.891
 1003SOL    HW1 3033   2.479   2.821   2.882
 1003SOL    HW2 3034   2.372   2.732   2.968
 1004SOL     OW 3035   3.222   2.724   2.907
 1004SOL    HW1 3036   3.147   2.724   2.841
 1004SOL    HW2 3037   3.259   2.632   2.916
 1005SOL     OW 3038   3.071   2.387   2.137
 1005SOL    HW1 3039   3.084   2.303   2.191
 1005SOL    HW2 3040   3.042   2.461   2.197
 1006SOL     OW 3041   2.169   2.075   3.093
 1006SOL    HW1 3042   2.146   2.112   3.183
 1006SOL    HW2 3043   2.139   1.980   3.087
 1007SOL     OW 3044   2.594   2.496   2.926
 1007SOL    HW1 3045   2.653   2.470   2.850
 1007SOL    HW2 3046   2.566   2.592   2.915
 1008SOL     OW 3047   2.169   1.925   2.480
 1008SOL    HW1 3048   2.158   2.019   2.513
 1008SOL    HW2 3049   2.164   1.862   2.557
 1009SOL     OW 3050   3.484   2.229   2.236
 1009SOL    HW1 3051   3.486   2.153   2.300
 1009SOL    HW2 3052   3.436   2.306   2.276
 1010SOL     OW 3053   2.885   2.628   2.828
 1010SOL    HW1 3054   2.900   2.649   2.924
 1010SOL    HW2 3055   2.855   2.533   2.819
 1011SOL     OW 3056   3.402   2.136   1.987
 1011SOL    HW1 3057   3.341   2.061   2.010
 1011SOL    HW2 3058   3.424   2.188   2.070
 1012SOL     OW 3059   2.181   2.672   2.811
 1012SOL    HW1 3060   2.274   2.708   2.816
 1012SOL    HW2 3061   2.175   2.587   2.863
 1013SOL     OW 3062   2.201   2.371   2.868
 1013SOL    HW1 3063   2.149   2.288   2.851
 1013SOL    HW2 3064   2.278   2.376   2.804
 1014SOL     OW 3065   3.022   2.069   3.339
 1014SOL    HW1 3066   3.022   2.133   3.416
 1014SOL    HW2 3067   3.050   2.117   3.256
 1015SOL     OW 3068   1.870   3.188   2.062
 1015SOL    HW1 3069   1.777   3.209   2.031
 1015SOL    HW2 3070   1.880   3.089   2.075
 1016SOL     OW 3071   2.864   2.658   3.100
 1016SOL    HW1 3072   2.905   2.626   3.186
 1016SOL    HW2 3073   2.768   2.631   3.097
 1017SOL     OW 3074   1.902   2.406   2.976
 1017SOL    HW1 3075   1.987   2.373   2.935
 1017SOL    HW2 3076   1.915   2.421   3.074
 1018SOL     OW 3077   2.677   2.434   2.187
 1018SOL    HW1 3078   2.684   2.345   2.141
 1018SOL    HW2 3079   2.583   2.468   2.179
 1019SOL     OW 3080   2.533   2.326   3.131
 1019SOL    HW1 3081   2.499   2.237   3.101
 1019SOL    HW2 3082   2.559   2.380   3.051
 1020SOL     OW 3083   2.335   2.362   2.053
 1020SOL    HW1 3084   2.396   2.442   2.057
 1020SOL    HW2 3085   2.240   2.393   2.060
 1021SOL     OW 3086   3.209   2.921   3.096
 1021SOL    HW1 3087   3.233   2.858   3.022
 1021SOL    HW2 3088   3.119   2.961   3.078
 1022SOL     OW 3089   1.945   3.120   2.884
 1022SOL    HW1 3090   1.940   3.119   2.984
 1022SOL    HW2 3091   1.862   3.079   2.846
 1023SOL     OW 3092   2.125   2.188   2.582
 1023SOL    HW1 3093   2.046   2.239   2.548
 1023SOL    HW2 3094   2.116   2.173   2.680
 1024SOL     OW 3095   2.684   2.864   3.234
 1024SOL    HW1 3096   2.724   2.863   3.142
 1024SOL    HW2 3097   2.694   2.956   3.274
 1025SOL     OW 3098   2.778   2.772   2.153
 1025SOL    HW1 3099   2.841   2.810   2.085
 1025SOL    HW2 3100   2.818   2.689   2.192
 1026SOL     OW 3101   3.476   3.154   3.151
 1026SOL    HW1 3102   3.536   3.157   3.231
 1026SOL    HW2 3103   3.401   3.218   3.164
 1027SOL     OW 3104   2.901   2.960   2.558
 1027SOL    HW1 3105   2.831   2.913   2.612
 1027SOL    HW2 3106   2.960   2.892   2.515
 1028SOL     OW 3107   2.876   2.098   2.833
 1028SOL    HW1 3108   2.868   2.062   2.740
 1028SOL    HW2 3109   2.874   2.022   2.898
 1029SOL     OW 3110   1.937   2.207   1.895
 1029SOL    HW1 3111   1.845   2.179   1.866
 1029SOL    HW2 3112   1.968   2.284   1.839
 1030SOL     OW 3113   1.934   2.028   2.180
 1030SOL    HW1 3114   1.917   2.111   2.126
 1030SOL    HW2 3115   2.024   1.991   2.158
 1031SOL     OW 3116   2.456   2.607   2.514
 1031SOL    HW1 3117   2.506   2.692   2.495
 1031SOL    HW2 3118   2.368   2.609   2.466
 1032SOL     OW 3119   2.721   2.818   2.723
 1032SOL    HW1 3120   2.775   2.749   2.771
 1032SOL    HW2 3121   2.689   2.887   2.789
 1033SOL     OW 3122   2.945   2.846   1.949
 1033SOL    HW1 3123   2.922   2.899   1.867
 1033SOL    HW2 3124   3.026   2.790   1.930
 1034SOL     OW 3125   1.941   3.102   2.515
 1034SOL    HW1 3126   1.940   3.055   2.603
 1034SOL    HW2 3127   2.023   3.074   2.464
 1035SOL     OW 3128   2.290   2.286   2.382
 1035SOL    HW1 3129   2.320   2.214   2.320
 1035SOL    HW2 3130   2.251   2.246   2.465
 1036SOL     OW 3131   2.863   1.896   3.016
 1036SOL    HW1 3132   2.800   1.824   2.985
 1036SOL    HW2 3133   2.956   1.860   3.016
 1037SOL     OW 3134   2.632   3.192   2.163
 1037SOL    HW1 3135   2.586   3.105   2.180
 1037SOL    HW2 3136   2.723   3.189   2.204
 1038SOL     OW 3137   1.901   2.939   2.162
 1038SOL    HW1 3138   2.000   2.928   2.153
 1038SOL    HW2 3139   1.861   2.853   2.194
   3.19200   3.19200   3.19200
