mobley_8525830_GMX.gro created by acpype (v: 2023.10.27) on Thu May 14 13:45:51 2026
 2057
    1MOL     C1    1   1.562   1.281   1.225
    1MOL     C2    2   1.473   1.394   1.274
    1MOL     C3    3   1.393   1.358   1.400
    1MOL     C4    4   1.301   1.471   1.448
    1MOL     C5    5   1.221   1.429   1.571
    1MOL     I1    6   1.092   1.586   1.635
    1MOL     H1    7   1.503   1.196   1.190
    1MOL     H2    8   1.623   1.316   1.141
    1MOL     H3    9   1.629   1.246   1.304
    1MOL     H4   10   1.404   1.424   1.194
    1MOL     H5   11   1.536   1.481   1.297
    1MOL     H6   12   1.464   1.333   1.480
    1MOL     H7   13   1.333   1.268   1.381
    1MOL     H8   14   1.362   1.560   1.471
    1MOL     H9   15   1.232   1.500   1.367
    1MOL    H10   16   1.289   1.403   1.653
    1MOL    H11   17   1.162   1.340   1.548
    2SOL     OW   18   0.230   0.628   0.113
    2SOL    HW1   19   0.137   0.626   0.150
    2SOL    HW2   20   0.231   0.589   0.021
    3SOL     OW   21   0.225   0.275   0.996
    3SOL    HW1   22   0.260   0.258   1.088
    3SOL    HW2   23   0.137   0.230   0.984
    4SOL     OW   24   0.019   0.368   0.647
    4SOL    HW1   25  -0.063   0.411   0.686
    4SOL    HW2   26  -0.009   0.295   0.584
    5SOL     OW   27   0.569   1.275   1.165
    5SOL    HW1   28   0.476   1.268   1.128
    5SOL    HW2   29   0.580   1.364   1.209
    6SOL     OW   30   1.555   1.511   0.703
    6SOL    HW1   31   1.498   1.495   0.784
    6SOL    HW2   32   1.496   1.521   0.623
    7SOL     OW   33   1.135   0.703   0.717
    7SOL    HW1   34   1.192   0.781   0.692
    7SOL    HW2   35   1.075   0.729   0.793
    8SOL     OW   36   1.755   0.607   0.231
    8SOL    HW1   37   1.743   0.594   0.132
    8SOL    HW2   38   1.725   0.526   0.280
    9SOL     OW   39   0.768   1.144   1.023
    9SOL    HW1   40   0.690   1.161   1.083
    9SOL    HW2   41   0.802   1.231   0.987
   10SOL     OW   42   0.850   0.798   1.823
   10SOL    HW1   43   0.846   0.874   1.888
   10SOL    HW2   44   0.872   0.834   1.732
   11SOL     OW   45   0.685   1.012   0.665
   11SOL    HW1   46   0.754   0.996   0.735
   11SOL    HW2   47   0.612   1.069   0.703
   12SOL     OW   48   0.686   1.161   1.803
   12SOL    HW1   49   0.746   1.240   1.817
   12SOL    HW2   50   0.600   1.192   1.762
   13SOL     OW   51   0.335   1.435   1.061
   13SOL    HW1   52   0.257   1.404   1.008
   13SOL    HW2   53   0.393   1.493   1.004
   14SOL     OW   54   0.438   0.392   1.499
   14SOL    HW1   55   0.520   0.336   1.508
   14SOL    HW2   56   0.357   0.334   1.503
   15SOL     OW   57   1.603   0.447   0.737
   15SOL    HW1   58   1.529   0.493   0.687
   15SOL    HW2   59   1.654   0.515   0.790
   16SOL     OW   60   0.231   1.713   0.483
   16SOL    HW1   61   0.265   1.790   0.537
   16SOL    HW2   62   0.275   1.713   0.393
   17SOL     OW   63   0.230   1.434   0.538
   17SOL    HW1   64   0.204   1.530   0.538
   17SOL    HW2   65   0.159   1.380   0.583
   18SOL     OW   66   0.240   1.091   0.886
   18SOL    HW1   67   0.254   1.007   0.938
   18SOL    HW2   68   0.185   1.155   0.941
   19SOL     OW   69   0.620   1.786   1.439
   19SOL    HW1   70   0.528   1.769   1.474
   19SOL    HW2   71   0.648   1.878   1.465
   20SOL     OW   72   0.606   0.964   0.123
   20SOL    HW1   73   0.613   1.048   0.069
   20SOL    HW2   74   0.652   0.977   0.211
   21SOL     OW   75   1.594   0.114   1.480
   21SOL    HW1   76   1.576   0.181   1.408
   21SOL    HW2   77   1.591   0.160   1.569
   22SOL     OW   78   0.122   0.643   0.563
   22SOL    HW1   79   0.077   0.555   0.580
   22SOL    HW2   80   0.121   0.697   0.647
   23SOL     OW   81   1.842   1.767   0.359
   23SOL    HW1   82   1.896   1.738   0.439
   23SOL    HW2   83   1.872   1.857   0.330
   24SOL     OW   84   0.027   1.596   0.117
   24SOL    HW1   85   0.008   1.500   0.138
   24SOL    HW2   86  -0.006   1.654   0.192
   25SOL     OW   87   1.689   0.922   0.612
   25SOL    HW1   88   1.784   0.893   0.620
   25SOL    HW2   89   1.681   0.987   0.537
   26SOL     OW   90   1.641   1.108   0.432
   26SOL    HW1   91   1.727   1.110   0.380
   26SOL    HW2   92   1.655   1.155   0.520
   27SOL     OW   93   0.113   0.737   1.597
   27SOL    HW1   94   0.201   0.724   1.642
   27SOL    HW2   95   0.100   0.834   1.575
   28SOL     OW   96   0.613   1.365   0.726
   28SOL    HW1   97   0.564   1.278   0.735
   28SOL    HW2   98   0.590   1.408   0.639
   29SOL     OW   99   0.809   0.004   0.502
   29SOL    HW1  100   0.849   0.095   0.493
   29SOL    HW2  101   0.709   0.012   0.508
   30SOL     OW  102   0.197   0.976   1.264
   30SOL    HW1  103   0.286   0.931   1.250
   30SOL    HW2  104   0.124   0.911   1.245
   31SOL     OW  105   1.525   0.999   0.190
   31SOL    HW1  106   1.462   0.923   0.203
   31SOL    HW2  107   1.573   1.017   0.276
   32SOL     OW  108   0.317   0.251   1.801
   32SOL    HW1  109   0.388   0.322   1.807
   32SOL    HW2  110   0.229   0.290   1.829
   33SOL     OW  111   1.466   1.417   0.953
   33SOL    HW1  112   1.407   1.423   1.033
   33SOL    HW2  113   1.451   1.329   0.907
   34SOL     OW  114   1.667   1.714   0.572
   34SOL    HW1  115   1.626   1.691   0.484
   34SOL    HW2  116   1.649   1.640   0.637
   35SOL     OW  117   0.598   0.729   0.270
   35SOL    HW1  118   0.622   0.798   0.202
   35SOL    HW2  119   0.520   0.762   0.324
   36SOL     OW  120   1.281   0.345   0.944
   36SOL    HW1  121   1.195   0.295   0.931
   36SOL    HW2  122   1.343   0.291   1.000
   37SOL     OW  123   1.576   1.662   0.307
   37SOL    HW1  124   1.665   1.708   0.310
   37SOL    HW2  125   1.555   1.638   0.212
   38SOL     OW  126   0.807   0.605   1.465
   38SOL    HW1  127   0.760   0.602   1.554
   38SOL    HW2  128   0.756   0.550   1.399
   39SOL     OW  129   1.394   0.469   1.674
   39SOL    HW1  130   1.374   0.512   1.762
   39SOL    HW2  131   1.472   0.407   1.683
   40SOL     OW  132   0.973   0.890   1.572
   40SOL    HW1  133   1.019   0.806   1.543
   40SOL    HW2  134   0.917   0.924   1.497
   41SOL     OW  135   0.991   0.410   1.242
   41SOL    HW1  136   0.914   0.444   1.296
   41SOL    HW2  137   0.957   0.359   1.163
   42SOL     OW  138   1.041   0.701   0.429
   42SOL    HW1  139   1.067   0.697   0.525
   42SOL    HW2  140   0.956   0.650   0.415
   43SOL     OW  141   0.076   0.811   0.789
   43SOL    HW1  142   0.175   0.799   0.798
   43SOL    HW2  143   0.052   0.906   0.810
   44SOL     OW  144   0.130   1.821   1.571
   44SOL    HW1  145   0.120   1.806   1.670
   44SOL    HW2  146   0.044   1.857   1.535
   45SOL     OW  147   0.865   0.348   0.195
   45SOL    HW1  148   0.924   0.411   0.146
   45SOL    HW2  149   0.884   0.254   0.166
   46SOL     OW  150   1.719   0.585   1.831
   46SOL    HW1  151   1.693   0.674   1.795
   46SOL    HW2  152   1.717   0.517   1.758
   47SOL     OW  153   1.362   1.144   0.545
   47SOL    HW1  154   1.445   1.115   0.497
   47SOL    HW2  155   1.313   1.211   0.489
   48SOL     OW  156   0.550   0.196   0.885
   48SOL    HW1  157   0.545   0.191   0.985
   48SOL    HW2  158   0.552   0.292   0.856
   49SOL     OW  159   1.008   1.456   0.477
   49SOL    HW1  160   0.962   1.528   0.425
   49SOL    HW2  161   1.004   1.476   0.575
   50SOL     OW  162   0.351   1.801   0.853
   50SOL    HW1  163   0.401   1.715   0.859
   50SOL    HW2  164   0.416   1.878   0.850
   51SOL     OW  165   1.795   1.066   0.873
   51SOL    HW1  166   1.733   1.051   0.797
   51SOL    HW2  167   1.743   1.077   0.958
   52SOL     OW  168   0.321   0.943   0.242
   52SOL    HW1  169   0.403   0.982   0.200
   52SOL    HW2  170   0.294   0.861   0.193
   53SOL     OW  171   1.458   0.735   0.728
   53SOL    HW1  172   1.453   0.670   0.803
   53SOL    HW2  173   1.538   0.794   0.741
   54SOL     OW  174   0.461   1.266   1.727
   54SOL    HW1  175   0.411   1.267   1.641
   54SOL    HW2  176   0.398   1.248   1.803
   55SOL     OW  177   1.111   1.776   0.237
   55SOL    HW1  178   1.051   1.714   0.287
   55SOL    HW2  179   1.142   1.732   0.152
   56SOL     OW  180   0.202   0.285   1.498
   56SOL    HW1  181   0.122   0.345   1.485
   56SOL    HW2  182   0.192   0.236   1.584
   57SOL     OW  183   1.632   1.377   0.081
   57SOL    HW1  184   1.600   1.471   0.071
   57SOL    HW2  185   1.556   1.314   0.069
   58SOL     OW  186   0.464   1.743   0.323
   58SOL    HW1  187   0.497   1.782   0.409
   58SOL    HW2  188   0.540   1.736   0.258
   59SOL     OW  189   1.400   0.107   0.426
   59SOL    HW1  190   1.376   0.070   0.336
   59SOL    HW2  191   1.499   0.123   0.430
   60SOL     OW  192   0.249   1.785   1.241
   60SOL    HW1  193   0.306   1.720   1.291
   60SOL    HW2  194   0.233   1.752   1.148
   61SOL     OW  195   0.940   1.698   0.904
   61SOL    HW1  196   1.020   1.641   0.925
   61SOL    HW2  197   0.891   1.658   0.827
   62SOL     OW  198   0.382   0.700   0.480
   62SOL    HW1  199   0.427   0.610   0.477
   62SOL    HW2  200   0.288   0.689   0.513
   63SOL     OW  201   1.547   0.222   1.729
   63SOL    HW1  202   1.542   0.259   1.821
   63SOL    HW2  203   1.475   0.153   1.717
   64SOL     OW  204   0.614   0.122   0.117
   64SOL    HW1  205   0.712   0.100   0.124
   64SOL    HW2  206   0.583   0.105   0.024
   65SOL     OW  207   0.781   0.264   1.749
   65SOL    HW1  208   0.848   0.203   1.792
   65SOL    HW2  209   0.708   0.283   1.814
   66SOL     OW  210   0.888   1.514   1.195
   66SOL    HW1  211   0.865   1.489   1.101
   66SOL    HW2  212   0.949   1.445   1.234
   67SOL     OW  213   1.351   0.590   1.433
   67SOL    HW1  214   1.379   0.547   1.518
   67SOL    HW2  215   1.376   0.686   1.434
   68SOL     OW  216   0.803   1.402   0.924
   68SOL    HW1  217   0.893   1.416   0.882
   68SOL    HW2  218   0.732   1.404   0.853
   69SOL     OW  219   0.922   0.503   0.899
   69SOL    HW1  220   0.897   0.494   0.803
   69SOL    HW2  221   0.970   0.421   0.930
   70SOL     OW  222   0.539   0.064   0.512
   70SOL    HW1  223   0.458   0.065   0.570
   70SOL    HW2  224   0.542   0.147   0.457
   71SOL     OW  225   1.434   1.188   0.041
   71SOL    HW1  226   1.466   1.112   0.098
   71SOL    HW2  227   1.342   1.215   0.071
   72SOL     OW  228   0.297   0.035   0.171
   72SOL    HW1  229   0.346   0.119   0.150
   72SOL    HW2  230   0.359  -0.030   0.216
   73SOL     OW  231   0.935   0.236   0.480
   73SOL    HW1  232   0.887   0.277   0.402
   73SOL    HW2  233   1.034   0.234   0.461
   74SOL     OW  234   1.076   0.683   1.464
   74SOL    HW1  235   0.996   0.622   1.467
   74SOL    HW2  236   1.157   0.630   1.440
   75SOL     OW  237   1.227   1.570   0.793
   75SOL    HW1  238   1.248   1.644   0.728
   75SOL    HW2  239   1.295   1.570   0.866
   76SOL     OW  240   0.459   1.152   0.741
   76SOL    HW1  241   0.388   1.125   0.806
   76SOL    HW2  242   0.433   1.124   0.648
   77SOL     OW  243   1.271   1.797   0.591
   77SOL    HW1  244   1.315   1.861   0.527
   77SOL    HW2  245   1.221   1.849   0.661
   78SOL     OW  246   1.032   0.549   0.016
   78SOL    HW1  247   0.991   0.631  -0.023
   78SOL    HW2  248   1.096   0.575   0.089
   79SOL     OW  249   0.078   0.556   1.386
   79SOL    HW1  250   0.170   0.555   1.345
   79SOL    HW2  251   0.072   0.630   1.453
   80SOL     OW  252   0.561   0.222   1.147
   80SOL    HW1  253   0.599   0.138   1.184
   80SOL    HW2  254   0.473   0.241   1.191
   81SOL     OW  255   0.866   0.454   0.642
   81SOL    HW1  256   0.834   0.526   0.580
   81SOL    HW2  257   0.890   0.373   0.589
   82SOL     OW  258   1.017   0.039   0.753
   82SOL    HW1  259   0.945   0.044   0.684
   82SOL    HW2  260   0.993  -0.030   0.822
   83SOL     OW  261   1.429   1.173   0.867
   83SOL    HW1  262   1.374   1.089   0.860
   83SOL    HW2  263   1.455   1.202   0.775
   84SOL     OW  264   1.466   0.590   0.992
   84SOL    HW1  265   1.436   0.495   0.999
   84SOL    HW2  266   1.539   0.606   1.058
   85SOL     OW  267   1.857   0.833   0.377
   85SOL    HW1  268   1.899   0.769   0.441
   85SOL    HW2  269   1.819   0.782   0.299
   86SOL     OW  270   0.488   1.385   0.174
   86SOL    HW1  271   0.401   1.370   0.221
   86SOL    HW2  272   0.471   1.411   0.079
   87SOL     OW  273   1.664   1.280   0.657
   87SOL    HW1  274   1.763   1.288   0.671
   87SOL    HW2  275   1.619   1.364   0.688
   88SOL     OW  276   1.390   0.575   0.078
   88SOL    HW1  277   1.336   0.554   0.159
   88SOL    HW2  278   1.481   0.534   0.087
   89SOL     OW  279   0.527   0.256   0.328
   89SOL    HW1  280   0.554   0.197   0.253
   89SOL    HW2  281   0.527   0.351   0.297
   90SOL     OW  282   1.754   1.223   1.588
   90SOL    HW1  283   1.845   1.184   1.575
   90SOL    HW2  284   1.762   1.319   1.612
   91SOL     OW  285   1.064   1.347   1.340
   91SOL    HW1  286   0.984   1.324   1.395
   91SOL    HW2  287   1.147   1.321   1.389
   92SOL     OW  288   1.592   1.629   1.625
   92SOL    HW1  289   1.619   1.663   1.535
   92SOL    HW2  290   1.671   1.591   1.671
   93SOL     OW  291   1.111   1.195   1.100
   93SOL    HW1  292   1.071   1.239   1.181
   93SOL    HW2  293   1.070   1.232   1.017
   94SOL     OW  294   0.915   0.089   1.402
   94SOL    HW1  295   0.940   0.069   1.307
   94SOL    HW2  296   0.987   0.145   1.444
   95SOL     OW  297   0.980   1.116   1.719
   95SOL    HW1  298   0.881   1.122   1.729
   95SOL    HW2  299   1.003   1.036   1.663
   96SOL     OW  300   0.705   1.050   0.368
   96SOL    HW1  301   0.691   1.057   0.467
   96SOL    HW2  302   0.789   0.999   0.350
   97SOL     OW  303   0.410   0.813   1.251
   97SOL    HW1  304   0.496   0.825   1.301
   97SOL    HW2  305   0.368   0.726   1.278
   98SOL     OW  306   1.274   0.386   1.262
   98SOL    HW1  307   1.295   0.460   1.326
   98SOL    HW2  308   1.185   0.403   1.219
   99SOL     OW  309   0.064   1.564   1.331
   99SOL    HW1  310   0.018   1.646   1.297
   99SOL    HW2  311   0.162   1.583   1.340
  100SOL     OW  312   0.367   1.100   0.501
  100SOL    HW1  313   0.360   1.183   0.445
  100SOL    HW2  314   0.371   1.020   0.441
  101SOL     OW  315   0.566   0.537   0.865
  101SOL    HW1  316   0.578   0.603   0.791
  101SOL    HW2  317   0.612   0.571   0.948
  102SOL     OW  318   1.252   1.348   0.388
  102SOL    HW1  319   1.302   1.425   0.428
  102SOL    HW2  320   1.157   1.350   0.420
  103SOL     OW  321   1.582   0.639   0.472
  103SOL    HW1  322   1.551   0.700   0.545
  103SOL    HW2  323   1.632   0.691   0.403
  104SOL     OW  324   0.354   1.510   1.329
  104SOL    HW1  325   0.333   1.466   1.242
  104SOL    HW2  326   0.451   1.536   1.332
  105SOL     OW  327   0.402   0.751   1.598
  105SOL    HW1  328   0.470   0.806   1.551
  105SOL    HW2  329   0.442   0.663   1.625
  106SOL     OW  330   1.587   0.779   1.670
  106SOL    HW1  331   1.495   0.817   1.665
  106SOL    HW2  332   1.647   0.826   1.605
  107SOL     OW  333   1.013   0.105   1.770
  107SOL    HW1  334   1.019   0.190   1.718
  107SOL    HW2  335   1.045   0.029   1.713
  108SOL     OW  336   0.504   0.050   1.740
  108SOL    HW1  337   0.462  -0.007   1.670
  108SOL    HW2  338   0.438   0.119   1.772
  109SOL     OW  339   0.573   0.870   1.029
  109SOL    HW1  340   0.617   0.959   1.020
  109SOL    HW2  341   0.510   0.870   1.106
  110SOL     OW  342   1.360   0.862   1.045
  110SOL    HW1  343   1.285   0.862   0.979
  110SOL    HW2  344   1.397   0.770   1.054
  111SOL     OW  345   1.209   0.525   0.275
  111SOL    HW1  346   1.222   0.441   0.329
  111SOL    HW2  347   1.180   0.599   0.335
  112SOL     OW  348   0.307   0.213   1.231
  112SOL    HW1  349   0.284   0.250   1.321
  112SOL    HW2  350   0.277   0.118   1.225
  113SOL     OW  351   0.037   1.310   1.282
  113SOL    HW1  352   0.090   1.261   1.350
  113SOL    HW2  353   0.059   1.408   1.287
  114SOL     OW  354   0.732   0.634   1.064
  114SOL    HW1  355   0.791   0.608   0.988
  114SOL    HW2  356   0.704   0.730   1.053
  115SOL     OW  357   1.728   0.935   1.854
  115SOL    HW1  358   1.682   0.928   1.765
  115SOL    HW2  359   1.666   0.979   1.920
  116SOL     OW  360   0.307   0.063   0.618
  116SOL    HW1  361   0.296   0.157   0.651
  116SOL    HW2  362   0.302   0.000   0.695
  117SOL     OW  363   1.622   0.367   0.374
  117SOL    HW1  364   1.624   0.291   0.438
  117SOL    HW2  365   1.574   0.444   0.414
  118SOL     OW  366   1.023   0.766   0.966
  118SOL    HW1  367   1.038   0.787   1.062
  118SOL    HW2  368   0.993   0.671   0.957
  119SOL     OW  369   1.859   1.518   1.605
  119SOL    HW1  370   1.873   1.545   1.510
  119SOL    HW2  371   1.942   1.540   1.658
  120SOL     OW  372   0.350   0.898   1.804
  120SOL    HW1  373   0.426   0.942   1.852
  120SOL    HW2  374   0.385   0.851   1.722
  121SOL     OW  375   1.540   0.274   0.125
  121SOL    HW1  376   1.479   0.199   0.148
  121SOL    HW2  377   1.562   0.326   0.208
  122SOL     OW  378   1.303   0.838   0.042
  122SOL    HW1  379   1.337   0.745   0.057
  122SOL    HW2  380   1.321   0.865  -0.053
  123SOL     OW  381   1.068   1.333   0.849
  123SOL    HW1  382   1.075   1.249   0.794
  123SOL    HW2  383   1.130   1.402   0.813
  124SOL     OW  384   0.319   0.810   0.949
  124SOL    HW1  385   0.412   0.846   0.954
  124SOL    HW2  386   0.313   0.725   1.001
  125SOL     OW  387   0.339   0.509   1.006
  125SOL    HW1  388   0.287   0.426   0.989
  125SOL    HW2  389   0.416   0.514   0.942
  126SOL     OW  390   1.138   0.380   1.678
  126SOL    HW1  391   1.093   0.443   1.742
  126SOL    HW2  392   1.231   0.411   1.661
  127SOL     OW  393   1.160   0.207   1.477
  127SOL    HW1  394   1.160   0.271   1.554
  127SOL    HW2  395   1.188   0.255   1.394
  128SOL     OW  396   0.008   1.326   0.200
  128SOL    HW1  397  -0.085   1.347   0.169
  128SOL    HW2  398   0.018   1.227   0.213
  129SOL     OW  399   0.088   1.801   0.927
  129SOL    HW1  400   0.046   1.715   0.900
  129SOL    HW2  401   0.182   1.804   0.893
  130SOL     OW  402   0.504   1.568   0.910
  130SOL    HW1  403   0.570   1.642   0.919
  130SOL    HW2  404   0.548   1.489   0.868
  131SOL     OW  405   1.002   0.796   1.238
  131SOL    HW1  406   1.043   0.764   1.324
  131SOL    HW2  407   0.906   0.769   1.235
  132SOL     OW  408   0.040   0.544   1.114
  132SOL    HW1  409   0.125   0.511   1.073
  132SOL    HW2  410   0.053   0.559   1.212
  133SOL     OW  411   0.189   0.520   1.722
  133SOL    HW1  412   0.248   0.480   1.652
  133SOL    HW2  413   0.131   0.591   1.681
  134SOL     OW  414   1.369   0.950   1.660
  134SOL    HW1  415   1.408   1.039   1.680
  134SOL    HW2  416   1.379   0.930   1.563
  135SOL     OW  417   0.815   0.572   0.325
  135SOL    HW1  418   0.822   0.483   0.279
  135SOL    HW2  419   0.721   0.606   0.317
  136SOL     OW  420   1.657   0.604   1.206
  136SOL    HW1  421   1.619   0.535   1.268
  136SOL    HW2  422   1.739   0.568   1.162
  137SOL     OW  423   0.252   1.564   1.744
  137SOL    HW1  424   0.222   1.621   1.820
  137SOL    HW2  425   0.245   1.467   1.770
  138SOL     OW  426   0.671   0.464   1.269
  138SOL    HW1  427   0.637   0.375   1.239
  138SOL    HW2  428   0.697   0.518   1.189
  139SOL     OW  429   0.930   1.678   1.465
  139SOL    HW1  430   0.906   1.660   1.370
  139SOL    HW2  431   0.960   1.772   1.475
  140SOL     OW  432   0.473   0.500   0.191
  140SOL    HW1  433   0.534   0.580   0.195
  140SOL    HW2  434   0.378   0.531   0.198
  141SOL     OW  435   0.159   1.137   1.466
  141SOL    HW1  436   0.181   1.076   1.542
  141SOL    HW2  437   0.169   1.088   1.380
  142SOL     OW  438   1.347   1.059   1.234
  142SOL    HW1  439   1.371   0.996   1.160
  142SOL    HW2  440   1.257   1.099   1.216
  143SOL     OW  441   1.302   0.855   0.309
  143SOL    HW1  442   1.216   0.824   0.351
  143SOL    HW2  443   1.298   0.841   0.210
  144SOL     OW  444   1.759   1.747   1.154
  144SOL    HW1  445   1.820   1.777   1.081
  144SOL    HW2  446   1.721   1.658   1.132
  145SOL     OW  447   1.252   1.731   1.128
  145SOL    HW1  448   1.336   1.736   1.074
  145SOL    HW2  449   1.229   1.635   1.146
  146SOL     OW  450   0.083   1.258   1.022
  146SOL    HW1  451   0.078   1.257   1.122
  146SOL    HW2  452   0.000   1.217   0.984
  147SOL     OW  453   0.688   1.662   1.716
  147SOL    HW1  454   0.632   1.743   1.725
  147SOL    HW2  455   0.740   1.666   1.630
  148SOL     OW  456   0.903   0.086   0.133
  148SOL    HW1  457   0.954   0.087   0.047
  148SOL    HW2  458   0.959   0.044   0.204
  149SOL     OW  459   1.726   0.135   0.523
  149SOL    HW1  460   1.799   0.118   0.456
  149SOL    HW2  461   1.695   0.048   0.561
  150SOL     OW  462   1.388   1.573   0.477
  150SOL    HW1  463   1.455   1.585   0.403
  150SOL    HW2  464   1.348   1.662   0.500
  151SOL     OW  465   0.130   1.794   1.851
  151SOL    HW1  466   0.089   1.720   1.904
  151SOL    HW2  467   0.194   1.845   1.909
  152SOL     OW  468   1.280   0.927   0.672
  152SOL    HW1  469   1.340   0.846   0.674
  152SOL    HW2  470   1.320   0.996   0.612
  153SOL     OW  471   0.830   1.273   1.422
  153SOL    HW1  472   0.825   1.306   1.517
  153SOL    HW2  473   0.744   1.292   1.376
  154SOL     OW  474   0.672   1.616   0.154
  154SOL    HW1  475   0.681   1.626   0.055
  154SOL    HW2  476   0.632   1.527   0.175
  155SOL     OW  477   1.650   1.720   1.394
  155SOL    HW1  478   1.703   1.730   1.310
  155SOL    HW2  479   1.623   1.810   1.428
  156SOL     OW  480   1.841   0.175   0.963
  156SOL    HW1  481   1.880   0.090   0.927
  156SOL    HW2  482   1.743   0.177   0.944
  157SOL     OW  483   0.263   0.326   0.720
  157SOL    HW1  484   0.184   0.377   0.686
  157SOL    HW2  485   0.254   0.311   0.818
  158SOL     OW  486   1.194   1.612   0.031
  158SOL    HW1  487   1.200   1.519   0.068
  158SOL    HW2  488   1.135   1.612  -0.049
  159SOL     OW  489   0.822   1.002   1.372
  159SOL    HW1  490   0.862   1.001   1.280
  159SOL    HW2  491   0.832   1.094   1.412
  160SOL     OW  492   0.916   0.910   0.291
  160SOL    HW1  493   0.979   0.948   0.223
  160SOL    HW2  494   0.956   0.827   0.330
  161SOL     OW  495   1.504   1.607   0.044
  161SOL    HW1  496   1.412   1.644   0.051
  161SOL    HW2  497   1.542   1.627  -0.046
  162SOL     OW  498   0.372   1.288   1.490
  162SOL    HW1  499   0.359   1.381   1.456
  162SOL    HW2  500   0.288   1.236   1.477
  163SOL     OW  501   1.039   1.098   0.696
  163SOL    HW1  502   0.969   1.051   0.750
  163SOL    HW2  503   1.098   1.030   0.653
  164SOL     OW  504   1.014   0.236   0.971
  164SOL    HW1  505   1.006   0.200   0.878
  164SOL    HW2  506   1.012   0.160   1.036
  165SOL     OW  507   0.590   1.487   0.491
  165SOL    HW1  508   0.632   1.429   0.421
  165SOL    HW2  509   0.546   1.566   0.447
  166SOL     OW  510   1.709   0.385   1.381
  166SOL    HW1  511   1.782   0.454   1.385
  166SOL    HW2  512   1.737   0.310   1.322
  167SOL     OW  513   0.255   1.348   0.290
  167SOL    HW1  514   0.159   1.349   0.263
  167SOL    HW2  515   0.267   1.401   0.374
  168SOL     OW  516   0.105   1.013   1.726
  168SOL    HW1  517   0.028   0.980   1.780
  168SOL    HW2  518   0.190   0.983   1.768
  169SOL     OW  519   0.672   0.203   1.489
  169SOL    HW1  520   0.762   0.187   1.449
  169SOL    HW2  521   0.680   0.208   1.588
  170SOL     OW  522   0.075   0.345   0.033
  170SOL    HW1  523  -0.017   0.317   0.004
  170SOL    HW2  524   0.106   0.422  -0.023
  171SOL     OW  525   1.440   0.856   1.398
  171SOL    HW1  526   1.383   0.908   1.335
  171SOL    HW2  527   1.536   0.868   1.374
  172SOL     OW  528   0.072   0.166   0.318
  172SOL    HW1  529   0.055   0.249   0.264
  172SOL    HW2  530   0.162   0.129   0.296
  173SOL     OW  531   1.183   1.335   0.119
  173SOL    HW1  532   1.084   1.324   0.121
  173SOL    HW2  533   1.217   1.350   0.212
  174SOL     OW  534   0.613   0.842   1.431
  174SOL    HW1  535   0.669   0.923   1.414
  174SOL    HW2  536   0.672   0.762   1.434
  175SOL     OW  537   1.493   1.767   0.959
  175SOL    HW1  538   1.526   1.831   0.890
  175SOL    HW2  539   1.559   1.761   1.034
  176SOL     OW  540   0.716   0.565   1.708
  176SOL    HW1  541   0.735   0.630   1.782
  176SOL    HW2  542   0.776   0.485   1.717
  177SOL     OW  543   1.450   1.220   1.633
  177SOL    HW1  544   1.441   1.210   1.732
  177SOL    HW2  545   1.546   1.213   1.607
  178SOL     OW  546   0.390   1.741   1.560
  178SOL    HW1  547   0.299   1.782   1.558
  178SOL    HW2  548   0.383   1.647   1.592
  179SOL     OW  549   1.674   0.883   1.254
  179SOL    HW1  550   1.647   0.794   1.217
  179SOL    HW2  551   1.675   0.951   1.181
  180SOL     OW  552   1.225   0.325   0.449
  180SOL    HW1  553   1.290   0.251   0.438
  180SOL    HW2  554   1.245   0.375   0.533
  181SOL     OW  555   0.594   0.745   0.652
  181SOL    HW1  556   0.644   0.830   0.633
  181SOL    HW2  557   0.506   0.747   0.604
  182SOL     OW  558   1.777   0.342   1.642
  182SOL    HW1  559   1.760   0.373   1.548
  182SOL    HW2  560   1.693   0.305   1.680
  183SOL     OW  561   1.730   0.934   1.517
  183SOL    HW1  562   1.768   1.025   1.532
  183SOL    HW2  563   1.722   0.917   1.418
  184SOL     OW  564   0.859   1.374   0.016
  184SOL    HW1  565   0.813   1.389   0.104
  184SOL    HW2  566   0.903   1.459  -0.014
  185SOL     OW  567   0.661   1.790   0.953
  185SOL    HW1  568   0.615   1.878   0.940
  185SOL    HW2  569   0.760   1.802   0.946
  186SOL     OW  570   0.859   0.956   0.861
  186SOL    HW1  571   0.913   0.887   0.909
  186SOL    HW2  572   0.827   1.025   0.927
  187SOL     OW  573   1.083   0.984   0.087
  187SOL    HW1  574   1.060   1.037   0.005
  187SOL    HW2  575   1.164   0.928   0.068
  188SOL     OW  576   1.861   1.569   0.851
  188SOL    HW1  577   1.790   1.557   0.781
  188SOL    HW2  578   1.862   1.490   0.911
  189SOL     OW  579   0.221   1.314   1.844
  189SOL    HW1  580   0.156   1.241   1.823
  189SOL    HW2  581   0.225   1.328   1.942
  190SOL     OW  582   0.079   1.240   0.653
  190SOL    HW1  583   0.078   1.193   0.741
  190SOL    HW2  584   0.161   1.212   0.602
  191SOL     OW  585   0.672   1.391   1.624
  191SOL    HW1  586   0.594   1.341   1.662
  191SOL    HW2  587   0.669   1.486   1.655
  192SOL     OW  588   1.824   0.192   1.227
  192SOL    HW1  589   1.820   0.102   1.271
  192SOL    HW2  590   1.827   0.181   1.128
  193SOL     OW  591   0.428   0.424   0.520
  193SOL    HW1  592   0.458   0.352   0.458
  193SOL    HW2  593   0.389   0.384   0.603
  194SOL     OW  594   1.705   1.487   1.104
  194SOL    HW1  595   1.612   1.462   1.077
  194SOL    HW2  596   1.731   1.437   1.186
  195SOL     OW  597   0.317   0.547   1.280
  195SOL    HW1  598   0.355   0.488   1.352
  195SOL    HW2  599   0.357   0.521   1.192
  196SOL     OW  600   0.812   1.586   0.687
  196SOL    HW1  601   0.844   1.596   0.593
  196SOL    HW2  602   0.733   1.524   0.689
  197SOL     OW  603   1.424   0.214   1.112
  197SOL    HW1  604   1.476   0.149   1.167
  197SOL    HW2  605   1.375   0.277   1.173
  198SOL     OW  606   1.001   0.034   1.154
  198SOL    HW1  607   0.938  -0.038   1.123
  198SOL    HW2  608   1.094  -0.002   1.154
  199SOL     OW  609   0.770   1.330   0.301
  199SOL    HW1  610   0.724   1.243   0.318
  199SOL    HW2  611   0.861   1.327   0.342
  200SOL     OW  612   0.618   1.567   1.284
  200SOL    HW1  613   0.613   1.649   1.341
  200SOL    HW2  614   0.707   1.564   1.239
  201SOL     OW  615   1.352   0.052   0.168
  201SOL    HW1  616   1.387   0.011   0.084
  201SOL    HW2  617   1.262   0.014   0.188
  202SOL     OW  618   1.300   0.453   0.691
  202SOL    HW1  619   1.241   0.533   0.695
  202SOL    HW2  620   1.315   0.418   0.784
  203SOL     OW  621   1.593   0.221   0.882
  203SOL    HW1  622   1.509   0.220   0.936
  203SOL    HW2  623   1.595   0.304   0.826
  204SOL     OW  624   0.039   1.077   0.300
  204SOL    HW1  625   0.138   1.066   0.291
  204SOL    HW2  626  -0.001   0.991   0.332
  205SOL     OW  627   0.875   1.646   0.337
  205SOL    HW1  628   0.798   1.611   0.283
  205SOL    HW2  629   0.843   1.717   0.399
  206SOL     OW  630   0.230   0.628   1.975
  206SOL    HW1  631   0.137   0.626   2.012
  206SOL    HW2  632   0.231   0.589   1.883
  207SOL     OW  633   0.019   0.368   2.509
  207SOL    HW1  634  -0.063   0.411   2.548
  207SOL    HW2  635  -0.009   0.295   2.446
  208SOL     OW  636   1.555   1.511   2.565
  208SOL    HW1  637   1.498   1.495   2.646
  208SOL    HW2  638   1.496   1.521   2.485
  209SOL     OW  639   1.135   0.703   2.579
  209SOL    HW1  640   1.192   0.781   2.554
  209SOL    HW2  641   1.075   0.729   2.655
  210SOL     OW  642   1.755   0.607   2.093
  210SOL    HW1  643   1.743   0.594   1.994
  210SOL    HW2  644   1.725   0.526   2.142
  211SOL     OW  645   0.768   1.144   2.885
  211SOL    HW1  646   0.690   1.161   2.945
  211SOL    HW2  647   0.802   1.231   2.849
  212SOL     OW  648   0.685   1.012   2.527
  212SOL    HW1  649   0.754   0.996   2.597
  212SOL    HW2  650   0.612   1.069   2.565
  213SOL     OW  651   1.603   0.447   2.599
  213SOL    HW1  652   1.529   0.493   2.549
  213SOL    HW2  653   1.654   0.515   2.652
  214SOL     OW  654   0.231   1.713   2.345
  214SOL    HW1  655   0.265   1.790   2.399
  214SOL    HW2  656   0.275   1.713   2.255
  215SOL     OW  657   0.230   1.434   2.400
  215SOL    HW1  658   0.204   1.530   2.400
  215SOL    HW2  659   0.159   1.380   2.445
  216SOL     OW  660   0.240   1.091   2.748
  216SOL    HW1  661   0.254   1.007   2.800
  216SOL    HW2  662   0.185   1.155   2.803
  217SOL     OW  663   0.606   0.964   1.985
  217SOL    HW1  664   0.613   1.048   1.931
  217SOL    HW2  665   0.652   0.977   2.073
  218SOL     OW  666   0.122   0.643   2.425
  218SOL    HW1  667   0.077   0.555   2.442
  218SOL    HW2  668   0.121   0.697   2.509
  219SOL     OW  669   1.842   1.767   2.221
  219SOL    HW1  670   1.896   1.738   2.301
  219SOL    HW2  671   1.872   1.857   2.192
  220SOL     OW  672   0.027   1.596   1.979
  220SOL    HW1  673   0.008   1.500   2.000
  220SOL    HW2  674  -0.006   1.654   2.054
  221SOL     OW  675   1.689   0.922   2.474
  221SOL    HW1  676   1.784   0.893   2.482
  221SOL    HW2  677   1.681   0.987   2.399
  222SOL     OW  678   1.641   1.108   2.294
  222SOL    HW1  679   1.727   1.110   2.242
  222SOL    HW2  680   1.655   1.155   2.382
  223SOL     OW  681   0.613   1.365   2.588
  223SOL    HW1  682   0.564   1.278   2.597
  223SOL    HW2  683   0.590   1.408   2.501
  224SOL     OW  684   0.809   0.004   2.364
  224SOL    HW1  685   0.849   0.095   2.355
  224SOL    HW2  686   0.709   0.012   2.370
  225SOL     OW  687   1.525   0.999   2.052
  225SOL    HW1  688   1.462   0.923   2.065
  225SOL    HW2  689   1.573   1.017   2.138
  226SOL     OW  690   1.667   1.714   2.434
  226SOL    HW1  691   1.626   1.691   2.346
  226SOL    HW2  692   1.649   1.640   2.499
  227SOL     OW  693   0.598   0.729   2.132
  227SOL    HW1  694   0.622   0.798   2.064
  227SOL    HW2  695   0.520   0.762   2.186
  228SOL     OW  696   1.281   0.345   2.806
  228SOL    HW1  697   1.195   0.295   2.793
  228SOL    HW2  698   1.343   0.291   2.862
  229SOL     OW  699   1.576   1.662   2.169
  229SOL    HW1  700   1.665   1.708   2.172
  229SOL    HW2  701   1.555   1.638   2.074
  230SOL     OW  702   1.041   0.701   2.291
  230SOL    HW1  703   1.067   0.697   2.387
  230SOL    HW2  704   0.956   0.650   2.277
  231SOL     OW  705   0.076   0.811   2.651
  231SOL    HW1  706   0.175   0.799   2.660
  231SOL    HW2  707   0.052   0.906   2.672
  232SOL     OW  708   0.865   0.348   2.057
  232SOL    HW1  709   0.924   0.411   2.008
  232SOL    HW2  710   0.884   0.254   2.028
  233SOL     OW  711   1.362   1.144   2.407
  233SOL    HW1  712   1.445   1.115   2.359
  233SOL    HW2  713   1.313   1.211   2.351
  234SOL     OW  714   1.008   1.456   2.339
  234SOL    HW1  715   0.962   1.528   2.287
  234SOL    HW2  716   1.004   1.476   2.437
  235SOL     OW  717   0.351   1.801   2.715
  235SOL    HW1  718   0.401   1.715   2.721
  235SOL    HW2  719   0.416   1.878   2.712
  236SOL     OW  720   1.795   1.066   2.735
  236SOL    HW1  721   1.733   1.051   2.659
  236SOL    HW2  722   1.743   1.077   2.820
  237SOL     OW  723   0.321   0.943   2.104
  237SOL    HW1  724   0.403   0.982   2.062
  237SOL    HW2  725   0.294   0.861   2.055
  238SOL     OW  726   1.458   0.735   2.590
  238SOL    HW1  727   1.453   0.670   2.665
  238SOL    HW2  728   1.538   0.794   2.603
  239SOL     OW  729   1.111   1.776   2.099
  239SOL    HW1  730   1.051   1.714   2.149
  239SOL    HW2  731   1.142   1.732   2.014
  240SOL     OW  732   1.632   1.377   1.943
  240SOL    HW1  733   1.600   1.471   1.933
  240SOL    HW2  734   1.556   1.314   1.931
  241SOL     OW  735   0.464   1.743   2.185
  241SOL    HW1  736   0.497   1.782   2.271
  241SOL    HW2  737   0.540   1.736   2.120
  242SOL     OW  738   1.400   0.107   2.288
  242SOL    HW1  739   1.376   0.070   2.198
  242SOL    HW2  740   1.499   0.123   2.292
  243SOL     OW  741   0.382   0.700   2.342
  243SOL    HW1  742   0.427   0.610   2.339
  243SOL    HW2  743   0.288   0.689   2.375
  244SOL     OW  744   0.614   0.122   1.979
  244SOL    HW1  745   0.712   0.100   1.986
  244SOL    HW2  746   0.583   0.105   1.886
  245SOL     OW  747   0.539   0.064   2.374
  245SOL    HW1  748   0.458   0.065   2.432
  245SOL    HW2  749   0.542   0.147   2.319
  246SOL     OW  750   1.434   1.188   1.903
  246SOL    HW1  751   1.466   1.112   1.960
  246SOL    HW2  752   1.342   1.215   1.933
  247SOL     OW  753   0.297   0.035   2.033
  247SOL    HW1  754   0.346   0.119   2.012
  247SOL    HW2  755   0.359  -0.030   2.078
  248SOL     OW  756   0.935   0.236   2.342
  248SOL    HW1  757   0.887   0.277   2.264
  248SOL    HW2  758   1.034   0.234   2.323
  249SOL     OW  759   0.459   1.152   2.603
  249SOL    HW1  760   0.388   1.125   2.668
  249SOL    HW2  761   0.433   1.124   2.510
  250SOL     OW  762   1.271   1.797   2.453
  250SOL    HW1  763   1.315   1.861   2.389
  250SOL    HW2  764   1.221   1.849   2.523
  251SOL     OW  765   1.032   0.549   1.878
  251SOL    HW1  766   0.991   0.631   1.839
  251SOL    HW2  767   1.096   0.575   1.951
  252SOL     OW  768   0.866   0.454   2.504
  252SOL    HW1  769   0.834   0.526   2.442
  252SOL    HW2  770   0.890   0.373   2.451
  253SOL     OW  771   1.017   0.039   2.615
  253SOL    HW1  772   0.945   0.044   2.546
  253SOL    HW2  773   0.993  -0.030   2.684
  254SOL     OW  774   1.857   0.833   2.239
  254SOL    HW1  775   1.899   0.769   2.303
  254SOL    HW2  776   1.819   0.782   2.161
  255SOL     OW  777   0.488   1.385   2.036
  255SOL    HW1  778   0.401   1.370   2.083
  255SOL    HW2  779   0.471   1.411   1.941
  256SOL     OW  780   1.664   1.280   2.519
  256SOL    HW1  781   1.763   1.288   2.533
  256SOL    HW2  782   1.619   1.364   2.550
  257SOL     OW  783   1.390   0.575   1.940
  257SOL    HW1  784   1.336   0.554   2.021
  257SOL    HW2  785   1.481   0.534   1.949
  258SOL     OW  786   0.527   0.256   2.190
  258SOL    HW1  787   0.554   0.197   2.115
  258SOL    HW2  788   0.527   0.351   2.159
  259SOL     OW  789   0.705   1.050   2.230
  259SOL    HW1  790   0.691   1.057   2.329
  259SOL    HW2  791   0.789   0.999   2.212
  260SOL     OW  792   0.367   1.100   2.363
  260SOL    HW1  793   0.360   1.183   2.307
  260SOL    HW2  794   0.371   1.020   2.303
  261SOL     OW  795   0.566   0.537   2.727
  261SOL    HW1  796   0.578   0.603   2.653
  261SOL    HW2  797   0.612   0.571   2.810
  262SOL     OW  798   1.252   1.348   2.250
  262SOL    HW1  799   1.302   1.425   2.290
  262SOL    HW2  800   1.157   1.350   2.282
  263SOL     OW  801   1.582   0.639   2.334
  263SOL    HW1  802   1.551   0.700   2.407
  263SOL    HW2  803   1.632   0.691   2.265
  264SOL     OW  804   1.209   0.525   2.137
  264SOL    HW1  805   1.222   0.441   2.191
  264SOL    HW2  806   1.180   0.599   2.197
  265SOL     OW  807   0.307   0.063   2.480
  265SOL    HW1  808   0.296   0.157   2.513
  265SOL    HW2  809   0.302   0.000   2.557
  266SOL     OW  810   1.622   0.367   2.236
  266SOL    HW1  811   1.624   0.291   2.300
  266SOL    HW2  812   1.574   0.444   2.276
  267SOL     OW  813   1.540   0.274   1.987
  267SOL    HW1  814   1.479   0.199   2.010
  267SOL    HW2  815   1.562   0.326   2.070
  268SOL     OW  816   1.303   0.838   1.904
  268SOL    HW1  817   1.337   0.745   1.919
  268SOL    HW2  818   1.321   0.865   1.809
  269SOL     OW  819   1.068   1.333   2.711
  269SOL    HW1  820   1.075   1.249   2.656
  269SOL    HW2  821   1.130   1.402   2.675
  270SOL     OW  822   0.008   1.326   2.062
  270SOL    HW1  823  -0.085   1.347   2.031
  270SOL    HW2  824   0.018   1.227   2.075
  271SOL     OW  825   0.088   1.801   2.789
  271SOL    HW1  826   0.046   1.715   2.762
  271SOL    HW2  827   0.182   1.804   2.755
  272SOL     OW  828   0.815   0.572   2.187
  272SOL    HW1  829   0.822   0.483   2.141
  272SOL    HW2  830   0.721   0.606   2.179
  273SOL     OW  831   0.473   0.500   2.053
  273SOL    HW1  832   0.534   0.580   2.057
  273SOL    HW2  833   0.378   0.531   2.060
  274SOL     OW  834   1.302   0.855   2.171
  274SOL    HW1  835   1.216   0.824   2.213
  274SOL    HW2  836   1.298   0.841   2.072
  275SOL     OW  837   1.726   0.135   2.385
  275SOL    HW1  838   1.799   0.118   2.318
  275SOL    HW2  839   1.695   0.048   2.423
  276SOL     OW  840   1.388   1.573   2.339
  276SOL    HW1  841   1.455   1.585   2.265
  276SOL    HW2  842   1.348   1.662   2.362
  277SOL     OW  843   1.280   0.927   2.534
  277SOL    HW1  844   1.340   0.846   2.536
  277SOL    HW2  845   1.320   0.996   2.474
  278SOL     OW  846   0.672   1.616   2.016
  278SOL    HW1  847   0.681   1.626   1.917
  278SOL    HW2  848   0.632   1.527   2.037
  279SOL     OW  849   1.841   0.175   2.825
  279SOL    HW1  850   1.880   0.090   2.789
  279SOL    HW2  851   1.743   0.177   2.806
  280SOL     OW  852   0.263   0.326   2.582
  280SOL    HW1  853   0.184   0.377   2.548
  280SOL    HW2  854   0.254   0.311   2.680
  281SOL     OW  855   1.194   1.612   1.893
  281SOL    HW1  856   1.200   1.519   1.930
  281SOL    HW2  857   1.135   1.612   1.813
  282SOL     OW  858   0.916   0.910   2.153
  282SOL    HW1  859   0.979   0.948   2.085
  282SOL    HW2  860   0.956   0.827   2.192
  283SOL     OW  861   1.504   1.607   1.906
  283SOL    HW1  862   1.412   1.644   1.913
  283SOL    HW2  863   1.542   1.627   1.816
  284SOL     OW  864   1.039   1.098   2.558
  284SOL    HW1  865   0.969   1.051   2.612
  284SOL    HW2  866   1.098   1.030   2.515
  285SOL     OW  867   0.590   1.487   2.353
  285SOL    HW1  868   0.632   1.429   2.283
  285SOL    HW2  869   0.546   1.566   2.309
  286SOL     OW  870   0.255   1.348   2.152
  286SOL    HW1  871   0.159   1.349   2.125
  286SOL    HW2  872   0.267   1.401   2.236
  287SOL     OW  873   0.075   0.345   1.895
  287SOL    HW1  874  -0.017   0.317   1.866
  287SOL    HW2  875   0.106   0.422   1.839
  288SOL     OW  876   0.072   0.166   2.180
  288SOL    HW1  877   0.055   0.249   2.126
  288SOL    HW2  878   0.162   0.129   2.158
  289SOL     OW  879   1.183   1.335   1.981
  289SOL    HW1  880   1.084   1.324   1.983
  289SOL    HW2  881   1.217   1.350   2.074
  290SOL     OW  882   1.225   0.325   2.311
  290SOL    HW1  883   1.290   0.251   2.300
  290SOL    HW2  884   1.245   0.375   2.395
  291SOL     OW  885   0.594   0.745   2.514
  291SOL    HW1  886   0.644   0.830   2.495
  291SOL    HW2  887   0.506   0.747   2.466
  292SOL     OW  888   0.859   1.374   1.878
  292SOL    HW1  889   0.813   1.389   1.966
  292SOL    HW2  890   0.903   1.459   1.848
  293SOL     OW  891   0.661   1.790   2.815
  293SOL    HW1  892   0.615   1.878   2.802
  293SOL    HW2  893   0.760   1.802   2.808
  294SOL     OW  894   0.859   0.956   2.723
  294SOL    HW1  895   0.913   0.887   2.771
  294SOL    HW2  896   0.827   1.025   2.789
  295SOL     OW  897   1.083   0.984   1.949
  295SOL    HW1  898   1.060   1.037   1.867
  295SOL    HW2  899   1.164   0.928   1.930
  296SOL     OW  900   1.861   1.569   2.713
  296SOL    HW1  901   1.790   1.557   2.643
  296SOL    HW2  902   1.862   1.490   2.773
  297SOL     OW  903   0.079   1.240   2.515
  297SOL    HW1  904   0.078   1.193   2.603
  297SOL    HW2  905   0.161   1.212   2.464
  298SOL     OW  906   0.428   0.424   2.382
  298SOL    HW1  907   0.458   0.352   2.320
  298SOL    HW2  908   0.389   0.384   2.465
  299SOL     OW  909   0.812   1.586   2.549
  299SOL    HW1  910   0.844   1.596   2.455
  299SOL    HW2  911   0.733   1.524   2.551
  300SOL     OW  912   0.770   1.330   2.163
  300SOL    HW1  913   0.724   1.243   2.180
  300SOL    HW2  914   0.861   1.327   2.204
  301SOL     OW  915   1.352   0.052   2.030
  301SOL    HW1  916   1.387   0.011   1.946
  301SOL    HW2  917   1.262   0.014   2.050
  302SOL     OW  918   1.300   0.453   2.553
  302SOL    HW1  919   1.241   0.533   2.557
  302SOL    HW2  920   1.315   0.418   2.646
  303SOL     OW  921   0.039   1.077   2.162
  303SOL    HW1  922   0.138   1.066   2.153
  303SOL    HW2  923  -0.001   0.991   2.194
  304SOL     OW  924   0.875   1.646   2.199
  304SOL    HW1  925   0.798   1.611   2.145
  304SOL    HW2  926   0.843   1.717   2.261
  305SOL     OW  927   0.230   2.490   0.113
  305SOL    HW1  928   0.137   2.488   0.150
  305SOL    HW2  929   0.231   2.451   0.021
  306SOL     OW  930   0.225   2.137   0.996
  306SOL    HW1  931   0.260   2.120   1.088
  306SOL    HW2  932   0.137   2.092   0.984
  307SOL     OW  933   0.019   2.230   0.647
  307SOL    HW1  934  -0.063   2.273   0.686
  307SOL    HW2  935  -0.009   2.157   0.584
  308SOL     OW  936   1.135   2.565   0.717
  308SOL    HW1  937   1.192   2.643   0.692
  308SOL    HW2  938   1.075   2.591   0.793
  309SOL     OW  939   1.755   2.469   0.231
  309SOL    HW1  940   1.743   2.456   0.132
  309SOL    HW2  941   1.725   2.388   0.280
  310SOL     OW  942   0.850   2.660   1.823
  310SOL    HW1  943   0.846   2.736   1.888
  310SOL    HW2  944   0.872   2.696   1.732
  311SOL     OW  945   0.685   2.874   0.665
  311SOL    HW1  946   0.754   2.858   0.735
  311SOL    HW2  947   0.612   2.931   0.703
  312SOL     OW  948   0.438   2.254   1.499
  312SOL    HW1  949   0.520   2.198   1.508
  312SOL    HW2  950   0.357   2.196   1.503
  313SOL     OW  951   1.603   2.309   0.737
  313SOL    HW1  952   1.529   2.355   0.687
  313SOL    HW2  953   1.654   2.377   0.790
  314SOL     OW  954   1.594   1.976   1.480
  314SOL    HW1  955   1.576   2.043   1.408
  314SOL    HW2  956   1.591   2.022   1.569
  315SOL     OW  957   0.122   2.505   0.563
  315SOL    HW1  958   0.077   2.417   0.580
  315SOL    HW2  959   0.121   2.559   0.647
  316SOL     OW  960   0.113   2.599   1.597
  316SOL    HW1  961   0.201   2.586   1.642
  316SOL    HW2  962   0.100   2.696   1.575
  317SOL     OW  963   0.809   1.866   0.502
  317SOL    HW1  964   0.849   1.957   0.493
  317SOL    HW2  965   0.709   1.874   0.508
  318SOL     OW  966   0.317   2.113   1.801
  318SOL    HW1  967   0.388   2.184   1.807
  318SOL    HW2  968   0.229   2.152   1.829
  319SOL     OW  969   0.598   2.591   0.270
  319SOL    HW1  970   0.622   2.660   0.202
  319SOL    HW2  971   0.520   2.624   0.324
  320SOL     OW  972   1.281   2.207   0.944
  320SOL    HW1  973   1.195   2.157   0.931
  320SOL    HW2  974   1.343   2.153   1.000
  321SOL     OW  975   0.807   2.467   1.465
  321SOL    HW1  976   0.760   2.464   1.554
  321SOL    HW2  977   0.756   2.412   1.399
  322SOL     OW  978   1.394   2.331   1.674
  322SOL    HW1  979   1.374   2.374   1.762
  322SOL    HW2  980   1.472   2.269   1.683
  323SOL     OW  981   0.991   2.272   1.242
  323SOL    HW1  982   0.914   2.306   1.296
  323SOL    HW2  983   0.957   2.221   1.163
  324SOL     OW  984   1.041   2.563   0.429
  324SOL    HW1  985   1.067   2.559   0.525
  324SOL    HW2  986   0.956   2.512   0.415
  325SOL     OW  987   0.076   2.673   0.789
  325SOL    HW1  988   0.175   2.661   0.798
  325SOL    HW2  989   0.052   2.768   0.810
  326SOL     OW  990   0.865   2.210   0.195
  326SOL    HW1  991   0.924   2.273   0.146
  326SOL    HW2  992   0.884   2.116   0.166
  327SOL     OW  993   1.719   2.447   1.831
  327SOL    HW1  994   1.693   2.536   1.795
  327SOL    HW2  995   1.717   2.379   1.758
  328SOL     OW  996   0.550   2.058   0.885
  328SOL    HW1  997   0.545   2.053   0.985
  328SOL    HW2  998   0.552   2.154   0.856
  329SOL     OW  999   1.458   2.597   0.728
  329SOL    HW1 1000   1.453   2.532   0.803
  329SOL    HW2 1001   1.538   2.656   0.741
  330SOL     OW 1002   0.202   2.147   1.498
  330SOL    HW1 1003   0.122   2.207   1.485
  330SOL    HW2 1004   0.192   2.098   1.584
  331SOL     OW 1005   1.400   1.969   0.426
  331SOL    HW1 1006   1.376   1.932   0.336
  331SOL    HW2 1007   1.499   1.985   0.430
  332SOL     OW 1008   0.382   2.562   0.480
  332SOL    HW1 1009   0.427   2.472   0.477
  332SOL    HW2 1010   0.288   2.551   0.513
  333SOL     OW 1011   1.547   2.084   1.729
  333SOL    HW1 1012   1.542   2.121   1.821
  333SOL    HW2 1013   1.475   2.015   1.717
  334SOL     OW 1014   0.781   2.126   1.749
  334SOL    HW1 1015   0.848   2.065   1.792
  334SOL    HW2 1016   0.708   2.145   1.814
  335SOL     OW 1017   1.351   2.452   1.433
  335SOL    HW1 1018   1.379   2.409   1.518
  335SOL    HW2 1019   1.376   2.548   1.434
  336SOL     OW 1020   0.922   2.365   0.899
  336SOL    HW1 1021   0.897   2.356   0.803
  336SOL    HW2 1022   0.970   2.283   0.930
  337SOL     OW 1023   0.539   1.926   0.512
  337SOL    HW1 1024   0.458   1.927   0.570
  337SOL    HW2 1025   0.542   2.009   0.457
  338SOL     OW 1026   0.297   1.897   0.171
  338SOL    HW1 1027   0.346   1.981   0.150
  338SOL    HW2 1028   0.359   1.832   0.216
  339SOL     OW 1029   0.935   2.098   0.480
  339SOL    HW1 1030   0.887   2.139   0.402
  339SOL    HW2 1031   1.034   2.096   0.461
  340SOL     OW 1032   1.076   2.545   1.464
  340SOL    HW1 1033   0.996   2.484   1.467
  340SOL    HW2 1034   1.157   2.492   1.440
  341SOL     OW 1035   0.459   3.014   0.741
  341SOL    HW1 1036   0.388   2.987   0.806
  341SOL    HW2 1037   0.433   2.986   0.648
  342SOL     OW 1038   1.032   2.411   0.016
  342SOL    HW1 1039   0.991   2.493  -0.023
  342SOL    HW2 1040   1.096   2.437   0.089
  343SOL     OW 1041   0.078   2.418   1.386
  343SOL    HW1 1042   0.170   2.417   1.345
  343SOL    HW2 1043   0.072   2.492   1.453
  344SOL     OW 1044   0.561   2.084   1.147
  344SOL    HW1 1045   0.599   2.000   1.184
  344SOL    HW2 1046   0.473   2.103   1.191
  345SOL     OW 1047   0.866   2.316   0.642
  345SOL    HW1 1048   0.834   2.388   0.580
  345SOL    HW2 1049   0.890   2.235   0.589
  346SOL     OW 1050   1.017   1.901   0.753
  346SOL    HW1 1051   0.945   1.906   0.684
  346SOL    HW2 1052   0.993   1.832   0.822
  347SOL     OW 1053   1.466   2.452   0.992
  347SOL    HW1 1054   1.436   2.357   0.999
  347SOL    HW2 1055   1.539   2.468   1.058
  348SOL     OW 1056   1.857   2.695   0.377
  348SOL    HW1 1057   1.899   2.631   0.441
  348SOL    HW2 1058   1.819   2.644   0.299
  349SOL     OW 1059   1.390   2.437   0.078
  349SOL    HW1 1060   1.336   2.416   0.159
  349SOL    HW2 1061   1.481   2.396   0.087
  350SOL     OW 1062   0.527   2.118   0.328
  350SOL    HW1 1063   0.554   2.059   0.253
  350SOL    HW2 1064   0.527   2.213   0.297
  351SOL     OW 1065   0.915   1.951   1.402
  351SOL    HW1 1066   0.940   1.931   1.307
  351SOL    HW2 1067   0.987   2.007   1.444
  352SOL     OW 1068   0.705   2.912   0.368
  352SOL    HW1 1069   0.691   2.919   0.467
  352SOL    HW2 1070   0.789   2.861   0.350
  353SOL     OW 1071   0.410   2.675   1.251
  353SOL    HW1 1072   0.496   2.687   1.301
  353SOL    HW2 1073   0.368   2.588   1.278
  354SOL     OW 1074   1.274   2.248   1.262
  354SOL    HW1 1075   1.295   2.322   1.326
  354SOL    HW2 1076   1.185   2.265   1.219
  355SOL     OW 1077   0.566   2.399   0.865
  355SOL    HW1 1078   0.578   2.465   0.791
  355SOL    HW2 1079   0.612   2.433   0.948
  356SOL     OW 1080   1.582   2.501   0.472
  356SOL    HW1 1081   1.551   2.562   0.545
  356SOL    HW2 1082   1.632   2.553   0.403
  357SOL     OW 1083   0.402   2.613   1.598
  357SOL    HW1 1084   0.470   2.668   1.551
  357SOL    HW2 1085   0.442   2.525   1.625
  358SOL     OW 1086   1.587   2.641   1.670
  358SOL    HW1 1087   1.495   2.679   1.665
  358SOL    HW2 1088   1.647   2.688   1.605
  359SOL     OW 1089   1.013   1.967   1.770
  359SOL    HW1 1090   1.019   2.052   1.718
  359SOL    HW2 1091   1.045   1.891   1.713
  360SOL     OW 1092   0.504   1.912   1.740
  360SOL    HW1 1093   0.462   1.855   1.670
  360SOL    HW2 1094   0.438   1.981   1.772
  361SOL     OW 1095   0.573   2.732   1.029
  361SOL    HW1 1096   0.617   2.821   1.020
  361SOL    HW2 1097   0.510   2.732   1.106
  362SOL     OW 1098   1.360   2.724   1.045
  362SOL    HW1 1099   1.285   2.724   0.979
  362SOL    HW2 1100   1.397   2.632   1.054
  363SOL     OW 1101   1.209   2.387   0.275
  363SOL    HW1 1102   1.222   2.303   0.329
  363SOL    HW2 1103   1.180   2.461   0.335
  364SOL     OW 1104   0.307   2.075   1.231
  364SOL    HW1 1105   0.284   2.112   1.321
  364SOL    HW2 1106   0.277   1.980   1.225
  365SOL     OW 1107   0.732   2.496   1.064
  365SOL    HW1 1108   0.791   2.470   0.988
  365SOL    HW2 1109   0.704   2.592   1.053
  366SOL     OW 1110   1.728   2.797   1.854
  366SOL    HW1 1111   1.682   2.790   1.765
  366SOL    HW2 1112   1.666   2.841   1.920
  367SOL     OW 1113   0.307   1.925   0.618
  367SOL    HW1 1114   0.296   2.019   0.651
  367SOL    HW2 1115   0.302   1.862   0.695
  368SOL     OW 1116   1.622   2.229   0.374
  368SOL    HW1 1117   1.624   2.153   0.438
  368SOL    HW2 1118   1.574   2.306   0.414
  369SOL     OW 1119   1.023   2.628   0.966
  369SOL    HW1 1120   1.038   2.649   1.062
  369SOL    HW2 1121   0.993   2.533   0.957
  370SOL     OW 1122   1.540   2.136   0.125
  370SOL    HW1 1123   1.479   2.061   0.148
  370SOL    HW2 1124   1.562   2.188   0.208
  371SOL     OW 1125   0.319   2.672   0.949
  371SOL    HW1 1126   0.412   2.708   0.954
  371SOL    HW2 1127   0.313   2.587   1.001
  372SOL     OW 1128   0.339   2.371   1.006
  372SOL    HW1 1129   0.287   2.288   0.989
  372SOL    HW2 1130   0.416   2.376   0.942
  373SOL     OW 1131   1.138   2.242   1.678
  373SOL    HW1 1132   1.093   2.305   1.742
  373SOL    HW2 1133   1.231   2.273   1.661
  374SOL     OW 1134   1.160   2.069   1.477
  374SOL    HW1 1135   1.160   2.133   1.554
  374SOL    HW2 1136   1.188   2.117   1.394
  375SOL     OW 1137   0.040   2.406   1.114
  375SOL    HW1 1138   0.125   2.373   1.073
  375SOL    HW2 1139   0.053   2.421   1.212
  376SOL     OW 1140   0.189   2.382   1.722
  376SOL    HW1 1141   0.248   2.342   1.652
  376SOL    HW2 1142   0.131   2.453   1.681
  377SOL     OW 1143   0.815   2.434   0.325
  377SOL    HW1 1144   0.822   2.345   0.279
  377SOL    HW2 1145   0.721   2.468   0.317
  378SOL     OW 1146   1.657   2.466   1.206
  378SOL    HW1 1147   1.619   2.397   1.268
  378SOL    HW2 1148   1.739   2.430   1.162
  379SOL     OW 1149   0.671   2.326   1.269
  379SOL    HW1 1150   0.637   2.237   1.239
  379SOL    HW2 1151   0.697   2.380   1.189
  380SOL     OW 1152   0.473   2.362   0.191
  380SOL    HW1 1153   0.534   2.442   0.195
  380SOL    HW2 1154   0.378   2.393   0.198
  381SOL     OW 1155   0.903   1.948   0.133
  381SOL    HW1 1156   0.954   1.949   0.047
  381SOL    HW2 1157   0.959   1.906   0.204
  382SOL     OW 1158   1.726   1.997   0.523
  382SOL    HW1 1159   1.799   1.980   0.456
  382SOL    HW2 1160   1.695   1.910   0.561
  383SOL     OW 1161   1.280   2.789   0.672
  383SOL    HW1 1162   1.340   2.708   0.674
  383SOL    HW2 1163   1.320   2.858   0.612
  384SOL     OW 1164   1.841   2.037   0.963
  384SOL    HW1 1165   1.880   1.952   0.927
  384SOL    HW2 1166   1.743   2.039   0.944
  385SOL     OW 1167   0.263   2.188   0.720
  385SOL    HW1 1168   0.184   2.239   0.686
  385SOL    HW2 1169   0.254   2.173   0.818
  386SOL     OW 1170   1.014   2.098   0.971
  386SOL    HW1 1171   1.006   2.062   0.878
  386SOL    HW2 1172   1.012   2.022   1.036
  387SOL     OW 1173   1.709   2.247   1.381
  387SOL    HW1 1174   1.782   2.316   1.385
  387SOL    HW2 1175   1.737   2.172   1.322
  388SOL     OW 1176   0.105   2.875   1.726
  388SOL    HW1 1177   0.028   2.842   1.780
  388SOL    HW2 1178   0.190   2.845   1.768
  389SOL     OW 1179   0.672   2.065   1.489
  389SOL    HW1 1180   0.762   2.049   1.449
  389SOL    HW2 1181   0.680   2.070   1.588
  390SOL     OW 1182   0.075   2.207   0.033
  390SOL    HW1 1183  -0.017   2.179   0.004
  390SOL    HW2 1184   0.106   2.284  -0.023
  391SOL     OW 1185   1.440   2.718   1.398
  391SOL    HW1 1186   1.383   2.770   1.335
  391SOL    HW2 1187   1.536   2.730   1.374
  392SOL     OW 1188   0.072   2.028   0.318
  392SOL    HW1 1189   0.055   2.111   0.264
  392SOL    HW2 1190   0.162   1.991   0.296
  393SOL     OW 1191   0.613   2.704   1.431
  393SOL    HW1 1192   0.669   2.785   1.414
  393SOL    HW2 1193   0.672   2.624   1.434
  394SOL     OW 1194   0.716   2.427   1.708
  394SOL    HW1 1195   0.735   2.492   1.782
  394SOL    HW2 1196   0.776   2.347   1.717
  395SOL     OW 1197   1.674   2.745   1.254
  395SOL    HW1 1198   1.647   2.656   1.217
  395SOL    HW2 1199   1.675   2.813   1.181
  396SOL     OW 1200   1.225   2.187   0.449
  396SOL    HW1 1201   1.290   2.113   0.438
  396SOL    HW2 1202   1.245   2.237   0.533
  397SOL     OW 1203   0.594   2.607   0.652
  397SOL    HW1 1204   0.644   2.692   0.633
  397SOL    HW2 1205   0.506   2.609   0.604
  398SOL     OW 1206   1.777   2.204   1.642
  398SOL    HW1 1207   1.760   2.235   1.548
  398SOL    HW2 1208   1.693   2.167   1.680
  399SOL     OW 1209   1.824   2.054   1.227
  399SOL    HW1 1210   1.820   1.964   1.271
  399SOL    HW2 1211   1.827   2.043   1.128
  400SOL     OW 1212   0.428   2.286   0.520
  400SOL    HW1 1213   0.458   2.214   0.458
  400SOL    HW2 1214   0.389   2.246   0.603
  401SOL     OW 1215   0.317   2.409   1.280
  401SOL    HW1 1216   0.355   2.350   1.352
  401SOL    HW2 1217   0.357   2.383   1.192
  402SOL     OW 1218   1.424   2.076   1.112
  402SOL    HW1 1219   1.476   2.011   1.167
  402SOL    HW2 1220   1.375   2.139   1.173
  403SOL     OW 1221   1.001   1.896   1.154
  403SOL    HW1 1222   0.938   1.824   1.123
  403SOL    HW2 1223   1.094   1.860   1.154
  404SOL     OW 1224   1.352   1.914   0.168
  404SOL    HW1 1225   1.387   1.873   0.084
  404SOL    HW2 1226   1.262   1.876   0.188
  405SOL     OW 1227   1.300   2.315   0.691
  405SOL    HW1 1228   1.241   2.395   0.695
  405SOL    HW2 1229   1.315   2.280   0.784
  406SOL     OW 1230   1.593   2.083   0.882
  406SOL    HW1 1231   1.509   2.082   0.936
  406SOL    HW2 1232   1.595   2.166   0.826
  407SOL     OW 1233   0.230   2.490   1.975
  407SOL    HW1 1234   0.137   2.488   2.012
  407SOL    HW2 1235   0.231   2.451   1.883
  408SOL     OW 1236   0.019   2.230   2.509
  408SOL    HW1 1237  -0.063   2.273   2.548
  408SOL    HW2 1238  -0.009   2.157   2.446
  409SOL     OW 1239   1.135   2.565   2.579
  409SOL    HW1 1240   1.192   2.643   2.554
  409SOL    HW2 1241   1.075   2.591   2.655
  410SOL     OW 1242   1.755   2.469   2.093
  410SOL    HW1 1243   1.743   2.456   1.994
  410SOL    HW2 1244   1.725   2.388   2.142
  411SOL     OW 1245   0.685   2.874   2.527
  411SOL    HW1 1246   0.754   2.858   2.597
  411SOL    HW2 1247   0.612   2.931   2.565
  412SOL     OW 1248   1.603   2.309   2.599
  412SOL    HW1 1249   1.529   2.355   2.549
  412SOL    HW2 1250   1.654   2.377   2.652
  413SOL     OW 1251   0.122   2.505   2.425
  413SOL    HW1 1252   0.077   2.417   2.442
  413SOL    HW2 1253   0.121   2.559   2.509
  414SOL     OW 1254   0.809   1.866   2.364
  414SOL    HW1 1255   0.849   1.957   2.355
  414SOL    HW2 1256   0.709   1.874   2.370
  415SOL     OW 1257   0.598   2.591   2.132
  415SOL    HW1 1258   0.622   2.660   2.064
  415SOL    HW2 1259   0.520   2.624   2.186
  416SOL     OW 1260   1.281   2.207   2.806
  416SOL    HW1 1261   1.195   2.157   2.793
  416SOL    HW2 1262   1.343   2.153   2.862
  417SOL     OW 1263   1.041   2.563   2.291
  417SOL    HW1 1264   1.067   2.559   2.387
  417SOL    HW2 1265   0.956   2.512   2.277
  418SOL     OW 1266   0.076   2.673   2.651
  418SOL    HW1 1267   0.175   2.661   2.660
  418SOL    HW2 1268   0.052   2.768   2.672
  419SOL     OW 1269   0.865   2.210   2.057
  419SOL    HW1 1270   0.924   2.273   2.008
  419SOL    HW2 1271   0.884   2.116   2.028
  420SOL     OW 1272   0.550   2.058   2.747
  420SOL    HW1 1273   0.545   2.053   2.847
  420SOL    HW2 1274   0.552   2.154   2.718
  421SOL     OW 1275   1.458   2.597   2.590
  421SOL    HW1 1276   1.453   2.532   2.665
  421SOL    HW2 1277   1.538   2.656   2.603
  422SOL     OW 1278   1.400   1.969   2.288
  422SOL    HW1 1279   1.376   1.932   2.198
  422SOL    HW2 1280   1.499   1.985   2.292
  423SOL     OW 1281   0.382   2.562   2.342
  423SOL    HW1 1282   0.427   2.472   2.339
  423SOL    HW2 1283   0.288   2.551   2.375
  424SOL     OW 1284   0.614   1.984   1.979
  424SOL    HW1 1285   0.712   1.962   1.986
  424SOL    HW2 1286   0.583   1.967   1.886
  425SOL     OW 1287   0.539   1.926   2.374
  425SOL    HW1 1288   0.458   1.927   2.432
  425SOL    HW2 1289   0.542   2.009   2.319
  426SOL     OW 1290   0.297   1.897   2.033
  426SOL    HW1 1291   0.346   1.981   2.012
  426SOL    HW2 1292   0.359   1.832   2.078
  427SOL     OW 1293   0.935   2.098   2.342
  427SOL    HW1 1294   0.887   2.139   2.264
  427SOL    HW2 1295   1.034   2.096   2.323
  428SOL     OW 1296   0.459   3.014   2.603
  428SOL    HW1 1297   0.388   2.987   2.668
  428SOL    HW2 1298   0.433   2.986   2.510
  429SOL     OW 1299   1.032   2.411   1.878
  429SOL    HW1 1300   0.991   2.493   1.839
  429SOL    HW2 1301   1.096   2.437   1.951
  430SOL     OW 1302   0.866   2.316   2.504
  430SOL    HW1 1303   0.834   2.388   2.442
  430SOL    HW2 1304   0.890   2.235   2.451
  431SOL     OW 1305   1.017   1.901   2.615
  431SOL    HW1 1306   0.945   1.906   2.546
  431SOL    HW2 1307   0.993   1.832   2.684
  432SOL     OW 1308   1.429   3.035   2.729
  432SOL    HW1 1309   1.374   2.951   2.722
  432SOL    HW2 1310   1.455   3.064   2.637
  433SOL     OW 1311   1.857   2.695   2.239
  433SOL    HW1 1312   1.899   2.631   2.303
  433SOL    HW2 1313   1.819   2.644   2.161
  434SOL     OW 1314   1.390   2.437   1.940
  434SOL    HW1 1315   1.336   2.416   2.021
  434SOL    HW2 1316   1.481   2.396   1.949
  435SOL     OW 1317   0.527   2.118   2.190
  435SOL    HW1 1318   0.554   2.059   2.115
  435SOL    HW2 1319   0.527   2.213   2.159
  436SOL     OW 1320   0.705   2.912   2.230
  436SOL    HW1 1321   0.691   2.919   2.329
  436SOL    HW2 1322   0.789   2.861   2.212
  437SOL     OW 1323   0.566   2.399   2.727
  437SOL    HW1 1324   0.578   2.465   2.653
  437SOL    HW2 1325   0.612   2.433   2.810
  438SOL     OW 1326   1.582   2.501   2.334
  438SOL    HW1 1327   1.551   2.562   2.407
  438SOL    HW2 1328   1.632   2.553   2.265
  439SOL     OW 1329   1.209   2.387   2.137
  439SOL    HW1 1330   1.222   2.303   2.191
  439SOL    HW2 1331   1.180   2.461   2.197
  440SOL     OW 1332   0.307   1.925   2.480
  440SOL    HW1 1333   0.296   2.019   2.513
  440SOL    HW2 1334   0.302   1.862   2.557
  441SOL     OW 1335   1.622   2.229   2.236
  441SOL    HW1 1336   1.624   2.153   2.300
  441SOL    HW2 1337   1.574   2.306   2.276
  442SOL     OW 1338   1.540   2.136   1.987
  442SOL    HW1 1339   1.479   2.061   2.010
  442SOL    HW2 1340   1.562   2.188   2.070
  443SOL     OW 1341   0.815   2.434   2.187
  443SOL    HW1 1342   0.822   2.345   2.141
  443SOL    HW2 1343   0.721   2.468   2.179
  444SOL     OW 1344   0.473   2.362   2.053
  444SOL    HW1 1345   0.534   2.442   2.057
  444SOL    HW2 1346   0.378   2.393   2.060
  445SOL     OW 1347   1.726   1.997   2.385
  445SOL    HW1 1348   1.799   1.980   2.318
  445SOL    HW2 1349   1.695   1.910   2.423
  446SOL     OW 1350   1.280   2.789   2.534
  446SOL    HW1 1351   1.340   2.708   2.536
  446SOL    HW2 1352   1.320   2.858   2.474
  447SOL     OW 1353   1.841   2.037   2.825
  447SOL    HW1 1354   1.880   1.952   2.789
  447SOL    HW2 1355   1.743   2.039   2.806
  448SOL     OW 1356   0.263   2.188   2.582
  448SOL    HW1 1357   0.184   2.239   2.548
  448SOL    HW2 1358   0.254   2.173   2.680
  449SOL     OW 1359   0.916   2.772   2.153
  449SOL    HW1 1360   0.979   2.810   2.085
  449SOL    HW2 1361   0.956   2.689   2.192
  450SOL     OW 1362   0.075   2.207   1.895
  450SOL    HW1 1363  -0.017   2.179   1.866
  450SOL    HW2 1364   0.106   2.284   1.839
  451SOL     OW 1365   0.072   2.028   2.180
  451SOL    HW1 1366   0.055   2.111   2.126
  451SOL    HW2 1367   0.162   1.991   2.158
  452SOL     OW 1368   1.225   2.187   2.311
  452SOL    HW1 1369   1.290   2.113   2.300
  452SOL    HW2 1370   1.245   2.237   2.395
  453SOL     OW 1371   0.594   2.607   2.514
  453SOL    HW1 1372   0.644   2.692   2.495
  453SOL    HW2 1373   0.506   2.609   2.466
  454SOL     OW 1374   0.428   2.286   2.382
  454SOL    HW1 1375   0.458   2.214   2.320
  454SOL    HW2 1376   0.389   2.246   2.465
  455SOL     OW 1377   1.352   1.914   2.030
  455SOL    HW1 1378   1.387   1.873   1.946
  455SOL    HW2 1379   1.262   1.876   2.050
  456SOL     OW 1380   1.300   2.315   2.553
  456SOL    HW1 1381   1.241   2.395   2.557
  456SOL    HW2 1382   1.315   2.280   2.646
  457SOL     OW 1383   2.092   0.628   0.113
  457SOL    HW1 1384   1.999   0.626   0.150
  457SOL    HW2 1385   2.093   0.589   0.021
  458SOL     OW 1386   2.087   0.275   0.996
  458SOL    HW1 1387   2.122   0.258   1.088
  458SOL    HW2 1388   1.999   0.230   0.984
  459SOL     OW 1389   1.881   0.368   0.647
  459SOL    HW1 1390   1.799   0.411   0.686
  459SOL    HW2 1391   1.853   0.295   0.584
  460SOL     OW 1392   2.431   1.275   1.165
  460SOL    HW1 1393   2.338   1.268   1.128
  460SOL    HW2 1394   2.442   1.364   1.209
  461SOL     OW 1395   2.712   0.798   1.823
  461SOL    HW1 1396   2.708   0.874   1.888
  461SOL    HW2 1397   2.734   0.834   1.732
  462SOL     OW 1398   2.547   1.012   0.665
  462SOL    HW1 1399   2.616   0.996   0.735
  462SOL    HW2 1400   2.474   1.069   0.703
  463SOL     OW 1401   2.548   1.161   1.803
  463SOL    HW1 1402   2.608   1.240   1.817
  463SOL    HW2 1403   2.462   1.192   1.762
  464SOL     OW 1404   2.197   1.435   1.061
  464SOL    HW1 1405   2.119   1.404   1.008
  464SOL    HW2 1406   2.255   1.493   1.004
  465SOL     OW 1407   2.300   0.392   1.499
  465SOL    HW1 1408   2.382   0.336   1.508
  465SOL    HW2 1409   2.219   0.334   1.503
  466SOL     OW 1410   2.093   1.713   0.483
  466SOL    HW1 1411   2.127   1.790   0.537
  466SOL    HW2 1412   2.137   1.713   0.393
  467SOL     OW 1413   2.092   1.434   0.538
  467SOL    HW1 1414   2.066   1.530   0.538
  467SOL    HW2 1415   2.021   1.380   0.583
  468SOL     OW 1416   2.102   1.091   0.886
  468SOL    HW1 1417   2.116   1.007   0.938
  468SOL    HW2 1418   2.047   1.155   0.941
  469SOL     OW 1419   2.482   1.786   1.439
  469SOL    HW1 1420   2.390   1.769   1.474
  469SOL    HW2 1421   2.510   1.878   1.465
  470SOL     OW 1422   2.468   0.964   0.123
  470SOL    HW1 1423   2.475   1.048   0.069
  470SOL    HW2 1424   2.514   0.977   0.211
  471SOL     OW 1425   1.984   0.643   0.563
  471SOL    HW1 1426   1.939   0.555   0.580
  471SOL    HW2 1427   1.983   0.697   0.647
  472SOL     OW 1428   1.889   1.596   0.117
  472SOL    HW1 1429   1.870   1.500   0.138
  472SOL    HW2 1430   1.856   1.654   0.192
  473SOL     OW 1431   1.975   0.737   1.597
  473SOL    HW1 1432   2.063   0.724   1.642
  473SOL    HW2 1433   1.962   0.834   1.575
  474SOL     OW 1434   2.475   1.365   0.726
  474SOL    HW1 1435   2.426   1.278   0.735
  474SOL    HW2 1436   2.452   1.408   0.639
  475SOL     OW 1437   2.671   0.004   0.502
  475SOL    HW1 1438   2.711   0.095   0.493
  475SOL    HW2 1439   2.571   0.012   0.508
  476SOL     OW 1440   2.059   0.976   1.264
  476SOL    HW1 1441   2.148   0.931   1.250
  476SOL    HW2 1442   1.986   0.911   1.245
  477SOL     OW 1443   2.179   0.251   1.801
  477SOL    HW1 1444   2.250   0.322   1.807
  477SOL    HW2 1445   2.091   0.290   1.829
  478SOL     OW 1446   2.460   0.729   0.270
  478SOL    HW1 1447   2.484   0.798   0.202
  478SOL    HW2 1448   2.382   0.762   0.324
  479SOL     OW 1449   2.669   0.605   1.465
  479SOL    HW1 1450   2.622   0.602   1.554
  479SOL    HW2 1451   2.618   0.550   1.399
  480SOL     OW 1452   1.938   0.811   0.789
  480SOL    HW1 1453   2.037   0.799   0.798
  480SOL    HW2 1454   1.914   0.906   0.810
  481SOL     OW 1455   1.992   1.821   1.571
  481SOL    HW1 1456   1.982   1.806   1.670
  481SOL    HW2 1457   1.906   1.857   1.535
  482SOL     OW 1458   2.412   0.196   0.885
  482SOL    HW1 1459   2.407   0.191   0.985
  482SOL    HW2 1460   2.414   0.292   0.856
  483SOL     OW 1461   2.213   1.801   0.853
  483SOL    HW1 1462   2.263   1.715   0.859
  483SOL    HW2 1463   2.278   1.878   0.850
  484SOL     OW 1464   2.183   0.943   0.242
  484SOL    HW1 1465   2.265   0.982   0.200
  484SOL    HW2 1466   2.156   0.861   0.193
  485SOL     OW 1467   2.323   1.266   1.727
  485SOL    HW1 1468   2.273   1.267   1.641
  485SOL    HW2 1469   2.260   1.248   1.803
  486SOL     OW 1470   2.064   0.285   1.498
  486SOL    HW1 1471   1.984   0.345   1.485
  486SOL    HW2 1472   2.054   0.236   1.584
  487SOL     OW 1473   2.326   1.743   0.323
  487SOL    HW1 1474   2.359   1.782   0.409
  487SOL    HW2 1475   2.402   1.736   0.258
  488SOL     OW 1476   2.111   1.785   1.241
  488SOL    HW1 1477   2.168   1.720   1.291
  488SOL    HW2 1478   2.095   1.752   1.148
  489SOL     OW 1479   2.244   0.700   0.480
  489SOL    HW1 1480   2.289   0.610   0.477
  489SOL    HW2 1481   2.150   0.689   0.513
  490SOL     OW 1482   2.476   0.122   0.117
  490SOL    HW1 1483   2.574   0.100   0.124
  490SOL    HW2 1484   2.445   0.105   0.024
  491SOL     OW 1485   2.643   0.264   1.749
  491SOL    HW1 1486   2.710   0.203   1.792
  491SOL    HW2 1487   2.570   0.283   1.814
  492SOL     OW 1488   2.665   1.402   0.924
  492SOL    HW1 1489   2.755   1.416   0.882
  492SOL    HW2 1490   2.594   1.404   0.853
  493SOL     OW 1491   2.784   0.503   0.899
  493SOL    HW1 1492   2.759   0.494   0.803
  493SOL    HW2 1493   2.832   0.421   0.930
  494SOL     OW 1494   2.401   0.064   0.512
  494SOL    HW1 1495   2.320   0.065   0.570
  494SOL    HW2 1496   2.404   0.147   0.457
  495SOL     OW 1497   2.159   0.035   0.171
  495SOL    HW1 1498   2.208   0.119   0.150
  495SOL    HW2 1499   2.221  -0.030   0.216
  496SOL     OW 1500   2.321   1.152   0.741
  496SOL    HW1 1501   2.250   1.125   0.806
  496SOL    HW2 1502   2.295   1.124   0.648
  497SOL     OW 1503   1.940   0.556   1.386
  497SOL    HW1 1504   2.032   0.555   1.345
  497SOL    HW2 1505   1.934   0.630   1.453
  498SOL     OW 1506   2.423   0.222   1.147
  498SOL    HW1 1507   2.461   0.138   1.184
  498SOL    HW2 1508   2.335   0.241   1.191
  499SOL     OW 1509   2.350   1.385   0.174
  499SOL    HW1 1510   2.263   1.370   0.221
  499SOL    HW2 1511   2.333   1.411   0.079
  500SOL     OW 1512   2.389   0.256   0.328
  500SOL    HW1 1513   2.416   0.197   0.253
  500SOL    HW2 1514   2.389   0.351   0.297
  501SOL     OW 1515   2.777   0.089   1.402
  501SOL    HW1 1516   2.802   0.069   1.307
  501SOL    HW2 1517   2.849   0.145   1.444
  502SOL     OW 1518   2.272   0.813   1.251
  502SOL    HW1 1519   2.358   0.825   1.301
  502SOL    HW2 1520   2.230   0.726   1.278
  503SOL     OW 1521   1.926   1.564   1.331
  503SOL    HW1 1522   1.880   1.646   1.297
  503SOL    HW2 1523   2.024   1.583   1.340
  504SOL     OW 1524   2.229   1.100   0.501
  504SOL    HW1 1525   2.222   1.183   0.445
  504SOL    HW2 1526   2.233   1.020   0.441
  505SOL     OW 1527   2.428   0.537   0.865
  505SOL    HW1 1528   2.440   0.603   0.791
  505SOL    HW2 1529   2.474   0.571   0.948
  506SOL     OW 1530   2.216   1.510   1.329
  506SOL    HW1 1531   2.195   1.466   1.242
  506SOL    HW2 1532   2.313   1.536   1.332
  507SOL     OW 1533   2.264   0.751   1.598
  507SOL    HW1 1534   2.332   0.806   1.551
  507SOL    HW2 1535   2.304   0.663   1.625
  508SOL     OW 1536   2.366   0.050   1.740
  508SOL    HW1 1537   2.324  -0.007   1.670
  508SOL    HW2 1538   2.300   0.119   1.772
  509SOL     OW 1539   2.435   0.870   1.029
  509SOL    HW1 1540   2.479   0.959   1.020
  509SOL    HW2 1541   2.372   0.870   1.106
  510SOL     OW 1542   2.169   0.213   1.231
  510SOL    HW1 1543   2.146   0.250   1.321
  510SOL    HW2 1544   2.139   0.118   1.225
  511SOL     OW 1545   1.899   1.310   1.282
  511SOL    HW1 1546   1.952   1.261   1.350
  511SOL    HW2 1547   1.921   1.408   1.287
  512SOL     OW 1548   2.594   0.634   1.064
  512SOL    HW1 1549   2.653   0.608   0.988
  512SOL    HW2 1550   2.566   0.730   1.053
  513SOL     OW 1551   2.169   0.063   0.618
  513SOL    HW1 1552   2.158   0.157   0.651
  513SOL    HW2 1553   2.164   0.000   0.695
  514SOL     OW 1554   2.885   0.766   0.966
  514SOL    HW1 1555   2.900   0.787   1.062
  514SOL    HW2 1556   2.855   0.671   0.957
  515SOL     OW 1557   2.842   1.573   1.700
  515SOL    HW1 1558   2.822   1.617   1.612
  515SOL    HW2 1559   2.881   1.482   1.684
  516SOL     OW 1560   2.212   0.898   1.804
  516SOL    HW1 1561   2.288   0.942   1.852
  516SOL    HW2 1562   2.247   0.851   1.722
  517SOL     OW 1563   2.181   0.810   0.949
  517SOL    HW1 1564   2.274   0.846   0.954
  517SOL    HW2 1565   2.175   0.725   1.001
  518SOL     OW 1566   2.201   0.509   1.006
  518SOL    HW1 1567   2.149   0.426   0.989
  518SOL    HW2 1568   2.278   0.514   0.942
  519SOL     OW 1569   1.870   1.326   0.200
  519SOL    HW1 1570   1.777   1.347   0.169
  519SOL    HW2 1571   1.880   1.227   0.213
  520SOL     OW 1572   1.950   1.801   0.927
  520SOL    HW1 1573   1.908   1.715   0.900
  520SOL    HW2 1574   2.044   1.804   0.893
  521SOL     OW 1575   2.366   1.568   0.910
  521SOL    HW1 1576   2.432   1.642   0.919
  521SOL    HW2 1577   2.410   1.489   0.868
  522SOL     OW 1578   1.902   0.544   1.114
  522SOL    HW1 1579   1.987   0.511   1.073
  522SOL    HW2 1580   1.915   0.559   1.212
  523SOL     OW 1581   2.051   0.520   1.722
  523SOL    HW1 1582   2.110   0.480   1.652
  523SOL    HW2 1583   1.993   0.591   1.681
  524SOL     OW 1584   2.677   0.572   0.325
  524SOL    HW1 1585   2.684   0.483   0.279
  524SOL    HW2 1586   2.583   0.606   0.317
  525SOL     OW 1587   2.114   1.564   1.744
  525SOL    HW1 1588   2.084   1.621   1.820
  525SOL    HW2 1589   2.107   1.467   1.770
  526SOL     OW 1590   2.533   0.464   1.269
  526SOL    HW1 1591   2.499   0.375   1.239
  526SOL    HW2 1592   2.559   0.518   1.189
  527SOL     OW 1593   2.335   0.500   0.191
  527SOL    HW1 1594   2.396   0.580   0.195
  527SOL    HW2 1595   2.240   0.531   0.198
  528SOL     OW 1596   2.021   1.137   1.466
  528SOL    HW1 1597   2.043   1.076   1.542
  528SOL    HW2 1598   2.031   1.088   1.380
  529SOL     OW 1599   1.945   1.258   1.022
  529SOL    HW1 1600   1.940   1.257   1.122
  529SOL    HW2 1601   1.862   1.217   0.984
  530SOL     OW 1602   2.550   1.662   1.716
  530SOL    HW1 1603   2.494   1.743   1.725
  530SOL    HW2 1604   2.602   1.666   1.630
  531SOL     OW 1605   2.765   0.086   0.133
  531SOL    HW1 1606   2.816   0.087   0.047
  531SOL    HW2 1607   2.821   0.044   0.204
  532SOL     OW 1608   1.992   1.794   1.851
  532SOL    HW1 1609   1.951   1.720   1.904
  532SOL    HW2 1610   2.056   1.845   1.909
  533SOL     OW 1611   2.692   1.273   1.422
  533SOL    HW1 1612   2.687   1.306   1.517
  533SOL    HW2 1613   2.606   1.292   1.376
  534SOL     OW 1614   2.534   1.616   0.154
  534SOL    HW1 1615   2.543   1.626   0.055
  534SOL    HW2 1616   2.494   1.527   0.175
  535SOL     OW 1617   2.125   0.326   0.720
  535SOL    HW1 1618   2.046   0.377   0.686
  535SOL    HW2 1619   2.116   0.311   0.818
  536SOL     OW 1620   3.056   1.612   0.031
  536SOL    HW1 1621   3.062   1.519   0.068
  536SOL    HW2 1622   2.997   1.612  -0.049
  537SOL     OW 1623   2.684   1.002   1.372
  537SOL    HW1 1624   2.724   1.001   1.280
  537SOL    HW2 1625   2.694   1.094   1.412
  538SOL     OW 1626   2.234   1.288   1.490
  538SOL    HW1 1627   2.221   1.381   1.456
  538SOL    HW2 1628   2.150   1.236   1.477
  539SOL     OW 1629   2.452   1.487   0.491
  539SOL    HW1 1630   2.494   1.429   0.421
  539SOL    HW2 1631   2.408   1.566   0.447
  540SOL     OW 1632   2.117   1.348   0.290
  540SOL    HW1 1633   2.021   1.349   0.263
  540SOL    HW2 1634   2.129   1.401   0.374
  541SOL     OW 1635   1.967   1.013   1.726
  541SOL    HW1 1636   1.890   0.980   1.780
  541SOL    HW2 1637   2.052   0.983   1.768
  542SOL     OW 1638   2.534   0.203   1.489
  542SOL    HW1 1639   2.624   0.187   1.449
  542SOL    HW2 1640   2.542   0.208   1.588
  543SOL     OW 1641   1.934   0.166   0.318
  543SOL    HW1 1642   1.917   0.249   0.264
  543SOL    HW2 1643   2.024   0.129   0.296
  544SOL     OW 1644   2.475   0.842   1.431
  544SOL    HW1 1645   2.531   0.923   1.414
  544SOL    HW2 1646   2.534   0.762   1.434
  545SOL     OW 1647   2.578   0.565   1.708
  545SOL    HW1 1648   2.597   0.630   1.782
  545SOL    HW2 1649   2.638   0.485   1.717
  546SOL     OW 1650   2.252   1.741   1.560
  546SOL    HW1 1651   2.161   1.782   1.558
  546SOL    HW2 1652   2.245   1.647   1.592
  547SOL     OW 1653   2.456   0.745   0.652
  547SOL    HW1 1654   2.506   0.830   0.633
  547SOL    HW2 1655   2.368   0.747   0.604
  548SOL     OW 1656   2.523   1.790   0.953
  548SOL    HW1 1657   2.477   1.878   0.940
  548SOL    HW2 1658   2.622   1.802   0.946
  549SOL     OW 1659   2.083   1.314   1.844
  549SOL    HW1 1660   2.018   1.241   1.823
  549SOL    HW2 1661   2.087   1.328   1.942
  550SOL     OW 1662   1.941   1.240   0.653
  550SOL    HW1 1663   1.940   1.193   0.741
  550SOL    HW2 1664   2.023   1.212   0.602
  551SOL     OW 1665   2.534   1.391   1.624
  551SOL    HW1 1666   2.456   1.341   1.662
  551SOL    HW2 1667   2.531   1.486   1.655
  552SOL     OW 1668   2.290   0.424   0.520
  552SOL    HW1 1669   2.320   0.352   0.458
  552SOL    HW2 1670   2.251   0.384   0.603
  553SOL     OW 1671   2.179   0.547   1.280
  553SOL    HW1 1672   2.217   0.488   1.352
  553SOL    HW2 1673   2.219   0.521   1.192
  554SOL     OW 1674   2.674   1.586   0.687
  554SOL    HW1 1675   2.706   1.596   0.593
  554SOL    HW2 1676   2.595   1.524   0.689
  555SOL     OW 1677   2.863   0.034   1.154
  555SOL    HW1 1678   2.800  -0.038   1.123
  555SOL    HW2 1679   2.956  -0.002   1.154
  556SOL     OW 1680   2.480   1.567   1.284
  556SOL    HW1 1681   2.475   1.649   1.341
  556SOL    HW2 1682   2.569   1.564   1.239
  557SOL     OW 1683   1.901   1.077   0.300
  557SOL    HW1 1684   2.000   1.066   0.291
  557SOL    HW2 1685   1.861   0.991   0.332
  558SOL     OW 1686   2.092   0.628   1.975
  558SOL    HW1 1687   1.999   0.626   2.012
  558SOL    HW2 1688   2.093   0.589   1.883
  559SOL     OW 1689   2.087   0.275   2.858
  559SOL    HW1 1690   2.122   0.258   2.950
  559SOL    HW2 1691   1.999   0.230   2.846
  560SOL     OW 1692   1.881   0.368   2.509
  560SOL    HW1 1693   1.799   0.411   2.548
  560SOL    HW2 1694   1.853   0.295   2.446
  561SOL     OW 1695   2.630   1.144   2.885
  561SOL    HW1 1696   2.552   1.161   2.945
  561SOL    HW2 1697   2.664   1.231   2.849
  562SOL     OW 1698   2.547   1.012   2.527
  562SOL    HW1 1699   2.616   0.996   2.597
  562SOL    HW2 1700   2.474   1.069   2.565
  563SOL     OW 1701   2.093   1.713   2.345
  563SOL    HW1 1702   2.127   1.790   2.399
  563SOL    HW2 1703   2.137   1.713   2.255
  564SOL     OW 1704   2.092   1.434   2.400
  564SOL    HW1 1705   2.066   1.530   2.400
  564SOL    HW2 1706   2.021   1.380   2.445
  565SOL     OW 1707   2.102   1.091   2.748
  565SOL    HW1 1708   2.116   1.007   2.800
  565SOL    HW2 1709   2.047   1.155   2.803
  566SOL     OW 1710   2.468   0.964   1.985
  566SOL    HW1 1711   2.475   1.048   1.931
  566SOL    HW2 1712   2.514   0.977   2.073
  567SOL     OW 1713   1.984   0.643   2.425
  567SOL    HW1 1714   1.939   0.555   2.442
  567SOL    HW2 1715   1.983   0.697   2.509
  568SOL     OW 1716   1.889   1.596   1.979
  568SOL    HW1 1717   1.870   1.500   2.000
  568SOL    HW2 1718   1.856   1.654   2.054
  569SOL     OW 1719   2.475   1.365   2.588
  569SOL    HW1 1720   2.426   1.278   2.597
  569SOL    HW2 1721   2.452   1.408   2.501
  570SOL     OW 1722   2.671   0.004   2.364
  570SOL    HW1 1723   2.711   0.095   2.355
  570SOL    HW2 1724   2.571   0.012   2.370
  571SOL     OW 1725   2.460   0.729   2.132
  571SOL    HW1 1726   2.484   0.798   2.064
  571SOL    HW2 1727   2.382   0.762   2.186
  572SOL     OW 1728   1.938   0.811   2.651
  572SOL    HW1 1729   2.037   0.799   2.660
  572SOL    HW2 1730   1.914   0.906   2.672
  573SOL     OW 1731   2.213   1.801   2.715
  573SOL    HW1 1732   2.263   1.715   2.721
  573SOL    HW2 1733   2.278   1.878   2.712
  574SOL     OW 1734   2.183   0.943   2.104
  574SOL    HW1 1735   2.265   0.982   2.062
  574SOL    HW2 1736   2.156   0.861   2.055
  575SOL     OW 1737   2.326   1.743   2.185
  575SOL    HW1 1738   2.359   1.782   2.271
  575SOL    HW2 1739   2.402   1.736   2.120
  576SOL     OW 1740   2.244   0.700   2.342
  576SOL    HW1 1741   2.289   0.610   2.339
  576SOL    HW2 1742   2.150   0.689   2.375
  577SOL     OW 1743   2.476   0.122   1.979
  577SOL    HW1 1744   2.574   0.100   1.986
  577SOL    HW2 1745   2.445   0.105   1.886
  578SOL     OW 1746   2.665   1.402   2.786
  578SOL    HW1 1747   2.755   1.416   2.744
  578SOL    HW2 1748   2.594   1.404   2.715
  579SOL     OW 1749   2.401   0.064   2.374
  579SOL    HW1 1750   2.320   0.065   2.432
  579SOL    HW2 1751   2.404   0.147   2.319
  580SOL     OW 1752   2.159   0.035   2.033
  580SOL    HW1 1753   2.208   0.119   2.012
  580SOL    HW2 1754   2.221  -0.030   2.078
  581SOL     OW 1755   2.321   1.152   2.603
  581SOL    HW1 1756   2.250   1.125   2.668
  581SOL    HW2 1757   2.295   1.124   2.510
  582SOL     OW 1758   2.350   1.385   2.036
  582SOL    HW1 1759   2.263   1.370   2.083
  582SOL    HW2 1760   2.333   1.411   1.941
  583SOL     OW 1761   2.389   0.256   2.190
  583SOL    HW1 1762   2.416   0.197   2.115
  583SOL    HW2 1763   2.389   0.351   2.159
  584SOL     OW 1764   2.229   1.100   2.363
  584SOL    HW1 1765   2.222   1.183   2.307
  584SOL    HW2 1766   2.233   1.020   2.303
  585SOL     OW 1767   2.428   0.537   2.727
  585SOL    HW1 1768   2.440   0.603   2.653
  585SOL    HW2 1769   2.474   0.571   2.810
  586SOL     OW 1770   2.169   0.063   2.480
  586SOL    HW1 1771   2.158   0.157   2.513
  586SOL    HW2 1772   2.164   0.000   2.557
  587SOL     OW 1773   1.870   1.326   2.062
  587SOL    HW1 1774   1.777   1.347   2.031
  587SOL    HW2 1775   1.880   1.227   2.075
  588SOL     OW 1776   1.950   1.801   2.789
  588SOL    HW1 1777   1.908   1.715   2.762
  588SOL    HW2 1778   2.044   1.804   2.755
  589SOL     OW 1779   2.677   0.572   2.187
  589SOL    HW1 1780   2.684   0.483   2.141
  589SOL    HW2 1781   2.583   0.606   2.179
  590SOL     OW 1782   2.335   0.500   2.053
  590SOL    HW1 1783   2.396   0.580   2.057
  590SOL    HW2 1784   2.240   0.531   2.060
  591SOL     OW 1785   2.534   1.616   2.016
  591SOL    HW1 1786   2.543   1.626   1.917
  591SOL    HW2 1787   2.494   1.527   2.037
  592SOL     OW 1788   2.125   0.326   2.582
  592SOL    HW1 1789   2.046   0.377   2.548
  592SOL    HW2 1790   2.116   0.311   2.680
  593SOL     OW 1791   2.452   1.487   2.353
  593SOL    HW1 1792   2.494   1.429   2.283
  593SOL    HW2 1793   2.408   1.566   2.309
  594SOL     OW 1794   2.117   1.348   2.152
  594SOL    HW1 1795   2.021   1.349   2.125
  594SOL    HW2 1796   2.129   1.401   2.236
  595SOL     OW 1797   1.937   0.345   1.895
  595SOL    HW1 1798   1.845   0.317   1.866
  595SOL    HW2 1799   1.968   0.422   1.839
  596SOL     OW 1800   1.934   0.166   2.180
  596SOL    HW1 1801   1.917   0.249   2.126
  596SOL    HW2 1802   2.024   0.129   2.158
  597SOL     OW 1803   2.456   0.745   2.514
  597SOL    HW1 1804   2.506   0.830   2.495
  597SOL    HW2 1805   2.368   0.747   2.466
  598SOL     OW 1806   2.523   1.790   2.815
  598SOL    HW1 1807   2.477   1.878   2.802
  598SOL    HW2 1808   2.622   1.802   2.808
  599SOL     OW 1809   1.941   1.240   2.515
  599SOL    HW1 1810   1.940   1.193   2.603
  599SOL    HW2 1811   2.023   1.212   2.464
  600SOL     OW 1812   2.290   0.424   2.382
  600SOL    HW1 1813   2.320   0.352   2.320
  600SOL    HW2 1814   2.251   0.384   2.465
  601SOL     OW 1815   2.674   1.586   2.549
  601SOL    HW1 1816   2.706   1.596   2.455
  601SOL    HW2 1817   2.595   1.524   2.551
  602SOL     OW 1818   1.901   1.077   2.162
  602SOL    HW1 1819   2.000   1.066   2.153
  602SOL    HW2 1820   1.861   0.991   2.194
  603SOL     OW 1821   2.092   2.490   0.113
  603SOL    HW1 1822   1.999   2.488   0.150
  603SOL    HW2 1823   2.093   2.451   0.021
  604SOL     OW 1824   2.087   2.137   0.996
  604SOL    HW1 1825   2.122   2.120   1.088
  604SOL    HW2 1826   1.999   2.092   0.984
  605SOL     OW 1827   1.881   2.230   0.647
  605SOL    HW1 1828   1.799   2.273   0.686
  605SOL    HW2 1829   1.853   2.157   0.584
  606SOL     OW 1830   2.712   2.660   1.823
  606SOL    HW1 1831   2.708   2.736   1.888
  606SOL    HW2 1832   2.734   2.696   1.732
  607SOL     OW 1833   2.547   2.874   0.665
  607SOL    HW1 1834   2.616   2.858   0.735
  607SOL    HW2 1835   2.474   2.931   0.703
  608SOL     OW 1836   2.300   2.254   1.499
  608SOL    HW1 1837   2.382   2.198   1.508
  608SOL    HW2 1838   2.219   2.196   1.503
  609SOL     OW 1839   1.984   2.505   0.563
  609SOL    HW1 1840   1.939   2.417   0.580
  609SOL    HW2 1841   1.983   2.559   0.647
  610SOL     OW 1842   1.975   2.599   1.597
  610SOL    HW1 1843   2.063   2.586   1.642
  610SOL    HW2 1844   1.962   2.696   1.575
  611SOL     OW 1845   2.671   1.866   0.502
  611SOL    HW1 1846   2.711   1.957   0.493
  611SOL    HW2 1847   2.571   1.874   0.508
  612SOL     OW 1848   2.179   2.113   1.801
  612SOL    HW1 1849   2.250   2.184   1.807
  612SOL    HW2 1850   2.091   2.152   1.829
  613SOL     OW 1851   2.460   2.591   0.270
  613SOL    HW1 1852   2.484   2.660   0.202
  613SOL    HW2 1853   2.382   2.624   0.324
  614SOL     OW 1854   2.669   2.467   1.465
  614SOL    HW1 1855   2.622   2.464   1.554
  614SOL    HW2 1856   2.618   2.412   1.399
  615SOL     OW 1857   1.938   2.673   0.789
  615SOL    HW1 1858   2.037   2.661   0.798
  615SOL    HW2 1859   1.914   2.768   0.810
  616SOL     OW 1860   2.412   2.058   0.885
  616SOL    HW1 1861   2.407   2.053   0.985
  616SOL    HW2 1862   2.414   2.154   0.856
  617SOL     OW 1863   2.064   2.147   1.498
  617SOL    HW1 1864   1.984   2.207   1.485
  617SOL    HW2 1865   2.054   2.098   1.584
  618SOL     OW 1866   2.244   2.562   0.480
  618SOL    HW1 1867   2.289   2.472   0.477
  618SOL    HW2 1868   2.150   2.551   0.513
  619SOL     OW 1869   2.643   2.126   1.749
  619SOL    HW1 1870   2.710   2.065   1.792
  619SOL    HW2 1871   2.570   2.145   1.814
  620SOL     OW 1872   2.784   2.365   0.899
  620SOL    HW1 1873   2.759   2.356   0.803
  620SOL    HW2 1874   2.832   2.283   0.930
  621SOL     OW 1875   2.401   1.926   0.512
  621SOL    HW1 1876   2.320   1.927   0.570
  621SOL    HW2 1877   2.404   2.009   0.457
  622SOL     OW 1878   2.159   1.897   0.171
  622SOL    HW1 1879   2.208   1.981   0.150
  622SOL    HW2 1880   2.221   1.832   0.216
  623SOL     OW 1881   2.321   3.014   0.741
  623SOL    HW1 1882   2.250   2.987   0.806
  623SOL    HW2 1883   2.295   2.986   0.648
  624SOL     OW 1884   1.940   2.418   1.386
  624SOL    HW1 1885   2.032   2.417   1.345
  624SOL    HW2 1886   1.934   2.492   1.453
  625SOL     OW 1887   2.423   2.084   1.147
  625SOL    HW1 1888   2.461   2.000   1.184
  625SOL    HW2 1889   2.335   2.103   1.191
  626SOL     OW 1890   2.389   2.118   0.328
  626SOL    HW1 1891   2.416   2.059   0.253
  626SOL    HW2 1892   2.389   2.213   0.297
  627SOL     OW 1893   2.777   1.951   1.402
  627SOL    HW1 1894   2.802   1.931   1.307
  627SOL    HW2 1895   2.849   2.007   1.444
  628SOL     OW 1896   2.567   2.912   0.368
  628SOL    HW1 1897   2.553   2.919   0.467
  628SOL    HW2 1898   2.651   2.861   0.350
  629SOL     OW 1899   2.272   2.675   1.251
  629SOL    HW1 1900   2.358   2.687   1.301
  629SOL    HW2 1901   2.230   2.588   1.278
  630SOL     OW 1902   2.428   2.399   0.865
  630SOL    HW1 1903   2.440   2.465   0.791
  630SOL    HW2 1904   2.474   2.433   0.948
  631SOL     OW 1905   2.264   2.613   1.598
  631SOL    HW1 1906   2.332   2.668   1.551
  631SOL    HW2 1907   2.304   2.525   1.625
  632SOL     OW 1908   2.366   1.912   1.740
  632SOL    HW1 1909   2.324   1.855   1.670
  632SOL    HW2 1910   2.300   1.981   1.772
  633SOL     OW 1911   2.435   2.732   1.029
  633SOL    HW1 1912   2.479   2.821   1.020
  633SOL    HW2 1913   2.372   2.732   1.106
  634SOL     OW 1914   2.169   2.075   1.231
  634SOL    HW1 1915   2.146   2.112   1.321
  634SOL    HW2 1916   2.139   1.980   1.225
  635SOL     OW 1917   2.594   2.496   1.064
  635SOL    HW1 1918   2.653   2.470   0.988
  635SOL    HW2 1919   2.566   2.592   1.053
  636SOL     OW 1920   2.169   1.925   0.618
  636SOL    HW1 1921   2.158   2.019   0.651
  636SOL    HW2 1922   2.164   1.862   0.695
  637SOL     OW 1923   2.885   2.628   0.966
  637SOL    HW1 1924   2.900   2.649   1.062
  637SOL    HW2 1925   2.855   2.533   0.957
  638SOL     OW 1926   2.181   2.672   0.949
  638SOL    HW1 1927   2.274   2.708   0.954
  638SOL    HW2 1928   2.175   2.587   1.001
  639SOL     OW 1929   2.201   2.371   1.006
  639SOL    HW1 1930   2.149   2.288   0.989
  639SOL    HW2 1931   2.278   2.376   0.942
  640SOL     OW 1932   1.902   2.406   1.114
  640SOL    HW1 1933   1.987   2.373   1.073
  640SOL    HW2 1934   1.915   2.421   1.212
  641SOL     OW 1935   2.051   2.382   1.722
  641SOL    HW1 1936   2.110   2.342   1.652
  641SOL    HW2 1937   1.993   2.453   1.681
  642SOL     OW 1938   2.677   2.434   0.325
  642SOL    HW1 1939   2.684   2.345   0.279
  642SOL    HW2 1940   2.583   2.468   0.317
  643SOL     OW 1941   2.533   2.326   1.269
  643SOL    HW1 1942   2.499   2.237   1.239
  643SOL    HW2 1943   2.559   2.380   1.189
  644SOL     OW 1944   2.335   2.362   0.191
  644SOL    HW1 1945   2.396   2.442   0.195
  644SOL    HW2 1946   2.240   2.393   0.198
  645SOL     OW 1947   2.765   1.948   0.133
  645SOL    HW1 1948   2.816   1.949   0.047
  645SOL    HW2 1949   2.821   1.906   0.204
  646SOL     OW 1950   2.125   2.188   0.720
  646SOL    HW1 1951   2.046   2.239   0.686
  646SOL    HW2 1952   2.116   2.173   0.818
  647SOL     OW 1953   1.967   2.875   1.726
  647SOL    HW1 1954   1.890   2.842   1.780
  647SOL    HW2 1955   2.052   2.845   1.768
  648SOL     OW 1956   2.534   2.065   1.489
  648SOL    HW1 1957   2.624   2.049   1.449
  648SOL    HW2 1958   2.542   2.070   1.588
  649SOL     OW 1959   1.934   2.028   0.318
  649SOL    HW1 1960   1.917   2.111   0.264
  649SOL    HW2 1961   2.024   1.991   0.296
  650SOL     OW 1962   2.475   2.704   1.431
  650SOL    HW1 1963   2.531   2.785   1.414
  650SOL    HW2 1964   2.534   2.624   1.434
  651SOL     OW 1965   2.578   2.427   1.708
  651SOL    HW1 1966   2.597   2.492   1.782
  651SOL    HW2 1967   2.638   2.347   1.717
  652SOL     OW 1968   2.456   2.607   0.652
  652SOL    HW1 1969   2.506   2.692   0.633
  652SOL    HW2 1970   2.368   2.609   0.604
  653SOL     OW 1971   2.290   2.286   0.520
  653SOL    HW1 1972   2.320   2.214   0.458
  653SOL    HW2 1973   2.251   2.246   0.603
  654SOL     OW 1974   2.179   2.409   1.280
  654SOL    HW1 1975   2.217   2.350   1.352
  654SOL    HW2 1976   2.219   2.383   1.192
  655SOL     OW 1977   2.092   2.490   1.975
  655SOL    HW1 1978   1.999   2.488   2.012
  655SOL    HW2 1979   2.093   2.451   1.883
  656SOL     OW 1980   2.087   2.137   2.858
  656SOL    HW1 1981   2.122   2.120   2.950
  656SOL    HW2 1982   1.999   2.092   2.846
  657SOL     OW 1983   1.881   2.230   2.509
  657SOL    HW1 1984   1.799   2.273   2.548
  657SOL    HW2 1985   1.853   2.157   2.446
  658SOL     OW 1986   2.547   2.874   2.527
  658SOL    HW1 1987   2.616   2.858   2.597
  658SOL    HW2 1988   2.474   2.931   2.565
  659SOL     OW 1989   1.984   2.505   2.425
  659SOL    HW1 1990   1.939   2.417   2.442
  659SOL    HW2 1991   1.983   2.559   2.509
  660SOL     OW 1992   2.671   1.866   2.364
  660SOL    HW1 1993   2.711   1.957   2.355
  660SOL    HW2 1994   2.571   1.874   2.370
  661SOL     OW 1995   2.460   2.591   2.132
  661SOL    HW1 1996   2.484   2.660   2.064
  661SOL    HW2 1997   2.382   2.624   2.186
  662SOL     OW 1998   1.938   2.673   2.651
  662SOL    HW1 1999   2.037   2.661   2.660
  662SOL    HW2 2000   1.914   2.768   2.672
  663SOL     OW 2001   2.412   2.058   2.747
  663SOL    HW1 2002   2.407   2.053   2.847
  663SOL    HW2 2003   2.414   2.154   2.718
  664SOL     OW 2004   2.244   2.562   2.342
  664SOL    HW1 2005   2.289   2.472   2.339
  664SOL    HW2 2006   2.150   2.551   2.375
  665SOL     OW 2007   2.476   1.984   1.979
  665SOL    HW1 2008   2.574   1.962   1.986
  665SOL    HW2 2009   2.445   1.967   1.886
  666SOL     OW 2010   2.401   1.926   2.374
  666SOL    HW1 2011   2.320   1.927   2.432
  666SOL    HW2 2012   2.404   2.009   2.319
  667SOL     OW 2013   2.159   1.897   2.033
  667SOL    HW1 2014   2.208   1.981   2.012
  667SOL    HW2 2015   2.221   1.832   2.078
  668SOL     OW 2016   2.321   3.014   2.603
  668SOL    HW1 2017   2.250   2.987   2.668
  668SOL    HW2 2018   2.295   2.986   2.510
  669SOL     OW 2019   2.389   2.118   2.190
  669SOL    HW1 2020   2.416   2.059   2.115
  669SOL    HW2 2021   2.389   2.213   2.159
  670SOL     OW 2022   2.567   2.912   2.230
  670SOL    HW1 2023   2.553   2.919   2.329
  670SOL    HW2 2024   2.651   2.861   2.212
  671SOL     OW 2025   2.428   2.399   2.727
  671SOL    HW1 2026   2.440   2.465   2.653
  671SOL    HW2 2027   2.474   2.433   2.810
  672SOL     OW 2028   2.169   1.925   2.480
  672SOL    HW1 2029   2.158   2.019   2.513
  672SOL    HW2 2030   2.164   1.862   2.557
  673SOL     OW 2031   2.677   2.434   2.187
  673SOL    HW1 2032   2.684   2.345   2.141
  673SOL    HW2 2033   2.583   2.468   2.179
  674SOL     OW 2034   2.335   2.362   2.053
  674SOL    HW1 2035   2.396   2.442   2.057
  674SOL    HW2 2036   2.240   2.393   2.060
  675SOL     OW 2037   2.765   1.948   1.995
  675SOL    HW1 2038   2.816   1.949   1.909
  675SOL    HW2 2039   2.821   1.906   2.066
  676SOL     OW 2040   2.125   2.188   2.582
  676SOL    HW1 2041   2.046   2.239   2.548
  676SOL    HW2 2042   2.116   2.173   2.680
  677SOL     OW 2043   2.778   2.772   2.153
  677SOL    HW1 2044   2.841   2.810   2.085
  677SOL    HW2 2045   2.818   2.689   2.192
  678SOL     OW 2046   1.937   2.207   1.895
  678SOL    HW1 2047   1.845   2.179   1.866
  678SOL    HW2 2048   1.968   2.284   1.839
  679SOL     OW 2049   1.934   2.028   2.180
  679SOL    HW1 2050   1.917   2.111   2.126
  679SOL    HW2 2051   2.024   1.991   2.158
  680SOL     OW 2052   2.456   2.607   2.514
  680SOL    HW1 2053   2.506   2.692   2.495
  680SOL    HW2 2054   2.368   2.609   2.466
  681SOL     OW 2055   2.290   2.286   2.382
  681SOL    HW1 2056   2.320   2.214   2.320
  681SOL    HW2 2057   2.251   2.246   2.465
   2.77388   2.77388   2.77388
