; mobley_628086_GMX.itp created by acpype (v: 2023.10.27) on Thu May 14 13:37:25 2026

[ atomtypes ]
;name   bond_type     mass     charge   ptype   sigma         epsilon       Amb
 c3       c3          0.00000  0.00000   A     3.39771e-01   4.51035e-01 ; 1.91  0.1078
 oh       oh          0.00000  0.00000   A     3.24287e-01   3.89112e-01 ; 1.82  0.0930
 f        f           0.00000  0.00000   A     3.03422e-01   3.48109e-01 ; 1.70  0.0832
 hc       hc          0.00000  0.00000   A     2.60018e-01   8.70272e-02 ; 1.46  0.0208
 h1       h1          0.00000  0.00000   A     2.42200e-01   8.70272e-02 ; 1.36  0.0208
 ho       ho          0.00000  0.00000   A     5.37925e-02   1.96648e-02 ; 0.30  0.0047

[ moleculetype ]
;name            nrexcl
 mobley_628086    3

[ atoms ]
;   nr  type  resi  res  atom  cgnr     charge      mass       ; qtot   bond_type
     1   c3     1   MOL    C1    1    -0.101100     12.01000 ; qtot -0.101
     2   c3     1   MOL    C2    2     0.127100     12.01000 ; qtot 0.026
     3   c3     1   MOL    C3    3     0.578901     12.01000 ; qtot 0.605
     4   oh     1   MOL    O1    4    -0.570800     16.00000 ; qtot 0.034
     5    f     1   MOL    F1    5    -0.237967     19.00000 ; qtot -0.204
     6    f     1   MOL    F2    6    -0.237967     19.00000 ; qtot -0.442
     7    f     1   MOL    F3    7    -0.237967     19.00000 ; qtot -0.680
     8   hc     1   MOL    H1    8     0.064700      1.00800 ; qtot -0.615
     9   hc     1   MOL    H2    9     0.064700      1.00800 ; qtot -0.550
    10   hc     1   MOL    H3   10     0.064700      1.00800 ; qtot -0.486
    11   h1     1   MOL    H4   11     0.066700      1.00800 ; qtot -0.419
    12   ho     1   MOL    H5   12     0.419000      1.00800 ; qtot -0.000

[ bonds ]
;   ai     aj funct   r             k
     1      2   1    1.5354e-01    1.9154e+05 ;     C1 - C2    
     1      8   1    1.0962e-01    2.8891e+05 ;     C1 - H1    
     1      9   1    1.0962e-01    2.8891e+05 ;     C1 - H2    
     1     10   1    1.0962e-01    2.8891e+05 ;     C1 - H3    
     2      3   1    1.5354e-01    1.9154e+05 ;     C2 - C3    
     2      4   1    1.4242e-01    2.3861e+05 ;     C2 - O1    
     2     11   1    1.0969e-01    2.8804e+05 ;     C2 - H4    
     3      5   1    1.3512e-01    2.7973e+05 ;     C3 - F1    
     3      6   1    1.3512e-01    2.7973e+05 ;     C3 - F2    
     3      7   1    1.3512e-01    2.7973e+05 ;     C3 - F3    
     4     12   1    9.7250e-02    4.4811e+05 ;     O1 - H5    

[ pairs ]
;   ai     aj    funct
     1      5      1 ;     C1 - F1    
     1      6      1 ;     C1 - F2    
     1      7      1 ;     C1 - F3    
     1     12      1 ;     C1 - H5    
     3     12      1 ;     C3 - H5    
     4      5      1 ;     O1 - F1    
     4      6      1 ;     O1 - F2    
     4      7      1 ;     O1 - F3    
     5     11      1 ;     F1 - H4    
     6     11      1 ;     F2 - H4    
     7     11      1 ;     F3 - H4    
     8      3      1 ;     H1 - C3    
     8      4      1 ;     H1 - O1    
     8     11      1 ;     H1 - H4    
     9      3      1 ;     H2 - C3    
     9      4      1 ;     H2 - O1    
     9     11      1 ;     H2 - H4    
    10      3      1 ;     H3 - C3    
    10      4      1 ;     H3 - O1    
    10     11      1 ;     H3 - H4    
    11     12      1 ;     H4 - H5    

[ angles ]
;   ai     aj     ak    funct   theta         cth
     1      2      3      1    1.1263e+02    5.0099e+02 ;     C1 - C2     - C3    
     1      2      4      1    1.0966e+02    6.4258e+02 ;     C1 - C2     - O1    
     1      2     11      1    1.0959e+02    3.6217e+02 ;     C1 - C2     - H4    
     2      1      8      1    1.0968e+02    3.6208e+02 ;     C2 - C1     - H1    
     2      1      9      1    1.0968e+02    3.6208e+02 ;     C2 - C1     - H2    
     2      1     10      1    1.0968e+02    3.6208e+02 ;     C2 - C1     - H3    
     2      3      5      1    1.0948e+02    6.6408e+02 ;     C2 - C3     - F1    
     2      3      6      1    1.0948e+02    6.6408e+02 ;     C2 - C3     - F2    
     2      3      7      1    1.0948e+02    6.6408e+02 ;     C2 - C3     - F3    
     2      4     12      1    1.0739e+02    5.4501e+02 ;     C2 - O1     - H5    
     3      2      4      1    1.0966e+02    6.4258e+02 ;     C3 - C2     - O1    
     3      2     11      1    1.0959e+02    3.6217e+02 ;     C3 - C2     - H4    
     4      2     11      1    1.1038e+02    4.7103e+02 ;     O1 - C2     - H4    
     5      3      6      1    1.0737e+02    8.9437e+02 ;     F1 - C3     - F2    
     5      3      7      1    1.0737e+02    8.9437e+02 ;     F1 - C3     - F3    
     6      3      7      1    1.0737e+02    8.9437e+02 ;     F2 - C3     - F3    
     8      1      9      1    1.0773e+02    2.9957e+02 ;     H1 - C1     - H2    
     8      1     10      1    1.0773e+02    2.9957e+02 ;     H1 - C1     - H3    
     9      1     10      1    1.0773e+02    2.9957e+02 ;     H2 - C1     - H3    

[ dihedrals ] ; propers
; for gromacs 4.5 or higher, using funct 9
;    i      j      k      l   func   phase     kd      pn
     1      2      3      5      9     0.00   0.65084   3 ;     C1-    C2-    C3-    F1
     1      2      3      6      9     0.00   0.65084   3 ;     C1-    C2-    C3-    F2
     1      2      3      7      9     0.00   0.65084   3 ;     C1-    C2-    C3-    F3
     1      2      4     12      9     0.00   0.25104   3 ;     C1-    C2-    O1-    H5
     3      2      4     12      9     0.00   0.25104   3 ;     C3-    C2-    O1-    H5
     4      2      3      5      9     0.00   0.65084   3 ;     O1-    C2-    C3-    F1
     4      2      3      6      9     0.00   0.65084   3 ;     O1-    C2-    C3-    F2
     4      2      3      7      9     0.00   0.65084   3 ;     O1-    C2-    C3-    F3
     5      3      2     11      9     0.00   0.00000   0 ;     F1-    C3-    C2-    H4
     5      3      2     11      9     0.00   0.79496   1 ;     F1-    C3-    C2-    H4
     6      3      2     11      9     0.00   0.00000   0 ;     F2-    C3-    C2-    H4
     6      3      2     11      9     0.00   0.79496   1 ;     F2-    C3-    C2-    H4
     7      3      2     11      9     0.00   0.00000   0 ;     F3-    C3-    C2-    H4
     7      3      2     11      9     0.00   0.79496   1 ;     F3-    C3-    C2-    H4
     8      1      2      3      9     0.00   0.54392   3 ;     H1-    C1-    C2-    C3
     8      1      2      4      9     0.00   0.37656   3 ;     H1-    C1-    C2-    O1
     8      1      2     11      9     0.00   0.65084   3 ;     H1-    C1-    C2-    H4
     9      1      2      3      9     0.00   0.54392   3 ;     H2-    C1-    C2-    C3
     9      1      2      4      9     0.00   0.37656   3 ;     H2-    C1-    C2-    O1
     9      1      2     11      9     0.00   0.65084   3 ;     H2-    C1-    C2-    H4
    10      1      2      3      9     0.00   0.54392   3 ;     H3-    C1-    C2-    C3
    10      1      2      4      9     0.00   0.37656   3 ;     H3-    C1-    C2-    O1
    10      1      2     11      9     0.00   0.65084   3 ;     H3-    C1-    C2-    H4
    11      2      4     12      9     0.00   0.51463   3 ;     H4-    C2-    O1-    H5
