; mobley_8427539_GMX.itp created by acpype (v: 2023.10.27) on Thu May 14 13:57:58 2026

[ atomtypes ]
;name   bond_type     mass     charge   ptype   sigma         epsilon       Amb
 c3       c3          0.00000  0.00000   A     3.39771e-01   4.51035e-01 ; 1.91  0.1078
 hc       hc          0.00000  0.00000   A     2.60018e-01   8.70272e-02 ; 1.46  0.0208
 c        c           0.00000  0.00000   A     3.31521e-01   4.13379e-01 ; 1.86  0.0988
 o        o           0.00000  0.00000   A     3.04812e-01   6.12119e-01 ; 1.71  0.1463
 nt       nt          0.00000  0.00000   A     3.35904e-01   3.56058e-01 ; 1.89  0.0851
 hn       hn          0.00000  0.00000   A     1.10650e-01   4.18400e-02 ; 0.62  0.0100

[ moleculetype ]
;name            nrexcl
 mobley_8427539   3

[ atoms ]
;   nr  type  resi  res  atom  cgnr     charge      mass       ; qtot   bond_type
     1   c3     1   MOL    C4    1    -0.093100     12.01000 ; qtot -0.093
     2   hc     1   MOL    H1    2     0.040700      1.00800 ; qtot -0.052
     3   hc     1   MOL    H2    3     0.040700      1.00800 ; qtot -0.012
     4   hc     1   MOL    H3    4     0.040700      1.00800 ; qtot 0.029
     5   c3     1   MOL    C3    5    -0.155400     12.01000 ; qtot -0.126
     6   hc     1   MOL    H4    6     0.072200      1.00800 ; qtot -0.054
     7   hc     1   MOL    H5    7     0.072200      1.00800 ; qtot 0.018
     8    c     1   MOL    C1    8     0.655100     12.01000 ; qtot 0.673
     9    o     1   MOL    O1    9    -0.614100     16.00000 ; qtot 0.059
    10   nt     1   MOL    N2   10    -0.678000     14.01000 ; qtot -0.619
    11   hn     1   MOL    H6   11     0.309500      1.00800 ; qtot -0.310
    12   hn     1   MOL    H7   12     0.309500      1.00800 ; qtot -0.000

[ bonds ]
;   ai     aj funct   r             k
     1      2   1    1.0962e-01    2.8891e+05 ;     C4 - H1    
     1      3   1    1.0962e-01    2.8891e+05 ;     C4 - H2    
     1      4   1    1.0962e-01    2.8891e+05 ;     C4 - H3    
     1      5   1    1.5354e-01    1.9154e+05 ;     C4 - C3    
     5      6   1    1.0962e-01    2.8891e+05 ;     C3 - H4    
     5      7   1    1.0962e-01    2.8891e+05 ;     C3 - H5    
     5      8   1    1.5270e-01    1.9652e+05 ;     C3 - C1    
     8      9   1    1.2190e-01    4.9421e+05 ;     C1 - O1    
     8     10   1    1.3675e-01    2.9326e+05 ;     C1 - N2    
    10     11   1    1.0105e-01    4.0128e+05 ;     N2 - H6    
    10     12   1    1.0105e-01    4.0128e+05 ;     N2 - H7    

[ pairs ]
;   ai     aj    funct
     1      9      1 ;     C4 - O1    
     1     10      1 ;     C4 - N2    
     2      6      1 ;     H1 - H4    
     2      7      1 ;     H1 - H5    
     2      8      1 ;     H1 - C1    
     3      6      1 ;     H2 - H4    
     3      7      1 ;     H2 - H5    
     3      8      1 ;     H2 - C1    
     4      6      1 ;     H3 - H4    
     4      7      1 ;     H3 - H5    
     4      8      1 ;     H3 - C1    
     5     11      1 ;     C3 - H6    
     5     12      1 ;     C3 - H7    
     6      9      1 ;     H4 - O1    
     6     10      1 ;     H4 - N2    
     7      9      1 ;     H5 - O1    
     7     10      1 ;     H5 - N2    
     9     11      1 ;     O1 - H6    
     9     12      1 ;     O1 - H7    

[ angles ]
;   ai     aj     ak    funct   theta         cth
     1      5      6      1    1.0968e+02    3.6208e+02 ;     C4 - C3     - H4    
     1      5      7      1    1.0968e+02    3.6208e+02 ;     C4 - C3     - H5    
     1      5      8      1    1.1143e+02    5.0509e+02 ;     C4 - C3     - C1    
     2      1      3      1    1.0773e+02    2.9957e+02 ;     H1 - C4     - H2    
     2      1      4      1    1.0773e+02    2.9957e+02 ;     H1 - C4     - H3    
     2      1      5      1    1.0968e+02    3.6208e+02 ;     H1 - C4     - C3    
     3      1      4      1    1.0773e+02    2.9957e+02 ;     H2 - C4     - H3    
     3      1      5      1    1.0968e+02    3.6208e+02 ;     H2 - C4     - C3    
     4      1      5      1    1.0968e+02    3.6208e+02 ;     H3 - C4     - C3    
     5      8      9      1    1.2290e+02    6.3973e+02 ;     C3 - C1     - O1    
     5      8     10      1    1.1536e+02    5.5413e+02 ;     C3 - C1     - N2    
     6      5      7      1    1.0773e+02    2.9957e+02 ;     H4 - C3     - H5    
     6      5      8      1    1.0895e+02    3.6510e+02 ;     H4 - C3     - C1    
     7      5      8      1    1.0895e+02    3.6510e+02 ;     H5 - C3     - C1    
     8     10     11      1    1.1844e+02    4.8158e+02 ;     C1 - N2     - H6    
     8     10     12      1    1.1844e+02    4.8158e+02 ;     C1 - N2     - H7    
     9      8     10      1    1.2298e+02    7.3421e+02 ;     O1 - C1     - N2    
    11     10     12      1    1.1795e+02    3.8384e+02 ;     H6 - N2     - H7    

[ dihedrals ] ; propers
; for gromacs 4.5 or higher, using funct 9
;    i      j      k      l   func   phase     kd      pn
     1      5      8      9      9     0.00   2.84512   1 ;     C4-    C3-    C1-    O1
     1      5      8      9      9   180.00   0.83680   2 ;     C4-    C3-    C1-    O1
     1      5      8      9      9   180.00   1.84096   3 ;     C4-    C3-    C1-    O1
     1      5      8     10      9   180.00   0.00000   4 ;     C4-    C3-    C1-    N2
     1      5      8     10      9   180.00   2.97064   2 ;     C4-    C3-    C1-    N2
     2      1      5      6      9     0.00   0.50208   3 ;     H1-    C4-    C3-    H4
     2      1      5      7      9     0.00   0.50208   3 ;     H1-    C4-    C3-    H5
     2      1      5      8      9     0.00   0.65084   3 ;     H1-    C4-    C3-    C1
     3      1      5      6      9     0.00   0.50208   3 ;     H2-    C4-    C3-    H4
     3      1      5      7      9     0.00   0.50208   3 ;     H2-    C4-    C3-    H5
     3      1      5      8      9     0.00   0.65084   3 ;     H2-    C4-    C3-    C1
     4      1      5      6      9     0.00   0.50208   3 ;     H3-    C4-    C3-    H4
     4      1      5      7      9     0.00   0.50208   3 ;     H3-    C4-    C3-    H5
     4      1      5      8      9     0.00   0.65084   3 ;     H3-    C4-    C3-    C1
     5      8     10     11      9   180.00  10.46000   2 ;     C3-    C1-    N2-    H6
     5      8     10     12      9   180.00  10.46000   2 ;     C3-    C1-    N2-    H7
     6      5      8      9      9     0.00  16.86152   1 ;     H4-    C3-    C1-    O1
     6      5      8      9      9   180.00  15.31344   2 ;     H4-    C3-    C1-    O1
     6      5      8     10      9   180.00   0.00000   2 ;     H4-    C3-    C1-    N2
     7      5      8      9      9     0.00  16.86152   1 ;     H5-    C3-    C1-    O1
     7      5      8      9      9   180.00  15.31344   2 ;     H5-    C3-    C1-    O1
     7      5      8     10      9   180.00   0.00000   2 ;     H5-    C3-    C1-    N2
     9      8     10     11      9     0.00   8.36800   1 ;     O1-    C1-    N2-    H6
     9      8     10     11      9   180.00  10.46000   2 ;     O1-    C1-    N2-    H6
     9      8     10     12      9     0.00   8.36800   1 ;     O1-    C1-    N2-    H7
     9      8     10     12      9   180.00  10.46000   2 ;     O1-    C1-    N2-    H7

[ dihedrals ] ; impropers
; treated as propers in GROMACS to use correct AMBER analytical function
;    i      j      k      l   func   phase     kd      pn
     5     10      8      9      4   180.00  43.93200   2 ;     C3-    N2-    C1-    O1
     8     11     10     12      4   180.00   4.60240   2 ;     C1-    H6-    N2-    H7
