; mobley_9617923_GMX.itp created by acpype (v: 2023.10.27) on Thu May 14 13:40:56 2026

[ atomtypes ]
;name   bond_type     mass     charge   ptype   sigma         epsilon       Amb
 c        c           0.00000  0.00000   A     3.31521e-01   4.13379e-01 ; 1.86  0.0988
 c3       c3          0.00000  0.00000   A     3.39771e-01   4.51035e-01 ; 1.91  0.1078
 o        o           0.00000  0.00000   A     3.04812e-01   6.12119e-01 ; 1.71  0.1463
 hc       hc          0.00000  0.00000   A     2.60018e-01   8.70272e-02 ; 1.46  0.0208

[ moleculetype ]
;name            nrexcl
 mobley_9617923   3

[ atoms ]
;   nr  type  resi  res  atom  cgnr     charge      mass       ; qtot   bond_type
     1    c     1   MOL    C1    1     0.565101     12.01000 ; qtot 0.565
     2   c3     1   MOL    C2    2    -0.205100     12.01000 ; qtot 0.360
     3   c3     1   MOL    C3    3    -0.093100     12.01000 ; qtot 0.267
     4   c3     1   MOL    C4    4    -0.182400     12.01000 ; qtot 0.085
     5   c3     1   MOL    C5    5    -0.080400     12.01000 ; qtot 0.004
     6   c3     1   MOL    C6    6    -0.075400     12.01000 ; qtot -0.071
     7   c3     1   MOL    C7    7    -0.079400     12.01000 ; qtot -0.151
     8   c3     1   MOL    C8    8    -0.078400     12.01000 ; qtot -0.229
     9   c3     1   MOL    C9    9    -0.079400     12.01000 ; qtot -0.308
    10   c3     1   MOL   C10   10    -0.078400     12.01000 ; qtot -0.387
    11    o     1   MOL    O1   11    -0.530100     16.00000 ; qtot -0.917
    12   hc     1   MOL    H1   12     0.063033      1.00800 ; qtot -0.854
    13   hc     1   MOL    H2   13     0.063033      1.00800 ; qtot -0.791
    14   hc     1   MOL    H3   14     0.063033      1.00800 ; qtot -0.728
    15   hc     1   MOL    H4   15     0.032700      1.00800 ; qtot -0.695
    16   hc     1   MOL    H5   16     0.032700      1.00800 ; qtot -0.663
    17   hc     1   MOL    H6   17     0.032700      1.00800 ; qtot -0.630
    18   hc     1   MOL    H7   18     0.063700      1.00800 ; qtot -0.566
    19   hc     1   MOL    H8   19     0.063700      1.00800 ; qtot -0.502
    20   hc     1   MOL    H9   20     0.037700      1.00800 ; qtot -0.465
    21   hc     1   MOL   H10   21     0.037700      1.00800 ; qtot -0.427
    22   hc     1   MOL   H11   22     0.055200      1.00800 ; qtot -0.372
    23   hc     1   MOL   H12   23     0.055200      1.00800 ; qtot -0.317
    24   hc     1   MOL   H13   24     0.040200      1.00800 ; qtot -0.276
    25   hc     1   MOL   H14   25     0.040200      1.00800 ; qtot -0.236
    26   hc     1   MOL   H15   26     0.037200      1.00800 ; qtot -0.199
    27   hc     1   MOL   H16   27     0.037200      1.00800 ; qtot -0.162
    28   hc     1   MOL   H17   28     0.038700      1.00800 ; qtot -0.123
    29   hc     1   MOL   H18   29     0.038700      1.00800 ; qtot -0.084
    30   hc     1   MOL   H19   30     0.042200      1.00800 ; qtot -0.042
    31   hc     1   MOL   H20   31     0.042200      1.00800 ; qtot -0.000

[ bonds ]
;   ai     aj funct   r             k
     1      2   1    1.5270e-01    1.9652e+05 ;     C1 - C2    
     1      4   1    1.5270e-01    1.9652e+05 ;     C1 - C4    
     1     11   1    1.2190e-01    4.9421e+05 ;     C1 - O1    
     2     12   1    1.0962e-01    2.8891e+05 ;     C2 - H1    
     2     13   1    1.0962e-01    2.8891e+05 ;     C2 - H2    
     2     14   1    1.0962e-01    2.8891e+05 ;     C2 - H3    
     3      5   1    1.5354e-01    1.9154e+05 ;     C3 - C5    
     3     15   1    1.0962e-01    2.8891e+05 ;     C3 - H4    
     3     16   1    1.0962e-01    2.8891e+05 ;     C3 - H5    
     3     17   1    1.0962e-01    2.8891e+05 ;     C3 - H6    
     4      6   1    1.5354e-01    1.9154e+05 ;     C4 - C6    
     4     18   1    1.0962e-01    2.8891e+05 ;     C4 - H7    
     4     19   1    1.0962e-01    2.8891e+05 ;     C4 - H8    
     5      7   1    1.5354e-01    1.9154e+05 ;     C5 - C7    
     5     20   1    1.0962e-01    2.8891e+05 ;     C5 - H9    
     5     21   1    1.0962e-01    2.8891e+05 ;     C5 - H10   
     6      8   1    1.5354e-01    1.9154e+05 ;     C6 - C8    
     6     22   1    1.0962e-01    2.8891e+05 ;     C6 - H11   
     6     23   1    1.0962e-01    2.8891e+05 ;     C6 - H12   
     7      9   1    1.5354e-01    1.9154e+05 ;     C7 - C9    
     7     24   1    1.0962e-01    2.8891e+05 ;     C7 - H13   
     7     25   1    1.0962e-01    2.8891e+05 ;     C7 - H14   
     8     10   1    1.5354e-01    1.9154e+05 ;     C8 - C10   
     8     26   1    1.0962e-01    2.8891e+05 ;     C8 - H15   
     8     27   1    1.0962e-01    2.8891e+05 ;     C8 - H16   
     9     10   1    1.5354e-01    1.9154e+05 ;     C9 - C10   
     9     28   1    1.0962e-01    2.8891e+05 ;     C9 - H17   
     9     29   1    1.0962e-01    2.8891e+05 ;     C9 - H18   
    10     30   1    1.0962e-01    2.8891e+05 ;    C10 - H19   
    10     31   1    1.0962e-01    2.8891e+05 ;    C10 - H20   

[ pairs ]
;   ai     aj    funct
     1      8      1 ;     C1 - C8    
     1     22      1 ;     C1 - H11   
     1     23      1 ;     C1 - H12   
     2      6      1 ;     C2 - C6    
     2     18      1 ;     C2 - H7    
     2     19      1 ;     C2 - H8    
     3      9      1 ;     C3 - C9    
     3     24      1 ;     C3 - H13   
     3     25      1 ;     C3 - H14   
     4     10      1 ;     C4 - C10   
     4     12      1 ;     C4 - H1    
     4     13      1 ;     C4 - H2    
     4     14      1 ;     C4 - H3    
     4     26      1 ;     C4 - H15   
     4     27      1 ;     C4 - H16   
     5     10      1 ;     C5 - C10   
     5     28      1 ;     C5 - H17   
     5     29      1 ;     C5 - H18   
     6      9      1 ;     C6 - C9    
     6     30      1 ;     C6 - H19   
     6     31      1 ;     C6 - H20   
     7      8      1 ;     C7 - C8    
     7     15      1 ;     C7 - H4    
     7     16      1 ;     C7 - H5    
     7     17      1 ;     C7 - H6    
     7     30      1 ;     C7 - H19   
     7     31      1 ;     C7 - H20   
     8     18      1 ;     C8 - H7    
     8     19      1 ;     C8 - H8    
     8     28      1 ;     C8 - H17   
     8     29      1 ;     C8 - H18   
     9     20      1 ;     C9 - H9    
     9     21      1 ;     C9 - H10   
     9     26      1 ;     C9 - H15   
     9     27      1 ;     C9 - H16   
    10     22      1 ;    C10 - H11   
    10     23      1 ;    C10 - H12   
    10     24      1 ;    C10 - H13   
    10     25      1 ;    C10 - H14   
    11      6      1 ;     O1 - C6    
    11     12      1 ;     O1 - H1    
    11     13      1 ;     O1 - H2    
    11     14      1 ;     O1 - H3    
    11     18      1 ;     O1 - H7    
    11     19      1 ;     O1 - H8    
    15     20      1 ;     H4 - H9    
    15     21      1 ;     H4 - H10   
    16     20      1 ;     H5 - H9    
    16     21      1 ;     H5 - H10   
    17     20      1 ;     H6 - H9    
    17     21      1 ;     H6 - H10   
    18     22      1 ;     H7 - H11   
    18     23      1 ;     H7 - H12   
    19     22      1 ;     H8 - H11   
    19     23      1 ;     H8 - H12   
    20     24      1 ;     H9 - H13   
    20     25      1 ;     H9 - H14   
    21     24      1 ;    H10 - H13   
    21     25      1 ;    H10 - H14   
    22     26      1 ;    H11 - H15   
    22     27      1 ;    H11 - H16   
    23     26      1 ;    H12 - H15   
    23     27      1 ;    H12 - H16   
    24     28      1 ;    H13 - H17   
    24     29      1 ;    H13 - H18   
    25     28      1 ;    H14 - H17   
    25     29      1 ;    H14 - H18   
    26     30      1 ;    H15 - H19   
    26     31      1 ;    H15 - H20   
    27     30      1 ;    H16 - H19   
    27     31      1 ;    H16 - H20   
    28     30      1 ;    H17 - H19   
    28     31      1 ;    H17 - H20   
    29     30      1 ;    H18 - H19   
    29     31      1 ;    H18 - H20   

[ angles ]
;   ai     aj     ak    funct   theta         cth
     1      2     12      1    1.0895e+02    3.6510e+02 ;     C1 - C2     - H1    
     1      2     13      1    1.0895e+02    3.6510e+02 ;     C1 - C2     - H2    
     1      2     14      1    1.0895e+02    3.6510e+02 ;     C1 - C2     - H3    
     1      4      6      1    1.1143e+02    5.0509e+02 ;     C1 - C4     - C6    
     1      4     18      1    1.0895e+02    3.6510e+02 ;     C1 - C4     - H7    
     1      4     19      1    1.0895e+02    3.6510e+02 ;     C1 - C4     - H8    
     2      1      4      1    1.1668e+02    4.9497e+02 ;     C2 - C1     - C4    
     2      1     11      1    1.2290e+02    6.3973e+02 ;     C2 - C1     - O1    
     3      5      7      1    1.1263e+02    5.0099e+02 ;     C3 - C5     - C7    
     3      5     20      1    1.0968e+02    3.6208e+02 ;     C3 - C5     - H9    
     3      5     21      1    1.0968e+02    3.6208e+02 ;     C3 - C5     - H10   
     4      1     11      1    1.2290e+02    6.3973e+02 ;     C4 - C1     - O1    
     4      6      8      1    1.1263e+02    5.0099e+02 ;     C4 - C6     - C8    
     4      6     22      1    1.0968e+02    3.6208e+02 ;     C4 - C6     - H11   
     4      6     23      1    1.0968e+02    3.6208e+02 ;     C4 - C6     - H12   
     5      3     15      1    1.0968e+02    3.6208e+02 ;     C5 - C3     - H4    
     5      3     16      1    1.0968e+02    3.6208e+02 ;     C5 - C3     - H5    
     5      3     17      1    1.0968e+02    3.6208e+02 ;     C5 - C3     - H6    
     5      7      9      1    1.1263e+02    5.0099e+02 ;     C5 - C7     - C9    
     5      7     24      1    1.0968e+02    3.6208e+02 ;     C5 - C7     - H13   
     5      7     25      1    1.0968e+02    3.6208e+02 ;     C5 - C7     - H14   
     6      4     18      1    1.0968e+02    3.6208e+02 ;     C6 - C4     - H7    
     6      4     19      1    1.0968e+02    3.6208e+02 ;     C6 - C4     - H8    
     6      8     10      1    1.1263e+02    5.0099e+02 ;     C6 - C8     - C10   
     6      8     26      1    1.0968e+02    3.6208e+02 ;     C6 - C8     - H15   
     6      8     27      1    1.0968e+02    3.6208e+02 ;     C6 - C8     - H16   
     7      5     20      1    1.0968e+02    3.6208e+02 ;     C7 - C5     - H9    
     7      5     21      1    1.0968e+02    3.6208e+02 ;     C7 - C5     - H10   
     7      9     10      1    1.1263e+02    5.0099e+02 ;     C7 - C9     - C10   
     7      9     28      1    1.0968e+02    3.6208e+02 ;     C7 - C9     - H17   
     7      9     29      1    1.0968e+02    3.6208e+02 ;     C7 - C9     - H18   
     8      6     22      1    1.0968e+02    3.6208e+02 ;     C8 - C6     - H11   
     8      6     23      1    1.0968e+02    3.6208e+02 ;     C8 - C6     - H12   
     8     10      9      1    1.1263e+02    5.0099e+02 ;     C8 - C10    - C9    
     8     10     30      1    1.0968e+02    3.6208e+02 ;     C8 - C10    - H19   
     8     10     31      1    1.0968e+02    3.6208e+02 ;     C8 - C10    - H20   
     9      7     24      1    1.0968e+02    3.6208e+02 ;     C9 - C7     - H13   
     9      7     25      1    1.0968e+02    3.6208e+02 ;     C9 - C7     - H14   
     9     10     30      1    1.0968e+02    3.6208e+02 ;     C9 - C10    - H19   
     9     10     31      1    1.0968e+02    3.6208e+02 ;     C9 - C10    - H20   
    10      8     26      1    1.0968e+02    3.6208e+02 ;    C10 - C8     - H15   
    10      8     27      1    1.0968e+02    3.6208e+02 ;    C10 - C8     - H16   
    10      9     28      1    1.0968e+02    3.6208e+02 ;    C10 - C9     - H17   
    10      9     29      1    1.0968e+02    3.6208e+02 ;    C10 - C9     - H18   
    12      2     13      1    1.0773e+02    2.9957e+02 ;     H1 - C2     - H2    
    12      2     14      1    1.0773e+02    2.9957e+02 ;     H1 - C2     - H3    
    13      2     14      1    1.0773e+02    2.9957e+02 ;     H2 - C2     - H3    
    15      3     16      1    1.0773e+02    2.9957e+02 ;     H4 - C3     - H5    
    15      3     17      1    1.0773e+02    2.9957e+02 ;     H4 - C3     - H6    
    16      3     17      1    1.0773e+02    2.9957e+02 ;     H5 - C3     - H6    
    18      4     19      1    1.0773e+02    2.9957e+02 ;     H7 - C4     - H8    
    20      5     21      1    1.0773e+02    2.9957e+02 ;     H9 - C5     - H10   
    22      6     23      1    1.0773e+02    2.9957e+02 ;    H11 - C6     - H12   
    24      7     25      1    1.0773e+02    2.9957e+02 ;    H13 - C7     - H14   
    26      8     27      1    1.0773e+02    2.9957e+02 ;    H15 - C8     - H16   
    28      9     29      1    1.0773e+02    2.9957e+02 ;    H17 - C9     - H18   
    30     10     31      1    1.0773e+02    2.9957e+02 ;    H19 - C10    - H20   

[ dihedrals ] ; propers
; for gromacs 4.5 or higher, using funct 9
;    i      j      k      l   func   phase     kd      pn
     1      4      6      8      9     0.00   0.00000   0 ;     C1-    C4-    C6-    C8
     1      4      6      8      9     0.00   0.16736   2 ;     C1-    C4-    C6-    C8
     1      4      6      8      9   180.00   1.92464   1 ;     C1-    C4-    C6-    C8
     1      4      6     22      9     0.00   0.65084   3 ;     C1-    C4-    C6-   H11
     1      4      6     23      9     0.00   0.65084   3 ;     C1-    C4-    C6-   H12
     2      1      4      6      9   180.00   1.09621   2 ;     C2-    C1-    C4-    C6
     2      1      4     18      9   180.00   0.00000   3 ;     C2-    C1-    C4-    H7
     2      1      4     19      9   180.00   0.00000   3 ;     C2-    C1-    C4-    H8
     3      5      7      9      9     0.00   2.17568   3 ;     C3-    C5-    C7-    C9
     3      5      7     24      9     0.00   0.54392   3 ;     C3-    C5-    C7-   H13
     3      5      7     25      9     0.00   0.54392   3 ;     C3-    C5-    C7-   H14
     4      1      2     12      9   180.00   0.00000   3 ;     C4-    C1-    C2-    H1
     4      1      2     13      9   180.00   0.00000   3 ;     C4-    C1-    C2-    H2
     4      1      2     14      9   180.00   0.00000   3 ;     C4-    C1-    C2-    H3
     4      6      8     10      9     0.00   2.17568   3 ;     C4-    C6-    C8-   C10
     4      6      8     26      9     0.00   0.54392   3 ;     C4-    C6-    C8-   H15
     4      6      8     27      9     0.00   0.54392   3 ;     C4-    C6-    C8-   H16
     5      7      9     10      9     0.00   2.17568   3 ;     C5-    C7-    C9-   C10
     5      7      9     28      9     0.00   0.54392   3 ;     C5-    C7-    C9-   H17
     5      7      9     29      9     0.00   0.54392   3 ;     C5-    C7-    C9-   H18
     6      8     10      9      9     0.00   2.17568   3 ;     C6-    C8-   C10-    C9
     6      8     10     30      9     0.00   0.54392   3 ;     C6-    C8-   C10-   H19
     6      8     10     31      9     0.00   0.54392   3 ;     C6-    C8-   C10-   H20
     7      5      3     15      9     0.00   0.54392   3 ;     C7-    C5-    C3-    H4
     7      5      3     16      9     0.00   0.54392   3 ;     C7-    C5-    C3-    H5
     7      5      3     17      9     0.00   0.54392   3 ;     C7-    C5-    C3-    H6
     7      9     10      8      9     0.00   2.17568   3 ;     C7-    C9-   C10-    C8
     7      9     10     30      9     0.00   0.54392   3 ;     C7-    C9-   C10-   H19
     7      9     10     31      9     0.00   0.54392   3 ;     C7-    C9-   C10-   H20
     8      6      4     18      9     0.00   0.54392   3 ;     C8-    C6-    C4-    H7
     8      6      4     19      9     0.00   0.54392   3 ;     C8-    C6-    C4-    H8
     8     10      9     28      9     0.00   0.54392   3 ;     C8-   C10-    C9-   H17
     8     10      9     29      9     0.00   0.54392   3 ;     C8-   C10-    C9-   H18
     9      7      5     20      9     0.00   0.54392   3 ;     C9-    C7-    C5-    H9
     9      7      5     21      9     0.00   0.54392   3 ;     C9-    C7-    C5-   H10
     9     10      8     26      9     0.00   0.54392   3 ;     C9-   C10-    C8-   H15
     9     10      8     27      9     0.00   0.54392   3 ;     C9-   C10-    C8-   H16
    10      8      6     22      9     0.00   0.54392   3 ;    C10-    C8-    C6-   H11
    10      8      6     23      9     0.00   0.54392   3 ;    C10-    C8-    C6-   H12
    10      9      7     24      9     0.00   0.54392   3 ;    C10-    C9-    C7-   H13
    10      9      7     25      9     0.00   0.54392   3 ;    C10-    C9-    C7-   H14
    11      1      2     12      9     0.00  16.86152   1 ;     O1-    C1-    C2-    H1
    11      1      2     12      9   180.00  15.31344   2 ;     O1-    C1-    C2-    H1
    11      1      2     13      9     0.00  16.86152   1 ;     O1-    C1-    C2-    H2
    11      1      2     13      9   180.00  15.31344   2 ;     O1-    C1-    C2-    H2
    11      1      2     14      9     0.00  16.86152   1 ;     O1-    C1-    C2-    H3
    11      1      2     14      9   180.00  15.31344   2 ;     O1-    C1-    C2-    H3
    11      1      4      6      9     0.00   2.84512   1 ;     O1-    C1-    C4-    C6
    11      1      4      6      9   180.00   0.83680   2 ;     O1-    C1-    C4-    C6
    11      1      4      6      9   180.00   1.84096   3 ;     O1-    C1-    C4-    C6
    11      1      4     18      9     0.00  16.86152   1 ;     O1-    C1-    C4-    H7
    11      1      4     18      9   180.00  15.31344   2 ;     O1-    C1-    C4-    H7
    11      1      4     19      9     0.00  16.86152   1 ;     O1-    C1-    C4-    H8
    11      1      4     19      9   180.00  15.31344   2 ;     O1-    C1-    C4-    H8
    15      3      5     20      9     0.00   0.50208   3 ;     H4-    C3-    C5-    H9
    15      3      5     21      9     0.00   0.50208   3 ;     H4-    C3-    C5-   H10
    16      3      5     20      9     0.00   0.50208   3 ;     H5-    C3-    C5-    H9
    16      3      5     21      9     0.00   0.50208   3 ;     H5-    C3-    C5-   H10
    17      3      5     20      9     0.00   0.50208   3 ;     H6-    C3-    C5-    H9
    17      3      5     21      9     0.00   0.50208   3 ;     H6-    C3-    C5-   H10
    18      4      6     22      9     0.00   0.50208   3 ;     H7-    C4-    C6-   H11
    18      4      6     23      9     0.00   0.50208   3 ;     H7-    C4-    C6-   H12
    19      4      6     22      9     0.00   0.50208   3 ;     H8-    C4-    C6-   H11
    19      4      6     23      9     0.00   0.50208   3 ;     H8-    C4-    C6-   H12
    20      5      7     24      9     0.00   0.50208   3 ;     H9-    C5-    C7-   H13
    20      5      7     25      9     0.00   0.50208   3 ;     H9-    C5-    C7-   H14
    21      5      7     24      9     0.00   0.50208   3 ;    H10-    C5-    C7-   H13
    21      5      7     25      9     0.00   0.50208   3 ;    H10-    C5-    C7-   H14
    22      6      8     26      9     0.00   0.50208   3 ;    H11-    C6-    C8-   H15
    22      6      8     27      9     0.00   0.50208   3 ;    H11-    C6-    C8-   H16
    23      6      8     26      9     0.00   0.50208   3 ;    H12-    C6-    C8-   H15
    23      6      8     27      9     0.00   0.50208   3 ;    H12-    C6-    C8-   H16
    24      7      9     28      9     0.00   0.50208   3 ;    H13-    C7-    C9-   H17
    24      7      9     29      9     0.00   0.50208   3 ;    H13-    C7-    C9-   H18
    25      7      9     28      9     0.00   0.50208   3 ;    H14-    C7-    C9-   H17
    25      7      9     29      9     0.00   0.50208   3 ;    H14-    C7-    C9-   H18
    26      8     10     30      9     0.00   0.50208   3 ;    H15-    C8-   C10-   H19
    26      8     10     31      9     0.00   0.50208   3 ;    H15-    C8-   C10-   H20
    27      8     10     30      9     0.00   0.50208   3 ;    H16-    C8-   C10-   H19
    27      8     10     31      9     0.00   0.50208   3 ;    H16-    C8-   C10-   H20
    28      9     10     30      9     0.00   0.50208   3 ;    H17-    C9-   C10-   H19
    28      9     10     31      9     0.00   0.50208   3 ;    H17-    C9-   C10-   H20
    29      9     10     30      9     0.00   0.50208   3 ;    H18-    C9-   C10-   H19
    29      9     10     31      9     0.00   0.50208   3 ;    H18-    C9-   C10-   H20

[ dihedrals ] ; impropers
; treated as propers in GROMACS to use correct AMBER analytical function
;    i      j      k      l   func   phase     kd      pn
    11      1      4      2      4   180.00   4.60240   2 ;     O1-    C1-    C4-    C2
