mobley_3777264_GMX.gro created by acpype (v: 2023.10.27) on Thu May 14 13:40:55 2026
 1858
    1MOL     C1    1   1.196   1.403   1.237
    1MOL     C2    2   1.303   1.342   1.172
    1MOL     C3    3   1.197   1.415   1.377
    1MOL     C4    4   1.410   1.302   1.385
    1MOL     C5    5   1.410   1.291   1.246
    1MOL     C6    6   1.303   1.364   1.450
    1MOL     N1    7   1.518   1.228   1.180
    1MOL     N2    8   1.304   1.375   1.592
    1MOL     O1    9   1.207   1.431   1.649
    1MOL     O2   10   1.401   1.329   1.656
    1MOL     H1   11   1.113   1.443   1.180
    1MOL     H2   12   1.302   1.333   1.064
    1MOL     H3   13   1.113   1.463   1.426
    1MOL     H4   14   1.494   1.263   1.443
    1MOL     H5   15   1.499   1.166   1.104
    1MOL     H6   16   1.610   1.239   1.217
    2SOL     OW   17   0.230   0.628   0.113
    2SOL    HW1   18   0.137   0.626   0.150
    2SOL    HW2   19   0.231   0.589   0.021
    3SOL     OW   20   0.225   0.275   0.996
    3SOL    HW1   21   0.260   0.258   1.088
    3SOL    HW2   22   0.137   0.230   0.984
    4SOL     OW   23   0.019   0.368   0.647
    4SOL    HW1   24  -0.063   0.411   0.686
    4SOL    HW2   25  -0.009   0.295   0.584
    5SOL     OW   26   0.569   1.275   1.165
    5SOL    HW1   27   0.476   1.268   1.128
    5SOL    HW2   28   0.580   1.364   1.209
    6SOL     OW   29   1.555   1.511   0.703
    6SOL    HW1   30   1.498   1.495   0.784
    6SOL    HW2   31   1.496   1.521   0.623
    7SOL     OW   32   1.135   0.703   0.717
    7SOL    HW1   33   1.192   0.781   0.692
    7SOL    HW2   34   1.075   0.729   0.793
    8SOL     OW   35   1.755   0.607   0.231
    8SOL    HW1   36   1.743   0.594   0.132
    8SOL    HW2   37   1.725   0.526   0.280
    9SOL     OW   38   0.768   1.144   1.023
    9SOL    HW1   39   0.690   1.161   1.083
    9SOL    HW2   40   0.802   1.231   0.987
   10SOL     OW   41   0.850   0.798   1.823
   10SOL    HW1   42   0.846   0.874   1.888
   10SOL    HW2   43   0.872   0.834   1.732
   11SOL     OW   44   0.685   1.012   0.665
   11SOL    HW1   45   0.754   0.996   0.735
   11SOL    HW2   46   0.612   1.069   0.703
   12SOL     OW   47   0.686   1.161   1.803
   12SOL    HW1   48   0.746   1.240   1.817
   12SOL    HW2   49   0.600   1.192   1.762
   13SOL     OW   50   0.335   1.435   1.061
   13SOL    HW1   51   0.257   1.404   1.008
   13SOL    HW2   52   0.393   1.493   1.004
   14SOL     OW   53   0.438   0.392   1.499
   14SOL    HW1   54   0.520   0.336   1.508
   14SOL    HW2   55   0.357   0.334   1.503
   15SOL     OW   56   1.603   0.447   0.737
   15SOL    HW1   57   1.529   0.493   0.687
   15SOL    HW2   58   1.654   0.515   0.790
   16SOL     OW   59   0.231   1.713   0.483
   16SOL    HW1   60   0.265   1.790   0.537
   16SOL    HW2   61   0.275   1.713   0.393
   17SOL     OW   62   0.230   1.434   0.538
   17SOL    HW1   63   0.204   1.530   0.538
   17SOL    HW2   64   0.159   1.380   0.583
   18SOL     OW   65   0.240   1.091   0.886
   18SOL    HW1   66   0.254   1.007   0.938
   18SOL    HW2   67   0.185   1.155   0.941
   19SOL     OW   68   0.620   1.786   1.439
   19SOL    HW1   69   0.528   1.769   1.474
   19SOL    HW2   70   0.648   1.878   1.465
   20SOL     OW   71   0.606   0.964   0.123
   20SOL    HW1   72   0.613   1.048   0.069
   20SOL    HW2   73   0.652   0.977   0.211
   21SOL     OW   74   1.594   0.114   1.480
   21SOL    HW1   75   1.576   0.181   1.408
   21SOL    HW2   76   1.591   0.160   1.569
   22SOL     OW   77   0.122   0.643   0.563
   22SOL    HW1   78   0.077   0.555   0.580
   22SOL    HW2   79   0.121   0.697   0.647
   23SOL     OW   80   1.842   1.767   0.359
   23SOL    HW1   81   1.896   1.738   0.439
   23SOL    HW2   82   1.872   1.857   0.330
   24SOL     OW   83   0.027   1.596   0.117
   24SOL    HW1   84   0.008   1.500   0.138
   24SOL    HW2   85  -0.006   1.654   0.192
   25SOL     OW   86   1.689   0.922   0.612
   25SOL    HW1   87   1.784   0.893   0.620
   25SOL    HW2   88   1.681   0.987   0.537
   26SOL     OW   89   1.641   1.108   0.432
   26SOL    HW1   90   1.727   1.110   0.380
   26SOL    HW2   91   1.655   1.155   0.520
   27SOL     OW   92   0.113   0.737   1.597
   27SOL    HW1   93   0.201   0.724   1.642
   27SOL    HW2   94   0.100   0.834   1.575
   28SOL     OW   95   0.613   1.365   0.726
   28SOL    HW1   96   0.564   1.278   0.735
   28SOL    HW2   97   0.590   1.408   0.639
   29SOL     OW   98   0.809   0.004   0.502
   29SOL    HW1   99   0.849   0.095   0.493
   29SOL    HW2  100   0.709   0.012   0.508
   30SOL     OW  101   0.197   0.976   1.264
   30SOL    HW1  102   0.286   0.931   1.250
   30SOL    HW2  103   0.124   0.911   1.245
   31SOL     OW  104   1.525   0.999   0.190
   31SOL    HW1  105   1.462   0.923   0.203
   31SOL    HW2  106   1.573   1.017   0.276
   32SOL     OW  107   1.187   1.792   1.616
   32SOL    HW1  108   1.211   1.852   1.540
   32SOL    HW2  109   1.194   1.697   1.586
   33SOL     OW  110   0.317   0.251   1.801
   33SOL    HW1  111   0.388   0.322   1.807
   33SOL    HW2  112   0.229   0.290   1.829
   34SOL     OW  113   1.466   1.417   0.953
   34SOL    HW1  114   1.407   1.423   1.033
   34SOL    HW2  115   1.451   1.329   0.907
   35SOL     OW  116   1.667   1.714   0.572
   35SOL    HW1  117   1.626   1.691   0.484
   35SOL    HW2  118   1.649   1.640   0.637
   36SOL     OW  119   0.598   0.729   0.270
   36SOL    HW1  120   0.622   0.798   0.202
   36SOL    HW2  121   0.520   0.762   0.324
   37SOL     OW  122   1.281   0.345   0.944
   37SOL    HW1  123   1.195   0.295   0.931
   37SOL    HW2  124   1.343   0.291   1.000
   38SOL     OW  125   1.576   1.662   0.307
   38SOL    HW1  126   1.665   1.708   0.310
   38SOL    HW2  127   1.555   1.638   0.212
   39SOL     OW  128   0.807   0.605   1.465
   39SOL    HW1  129   0.760   0.602   1.554
   39SOL    HW2  130   0.756   0.550   1.399
   40SOL     OW  131   1.394   0.469   1.674
   40SOL    HW1  132   1.374   0.512   1.762
   40SOL    HW2  133   1.472   0.407   1.683
   41SOL     OW  134   0.973   0.890   1.572
   41SOL    HW1  135   1.019   0.806   1.543
   41SOL    HW2  136   0.917   0.924   1.497
   42SOL     OW  137   0.991   0.410   1.242
   42SOL    HW1  138   0.914   0.444   1.296
   42SOL    HW2  139   0.957   0.359   1.163
   43SOL     OW  140   1.041   0.701   0.429
   43SOL    HW1  141   1.067   0.697   0.525
   43SOL    HW2  142   0.956   0.650   0.415
   44SOL     OW  143   0.076   0.811   0.789
   44SOL    HW1  144   0.175   0.799   0.798
   44SOL    HW2  145   0.052   0.906   0.810
   45SOL     OW  146   0.130   1.821   1.571
   45SOL    HW1  147   0.120   1.806   1.670
   45SOL    HW2  148   0.044   1.857   1.535
   46SOL     OW  149   0.865   0.348   0.195
   46SOL    HW1  150   0.924   0.411   0.146
   46SOL    HW2  151   0.884   0.254   0.166
   47SOL     OW  152   1.719   0.585   1.831
   47SOL    HW1  153   1.693   0.674   1.795
   47SOL    HW2  154   1.717   0.517   1.758
   48SOL     OW  155   1.362   1.144   0.545
   48SOL    HW1  156   1.445   1.115   0.497
   48SOL    HW2  157   1.313   1.211   0.489
   49SOL     OW  158   0.550   0.196   0.885
   49SOL    HW1  159   0.545   0.191   0.985
   49SOL    HW2  160   0.552   0.292   0.856
   50SOL     OW  161   1.008   1.456   0.477
   50SOL    HW1  162   0.962   1.528   0.425
   50SOL    HW2  163   1.004   1.476   0.575
   51SOL     OW  164   0.351   1.801   0.853
   51SOL    HW1  165   0.401   1.715   0.859
   51SOL    HW2  166   0.416   1.878   0.850
   52SOL     OW  167   1.795   1.066   0.873
   52SOL    HW1  168   1.733   1.051   0.797
   52SOL    HW2  169   1.743   1.077   0.958
   53SOL     OW  170   0.321   0.943   0.242
   53SOL    HW1  171   0.403   0.982   0.200
   53SOL    HW2  172   0.294   0.861   0.193
   54SOL     OW  173   1.458   0.735   0.728
   54SOL    HW1  174   1.453   0.670   0.803
   54SOL    HW2  175   1.538   0.794   0.741
   55SOL     OW  176   0.461   1.266   1.727
   55SOL    HW1  177   0.411   1.267   1.641
   55SOL    HW2  178   0.398   1.248   1.803
   56SOL     OW  179   1.111   1.776   0.237
   56SOL    HW1  180   1.051   1.714   0.287
   56SOL    HW2  181   1.142   1.732   0.152
   57SOL     OW  182   0.202   0.285   1.498
   57SOL    HW1  183   0.122   0.345   1.485
   57SOL    HW2  184   0.192   0.236   1.584
   58SOL     OW  185   1.632   1.377   0.081
   58SOL    HW1  186   1.600   1.471   0.071
   58SOL    HW2  187   1.556   1.314   0.069
   59SOL     OW  188   0.464   1.743   0.323
   59SOL    HW1  189   0.497   1.782   0.409
   59SOL    HW2  190   0.540   1.736   0.258
   60SOL     OW  191   1.400   0.107   0.426
   60SOL    HW1  192   1.376   0.070   0.336
   60SOL    HW2  193   1.499   0.123   0.430
   61SOL     OW  194   0.249   1.785   1.241
   61SOL    HW1  195   0.306   1.720   1.291
   61SOL    HW2  196   0.233   1.752   1.148
   62SOL     OW  197   0.940   1.698   0.904
   62SOL    HW1  198   1.020   1.641   0.925
   62SOL    HW2  199   0.891   1.658   0.827
   63SOL     OW  200   0.382   0.700   0.480
   63SOL    HW1  201   0.427   0.610   0.477
   63SOL    HW2  202   0.288   0.689   0.513
   64SOL     OW  203   1.547   0.222   1.729
   64SOL    HW1  204   1.542   0.259   1.821
   64SOL    HW2  205   1.475   0.153   1.717
   65SOL     OW  206   0.614   0.122   0.117
   65SOL    HW1  207   0.712   0.100   0.124
   65SOL    HW2  208   0.583   0.105   0.024
   66SOL     OW  209   0.781   0.264   1.749
   66SOL    HW1  210   0.848   0.203   1.792
   66SOL    HW2  211   0.708   0.283   1.814
   67SOL     OW  212   0.888   1.514   1.195
   67SOL    HW1  213   0.865   1.489   1.101
   67SOL    HW2  214   0.949   1.445   1.234
   68SOL     OW  215   1.351   0.590   1.433
   68SOL    HW1  216   1.379   0.547   1.518
   68SOL    HW2  217   1.376   0.686   1.434
   69SOL     OW  218   0.803   1.402   0.924
   69SOL    HW1  219   0.893   1.416   0.882
   69SOL    HW2  220   0.732   1.404   0.853
   70SOL     OW  221   0.922   0.503   0.899
   70SOL    HW1  222   0.897   0.494   0.803
   70SOL    HW2  223   0.970   0.421   0.930
   71SOL     OW  224   0.539   0.064   0.512
   71SOL    HW1  225   0.458   0.065   0.570
   71SOL    HW2  226   0.542   0.147   0.457
   72SOL     OW  227   1.434   1.188   0.041
   72SOL    HW1  228   1.466   1.112   0.098
   72SOL    HW2  229   1.342   1.215   0.071
   73SOL     OW  230   0.297   0.035   0.171
   73SOL    HW1  231   0.346   0.119   0.150
   73SOL    HW2  232   0.359  -0.030   0.216
   74SOL     OW  233   0.935   0.236   0.480
   74SOL    HW1  234   0.887   0.277   0.402
   74SOL    HW2  235   1.034   0.234   0.461
   75SOL     OW  236   1.076   0.683   1.464
   75SOL    HW1  237   0.996   0.622   1.467
   75SOL    HW2  238   1.157   0.630   1.440
   76SOL     OW  239   1.227   1.570   0.793
   76SOL    HW1  240   1.248   1.644   0.728
   76SOL    HW2  241   1.295   1.570   0.866
   77SOL     OW  242   0.459   1.152   0.741
   77SOL    HW1  243   0.388   1.125   0.806
   77SOL    HW2  244   0.433   1.124   0.648
   78SOL     OW  245   1.271   1.797   0.591
   78SOL    HW1  246   1.315   1.861   0.527
   78SOL    HW2  247   1.221   1.849   0.661
   79SOL     OW  248   1.032   0.549   0.016
   79SOL    HW1  249   0.991   0.631  -0.023
   79SOL    HW2  250   1.096   0.575   0.089
   80SOL     OW  251   0.078   0.556   1.386
   80SOL    HW1  252   0.170   0.555   1.345
   80SOL    HW2  253   0.072   0.630   1.453
   81SOL     OW  254   0.561   0.222   1.147
   81SOL    HW1  255   0.599   0.138   1.184
   81SOL    HW2  256   0.473   0.241   1.191
   82SOL     OW  257   0.866   0.454   0.642
   82SOL    HW1  258   0.834   0.526   0.580
   82SOL    HW2  259   0.890   0.373   0.589
   83SOL     OW  260   1.017   0.039   0.753
   83SOL    HW1  261   0.945   0.044   0.684
   83SOL    HW2  262   0.993  -0.030   0.822
   84SOL     OW  263   1.429   1.173   0.867
   84SOL    HW1  264   1.374   1.089   0.860
   84SOL    HW2  265   1.455   1.202   0.775
   85SOL     OW  266   1.466   0.590   0.992
   85SOL    HW1  267   1.436   0.495   0.999
   85SOL    HW2  268   1.539   0.606   1.058
   86SOL     OW  269   1.857   0.833   0.377
   86SOL    HW1  270   1.899   0.769   0.441
   86SOL    HW2  271   1.819   0.782   0.299
   87SOL     OW  272   0.488   1.385   0.174
   87SOL    HW1  273   0.401   1.370   0.221
   87SOL    HW2  274   0.471   1.411   0.079
   88SOL     OW  275   1.664   1.280   0.657
   88SOL    HW1  276   1.763   1.288   0.671
   88SOL    HW2  277   1.619   1.364   0.688
   89SOL     OW  278   1.390   0.575   0.078
   89SOL    HW1  279   1.336   0.554   0.159
   89SOL    HW2  280   1.481   0.534   0.087
   90SOL     OW  281   0.527   0.256   0.328
   90SOL    HW1  282   0.554   0.197   0.253
   90SOL    HW2  283   0.527   0.351   0.297
   91SOL     OW  284   1.754   1.223   1.588
   91SOL    HW1  285   1.845   1.184   1.575
   91SOL    HW2  286   1.762   1.319   1.612
   92SOL     OW  287   1.592   1.629   1.625
   92SOL    HW1  288   1.619   1.663   1.535
   92SOL    HW2  289   1.671   1.591   1.671
   93SOL     OW  290   1.111   1.195   1.100
   93SOL    HW1  291   1.071   1.239   1.181
   93SOL    HW2  292   1.070   1.232   1.017
   94SOL     OW  293   0.915   0.089   1.402
   94SOL    HW1  294   0.940   0.069   1.307
   94SOL    HW2  295   0.987   0.145   1.444
   95SOL     OW  296   0.980   1.116   1.719
   95SOL    HW1  297   0.881   1.122   1.729
   95SOL    HW2  298   1.003   1.036   1.663
   96SOL     OW  299   0.705   1.050   0.368
   96SOL    HW1  300   0.691   1.057   0.467
   96SOL    HW2  301   0.789   0.999   0.350
   97SOL     OW  302   0.410   0.813   1.251
   97SOL    HW1  303   0.496   0.825   1.301
   97SOL    HW2  304   0.368   0.726   1.278
   98SOL     OW  305   1.274   0.386   1.262
   98SOL    HW1  306   1.295   0.460   1.326
   98SOL    HW2  307   1.185   0.403   1.219
   99SOL     OW  308   0.064   1.564   1.331
   99SOL    HW1  309   0.018   1.646   1.297
   99SOL    HW2  310   0.162   1.583   1.340
  100SOL     OW  311   0.367   1.100   0.501
  100SOL    HW1  312   0.360   1.183   0.445
  100SOL    HW2  313   0.371   1.020   0.441
  101SOL     OW  314   0.566   0.537   0.865
  101SOL    HW1  315   0.578   0.603   0.791
  101SOL    HW2  316   0.612   0.571   0.948
  102SOL     OW  317   1.252   1.348   0.388
  102SOL    HW1  318   1.302   1.425   0.428
  102SOL    HW2  319   1.157   1.350   0.420
  103SOL     OW  320   1.582   0.639   0.472
  103SOL    HW1  321   1.551   0.700   0.545
  103SOL    HW2  322   1.632   0.691   0.403
  104SOL     OW  323   0.354   1.510   1.329
  104SOL    HW1  324   0.333   1.466   1.242
  104SOL    HW2  325   0.451   1.536   1.332
  105SOL     OW  326   0.402   0.751   1.598
  105SOL    HW1  327   0.470   0.806   1.551
  105SOL    HW2  328   0.442   0.663   1.625
  106SOL     OW  329   1.587   0.779   1.670
  106SOL    HW1  330   1.495   0.817   1.665
  106SOL    HW2  331   1.647   0.826   1.605
  107SOL     OW  332   1.013   0.105   1.770
  107SOL    HW1  333   1.019   0.190   1.718
  107SOL    HW2  334   1.045   0.029   1.713
  108SOL     OW  335   0.504   0.050   1.740
  108SOL    HW1  336   0.462  -0.007   1.670
  108SOL    HW2  337   0.438   0.119   1.772
  109SOL     OW  338   0.573   0.870   1.029
  109SOL    HW1  339   0.617   0.959   1.020
  109SOL    HW2  340   0.510   0.870   1.106
  110SOL     OW  341   1.360   0.862   1.045
  110SOL    HW1  342   1.285   0.862   0.979
  110SOL    HW2  343   1.397   0.770   1.054
  111SOL     OW  344   1.209   0.525   0.275
  111SOL    HW1  345   1.222   0.441   0.329
  111SOL    HW2  346   1.180   0.599   0.335
  112SOL     OW  347   0.307   0.213   1.231
  112SOL    HW1  348   0.284   0.250   1.321
  112SOL    HW2  349   0.277   0.118   1.225
  113SOL     OW  350   0.037   1.310   1.282
  113SOL    HW1  351   0.090   1.261   1.350
  113SOL    HW2  352   0.059   1.408   1.287
  114SOL     OW  353   0.732   0.634   1.064
  114SOL    HW1  354   0.791   0.608   0.988
  114SOL    HW2  355   0.704   0.730   1.053
  115SOL     OW  356   1.728   0.935   1.854
  115SOL    HW1  357   1.682   0.928   1.765
  115SOL    HW2  358   1.666   0.979   1.920
  116SOL     OW  359   0.307   0.063   0.618
  116SOL    HW1  360   0.296   0.157   0.651
  116SOL    HW2  361   0.302   0.000   0.695
  117SOL     OW  362   1.622   0.367   0.374
  117SOL    HW1  363   1.624   0.291   0.438
  117SOL    HW2  364   1.574   0.444   0.414
  118SOL     OW  365   1.023   0.766   0.966
  118SOL    HW1  366   1.038   0.787   1.062
  118SOL    HW2  367   0.993   0.671   0.957
  119SOL     OW  368   0.980   1.573   1.700
  119SOL    HW1  369   0.960   1.617   1.612
  119SOL    HW2  370   1.019   1.482   1.684
  120SOL     OW  371   1.859   1.518   1.605
  120SOL    HW1  372   1.873   1.545   1.510
  120SOL    HW2  373   1.942   1.540   1.658
  121SOL     OW  374   0.350   0.898   1.804
  121SOL    HW1  375   0.426   0.942   1.852
  121SOL    HW2  376   0.385   0.851   1.722
  122SOL     OW  377   1.540   0.274   0.125
  122SOL    HW1  378   1.479   0.199   0.148
  122SOL    HW2  379   1.562   0.326   0.208
  123SOL     OW  380   1.303   0.838   0.042
  123SOL    HW1  381   1.337   0.745   0.057
  123SOL    HW2  382   1.321   0.865  -0.053
  124SOL     OW  383   1.068   1.333   0.849
  124SOL    HW1  384   1.075   1.249   0.794
  124SOL    HW2  385   1.130   1.402   0.813
  125SOL     OW  386   0.319   0.810   0.949
  125SOL    HW1  387   0.412   0.846   0.954
  125SOL    HW2  388   0.313   0.725   1.001
  126SOL     OW  389   0.339   0.509   1.006
  126SOL    HW1  390   0.287   0.426   0.989
  126SOL    HW2  391   0.416   0.514   0.942
  127SOL     OW  392   1.138   0.380   1.678
  127SOL    HW1  393   1.093   0.443   1.742
  127SOL    HW2  394   1.231   0.411   1.661
  128SOL     OW  395   1.160   0.207   1.477
  128SOL    HW1  396   1.160   0.271   1.554
  128SOL    HW2  397   1.188   0.255   1.394
  129SOL     OW  398   0.008   1.326   0.200
  129SOL    HW1  399  -0.085   1.347   0.169
  129SOL    HW2  400   0.018   1.227   0.213
  130SOL     OW  401   0.088   1.801   0.927
  130SOL    HW1  402   0.046   1.715   0.900
  130SOL    HW2  403   0.182   1.804   0.893
  131SOL     OW  404   0.504   1.568   0.910
  131SOL    HW1  405   0.570   1.642   0.919
  131SOL    HW2  406   0.548   1.489   0.868
  132SOL     OW  407   1.002   0.796   1.238
  132SOL    HW1  408   1.043   0.764   1.324
  132SOL    HW2  409   0.906   0.769   1.235
  133SOL     OW  410   0.040   0.544   1.114
  133SOL    HW1  411   0.125   0.511   1.073
  133SOL    HW2  412   0.053   0.559   1.212
  134SOL     OW  413   0.189   0.520   1.722
  134SOL    HW1  414   0.248   0.480   1.652
  134SOL    HW2  415   0.131   0.591   1.681
  135SOL     OW  416   1.369   0.950   1.660
  135SOL    HW1  417   1.408   1.039   1.680
  135SOL    HW2  418   1.379   0.930   1.563
  136SOL     OW  419   0.815   0.572   0.325
  136SOL    HW1  420   0.822   0.483   0.279
  136SOL    HW2  421   0.721   0.606   0.317
  137SOL     OW  422   1.657   0.604   1.206
  137SOL    HW1  423   1.619   0.535   1.268
  137SOL    HW2  424   1.739   0.568   1.162
  138SOL     OW  425   0.252   1.564   1.744
  138SOL    HW1  426   0.222   1.621   1.820
  138SOL    HW2  427   0.245   1.467   1.770
  139SOL     OW  428   0.671   0.464   1.269
  139SOL    HW1  429   0.637   0.375   1.239
  139SOL    HW2  430   0.697   0.518   1.189
  140SOL     OW  431   0.930   1.678   1.465
  140SOL    HW1  432   0.906   1.660   1.370
  140SOL    HW2  433   0.960   1.772   1.475
  141SOL     OW  434   0.473   0.500   0.191
  141SOL    HW1  435   0.534   0.580   0.195
  141SOL    HW2  436   0.378   0.531   0.198
  142SOL     OW  437   0.159   1.137   1.466
  142SOL    HW1  438   0.181   1.076   1.542
  142SOL    HW2  439   0.169   1.088   1.380
  143SOL     OW  440   1.347   1.059   1.234
  143SOL    HW1  441   1.371   0.996   1.160
  143SOL    HW2  442   1.257   1.099   1.216
  144SOL     OW  443   1.302   0.855   0.309
  144SOL    HW1  444   1.216   0.824   0.351
  144SOL    HW2  445   1.298   0.841   0.210
  145SOL     OW  446   1.759   1.747   1.154
  145SOL    HW1  447   1.820   1.777   1.081
  145SOL    HW2  448   1.721   1.658   1.132
  146SOL     OW  449   1.252   1.731   1.128
  146SOL    HW1  450   1.336   1.736   1.074
  146SOL    HW2  451   1.229   1.635   1.146
  147SOL     OW  452   0.083   1.258   1.022
  147SOL    HW1  453   0.078   1.257   1.122
  147SOL    HW2  454   0.000   1.217   0.984
  148SOL     OW  455   0.688   1.662   1.716
  148SOL    HW1  456   0.632   1.743   1.725
  148SOL    HW2  457   0.740   1.666   1.630
  149SOL     OW  458   0.903   0.086   0.133
  149SOL    HW1  459   0.954   0.087   0.047
  149SOL    HW2  460   0.959   0.044   0.204
  150SOL     OW  461   1.726   0.135   0.523
  150SOL    HW1  462   1.799   0.118   0.456
  150SOL    HW2  463   1.695   0.048   0.561
  151SOL     OW  464   1.388   1.573   0.477
  151SOL    HW1  465   1.455   1.585   0.403
  151SOL    HW2  466   1.348   1.662   0.500
  152SOL     OW  467   0.130   1.794   1.851
  152SOL    HW1  468   0.089   1.720   1.904
  152SOL    HW2  469   0.194   1.845   1.909
  153SOL     OW  470   1.280   0.927   0.672
  153SOL    HW1  471   1.340   0.846   0.674
  153SOL    HW2  472   1.320   0.996   0.612
  154SOL     OW  473   0.830   1.273   1.422
  154SOL    HW1  474   0.825   1.306   1.517
  154SOL    HW2  475   0.744   1.292   1.376
  155SOL     OW  476   0.672   1.616   0.154
  155SOL    HW1  477   0.681   1.626   0.055
  155SOL    HW2  478   0.632   1.527   0.175
  156SOL     OW  479   1.650   1.720   1.394
  156SOL    HW1  480   1.703   1.730   1.310
  156SOL    HW2  481   1.623   1.810   1.428
  157SOL     OW  482   1.841   0.175   0.963
  157SOL    HW1  483   1.880   0.090   0.927
  157SOL    HW2  484   1.743   0.177   0.944
  158SOL     OW  485   0.263   0.326   0.720
  158SOL    HW1  486   0.184   0.377   0.686
  158SOL    HW2  487   0.254   0.311   0.818
  159SOL     OW  488   1.194   1.612   0.031
  159SOL    HW1  489   1.200   1.519   0.068
  159SOL    HW2  490   1.135   1.612  -0.049
  160SOL     OW  491   0.822   1.002   1.372
  160SOL    HW1  492   0.862   1.001   1.280
  160SOL    HW2  493   0.832   1.094   1.412
  161SOL     OW  494   0.916   0.910   0.291
  161SOL    HW1  495   0.979   0.948   0.223
  161SOL    HW2  496   0.956   0.827   0.330
  162SOL     OW  497   1.504   1.607   0.044
  162SOL    HW1  498   1.412   1.644   0.051
  162SOL    HW2  499   1.542   1.627  -0.046
  163SOL     OW  500   0.372   1.288   1.490
  163SOL    HW1  501   0.359   1.381   1.456
  163SOL    HW2  502   0.288   1.236   1.477
  164SOL     OW  503   1.039   1.098   0.696
  164SOL    HW1  504   0.969   1.051   0.750
  164SOL    HW2  505   1.098   1.030   0.653
  165SOL     OW  506   1.014   0.236   0.971
  165SOL    HW1  507   1.006   0.200   0.878
  165SOL    HW2  508   1.012   0.160   1.036
  166SOL     OW  509   0.590   1.487   0.491
  166SOL    HW1  510   0.632   1.429   0.421
  166SOL    HW2  511   0.546   1.566   0.447
  167SOL     OW  512   1.709   0.385   1.381
  167SOL    HW1  513   1.782   0.454   1.385
  167SOL    HW2  514   1.737   0.310   1.322
  168SOL     OW  515   0.255   1.348   0.290
  168SOL    HW1  516   0.159   1.349   0.263
  168SOL    HW2  517   0.267   1.401   0.374
  169SOL     OW  518   0.105   1.013   1.726
  169SOL    HW1  519   0.028   0.980   1.780
  169SOL    HW2  520   0.190   0.983   1.768
  170SOL     OW  521   0.672   0.203   1.489
  170SOL    HW1  522   0.762   0.187   1.449
  170SOL    HW2  523   0.680   0.208   1.588
  171SOL     OW  524   0.075   0.345   0.033
  171SOL    HW1  525  -0.017   0.317   0.004
  171SOL    HW2  526   0.106   0.422  -0.023
  172SOL     OW  527   1.440   0.856   1.398
  172SOL    HW1  528   1.383   0.908   1.335
  172SOL    HW2  529   1.536   0.868   1.374
  173SOL     OW  530   0.072   0.166   0.318
  173SOL    HW1  531   0.055   0.249   0.264
  173SOL    HW2  532   0.162   0.129   0.296
  174SOL     OW  533   1.183   1.335   0.119
  174SOL    HW1  534   1.084   1.324   0.121
  174SOL    HW2  535   1.217   1.350   0.212
  175SOL     OW  536   0.613   0.842   1.431
  175SOL    HW1  537   0.669   0.923   1.414
  175SOL    HW2  538   0.672   0.762   1.434
  176SOL     OW  539   1.493   1.767   0.959
  176SOL    HW1  540   1.526   1.831   0.890
  176SOL    HW2  541   1.559   1.761   1.034
  177SOL     OW  542   0.716   0.565   1.708
  177SOL    HW1  543   0.735   0.630   1.782
  177SOL    HW2  544   0.776   0.485   1.717
  178SOL     OW  545   0.390   1.741   1.560
  178SOL    HW1  546   0.299   1.782   1.558
  178SOL    HW2  547   0.383   1.647   1.592
  179SOL     OW  548   1.674   0.883   1.254
  179SOL    HW1  549   1.647   0.794   1.217
  179SOL    HW2  550   1.675   0.951   1.181
  180SOL     OW  551   1.225   0.325   0.449
  180SOL    HW1  552   1.290   0.251   0.438
  180SOL    HW2  553   1.245   0.375   0.533
  181SOL     OW  554   0.594   0.745   0.652
  181SOL    HW1  555   0.644   0.830   0.633
  181SOL    HW2  556   0.506   0.747   0.604
  182SOL     OW  557   1.777   0.342   1.642
  182SOL    HW1  558   1.760   0.373   1.548
  182SOL    HW2  559   1.693   0.305   1.680
  183SOL     OW  560   1.730   0.934   1.517
  183SOL    HW1  561   1.768   1.025   1.532
  183SOL    HW2  562   1.722   0.917   1.418
  184SOL     OW  563   0.859   1.374   0.016
  184SOL    HW1  564   0.813   1.389   0.104
  184SOL    HW2  565   0.903   1.459  -0.014
  185SOL     OW  566   0.661   1.790   0.953
  185SOL    HW1  567   0.615   1.878   0.940
  185SOL    HW2  568   0.760   1.802   0.946
  186SOL     OW  569   0.859   0.956   0.861
  186SOL    HW1  570   0.913   0.887   0.909
  186SOL    HW2  571   0.827   1.025   0.927
  187SOL     OW  572   1.083   0.984   0.087
  187SOL    HW1  573   1.060   1.037   0.005
  187SOL    HW2  574   1.164   0.928   0.068
  188SOL     OW  575   1.861   1.569   0.851
  188SOL    HW1  576   1.790   1.557   0.781
  188SOL    HW2  577   1.862   1.490   0.911
  189SOL     OW  578   0.221   1.314   1.844
  189SOL    HW1  579   0.156   1.241   1.823
  189SOL    HW2  580   0.225   1.328   1.942
  190SOL     OW  581   0.079   1.240   0.653
  190SOL    HW1  582   0.078   1.193   0.741
  190SOL    HW2  583   0.161   1.212   0.602
  191SOL     OW  584   0.672   1.391   1.624
  191SOL    HW1  585   0.594   1.341   1.662
  191SOL    HW2  586   0.669   1.486   1.655
  192SOL     OW  587   1.824   0.192   1.227
  192SOL    HW1  588   1.820   0.102   1.271
  192SOL    HW2  589   1.827   0.181   1.128
  193SOL     OW  590   0.428   0.424   0.520
  193SOL    HW1  591   0.458   0.352   0.458
  193SOL    HW2  592   0.389   0.384   0.603
  194SOL     OW  593   1.705   1.487   1.104
  194SOL    HW1  594   1.612   1.462   1.077
  194SOL    HW2  595   1.731   1.437   1.186
  195SOL     OW  596   0.317   0.547   1.280
  195SOL    HW1  597   0.355   0.488   1.352
  195SOL    HW2  598   0.357   0.521   1.192
  196SOL     OW  599   0.812   1.586   0.687
  196SOL    HW1  600   0.844   1.596   0.593
  196SOL    HW2  601   0.733   1.524   0.689
  197SOL     OW  602   1.424   0.214   1.112
  197SOL    HW1  603   1.476   0.149   1.167
  197SOL    HW2  604   1.375   0.277   1.173
  198SOL     OW  605   1.001   0.034   1.154
  198SOL    HW1  606   0.938  -0.038   1.123
  198SOL    HW2  607   1.094  -0.002   1.154
  199SOL     OW  608   0.770   1.330   0.301
  199SOL    HW1  609   0.724   1.243   0.318
  199SOL    HW2  610   0.861   1.327   0.342
  200SOL     OW  611   0.618   1.567   1.284
  200SOL    HW1  612   0.613   1.649   1.341
  200SOL    HW2  613   0.707   1.564   1.239
  201SOL     OW  614   1.352   0.052   0.168
  201SOL    HW1  615   1.387   0.011   0.084
  201SOL    HW2  616   1.262   0.014   0.188
  202SOL     OW  617   1.300   0.453   0.691
  202SOL    HW1  618   1.241   0.533   0.695
  202SOL    HW2  619   1.315   0.418   0.784
  203SOL     OW  620   1.593   0.221   0.882
  203SOL    HW1  621   1.509   0.220   0.936
  203SOL    HW2  622   1.595   0.304   0.826
  204SOL     OW  623   0.039   1.077   0.300
  204SOL    HW1  624   0.138   1.066   0.291
  204SOL    HW2  625  -0.001   0.991   0.332
  205SOL     OW  626   0.875   1.646   0.337
  205SOL    HW1  627   0.798   1.611   0.283
  205SOL    HW2  628   0.843   1.717   0.399
  206SOL     OW  629   0.230   0.628   1.975
  206SOL    HW1  630   0.137   0.626   2.012
  206SOL    HW2  631   0.231   0.589   1.883
  207SOL     OW  632   0.019   0.368   2.509
  207SOL    HW1  633  -0.063   0.411   2.548
  207SOL    HW2  634  -0.009   0.295   2.446
  208SOL     OW  635   1.755   0.607   2.093
  208SOL    HW1  636   1.743   0.594   1.994
  208SOL    HW2  637   1.725   0.526   2.142
  209SOL     OW  638   0.685   1.012   2.527
  209SOL    HW1  639   0.754   0.996   2.597
  209SOL    HW2  640   0.612   1.069   2.565
  210SOL     OW  641   1.603   0.447   2.599
  210SOL    HW1  642   1.529   0.493   2.549
  210SOL    HW2  643   1.654   0.515   2.652
  211SOL     OW  644   0.231   1.713   2.345
  211SOL    HW1  645   0.265   1.790   2.399
  211SOL    HW2  646   0.275   1.713   2.255
  212SOL     OW  647   0.230   1.434   2.400
  212SOL    HW1  648   0.204   1.530   2.400
  212SOL    HW2  649   0.159   1.380   2.445
  213SOL     OW  650   0.606   0.964   1.985
  213SOL    HW1  651   0.613   1.048   1.931
  213SOL    HW2  652   0.652   0.977   2.073
  214SOL     OW  653   0.122   0.643   2.425
  214SOL    HW1  654   0.077   0.555   2.442
  214SOL    HW2  655   0.121   0.697   2.509
  215SOL     OW  656   1.842   1.767   2.221
  215SOL    HW1  657   1.896   1.738   2.301
  215SOL    HW2  658   1.872   1.857   2.192
  216SOL     OW  659   0.027   1.596   1.979
  216SOL    HW1  660   0.008   1.500   2.000
  216SOL    HW2  661  -0.006   1.654   2.054
  217SOL     OW  662   1.689   0.922   2.474
  217SOL    HW1  663   1.784   0.893   2.482
  217SOL    HW2  664   1.681   0.987   2.399
  218SOL     OW  665   1.641   1.108   2.294
  218SOL    HW1  666   1.727   1.110   2.242
  218SOL    HW2  667   1.655   1.155   2.382
  219SOL     OW  668   0.613   1.365   2.588
  219SOL    HW1  669   0.564   1.278   2.597
  219SOL    HW2  670   0.590   1.408   2.501
  220SOL     OW  671   0.809   0.004   2.364
  220SOL    HW1  672   0.849   0.095   2.355
  220SOL    HW2  673   0.709   0.012   2.370
  221SOL     OW  674   1.525   0.999   2.052
  221SOL    HW1  675   1.462   0.923   2.065
  221SOL    HW2  676   1.573   1.017   2.138
  222SOL     OW  677   1.667   1.714   2.434
  222SOL    HW1  678   1.626   1.691   2.346
  222SOL    HW2  679   1.649   1.640   2.499
  223SOL     OW  680   0.598   0.729   2.132
  223SOL    HW1  681   0.622   0.798   2.064
  223SOL    HW2  682   0.520   0.762   2.186
  224SOL     OW  683   1.281   0.345   2.806
  224SOL    HW1  684   1.195   0.295   2.793
  224SOL    HW2  685   1.343   0.291   2.862
  225SOL     OW  686   1.576   1.662   2.169
  225SOL    HW1  687   1.665   1.708   2.172
  225SOL    HW2  688   1.555   1.638   2.074
  226SOL     OW  689   1.041   0.701   2.291
  226SOL    HW1  690   1.067   0.697   2.387
  226SOL    HW2  691   0.956   0.650   2.277
  227SOL     OW  692   0.076   0.811   2.651
  227SOL    HW1  693   0.175   0.799   2.660
  227SOL    HW2  694   0.052   0.906   2.672
  228SOL     OW  695   0.865   0.348   2.057
  228SOL    HW1  696   0.924   0.411   2.008
  228SOL    HW2  697   0.884   0.254   2.028
  229SOL     OW  698   1.362   1.144   2.407
  229SOL    HW1  699   1.445   1.115   2.359
  229SOL    HW2  700   1.313   1.211   2.351
  230SOL     OW  701   1.008   1.456   2.339
  230SOL    HW1  702   0.962   1.528   2.287
  230SOL    HW2  703   1.004   1.476   2.437
  231SOL     OW  704   0.351   1.801   2.715
  231SOL    HW1  705   0.401   1.715   2.721
  231SOL    HW2  706   0.416   1.878   2.712
  232SOL     OW  707   1.795   1.066   2.735
  232SOL    HW1  708   1.733   1.051   2.659
  232SOL    HW2  709   1.743   1.077   2.820
  233SOL     OW  710   0.321   0.943   2.104
  233SOL    HW1  711   0.403   0.982   2.062
  233SOL    HW2  712   0.294   0.861   2.055
  234SOL     OW  713   1.111   1.776   2.099
  234SOL    HW1  714   1.051   1.714   2.149
  234SOL    HW2  715   1.142   1.732   2.014
  235SOL     OW  716   1.632   1.377   1.943
  235SOL    HW1  717   1.600   1.471   1.933
  235SOL    HW2  718   1.556   1.314   1.931
  236SOL     OW  719   0.464   1.743   2.185
  236SOL    HW1  720   0.497   1.782   2.271
  236SOL    HW2  721   0.540   1.736   2.120
  237SOL     OW  722   1.400   0.107   2.288
  237SOL    HW1  723   1.376   0.070   2.198
  237SOL    HW2  724   1.499   0.123   2.292
  238SOL     OW  725   0.940   1.698   2.766
  238SOL    HW1  726   1.020   1.641   2.787
  238SOL    HW2  727   0.891   1.658   2.689
  239SOL     OW  728   0.382   0.700   2.342
  239SOL    HW1  729   0.427   0.610   2.339
  239SOL    HW2  730   0.288   0.689   2.375
  240SOL     OW  731   0.614   0.122   1.979
  240SOL    HW1  732   0.712   0.100   1.986
  240SOL    HW2  733   0.583   0.105   1.886
  241SOL     OW  734   0.539   0.064   2.374
  241SOL    HW1  735   0.458   0.065   2.432
  241SOL    HW2  736   0.542   0.147   2.319
  242SOL     OW  737   1.434   1.188   1.903
  242SOL    HW1  738   1.466   1.112   1.960
  242SOL    HW2  739   1.342   1.215   1.933
  243SOL     OW  740   0.297   0.035   2.033
  243SOL    HW1  741   0.346   0.119   2.012
  243SOL    HW2  742   0.359  -0.030   2.078
  244SOL     OW  743   0.935   0.236   2.342
  244SOL    HW1  744   0.887   0.277   2.264
  244SOL    HW2  745   1.034   0.234   2.323
  245SOL     OW  746   0.459   1.152   2.603
  245SOL    HW1  747   0.388   1.125   2.668
  245SOL    HW2  748   0.433   1.124   2.510
  246SOL     OW  749   1.271   1.797   2.453
  246SOL    HW1  750   1.315   1.861   2.389
  246SOL    HW2  751   1.221   1.849   2.523
  247SOL     OW  752   1.032   0.549   1.878
  247SOL    HW1  753   0.991   0.631   1.839
  247SOL    HW2  754   1.096   0.575   1.951
  248SOL     OW  755   0.866   0.454   2.504
  248SOL    HW1  756   0.834   0.526   2.442
  248SOL    HW2  757   0.890   0.373   2.451
  249SOL     OW  758   1.857   0.833   2.239
  249SOL    HW1  759   1.899   0.769   2.303
  249SOL    HW2  760   1.819   0.782   2.161
  250SOL     OW  761   0.488   1.385   2.036
  250SOL    HW1  762   0.401   1.370   2.083
  250SOL    HW2  763   0.471   1.411   1.941
  251SOL     OW  764   1.664   1.280   2.519
  251SOL    HW1  765   1.763   1.288   2.533
  251SOL    HW2  766   1.619   1.364   2.550
  252SOL     OW  767   1.390   0.575   1.940
  252SOL    HW1  768   1.336   0.554   2.021
  252SOL    HW2  769   1.481   0.534   1.949
  253SOL     OW  770   0.527   0.256   2.190
  253SOL    HW1  771   0.554   0.197   2.115
  253SOL    HW2  772   0.527   0.351   2.159
  254SOL     OW  773   0.705   1.050   2.230
  254SOL    HW1  774   0.691   1.057   2.329
  254SOL    HW2  775   0.789   0.999   2.212
  255SOL     OW  776   0.367   1.100   2.363
  255SOL    HW1  777   0.360   1.183   2.307
  255SOL    HW2  778   0.371   1.020   2.303
  256SOL     OW  779   1.252   1.348   2.250
  256SOL    HW1  780   1.302   1.425   2.290
  256SOL    HW2  781   1.157   1.350   2.282
  257SOL     OW  782   1.582   0.639   2.334
  257SOL    HW1  783   1.551   0.700   2.407
  257SOL    HW2  784   1.632   0.691   2.265
  258SOL     OW  785   1.209   0.525   2.137
  258SOL    HW1  786   1.222   0.441   2.191
  258SOL    HW2  787   1.180   0.599   2.197
  259SOL     OW  788   0.307   0.063   2.480
  259SOL    HW1  789   0.296   0.157   2.513
  259SOL    HW2  790   0.302   0.000   2.557
  260SOL     OW  791   1.622   0.367   2.236
  260SOL    HW1  792   1.624   0.291   2.300
  260SOL    HW2  793   1.574   0.444   2.276
  261SOL     OW  794   1.540   0.274   1.987
  261SOL    HW1  795   1.479   0.199   2.010
  261SOL    HW2  796   1.562   0.326   2.070
  262SOL     OW  797   1.303   0.838   1.904
  262SOL    HW1  798   1.337   0.745   1.919
  262SOL    HW2  799   1.321   0.865   1.809
  263SOL     OW  800   0.008   1.326   2.062
  263SOL    HW1  801  -0.085   1.347   2.031
  263SOL    HW2  802   0.018   1.227   2.075
  264SOL     OW  803   0.815   0.572   2.187
  264SOL    HW1  804   0.822   0.483   2.141
  264SOL    HW2  805   0.721   0.606   2.179
  265SOL     OW  806   0.473   0.500   2.053
  265SOL    HW1  807   0.534   0.580   2.057
  265SOL    HW2  808   0.378   0.531   2.060
  266SOL     OW  809   1.302   0.855   2.171
  266SOL    HW1  810   1.216   0.824   2.213
  266SOL    HW2  811   1.298   0.841   2.072
  267SOL     OW  812   1.726   0.135   2.385
  267SOL    HW1  813   1.799   0.118   2.318
  267SOL    HW2  814   1.695   0.048   2.423
  268SOL     OW  815   1.388   1.573   2.339
  268SOL    HW1  816   1.455   1.585   2.265
  268SOL    HW2  817   1.348   1.662   2.362
  269SOL     OW  818   0.672   1.616   2.016
  269SOL    HW1  819   0.681   1.626   1.917
  269SOL    HW2  820   0.632   1.527   2.037
  270SOL     OW  821   1.194   1.612   1.893
  270SOL    HW1  822   1.200   1.519   1.930
  270SOL    HW2  823   1.135   1.612   1.813
  271SOL     OW  824   0.916   0.910   2.153
  271SOL    HW1  825   0.979   0.948   2.085
  271SOL    HW2  826   0.956   0.827   2.192
  272SOL     OW  827   1.504   1.607   1.906
  272SOL    HW1  828   1.412   1.644   1.913
  272SOL    HW2  829   1.542   1.627   1.816
  273SOL     OW  830   0.590   1.487   2.353
  273SOL    HW1  831   0.632   1.429   2.283
  273SOL    HW2  832   0.546   1.566   2.309
  274SOL     OW  833   0.255   1.348   2.152
  274SOL    HW1  834   0.159   1.349   2.125
  274SOL    HW2  835   0.267   1.401   2.236
  275SOL     OW  836   0.075   0.345   1.895
  275SOL    HW1  837  -0.017   0.317   1.866
  275SOL    HW2  838   0.106   0.422   1.839
  276SOL     OW  839   0.072   0.166   2.180
  276SOL    HW1  840   0.055   0.249   2.126
  276SOL    HW2  841   0.162   0.129   2.158
  277SOL     OW  842   1.183   1.335   1.981
  277SOL    HW1  843   1.084   1.324   1.983
  277SOL    HW2  844   1.217   1.350   2.074
  278SOL     OW  845   1.225   0.325   2.311
  278SOL    HW1  846   1.290   0.251   2.300
  278SOL    HW2  847   1.245   0.375   2.395
  279SOL     OW  848   0.594   0.745   2.514
  279SOL    HW1  849   0.644   0.830   2.495
  279SOL    HW2  850   0.506   0.747   2.466
  280SOL     OW  851   0.859   1.374   1.878
  280SOL    HW1  852   0.813   1.389   1.966
  280SOL    HW2  853   0.903   1.459   1.848
  281SOL     OW  854   0.661   1.790   2.815
  281SOL    HW1  855   0.615   1.878   2.802
  281SOL    HW2  856   0.760   1.802   2.808
  282SOL     OW  857   0.859   0.956   2.723
  282SOL    HW1  858   0.913   0.887   2.771
  282SOL    HW2  859   0.827   1.025   2.789
  283SOL     OW  860   1.083   0.984   1.949
  283SOL    HW1  861   1.060   1.037   1.867
  283SOL    HW2  862   1.164   0.928   1.930
  284SOL     OW  863   0.079   1.240   2.515
  284SOL    HW1  864   0.078   1.193   2.603
  284SOL    HW2  865   0.161   1.212   2.464
  285SOL     OW  866   0.428   0.424   2.382
  285SOL    HW1  867   0.458   0.352   2.320
  285SOL    HW2  868   0.389   0.384   2.465
  286SOL     OW  869   0.812   1.586   2.549
  286SOL    HW1  870   0.844   1.596   2.455
  286SOL    HW2  871   0.733   1.524   2.551
  287SOL     OW  872   0.770   1.330   2.163
  287SOL    HW1  873   0.724   1.243   2.180
  287SOL    HW2  874   0.861   1.327   2.204
  288SOL     OW  875   1.352   0.052   2.030
  288SOL    HW1  876   1.387   0.011   1.946
  288SOL    HW2  877   1.262   0.014   2.050
  289SOL     OW  878   1.300   0.453   2.553
  289SOL    HW1  879   1.241   0.533   2.557
  289SOL    HW2  880   1.315   0.418   2.646
  290SOL     OW  881   0.039   1.077   2.162
  290SOL    HW1  882   0.138   1.066   2.153
  290SOL    HW2  883  -0.001   0.991   2.194
  291SOL     OW  884   0.875   1.646   2.199
  291SOL    HW1  885   0.798   1.611   2.145
  291SOL    HW2  886   0.843   1.717   2.261
  292SOL     OW  887   0.230   2.490   0.113
  292SOL    HW1  888   0.137   2.488   0.150
  292SOL    HW2  889   0.231   2.451   0.021
  293SOL     OW  890   0.225   2.137   0.996
  293SOL    HW1  891   0.260   2.120   1.088
  293SOL    HW2  892   0.137   2.092   0.984
  294SOL     OW  893   0.019   2.230   0.647
  294SOL    HW1  894  -0.063   2.273   0.686
  294SOL    HW2  895  -0.009   2.157   0.584
  295SOL     OW  896   1.755   2.469   0.231
  295SOL    HW1  897   1.743   2.456   0.132
  295SOL    HW2  898   1.725   2.388   0.280
  296SOL     OW  899   0.850   2.660   1.823
  296SOL    HW1  900   0.846   2.736   1.888
  296SOL    HW2  901   0.872   2.696   1.732
  297SOL     OW  902   0.685   2.874   0.665
  297SOL    HW1  903   0.754   2.858   0.735
  297SOL    HW2  904   0.612   2.931   0.703
  298SOL     OW  905   0.438   2.254   1.499
  298SOL    HW1  906   0.520   2.198   1.508
  298SOL    HW2  907   0.357   2.196   1.503
  299SOL     OW  908   1.603   2.309   0.737
  299SOL    HW1  909   1.529   2.355   0.687
  299SOL    HW2  910   1.654   2.377   0.790
  300SOL     OW  911   1.594   1.976   1.480
  300SOL    HW1  912   1.576   2.043   1.408
  300SOL    HW2  913   1.591   2.022   1.569
  301SOL     OW  914   0.122   2.505   0.563
  301SOL    HW1  915   0.077   2.417   0.580
  301SOL    HW2  916   0.121   2.559   0.647
  302SOL     OW  917   0.113   2.599   1.597
  302SOL    HW1  918   0.201   2.586   1.642
  302SOL    HW2  919   0.100   2.696   1.575
  303SOL     OW  920   0.809   1.866   0.502
  303SOL    HW1  921   0.849   1.957   0.493
  303SOL    HW2  922   0.709   1.874   0.508
  304SOL     OW  923   0.317   2.113   1.801
  304SOL    HW1  924   0.388   2.184   1.807
  304SOL    HW2  925   0.229   2.152   1.829
  305SOL     OW  926   0.598   2.591   0.270
  305SOL    HW1  927   0.622   2.660   0.202
  305SOL    HW2  928   0.520   2.624   0.324
  306SOL     OW  929   1.281   2.207   0.944
  306SOL    HW1  930   1.195   2.157   0.931
  306SOL    HW2  931   1.343   2.153   1.000
  307SOL     OW  932   0.807   2.467   1.465
  307SOL    HW1  933   0.760   2.464   1.554
  307SOL    HW2  934   0.756   2.412   1.399
  308SOL     OW  935   1.394   2.331   1.674
  308SOL    HW1  936   1.374   2.374   1.762
  308SOL    HW2  937   1.472   2.269   1.683
  309SOL     OW  938   0.991   2.272   1.242
  309SOL    HW1  939   0.914   2.306   1.296
  309SOL    HW2  940   0.957   2.221   1.163
  310SOL     OW  941   1.041   2.563   0.429
  310SOL    HW1  942   1.067   2.559   0.525
  310SOL    HW2  943   0.956   2.512   0.415
  311SOL     OW  944   0.076   2.673   0.789
  311SOL    HW1  945   0.175   2.661   0.798
  311SOL    HW2  946   0.052   2.768   0.810
  312SOL     OW  947   0.865   2.210   0.195
  312SOL    HW1  948   0.924   2.273   0.146
  312SOL    HW2  949   0.884   2.116   0.166
  313SOL     OW  950   1.719   2.447   1.831
  313SOL    HW1  951   1.693   2.536   1.795
  313SOL    HW2  952   1.717   2.379   1.758
  314SOL     OW  953   0.550   2.058   0.885
  314SOL    HW1  954   0.545   2.053   0.985
  314SOL    HW2  955   0.552   2.154   0.856
  315SOL     OW  956   1.458   2.597   0.728
  315SOL    HW1  957   1.453   2.532   0.803
  315SOL    HW2  958   1.538   2.656   0.741
  316SOL     OW  959   0.202   2.147   1.498
  316SOL    HW1  960   0.122   2.207   1.485
  316SOL    HW2  961   0.192   2.098   1.584
  317SOL     OW  962   1.400   1.969   0.426
  317SOL    HW1  963   1.376   1.932   0.336
  317SOL    HW2  964   1.499   1.985   0.430
  318SOL     OW  965   0.382   2.562   0.480
  318SOL    HW1  966   0.427   2.472   0.477
  318SOL    HW2  967   0.288   2.551   0.513
  319SOL     OW  968   1.547   2.084   1.729
  319SOL    HW1  969   1.542   2.121   1.821
  319SOL    HW2  970   1.475   2.015   1.717
  320SOL     OW  971   0.781   2.126   1.749
  320SOL    HW1  972   0.848   2.065   1.792
  320SOL    HW2  973   0.708   2.145   1.814
  321SOL     OW  974   1.351   2.452   1.433
  321SOL    HW1  975   1.379   2.409   1.518
  321SOL    HW2  976   1.376   2.548   1.434
  322SOL     OW  977   0.922   2.365   0.899
  322SOL    HW1  978   0.897   2.356   0.803
  322SOL    HW2  979   0.970   2.283   0.930
  323SOL     OW  980   0.539   1.926   0.512
  323SOL    HW1  981   0.458   1.927   0.570
  323SOL    HW2  982   0.542   2.009   0.457
  324SOL     OW  983   0.935   2.098   0.480
  324SOL    HW1  984   0.887   2.139   0.402
  324SOL    HW2  985   1.034   2.096   0.461
  325SOL     OW  986   1.076   2.545   1.464
  325SOL    HW1  987   0.996   2.484   1.467
  325SOL    HW2  988   1.157   2.492   1.440
  326SOL     OW  989   1.032   2.411   0.016
  326SOL    HW1  990   0.991   2.493  -0.023
  326SOL    HW2  991   1.096   2.437   0.089
  327SOL     OW  992   0.078   2.418   1.386
  327SOL    HW1  993   0.170   2.417   1.345
  327SOL    HW2  994   0.072   2.492   1.453
  328SOL     OW  995   0.561   2.084   1.147
  328SOL    HW1  996   0.599   2.000   1.184
  328SOL    HW2  997   0.473   2.103   1.191
  329SOL     OW  998   0.866   2.316   0.642
  329SOL    HW1  999   0.834   2.388   0.580
  329SOL    HW2 1000   0.890   2.235   0.589
  330SOL     OW 1001   1.017   1.901   0.753
  330SOL    HW1 1002   0.945   1.906   0.684
  330SOL    HW2 1003   0.993   1.832   0.822
  331SOL     OW 1004   1.466   2.452   0.992
  331SOL    HW1 1005   1.436   2.357   0.999
  331SOL    HW2 1006   1.539   2.468   1.058
  332SOL     OW 1007   1.390   2.437   0.078
  332SOL    HW1 1008   1.336   2.416   0.159
  332SOL    HW2 1009   1.481   2.396   0.087
  333SOL     OW 1010   0.527   2.118   0.328
  333SOL    HW1 1011   0.554   2.059   0.253
  333SOL    HW2 1012   0.527   2.213   0.297
  334SOL     OW 1013   0.915   1.951   1.402
  334SOL    HW1 1014   0.940   1.931   1.307
  334SOL    HW2 1015   0.987   2.007   1.444
  335SOL     OW 1016   0.705   2.912   0.368
  335SOL    HW1 1017   0.691   2.919   0.467
  335SOL    HW2 1018   0.789   2.861   0.350
  336SOL     OW 1019   0.410   2.675   1.251
  336SOL    HW1 1020   0.496   2.687   1.301
  336SOL    HW2 1021   0.368   2.588   1.278
  337SOL     OW 1022   1.274   2.248   1.262
  337SOL    HW1 1023   1.295   2.322   1.326
  337SOL    HW2 1024   1.185   2.265   1.219
  338SOL     OW 1025   0.566   2.399   0.865
  338SOL    HW1 1026   0.578   2.465   0.791
  338SOL    HW2 1027   0.612   2.433   0.948
  339SOL     OW 1028   1.582   2.501   0.472
  339SOL    HW1 1029   1.551   2.562   0.545
  339SOL    HW2 1030   1.632   2.553   0.403
  340SOL     OW 1031   1.587   2.641   1.670
  340SOL    HW1 1032   1.495   2.679   1.665
  340SOL    HW2 1033   1.647   2.688   1.605
  341SOL     OW 1034   1.013   1.967   1.770
  341SOL    HW1 1035   1.019   2.052   1.718
  341SOL    HW2 1036   1.045   1.891   1.713
  342SOL     OW 1037   0.504   1.912   1.740
  342SOL    HW1 1038   0.462   1.855   1.670
  342SOL    HW2 1039   0.438   1.981   1.772
  343SOL     OW 1040   1.360   2.724   1.045
  343SOL    HW1 1041   1.285   2.724   0.979
  343SOL    HW2 1042   1.397   2.632   1.054
  344SOL     OW 1043   1.209   2.387   0.275
  344SOL    HW1 1044   1.222   2.303   0.329
  344SOL    HW2 1045   1.180   2.461   0.335
  345SOL     OW 1046   0.307   2.075   1.231
  345SOL    HW1 1047   0.284   2.112   1.321
  345SOL    HW2 1048   0.277   1.980   1.225
  346SOL     OW 1049   0.732   2.496   1.064
  346SOL    HW1 1050   0.791   2.470   0.988
  346SOL    HW2 1051   0.704   2.592   1.053
  347SOL     OW 1052   1.728   2.797   1.854
  347SOL    HW1 1053   1.682   2.790   1.765
  347SOL    HW2 1054   1.666   2.841   1.920
  348SOL     OW 1055   0.307   1.925   0.618
  348SOL    HW1 1056   0.296   2.019   0.651
  348SOL    HW2 1057   0.302   1.862   0.695
  349SOL     OW 1058   1.622   2.229   0.374
  349SOL    HW1 1059   1.624   2.153   0.438
  349SOL    HW2 1060   1.574   2.306   0.414
  350SOL     OW 1061   1.540   2.136   0.125
  350SOL    HW1 1062   1.479   2.061   0.148
  350SOL    HW2 1063   1.562   2.188   0.208
  351SOL     OW 1064   0.319   2.672   0.949
  351SOL    HW1 1065   0.412   2.708   0.954
  351SOL    HW2 1066   0.313   2.587   1.001
  352SOL     OW 1067   0.339   2.371   1.006
  352SOL    HW1 1068   0.287   2.288   0.989
  352SOL    HW2 1069   0.416   2.376   0.942
  353SOL     OW 1070   1.138   2.242   1.678
  353SOL    HW1 1071   1.093   2.305   1.742
  353SOL    HW2 1072   1.231   2.273   1.661
  354SOL     OW 1073   1.160   2.069   1.477
  354SOL    HW1 1074   1.160   2.133   1.554
  354SOL    HW2 1075   1.188   2.117   1.394
  355SOL     OW 1076   0.040   2.406   1.114
  355SOL    HW1 1077   0.125   2.373   1.073
  355SOL    HW2 1078   0.053   2.421   1.212
  356SOL     OW 1079   0.189   2.382   1.722
  356SOL    HW1 1080   0.248   2.342   1.652
  356SOL    HW2 1081   0.131   2.453   1.681
  357SOL     OW 1082   0.815   2.434   0.325
  357SOL    HW1 1083   0.822   2.345   0.279
  357SOL    HW2 1084   0.721   2.468   0.317
  358SOL     OW 1085   1.657   2.466   1.206
  358SOL    HW1 1086   1.619   2.397   1.268
  358SOL    HW2 1087   1.739   2.430   1.162
  359SOL     OW 1088   0.671   2.326   1.269
  359SOL    HW1 1089   0.637   2.237   1.239
  359SOL    HW2 1090   0.697   2.380   1.189
  360SOL     OW 1091   0.473   2.362   0.191
  360SOL    HW1 1092   0.534   2.442   0.195
  360SOL    HW2 1093   0.378   2.393   0.198
  361SOL     OW 1094   0.903   1.948   0.133
  361SOL    HW1 1095   0.954   1.949   0.047
  361SOL    HW2 1096   0.959   1.906   0.204
  362SOL     OW 1097   1.726   1.997   0.523
  362SOL    HW1 1098   1.799   1.980   0.456
  362SOL    HW2 1099   1.695   1.910   0.561
  363SOL     OW 1100   1.280   2.789   0.672
  363SOL    HW1 1101   1.340   2.708   0.674
  363SOL    HW2 1102   1.320   2.858   0.612
  364SOL     OW 1103   1.841   2.037   0.963
  364SOL    HW1 1104   1.880   1.952   0.927
  364SOL    HW2 1105   1.743   2.039   0.944
  365SOL     OW 1106   0.263   2.188   0.720
  365SOL    HW1 1107   0.184   2.239   0.686
  365SOL    HW2 1108   0.254   2.173   0.818
  366SOL     OW 1109   1.039   2.960   0.696
  366SOL    HW1 1110   0.969   2.913   0.750
  366SOL    HW2 1111   1.098   2.892   0.653
  367SOL     OW 1112   1.014   2.098   0.971
  367SOL    HW1 1113   1.006   2.062   0.878
  367SOL    HW2 1114   1.012   2.022   1.036
  368SOL     OW 1115   1.709   2.247   1.381
  368SOL    HW1 1116   1.782   2.316   1.385
  368SOL    HW2 1117   1.737   2.172   1.322
  369SOL     OW 1118   0.672   2.065   1.489
  369SOL    HW1 1119   0.762   2.049   1.449
  369SOL    HW2 1120   0.680   2.070   1.588
  370SOL     OW 1121   0.075   2.207   0.033
  370SOL    HW1 1122  -0.017   2.179   0.004
  370SOL    HW2 1123   0.106   2.284  -0.023
  371SOL     OW 1124   0.072   2.028   0.318
  371SOL    HW1 1125   0.055   2.111   0.264
  371SOL    HW2 1126   0.162   1.991   0.296
  372SOL     OW 1127   0.716   2.427   1.708
  372SOL    HW1 1128   0.735   2.492   1.782
  372SOL    HW2 1129   0.776   2.347   1.717
  373SOL     OW 1130   1.225   2.187   0.449
  373SOL    HW1 1131   1.290   2.113   0.438
  373SOL    HW2 1132   1.245   2.237   0.533
  374SOL     OW 1133   0.594   2.607   0.652
  374SOL    HW1 1134   0.644   2.692   0.633
  374SOL    HW2 1135   0.506   2.609   0.604
  375SOL     OW 1136   1.777   2.204   1.642
  375SOL    HW1 1137   1.760   2.235   1.548
  375SOL    HW2 1138   1.693   2.167   1.680
  376SOL     OW 1139   0.859   2.818   0.861
  376SOL    HW1 1140   0.913   2.749   0.909
  376SOL    HW2 1141   0.827   2.887   0.927
  377SOL     OW 1142   1.083   2.846   0.087
  377SOL    HW1 1143   1.060   2.899   0.005
  377SOL    HW2 1144   1.164   2.790   0.068
  378SOL     OW 1145   1.824   2.054   1.227
  378SOL    HW1 1146   1.820   1.964   1.271
  378SOL    HW2 1147   1.827   2.043   1.128
  379SOL     OW 1148   0.428   2.286   0.520
  379SOL    HW1 1149   0.458   2.214   0.458
  379SOL    HW2 1150   0.389   2.246   0.603
  380SOL     OW 1151   0.317   2.409   1.280
  380SOL    HW1 1152   0.355   2.350   1.352
  380SOL    HW2 1153   0.357   2.383   1.192
  381SOL     OW 1154   1.424   2.076   1.112
  381SOL    HW1 1155   1.476   2.011   1.167
  381SOL    HW2 1156   1.375   2.139   1.173
  382SOL     OW 1157   1.001   1.896   1.154
  382SOL    HW1 1158   0.938   1.824   1.123
  382SOL    HW2 1159   1.094   1.860   1.154
  383SOL     OW 1160   1.352   1.914   0.168
  383SOL    HW1 1161   1.387   1.873   0.084
  383SOL    HW2 1162   1.262   1.876   0.188
  384SOL     OW 1163   1.300   2.315   0.691
  384SOL    HW1 1164   1.241   2.395   0.695
  384SOL    HW2 1165   1.315   2.280   0.784
  385SOL     OW 1166   1.593   2.083   0.882
  385SOL    HW1 1167   1.509   2.082   0.936
  385SOL    HW2 1168   1.595   2.166   0.826
  386SOL     OW 1169   0.230   2.490   1.975
  386SOL    HW1 1170   0.137   2.488   2.012
  386SOL    HW2 1171   0.231   2.451   1.883
  387SOL     OW 1172   0.019   2.230   2.509
  387SOL    HW1 1173  -0.063   2.273   2.548
  387SOL    HW2 1174  -0.009   2.157   2.446
  388SOL     OW 1175   1.755   2.469   2.093
  388SOL    HW1 1176   1.743   2.456   1.994
  388SOL    HW2 1177   1.725   2.388   2.142
  389SOL     OW 1178   0.685   2.874   2.527
  389SOL    HW1 1179   0.754   2.858   2.597
  389SOL    HW2 1180   0.612   2.931   2.565
  390SOL     OW 1181   1.603   2.309   2.599
  390SOL    HW1 1182   1.529   2.355   2.549
  390SOL    HW2 1183   1.654   2.377   2.652
  391SOL     OW 1184   0.122   2.505   2.425
  391SOL    HW1 1185   0.077   2.417   2.442
  391SOL    HW2 1186   0.121   2.559   2.509
  392SOL     OW 1187   0.809   1.866   2.364
  392SOL    HW1 1188   0.849   1.957   2.355
  392SOL    HW2 1189   0.709   1.874   2.370
  393SOL     OW 1190   0.598   2.591   2.132
  393SOL    HW1 1191   0.622   2.660   2.064
  393SOL    HW2 1192   0.520   2.624   2.186
  394SOL     OW 1193   1.281   2.207   2.806
  394SOL    HW1 1194   1.195   2.157   2.793
  394SOL    HW2 1195   1.343   2.153   2.862
  395SOL     OW 1196   1.041   2.563   2.291
  395SOL    HW1 1197   1.067   2.559   2.387
  395SOL    HW2 1198   0.956   2.512   2.277
  396SOL     OW 1199   0.076   2.673   2.651
  396SOL    HW1 1200   0.175   2.661   2.660
  396SOL    HW2 1201   0.052   2.768   2.672
  397SOL     OW 1202   0.865   2.210   2.057
  397SOL    HW1 1203   0.924   2.273   2.008
  397SOL    HW2 1204   0.884   2.116   2.028
  398SOL     OW 1205   1.400   1.969   2.288
  398SOL    HW1 1206   1.376   1.932   2.198
  398SOL    HW2 1207   1.499   1.985   2.292
  399SOL     OW 1208   0.382   2.562   2.342
  399SOL    HW1 1209   0.427   2.472   2.339
  399SOL    HW2 1210   0.288   2.551   2.375
  400SOL     OW 1211   0.614   1.984   1.979
  400SOL    HW1 1212   0.712   1.962   1.986
  400SOL    HW2 1213   0.583   1.967   1.886
  401SOL     OW 1214   0.539   1.926   2.374
  401SOL    HW1 1215   0.458   1.927   2.432
  401SOL    HW2 1216   0.542   2.009   2.319
  402SOL     OW 1217   0.297   1.897   2.033
  402SOL    HW1 1218   0.346   1.981   2.012
  402SOL    HW2 1219   0.359   1.832   2.078
  403SOL     OW 1220   0.935   2.098   2.342
  403SOL    HW1 1221   0.887   2.139   2.264
  403SOL    HW2 1222   1.034   2.096   2.323
  404SOL     OW 1223   1.032   2.411   1.878
  404SOL    HW1 1224   0.991   2.493   1.839
  404SOL    HW2 1225   1.096   2.437   1.951
  405SOL     OW 1226   0.866   2.316   2.504
  405SOL    HW1 1227   0.834   2.388   2.442
  405SOL    HW2 1228   0.890   2.235   2.451
  406SOL     OW 1229   1.390   2.437   1.940
  406SOL    HW1 1230   1.336   2.416   2.021
  406SOL    HW2 1231   1.481   2.396   1.949
  407SOL     OW 1232   0.527   2.118   2.190
  407SOL    HW1 1233   0.554   2.059   2.115
  407SOL    HW2 1234   0.527   2.213   2.159
  408SOL     OW 1235   0.705   2.912   2.230
  408SOL    HW1 1236   0.691   2.919   2.329
  408SOL    HW2 1237   0.789   2.861   2.212
  409SOL     OW 1238   1.582   2.501   2.334
  409SOL    HW1 1239   1.551   2.562   2.407
  409SOL    HW2 1240   1.632   2.553   2.265
  410SOL     OW 1241   1.209   2.387   2.137
  410SOL    HW1 1242   1.222   2.303   2.191
  410SOL    HW2 1243   1.180   2.461   2.197
  411SOL     OW 1244   0.307   1.925   2.480
  411SOL    HW1 1245   0.296   2.019   2.513
  411SOL    HW2 1246   0.302   1.862   2.557
  412SOL     OW 1247   1.622   2.229   2.236
  412SOL    HW1 1248   1.624   2.153   2.300
  412SOL    HW2 1249   1.574   2.306   2.276
  413SOL     OW 1250   1.540   2.136   1.987
  413SOL    HW1 1251   1.479   2.061   2.010
  413SOL    HW2 1252   1.562   2.188   2.070
  414SOL     OW 1253   0.815   2.434   2.187
  414SOL    HW1 1254   0.822   2.345   2.141
  414SOL    HW2 1255   0.721   2.468   2.179
  415SOL     OW 1256   0.473   2.362   2.053
  415SOL    HW1 1257   0.534   2.442   2.057
  415SOL    HW2 1258   0.378   2.393   2.060
  416SOL     OW 1259   1.726   1.997   2.385
  416SOL    HW1 1260   1.799   1.980   2.318
  416SOL    HW2 1261   1.695   1.910   2.423
  417SOL     OW 1262   1.280   2.789   2.534
  417SOL    HW1 1263   1.340   2.708   2.536
  417SOL    HW2 1264   1.320   2.858   2.474
  418SOL     OW 1265   0.916   2.772   2.153
  418SOL    HW1 1266   0.979   2.810   2.085
  418SOL    HW2 1267   0.956   2.689   2.192
  419SOL     OW 1268   0.075   2.207   1.895
  419SOL    HW1 1269  -0.017   2.179   1.866
  419SOL    HW2 1270   0.106   2.284   1.839
  420SOL     OW 1271   0.072   2.028   2.180
  420SOL    HW1 1272   0.055   2.111   2.126
  420SOL    HW2 1273   0.162   1.991   2.158
  421SOL     OW 1274   1.225   2.187   2.311
  421SOL    HW1 1275   1.290   2.113   2.300
  421SOL    HW2 1276   1.245   2.237   2.395
  422SOL     OW 1277   0.594   2.607   2.514
  422SOL    HW1 1278   0.644   2.692   2.495
  422SOL    HW2 1279   0.506   2.609   2.466
  423SOL     OW 1280   1.083   2.846   1.949
  423SOL    HW1 1281   1.060   2.899   1.867
  423SOL    HW2 1282   1.164   2.790   1.930
  424SOL     OW 1283   0.428   2.286   2.382
  424SOL    HW1 1284   0.458   2.214   2.320
  424SOL    HW2 1285   0.389   2.246   2.465
  425SOL     OW 1286   1.352   1.914   2.030
  425SOL    HW1 1287   1.387   1.873   1.946
  425SOL    HW2 1288   1.262   1.876   2.050
  426SOL     OW 1289   1.300   2.315   2.553
  426SOL    HW1 1290   1.241   2.395   2.557
  426SOL    HW2 1291   1.315   2.280   2.646
  427SOL     OW 1292   2.092   0.628   0.113
  427SOL    HW1 1293   1.999   0.626   0.150
  427SOL    HW2 1294   2.093   0.589   0.021
  428SOL     OW 1295   2.087   0.275   0.996
  428SOL    HW1 1296   2.122   0.258   1.088
  428SOL    HW2 1297   1.999   0.230   0.984
  429SOL     OW 1298   1.881   0.368   0.647
  429SOL    HW1 1299   1.799   0.411   0.686
  429SOL    HW2 1300   1.853   0.295   0.584
  430SOL     OW 1301   2.431   1.275   1.165
  430SOL    HW1 1302   2.338   1.268   1.128
  430SOL    HW2 1303   2.442   1.364   1.209
  431SOL     OW 1304   2.712   0.798   1.823
  431SOL    HW1 1305   2.708   0.874   1.888
  431SOL    HW2 1306   2.734   0.834   1.732
  432SOL     OW 1307   2.547   1.012   0.665
  432SOL    HW1 1308   2.616   0.996   0.735
  432SOL    HW2 1309   2.474   1.069   0.703
  433SOL     OW 1310   2.548   1.161   1.803
  433SOL    HW1 1311   2.608   1.240   1.817
  433SOL    HW2 1312   2.462   1.192   1.762
  434SOL     OW 1313   2.197   1.435   1.061
  434SOL    HW1 1314   2.119   1.404   1.008
  434SOL    HW2 1315   2.255   1.493   1.004
  435SOL     OW 1316   2.300   0.392   1.499
  435SOL    HW1 1317   2.382   0.336   1.508
  435SOL    HW2 1318   2.219   0.334   1.503
  436SOL     OW 1319   2.093   1.713   0.483
  436SOL    HW1 1320   2.127   1.790   0.537
  436SOL    HW2 1321   2.137   1.713   0.393
  437SOL     OW 1322   2.092   1.434   0.538
  437SOL    HW1 1323   2.066   1.530   0.538
  437SOL    HW2 1324   2.021   1.380   0.583
  438SOL     OW 1325   2.102   1.091   0.886
  438SOL    HW1 1326   2.116   1.007   0.938
  438SOL    HW2 1327   2.047   1.155   0.941
  439SOL     OW 1328   2.482   1.786   1.439
  439SOL    HW1 1329   2.390   1.769   1.474
  439SOL    HW2 1330   2.510   1.878   1.465
  440SOL     OW 1331   2.468   0.964   0.123
  440SOL    HW1 1332   2.475   1.048   0.069
  440SOL    HW2 1333   2.514   0.977   0.211
  441SOL     OW 1334   1.984   0.643   0.563
  441SOL    HW1 1335   1.939   0.555   0.580
  441SOL    HW2 1336   1.983   0.697   0.647
  442SOL     OW 1337   1.889   1.596   0.117
  442SOL    HW1 1338   1.870   1.500   0.138
  442SOL    HW2 1339   1.856   1.654   0.192
  443SOL     OW 1340   1.975   0.737   1.597
  443SOL    HW1 1341   2.063   0.724   1.642
  443SOL    HW2 1342   1.962   0.834   1.575
  444SOL     OW 1343   2.475   1.365   0.726
  444SOL    HW1 1344   2.426   1.278   0.735
  444SOL    HW2 1345   2.452   1.408   0.639
  445SOL     OW 1346   2.671   0.004   0.502
  445SOL    HW1 1347   2.711   0.095   0.493
  445SOL    HW2 1348   2.571   0.012   0.508
  446SOL     OW 1349   2.059   0.976   1.264
  446SOL    HW1 1350   2.148   0.931   1.250
  446SOL    HW2 1351   1.986   0.911   1.245
  447SOL     OW 1352   2.179   0.251   1.801
  447SOL    HW1 1353   2.250   0.322   1.807
  447SOL    HW2 1354   2.091   0.290   1.829
  448SOL     OW 1355   2.460   0.729   0.270
  448SOL    HW1 1356   2.484   0.798   0.202
  448SOL    HW2 1357   2.382   0.762   0.324
  449SOL     OW 1358   1.938   0.811   0.789
  449SOL    HW1 1359   2.037   0.799   0.798
  449SOL    HW2 1360   1.914   0.906   0.810
  450SOL     OW 1361   1.992   1.821   1.571
  450SOL    HW1 1362   1.982   1.806   1.670
  450SOL    HW2 1363   1.906   1.857   1.535
  451SOL     OW 1364   2.412   0.196   0.885
  451SOL    HW1 1365   2.407   0.191   0.985
  451SOL    HW2 1366   2.414   0.292   0.856
  452SOL     OW 1367   2.213   1.801   0.853
  452SOL    HW1 1368   2.263   1.715   0.859
  452SOL    HW2 1369   2.278   1.878   0.850
  453SOL     OW 1370   2.183   0.943   0.242
  453SOL    HW1 1371   2.265   0.982   0.200
  453SOL    HW2 1372   2.156   0.861   0.193
  454SOL     OW 1373   2.323   1.266   1.727
  454SOL    HW1 1374   2.273   1.267   1.641
  454SOL    HW2 1375   2.260   1.248   1.803
  455SOL     OW 1376   2.064   0.285   1.498
  455SOL    HW1 1377   1.984   0.345   1.485
  455SOL    HW2 1378   2.054   0.236   1.584
  456SOL     OW 1379   2.326   1.743   0.323
  456SOL    HW1 1380   2.359   1.782   0.409
  456SOL    HW2 1381   2.402   1.736   0.258
  457SOL     OW 1382   2.111   1.785   1.241
  457SOL    HW1 1383   2.168   1.720   1.291
  457SOL    HW2 1384   2.095   1.752   1.148
  458SOL     OW 1385   2.244   0.700   0.480
  458SOL    HW1 1386   2.289   0.610   0.477
  458SOL    HW2 1387   2.150   0.689   0.513
  459SOL     OW 1388   2.476   0.122   0.117
  459SOL    HW1 1389   2.574   0.100   0.124
  459SOL    HW2 1390   2.445   0.105   0.024
  460SOL     OW 1391   2.665   1.402   0.924
  460SOL    HW1 1392   2.755   1.416   0.882
  460SOL    HW2 1393   2.594   1.404   0.853
  461SOL     OW 1394   2.784   0.503   0.899
  461SOL    HW1 1395   2.759   0.494   0.803
  461SOL    HW2 1396   2.832   0.421   0.930
  462SOL     OW 1397   2.401   0.064   0.512
  462SOL    HW1 1398   2.320   0.065   0.570
  462SOL    HW2 1399   2.404   0.147   0.457
  463SOL     OW 1400   2.159   0.035   0.171
  463SOL    HW1 1401   2.208   0.119   0.150
  463SOL    HW2 1402   2.221  -0.030   0.216
  464SOL     OW 1403   2.321   1.152   0.741
  464SOL    HW1 1404   2.250   1.125   0.806
  464SOL    HW2 1405   2.295   1.124   0.648
  465SOL     OW 1406   1.940   0.556   1.386
  465SOL    HW1 1407   2.032   0.555   1.345
  465SOL    HW2 1408   1.934   0.630   1.453
  466SOL     OW 1409   2.423   0.222   1.147
  466SOL    HW1 1410   2.461   0.138   1.184
  466SOL    HW2 1411   2.335   0.241   1.191
  467SOL     OW 1412   2.350   1.385   0.174
  467SOL    HW1 1413   2.263   1.370   0.221
  467SOL    HW2 1414   2.333   1.411   0.079
  468SOL     OW 1415   2.389   0.256   0.328
  468SOL    HW1 1416   2.416   0.197   0.253
  468SOL    HW2 1417   2.389   0.351   0.297
  469SOL     OW 1418   2.272   0.813   1.251
  469SOL    HW1 1419   2.358   0.825   1.301
  469SOL    HW2 1420   2.230   0.726   1.278
  470SOL     OW 1421   1.926   1.564   1.331
  470SOL    HW1 1422   1.880   1.646   1.297
  470SOL    HW2 1423   2.024   1.583   1.340
  471SOL     OW 1424   2.229   1.100   0.501
  471SOL    HW1 1425   2.222   1.183   0.445
  471SOL    HW2 1426   2.233   1.020   0.441
  472SOL     OW 1427   2.428   0.537   0.865
  472SOL    HW1 1428   2.440   0.603   0.791
  472SOL    HW2 1429   2.474   0.571   0.948
  473SOL     OW 1430   2.216   1.510   1.329
  473SOL    HW1 1431   2.195   1.466   1.242
  473SOL    HW2 1432   2.313   1.536   1.332
  474SOL     OW 1433   2.264   0.751   1.598
  474SOL    HW1 1434   2.332   0.806   1.551
  474SOL    HW2 1435   2.304   0.663   1.625
  475SOL     OW 1436   2.366   0.050   1.740
  475SOL    HW1 1437   2.324  -0.007   1.670
  475SOL    HW2 1438   2.300   0.119   1.772
  476SOL     OW 1439   2.435   0.870   1.029
  476SOL    HW1 1440   2.479   0.959   1.020
  476SOL    HW2 1441   2.372   0.870   1.106
  477SOL     OW 1442   2.169   0.213   1.231
  477SOL    HW1 1443   2.146   0.250   1.321
  477SOL    HW2 1444   2.139   0.118   1.225
  478SOL     OW 1445   1.899   1.310   1.282
  478SOL    HW1 1446   1.952   1.261   1.350
  478SOL    HW2 1447   1.921   1.408   1.287
  479SOL     OW 1448   2.169   0.063   0.618
  479SOL    HW1 1449   2.158   0.157   0.651
  479SOL    HW2 1450   2.164   0.000   0.695
  480SOL     OW 1451   2.212   0.898   1.804
  480SOL    HW1 1452   2.288   0.942   1.852
  480SOL    HW2 1453   2.247   0.851   1.722
  481SOL     OW 1454   2.930   1.333   0.849
  481SOL    HW1 1455   2.937   1.249   0.794
  481SOL    HW2 1456   2.992   1.402   0.813
  482SOL     OW 1457   2.181   0.810   0.949
  482SOL    HW1 1458   2.274   0.846   0.954
  482SOL    HW2 1459   2.175   0.725   1.001
  483SOL     OW 1460   2.201   0.509   1.006
  483SOL    HW1 1461   2.149   0.426   0.989
  483SOL    HW2 1462   2.278   0.514   0.942
  484SOL     OW 1463   1.870   1.326   0.200
  484SOL    HW1 1464   1.777   1.347   0.169
  484SOL    HW2 1465   1.880   1.227   0.213
  485SOL     OW 1466   1.950   1.801   0.927
  485SOL    HW1 1467   1.908   1.715   0.900
  485SOL    HW2 1468   2.044   1.804   0.893
  486SOL     OW 1469   2.366   1.568   0.910
  486SOL    HW1 1470   2.432   1.642   0.919
  486SOL    HW2 1471   2.410   1.489   0.868
  487SOL     OW 1472   1.902   0.544   1.114
  487SOL    HW1 1473   1.987   0.511   1.073
  487SOL    HW2 1474   1.915   0.559   1.212
  488SOL     OW 1475   2.051   0.520   1.722
  488SOL    HW1 1476   2.110   0.480   1.652
  488SOL    HW2 1477   1.993   0.591   1.681
  489SOL     OW 1478   2.677   0.572   0.325
  489SOL    HW1 1479   2.684   0.483   0.279
  489SOL    HW2 1480   2.583   0.606   0.317
  490SOL     OW 1481   2.114   1.564   1.744
  490SOL    HW1 1482   2.084   1.621   1.820
  490SOL    HW2 1483   2.107   1.467   1.770
  491SOL     OW 1484   2.533   0.464   1.269
  491SOL    HW1 1485   2.499   0.375   1.239
  491SOL    HW2 1486   2.559   0.518   1.189
  492SOL     OW 1487   2.335   0.500   0.191
  492SOL    HW1 1488   2.396   0.580   0.195
  492SOL    HW2 1489   2.240   0.531   0.198
  493SOL     OW 1490   2.021   1.137   1.466
  493SOL    HW1 1491   2.043   1.076   1.542
  493SOL    HW2 1492   2.031   1.088   1.380
  494SOL     OW 1493   1.945   1.258   1.022
  494SOL    HW1 1494   1.940   1.257   1.122
  494SOL    HW2 1495   1.862   1.217   0.984
  495SOL     OW 1496   2.550   1.662   1.716
  495SOL    HW1 1497   2.494   1.743   1.725
  495SOL    HW2 1498   2.602   1.666   1.630
  496SOL     OW 1499   1.992   1.794   1.851
  496SOL    HW1 1500   1.951   1.720   1.904
  496SOL    HW2 1501   2.056   1.845   1.909
  497SOL     OW 1502   2.125   0.326   0.720
  497SOL    HW1 1503   2.046   0.377   0.686
  497SOL    HW2 1504   2.116   0.311   0.818
  498SOL     OW 1505   2.234   1.288   1.490
  498SOL    HW1 1506   2.221   1.381   1.456
  498SOL    HW2 1507   2.150   1.236   1.477
  499SOL     OW 1508   2.901   1.098   0.696
  499SOL    HW1 1509   2.831   1.051   0.750
  499SOL    HW2 1510   2.960   1.030   0.653
  500SOL     OW 1511   2.452   1.487   0.491
  500SOL    HW1 1512   2.494   1.429   0.421
  500SOL    HW2 1513   2.408   1.566   0.447
  501SOL     OW 1514   2.117   1.348   0.290
  501SOL    HW1 1515   2.021   1.349   0.263
  501SOL    HW2 1516   2.129   1.401   0.374
  502SOL     OW 1517   1.967   1.013   1.726
  502SOL    HW1 1518   1.890   0.980   1.780
  502SOL    HW2 1519   2.052   0.983   1.768
  503SOL     OW 1520   2.534   0.203   1.489
  503SOL    HW1 1521   2.624   0.187   1.449
  503SOL    HW2 1522   2.542   0.208   1.588
  504SOL     OW 1523   1.937   0.345   0.033
  504SOL    HW1 1524   1.845   0.317   0.004
  504SOL    HW2 1525   1.968   0.422  -0.023
  505SOL     OW 1526   1.934   0.166   0.318
  505SOL    HW1 1527   1.917   0.249   0.264
  505SOL    HW2 1528   2.024   0.129   0.296
  506SOL     OW 1529   2.475   0.842   1.431
  506SOL    HW1 1530   2.531   0.923   1.414
  506SOL    HW2 1531   2.534   0.762   1.434
  507SOL     OW 1532   2.578   0.565   1.708
  507SOL    HW1 1533   2.597   0.630   1.782
  507SOL    HW2 1534   2.638   0.485   1.717
  508SOL     OW 1535   2.252   1.741   1.560
  508SOL    HW1 1536   2.161   1.782   1.558
  508SOL    HW2 1537   2.245   1.647   1.592
  509SOL     OW 1538   2.456   0.745   0.652
  509SOL    HW1 1539   2.506   0.830   0.633
  509SOL    HW2 1540   2.368   0.747   0.604
  510SOL     OW 1541   2.083   1.314   1.844
  510SOL    HW1 1542   2.018   1.241   1.823
  510SOL    HW2 1543   2.087   1.328   1.942
  511SOL     OW 1544   1.941   1.240   0.653
  511SOL    HW1 1545   1.940   1.193   0.741
  511SOL    HW2 1546   2.023   1.212   0.602
  512SOL     OW 1547   2.534   1.391   1.624
  512SOL    HW1 1548   2.456   1.341   1.662
  512SOL    HW2 1549   2.531   1.486   1.655
  513SOL     OW 1550   2.290   0.424   0.520
  513SOL    HW1 1551   2.320   0.352   0.458
  513SOL    HW2 1552   2.251   0.384   0.603
  514SOL     OW 1553   2.179   0.547   1.280
  514SOL    HW1 1554   2.217   0.488   1.352
  514SOL    HW2 1555   2.219   0.521   1.192
  515SOL     OW 1556   2.674   1.586   0.687
  515SOL    HW1 1557   2.706   1.596   0.593
  515SOL    HW2 1558   2.595   1.524   0.689
  516SOL     OW 1559   2.480   1.567   1.284
  516SOL    HW1 1560   2.475   1.649   1.341
  516SOL    HW2 1561   2.569   1.564   1.239
  517SOL     OW 1562   1.901   1.077   0.300
  517SOL    HW1 1563   2.000   1.066   0.291
  517SOL    HW2 1564   1.861   0.991   0.332
  518SOL     OW 1565   2.092   0.628   1.975
  518SOL    HW1 1566   1.999   0.626   2.012
  518SOL    HW2 1567   2.093   0.589   1.883
  519SOL     OW 1568   1.881   0.368   2.509
  519SOL    HW1 1569   1.799   0.411   2.548
  519SOL    HW2 1570   1.853   0.295   2.446
  520SOL     OW 1571   2.547   1.012   2.527
  520SOL    HW1 1572   2.616   0.996   2.597
  520SOL    HW2 1573   2.474   1.069   2.565
  521SOL     OW 1574   2.093   1.713   2.345
  521SOL    HW1 1575   2.127   1.790   2.399
  521SOL    HW2 1576   2.137   1.713   2.255
  522SOL     OW 1577   2.092   1.434   2.400
  522SOL    HW1 1578   2.066   1.530   2.400
  522SOL    HW2 1579   2.021   1.380   2.445
  523SOL     OW 1580   2.468   0.964   1.985
  523SOL    HW1 1581   2.475   1.048   1.931
  523SOL    HW2 1582   2.514   0.977   2.073
  524SOL     OW 1583   1.984   0.643   2.425
  524SOL    HW1 1584   1.939   0.555   2.442
  524SOL    HW2 1585   1.983   0.697   2.509
  525SOL     OW 1586   1.889   1.596   1.979
  525SOL    HW1 1587   1.870   1.500   2.000
  525SOL    HW2 1588   1.856   1.654   2.054
  526SOL     OW 1589   2.475   1.365   2.588
  526SOL    HW1 1590   2.426   1.278   2.597
  526SOL    HW2 1591   2.452   1.408   2.501
  527SOL     OW 1592   2.671   0.004   2.364
  527SOL    HW1 1593   2.711   0.095   2.355
  527SOL    HW2 1594   2.571   0.012   2.370
  528SOL     OW 1595   2.460   0.729   2.132
  528SOL    HW1 1596   2.484   0.798   2.064
  528SOL    HW2 1597   2.382   0.762   2.186
  529SOL     OW 1598   1.938   0.811   2.651
  529SOL    HW1 1599   2.037   0.799   2.660
  529SOL    HW2 1600   1.914   0.906   2.672
  530SOL     OW 1601   2.213   1.801   2.715
  530SOL    HW1 1602   2.263   1.715   2.721
  530SOL    HW2 1603   2.278   1.878   2.712
  531SOL     OW 1604   2.183   0.943   2.104
  531SOL    HW1 1605   2.265   0.982   2.062
  531SOL    HW2 1606   2.156   0.861   2.055
  532SOL     OW 1607   2.326   1.743   2.185
  532SOL    HW1 1608   2.359   1.782   2.271
  532SOL    HW2 1609   2.402   1.736   2.120
  533SOL     OW 1610   2.244   0.700   2.342
  533SOL    HW1 1611   2.289   0.610   2.339
  533SOL    HW2 1612   2.150   0.689   2.375
  534SOL     OW 1613   2.476   0.122   1.979
  534SOL    HW1 1614   2.574   0.100   1.986
  534SOL    HW2 1615   2.445   0.105   1.886
  535SOL     OW 1616   2.401   0.064   2.374
  535SOL    HW1 1617   2.320   0.065   2.432
  535SOL    HW2 1618   2.404   0.147   2.319
  536SOL     OW 1619   2.159   0.035   2.033
  536SOL    HW1 1620   2.208   0.119   2.012
  536SOL    HW2 1621   2.221  -0.030   2.078
  537SOL     OW 1622   2.321   1.152   2.603
  537SOL    HW1 1623   2.250   1.125   2.668
  537SOL    HW2 1624   2.295   1.124   2.510
  538SOL     OW 1625   2.350   1.385   2.036
  538SOL    HW1 1626   2.263   1.370   2.083
  538SOL    HW2 1627   2.333   1.411   1.941
  539SOL     OW 1628   2.389   0.256   2.190
  539SOL    HW1 1629   2.416   0.197   2.115
  539SOL    HW2 1630   2.389   0.351   2.159
  540SOL     OW 1631   2.229   1.100   2.363
  540SOL    HW1 1632   2.222   1.183   2.307
  540SOL    HW2 1633   2.233   1.020   2.303
  541SOL     OW 1634   2.169   0.063   2.480
  541SOL    HW1 1635   2.158   0.157   2.513
  541SOL    HW2 1636   2.164   0.000   2.557
  542SOL     OW 1637   2.930   1.333   2.711
  542SOL    HW1 1638   2.937   1.249   2.656
  542SOL    HW2 1639   2.992   1.402   2.675
  543SOL     OW 1640   1.870   1.326   2.062
  543SOL    HW1 1641   1.777   1.347   2.031
  543SOL    HW2 1642   1.880   1.227   2.075
  544SOL     OW 1643   2.677   0.572   2.187
  544SOL    HW1 1644   2.684   0.483   2.141
  544SOL    HW2 1645   2.583   0.606   2.179
  545SOL     OW 1646   2.335   0.500   2.053
  545SOL    HW1 1647   2.396   0.580   2.057
  545SOL    HW2 1648   2.240   0.531   2.060
  546SOL     OW 1649   2.901   1.098   2.558
  546SOL    HW1 1650   2.831   1.051   2.612
  546SOL    HW2 1651   2.960   1.030   2.515
  547SOL     OW 1652   2.452   1.487   2.353
  547SOL    HW1 1653   2.494   1.429   2.283
  547SOL    HW2 1654   2.408   1.566   2.309
  548SOL     OW 1655   2.117   1.348   2.152
  548SOL    HW1 1656   2.021   1.349   2.125
  548SOL    HW2 1657   2.129   1.401   2.236
  549SOL     OW 1658   1.937   0.345   1.895
  549SOL    HW1 1659   1.845   0.317   1.866
  549SOL    HW2 1660   1.968   0.422   1.839
  550SOL     OW 1661   1.934   0.166   2.180
  550SOL    HW1 1662   1.917   0.249   2.126
  550SOL    HW2 1663   2.024   0.129   2.158
  551SOL     OW 1664   2.456   0.745   2.514
  551SOL    HW1 1665   2.506   0.830   2.495
  551SOL    HW2 1666   2.368   0.747   2.466
  552SOL     OW 1667   2.523   1.790   2.815
  552SOL    HW1 1668   2.477   1.878   2.802
  552SOL    HW2 1669   2.622   1.802   2.808
  553SOL     OW 1670   1.941   1.240   2.515
  553SOL    HW1 1671   1.940   1.193   2.603
  553SOL    HW2 1672   2.023   1.212   2.464
  554SOL     OW 1673   2.290   0.424   2.382
  554SOL    HW1 1674   2.320   0.352   2.320
  554SOL    HW2 1675   2.251   0.384   2.465
  555SOL     OW 1676   2.674   1.586   2.549
  555SOL    HW1 1677   2.706   1.596   2.455
  555SOL    HW2 1678   2.595   1.524   2.551
  556SOL     OW 1679   1.901   1.077   2.162
  556SOL    HW1 1680   2.000   1.066   2.153
  556SOL    HW2 1681   1.861   0.991   2.194
  557SOL     OW 1682   2.092   2.490   0.113
  557SOL    HW1 1683   1.999   2.488   0.150
  557SOL    HW2 1684   2.093   2.451   0.021
  558SOL     OW 1685   2.087   2.137   0.996
  558SOL    HW1 1686   2.122   2.120   1.088
  558SOL    HW2 1687   1.999   2.092   0.984
  559SOL     OW 1688   1.881   2.230   0.647
  559SOL    HW1 1689   1.799   2.273   0.686
  559SOL    HW2 1690   1.853   2.157   0.584
  560SOL     OW 1691   2.712   2.660   1.823
  560SOL    HW1 1692   2.708   2.736   1.888
  560SOL    HW2 1693   2.734   2.696   1.732
  561SOL     OW 1694   2.547   2.874   0.665
  561SOL    HW1 1695   2.616   2.858   0.735
  561SOL    HW2 1696   2.474   2.931   0.703
  562SOL     OW 1697   2.300   2.254   1.499
  562SOL    HW1 1698   2.382   2.198   1.508
  562SOL    HW2 1699   2.219   2.196   1.503
  563SOL     OW 1700   1.984   2.505   0.563
  563SOL    HW1 1701   1.939   2.417   0.580
  563SOL    HW2 1702   1.983   2.559   0.647
  564SOL     OW 1703   1.975   2.599   1.597
  564SOL    HW1 1704   2.063   2.586   1.642
  564SOL    HW2 1705   1.962   2.696   1.575
  565SOL     OW 1706   2.671   1.866   0.502
  565SOL    HW1 1707   2.711   1.957   0.493
  565SOL    HW2 1708   2.571   1.874   0.508
  566SOL     OW 1709   2.179   2.113   1.801
  566SOL    HW1 1710   2.250   2.184   1.807
  566SOL    HW2 1711   2.091   2.152   1.829
  567SOL     OW 1712   2.460   2.591   0.270
  567SOL    HW1 1713   2.484   2.660   0.202
  567SOL    HW2 1714   2.382   2.624   0.324
  568SOL     OW 1715   2.412   2.058   0.885
  568SOL    HW1 1716   2.407   2.053   0.985
  568SOL    HW2 1717   2.414   2.154   0.856
  569SOL     OW 1718   2.064   2.147   1.498
  569SOL    HW1 1719   1.984   2.207   1.485
  569SOL    HW2 1720   2.054   2.098   1.584
  570SOL     OW 1721   2.244   2.562   0.480
  570SOL    HW1 1722   2.289   2.472   0.477
  570SOL    HW2 1723   2.150   2.551   0.513
  571SOL     OW 1724   2.784   2.365   0.899
  571SOL    HW1 1725   2.759   2.356   0.803
  571SOL    HW2 1726   2.832   2.283   0.930
  572SOL     OW 1727   2.401   1.926   0.512
  572SOL    HW1 1728   2.320   1.927   0.570
  572SOL    HW2 1729   2.404   2.009   0.457
  573SOL     OW 1730   1.940   2.418   1.386
  573SOL    HW1 1731   2.032   2.417   1.345
  573SOL    HW2 1732   1.934   2.492   1.453
  574SOL     OW 1733   2.423   2.084   1.147
  574SOL    HW1 1734   2.461   2.000   1.184
  574SOL    HW2 1735   2.335   2.103   1.191
  575SOL     OW 1736   2.389   2.118   0.328
  575SOL    HW1 1737   2.416   2.059   0.253
  575SOL    HW2 1738   2.389   2.213   0.297
  576SOL     OW 1739   2.272   2.675   1.251
  576SOL    HW1 1740   2.358   2.687   1.301
  576SOL    HW2 1741   2.230   2.588   1.278
  577SOL     OW 1742   2.428   2.399   0.865
  577SOL    HW1 1743   2.440   2.465   0.791
  577SOL    HW2 1744   2.474   2.433   0.948
  578SOL     OW 1745   2.366   1.912   1.740
  578SOL    HW1 1746   2.324   1.855   1.670
  578SOL    HW2 1747   2.300   1.981   1.772
  579SOL     OW 1748   2.169   2.075   1.231
  579SOL    HW1 1749   2.146   2.112   1.321
  579SOL    HW2 1750   2.139   1.980   1.225
  580SOL     OW 1751   2.169   1.925   0.618
  580SOL    HW1 1752   2.158   2.019   0.651
  580SOL    HW2 1753   2.164   1.862   0.695
  581SOL     OW 1754   2.181   2.672   0.949
  581SOL    HW1 1755   2.274   2.708   0.954
  581SOL    HW2 1756   2.175   2.587   1.001
  582SOL     OW 1757   2.201   2.371   1.006
  582SOL    HW1 1758   2.149   2.288   0.989
  582SOL    HW2 1759   2.278   2.376   0.942
  583SOL     OW 1760   2.864   2.658   1.238
  583SOL    HW1 1761   2.905   2.626   1.324
  583SOL    HW2 1762   2.768   2.631   1.235
  584SOL     OW 1763   1.902   2.406   1.114
  584SOL    HW1 1764   1.987   2.373   1.073
  584SOL    HW2 1765   1.915   2.421   1.212
  585SOL     OW 1766   2.051   2.382   1.722
  585SOL    HW1 1767   2.110   2.342   1.652
  585SOL    HW2 1768   1.993   2.453   1.681
  586SOL     OW 1769   2.677   2.434   0.325
  586SOL    HW1 1770   2.684   2.345   0.279
  586SOL    HW2 1771   2.583   2.468   0.317
  587SOL     OW 1772   2.533   2.326   1.269
  587SOL    HW1 1773   2.499   2.237   1.239
  587SOL    HW2 1774   2.559   2.380   1.189
  588SOL     OW 1775   2.335   2.362   0.191
  588SOL    HW1 1776   2.396   2.442   0.195
  588SOL    HW2 1777   2.240   2.393   0.198
  589SOL     OW 1778   2.125   2.188   0.720
  589SOL    HW1 1779   2.046   2.239   0.686
  589SOL    HW2 1780   2.116   2.173   0.818
  590SOL     OW 1781   2.534   2.065   1.489
  590SOL    HW1 1782   2.624   2.049   1.449
  590SOL    HW2 1783   2.542   2.070   1.588
  591SOL     OW 1784   1.937   2.207   0.033
  591SOL    HW1 1785   1.845   2.179   0.004
  591SOL    HW2 1786   1.968   2.284  -0.023
  592SOL     OW 1787   1.934   2.028   0.318
  592SOL    HW1 1788   1.917   2.111   0.264
  592SOL    HW2 1789   2.024   1.991   0.296
  593SOL     OW 1790   2.578   2.427   1.708
  593SOL    HW1 1791   2.597   2.492   1.782
  593SOL    HW2 1792   2.638   2.347   1.717
  594SOL     OW 1793   2.456   2.607   0.652
  594SOL    HW1 1794   2.506   2.692   0.633
  594SOL    HW2 1795   2.368   2.609   0.604
  595SOL     OW 1796   2.290   2.286   0.520
  595SOL    HW1 1797   2.320   2.214   0.458
  595SOL    HW2 1798   2.251   2.246   0.603
  596SOL     OW 1799   2.179   2.409   1.280
  596SOL    HW1 1800   2.217   2.350   1.352
  596SOL    HW2 1801   2.219   2.383   1.192
  597SOL     OW 1802   2.092   2.490   1.975
  597SOL    HW1 1803   1.999   2.488   2.012
  597SOL    HW2 1804   2.093   2.451   1.883
  598SOL     OW 1805   1.881   2.230   2.509
  598SOL    HW1 1806   1.799   2.273   2.548
  598SOL    HW2 1807   1.853   2.157   2.446
  599SOL     OW 1808   2.547   2.874   2.527
  599SOL    HW1 1809   2.616   2.858   2.597
  599SOL    HW2 1810   2.474   2.931   2.565
  600SOL     OW 1811   1.984   2.505   2.425
  600SOL    HW1 1812   1.939   2.417   2.442
  600SOL    HW2 1813   1.983   2.559   2.509
  601SOL     OW 1814   2.671   1.866   2.364
  601SOL    HW1 1815   2.711   1.957   2.355
  601SOL    HW2 1816   2.571   1.874   2.370
  602SOL     OW 1817   2.460   2.591   2.132
  602SOL    HW1 1818   2.484   2.660   2.064
  602SOL    HW2 1819   2.382   2.624   2.186
  603SOL     OW 1820   1.938   2.673   2.651
  603SOL    HW1 1821   2.037   2.661   2.660
  603SOL    HW2 1822   1.914   2.768   2.672
  604SOL     OW 1823   2.244   2.562   2.342
  604SOL    HW1 1824   2.289   2.472   2.339
  604SOL    HW2 1825   2.150   2.551   2.375
  605SOL     OW 1826   2.476   1.984   1.979
  605SOL    HW1 1827   2.574   1.962   1.986
  605SOL    HW2 1828   2.445   1.967   1.886
  606SOL     OW 1829   2.401   1.926   2.374
  606SOL    HW1 1830   2.320   1.927   2.432
  606SOL    HW2 1831   2.404   2.009   2.319
  607SOL     OW 1832   2.159   1.897   2.033
  607SOL    HW1 1833   2.208   1.981   2.012
  607SOL    HW2 1834   2.221   1.832   2.078
  608SOL     OW 1835   2.389   2.118   2.190
  608SOL    HW1 1836   2.416   2.059   2.115
  608SOL    HW2 1837   2.389   2.213   2.159
  609SOL     OW 1838   2.169   1.925   2.480
  609SOL    HW1 1839   2.158   2.019   2.513
  609SOL    HW2 1840   2.164   1.862   2.557
  610SOL     OW 1841   2.677   2.434   2.187
  610SOL    HW1 1842   2.684   2.345   2.141
  610SOL    HW2 1843   2.583   2.468   2.179
  611SOL     OW 1844   2.335   2.362   2.053
  611SOL    HW1 1845   2.396   2.442   2.057
  611SOL    HW2 1846   2.240   2.393   2.060
  612SOL     OW 1847   1.937   2.207   1.895
  612SOL    HW1 1848   1.845   2.179   1.866
  612SOL    HW2 1849   1.968   2.284   1.839
  613SOL     OW 1850   1.934   2.028   2.180
  613SOL    HW1 1851   1.917   2.111   2.126
  613SOL    HW2 1852   2.024   1.991   2.158
  614SOL     OW 1853   2.456   2.607   2.514
  614SOL    HW1 1854   2.506   2.692   2.495
  614SOL    HW2 1855   2.368   2.609   2.466
  615SOL     OW 1856   2.290   2.286   2.382
  615SOL    HW1 1857   2.320   2.214   2.320
  615SOL    HW2 1858   2.251   2.246   2.465
   2.67269   2.67269   2.67269
