; mobley_3762186_GMX.itp created by acpype (v: 2023.10.27) on Thu May 14 13:55:33 2026

[ atomtypes ]
;name   bond_type     mass     charge   ptype   sigma         epsilon       Amb
 c3       c3          0.00000  0.00000   A     3.39771e-01   4.51035e-01 ; 1.91  0.1078
 cl       cl          0.00000  0.00000   A     3.46595e-01   1.10374e+00 ; 1.95  0.2638
 h2       h2          0.00000  0.00000   A     2.24382e-01   8.70272e-02 ; 1.26  0.0208

[ moleculetype ]
;name            nrexcl
 mobley_3762186   3

[ atoms ]
;   nr  type  resi  res  atom  cgnr     charge      mass       ; qtot   bond_type
     1   c3     1   MOL    C1    1     0.122400     12.01000 ; qtot 0.122
     2   cl     1   MOL   CL1    2    -0.150900     35.45000 ; qtot -0.028
     3   cl     1   MOL   CL2    3    -0.150900     35.45000 ; qtot -0.179
     4   h2     1   MOL    H1    4     0.089700      1.00800 ; qtot -0.090
     5   h2     1   MOL    H2    5     0.089700      1.00800 ; qtot 0.000

[ bonds ]
;   ai     aj funct   r             k
     1      2   1    1.8092e-01    1.3724e+05 ;     C1 - CL1   
     1      3   1    1.8092e-01    1.3724e+05 ;     C1 - CL2   
     1      4   1    1.0950e-01    2.9039e+05 ;     C1 - H1    
     1      5   1    1.0950e-01    2.9039e+05 ;     C1 - H2    

[ angles ]
;   ai     aj     ak    funct   theta         cth
     2      1      3      1    1.0934e+02    5.8225e+02 ;    CL1 - C1     - CL2   
     2      1      4      1    1.0706e+02    3.6133e+02 ;    CL1 - C1     - H1    
     2      1      5      1    1.0706e+02    3.6133e+02 ;    CL1 - C1     - H2    
     3      1      4      1    1.0706e+02    3.6133e+02 ;    CL2 - C1     - H1    
     3      1      5      1    1.0706e+02    3.6133e+02 ;    CL2 - C1     - H2    
     4      1      5      1    1.0951e+02    2.9748e+02 ;     H1 - C1     - H2    
