; mobley_349850_GMX.itp created by acpype (v: 2023.10.27) on Thu May 14 13:44:22 2026

[ atomtypes ]
;name   bond_type     mass     charge   ptype   sigma         epsilon       Amb
 ca       ca          0.00000  0.00000   A     3.31521e-01   4.13379e-01 ; 1.86  0.0988
 c        c           0.00000  0.00000   A     3.31521e-01   4.13379e-01 ; 1.86  0.0988
 c3       c3          0.00000  0.00000   A     3.39771e-01   4.51035e-01 ; 1.91  0.1078
 o        o           0.00000  0.00000   A     3.04812e-01   6.12119e-01 ; 1.71  0.1463
 ha       ha          0.00000  0.00000   A     2.62548e-01   6.73624e-02 ; 1.47  0.0161
 hc       hc          0.00000  0.00000   A     2.60018e-01   8.70272e-02 ; 1.46  0.0208

[ moleculetype ]
;name            nrexcl
 mobley_349850    3

[ atoms ]
;   nr  type  resi  res  atom  cgnr     charge      mass       ; qtot   bond_type
     1   ca     1   MOL    C1    1    -0.078000     12.01000 ; qtot -0.078
     2   ca     1   MOL    C2    2    -0.078000     12.01000 ; qtot -0.156
     3   ca     1   MOL    C3    3    -0.147500     12.01000 ; qtot -0.303
     4   ca     1   MOL    C4    4    -0.147500     12.01000 ; qtot -0.451
     5   ca     1   MOL    C5    5    -0.183600     12.01000 ; qtot -0.635
     6   ca     1   MOL    C6    6    -0.045300     12.01000 ; qtot -0.680
     7    c     1   MOL    C7    7     0.579700     12.01000 ; qtot -0.100
     8   c3     1   MOL    C8    8    -0.060800     12.01000 ; qtot -0.161
     9   c3     1   MOL    C9    9    -0.198100     12.01000 ; qtot -0.359
    10    o     1   MOL    O1   10    -0.539100     16.00000 ; qtot -0.898
    11   ha     1   MOL    H1   11     0.144500      1.00800 ; qtot -0.754
    12   ha     1   MOL    H2   12     0.144500      1.00800 ; qtot -0.609
    13   ha     1   MOL    H3   13     0.136000      1.00800 ; qtot -0.473
    14   ha     1   MOL    H4   14     0.136000      1.00800 ; qtot -0.337
    15   hc     1   MOL    H5   15     0.048700      1.00800 ; qtot -0.289
    16   hc     1   MOL    H6   16     0.048700      1.00800 ; qtot -0.240
    17   hc     1   MOL    H7   17     0.048700      1.00800 ; qtot -0.191
    18   hc     1   MOL    H8   18     0.063700      1.00800 ; qtot -0.127
    19   hc     1   MOL    H9   19     0.063700      1.00800 ; qtot -0.064
    20   hc     1   MOL   H10   20     0.063700      1.00800 ; qtot -0.000

[ bonds ]
;   ai     aj funct   r             k
     1      3   1    1.3986e-01    2.9644e+05 ;     C1 - C3    
     1      5   1    1.3986e-01    2.9644e+05 ;     C1 - C5    
     1     11   1    1.0860e-01    3.0183e+05 ;     C1 - H1    
     2      4   1    1.3986e-01    2.9644e+05 ;     C2 - C4    
     2      5   1    1.3986e-01    2.9644e+05 ;     C2 - C5    
     2     12   1    1.0860e-01    3.0183e+05 ;     C2 - H2    
     3      6   1    1.3986e-01    2.9644e+05 ;     C3 - C6    
     3     13   1    1.0860e-01    3.0183e+05 ;     C3 - H3    
     4      6   1    1.3986e-01    2.9644e+05 ;     C4 - C6    
     4     14   1    1.0860e-01    3.0183e+05 ;     C4 - H4    
     5      7   1    1.4907e-01    2.1994e+05 ;     C5 - C7    
     6      8   1    1.5147e-01    2.0410e+05 ;     C6 - C8    
     7      9   1    1.5270e-01    1.9652e+05 ;     C7 - C9    
     7     10   1    1.2190e-01    4.9421e+05 ;     C7 - O1    
     8     15   1    1.0962e-01    2.8891e+05 ;     C8 - H5    
     8     16   1    1.0962e-01    2.8891e+05 ;     C8 - H6    
     8     17   1    1.0962e-01    2.8891e+05 ;     C8 - H7    
     9     18   1    1.0962e-01    2.8891e+05 ;     C9 - H8    
     9     19   1    1.0962e-01    2.8891e+05 ;     C9 - H9    
     9     20   1    1.0962e-01    2.8891e+05 ;     C9 - H10   

[ pairs ]
;   ai     aj    funct
     1      4      1 ;     C1 - C4    
     1      8      1 ;     C1 - C8    
     1      9      1 ;     C1 - C9    
     1     10      1 ;     C1 - O1    
     1     12      1 ;     C1 - H2    
     2      3      1 ;     C2 - C3    
     2      8      1 ;     C2 - C8    
     2      9      1 ;     C2 - C9    
     2     10      1 ;     C2 - O1    
     3      7      1 ;     C3 - C7    
     3     14      1 ;     C3 - H4    
     3     15      1 ;     C3 - H5    
     3     16      1 ;     C3 - H6    
     3     17      1 ;     C3 - H7    
     4      7      1 ;     C4 - C7    
     4     13      1 ;     C4 - H3    
     4     15      1 ;     C4 - H5    
     4     16      1 ;     C4 - H6    
     4     17      1 ;     C4 - H7    
     5      6      1 ;     C5 - C6    
     5     13      1 ;     C5 - H3    
     5     14      1 ;     C5 - H4    
     5     18      1 ;     C5 - H8    
     5     19      1 ;     C5 - H9    
     5     20      1 ;     C5 - H10   
     6     12      1 ;     C6 - H2    
     7     12      1 ;     C7 - H2    
     8     13      1 ;     C8 - H3    
     8     14      1 ;     C8 - H4    
    10     18      1 ;     O1 - H8    
    10     19      1 ;     O1 - H9    
    10     20      1 ;     O1 - H10   
    11      2      1 ;     H1 - C2    
    11      6      1 ;     H1 - C6    
    11      7      1 ;     H1 - C7    
    11     13      1 ;     H1 - H3    
    12     14      1 ;     H2 - H4    

[ angles ]
;   ai     aj     ak    funct   theta         cth
     1      3      6      1    1.2002e+02    5.3279e+02 ;     C1 - C3     - C6    
     1      3     13      1    1.1988e+02    3.7572e+02 ;     C1 - C3     - H3    
     1      5      2      1    1.2002e+02    5.3279e+02 ;     C1 - C5     - C2    
     1      5      7      1    1.2033e+02    5.1413e+02 ;     C1 - C5     - C7    
     2      4      6      1    1.2002e+02    5.3279e+02 ;     C2 - C4     - C6    
     2      4     14      1    1.1988e+02    3.7572e+02 ;     C2 - C4     - H4    
     2      5      7      1    1.2033e+02    5.1413e+02 ;     C2 - C5     - C7    
     3      1      5      1    1.2002e+02    5.3279e+02 ;     C3 - C1     - C5    
     3      1     11      1    1.1988e+02    3.7572e+02 ;     C3 - C1     - H1    
     3      6      4      1    1.2002e+02    5.3279e+02 ;     C3 - C6     - C4    
     3      6      8      1    1.2083e+02    5.0827e+02 ;     C3 - C6     - C8    
     4      2      5      1    1.2002e+02    5.3279e+02 ;     C4 - C2     - C5    
     4      2     12      1    1.1988e+02    3.7572e+02 ;     C4 - C2     - H2    
     4      6      8      1    1.2083e+02    5.0827e+02 ;     C4 - C6     - C8    
     5      1     11      1    1.1988e+02    3.7572e+02 ;     C5 - C1     - H1    
     5      2     12      1    1.1988e+02    3.7572e+02 ;     C5 - C2     - H2    
     5      7      9      1    1.1899e+02    4.9589e+02 ;     C5 - C7     - C9    
     5      7     10      1    1.2260e+02    6.5237e+02 ;     C5 - C7     - O1    
     6      3     13      1    1.1988e+02    3.7572e+02 ;     C6 - C3     - H3    
     6      4     14      1    1.1988e+02    3.7572e+02 ;     C6 - C4     - H4    
     6      8     15      1    1.1063e+02    3.6493e+02 ;     C6 - C8     - H5    
     6      8     16      1    1.1063e+02    3.6493e+02 ;     C6 - C8     - H6    
     6      8     17      1    1.1063e+02    3.6493e+02 ;     C6 - C8     - H7    
     7      9     18      1    1.0895e+02    3.6510e+02 ;     C7 - C9     - H8    
     7      9     19      1    1.0895e+02    3.6510e+02 ;     C7 - C9     - H9    
     7      9     20      1    1.0895e+02    3.6510e+02 ;     C7 - C9     - H10   
     9      7     10      1    1.2290e+02    6.3973e+02 ;     C9 - C7     - O1    
    15      8     16      1    1.0773e+02    2.9957e+02 ;     H5 - C8     - H6    
    15      8     17      1    1.0773e+02    2.9957e+02 ;     H5 - C8     - H7    
    16      8     17      1    1.0773e+02    2.9957e+02 ;     H6 - C8     - H7    
    18      9     19      1    1.0773e+02    2.9957e+02 ;     H8 - C9     - H9    
    18      9     20      1    1.0773e+02    2.9957e+02 ;     H8 - C9     - H10   
    19      9     20      1    1.0773e+02    2.9957e+02 ;     H9 - C9     - H10   

[ dihedrals ] ; propers
; for gromacs 4.5 or higher, using funct 9
;    i      j      k      l   func   phase     kd      pn
     1      3      6      4      9   180.00  15.16700   2 ;     C1-    C3-    C6-    C4
     1      3      6      8      9   180.00  15.16700   2 ;     C1-    C3-    C6-    C8
     1      5      2      4      9   180.00  15.16700   2 ;     C1-    C5-    C2-    C4
     1      5      2     12      9   180.00  15.16700   2 ;     C1-    C5-    C2-    H2
     1      5      7      9      9   180.00   4.40157   2 ;     C1-    C5-    C7-    C9
     1      5      7     10      9   180.00   2.42672   2 ;     C1-    C5-    C7-    O1
     2      4      6      3      9   180.00  15.16700   2 ;     C2-    C4-    C6-    C3
     2      4      6      8      9   180.00  15.16700   2 ;     C2-    C4-    C6-    C8
     2      5      7      9      9   180.00   4.40157   2 ;     C2-    C5-    C7-    C9
     2      5      7     10      9   180.00   2.42672   2 ;     C2-    C5-    C7-    O1
     3      1      5      2      9   180.00  15.16700   2 ;     C3-    C1-    C5-    C2
     3      1      5      7      9   180.00  15.16700   2 ;     C3-    C1-    C5-    C7
     3      6      4     14      9   180.00  15.16700   2 ;     C3-    C6-    C4-    H4
     3      6      8     15      9     0.00   0.00000   0 ;     C3-    C6-    C8-    H5
     3      6      8     16      9     0.00   0.00000   0 ;     C3-    C6-    C8-    H6
     3      6      8     17      9     0.00   0.00000   0 ;     C3-    C6-    C8-    H7
     4      2      5      7      9   180.00  15.16700   2 ;     C4-    C2-    C5-    C7
     4      6      3     13      9   180.00  15.16700   2 ;     C4-    C6-    C3-    H3
     4      6      8     15      9     0.00   0.00000   0 ;     C4-    C6-    C8-    H5
     4      6      8     16      9     0.00   0.00000   0 ;     C4-    C6-    C8-    H6
     4      6      8     17      9     0.00   0.00000   0 ;     C4-    C6-    C8-    H7
     5      1      3      6      9   180.00  15.16700   2 ;     C5-    C1-    C3-    C6
     5      1      3     13      9   180.00  15.16700   2 ;     C5-    C1-    C3-    H3
     5      2      4      6      9   180.00  15.16700   2 ;     C5-    C2-    C4-    C6
     5      2      4     14      9   180.00  15.16700   2 ;     C5-    C2-    C4-    H4
     5      7      9     18      9   180.00   0.00000   2 ;     C5-    C7-    C9-    H8
     5      7      9     19      9   180.00   0.00000   2 ;     C5-    C7-    C9-    H9
     5      7      9     20      9   180.00   0.00000   2 ;     C5-    C7-    C9-   H10
     6      4      2     12      9   180.00  15.16700   2 ;     C6-    C4-    C2-    H2
     7      5      2     12      9   180.00  15.16700   2 ;     C7-    C5-    C2-    H2
     8      6      3     13      9   180.00  15.16700   2 ;     C8-    C6-    C3-    H3
     8      6      4     14      9   180.00  15.16700   2 ;     C8-    C6-    C4-    H4
    10      7      9     18      9     0.00  16.86152   1 ;     O1-    C7-    C9-    H8
    10      7      9     18      9   180.00  15.31344   2 ;     O1-    C7-    C9-    H8
    10      7      9     19      9     0.00  16.86152   1 ;     O1-    C7-    C9-    H9
    10      7      9     19      9   180.00  15.31344   2 ;     O1-    C7-    C9-    H9
    10      7      9     20      9     0.00  16.86152   1 ;     O1-    C7-    C9-   H10
    10      7      9     20      9   180.00  15.31344   2 ;     O1-    C7-    C9-   H10
    11      1      3      6      9   180.00  15.16700   2 ;     H1-    C1-    C3-    C6
    11      1      3     13      9   180.00  15.16700   2 ;     H1-    C1-    C3-    H3
    11      1      5      2      9   180.00  15.16700   2 ;     H1-    C1-    C5-    C2
    11      1      5      7      9   180.00  15.16700   2 ;     H1-    C1-    C5-    C7
    12      2      4     14      9   180.00  15.16700   2 ;     H2-    C2-    C4-    H4

[ dihedrals ] ; impropers
; treated as propers in GROMACS to use correct AMBER analytical function
;    i      j      k      l   func   phase     kd      pn
     1      6      3     13      4   180.00   4.60240   2 ;     C1-    C6-    C3-    H3
     2      6      4     14      4   180.00   4.60240   2 ;     C2-    C6-    C4-    H4
     3      4      6      8      4   180.00   4.60240   2 ;     C3-    C4-    C6-    C8
     4      5      2     12      4   180.00   4.60240   2 ;     C4-    C5-    C2-    H2
     7      1      5      2      4   180.00   4.60240   2 ;     C7-    C1-    C5-    C2
     9      5      7     10      4   180.00  43.93200   2 ;     C9-    C5-    C7-    O1
    11      1      5      3      4   180.00   4.60240   2 ;     H1-    C1-    C5-    C3
