mobley_5263791_GMX.gro created by acpype (v: 2023.10.27) on Thu May 14 13:38:00 2026
 2055
    1MOL     C1    1   1.070   1.448   1.401
    1MOL     C2    2   1.161   1.551   1.380
    1MOL     C3    3   1.431   1.123   1.368
    1MOL     C4    4   1.114   1.315   1.403
    1MOL     C5    5   1.296   1.522   1.361
    1MOL     C6    6   1.296   1.152   1.387
    1MOL     C7    7   1.522   1.226   1.347
    1MOL     C8    8   1.250   1.285   1.385
    1MOL     C9    9   1.342   1.389   1.363
    1MOL    C10   10   1.478   1.358   1.345
    1MOL    C11   11   1.642   1.515   1.452
    1MOL    C12   12   1.581   1.465   1.322
    1MOL     H1   13   0.965   1.470   1.415
    1MOL     H2   14   1.127   1.654   1.378
    1MOL     H3   15   1.465   1.020   1.370
    1MOL     H4   16   1.041   1.236   1.420
    1MOL     H5   17   1.364   1.605   1.345
    1MOL     H6   18   1.226   1.069   1.403
    1MOL     H7   19   1.627   1.202   1.333
    1MOL     H8   20   1.565   1.558   1.517
    1MOL     H9   21   1.717   1.592   1.432
    1MOL    H10   22   1.691   1.433   1.507
    1MOL    H11   23   1.661   1.426   1.257
    1MOL    H12   24   1.537   1.549   1.267
    2SOL     OW   25   0.230   0.628   0.113
    2SOL    HW1   26   0.137   0.626   0.150
    2SOL    HW2   27   0.231   0.589   0.021
    3SOL     OW   28   0.225   0.275   0.996
    3SOL    HW1   29   0.260   0.258   1.088
    3SOL    HW2   30   0.137   0.230   0.984
    4SOL     OW   31   0.019   0.368   0.647
    4SOL    HW1   32  -0.063   0.411   0.686
    4SOL    HW2   33  -0.009   0.295   0.584
    5SOL     OW   34   0.569   1.275   1.165
    5SOL    HW1   35   0.476   1.268   1.128
    5SOL    HW2   36   0.580   1.364   1.209
    6SOL     OW   37   1.555   1.511   0.703
    6SOL    HW1   38   1.498   1.495   0.784
    6SOL    HW2   39   1.496   1.521   0.623
    7SOL     OW   40   1.135   0.703   0.717
    7SOL    HW1   41   1.192   0.781   0.692
    7SOL    HW2   42   1.075   0.729   0.793
    8SOL     OW   43   1.755   0.607   0.231
    8SOL    HW1   44   1.743   0.594   0.132
    8SOL    HW2   45   1.725   0.526   0.280
    9SOL     OW   46   0.768   1.144   1.023
    9SOL    HW1   47   0.690   1.161   1.083
    9SOL    HW2   48   0.802   1.231   0.987
   10SOL     OW   49   0.850   0.798   1.823
   10SOL    HW1   50   0.846   0.874   1.888
   10SOL    HW2   51   0.872   0.834   1.732
   11SOL     OW   52   0.685   1.012   0.665
   11SOL    HW1   53   0.754   0.996   0.735
   11SOL    HW2   54   0.612   1.069   0.703
   12SOL     OW   55   0.686   1.161   1.803
   12SOL    HW1   56   0.746   1.240   1.817
   12SOL    HW2   57   0.600   1.192   1.762
   13SOL     OW   58   0.335   1.435   1.061
   13SOL    HW1   59   0.257   1.404   1.008
   13SOL    HW2   60   0.393   1.493   1.004
   14SOL     OW   61   0.438   0.392   1.499
   14SOL    HW1   62   0.520   0.336   1.508
   14SOL    HW2   63   0.357   0.334   1.503
   15SOL     OW   64   1.603   0.447   0.737
   15SOL    HW1   65   1.529   0.493   0.687
   15SOL    HW2   66   1.654   0.515   0.790
   16SOL     OW   67   0.231   1.713   0.483
   16SOL    HW1   68   0.265   1.790   0.537
   16SOL    HW2   69   0.275   1.713   0.393
   17SOL     OW   70   1.127   1.341   1.690
   17SOL    HW1   71   1.174   1.341   1.778
   17SOL    HW2   72   1.079   1.254   1.679
   18SOL     OW   73   0.230   1.434   0.538
   18SOL    HW1   74   0.204   1.530   0.538
   18SOL    HW2   75   0.159   1.380   0.583
   19SOL     OW   76   0.240   1.091   0.886
   19SOL    HW1   77   0.254   1.007   0.938
   19SOL    HW2   78   0.185   1.155   0.941
   20SOL     OW   79   0.620   1.786   1.439
   20SOL    HW1   80   0.528   1.769   1.474
   20SOL    HW2   81   0.648   1.878   1.465
   21SOL     OW   82   0.606   0.964   0.123
   21SOL    HW1   83   0.613   1.048   0.069
   21SOL    HW2   84   0.652   0.977   0.211
   22SOL     OW   85   1.594   0.114   1.480
   22SOL    HW1   86   1.576   0.181   1.408
   22SOL    HW2   87   1.591   0.160   1.569
   23SOL     OW   88   0.122   0.643   0.563
   23SOL    HW1   89   0.077   0.555   0.580
   23SOL    HW2   90   0.121   0.697   0.647
   24SOL     OW   91   1.842   1.767   0.359
   24SOL    HW1   92   1.896   1.738   0.439
   24SOL    HW2   93   1.872   1.857   0.330
   25SOL     OW   94   0.027   1.596   0.117
   25SOL    HW1   95   0.008   1.500   0.138
   25SOL    HW2   96  -0.006   1.654   0.192
   26SOL     OW   97   1.689   0.922   0.612
   26SOL    HW1   98   1.784   0.893   0.620
   26SOL    HW2   99   1.681   0.987   0.537
   27SOL     OW  100   1.641   1.108   0.432
   27SOL    HW1  101   1.727   1.110   0.380
   27SOL    HW2  102   1.655   1.155   0.520
   28SOL     OW  103   0.113   0.737   1.597
   28SOL    HW1  104   0.201   0.724   1.642
   28SOL    HW2  105   0.100   0.834   1.575
   29SOL     OW  106   0.613   1.365   0.726
   29SOL    HW1  107   0.564   1.278   0.735
   29SOL    HW2  108   0.590   1.408   0.639
   30SOL     OW  109   0.809   0.004   0.502
   30SOL    HW1  110   0.849   0.095   0.493
   30SOL    HW2  111   0.709   0.012   0.508
   31SOL     OW  112   0.197   0.976   1.264
   31SOL    HW1  113   0.286   0.931   1.250
   31SOL    HW2  114   0.124   0.911   1.245
   32SOL     OW  115   1.525   0.999   0.190
   32SOL    HW1  116   1.462   0.923   0.203
   32SOL    HW2  117   1.573   1.017   0.276
   33SOL     OW  118   1.187   1.792   1.616
   33SOL    HW1  119   1.211   1.852   1.540
   33SOL    HW2  120   1.194   1.697   1.586
   34SOL     OW  121   0.317   0.251   1.801
   34SOL    HW1  122   0.388   0.322   1.807
   34SOL    HW2  123   0.229   0.290   1.829
   35SOL     OW  124   1.466   1.417   0.953
   35SOL    HW1  125   1.407   1.423   1.033
   35SOL    HW2  126   1.451   1.329   0.907
   36SOL     OW  127   1.667   1.714   0.572
   36SOL    HW1  128   1.626   1.691   0.484
   36SOL    HW2  129   1.649   1.640   0.637
   37SOL     OW  130   0.598   0.729   0.270
   37SOL    HW1  131   0.622   0.798   0.202
   37SOL    HW2  132   0.520   0.762   0.324
   38SOL     OW  133   1.281   0.345   0.944
   38SOL    HW1  134   1.195   0.295   0.931
   38SOL    HW2  135   1.343   0.291   1.000
   39SOL     OW  136   1.576   1.662   0.307
   39SOL    HW1  137   1.665   1.708   0.310
   39SOL    HW2  138   1.555   1.638   0.212
   40SOL     OW  139   0.807   0.605   1.465
   40SOL    HW1  140   0.760   0.602   1.554
   40SOL    HW2  141   0.756   0.550   1.399
   41SOL     OW  142   1.394   0.469   1.674
   41SOL    HW1  143   1.374   0.512   1.762
   41SOL    HW2  144   1.472   0.407   1.683
   42SOL     OW  145   0.973   0.890   1.572
   42SOL    HW1  146   1.019   0.806   1.543
   42SOL    HW2  147   0.917   0.924   1.497
   43SOL     OW  148   0.991   0.410   1.242
   43SOL    HW1  149   0.914   0.444   1.296
   43SOL    HW2  150   0.957   0.359   1.163
   44SOL     OW  151   1.041   0.701   0.429
   44SOL    HW1  152   1.067   0.697   0.525
   44SOL    HW2  153   0.956   0.650   0.415
   45SOL     OW  154   0.076   0.811   0.789
   45SOL    HW1  155   0.175   0.799   0.798
   45SOL    HW2  156   0.052   0.906   0.810
   46SOL     OW  157   0.130   1.821   1.571
   46SOL    HW1  158   0.120   1.806   1.670
   46SOL    HW2  159   0.044   1.857   1.535
   47SOL     OW  160   0.865   0.348   0.195
   47SOL    HW1  161   0.924   0.411   0.146
   47SOL    HW2  162   0.884   0.254   0.166
   48SOL     OW  163   1.719   0.585   1.831
   48SOL    HW1  164   1.693   0.674   1.795
   48SOL    HW2  165   1.717   0.517   1.758
   49SOL     OW  166   1.362   1.144   0.545
   49SOL    HW1  167   1.445   1.115   0.497
   49SOL    HW2  168   1.313   1.211   0.489
   50SOL     OW  169   0.550   0.196   0.885
   50SOL    HW1  170   0.545   0.191   0.985
   50SOL    HW2  171   0.552   0.292   0.856
   51SOL     OW  172   1.008   1.456   0.477
   51SOL    HW1  173   0.962   1.528   0.425
   51SOL    HW2  174   1.004   1.476   0.575
   52SOL     OW  175   0.351   1.801   0.853
   52SOL    HW1  176   0.401   1.715   0.859
   52SOL    HW2  177   0.416   1.878   0.850
   53SOL     OW  178   1.795   1.066   0.873
   53SOL    HW1  179   1.733   1.051   0.797
   53SOL    HW2  180   1.743   1.077   0.958
   54SOL     OW  181   0.321   0.943   0.242
   54SOL    HW1  182   0.403   0.982   0.200
   54SOL    HW2  183   0.294   0.861   0.193
   55SOL     OW  184   1.458   0.735   0.728
   55SOL    HW1  185   1.453   0.670   0.803
   55SOL    HW2  186   1.538   0.794   0.741
   56SOL     OW  187   0.461   1.266   1.727
   56SOL    HW1  188   0.411   1.267   1.641
   56SOL    HW2  189   0.398   1.248   1.803
   57SOL     OW  190   1.111   1.776   0.237
   57SOL    HW1  191   1.051   1.714   0.287
   57SOL    HW2  192   1.142   1.732   0.152
   58SOL     OW  193   0.202   0.285   1.498
   58SOL    HW1  194   0.122   0.345   1.485
   58SOL    HW2  195   0.192   0.236   1.584
   59SOL     OW  196   1.632   1.377   0.081
   59SOL    HW1  197   1.600   1.471   0.071
   59SOL    HW2  198   1.556   1.314   0.069
   60SOL     OW  199   0.464   1.743   0.323
   60SOL    HW1  200   0.497   1.782   0.409
   60SOL    HW2  201   0.540   1.736   0.258
   61SOL     OW  202   1.400   0.107   0.426
   61SOL    HW1  203   1.376   0.070   0.336
   61SOL    HW2  204   1.499   0.123   0.430
   62SOL     OW  205   0.249   1.785   1.241
   62SOL    HW1  206   0.306   1.720   1.291
   62SOL    HW2  207   0.233   1.752   1.148
   63SOL     OW  208   0.940   1.698   0.904
   63SOL    HW1  209   1.020   1.641   0.925
   63SOL    HW2  210   0.891   1.658   0.827
   64SOL     OW  211   0.382   0.700   0.480
   64SOL    HW1  212   0.427   0.610   0.477
   64SOL    HW2  213   0.288   0.689   0.513
   65SOL     OW  214   1.547   0.222   1.729
   65SOL    HW1  215   1.542   0.259   1.821
   65SOL    HW2  216   1.475   0.153   1.717
   66SOL     OW  217   0.614   0.122   0.117
   66SOL    HW1  218   0.712   0.100   0.124
   66SOL    HW2  219   0.583   0.105   0.024
   67SOL     OW  220   0.781   0.264   1.749
   67SOL    HW1  221   0.848   0.203   1.792
   67SOL    HW2  222   0.708   0.283   1.814
   68SOL     OW  223   0.888   1.514   1.195
   68SOL    HW1  224   0.865   1.489   1.101
   68SOL    HW2  225   0.949   1.445   1.234
   69SOL     OW  226   1.351   0.590   1.433
   69SOL    HW1  227   1.379   0.547   1.518
   69SOL    HW2  228   1.376   0.686   1.434
   70SOL     OW  229   0.803   1.402   0.924
   70SOL    HW1  230   0.893   1.416   0.882
   70SOL    HW2  231   0.732   1.404   0.853
   71SOL     OW  232   0.922   0.503   0.899
   71SOL    HW1  233   0.897   0.494   0.803
   71SOL    HW2  234   0.970   0.421   0.930
   72SOL     OW  235   0.539   0.064   0.512
   72SOL    HW1  236   0.458   0.065   0.570
   72SOL    HW2  237   0.542   0.147   0.457
   73SOL     OW  238   1.434   1.188   0.041
   73SOL    HW1  239   1.466   1.112   0.098
   73SOL    HW2  240   1.342   1.215   0.071
   74SOL     OW  241   0.297   0.035   0.171
   74SOL    HW1  242   0.346   0.119   0.150
   74SOL    HW2  243   0.359  -0.030   0.216
   75SOL     OW  244   0.935   0.236   0.480
   75SOL    HW1  245   0.887   0.277   0.402
   75SOL    HW2  246   1.034   0.234   0.461
   76SOL     OW  247   1.076   0.683   1.464
   76SOL    HW1  248   0.996   0.622   1.467
   76SOL    HW2  249   1.157   0.630   1.440
   77SOL     OW  250   1.227   1.570   0.793
   77SOL    HW1  251   1.248   1.644   0.728
   77SOL    HW2  252   1.295   1.570   0.866
   78SOL     OW  253   0.459   1.152   0.741
   78SOL    HW1  254   0.388   1.125   0.806
   78SOL    HW2  255   0.433   1.124   0.648
   79SOL     OW  256   1.271   1.797   0.591
   79SOL    HW1  257   1.315   1.861   0.527
   79SOL    HW2  258   1.221   1.849   0.661
   80SOL     OW  259   1.032   0.549   0.016
   80SOL    HW1  260   0.991   0.631  -0.023
   80SOL    HW2  261   1.096   0.575   0.089
   81SOL     OW  262   0.078   0.556   1.386
   81SOL    HW1  263   0.170   0.555   1.345
   81SOL    HW2  264   0.072   0.630   1.453
   82SOL     OW  265   0.561   0.222   1.147
   82SOL    HW1  266   0.599   0.138   1.184
   82SOL    HW2  267   0.473   0.241   1.191
   83SOL     OW  268   0.866   0.454   0.642
   83SOL    HW1  269   0.834   0.526   0.580
   83SOL    HW2  270   0.890   0.373   0.589
   84SOL     OW  271   1.017   0.039   0.753
   84SOL    HW1  272   0.945   0.044   0.684
   84SOL    HW2  273   0.993  -0.030   0.822
   85SOL     OW  274   1.429   1.173   0.867
   85SOL    HW1  275   1.374   1.089   0.860
   85SOL    HW2  276   1.455   1.202   0.775
   86SOL     OW  277   1.466   0.590   0.992
   86SOL    HW1  278   1.436   0.495   0.999
   86SOL    HW2  279   1.539   0.606   1.058
   87SOL     OW  280   1.857   0.833   0.377
   87SOL    HW1  281   1.899   0.769   0.441
   87SOL    HW2  282   1.819   0.782   0.299
   88SOL     OW  283   0.488   1.385   0.174
   88SOL    HW1  284   0.401   1.370   0.221
   88SOL    HW2  285   0.471   1.411   0.079
   89SOL     OW  286   1.664   1.280   0.657
   89SOL    HW1  287   1.763   1.288   0.671
   89SOL    HW2  288   1.619   1.364   0.688
   90SOL     OW  289   1.390   0.575   0.078
   90SOL    HW1  290   1.336   0.554   0.159
   90SOL    HW2  291   1.481   0.534   0.087
   91SOL     OW  292   0.527   0.256   0.328
   91SOL    HW1  293   0.554   0.197   0.253
   91SOL    HW2  294   0.527   0.351   0.297
   92SOL     OW  295   1.754   1.223   1.588
   92SOL    HW1  296   1.845   1.184   1.575
   92SOL    HW2  297   1.762   1.319   1.612
   93SOL     OW  298   1.111   1.195   1.100
   93SOL    HW1  299   1.071   1.239   1.181
   93SOL    HW2  300   1.070   1.232   1.017
   94SOL     OW  301   1.638   1.099   1.079
   94SOL    HW1  302   1.643   1.180   1.138
   94SOL    HW2  303   1.552   1.101   1.028
   95SOL     OW  304   0.915   0.089   1.402
   95SOL    HW1  305   0.940   0.069   1.307
   95SOL    HW2  306   0.987   0.145   1.444
   96SOL     OW  307   0.980   1.116   1.719
   96SOL    HW1  308   0.881   1.122   1.729
   96SOL    HW2  309   1.003   1.036   1.663
   97SOL     OW  310   0.705   1.050   0.368
   97SOL    HW1  311   0.691   1.057   0.467
   97SOL    HW2  312   0.789   0.999   0.350
   98SOL     OW  313   0.410   0.813   1.251
   98SOL    HW1  314   0.496   0.825   1.301
   98SOL    HW2  315   0.368   0.726   1.278
   99SOL     OW  316   1.274   0.386   1.262
   99SOL    HW1  317   1.295   0.460   1.326
   99SOL    HW2  318   1.185   0.403   1.219
  100SOL     OW  319   0.064   1.564   1.331
  100SOL    HW1  320   0.018   1.646   1.297
  100SOL    HW2  321   0.162   1.583   1.340
  101SOL     OW  322   0.367   1.100   0.501
  101SOL    HW1  323   0.360   1.183   0.445
  101SOL    HW2  324   0.371   1.020   0.441
  102SOL     OW  325   0.566   0.537   0.865
  102SOL    HW1  326   0.578   0.603   0.791
  102SOL    HW2  327   0.612   0.571   0.948
  103SOL     OW  328   1.252   1.348   0.388
  103SOL    HW1  329   1.302   1.425   0.428
  103SOL    HW2  330   1.157   1.350   0.420
  104SOL     OW  331   1.582   0.639   0.472
  104SOL    HW1  332   1.551   0.700   0.545
  104SOL    HW2  333   1.632   0.691   0.403
  105SOL     OW  334   0.354   1.510   1.329
  105SOL    HW1  335   0.333   1.466   1.242
  105SOL    HW2  336   0.451   1.536   1.332
  106SOL     OW  337   0.402   0.751   1.598
  106SOL    HW1  338   0.470   0.806   1.551
  106SOL    HW2  339   0.442   0.663   1.625
  107SOL     OW  340   1.587   0.779   1.670
  107SOL    HW1  341   1.495   0.817   1.665
  107SOL    HW2  342   1.647   0.826   1.605
  108SOL     OW  343   1.013   0.105   1.770
  108SOL    HW1  344   1.019   0.190   1.718
  108SOL    HW2  345   1.045   0.029   1.713
  109SOL     OW  346   0.504   0.050   1.740
  109SOL    HW1  347   0.462  -0.007   1.670
  109SOL    HW2  348   0.438   0.119   1.772
  110SOL     OW  349   0.573   0.870   1.029
  110SOL    HW1  350   0.617   0.959   1.020
  110SOL    HW2  351   0.510   0.870   1.106
  111SOL     OW  352   1.360   0.862   1.045
  111SOL    HW1  353   1.285   0.862   0.979
  111SOL    HW2  354   1.397   0.770   1.054
  112SOL     OW  355   1.209   0.525   0.275
  112SOL    HW1  356   1.222   0.441   0.329
  112SOL    HW2  357   1.180   0.599   0.335
  113SOL     OW  358   0.307   0.213   1.231
  113SOL    HW1  359   0.284   0.250   1.321
  113SOL    HW2  360   0.277   0.118   1.225
  114SOL     OW  361   0.037   1.310   1.282
  114SOL    HW1  362   0.090   1.261   1.350
  114SOL    HW2  363   0.059   1.408   1.287
  115SOL     OW  364   0.732   0.634   1.064
  115SOL    HW1  365   0.791   0.608   0.988
  115SOL    HW2  366   0.704   0.730   1.053
  116SOL     OW  367   1.728   0.935   1.854
  116SOL    HW1  368   1.682   0.928   1.765
  116SOL    HW2  369   1.666   0.979   1.920
  117SOL     OW  370   0.307   0.063   0.618
  117SOL    HW1  371   0.296   0.157   0.651
  117SOL    HW2  372   0.302   0.000   0.695
  118SOL     OW  373   1.622   0.367   0.374
  118SOL    HW1  374   1.624   0.291   0.438
  118SOL    HW2  375   1.574   0.444   0.414
  119SOL     OW  376   1.023   0.766   0.966
  119SOL    HW1  377   1.038   0.787   1.062
  119SOL    HW2  378   0.993   0.671   0.957
  120SOL     OW  379   0.980   1.573   1.700
  120SOL    HW1  380   0.960   1.617   1.612
  120SOL    HW2  381   1.019   1.482   1.684
  121SOL     OW  382   1.859   1.518   1.605
  121SOL    HW1  383   1.873   1.545   1.510
  121SOL    HW2  384   1.942   1.540   1.658
  122SOL     OW  385   0.350   0.898   1.804
  122SOL    HW1  386   0.426   0.942   1.852
  122SOL    HW2  387   0.385   0.851   1.722
  123SOL     OW  388   1.540   0.274   0.125
  123SOL    HW1  389   1.479   0.199   0.148
  123SOL    HW2  390   1.562   0.326   0.208
  124SOL     OW  391   1.303   0.838   0.042
  124SOL    HW1  392   1.337   0.745   0.057
  124SOL    HW2  393   1.321   0.865  -0.053
  125SOL     OW  394   1.068   1.333   0.849
  125SOL    HW1  395   1.075   1.249   0.794
  125SOL    HW2  396   1.130   1.402   0.813
  126SOL     OW  397   0.319   0.810   0.949
  126SOL    HW1  398   0.412   0.846   0.954
  126SOL    HW2  399   0.313   0.725   1.001
  127SOL     OW  400   0.339   0.509   1.006
  127SOL    HW1  401   0.287   0.426   0.989
  127SOL    HW2  402   0.416   0.514   0.942
  128SOL     OW  403   1.138   0.380   1.678
  128SOL    HW1  404   1.093   0.443   1.742
  128SOL    HW2  405   1.231   0.411   1.661
  129SOL     OW  406   1.160   0.207   1.477
  129SOL    HW1  407   1.160   0.271   1.554
  129SOL    HW2  408   1.188   0.255   1.394
  130SOL     OW  409   0.008   1.326   0.200
  130SOL    HW1  410  -0.085   1.347   0.169
  130SOL    HW2  411   0.018   1.227   0.213
  131SOL     OW  412   0.088   1.801   0.927
  131SOL    HW1  413   0.046   1.715   0.900
  131SOL    HW2  414   0.182   1.804   0.893
  132SOL     OW  415   0.504   1.568   0.910
  132SOL    HW1  416   0.570   1.642   0.919
  132SOL    HW2  417   0.548   1.489   0.868
  133SOL     OW  418   1.002   0.796   1.238
  133SOL    HW1  419   1.043   0.764   1.324
  133SOL    HW2  420   0.906   0.769   1.235
  134SOL     OW  421   0.040   0.544   1.114
  134SOL    HW1  422   0.125   0.511   1.073
  134SOL    HW2  423   0.053   0.559   1.212
  135SOL     OW  424   0.189   0.520   1.722
  135SOL    HW1  425   0.248   0.480   1.652
  135SOL    HW2  426   0.131   0.591   1.681
  136SOL     OW  427   1.369   0.950   1.660
  136SOL    HW1  428   1.408   1.039   1.680
  136SOL    HW2  429   1.379   0.930   1.563
  137SOL     OW  430   0.815   0.572   0.325
  137SOL    HW1  431   0.822   0.483   0.279
  137SOL    HW2  432   0.721   0.606   0.317
  138SOL     OW  433   1.657   0.604   1.206
  138SOL    HW1  434   1.619   0.535   1.268
  138SOL    HW2  435   1.739   0.568   1.162
  139SOL     OW  436   0.252   1.564   1.744
  139SOL    HW1  437   0.222   1.621   1.820
  139SOL    HW2  438   0.245   1.467   1.770
  140SOL     OW  439   0.671   0.464   1.269
  140SOL    HW1  440   0.637   0.375   1.239
  140SOL    HW2  441   0.697   0.518   1.189
  141SOL     OW  442   0.930   1.678   1.465
  141SOL    HW1  443   0.906   1.660   1.370
  141SOL    HW2  444   0.960   1.772   1.475
  142SOL     OW  445   0.473   0.500   0.191
  142SOL    HW1  446   0.534   0.580   0.195
  142SOL    HW2  447   0.378   0.531   0.198
  143SOL     OW  448   0.159   1.137   1.466
  143SOL    HW1  449   0.181   1.076   1.542
  143SOL    HW2  450   0.169   1.088   1.380
  144SOL     OW  451   1.302   0.855   0.309
  144SOL    HW1  452   1.216   0.824   0.351
  144SOL    HW2  453   1.298   0.841   0.210
  145SOL     OW  454   1.759   1.747   1.154
  145SOL    HW1  455   1.820   1.777   1.081
  145SOL    HW2  456   1.721   1.658   1.132
  146SOL     OW  457   1.252   1.731   1.128
  146SOL    HW1  458   1.336   1.736   1.074
  146SOL    HW2  459   1.229   1.635   1.146
  147SOL     OW  460   0.083   1.258   1.022
  147SOL    HW1  461   0.078   1.257   1.122
  147SOL    HW2  462   0.000   1.217   0.984
  148SOL     OW  463   0.688   1.662   1.716
  148SOL    HW1  464   0.632   1.743   1.725
  148SOL    HW2  465   0.740   1.666   1.630
  149SOL     OW  466   0.903   0.086   0.133
  149SOL    HW1  467   0.954   0.087   0.047
  149SOL    HW2  468   0.959   0.044   0.204
  150SOL     OW  469   1.726   0.135   0.523
  150SOL    HW1  470   1.799   0.118   0.456
  150SOL    HW2  471   1.695   0.048   0.561
  151SOL     OW  472   1.388   1.573   0.477
  151SOL    HW1  473   1.455   1.585   0.403
  151SOL    HW2  474   1.348   1.662   0.500
  152SOL     OW  475   0.130   1.794   1.851
  152SOL    HW1  476   0.089   1.720   1.904
  152SOL    HW2  477   0.194   1.845   1.909
  153SOL     OW  478   1.280   0.927   0.672
  153SOL    HW1  479   1.340   0.846   0.674
  153SOL    HW2  480   1.320   0.996   0.612
  154SOL     OW  481   0.830   1.273   1.422
  154SOL    HW1  482   0.825   1.306   1.517
  154SOL    HW2  483   0.744   1.292   1.376
  155SOL     OW  484   0.672   1.616   0.154
  155SOL    HW1  485   0.681   1.626   0.055
  155SOL    HW2  486   0.632   1.527   0.175
  156SOL     OW  487   1.841   0.175   0.963
  156SOL    HW1  488   1.880   0.090   0.927
  156SOL    HW2  489   1.743   0.177   0.944
  157SOL     OW  490   0.263   0.326   0.720
  157SOL    HW1  491   0.184   0.377   0.686
  157SOL    HW2  492   0.254   0.311   0.818
  158SOL     OW  493   1.194   1.612   0.031
  158SOL    HW1  494   1.200   1.519   0.068
  158SOL    HW2  495   1.135   1.612  -0.049
  159SOL     OW  496   0.822   1.002   1.372
  159SOL    HW1  497   0.862   1.001   1.280
  159SOL    HW2  498   0.832   1.094   1.412
  160SOL     OW  499   0.916   0.910   0.291
  160SOL    HW1  500   0.979   0.948   0.223
  160SOL    HW2  501   0.956   0.827   0.330
  161SOL     OW  502   1.504   1.607   0.044
  161SOL    HW1  503   1.412   1.644   0.051
  161SOL    HW2  504   1.542   1.627  -0.046
  162SOL     OW  505   0.372   1.288   1.490
  162SOL    HW1  506   0.359   1.381   1.456
  162SOL    HW2  507   0.288   1.236   1.477
  163SOL     OW  508   1.039   1.098   0.696
  163SOL    HW1  509   0.969   1.051   0.750
  163SOL    HW2  510   1.098   1.030   0.653
  164SOL     OW  511   1.014   0.236   0.971
  164SOL    HW1  512   1.006   0.200   0.878
  164SOL    HW2  513   1.012   0.160   1.036
  165SOL     OW  514   0.590   1.487   0.491
  165SOL    HW1  515   0.632   1.429   0.421
  165SOL    HW2  516   0.546   1.566   0.447
  166SOL     OW  517   1.709   0.385   1.381
  166SOL    HW1  518   1.782   0.454   1.385
  166SOL    HW2  519   1.737   0.310   1.322
  167SOL     OW  520   0.255   1.348   0.290
  167SOL    HW1  521   0.159   1.349   0.263
  167SOL    HW2  522   0.267   1.401   0.374
  168SOL     OW  523   0.105   1.013   1.726
  168SOL    HW1  524   0.028   0.980   1.780
  168SOL    HW2  525   0.190   0.983   1.768
  169SOL     OW  526   0.672   0.203   1.489
  169SOL    HW1  527   0.762   0.187   1.449
  169SOL    HW2  528   0.680   0.208   1.588
  170SOL     OW  529   0.075   0.345   0.033
  170SOL    HW1  530  -0.017   0.317   0.004
  170SOL    HW2  531   0.106   0.422  -0.023
  171SOL     OW  532   1.440   0.856   1.398
  171SOL    HW1  533   1.383   0.908   1.335
  171SOL    HW2  534   1.536   0.868   1.374
  172SOL     OW  535   0.072   0.166   0.318
  172SOL    HW1  536   0.055   0.249   0.264
  172SOL    HW2  537   0.162   0.129   0.296
  173SOL     OW  538   1.183   1.335   0.119
  173SOL    HW1  539   1.084   1.324   0.121
  173SOL    HW2  540   1.217   1.350   0.212
  174SOL     OW  541   0.613   0.842   1.431
  174SOL    HW1  542   0.669   0.923   1.414
  174SOL    HW2  543   0.672   0.762   1.434
  175SOL     OW  544   1.493   1.767   0.959
  175SOL    HW1  545   1.526   1.831   0.890
  175SOL    HW2  546   1.559   1.761   1.034
  176SOL     OW  547   0.716   0.565   1.708
  176SOL    HW1  548   0.735   0.630   1.782
  176SOL    HW2  549   0.776   0.485   1.717
  177SOL     OW  550   1.450   1.220   1.633
  177SOL    HW1  551   1.441   1.210   1.732
  177SOL    HW2  552   1.546   1.213   1.607
  178SOL     OW  553   0.390   1.741   1.560
  178SOL    HW1  554   0.299   1.782   1.558
  178SOL    HW2  555   0.383   1.647   1.592
  179SOL     OW  556   1.674   0.883   1.254
  179SOL    HW1  557   1.647   0.794   1.217
  179SOL    HW2  558   1.675   0.951   1.181
  180SOL     OW  559   1.225   0.325   0.449
  180SOL    HW1  560   1.290   0.251   0.438
  180SOL    HW2  561   1.245   0.375   0.533
  181SOL     OW  562   0.594   0.745   0.652
  181SOL    HW1  563   0.644   0.830   0.633
  181SOL    HW2  564   0.506   0.747   0.604
  182SOL     OW  565   1.777   0.342   1.642
  182SOL    HW1  566   1.760   0.373   1.548
  182SOL    HW2  567   1.693   0.305   1.680
  183SOL     OW  568   1.730   0.934   1.517
  183SOL    HW1  569   1.768   1.025   1.532
  183SOL    HW2  570   1.722   0.917   1.418
  184SOL     OW  571   0.859   1.374   0.016
  184SOL    HW1  572   0.813   1.389   0.104
  184SOL    HW2  573   0.903   1.459  -0.014
  185SOL     OW  574   0.661   1.790   0.953
  185SOL    HW1  575   0.615   1.878   0.940
  185SOL    HW2  576   0.760   1.802   0.946
  186SOL     OW  577   0.859   0.956   0.861
  186SOL    HW1  578   0.913   0.887   0.909
  186SOL    HW2  579   0.827   1.025   0.927
  187SOL     OW  580   1.083   0.984   0.087
  187SOL    HW1  581   1.060   1.037   0.005
  187SOL    HW2  582   1.164   0.928   0.068
  188SOL     OW  583   1.861   1.569   0.851
  188SOL    HW1  584   1.790   1.557   0.781
  188SOL    HW2  585   1.862   1.490   0.911
  189SOL     OW  586   0.221   1.314   1.844
  189SOL    HW1  587   0.156   1.241   1.823
  189SOL    HW2  588   0.225   1.328   1.942
  190SOL     OW  589   0.079   1.240   0.653
  190SOL    HW1  590   0.078   1.193   0.741
  190SOL    HW2  591   0.161   1.212   0.602
  191SOL     OW  592   0.672   1.391   1.624
  191SOL    HW1  593   0.594   1.341   1.662
  191SOL    HW2  594   0.669   1.486   1.655
  192SOL     OW  595   1.824   0.192   1.227
  192SOL    HW1  596   1.820   0.102   1.271
  192SOL    HW2  597   1.827   0.181   1.128
  193SOL     OW  598   0.428   0.424   0.520
  193SOL    HW1  599   0.458   0.352   0.458
  193SOL    HW2  600   0.389   0.384   0.603
  194SOL     OW  601   0.317   0.547   1.280
  194SOL    HW1  602   0.355   0.488   1.352
  194SOL    HW2  603   0.357   0.521   1.192
  195SOL     OW  604   0.812   1.586   0.687
  195SOL    HW1  605   0.844   1.596   0.593
  195SOL    HW2  606   0.733   1.524   0.689
  196SOL     OW  607   1.424   0.214   1.112
  196SOL    HW1  608   1.476   0.149   1.167
  196SOL    HW2  609   1.375   0.277   1.173
  197SOL     OW  610   1.001   0.034   1.154
  197SOL    HW1  611   0.938  -0.038   1.123
  197SOL    HW2  612   1.094  -0.002   1.154
  198SOL     OW  613   0.770   1.330   0.301
  198SOL    HW1  614   0.724   1.243   0.318
  198SOL    HW2  615   0.861   1.327   0.342
  199SOL     OW  616   0.618   1.567   1.284
  199SOL    HW1  617   0.613   1.649   1.341
  199SOL    HW2  618   0.707   1.564   1.239
  200SOL     OW  619   1.352   0.052   0.168
  200SOL    HW1  620   1.387   0.011   0.084
  200SOL    HW2  621   1.262   0.014   0.188
  201SOL     OW  622   1.300   0.453   0.691
  201SOL    HW1  623   1.241   0.533   0.695
  201SOL    HW2  624   1.315   0.418   0.784
  202SOL     OW  625   1.593   0.221   0.882
  202SOL    HW1  626   1.509   0.220   0.936
  202SOL    HW2  627   1.595   0.304   0.826
  203SOL     OW  628   0.039   1.077   0.300
  203SOL    HW1  629   0.138   1.066   0.291
  203SOL    HW2  630  -0.001   0.991   0.332
  204SOL     OW  631   0.875   1.646   0.337
  204SOL    HW1  632   0.798   1.611   0.283
  204SOL    HW2  633   0.843   1.717   0.399
  205SOL     OW  634   0.230   0.628   1.975
  205SOL    HW1  635   0.137   0.626   2.012
  205SOL    HW2  636   0.231   0.589   1.883
  206SOL     OW  637   0.019   0.368   2.509
  206SOL    HW1  638  -0.063   0.411   2.548
  206SOL    HW2  639  -0.009   0.295   2.446
  207SOL     OW  640   1.555   1.511   2.565
  207SOL    HW1  641   1.498   1.495   2.646
  207SOL    HW2  642   1.496   1.521   2.485
  208SOL     OW  643   1.135   0.703   2.579
  208SOL    HW1  644   1.192   0.781   2.554
  208SOL    HW2  645   1.075   0.729   2.655
  209SOL     OW  646   1.755   0.607   2.093
  209SOL    HW1  647   1.743   0.594   1.994
  209SOL    HW2  648   1.725   0.526   2.142
  210SOL     OW  649   0.768   1.144   2.885
  210SOL    HW1  650   0.690   1.161   2.945
  210SOL    HW2  651   0.802   1.231   2.849
  211SOL     OW  652   0.685   1.012   2.527
  211SOL    HW1  653   0.754   0.996   2.597
  211SOL    HW2  654   0.612   1.069   2.565
  212SOL     OW  655   1.603   0.447   2.599
  212SOL    HW1  656   1.529   0.493   2.549
  212SOL    HW2  657   1.654   0.515   2.652
  213SOL     OW  658   0.231   1.713   2.345
  213SOL    HW1  659   0.265   1.790   2.399
  213SOL    HW2  660   0.275   1.713   2.255
  214SOL     OW  661   0.230   1.434   2.400
  214SOL    HW1  662   0.204   1.530   2.400
  214SOL    HW2  663   0.159   1.380   2.445
  215SOL     OW  664   0.240   1.091   2.748
  215SOL    HW1  665   0.254   1.007   2.800
  215SOL    HW2  666   0.185   1.155   2.803
  216SOL     OW  667   0.606   0.964   1.985
  216SOL    HW1  668   0.613   1.048   1.931
  216SOL    HW2  669   0.652   0.977   2.073
  217SOL     OW  670   0.122   0.643   2.425
  217SOL    HW1  671   0.077   0.555   2.442
  217SOL    HW2  672   0.121   0.697   2.509
  218SOL     OW  673   1.842   1.767   2.221
  218SOL    HW1  674   1.896   1.738   2.301
  218SOL    HW2  675   1.872   1.857   2.192
  219SOL     OW  676   0.027   1.596   1.979
  219SOL    HW1  677   0.008   1.500   2.000
  219SOL    HW2  678  -0.006   1.654   2.054
  220SOL     OW  679   1.689   0.922   2.474
  220SOL    HW1  680   1.784   0.893   2.482
  220SOL    HW2  681   1.681   0.987   2.399
  221SOL     OW  682   1.641   1.108   2.294
  221SOL    HW1  683   1.727   1.110   2.242
  221SOL    HW2  684   1.655   1.155   2.382
  222SOL     OW  685   0.613   1.365   2.588
  222SOL    HW1  686   0.564   1.278   2.597
  222SOL    HW2  687   0.590   1.408   2.501
  223SOL     OW  688   0.809   0.004   2.364
  223SOL    HW1  689   0.849   0.095   2.355
  223SOL    HW2  690   0.709   0.012   2.370
  224SOL     OW  691   1.525   0.999   2.052
  224SOL    HW1  692   1.462   0.923   2.065
  224SOL    HW2  693   1.573   1.017   2.138
  225SOL     OW  694   1.667   1.714   2.434
  225SOL    HW1  695   1.626   1.691   2.346
  225SOL    HW2  696   1.649   1.640   2.499
  226SOL     OW  697   0.598   0.729   2.132
  226SOL    HW1  698   0.622   0.798   2.064
  226SOL    HW2  699   0.520   0.762   2.186
  227SOL     OW  700   1.281   0.345   2.806
  227SOL    HW1  701   1.195   0.295   2.793
  227SOL    HW2  702   1.343   0.291   2.862
  228SOL     OW  703   1.576   1.662   2.169
  228SOL    HW1  704   1.665   1.708   2.172
  228SOL    HW2  705   1.555   1.638   2.074
  229SOL     OW  706   1.041   0.701   2.291
  229SOL    HW1  707   1.067   0.697   2.387
  229SOL    HW2  708   0.956   0.650   2.277
  230SOL     OW  709   0.076   0.811   2.651
  230SOL    HW1  710   0.175   0.799   2.660
  230SOL    HW2  711   0.052   0.906   2.672
  231SOL     OW  712   0.865   0.348   2.057
  231SOL    HW1  713   0.924   0.411   2.008
  231SOL    HW2  714   0.884   0.254   2.028
  232SOL     OW  715   1.362   1.144   2.407
  232SOL    HW1  716   1.445   1.115   2.359
  232SOL    HW2  717   1.313   1.211   2.351
  233SOL     OW  718   1.008   1.456   2.339
  233SOL    HW1  719   0.962   1.528   2.287
  233SOL    HW2  720   1.004   1.476   2.437
  234SOL     OW  721   0.351   1.801   2.715
  234SOL    HW1  722   0.401   1.715   2.721
  234SOL    HW2  723   0.416   1.878   2.712
  235SOL     OW  724   1.795   1.066   2.735
  235SOL    HW1  725   1.733   1.051   2.659
  235SOL    HW2  726   1.743   1.077   2.820
  236SOL     OW  727   0.321   0.943   2.104
  236SOL    HW1  728   0.403   0.982   2.062
  236SOL    HW2  729   0.294   0.861   2.055
  237SOL     OW  730   1.458   0.735   2.590
  237SOL    HW1  731   1.453   0.670   2.665
  237SOL    HW2  732   1.538   0.794   2.603
  238SOL     OW  733   1.111   1.776   2.099
  238SOL    HW1  734   1.051   1.714   2.149
  238SOL    HW2  735   1.142   1.732   2.014
  239SOL     OW  736   1.632   1.377   1.943
  239SOL    HW1  737   1.600   1.471   1.933
  239SOL    HW2  738   1.556   1.314   1.931
  240SOL     OW  739   0.464   1.743   2.185
  240SOL    HW1  740   0.497   1.782   2.271
  240SOL    HW2  741   0.540   1.736   2.120
  241SOL     OW  742   1.400   0.107   2.288
  241SOL    HW1  743   1.376   0.070   2.198
  241SOL    HW2  744   1.499   0.123   2.292
  242SOL     OW  745   0.940   1.698   2.766
  242SOL    HW1  746   1.020   1.641   2.787
  242SOL    HW2  747   0.891   1.658   2.689
  243SOL     OW  748   0.382   0.700   2.342
  243SOL    HW1  749   0.427   0.610   2.339
  243SOL    HW2  750   0.288   0.689   2.375
  244SOL     OW  751   0.614   0.122   1.979
  244SOL    HW1  752   0.712   0.100   1.986
  244SOL    HW2  753   0.583   0.105   1.886
  245SOL     OW  754   0.539   0.064   2.374
  245SOL    HW1  755   0.458   0.065   2.432
  245SOL    HW2  756   0.542   0.147   2.319
  246SOL     OW  757   1.434   1.188   1.903
  246SOL    HW1  758   1.466   1.112   1.960
  246SOL    HW2  759   1.342   1.215   1.933
  247SOL     OW  760   0.297   0.035   2.033
  247SOL    HW1  761   0.346   0.119   2.012
  247SOL    HW2  762   0.359  -0.030   2.078
  248SOL     OW  763   0.935   0.236   2.342
  248SOL    HW1  764   0.887   0.277   2.264
  248SOL    HW2  765   1.034   0.234   2.323
  249SOL     OW  766   0.459   1.152   2.603
  249SOL    HW1  767   0.388   1.125   2.668
  249SOL    HW2  768   0.433   1.124   2.510
  250SOL     OW  769   1.271   1.797   2.453
  250SOL    HW1  770   1.315   1.861   2.389
  250SOL    HW2  771   1.221   1.849   2.523
  251SOL     OW  772   1.032   0.549   1.878
  251SOL    HW1  773   0.991   0.631   1.839
  251SOL    HW2  774   1.096   0.575   1.951
  252SOL     OW  775   0.866   0.454   2.504
  252SOL    HW1  776   0.834   0.526   2.442
  252SOL    HW2  777   0.890   0.373   2.451
  253SOL     OW  778   1.017   0.039   2.615
  253SOL    HW1  779   0.945   0.044   2.546
  253SOL    HW2  780   0.993  -0.030   2.684
  254SOL     OW  781   1.857   0.833   2.239
  254SOL    HW1  782   1.899   0.769   2.303
  254SOL    HW2  783   1.819   0.782   2.161
  255SOL     OW  784   0.488   1.385   2.036
  255SOL    HW1  785   0.401   1.370   2.083
  255SOL    HW2  786   0.471   1.411   1.941
  256SOL     OW  787   1.664   1.280   2.519
  256SOL    HW1  788   1.763   1.288   2.533
  256SOL    HW2  789   1.619   1.364   2.550
  257SOL     OW  790   1.390   0.575   1.940
  257SOL    HW1  791   1.336   0.554   2.021
  257SOL    HW2  792   1.481   0.534   1.949
  258SOL     OW  793   0.527   0.256   2.190
  258SOL    HW1  794   0.554   0.197   2.115
  258SOL    HW2  795   0.527   0.351   2.159
  259SOL     OW  796   0.705   1.050   2.230
  259SOL    HW1  797   0.691   1.057   2.329
  259SOL    HW2  798   0.789   0.999   2.212
  260SOL     OW  799   0.367   1.100   2.363
  260SOL    HW1  800   0.360   1.183   2.307
  260SOL    HW2  801   0.371   1.020   2.303
  261SOL     OW  802   0.566   0.537   2.727
  261SOL    HW1  803   0.578   0.603   2.653
  261SOL    HW2  804   0.612   0.571   2.810
  262SOL     OW  805   1.252   1.348   2.250
  262SOL    HW1  806   1.302   1.425   2.290
  262SOL    HW2  807   1.157   1.350   2.282
  263SOL     OW  808   1.582   0.639   2.334
  263SOL    HW1  809   1.551   0.700   2.407
  263SOL    HW2  810   1.632   0.691   2.265
  264SOL     OW  811   1.209   0.525   2.137
  264SOL    HW1  812   1.222   0.441   2.191
  264SOL    HW2  813   1.180   0.599   2.197
  265SOL     OW  814   0.307   0.063   2.480
  265SOL    HW1  815   0.296   0.157   2.513
  265SOL    HW2  816   0.302   0.000   2.557
  266SOL     OW  817   1.622   0.367   2.236
  266SOL    HW1  818   1.624   0.291   2.300
  266SOL    HW2  819   1.574   0.444   2.276
  267SOL     OW  820   1.540   0.274   1.987
  267SOL    HW1  821   1.479   0.199   2.010
  267SOL    HW2  822   1.562   0.326   2.070
  268SOL     OW  823   1.303   0.838   1.904
  268SOL    HW1  824   1.337   0.745   1.919
  268SOL    HW2  825   1.321   0.865   1.809
  269SOL     OW  826   1.068   1.333   2.711
  269SOL    HW1  827   1.075   1.249   2.656
  269SOL    HW2  828   1.130   1.402   2.675
  270SOL     OW  829   0.008   1.326   2.062
  270SOL    HW1  830  -0.085   1.347   2.031
  270SOL    HW2  831   0.018   1.227   2.075
  271SOL     OW  832   0.088   1.801   2.789
  271SOL    HW1  833   0.046   1.715   2.762
  271SOL    HW2  834   0.182   1.804   2.755
  272SOL     OW  835   0.815   0.572   2.187
  272SOL    HW1  836   0.822   0.483   2.141
  272SOL    HW2  837   0.721   0.606   2.179
  273SOL     OW  838   0.473   0.500   2.053
  273SOL    HW1  839   0.534   0.580   2.057
  273SOL    HW2  840   0.378   0.531   2.060
  274SOL     OW  841   1.302   0.855   2.171
  274SOL    HW1  842   1.216   0.824   2.213
  274SOL    HW2  843   1.298   0.841   2.072
  275SOL     OW  844   1.726   0.135   2.385
  275SOL    HW1  845   1.799   0.118   2.318
  275SOL    HW2  846   1.695   0.048   2.423
  276SOL     OW  847   1.388   1.573   2.339
  276SOL    HW1  848   1.455   1.585   2.265
  276SOL    HW2  849   1.348   1.662   2.362
  277SOL     OW  850   1.280   0.927   2.534
  277SOL    HW1  851   1.340   0.846   2.536
  277SOL    HW2  852   1.320   0.996   2.474
  278SOL     OW  853   0.672   1.616   2.016
  278SOL    HW1  854   0.681   1.626   1.917
  278SOL    HW2  855   0.632   1.527   2.037
  279SOL     OW  856   1.841   0.175   2.825
  279SOL    HW1  857   1.880   0.090   2.789
  279SOL    HW2  858   1.743   0.177   2.806
  280SOL     OW  859   0.263   0.326   2.582
  280SOL    HW1  860   0.184   0.377   2.548
  280SOL    HW2  861   0.254   0.311   2.680
  281SOL     OW  862   1.194   1.612   1.893
  281SOL    HW1  863   1.200   1.519   1.930
  281SOL    HW2  864   1.135   1.612   1.813
  282SOL     OW  865   0.916   0.910   2.153
  282SOL    HW1  866   0.979   0.948   2.085
  282SOL    HW2  867   0.956   0.827   2.192
  283SOL     OW  868   1.504   1.607   1.906
  283SOL    HW1  869   1.412   1.644   1.913
  283SOL    HW2  870   1.542   1.627   1.816
  284SOL     OW  871   1.039   1.098   2.558
  284SOL    HW1  872   0.969   1.051   2.612
  284SOL    HW2  873   1.098   1.030   2.515
  285SOL     OW  874   0.590   1.487   2.353
  285SOL    HW1  875   0.632   1.429   2.283
  285SOL    HW2  876   0.546   1.566   2.309
  286SOL     OW  877   0.255   1.348   2.152
  286SOL    HW1  878   0.159   1.349   2.125
  286SOL    HW2  879   0.267   1.401   2.236
  287SOL     OW  880   0.075   0.345   1.895
  287SOL    HW1  881  -0.017   0.317   1.866
  287SOL    HW2  882   0.106   0.422   1.839
  288SOL     OW  883   0.072   0.166   2.180
  288SOL    HW1  884   0.055   0.249   2.126
  288SOL    HW2  885   0.162   0.129   2.158
  289SOL     OW  886   1.183   1.335   1.981
  289SOL    HW1  887   1.084   1.324   1.983
  289SOL    HW2  888   1.217   1.350   2.074
  290SOL     OW  889   1.225   0.325   2.311
  290SOL    HW1  890   1.290   0.251   2.300
  290SOL    HW2  891   1.245   0.375   2.395
  291SOL     OW  892   0.594   0.745   2.514
  291SOL    HW1  893   0.644   0.830   2.495
  291SOL    HW2  894   0.506   0.747   2.466
  292SOL     OW  895   0.859   1.374   1.878
  292SOL    HW1  896   0.813   1.389   1.966
  292SOL    HW2  897   0.903   1.459   1.848
  293SOL     OW  898   0.661   1.790   2.815
  293SOL    HW1  899   0.615   1.878   2.802
  293SOL    HW2  900   0.760   1.802   2.808
  294SOL     OW  901   0.859   0.956   2.723
  294SOL    HW1  902   0.913   0.887   2.771
  294SOL    HW2  903   0.827   1.025   2.789
  295SOL     OW  904   1.083   0.984   1.949
  295SOL    HW1  905   1.060   1.037   1.867
  295SOL    HW2  906   1.164   0.928   1.930
  296SOL     OW  907   0.079   1.240   2.515
  296SOL    HW1  908   0.078   1.193   2.603
  296SOL    HW2  909   0.161   1.212   2.464
  297SOL     OW  910   0.428   0.424   2.382
  297SOL    HW1  911   0.458   0.352   2.320
  297SOL    HW2  912   0.389   0.384   2.465
  298SOL     OW  913   0.812   1.586   2.549
  298SOL    HW1  914   0.844   1.596   2.455
  298SOL    HW2  915   0.733   1.524   2.551
  299SOL     OW  916   0.770   1.330   2.163
  299SOL    HW1  917   0.724   1.243   2.180
  299SOL    HW2  918   0.861   1.327   2.204
  300SOL     OW  919   1.352   0.052   2.030
  300SOL    HW1  920   1.387   0.011   1.946
  300SOL    HW2  921   1.262   0.014   2.050
  301SOL     OW  922   1.300   0.453   2.553
  301SOL    HW1  923   1.241   0.533   2.557
  301SOL    HW2  924   1.315   0.418   2.646
  302SOL     OW  925   0.039   1.077   2.162
  302SOL    HW1  926   0.138   1.066   2.153
  302SOL    HW2  927  -0.001   0.991   2.194
  303SOL     OW  928   0.875   1.646   2.199
  303SOL    HW1  929   0.798   1.611   2.145
  303SOL    HW2  930   0.843   1.717   2.261
  304SOL     OW  931   0.230   2.490   0.113
  304SOL    HW1  932   0.137   2.488   0.150
  304SOL    HW2  933   0.231   2.451   0.021
  305SOL     OW  934   0.225   2.137   0.996
  305SOL    HW1  935   0.260   2.120   1.088
  305SOL    HW2  936   0.137   2.092   0.984
  306SOL     OW  937   0.019   2.230   0.647
  306SOL    HW1  938  -0.063   2.273   0.686
  306SOL    HW2  939  -0.009   2.157   0.584
  307SOL     OW  940   1.135   2.565   0.717
  307SOL    HW1  941   1.192   2.643   0.692
  307SOL    HW2  942   1.075   2.591   0.793
  308SOL     OW  943   1.755   2.469   0.231
  308SOL    HW1  944   1.743   2.456   0.132
  308SOL    HW2  945   1.725   2.388   0.280
  309SOL     OW  946   0.850   2.660   1.823
  309SOL    HW1  947   0.846   2.736   1.888
  309SOL    HW2  948   0.872   2.696   1.732
  310SOL     OW  949   0.685   2.874   0.665
  310SOL    HW1  950   0.754   2.858   0.735
  310SOL    HW2  951   0.612   2.931   0.703
  311SOL     OW  952   0.438   2.254   1.499
  311SOL    HW1  953   0.520   2.198   1.508
  311SOL    HW2  954   0.357   2.196   1.503
  312SOL     OW  955   1.603   2.309   0.737
  312SOL    HW1  956   1.529   2.355   0.687
  312SOL    HW2  957   1.654   2.377   0.790
  313SOL     OW  958   1.594   1.976   1.480
  313SOL    HW1  959   1.576   2.043   1.408
  313SOL    HW2  960   1.591   2.022   1.569
  314SOL     OW  961   0.122   2.505   0.563
  314SOL    HW1  962   0.077   2.417   0.580
  314SOL    HW2  963   0.121   2.559   0.647
  315SOL     OW  964   0.113   2.599   1.597
  315SOL    HW1  965   0.201   2.586   1.642
  315SOL    HW2  966   0.100   2.696   1.575
  316SOL     OW  967   0.809   1.866   0.502
  316SOL    HW1  968   0.849   1.957   0.493
  316SOL    HW2  969   0.709   1.874   0.508
  317SOL     OW  970   0.317   2.113   1.801
  317SOL    HW1  971   0.388   2.184   1.807
  317SOL    HW2  972   0.229   2.152   1.829
  318SOL     OW  973   0.598   2.591   0.270
  318SOL    HW1  974   0.622   2.660   0.202
  318SOL    HW2  975   0.520   2.624   0.324
  319SOL     OW  976   1.281   2.207   0.944
  319SOL    HW1  977   1.195   2.157   0.931
  319SOL    HW2  978   1.343   2.153   1.000
  320SOL     OW  979   0.807   2.467   1.465
  320SOL    HW1  980   0.760   2.464   1.554
  320SOL    HW2  981   0.756   2.412   1.399
  321SOL     OW  982   1.394   2.331   1.674
  321SOL    HW1  983   1.374   2.374   1.762
  321SOL    HW2  984   1.472   2.269   1.683
  322SOL     OW  985   0.991   2.272   1.242
  322SOL    HW1  986   0.914   2.306   1.296
  322SOL    HW2  987   0.957   2.221   1.163
  323SOL     OW  988   1.041   2.563   0.429
  323SOL    HW1  989   1.067   2.559   0.525
  323SOL    HW2  990   0.956   2.512   0.415
  324SOL     OW  991   0.076   2.673   0.789
  324SOL    HW1  992   0.175   2.661   0.798
  324SOL    HW2  993   0.052   2.768   0.810
  325SOL     OW  994   0.865   2.210   0.195
  325SOL    HW1  995   0.924   2.273   0.146
  325SOL    HW2  996   0.884   2.116   0.166
  326SOL     OW  997   1.719   2.447   1.831
  326SOL    HW1  998   1.693   2.536   1.795
  326SOL    HW2  999   1.717   2.379   1.758
  327SOL     OW 1000   0.550   2.058   0.885
  327SOL    HW1 1001   0.545   2.053   0.985
  327SOL    HW2 1002   0.552   2.154   0.856
  328SOL     OW 1003   1.458   2.597   0.728
  328SOL    HW1 1004   1.453   2.532   0.803
  328SOL    HW2 1005   1.538   2.656   0.741
  329SOL     OW 1006   0.202   2.147   1.498
  329SOL    HW1 1007   0.122   2.207   1.485
  329SOL    HW2 1008   0.192   2.098   1.584
  330SOL     OW 1009   1.400   1.969   0.426
  330SOL    HW1 1010   1.376   1.932   0.336
  330SOL    HW2 1011   1.499   1.985   0.430
  331SOL     OW 1012   0.382   2.562   0.480
  331SOL    HW1 1013   0.427   2.472   0.477
  331SOL    HW2 1014   0.288   2.551   0.513
  332SOL     OW 1015   1.547   2.084   1.729
  332SOL    HW1 1016   1.542   2.121   1.821
  332SOL    HW2 1017   1.475   2.015   1.717
  333SOL     OW 1018   0.781   2.126   1.749
  333SOL    HW1 1019   0.848   2.065   1.792
  333SOL    HW2 1020   0.708   2.145   1.814
  334SOL     OW 1021   1.351   2.452   1.433
  334SOL    HW1 1022   1.379   2.409   1.518
  334SOL    HW2 1023   1.376   2.548   1.434
  335SOL     OW 1024   0.922   2.365   0.899
  335SOL    HW1 1025   0.897   2.356   0.803
  335SOL    HW2 1026   0.970   2.283   0.930
  336SOL     OW 1027   0.539   1.926   0.512
  336SOL    HW1 1028   0.458   1.927   0.570
  336SOL    HW2 1029   0.542   2.009   0.457
  337SOL     OW 1030   0.297   1.897   0.171
  337SOL    HW1 1031   0.346   1.981   0.150
  337SOL    HW2 1032   0.359   1.832   0.216
  338SOL     OW 1033   0.935   2.098   0.480
  338SOL    HW1 1034   0.887   2.139   0.402
  338SOL    HW2 1035   1.034   2.096   0.461
  339SOL     OW 1036   1.076   2.545   1.464
  339SOL    HW1 1037   0.996   2.484   1.467
  339SOL    HW2 1038   1.157   2.492   1.440
  340SOL     OW 1039   1.032   2.411   0.016
  340SOL    HW1 1040   0.991   2.493  -0.023
  340SOL    HW2 1041   1.096   2.437   0.089
  341SOL     OW 1042   0.078   2.418   1.386
  341SOL    HW1 1043   0.170   2.417   1.345
  341SOL    HW2 1044   0.072   2.492   1.453
  342SOL     OW 1045   0.561   2.084   1.147
  342SOL    HW1 1046   0.599   2.000   1.184
  342SOL    HW2 1047   0.473   2.103   1.191
  343SOL     OW 1048   0.866   2.316   0.642
  343SOL    HW1 1049   0.834   2.388   0.580
  343SOL    HW2 1050   0.890   2.235   0.589
  344SOL     OW 1051   1.017   1.901   0.753
  344SOL    HW1 1052   0.945   1.906   0.684
  344SOL    HW2 1053   0.993   1.832   0.822
  345SOL     OW 1054   1.466   2.452   0.992
  345SOL    HW1 1055   1.436   2.357   0.999
  345SOL    HW2 1056   1.539   2.468   1.058
  346SOL     OW 1057   1.857   2.695   0.377
  346SOL    HW1 1058   1.899   2.631   0.441
  346SOL    HW2 1059   1.819   2.644   0.299
  347SOL     OW 1060   1.390   2.437   0.078
  347SOL    HW1 1061   1.336   2.416   0.159
  347SOL    HW2 1062   1.481   2.396   0.087
  348SOL     OW 1063   0.527   2.118   0.328
  348SOL    HW1 1064   0.554   2.059   0.253
  348SOL    HW2 1065   0.527   2.213   0.297
  349SOL     OW 1066   0.915   1.951   1.402
  349SOL    HW1 1067   0.940   1.931   1.307
  349SOL    HW2 1068   0.987   2.007   1.444
  350SOL     OW 1069   0.705   2.912   0.368
  350SOL    HW1 1070   0.691   2.919   0.467
  350SOL    HW2 1071   0.789   2.861   0.350
  351SOL     OW 1072   0.410   2.675   1.251
  351SOL    HW1 1073   0.496   2.687   1.301
  351SOL    HW2 1074   0.368   2.588   1.278
  352SOL     OW 1075   1.274   2.248   1.262
  352SOL    HW1 1076   1.295   2.322   1.326
  352SOL    HW2 1077   1.185   2.265   1.219
  353SOL     OW 1078   0.566   2.399   0.865
  353SOL    HW1 1079   0.578   2.465   0.791
  353SOL    HW2 1080   0.612   2.433   0.948
  354SOL     OW 1081   1.582   2.501   0.472
  354SOL    HW1 1082   1.551   2.562   0.545
  354SOL    HW2 1083   1.632   2.553   0.403
  355SOL     OW 1084   0.402   2.613   1.598
  355SOL    HW1 1085   0.470   2.668   1.551
  355SOL    HW2 1086   0.442   2.525   1.625
  356SOL     OW 1087   1.587   2.641   1.670
  356SOL    HW1 1088   1.495   2.679   1.665
  356SOL    HW2 1089   1.647   2.688   1.605
  357SOL     OW 1090   1.013   1.967   1.770
  357SOL    HW1 1091   1.019   2.052   1.718
  357SOL    HW2 1092   1.045   1.891   1.713
  358SOL     OW 1093   0.504   1.912   1.740
  358SOL    HW1 1094   0.462   1.855   1.670
  358SOL    HW2 1095   0.438   1.981   1.772
  359SOL     OW 1096   0.573   2.732   1.029
  359SOL    HW1 1097   0.617   2.821   1.020
  359SOL    HW2 1098   0.510   2.732   1.106
  360SOL     OW 1099   1.360   2.724   1.045
  360SOL    HW1 1100   1.285   2.724   0.979
  360SOL    HW2 1101   1.397   2.632   1.054
  361SOL     OW 1102   1.209   2.387   0.275
  361SOL    HW1 1103   1.222   2.303   0.329
  361SOL    HW2 1104   1.180   2.461   0.335
  362SOL     OW 1105   0.307   2.075   1.231
  362SOL    HW1 1106   0.284   2.112   1.321
  362SOL    HW2 1107   0.277   1.980   1.225
  363SOL     OW 1108   0.732   2.496   1.064
  363SOL    HW1 1109   0.791   2.470   0.988
  363SOL    HW2 1110   0.704   2.592   1.053
  364SOL     OW 1111   1.728   2.797   1.854
  364SOL    HW1 1112   1.682   2.790   1.765
  364SOL    HW2 1113   1.666   2.841   1.920
  365SOL     OW 1114   0.307   1.925   0.618
  365SOL    HW1 1115   0.296   2.019   0.651
  365SOL    HW2 1116   0.302   1.862   0.695
  366SOL     OW 1117   1.622   2.229   0.374
  366SOL    HW1 1118   1.624   2.153   0.438
  366SOL    HW2 1119   1.574   2.306   0.414
  367SOL     OW 1120   1.023   2.628   0.966
  367SOL    HW1 1121   1.038   2.649   1.062
  367SOL    HW2 1122   0.993   2.533   0.957
  368SOL     OW 1123   1.540   2.136   0.125
  368SOL    HW1 1124   1.479   2.061   0.148
  368SOL    HW2 1125   1.562   2.188   0.208
  369SOL     OW 1126   0.319   2.672   0.949
  369SOL    HW1 1127   0.412   2.708   0.954
  369SOL    HW2 1128   0.313   2.587   1.001
  370SOL     OW 1129   0.339   2.371   1.006
  370SOL    HW1 1130   0.287   2.288   0.989
  370SOL    HW2 1131   0.416   2.376   0.942
  371SOL     OW 1132   1.138   2.242   1.678
  371SOL    HW1 1133   1.093   2.305   1.742
  371SOL    HW2 1134   1.231   2.273   1.661
  372SOL     OW 1135   1.160   2.069   1.477
  372SOL    HW1 1136   1.160   2.133   1.554
  372SOL    HW2 1137   1.188   2.117   1.394
  373SOL     OW 1138   0.040   2.406   1.114
  373SOL    HW1 1139   0.125   2.373   1.073
  373SOL    HW2 1140   0.053   2.421   1.212
  374SOL     OW 1141   0.189   2.382   1.722
  374SOL    HW1 1142   0.248   2.342   1.652
  374SOL    HW2 1143   0.131   2.453   1.681
  375SOL     OW 1144   0.815   2.434   0.325
  375SOL    HW1 1145   0.822   2.345   0.279
  375SOL    HW2 1146   0.721   2.468   0.317
  376SOL     OW 1147   1.657   2.466   1.206
  376SOL    HW1 1148   1.619   2.397   1.268
  376SOL    HW2 1149   1.739   2.430   1.162
  377SOL     OW 1150   0.671   2.326   1.269
  377SOL    HW1 1151   0.637   2.237   1.239
  377SOL    HW2 1152   0.697   2.380   1.189
  378SOL     OW 1153   0.473   2.362   0.191
  378SOL    HW1 1154   0.534   2.442   0.195
  378SOL    HW2 1155   0.378   2.393   0.198
  379SOL     OW 1156   0.903   1.948   0.133
  379SOL    HW1 1157   0.954   1.949   0.047
  379SOL    HW2 1158   0.959   1.906   0.204
  380SOL     OW 1159   1.726   1.997   0.523
  380SOL    HW1 1160   1.799   1.980   0.456
  380SOL    HW2 1161   1.695   1.910   0.561
  381SOL     OW 1162   1.280   2.789   0.672
  381SOL    HW1 1163   1.340   2.708   0.674
  381SOL    HW2 1164   1.320   2.858   0.612
  382SOL     OW 1165   1.841   2.037   0.963
  382SOL    HW1 1166   1.880   1.952   0.927
  382SOL    HW2 1167   1.743   2.039   0.944
  383SOL     OW 1168   0.263   2.188   0.720
  383SOL    HW1 1169   0.184   2.239   0.686
  383SOL    HW2 1170   0.254   2.173   0.818
  384SOL     OW 1171   1.014   2.098   0.971
  384SOL    HW1 1172   1.006   2.062   0.878
  384SOL    HW2 1173   1.012   2.022   1.036
  385SOL     OW 1174   1.709   2.247   1.381
  385SOL    HW1 1175   1.782   2.316   1.385
  385SOL    HW2 1176   1.737   2.172   1.322
  386SOL     OW 1177   0.105   2.875   1.726
  386SOL    HW1 1178   0.028   2.842   1.780
  386SOL    HW2 1179   0.190   2.845   1.768
  387SOL     OW 1180   0.672   2.065   1.489
  387SOL    HW1 1181   0.762   2.049   1.449
  387SOL    HW2 1182   0.680   2.070   1.588
  388SOL     OW 1183   0.075   2.207   0.033
  388SOL    HW1 1184  -0.017   2.179   0.004
  388SOL    HW2 1185   0.106   2.284  -0.023
  389SOL     OW 1186   1.440   2.718   1.398
  389SOL    HW1 1187   1.383   2.770   1.335
  389SOL    HW2 1188   1.536   2.730   1.374
  390SOL     OW 1189   0.072   2.028   0.318
  390SOL    HW1 1190   0.055   2.111   0.264
  390SOL    HW2 1191   0.162   1.991   0.296
  391SOL     OW 1192   0.613   2.704   1.431
  391SOL    HW1 1193   0.669   2.785   1.414
  391SOL    HW2 1194   0.672   2.624   1.434
  392SOL     OW 1195   0.716   2.427   1.708
  392SOL    HW1 1196   0.735   2.492   1.782
  392SOL    HW2 1197   0.776   2.347   1.717
  393SOL     OW 1198   1.674   2.745   1.254
  393SOL    HW1 1199   1.647   2.656   1.217
  393SOL    HW2 1200   1.675   2.813   1.181
  394SOL     OW 1201   1.225   2.187   0.449
  394SOL    HW1 1202   1.290   2.113   0.438
  394SOL    HW2 1203   1.245   2.237   0.533
  395SOL     OW 1204   0.594   2.607   0.652
  395SOL    HW1 1205   0.644   2.692   0.633
  395SOL    HW2 1206   0.506   2.609   0.604
  396SOL     OW 1207   1.777   2.204   1.642
  396SOL    HW1 1208   1.760   2.235   1.548
  396SOL    HW2 1209   1.693   2.167   1.680
  397SOL     OW 1210   1.824   2.054   1.227
  397SOL    HW1 1211   1.820   1.964   1.271
  397SOL    HW2 1212   1.827   2.043   1.128
  398SOL     OW 1213   0.428   2.286   0.520
  398SOL    HW1 1214   0.458   2.214   0.458
  398SOL    HW2 1215   0.389   2.246   0.603
  399SOL     OW 1216   0.317   2.409   1.280
  399SOL    HW1 1217   0.355   2.350   1.352
  399SOL    HW2 1218   0.357   2.383   1.192
  400SOL     OW 1219   1.424   2.076   1.112
  400SOL    HW1 1220   1.476   2.011   1.167
  400SOL    HW2 1221   1.375   2.139   1.173
  401SOL     OW 1222   1.001   1.896   1.154
  401SOL    HW1 1223   0.938   1.824   1.123
  401SOL    HW2 1224   1.094   1.860   1.154
  402SOL     OW 1225   1.352   1.914   0.168
  402SOL    HW1 1226   1.387   1.873   0.084
  402SOL    HW2 1227   1.262   1.876   0.188
  403SOL     OW 1228   1.300   2.315   0.691
  403SOL    HW1 1229   1.241   2.395   0.695
  403SOL    HW2 1230   1.315   2.280   0.784
  404SOL     OW 1231   1.593   2.083   0.882
  404SOL    HW1 1232   1.509   2.082   0.936
  404SOL    HW2 1233   1.595   2.166   0.826
  405SOL     OW 1234   0.230   2.490   1.975
  405SOL    HW1 1235   0.137   2.488   2.012
  405SOL    HW2 1236   0.231   2.451   1.883
  406SOL     OW 1237   0.019   2.230   2.509
  406SOL    HW1 1238  -0.063   2.273   2.548
  406SOL    HW2 1239  -0.009   2.157   2.446
  407SOL     OW 1240   1.135   2.565   2.579
  407SOL    HW1 1241   1.192   2.643   2.554
  407SOL    HW2 1242   1.075   2.591   2.655
  408SOL     OW 1243   1.755   2.469   2.093
  408SOL    HW1 1244   1.743   2.456   1.994
  408SOL    HW2 1245   1.725   2.388   2.142
  409SOL     OW 1246   0.685   2.874   2.527
  409SOL    HW1 1247   0.754   2.858   2.597
  409SOL    HW2 1248   0.612   2.931   2.565
  410SOL     OW 1249   1.603   2.309   2.599
  410SOL    HW1 1250   1.529   2.355   2.549
  410SOL    HW2 1251   1.654   2.377   2.652
  411SOL     OW 1252   0.122   2.505   2.425
  411SOL    HW1 1253   0.077   2.417   2.442
  411SOL    HW2 1254   0.121   2.559   2.509
  412SOL     OW 1255   0.809   1.866   2.364
  412SOL    HW1 1256   0.849   1.957   2.355
  412SOL    HW2 1257   0.709   1.874   2.370
  413SOL     OW 1258   0.598   2.591   2.132
  413SOL    HW1 1259   0.622   2.660   2.064
  413SOL    HW2 1260   0.520   2.624   2.186
  414SOL     OW 1261   1.281   2.207   2.806
  414SOL    HW1 1262   1.195   2.157   2.793
  414SOL    HW2 1263   1.343   2.153   2.862
  415SOL     OW 1264   1.041   2.563   2.291
  415SOL    HW1 1265   1.067   2.559   2.387
  415SOL    HW2 1266   0.956   2.512   2.277
  416SOL     OW 1267   0.076   2.673   2.651
  416SOL    HW1 1268   0.175   2.661   2.660
  416SOL    HW2 1269   0.052   2.768   2.672
  417SOL     OW 1270   0.865   2.210   2.057
  417SOL    HW1 1271   0.924   2.273   2.008
  417SOL    HW2 1272   0.884   2.116   2.028
  418SOL     OW 1273   0.550   2.058   2.747
  418SOL    HW1 1274   0.545   2.053   2.847
  418SOL    HW2 1275   0.552   2.154   2.718
  419SOL     OW 1276   1.458   2.597   2.590
  419SOL    HW1 1277   1.453   2.532   2.665
  419SOL    HW2 1278   1.538   2.656   2.603
  420SOL     OW 1279   1.400   1.969   2.288
  420SOL    HW1 1280   1.376   1.932   2.198
  420SOL    HW2 1281   1.499   1.985   2.292
  421SOL     OW 1282   0.382   2.562   2.342
  421SOL    HW1 1283   0.427   2.472   2.339
  421SOL    HW2 1284   0.288   2.551   2.375
  422SOL     OW 1285   0.614   1.984   1.979
  422SOL    HW1 1286   0.712   1.962   1.986
  422SOL    HW2 1287   0.583   1.967   1.886
  423SOL     OW 1288   0.539   1.926   2.374
  423SOL    HW1 1289   0.458   1.927   2.432
  423SOL    HW2 1290   0.542   2.009   2.319
  424SOL     OW 1291   0.297   1.897   2.033
  424SOL    HW1 1292   0.346   1.981   2.012
  424SOL    HW2 1293   0.359   1.832   2.078
  425SOL     OW 1294   0.935   2.098   2.342
  425SOL    HW1 1295   0.887   2.139   2.264
  425SOL    HW2 1296   1.034   2.096   2.323
  426SOL     OW 1297   0.459   3.014   2.603
  426SOL    HW1 1298   0.388   2.987   2.668
  426SOL    HW2 1299   0.433   2.986   2.510
  427SOL     OW 1300   1.032   2.411   1.878
  427SOL    HW1 1301   0.991   2.493   1.839
  427SOL    HW2 1302   1.096   2.437   1.951
  428SOL     OW 1303   0.866   2.316   2.504
  428SOL    HW1 1304   0.834   2.388   2.442
  428SOL    HW2 1305   0.890   2.235   2.451
  429SOL     OW 1306   1.017   1.901   2.615
  429SOL    HW1 1307   0.945   1.906   2.546
  429SOL    HW2 1308   0.993   1.832   2.684
  430SOL     OW 1309   1.429   3.035   2.729
  430SOL    HW1 1310   1.374   2.951   2.722
  430SOL    HW2 1311   1.455   3.064   2.637
  431SOL     OW 1312   1.857   2.695   2.239
  431SOL    HW1 1313   1.899   2.631   2.303
  431SOL    HW2 1314   1.819   2.644   2.161
  432SOL     OW 1315   1.390   2.437   1.940
  432SOL    HW1 1316   1.336   2.416   2.021
  432SOL    HW2 1317   1.481   2.396   1.949
  433SOL     OW 1318   0.527   2.118   2.190
  433SOL    HW1 1319   0.554   2.059   2.115
  433SOL    HW2 1320   0.527   2.213   2.159
  434SOL     OW 1321   0.705   2.912   2.230
  434SOL    HW1 1322   0.691   2.919   2.329
  434SOL    HW2 1323   0.789   2.861   2.212
  435SOL     OW 1324   0.566   2.399   2.727
  435SOL    HW1 1325   0.578   2.465   2.653
  435SOL    HW2 1326   0.612   2.433   2.810
  436SOL     OW 1327   1.582   2.501   2.334
  436SOL    HW1 1328   1.551   2.562   2.407
  436SOL    HW2 1329   1.632   2.553   2.265
  437SOL     OW 1330   1.209   2.387   2.137
  437SOL    HW1 1331   1.222   2.303   2.191
  437SOL    HW2 1332   1.180   2.461   2.197
  438SOL     OW 1333   0.307   1.925   2.480
  438SOL    HW1 1334   0.296   2.019   2.513
  438SOL    HW2 1335   0.302   1.862   2.557
  439SOL     OW 1336   1.622   2.229   2.236
  439SOL    HW1 1337   1.624   2.153   2.300
  439SOL    HW2 1338   1.574   2.306   2.276
  440SOL     OW 1339   1.540   2.136   1.987
  440SOL    HW1 1340   1.479   2.061   2.010
  440SOL    HW2 1341   1.562   2.188   2.070
  441SOL     OW 1342   0.815   2.434   2.187
  441SOL    HW1 1343   0.822   2.345   2.141
  441SOL    HW2 1344   0.721   2.468   2.179
  442SOL     OW 1345   0.473   2.362   2.053
  442SOL    HW1 1346   0.534   2.442   2.057
  442SOL    HW2 1347   0.378   2.393   2.060
  443SOL     OW 1348   1.726   1.997   2.385
  443SOL    HW1 1349   1.799   1.980   2.318
  443SOL    HW2 1350   1.695   1.910   2.423
  444SOL     OW 1351   1.280   2.789   2.534
  444SOL    HW1 1352   1.340   2.708   2.536
  444SOL    HW2 1353   1.320   2.858   2.474
  445SOL     OW 1354   1.841   2.037   2.825
  445SOL    HW1 1355   1.880   1.952   2.789
  445SOL    HW2 1356   1.743   2.039   2.806
  446SOL     OW 1357   0.263   2.188   2.582
  446SOL    HW1 1358   0.184   2.239   2.548
  446SOL    HW2 1359   0.254   2.173   2.680
  447SOL     OW 1360   0.916   2.772   2.153
  447SOL    HW1 1361   0.979   2.810   2.085
  447SOL    HW2 1362   0.956   2.689   2.192
  448SOL     OW 1363   0.075   2.207   1.895
  448SOL    HW1 1364  -0.017   2.179   1.866
  448SOL    HW2 1365   0.106   2.284   1.839
  449SOL     OW 1366   0.072   2.028   2.180
  449SOL    HW1 1367   0.055   2.111   2.126
  449SOL    HW2 1368   0.162   1.991   2.158
  450SOL     OW 1369   1.225   2.187   2.311
  450SOL    HW1 1370   1.290   2.113   2.300
  450SOL    HW2 1371   1.245   2.237   2.395
  451SOL     OW 1372   0.594   2.607   2.514
  451SOL    HW1 1373   0.644   2.692   2.495
  451SOL    HW2 1374   0.506   2.609   2.466
  452SOL     OW 1375   0.428   2.286   2.382
  452SOL    HW1 1376   0.458   2.214   2.320
  452SOL    HW2 1377   0.389   2.246   2.465
  453SOL     OW 1378   1.352   1.914   2.030
  453SOL    HW1 1379   1.387   1.873   1.946
  453SOL    HW2 1380   1.262   1.876   2.050
  454SOL     OW 1381   1.300   2.315   2.553
  454SOL    HW1 1382   1.241   2.395   2.557
  454SOL    HW2 1383   1.315   2.280   2.646
  455SOL     OW 1384   2.092   0.628   0.113
  455SOL    HW1 1385   1.999   0.626   0.150
  455SOL    HW2 1386   2.093   0.589   0.021
  456SOL     OW 1387   2.087   0.275   0.996
  456SOL    HW1 1388   2.122   0.258   1.088
  456SOL    HW2 1389   1.999   0.230   0.984
  457SOL     OW 1390   1.881   0.368   0.647
  457SOL    HW1 1391   1.799   0.411   0.686
  457SOL    HW2 1392   1.853   0.295   0.584
  458SOL     OW 1393   2.431   1.275   1.165
  458SOL    HW1 1394   2.338   1.268   1.128
  458SOL    HW2 1395   2.442   1.364   1.209
  459SOL     OW 1396   2.712   0.798   1.823
  459SOL    HW1 1397   2.708   0.874   1.888
  459SOL    HW2 1398   2.734   0.834   1.732
  460SOL     OW 1399   2.547   1.012   0.665
  460SOL    HW1 1400   2.616   0.996   0.735
  460SOL    HW2 1401   2.474   1.069   0.703
  461SOL     OW 1402   2.548   1.161   1.803
  461SOL    HW1 1403   2.608   1.240   1.817
  461SOL    HW2 1404   2.462   1.192   1.762
  462SOL     OW 1405   2.197   1.435   1.061
  462SOL    HW1 1406   2.119   1.404   1.008
  462SOL    HW2 1407   2.255   1.493   1.004
  463SOL     OW 1408   2.300   0.392   1.499
  463SOL    HW1 1409   2.382   0.336   1.508
  463SOL    HW2 1410   2.219   0.334   1.503
  464SOL     OW 1411   2.093   1.713   0.483
  464SOL    HW1 1412   2.127   1.790   0.537
  464SOL    HW2 1413   2.137   1.713   0.393
  465SOL     OW 1414   2.092   1.434   0.538
  465SOL    HW1 1415   2.066   1.530   0.538
  465SOL    HW2 1416   2.021   1.380   0.583
  466SOL     OW 1417   2.102   1.091   0.886
  466SOL    HW1 1418   2.116   1.007   0.938
  466SOL    HW2 1419   2.047   1.155   0.941
  467SOL     OW 1420   2.482   1.786   1.439
  467SOL    HW1 1421   2.390   1.769   1.474
  467SOL    HW2 1422   2.510   1.878   1.465
  468SOL     OW 1423   2.468   0.964   0.123
  468SOL    HW1 1424   2.475   1.048   0.069
  468SOL    HW2 1425   2.514   0.977   0.211
  469SOL     OW 1426   1.984   0.643   0.563
  469SOL    HW1 1427   1.939   0.555   0.580
  469SOL    HW2 1428   1.983   0.697   0.647
  470SOL     OW 1429   1.889   1.596   0.117
  470SOL    HW1 1430   1.870   1.500   0.138
  470SOL    HW2 1431   1.856   1.654   0.192
  471SOL     OW 1432   1.975   0.737   1.597
  471SOL    HW1 1433   2.063   0.724   1.642
  471SOL    HW2 1434   1.962   0.834   1.575
  472SOL     OW 1435   2.475   1.365   0.726
  472SOL    HW1 1436   2.426   1.278   0.735
  472SOL    HW2 1437   2.452   1.408   0.639
  473SOL     OW 1438   2.671   0.004   0.502
  473SOL    HW1 1439   2.711   0.095   0.493
  473SOL    HW2 1440   2.571   0.012   0.508
  474SOL     OW 1441   2.059   0.976   1.264
  474SOL    HW1 1442   2.148   0.931   1.250
  474SOL    HW2 1443   1.986   0.911   1.245
  475SOL     OW 1444   2.179   0.251   1.801
  475SOL    HW1 1445   2.250   0.322   1.807
  475SOL    HW2 1446   2.091   0.290   1.829
  476SOL     OW 1447   2.460   0.729   0.270
  476SOL    HW1 1448   2.484   0.798   0.202
  476SOL    HW2 1449   2.382   0.762   0.324
  477SOL     OW 1450   2.669   0.605   1.465
  477SOL    HW1 1451   2.622   0.602   1.554
  477SOL    HW2 1452   2.618   0.550   1.399
  478SOL     OW 1453   2.853   0.410   1.242
  478SOL    HW1 1454   2.776   0.444   1.296
  478SOL    HW2 1455   2.819   0.359   1.163
  479SOL     OW 1456   1.938   0.811   0.789
  479SOL    HW1 1457   2.037   0.799   0.798
  479SOL    HW2 1458   1.914   0.906   0.810
  480SOL     OW 1459   1.992   1.821   1.571
  480SOL    HW1 1460   1.982   1.806   1.670
  480SOL    HW2 1461   1.906   1.857   1.535
  481SOL     OW 1462   2.412   0.196   0.885
  481SOL    HW1 1463   2.407   0.191   0.985
  481SOL    HW2 1464   2.414   0.292   0.856
  482SOL     OW 1465   2.213   1.801   0.853
  482SOL    HW1 1466   2.263   1.715   0.859
  482SOL    HW2 1467   2.278   1.878   0.850
  483SOL     OW 1468   2.183   0.943   0.242
  483SOL    HW1 1469   2.265   0.982   0.200
  483SOL    HW2 1470   2.156   0.861   0.193
  484SOL     OW 1471   2.323   1.266   1.727
  484SOL    HW1 1472   2.273   1.267   1.641
  484SOL    HW2 1473   2.260   1.248   1.803
  485SOL     OW 1474   2.064   0.285   1.498
  485SOL    HW1 1475   1.984   0.345   1.485
  485SOL    HW2 1476   2.054   0.236   1.584
  486SOL     OW 1477   2.326   1.743   0.323
  486SOL    HW1 1478   2.359   1.782   0.409
  486SOL    HW2 1479   2.402   1.736   0.258
  487SOL     OW 1480   2.111   1.785   1.241
  487SOL    HW1 1481   2.168   1.720   1.291
  487SOL    HW2 1482   2.095   1.752   1.148
  488SOL     OW 1483   2.244   0.700   0.480
  488SOL    HW1 1484   2.289   0.610   0.477
  488SOL    HW2 1485   2.150   0.689   0.513
  489SOL     OW 1486   2.476   0.122   0.117
  489SOL    HW1 1487   2.574   0.100   0.124
  489SOL    HW2 1488   2.445   0.105   0.024
  490SOL     OW 1489   2.643   0.264   1.749
  490SOL    HW1 1490   2.710   0.203   1.792
  490SOL    HW2 1491   2.570   0.283   1.814
  491SOL     OW 1492   2.665   1.402   0.924
  491SOL    HW1 1493   2.755   1.416   0.882
  491SOL    HW2 1494   2.594   1.404   0.853
  492SOL     OW 1495   2.784   0.503   0.899
  492SOL    HW1 1496   2.759   0.494   0.803
  492SOL    HW2 1497   2.832   0.421   0.930
  493SOL     OW 1498   2.401   0.064   0.512
  493SOL    HW1 1499   2.320   0.065   0.570
  493SOL    HW2 1500   2.404   0.147   0.457
  494SOL     OW 1501   2.159   0.035   0.171
  494SOL    HW1 1502   2.208   0.119   0.150
  494SOL    HW2 1503   2.221  -0.030   0.216
  495SOL     OW 1504   2.321   1.152   0.741
  495SOL    HW1 1505   2.250   1.125   0.806
  495SOL    HW2 1506   2.295   1.124   0.648
  496SOL     OW 1507   1.940   0.556   1.386
  496SOL    HW1 1508   2.032   0.555   1.345
  496SOL    HW2 1509   1.934   0.630   1.453
  497SOL     OW 1510   2.423   0.222   1.147
  497SOL    HW1 1511   2.461   0.138   1.184
  497SOL    HW2 1512   2.335   0.241   1.191
  498SOL     OW 1513   2.350   1.385   0.174
  498SOL    HW1 1514   2.263   1.370   0.221
  498SOL    HW2 1515   2.333   1.411   0.079
  499SOL     OW 1516   2.389   0.256   0.328
  499SOL    HW1 1517   2.416   0.197   0.253
  499SOL    HW2 1518   2.389   0.351   0.297
  500SOL     OW 1519   2.777   0.089   1.402
  500SOL    HW1 1520   2.802   0.069   1.307
  500SOL    HW2 1521   2.849   0.145   1.444
  501SOL     OW 1522   2.272   0.813   1.251
  501SOL    HW1 1523   2.358   0.825   1.301
  501SOL    HW2 1524   2.230   0.726   1.278
  502SOL     OW 1525   1.926   1.564   1.331
  502SOL    HW1 1526   1.880   1.646   1.297
  502SOL    HW2 1527   2.024   1.583   1.340
  503SOL     OW 1528   2.229   1.100   0.501
  503SOL    HW1 1529   2.222   1.183   0.445
  503SOL    HW2 1530   2.233   1.020   0.441
  504SOL     OW 1531   2.428   0.537   0.865
  504SOL    HW1 1532   2.440   0.603   0.791
  504SOL    HW2 1533   2.474   0.571   0.948
  505SOL     OW 1534   2.216   1.510   1.329
  505SOL    HW1 1535   2.195   1.466   1.242
  505SOL    HW2 1536   2.313   1.536   1.332
  506SOL     OW 1537   2.264   0.751   1.598
  506SOL    HW1 1538   2.332   0.806   1.551
  506SOL    HW2 1539   2.304   0.663   1.625
  507SOL     OW 1540   2.366   0.050   1.740
  507SOL    HW1 1541   2.324  -0.007   1.670
  507SOL    HW2 1542   2.300   0.119   1.772
  508SOL     OW 1543   2.435   0.870   1.029
  508SOL    HW1 1544   2.479   0.959   1.020
  508SOL    HW2 1545   2.372   0.870   1.106
  509SOL     OW 1546   2.169   0.213   1.231
  509SOL    HW1 1547   2.146   0.250   1.321
  509SOL    HW2 1548   2.139   0.118   1.225
  510SOL     OW 1549   1.899   1.310   1.282
  510SOL    HW1 1550   1.952   1.261   1.350
  510SOL    HW2 1551   1.921   1.408   1.287
  511SOL     OW 1552   2.594   0.634   1.064
  511SOL    HW1 1553   2.653   0.608   0.988
  511SOL    HW2 1554   2.566   0.730   1.053
  512SOL     OW 1555   2.169   0.063   0.618
  512SOL    HW1 1556   2.158   0.157   0.651
  512SOL    HW2 1557   2.164   0.000   0.695
  513SOL     OW 1558   2.885   0.766   0.966
  513SOL    HW1 1559   2.900   0.787   1.062
  513SOL    HW2 1560   2.855   0.671   0.957
  514SOL     OW 1561   2.842   1.573   1.700
  514SOL    HW1 1562   2.822   1.617   1.612
  514SOL    HW2 1563   2.881   1.482   1.684
  515SOL     OW 1564   2.212   0.898   1.804
  515SOL    HW1 1565   2.288   0.942   1.852
  515SOL    HW2 1566   2.247   0.851   1.722
  516SOL     OW 1567   2.181   0.810   0.949
  516SOL    HW1 1568   2.274   0.846   0.954
  516SOL    HW2 1569   2.175   0.725   1.001
  517SOL     OW 1570   2.201   0.509   1.006
  517SOL    HW1 1571   2.149   0.426   0.989
  517SOL    HW2 1572   2.278   0.514   0.942
  518SOL     OW 1573   1.870   1.326   0.200
  518SOL    HW1 1574   1.777   1.347   0.169
  518SOL    HW2 1575   1.880   1.227   0.213
  519SOL     OW 1576   1.950   1.801   0.927
  519SOL    HW1 1577   1.908   1.715   0.900
  519SOL    HW2 1578   2.044   1.804   0.893
  520SOL     OW 1579   2.366   1.568   0.910
  520SOL    HW1 1580   2.432   1.642   0.919
  520SOL    HW2 1581   2.410   1.489   0.868
  521SOL     OW 1582   1.902   0.544   1.114
  521SOL    HW1 1583   1.987   0.511   1.073
  521SOL    HW2 1584   1.915   0.559   1.212
  522SOL     OW 1585   2.051   0.520   1.722
  522SOL    HW1 1586   2.110   0.480   1.652
  522SOL    HW2 1587   1.993   0.591   1.681
  523SOL     OW 1588   2.677   0.572   0.325
  523SOL    HW1 1589   2.684   0.483   0.279
  523SOL    HW2 1590   2.583   0.606   0.317
  524SOL     OW 1591   2.114   1.564   1.744
  524SOL    HW1 1592   2.084   1.621   1.820
  524SOL    HW2 1593   2.107   1.467   1.770
  525SOL     OW 1594   2.533   0.464   1.269
  525SOL    HW1 1595   2.499   0.375   1.239
  525SOL    HW2 1596   2.559   0.518   1.189
  526SOL     OW 1597   2.335   0.500   0.191
  526SOL    HW1 1598   2.396   0.580   0.195
  526SOL    HW2 1599   2.240   0.531   0.198
  527SOL     OW 1600   2.021   1.137   1.466
  527SOL    HW1 1601   2.043   1.076   1.542
  527SOL    HW2 1602   2.031   1.088   1.380
  528SOL     OW 1603   1.945   1.258   1.022
  528SOL    HW1 1604   1.940   1.257   1.122
  528SOL    HW2 1605   1.862   1.217   0.984
  529SOL     OW 1606   2.550   1.662   1.716
  529SOL    HW1 1607   2.494   1.743   1.725
  529SOL    HW2 1608   2.602   1.666   1.630
  530SOL     OW 1609   2.765   0.086   0.133
  530SOL    HW1 1610   2.816   0.087   0.047
  530SOL    HW2 1611   2.821   0.044   0.204
  531SOL     OW 1612   1.992   1.794   1.851
  531SOL    HW1 1613   1.951   1.720   1.904
  531SOL    HW2 1614   2.056   1.845   1.909
  532SOL     OW 1615   2.692   1.273   1.422
  532SOL    HW1 1616   2.687   1.306   1.517
  532SOL    HW2 1617   2.606   1.292   1.376
  533SOL     OW 1618   2.534   1.616   0.154
  533SOL    HW1 1619   2.543   1.626   0.055
  533SOL    HW2 1620   2.494   1.527   0.175
  534SOL     OW 1621   2.125   0.326   0.720
  534SOL    HW1 1622   2.046   0.377   0.686
  534SOL    HW2 1623   2.116   0.311   0.818
  535SOL     OW 1624   3.056   1.612   0.031
  535SOL    HW1 1625   3.062   1.519   0.068
  535SOL    HW2 1626   2.997   1.612  -0.049
  536SOL     OW 1627   2.684   1.002   1.372
  536SOL    HW1 1628   2.724   1.001   1.280
  536SOL    HW2 1629   2.694   1.094   1.412
  537SOL     OW 1630   2.234   1.288   1.490
  537SOL    HW1 1631   2.221   1.381   1.456
  537SOL    HW2 1632   2.150   1.236   1.477
  538SOL     OW 1633   2.452   1.487   0.491
  538SOL    HW1 1634   2.494   1.429   0.421
  538SOL    HW2 1635   2.408   1.566   0.447
  539SOL     OW 1636   2.117   1.348   0.290
  539SOL    HW1 1637   2.021   1.349   0.263
  539SOL    HW2 1638   2.129   1.401   0.374
  540SOL     OW 1639   1.967   1.013   1.726
  540SOL    HW1 1640   1.890   0.980   1.780
  540SOL    HW2 1641   2.052   0.983   1.768
  541SOL     OW 1642   2.534   0.203   1.489
  541SOL    HW1 1643   2.624   0.187   1.449
  541SOL    HW2 1644   2.542   0.208   1.588
  542SOL     OW 1645   1.934   0.166   0.318
  542SOL    HW1 1646   1.917   0.249   0.264
  542SOL    HW2 1647   2.024   0.129   0.296
  543SOL     OW 1648   2.475   0.842   1.431
  543SOL    HW1 1649   2.531   0.923   1.414
  543SOL    HW2 1650   2.534   0.762   1.434
  544SOL     OW 1651   2.578   0.565   1.708
  544SOL    HW1 1652   2.597   0.630   1.782
  544SOL    HW2 1653   2.638   0.485   1.717
  545SOL     OW 1654   2.252   1.741   1.560
  545SOL    HW1 1655   2.161   1.782   1.558
  545SOL    HW2 1656   2.245   1.647   1.592
  546SOL     OW 1657   2.456   0.745   0.652
  546SOL    HW1 1658   2.506   0.830   0.633
  546SOL    HW2 1659   2.368   0.747   0.604
  547SOL     OW 1660   2.523   1.790   0.953
  547SOL    HW1 1661   2.477   1.878   0.940
  547SOL    HW2 1662   2.622   1.802   0.946
  548SOL     OW 1663   2.083   1.314   1.844
  548SOL    HW1 1664   2.018   1.241   1.823
  548SOL    HW2 1665   2.087   1.328   1.942
  549SOL     OW 1666   1.941   1.240   0.653
  549SOL    HW1 1667   1.940   1.193   0.741
  549SOL    HW2 1668   2.023   1.212   0.602
  550SOL     OW 1669   2.534   1.391   1.624
  550SOL    HW1 1670   2.456   1.341   1.662
  550SOL    HW2 1671   2.531   1.486   1.655
  551SOL     OW 1672   2.290   0.424   0.520
  551SOL    HW1 1673   2.320   0.352   0.458
  551SOL    HW2 1674   2.251   0.384   0.603
  552SOL     OW 1675   2.179   0.547   1.280
  552SOL    HW1 1676   2.217   0.488   1.352
  552SOL    HW2 1677   2.219   0.521   1.192
  553SOL     OW 1678   2.674   1.586   0.687
  553SOL    HW1 1679   2.706   1.596   0.593
  553SOL    HW2 1680   2.595   1.524   0.689
  554SOL     OW 1681   2.863   0.034   1.154
  554SOL    HW1 1682   2.800  -0.038   1.123
  554SOL    HW2 1683   2.956  -0.002   1.154
  555SOL     OW 1684   2.480   1.567   1.284
  555SOL    HW1 1685   2.475   1.649   1.341
  555SOL    HW2 1686   2.569   1.564   1.239
  556SOL     OW 1687   1.901   1.077   0.300
  556SOL    HW1 1688   2.000   1.066   0.291
  556SOL    HW2 1689   1.861   0.991   0.332
  557SOL     OW 1690   2.092   0.628   1.975
  557SOL    HW1 1691   1.999   0.626   2.012
  557SOL    HW2 1692   2.093   0.589   1.883
  558SOL     OW 1693   2.087   0.275   2.858
  558SOL    HW1 1694   2.122   0.258   2.950
  558SOL    HW2 1695   1.999   0.230   2.846
  559SOL     OW 1696   1.881   0.368   2.509
  559SOL    HW1 1697   1.799   0.411   2.548
  559SOL    HW2 1698   1.853   0.295   2.446
  560SOL     OW 1699   2.630   1.144   2.885
  560SOL    HW1 1700   2.552   1.161   2.945
  560SOL    HW2 1701   2.664   1.231   2.849
  561SOL     OW 1702   2.547   1.012   2.527
  561SOL    HW1 1703   2.616   0.996   2.597
  561SOL    HW2 1704   2.474   1.069   2.565
  562SOL     OW 1705   2.093   1.713   2.345
  562SOL    HW1 1706   2.127   1.790   2.399
  562SOL    HW2 1707   2.137   1.713   2.255
  563SOL     OW 1708   2.092   1.434   2.400
  563SOL    HW1 1709   2.066   1.530   2.400
  563SOL    HW2 1710   2.021   1.380   2.445
  564SOL     OW 1711   2.102   1.091   2.748
  564SOL    HW1 1712   2.116   1.007   2.800
  564SOL    HW2 1713   2.047   1.155   2.803
  565SOL     OW 1714   2.468   0.964   1.985
  565SOL    HW1 1715   2.475   1.048   1.931
  565SOL    HW2 1716   2.514   0.977   2.073
  566SOL     OW 1717   1.984   0.643   2.425
  566SOL    HW1 1718   1.939   0.555   2.442
  566SOL    HW2 1719   1.983   0.697   2.509
  567SOL     OW 1720   1.889   1.596   1.979
  567SOL    HW1 1721   1.870   1.500   2.000
  567SOL    HW2 1722   1.856   1.654   2.054
  568SOL     OW 1723   2.475   1.365   2.588
  568SOL    HW1 1724   2.426   1.278   2.597
  568SOL    HW2 1725   2.452   1.408   2.501
  569SOL     OW 1726   2.671   0.004   2.364
  569SOL    HW1 1727   2.711   0.095   2.355
  569SOL    HW2 1728   2.571   0.012   2.370
  570SOL     OW 1729   2.460   0.729   2.132
  570SOL    HW1 1730   2.484   0.798   2.064
  570SOL    HW2 1731   2.382   0.762   2.186
  571SOL     OW 1732   1.938   0.811   2.651
  571SOL    HW1 1733   2.037   0.799   2.660
  571SOL    HW2 1734   1.914   0.906   2.672
  572SOL     OW 1735   2.213   1.801   2.715
  572SOL    HW1 1736   2.263   1.715   2.721
  572SOL    HW2 1737   2.278   1.878   2.712
  573SOL     OW 1738   2.183   0.943   2.104
  573SOL    HW1 1739   2.265   0.982   2.062
  573SOL    HW2 1740   2.156   0.861   2.055
  574SOL     OW 1741   2.326   1.743   2.185
  574SOL    HW1 1742   2.359   1.782   2.271
  574SOL    HW2 1743   2.402   1.736   2.120
  575SOL     OW 1744   2.244   0.700   2.342
  575SOL    HW1 1745   2.289   0.610   2.339
  575SOL    HW2 1746   2.150   0.689   2.375
  576SOL     OW 1747   2.476   0.122   1.979
  576SOL    HW1 1748   2.574   0.100   1.986
  576SOL    HW2 1749   2.445   0.105   1.886
  577SOL     OW 1750   2.665   1.402   2.786
  577SOL    HW1 1751   2.755   1.416   2.744
  577SOL    HW2 1752   2.594   1.404   2.715
  578SOL     OW 1753   2.401   0.064   2.374
  578SOL    HW1 1754   2.320   0.065   2.432
  578SOL    HW2 1755   2.404   0.147   2.319
  579SOL     OW 1756   2.159   0.035   2.033
  579SOL    HW1 1757   2.208   0.119   2.012
  579SOL    HW2 1758   2.221  -0.030   2.078
  580SOL     OW 1759   2.321   1.152   2.603
  580SOL    HW1 1760   2.250   1.125   2.668
  580SOL    HW2 1761   2.295   1.124   2.510
  581SOL     OW 1762   2.350   1.385   2.036
  581SOL    HW1 1763   2.263   1.370   2.083
  581SOL    HW2 1764   2.333   1.411   1.941
  582SOL     OW 1765   2.389   0.256   2.190
  582SOL    HW1 1766   2.416   0.197   2.115
  582SOL    HW2 1767   2.389   0.351   2.159
  583SOL     OW 1768   2.229   1.100   2.363
  583SOL    HW1 1769   2.222   1.183   2.307
  583SOL    HW2 1770   2.233   1.020   2.303
  584SOL     OW 1771   2.428   0.537   2.727
  584SOL    HW1 1772   2.440   0.603   2.653
  584SOL    HW2 1773   2.474   0.571   2.810
  585SOL     OW 1774   2.169   0.063   2.480
  585SOL    HW1 1775   2.158   0.157   2.513
  585SOL    HW2 1776   2.164   0.000   2.557
  586SOL     OW 1777   1.870   1.326   2.062
  586SOL    HW1 1778   1.777   1.347   2.031
  586SOL    HW2 1779   1.880   1.227   2.075
  587SOL     OW 1780   1.950   1.801   2.789
  587SOL    HW1 1781   1.908   1.715   2.762
  587SOL    HW2 1782   2.044   1.804   2.755
  588SOL     OW 1783   2.677   0.572   2.187
  588SOL    HW1 1784   2.684   0.483   2.141
  588SOL    HW2 1785   2.583   0.606   2.179
  589SOL     OW 1786   2.335   0.500   2.053
  589SOL    HW1 1787   2.396   0.580   2.057
  589SOL    HW2 1788   2.240   0.531   2.060
  590SOL     OW 1789   2.534   1.616   2.016
  590SOL    HW1 1790   2.543   1.626   1.917
  590SOL    HW2 1791   2.494   1.527   2.037
  591SOL     OW 1792   2.125   0.326   2.582
  591SOL    HW1 1793   2.046   0.377   2.548
  591SOL    HW2 1794   2.116   0.311   2.680
  592SOL     OW 1795   2.452   1.487   2.353
  592SOL    HW1 1796   2.494   1.429   2.283
  592SOL    HW2 1797   2.408   1.566   2.309
  593SOL     OW 1798   2.117   1.348   2.152
  593SOL    HW1 1799   2.021   1.349   2.125
  593SOL    HW2 1800   2.129   1.401   2.236
  594SOL     OW 1801   1.937   0.345   1.895
  594SOL    HW1 1802   1.845   0.317   1.866
  594SOL    HW2 1803   1.968   0.422   1.839
  595SOL     OW 1804   1.934   0.166   2.180
  595SOL    HW1 1805   1.917   0.249   2.126
  595SOL    HW2 1806   2.024   0.129   2.158
  596SOL     OW 1807   2.456   0.745   2.514
  596SOL    HW1 1808   2.506   0.830   2.495
  596SOL    HW2 1809   2.368   0.747   2.466
  597SOL     OW 1810   2.523   1.790   2.815
  597SOL    HW1 1811   2.477   1.878   2.802
  597SOL    HW2 1812   2.622   1.802   2.808
  598SOL     OW 1813   1.941   1.240   2.515
  598SOL    HW1 1814   1.940   1.193   2.603
  598SOL    HW2 1815   2.023   1.212   2.464
  599SOL     OW 1816   2.290   0.424   2.382
  599SOL    HW1 1817   2.320   0.352   2.320
  599SOL    HW2 1818   2.251   0.384   2.465
  600SOL     OW 1819   2.674   1.586   2.549
  600SOL    HW1 1820   2.706   1.596   2.455
  600SOL    HW2 1821   2.595   1.524   2.551
  601SOL     OW 1822   1.901   1.077   2.162
  601SOL    HW1 1823   2.000   1.066   2.153
  601SOL    HW2 1824   1.861   0.991   2.194
  602SOL     OW 1825   2.092   2.490   0.113
  602SOL    HW1 1826   1.999   2.488   0.150
  602SOL    HW2 1827   2.093   2.451   0.021
  603SOL     OW 1828   2.087   2.137   0.996
  603SOL    HW1 1829   2.122   2.120   1.088
  603SOL    HW2 1830   1.999   2.092   0.984
  604SOL     OW 1831   1.881   2.230   0.647
  604SOL    HW1 1832   1.799   2.273   0.686
  604SOL    HW2 1833   1.853   2.157   0.584
  605SOL     OW 1834   2.712   2.660   1.823
  605SOL    HW1 1835   2.708   2.736   1.888
  605SOL    HW2 1836   2.734   2.696   1.732
  606SOL     OW 1837   2.547   2.874   0.665
  606SOL    HW1 1838   2.616   2.858   0.735
  606SOL    HW2 1839   2.474   2.931   0.703
  607SOL     OW 1840   2.300   2.254   1.499
  607SOL    HW1 1841   2.382   2.198   1.508
  607SOL    HW2 1842   2.219   2.196   1.503
  608SOL     OW 1843   1.984   2.505   0.563
  608SOL    HW1 1844   1.939   2.417   0.580
  608SOL    HW2 1845   1.983   2.559   0.647
  609SOL     OW 1846   1.975   2.599   1.597
  609SOL    HW1 1847   2.063   2.586   1.642
  609SOL    HW2 1848   1.962   2.696   1.575
  610SOL     OW 1849   2.671   1.866   0.502
  610SOL    HW1 1850   2.711   1.957   0.493
  610SOL    HW2 1851   2.571   1.874   0.508
  611SOL     OW 1852   2.179   2.113   1.801
  611SOL    HW1 1853   2.250   2.184   1.807
  611SOL    HW2 1854   2.091   2.152   1.829
  612SOL     OW 1855   2.460   2.591   0.270
  612SOL    HW1 1856   2.484   2.660   0.202
  612SOL    HW2 1857   2.382   2.624   0.324
  613SOL     OW 1858   2.669   2.467   1.465
  613SOL    HW1 1859   2.622   2.464   1.554
  613SOL    HW2 1860   2.618   2.412   1.399
  614SOL     OW 1861   2.853   2.272   1.242
  614SOL    HW1 1862   2.776   2.306   1.296
  614SOL    HW2 1863   2.819   2.221   1.163
  615SOL     OW 1864   1.938   2.673   0.789
  615SOL    HW1 1865   2.037   2.661   0.798
  615SOL    HW2 1866   1.914   2.768   0.810
  616SOL     OW 1867   2.412   2.058   0.885
  616SOL    HW1 1868   2.407   2.053   0.985
  616SOL    HW2 1869   2.414   2.154   0.856
  617SOL     OW 1870   2.064   2.147   1.498
  617SOL    HW1 1871   1.984   2.207   1.485
  617SOL    HW2 1872   2.054   2.098   1.584
  618SOL     OW 1873   2.244   2.562   0.480
  618SOL    HW1 1874   2.289   2.472   0.477
  618SOL    HW2 1875   2.150   2.551   0.513
  619SOL     OW 1876   2.643   2.126   1.749
  619SOL    HW1 1877   2.710   2.065   1.792
  619SOL    HW2 1878   2.570   2.145   1.814
  620SOL     OW 1879   2.784   2.365   0.899
  620SOL    HW1 1880   2.759   2.356   0.803
  620SOL    HW2 1881   2.832   2.283   0.930
  621SOL     OW 1882   2.401   1.926   0.512
  621SOL    HW1 1883   2.320   1.927   0.570
  621SOL    HW2 1884   2.404   2.009   0.457
  622SOL     OW 1885   2.159   1.897   0.171
  622SOL    HW1 1886   2.208   1.981   0.150
  622SOL    HW2 1887   2.221   1.832   0.216
  623SOL     OW 1888   1.940   2.418   1.386
  623SOL    HW1 1889   2.032   2.417   1.345
  623SOL    HW2 1890   1.934   2.492   1.453
  624SOL     OW 1891   2.423   2.084   1.147
  624SOL    HW1 1892   2.461   2.000   1.184
  624SOL    HW2 1893   2.335   2.103   1.191
  625SOL     OW 1894   2.389   2.118   0.328
  625SOL    HW1 1895   2.416   2.059   0.253
  625SOL    HW2 1896   2.389   2.213   0.297
  626SOL     OW 1897   2.777   1.951   1.402
  626SOL    HW1 1898   2.802   1.931   1.307
  626SOL    HW2 1899   2.849   2.007   1.444
  627SOL     OW 1900   2.567   2.912   0.368
  627SOL    HW1 1901   2.553   2.919   0.467
  627SOL    HW2 1902   2.651   2.861   0.350
  628SOL     OW 1903   2.272   2.675   1.251
  628SOL    HW1 1904   2.358   2.687   1.301
  628SOL    HW2 1905   2.230   2.588   1.278
  629SOL     OW 1906   2.428   2.399   0.865
  629SOL    HW1 1907   2.440   2.465   0.791
  629SOL    HW2 1908   2.474   2.433   0.948
  630SOL     OW 1909   2.264   2.613   1.598
  630SOL    HW1 1910   2.332   2.668   1.551
  630SOL    HW2 1911   2.304   2.525   1.625
  631SOL     OW 1912   2.366   1.912   1.740
  631SOL    HW1 1913   2.324   1.855   1.670
  631SOL    HW2 1914   2.300   1.981   1.772
  632SOL     OW 1915   2.435   2.732   1.029
  632SOL    HW1 1916   2.479   2.821   1.020
  632SOL    HW2 1917   2.372   2.732   1.106
  633SOL     OW 1918   2.169   2.075   1.231
  633SOL    HW1 1919   2.146   2.112   1.321
  633SOL    HW2 1920   2.139   1.980   1.225
  634SOL     OW 1921   2.594   2.496   1.064
  634SOL    HW1 1922   2.653   2.470   0.988
  634SOL    HW2 1923   2.566   2.592   1.053
  635SOL     OW 1924   2.169   1.925   0.618
  635SOL    HW1 1925   2.158   2.019   0.651
  635SOL    HW2 1926   2.164   1.862   0.695
  636SOL     OW 1927   2.885   2.628   0.966
  636SOL    HW1 1928   2.900   2.649   1.062
  636SOL    HW2 1929   2.855   2.533   0.957
  637SOL     OW 1930   2.181   2.672   0.949
  637SOL    HW1 1931   2.274   2.708   0.954
  637SOL    HW2 1932   2.175   2.587   1.001
  638SOL     OW 1933   2.201   2.371   1.006
  638SOL    HW1 1934   2.149   2.288   0.989
  638SOL    HW2 1935   2.278   2.376   0.942
  639SOL     OW 1936   1.902   2.406   1.114
  639SOL    HW1 1937   1.987   2.373   1.073
  639SOL    HW2 1938   1.915   2.421   1.212
  640SOL     OW 1939   2.051   2.382   1.722
  640SOL    HW1 1940   2.110   2.342   1.652
  640SOL    HW2 1941   1.993   2.453   1.681
  641SOL     OW 1942   2.677   2.434   0.325
  641SOL    HW1 1943   2.684   2.345   0.279
  641SOL    HW2 1944   2.583   2.468   0.317
  642SOL     OW 1945   2.533   2.326   1.269
  642SOL    HW1 1946   2.499   2.237   1.239
  642SOL    HW2 1947   2.559   2.380   1.189
  643SOL     OW 1948   2.335   2.362   0.191
  643SOL    HW1 1949   2.396   2.442   0.195
  643SOL    HW2 1950   2.240   2.393   0.198
  644SOL     OW 1951   2.125   2.188   0.720
  644SOL    HW1 1952   2.046   2.239   0.686
  644SOL    HW2 1953   2.116   2.173   0.818
  645SOL     OW 1954   1.967   2.875   1.726
  645SOL    HW1 1955   1.890   2.842   1.780
  645SOL    HW2 1956   2.052   2.845   1.768
  646SOL     OW 1957   2.534   2.065   1.489
  646SOL    HW1 1958   2.624   2.049   1.449
  646SOL    HW2 1959   2.542   2.070   1.588
  647SOL     OW 1960   1.934   2.028   0.318
  647SOL    HW1 1961   1.917   2.111   0.264
  647SOL    HW2 1962   2.024   1.991   0.296
  648SOL     OW 1963   2.475   2.704   1.431
  648SOL    HW1 1964   2.531   2.785   1.414
  648SOL    HW2 1965   2.534   2.624   1.434
  649SOL     OW 1966   2.578   2.427   1.708
  649SOL    HW1 1967   2.597   2.492   1.782
  649SOL    HW2 1968   2.638   2.347   1.717
  650SOL     OW 1969   2.456   2.607   0.652
  650SOL    HW1 1970   2.506   2.692   0.633
  650SOL    HW2 1971   2.368   2.609   0.604
  651SOL     OW 1972   2.290   2.286   0.520
  651SOL    HW1 1973   2.320   2.214   0.458
  651SOL    HW2 1974   2.251   2.246   0.603
  652SOL     OW 1975   2.179   2.409   1.280
  652SOL    HW1 1976   2.217   2.350   1.352
  652SOL    HW2 1977   2.219   2.383   1.192
  653SOL     OW 1978   2.092   2.490   1.975
  653SOL    HW1 1979   1.999   2.488   2.012
  653SOL    HW2 1980   2.093   2.451   1.883
  654SOL     OW 1981   2.087   2.137   2.858
  654SOL    HW1 1982   2.122   2.120   2.950
  654SOL    HW2 1983   1.999   2.092   2.846
  655SOL     OW 1984   1.881   2.230   2.509
  655SOL    HW1 1985   1.799   2.273   2.548
  655SOL    HW2 1986   1.853   2.157   2.446
  656SOL     OW 1987   2.547   2.874   2.527
  656SOL    HW1 1988   2.616   2.858   2.597
  656SOL    HW2 1989   2.474   2.931   2.565
  657SOL     OW 1990   1.984   2.505   2.425
  657SOL    HW1 1991   1.939   2.417   2.442
  657SOL    HW2 1992   1.983   2.559   2.509
  658SOL     OW 1993   2.671   1.866   2.364
  658SOL    HW1 1994   2.711   1.957   2.355
  658SOL    HW2 1995   2.571   1.874   2.370
  659SOL     OW 1996   2.460   2.591   2.132
  659SOL    HW1 1997   2.484   2.660   2.064
  659SOL    HW2 1998   2.382   2.624   2.186
  660SOL     OW 1999   1.938   2.673   2.651
  660SOL    HW1 2000   2.037   2.661   2.660
  660SOL    HW2 2001   1.914   2.768   2.672
  661SOL     OW 2002   2.412   2.058   2.747
  661SOL    HW1 2003   2.407   2.053   2.847
  661SOL    HW2 2004   2.414   2.154   2.718
  662SOL     OW 2005   2.244   2.562   2.342
  662SOL    HW1 2006   2.289   2.472   2.339
  662SOL    HW2 2007   2.150   2.551   2.375
  663SOL     OW 2008   2.476   1.984   1.979
  663SOL    HW1 2009   2.574   1.962   1.986
  663SOL    HW2 2010   2.445   1.967   1.886
  664SOL     OW 2011   2.401   1.926   2.374
  664SOL    HW1 2012   2.320   1.927   2.432
  664SOL    HW2 2013   2.404   2.009   2.319
  665SOL     OW 2014   2.159   1.897   2.033
  665SOL    HW1 2015   2.208   1.981   2.012
  665SOL    HW2 2016   2.221   1.832   2.078
  666SOL     OW 2017   2.321   3.014   2.603
  666SOL    HW1 2018   2.250   2.987   2.668
  666SOL    HW2 2019   2.295   2.986   2.510
  667SOL     OW 2020   2.389   2.118   2.190
  667SOL    HW1 2021   2.416   2.059   2.115
  667SOL    HW2 2022   2.389   2.213   2.159
  668SOL     OW 2023   2.567   2.912   2.230
  668SOL    HW1 2024   2.553   2.919   2.329
  668SOL    HW2 2025   2.651   2.861   2.212
  669SOL     OW 2026   2.428   2.399   2.727
  669SOL    HW1 2027   2.440   2.465   2.653
  669SOL    HW2 2028   2.474   2.433   2.810
  670SOL     OW 2029   2.169   1.925   2.480
  670SOL    HW1 2030   2.158   2.019   2.513
  670SOL    HW2 2031   2.164   1.862   2.557
  671SOL     OW 2032   2.677   2.434   2.187
  671SOL    HW1 2033   2.684   2.345   2.141
  671SOL    HW2 2034   2.583   2.468   2.179
  672SOL     OW 2035   2.335   2.362   2.053
  672SOL    HW1 2036   2.396   2.442   2.057
  672SOL    HW2 2037   2.240   2.393   2.060
  673SOL     OW 2038   2.765   1.948   1.995
  673SOL    HW1 2039   2.816   1.949   1.909
  673SOL    HW2 2040   2.821   1.906   2.066
  674SOL     OW 2041   2.125   2.188   2.582
  674SOL    HW1 2042   2.046   2.239   2.548
  674SOL    HW2 2043   2.116   2.173   2.680
  675SOL     OW 2044   1.937   2.207   1.895
  675SOL    HW1 2045   1.845   2.179   1.866
  675SOL    HW2 2046   1.968   2.284   1.839
  676SOL     OW 2047   1.934   2.028   2.180
  676SOL    HW1 2048   1.917   2.111   2.126
  676SOL    HW2 2049   2.024   1.991   2.158
  677SOL     OW 2050   2.456   2.607   2.514
  677SOL    HW1 2051   2.506   2.692   2.495
  677SOL    HW2 2052   2.368   2.609   2.466
  678SOL     OW 2053   2.290   2.286   2.382
  678SOL    HW1 2054   2.320   2.214   2.320
  678SOL    HW2 2055   2.251   2.246   2.465
   2.76410   2.76410   2.76410
