mobley_6198745_GMX.gro created by acpype (v: 2023.10.27) on Thu May 14 13:49:20 2026
 2891
    1MOL     C1    1   1.313   1.656   1.340
    1MOL     C2    2   1.827   1.330   1.656
    1MOL     C3    3   1.466   1.659   1.637
    1MOL     C4    4   1.163   1.656   1.340
    1MOL     C5    5   1.846   1.307   1.803
    1MOL     C6    6   1.504   1.792   1.695
    1MOL     C7    7   1.501   1.510   1.348
    1MOL     C8    8   1.682   1.418   1.495
    1MOL     C9    9   1.547   1.487   1.492
    1MOL     O1   10   1.382   1.753   1.340
    1MOL     O2   11   1.905   1.300   1.572
    1MOL     O3   12   1.363   1.602   1.656
    1MOL     O4   13   1.361   1.532   1.341
    1MOL     O5   14   1.711   1.389   1.630
    1MOL     O6   15   1.563   1.611   1.559
    1MOL     H1   16   1.125   1.590   1.262
    1MOL     H2   17   1.127   1.757   1.325
    1MOL     H3   18   1.129   1.618   1.436
    1MOL     H4   19   1.843   1.402   1.856
    1MOL     H5   20   1.764   1.246   1.841
    1MOL     H6   21   1.940   1.257   1.820
    1MOL     H7   22   1.509   1.864   1.614
    1MOL     H8   23   1.429   1.822   1.767
    1MOL     H9   24   1.601   1.786   1.741
    1MOL    H10   25   1.518   1.421   1.290
    1MOL    H11   26   1.554   1.593   1.304
    1MOL    H12   27   1.679   1.326   1.438
    1MOL    H13   28   1.759   1.482   1.454
    1MOL    H14   29   1.473   1.427   1.544
    2SOL     OW   30   0.230   0.628   0.113
    2SOL    HW1   31   0.137   0.626   0.150
    2SOL    HW2   32   0.231   0.589   0.021
    3SOL     OW   33   0.225   0.275   0.996
    3SOL    HW1   34   0.260   0.258   1.088
    3SOL    HW2   35   0.137   0.230   0.984
    4SOL     OW   36   0.019   0.368   0.647
    4SOL    HW1   37  -0.063   0.411   0.686
    4SOL    HW2   38  -0.009   0.295   0.584
    5SOL     OW   39   0.569   1.275   1.165
    5SOL    HW1   40   0.476   1.268   1.128
    5SOL    HW2   41   0.580   1.364   1.209
    6SOL     OW   42   1.555   1.511   0.703
    6SOL    HW1   43   1.498   1.495   0.784
    6SOL    HW2   44   1.496   1.521   0.623
    7SOL     OW   45   1.135   0.703   0.717
    7SOL    HW1   46   1.192   0.781   0.692
    7SOL    HW2   47   1.075   0.729   0.793
    8SOL     OW   48   1.755   0.607   0.231
    8SOL    HW1   49   1.743   0.594   0.132
    8SOL    HW2   50   1.725   0.526   0.280
    9SOL     OW   51   0.768   1.144   1.023
    9SOL    HW1   52   0.690   1.161   1.083
    9SOL    HW2   53   0.802   1.231   0.987
   10SOL     OW   54   0.850   0.798   1.823
   10SOL    HW1   55   0.846   0.874   1.888
   10SOL    HW2   56   0.872   0.834   1.732
   11SOL     OW   57   0.685   1.012   0.665
   11SOL    HW1   58   0.754   0.996   0.735
   11SOL    HW2   59   0.612   1.069   0.703
   12SOL     OW   60   0.686   1.161   1.803
   12SOL    HW1   61   0.746   1.240   1.817
   12SOL    HW2   62   0.600   1.192   1.762
   13SOL     OW   63   0.335   1.435   1.061
   13SOL    HW1   64   0.257   1.404   1.008
   13SOL    HW2   65   0.393   1.493   1.004
   14SOL     OW   66   0.438   0.392   1.499
   14SOL    HW1   67   0.520   0.336   1.508
   14SOL    HW2   68   0.357   0.334   1.503
   15SOL     OW   69   1.603   0.447   0.737
   15SOL    HW1   70   1.529   0.493   0.687
   15SOL    HW2   71   1.654   0.515   0.790
   16SOL     OW   72   0.231   1.713   0.483
   16SOL    HW1   73   0.265   1.790   0.537
   16SOL    HW2   74   0.275   1.713   0.393
   17SOL     OW   75   1.127   1.341   1.690
   17SOL    HW1   76   1.174   1.341   1.778
   17SOL    HW2   77   1.079   1.254   1.679
   18SOL     OW   78   0.230   1.434   0.538
   18SOL    HW1   79   0.204   1.530   0.538
   18SOL    HW2   80   0.159   1.380   0.583
   19SOL     OW   81   0.240   1.091   0.886
   19SOL    HW1   82   0.254   1.007   0.938
   19SOL    HW2   83   0.185   1.155   0.941
   20SOL     OW   84   0.620   1.786   1.439
   20SOL    HW1   85   0.528   1.769   1.474
   20SOL    HW2   86   0.648   1.878   1.465
   21SOL     OW   87   0.606   0.964   0.123
   21SOL    HW1   88   0.613   1.048   0.069
   21SOL    HW2   89   0.652   0.977   0.211
   22SOL     OW   90   1.594   0.114   1.480
   22SOL    HW1   91   1.576   0.181   1.408
   22SOL    HW2   92   1.591   0.160   1.569
   23SOL     OW   93   0.122   0.643   0.563
   23SOL    HW1   94   0.077   0.555   0.580
   23SOL    HW2   95   0.121   0.697   0.647
   24SOL     OW   96   1.842   1.767   0.359
   24SOL    HW1   97   1.896   1.738   0.439
   24SOL    HW2   98   1.872   1.857   0.330
   25SOL     OW   99   0.027   1.596   0.117
   25SOL    HW1  100   0.008   1.500   0.138
   25SOL    HW2  101  -0.006   1.654   0.192
   26SOL     OW  102   1.689   0.922   0.612
   26SOL    HW1  103   1.784   0.893   0.620
   26SOL    HW2  104   1.681   0.987   0.537
   27SOL     OW  105   1.641   1.108   0.432
   27SOL    HW1  106   1.727   1.110   0.380
   27SOL    HW2  107   1.655   1.155   0.520
   28SOL     OW  108   0.113   0.737   1.597
   28SOL    HW1  109   0.201   0.724   1.642
   28SOL    HW2  110   0.100   0.834   1.575
   29SOL     OW  111   0.613   1.365   0.726
   29SOL    HW1  112   0.564   1.278   0.735
   29SOL    HW2  113   0.590   1.408   0.639
   30SOL     OW  114   1.293   1.228   1.423
   30SOL    HW1  115   1.330   1.155   1.365
   30SOL    HW2  116   1.345   1.233   1.508
   31SOL     OW  117   0.809   0.004   0.502
   31SOL    HW1  118   0.849   0.095   0.493
   31SOL    HW2  119   0.709   0.012   0.508
   32SOL     OW  120   0.197   0.976   1.264
   32SOL    HW1  121   0.286   0.931   1.250
   32SOL    HW2  122   0.124   0.911   1.245
   33SOL     OW  123   1.525   0.999   0.190
   33SOL    HW1  124   1.462   0.923   0.203
   33SOL    HW2  125   1.573   1.017   0.276
   34SOL     OW  126   1.187   1.792   1.616
   34SOL    HW1  127   1.211   1.852   1.540
   34SOL    HW2  128   1.194   1.697   1.586
   35SOL     OW  129   0.317   0.251   1.801
   35SOL    HW1  130   0.388   0.322   1.807
   35SOL    HW2  131   0.229   0.290   1.829
   36SOL     OW  132   1.466   1.417   0.953
   36SOL    HW1  133   1.407   1.423   1.033
   36SOL    HW2  134   1.451   1.329   0.907
   37SOL     OW  135   1.667   1.714   0.572
   37SOL    HW1  136   1.626   1.691   0.484
   37SOL    HW2  137   1.649   1.640   0.637
   38SOL     OW  138   0.598   0.729   0.270
   38SOL    HW1  139   0.622   0.798   0.202
   38SOL    HW2  140   0.520   0.762   0.324
   39SOL     OW  141   1.281   0.345   0.944
   39SOL    HW1  142   1.195   0.295   0.931
   39SOL    HW2  143   1.343   0.291   1.000
   40SOL     OW  144   1.576   1.662   0.307
   40SOL    HW1  145   1.665   1.708   0.310
   40SOL    HW2  146   1.555   1.638   0.212
   41SOL     OW  147   0.807   0.605   1.465
   41SOL    HW1  148   0.760   0.602   1.554
   41SOL    HW2  149   0.756   0.550   1.399
   42SOL     OW  150   1.394   0.469   1.674
   42SOL    HW1  151   1.374   0.512   1.762
   42SOL    HW2  152   1.472   0.407   1.683
   43SOL     OW  153   0.973   0.890   1.572
   43SOL    HW1  154   1.019   0.806   1.543
   43SOL    HW2  155   0.917   0.924   1.497
   44SOL     OW  156   0.991   0.410   1.242
   44SOL    HW1  157   0.914   0.444   1.296
   44SOL    HW2  158   0.957   0.359   1.163
   45SOL     OW  159   1.041   0.701   0.429
   45SOL    HW1  160   1.067   0.697   0.525
   45SOL    HW2  161   0.956   0.650   0.415
   46SOL     OW  162   0.076   0.811   0.789
   46SOL    HW1  163   0.175   0.799   0.798
   46SOL    HW2  164   0.052   0.906   0.810
   47SOL     OW  165   0.130   1.821   1.571
   47SOL    HW1  166   0.120   1.806   1.670
   47SOL    HW2  167   0.044   1.857   1.535
   48SOL     OW  168   0.865   0.348   0.195
   48SOL    HW1  169   0.924   0.411   0.146
   48SOL    HW2  170   0.884   0.254   0.166
   49SOL     OW  171   1.719   0.585   1.831
   49SOL    HW1  172   1.693   0.674   1.795
   49SOL    HW2  173   1.717   0.517   1.758
   50SOL     OW  174   1.362   1.144   0.545
   50SOL    HW1  175   1.445   1.115   0.497
   50SOL    HW2  176   1.313   1.211   0.489
   51SOL     OW  177   0.550   0.196   0.885
   51SOL    HW1  178   0.545   0.191   0.985
   51SOL    HW2  179   0.552   0.292   0.856
   52SOL     OW  180   1.008   1.456   0.477
   52SOL    HW1  181   0.962   1.528   0.425
   52SOL    HW2  182   1.004   1.476   0.575
   53SOL     OW  183   0.351   1.801   0.853
   53SOL    HW1  184   0.401   1.715   0.859
   53SOL    HW2  185   0.416   1.878   0.850
   54SOL     OW  186   1.795   1.066   0.873
   54SOL    HW1  187   1.733   1.051   0.797
   54SOL    HW2  188   1.743   1.077   0.958
   55SOL     OW  189   0.321   0.943   0.242
   55SOL    HW1  190   0.403   0.982   0.200
   55SOL    HW2  191   0.294   0.861   0.193
   56SOL     OW  192   1.458   0.735   0.728
   56SOL    HW1  193   1.453   0.670   0.803
   56SOL    HW2  194   1.538   0.794   0.741
   57SOL     OW  195   0.461   1.266   1.727
   57SOL    HW1  196   0.411   1.267   1.641
   57SOL    HW2  197   0.398   1.248   1.803
   58SOL     OW  198   1.111   1.776   0.237
   58SOL    HW1  199   1.051   1.714   0.287
   58SOL    HW2  200   1.142   1.732   0.152
   59SOL     OW  201   0.202   0.285   1.498
   59SOL    HW1  202   0.122   0.345   1.485
   59SOL    HW2  203   0.192   0.236   1.584
   60SOL     OW  204   1.632   1.377   0.081
   60SOL    HW1  205   1.600   1.471   0.071
   60SOL    HW2  206   1.556   1.314   0.069
   61SOL     OW  207   0.464   1.743   0.323
   61SOL    HW1  208   0.497   1.782   0.409
   61SOL    HW2  209   0.540   1.736   0.258
   62SOL     OW  210   1.400   0.107   0.426
   62SOL    HW1  211   1.376   0.070   0.336
   62SOL    HW2  212   1.499   0.123   0.430
   63SOL     OW  213   0.249   1.785   1.241
   63SOL    HW1  214   0.306   1.720   1.291
   63SOL    HW2  215   0.233   1.752   1.148
   64SOL     OW  216   0.940   1.698   0.904
   64SOL    HW1  217   1.020   1.641   0.925
   64SOL    HW2  218   0.891   1.658   0.827
   65SOL     OW  219   0.382   0.700   0.480
   65SOL    HW1  220   0.427   0.610   0.477
   65SOL    HW2  221   0.288   0.689   0.513
   66SOL     OW  222   1.547   0.222   1.729
   66SOL    HW1  223   1.542   0.259   1.821
   66SOL    HW2  224   1.475   0.153   1.717
   67SOL     OW  225   0.614   0.122   0.117
   67SOL    HW1  226   0.712   0.100   0.124
   67SOL    HW2  227   0.583   0.105   0.024
   68SOL     OW  228   0.781   0.264   1.749
   68SOL    HW1  229   0.848   0.203   1.792
   68SOL    HW2  230   0.708   0.283   1.814
   69SOL     OW  231   0.888   1.514   1.195
   69SOL    HW1  232   0.865   1.489   1.101
   69SOL    HW2  233   0.949   1.445   1.234
   70SOL     OW  234   1.351   0.590   1.433
   70SOL    HW1  235   1.379   0.547   1.518
   70SOL    HW2  236   1.376   0.686   1.434
   71SOL     OW  237   0.803   1.402   0.924
   71SOL    HW1  238   0.893   1.416   0.882
   71SOL    HW2  239   0.732   1.404   0.853
   72SOL     OW  240   0.922   0.503   0.899
   72SOL    HW1  241   0.897   0.494   0.803
   72SOL    HW2  242   0.970   0.421   0.930
   73SOL     OW  243   0.539   0.064   0.512
   73SOL    HW1  244   0.458   0.065   0.570
   73SOL    HW2  245   0.542   0.147   0.457
   74SOL     OW  246   1.434   1.188   0.041
   74SOL    HW1  247   1.466   1.112   0.098
   74SOL    HW2  248   1.342   1.215   0.071
   75SOL     OW  249   0.297   0.035   0.171
   75SOL    HW1  250   0.346   0.119   0.150
   75SOL    HW2  251   0.359  -0.030   0.216
   76SOL     OW  252   0.935   0.236   0.480
   76SOL    HW1  253   0.887   0.277   0.402
   76SOL    HW2  254   1.034   0.234   0.461
   77SOL     OW  255   1.076   0.683   1.464
   77SOL    HW1  256   0.996   0.622   1.467
   77SOL    HW2  257   1.157   0.630   1.440
   78SOL     OW  258   1.227   1.570   0.793
   78SOL    HW1  259   1.248   1.644   0.728
   78SOL    HW2  260   1.295   1.570   0.866
   79SOL     OW  261   0.459   1.152   0.741
   79SOL    HW1  262   0.388   1.125   0.806
   79SOL    HW2  263   0.433   1.124   0.648
   80SOL     OW  264   1.271   1.797   0.591
   80SOL    HW1  265   1.315   1.861   0.527
   80SOL    HW2  266   1.221   1.849   0.661
   81SOL     OW  267   1.032   0.549   0.016
   81SOL    HW1  268   0.991   0.631  -0.023
   81SOL    HW2  269   1.096   0.575   0.089
   82SOL     OW  270   0.078   0.556   1.386
   82SOL    HW1  271   0.170   0.555   1.345
   82SOL    HW2  272   0.072   0.630   1.453
   83SOL     OW  273   0.561   0.222   1.147
   83SOL    HW1  274   0.599   0.138   1.184
   83SOL    HW2  275   0.473   0.241   1.191
   84SOL     OW  276   0.866   0.454   0.642
   84SOL    HW1  277   0.834   0.526   0.580
   84SOL    HW2  278   0.890   0.373   0.589
   85SOL     OW  279   1.017   0.039   0.753
   85SOL    HW1  280   0.945   0.044   0.684
   85SOL    HW2  281   0.993  -0.030   0.822
   86SOL     OW  282   1.429   1.173   0.867
   86SOL    HW1  283   1.374   1.089   0.860
   86SOL    HW2  284   1.455   1.202   0.775
   87SOL     OW  285   1.466   0.590   0.992
   87SOL    HW1  286   1.436   0.495   0.999
   87SOL    HW2  287   1.539   0.606   1.058
   88SOL     OW  288   1.857   0.833   0.377
   88SOL    HW1  289   1.899   0.769   0.441
   88SOL    HW2  290   1.819   0.782   0.299
   89SOL     OW  291   0.488   1.385   0.174
   89SOL    HW1  292   0.401   1.370   0.221
   89SOL    HW2  293   0.471   1.411   0.079
   90SOL     OW  294   1.664   1.280   0.657
   90SOL    HW1  295   1.763   1.288   0.671
   90SOL    HW2  296   1.619   1.364   0.688
   91SOL     OW  297   1.390   0.575   0.078
   91SOL    HW1  298   1.336   0.554   0.159
   91SOL    HW2  299   1.481   0.534   0.087
   92SOL     OW  300   0.527   0.256   0.328
   92SOL    HW1  301   0.554   0.197   0.253
   92SOL    HW2  302   0.527   0.351   0.297
   93SOL     OW  303   1.064   1.347   1.340
   93SOL    HW1  304   0.984   1.324   1.395
   93SOL    HW2  305   1.147   1.321   1.389
   94SOL     OW  306   1.111   1.195   1.100
   94SOL    HW1  307   1.071   1.239   1.181
   94SOL    HW2  308   1.070   1.232   1.017
   95SOL     OW  309   1.638   1.099   1.079
   95SOL    HW1  310   1.643   1.180   1.138
   95SOL    HW2  311   1.552   1.101   1.028
   96SOL     OW  312   0.915   0.089   1.402
   96SOL    HW1  313   0.940   0.069   1.307
   96SOL    HW2  314   0.987   0.145   1.444
   97SOL     OW  315   0.980   1.116   1.719
   97SOL    HW1  316   0.881   1.122   1.729
   97SOL    HW2  317   1.003   1.036   1.663
   98SOL     OW  318   0.705   1.050   0.368
   98SOL    HW1  319   0.691   1.057   0.467
   98SOL    HW2  320   0.789   0.999   0.350
   99SOL     OW  321   0.410   0.813   1.251
   99SOL    HW1  322   0.496   0.825   1.301
   99SOL    HW2  323   0.368   0.726   1.278
  100SOL     OW  324   1.274   0.386   1.262
  100SOL    HW1  325   1.295   0.460   1.326
  100SOL    HW2  326   1.185   0.403   1.219
  101SOL     OW  327   0.064   1.564   1.331
  101SOL    HW1  328   0.018   1.646   1.297
  101SOL    HW2  329   0.162   1.583   1.340
  102SOL     OW  330   0.367   1.100   0.501
  102SOL    HW1  331   0.360   1.183   0.445
  102SOL    HW2  332   0.371   1.020   0.441
  103SOL     OW  333   0.566   0.537   0.865
  103SOL    HW1  334   0.578   0.603   0.791
  103SOL    HW2  335   0.612   0.571   0.948
  104SOL     OW  336   1.252   1.348   0.388
  104SOL    HW1  337   1.302   1.425   0.428
  104SOL    HW2  338   1.157   1.350   0.420
  105SOL     OW  339   1.582   0.639   0.472
  105SOL    HW1  340   1.551   0.700   0.545
  105SOL    HW2  341   1.632   0.691   0.403
  106SOL     OW  342   0.354   1.510   1.329
  106SOL    HW1  343   0.333   1.466   1.242
  106SOL    HW2  344   0.451   1.536   1.332
  107SOL     OW  345   0.402   0.751   1.598
  107SOL    HW1  346   0.470   0.806   1.551
  107SOL    HW2  347   0.442   0.663   1.625
  108SOL     OW  348   1.587   0.779   1.670
  108SOL    HW1  349   1.495   0.817   1.665
  108SOL    HW2  350   1.647   0.826   1.605
  109SOL     OW  351   1.013   0.105   1.770
  109SOL    HW1  352   1.019   0.190   1.718
  109SOL    HW2  353   1.045   0.029   1.713
  110SOL     OW  354   0.504   0.050   1.740
  110SOL    HW1  355   0.462  -0.007   1.670
  110SOL    HW2  356   0.438   0.119   1.772
  111SOL     OW  357   0.573   0.870   1.029
  111SOL    HW1  358   0.617   0.959   1.020
  111SOL    HW2  359   0.510   0.870   1.106
  112SOL     OW  360   1.360   0.862   1.045
  112SOL    HW1  361   1.285   0.862   0.979
  112SOL    HW2  362   1.397   0.770   1.054
  113SOL     OW  363   1.209   0.525   0.275
  113SOL    HW1  364   1.222   0.441   0.329
  113SOL    HW2  365   1.180   0.599   0.335
  114SOL     OW  366   0.307   0.213   1.231
  114SOL    HW1  367   0.284   0.250   1.321
  114SOL    HW2  368   0.277   0.118   1.225
  115SOL     OW  369   0.037   1.310   1.282
  115SOL    HW1  370   0.090   1.261   1.350
  115SOL    HW2  371   0.059   1.408   1.287
  116SOL     OW  372   0.732   0.634   1.064
  116SOL    HW1  373   0.791   0.608   0.988
  116SOL    HW2  374   0.704   0.730   1.053
  117SOL     OW  375   1.728   0.935   1.854
  117SOL    HW1  376   1.682   0.928   1.765
  117SOL    HW2  377   1.666   0.979   1.920
  118SOL     OW  378   0.307   0.063   0.618
  118SOL    HW1  379   0.296   0.157   0.651
  118SOL    HW2  380   0.302   0.000   0.695
  119SOL     OW  381   1.622   0.367   0.374
  119SOL    HW1  382   1.624   0.291   0.438
  119SOL    HW2  383   1.574   0.444   0.414
  120SOL     OW  384   1.023   0.766   0.966
  120SOL    HW1  385   1.038   0.787   1.062
  120SOL    HW2  386   0.993   0.671   0.957
  121SOL     OW  387   0.980   1.573   1.700
  121SOL    HW1  388   0.960   1.617   1.612
  121SOL    HW2  389   1.019   1.482   1.684
  122SOL     OW  390   1.859   1.518   1.605
  122SOL    HW1  391   1.873   1.545   1.510
  122SOL    HW2  392   1.942   1.540   1.658
  123SOL     OW  393   0.350   0.898   1.804
  123SOL    HW1  394   0.426   0.942   1.852
  123SOL    HW2  395   0.385   0.851   1.722
  124SOL     OW  396   1.540   0.274   0.125
  124SOL    HW1  397   1.479   0.199   0.148
  124SOL    HW2  398   1.562   0.326   0.208
  125SOL     OW  399   1.303   0.838   0.042
  125SOL    HW1  400   1.337   0.745   0.057
  125SOL    HW2  401   1.321   0.865  -0.053
  126SOL     OW  402   1.068   1.333   0.849
  126SOL    HW1  403   1.075   1.249   0.794
  126SOL    HW2  404   1.130   1.402   0.813
  127SOL     OW  405   0.319   0.810   0.949
  127SOL    HW1  406   0.412   0.846   0.954
  127SOL    HW2  407   0.313   0.725   1.001
  128SOL     OW  408   0.339   0.509   1.006
  128SOL    HW1  409   0.287   0.426   0.989
  128SOL    HW2  410   0.416   0.514   0.942
  129SOL     OW  411   1.138   0.380   1.678
  129SOL    HW1  412   1.093   0.443   1.742
  129SOL    HW2  413   1.231   0.411   1.661
  130SOL     OW  414   1.160   0.207   1.477
  130SOL    HW1  415   1.160   0.271   1.554
  130SOL    HW2  416   1.188   0.255   1.394
  131SOL     OW  417   0.008   1.326   0.200
  131SOL    HW1  418  -0.085   1.347   0.169
  131SOL    HW2  419   0.018   1.227   0.213
  132SOL     OW  420   0.088   1.801   0.927
  132SOL    HW1  421   0.046   1.715   0.900
  132SOL    HW2  422   0.182   1.804   0.893
  133SOL     OW  423   0.504   1.568   0.910
  133SOL    HW1  424   0.570   1.642   0.919
  133SOL    HW2  425   0.548   1.489   0.868
  134SOL     OW  426   1.002   0.796   1.238
  134SOL    HW1  427   1.043   0.764   1.324
  134SOL    HW2  428   0.906   0.769   1.235
  135SOL     OW  429   0.040   0.544   1.114
  135SOL    HW1  430   0.125   0.511   1.073
  135SOL    HW2  431   0.053   0.559   1.212
  136SOL     OW  432   0.189   0.520   1.722
  136SOL    HW1  433   0.248   0.480   1.652
  136SOL    HW2  434   0.131   0.591   1.681
  137SOL     OW  435   1.369   0.950   1.660
  137SOL    HW1  436   1.408   1.039   1.680
  137SOL    HW2  437   1.379   0.930   1.563
  138SOL     OW  438   0.815   0.572   0.325
  138SOL    HW1  439   0.822   0.483   0.279
  138SOL    HW2  440   0.721   0.606   0.317
  139SOL     OW  441   1.657   0.604   1.206
  139SOL    HW1  442   1.619   0.535   1.268
  139SOL    HW2  443   1.739   0.568   1.162
  140SOL     OW  444   0.252   1.564   1.744
  140SOL    HW1  445   0.222   1.621   1.820
  140SOL    HW2  446   0.245   1.467   1.770
  141SOL     OW  447   0.671   0.464   1.269
  141SOL    HW1  448   0.637   0.375   1.239
  141SOL    HW2  449   0.697   0.518   1.189
  142SOL     OW  450   0.930   1.678   1.465
  142SOL    HW1  451   0.906   1.660   1.370
  142SOL    HW2  452   0.960   1.772   1.475
  143SOL     OW  453   0.473   0.500   0.191
  143SOL    HW1  454   0.534   0.580   0.195
  143SOL    HW2  455   0.378   0.531   0.198
  144SOL     OW  456   0.159   1.137   1.466
  144SOL    HW1  457   0.181   1.076   1.542
  144SOL    HW2  458   0.169   1.088   1.380
  145SOL     OW  459   1.347   1.059   1.234
  145SOL    HW1  460   1.371   0.996   1.160
  145SOL    HW2  461   1.257   1.099   1.216
  146SOL     OW  462   1.302   0.855   0.309
  146SOL    HW1  463   1.216   0.824   0.351
  146SOL    HW2  464   1.298   0.841   0.210
  147SOL     OW  465   1.759   1.747   1.154
  147SOL    HW1  466   1.820   1.777   1.081
  147SOL    HW2  467   1.721   1.658   1.132
  148SOL     OW  468   1.252   1.731   1.128
  148SOL    HW1  469   1.336   1.736   1.074
  148SOL    HW2  470   1.229   1.635   1.146
  149SOL     OW  471   0.083   1.258   1.022
  149SOL    HW1  472   0.078   1.257   1.122
  149SOL    HW2  473   0.000   1.217   0.984
  150SOL     OW  474   0.688   1.662   1.716
  150SOL    HW1  475   0.632   1.743   1.725
  150SOL    HW2  476   0.740   1.666   1.630
  151SOL     OW  477   0.903   0.086   0.133
  151SOL    HW1  478   0.954   0.087   0.047
  151SOL    HW2  479   0.959   0.044   0.204
  152SOL     OW  480   1.726   0.135   0.523
  152SOL    HW1  481   1.799   0.118   0.456
  152SOL    HW2  482   1.695   0.048   0.561
  153SOL     OW  483   1.388   1.573   0.477
  153SOL    HW1  484   1.455   1.585   0.403
  153SOL    HW2  485   1.348   1.662   0.500
  154SOL     OW  486   0.130   1.794   1.851
  154SOL    HW1  487   0.089   1.720   1.904
  154SOL    HW2  488   0.194   1.845   1.909
  155SOL     OW  489   1.280   0.927   0.672
  155SOL    HW1  490   1.340   0.846   0.674
  155SOL    HW2  491   1.320   0.996   0.612
  156SOL     OW  492   0.830   1.273   1.422
  156SOL    HW1  493   0.825   1.306   1.517
  156SOL    HW2  494   0.744   1.292   1.376
  157SOL     OW  495   0.672   1.616   0.154
  157SOL    HW1  496   0.681   1.626   0.055
  157SOL    HW2  497   0.632   1.527   0.175
  158SOL     OW  498   1.650   1.720   1.394
  158SOL    HW1  499   1.703   1.730   1.310
  158SOL    HW2  500   1.623   1.810   1.428
  159SOL     OW  501   1.841   0.175   0.963
  159SOL    HW1  502   1.880   0.090   0.927
  159SOL    HW2  503   1.743   0.177   0.944
  160SOL     OW  504   0.263   0.326   0.720
  160SOL    HW1  505   0.184   0.377   0.686
  160SOL    HW2  506   0.254   0.311   0.818
  161SOL     OW  507   1.194   1.612   0.031
  161SOL    HW1  508   1.200   1.519   0.068
  161SOL    HW2  509   1.135   1.612  -0.049
  162SOL     OW  510   0.822   1.002   1.372
  162SOL    HW1  511   0.862   1.001   1.280
  162SOL    HW2  512   0.832   1.094   1.412
  163SOL     OW  513   0.916   0.910   0.291
  163SOL    HW1  514   0.979   0.948   0.223
  163SOL    HW2  515   0.956   0.827   0.330
  164SOL     OW  516   1.504   1.607   0.044
  164SOL    HW1  517   1.412   1.644   0.051
  164SOL    HW2  518   1.542   1.627  -0.046
  165SOL     OW  519   0.372   1.288   1.490
  165SOL    HW1  520   0.359   1.381   1.456
  165SOL    HW2  521   0.288   1.236   1.477
  166SOL     OW  522   1.039   1.098   0.696
  166SOL    HW1  523   0.969   1.051   0.750
  166SOL    HW2  524   1.098   1.030   0.653
  167SOL     OW  525   1.014   0.236   0.971
  167SOL    HW1  526   1.006   0.200   0.878
  167SOL    HW2  527   1.012   0.160   1.036
  168SOL     OW  528   0.590   1.487   0.491
  168SOL    HW1  529   0.632   1.429   0.421
  168SOL    HW2  530   0.546   1.566   0.447
  169SOL     OW  531   1.709   0.385   1.381
  169SOL    HW1  532   1.782   0.454   1.385
  169SOL    HW2  533   1.737   0.310   1.322
  170SOL     OW  534   0.255   1.348   0.290
  170SOL    HW1  535   0.159   1.349   0.263
  170SOL    HW2  536   0.267   1.401   0.374
  171SOL     OW  537   0.105   1.013   1.726
  171SOL    HW1  538   0.028   0.980   1.780
  171SOL    HW2  539   0.190   0.983   1.768
  172SOL     OW  540   0.672   0.203   1.489
  172SOL    HW1  541   0.762   0.187   1.449
  172SOL    HW2  542   0.680   0.208   1.588
  173SOL     OW  543   0.075   0.345   0.033
  173SOL    HW1  544  -0.017   0.317   0.004
  173SOL    HW2  545   0.106   0.422  -0.023
  174SOL     OW  546   1.440   0.856   1.398
  174SOL    HW1  547   1.383   0.908   1.335
  174SOL    HW2  548   1.536   0.868   1.374
  175SOL     OW  549   0.072   0.166   0.318
  175SOL    HW1  550   0.055   0.249   0.264
  175SOL    HW2  551   0.162   0.129   0.296
  176SOL     OW  552   1.183   1.335   0.119
  176SOL    HW1  553   1.084   1.324   0.121
  176SOL    HW2  554   1.217   1.350   0.212
  177SOL     OW  555   0.613   0.842   1.431
  177SOL    HW1  556   0.669   0.923   1.414
  177SOL    HW2  557   0.672   0.762   1.434
  178SOL     OW  558   1.493   1.767   0.959
  178SOL    HW1  559   1.526   1.831   0.890
  178SOL    HW2  560   1.559   1.761   1.034
  179SOL     OW  561   0.716   0.565   1.708
  179SOL    HW1  562   0.735   0.630   1.782
  179SOL    HW2  563   0.776   0.485   1.717
  180SOL     OW  564   1.450   1.220   1.633
  180SOL    HW1  565   1.441   1.210   1.732
  180SOL    HW2  566   1.546   1.213   1.607
  181SOL     OW  567   0.390   1.741   1.560
  181SOL    HW1  568   0.299   1.782   1.558
  181SOL    HW2  569   0.383   1.647   1.592
  182SOL     OW  570   1.674   0.883   1.254
  182SOL    HW1  571   1.647   0.794   1.217
  182SOL    HW2  572   1.675   0.951   1.181
  183SOL     OW  573   1.225   0.325   0.449
  183SOL    HW1  574   1.290   0.251   0.438
  183SOL    HW2  575   1.245   0.375   0.533
  184SOL     OW  576   0.594   0.745   0.652
  184SOL    HW1  577   0.644   0.830   0.633
  184SOL    HW2  578   0.506   0.747   0.604
  185SOL     OW  579   1.777   0.342   1.642
  185SOL    HW1  580   1.760   0.373   1.548
  185SOL    HW2  581   1.693   0.305   1.680
  186SOL     OW  582   1.730   0.934   1.517
  186SOL    HW1  583   1.768   1.025   1.532
  186SOL    HW2  584   1.722   0.917   1.418
  187SOL     OW  585   0.859   1.374   0.016
  187SOL    HW1  586   0.813   1.389   0.104
  187SOL    HW2  587   0.903   1.459  -0.014
  188SOL     OW  588   0.661   1.790   0.953
  188SOL    HW1  589   0.615   1.878   0.940
  188SOL    HW2  590   0.760   1.802   0.946
  189SOL     OW  591   0.859   0.956   0.861
  189SOL    HW1  592   0.913   0.887   0.909
  189SOL    HW2  593   0.827   1.025   0.927
  190SOL     OW  594   1.083   0.984   0.087
  190SOL    HW1  595   1.060   1.037   0.005
  190SOL    HW2  596   1.164   0.928   0.068
  191SOL     OW  597   1.861   1.569   0.851
  191SOL    HW1  598   1.790   1.557   0.781
  191SOL    HW2  599   1.862   1.490   0.911
  192SOL     OW  600   0.221   1.314   1.844
  192SOL    HW1  601   0.156   1.241   1.823
  192SOL    HW2  602   0.225   1.328   1.942
  193SOL     OW  603   0.079   1.240   0.653
  193SOL    HW1  604   0.078   1.193   0.741
  193SOL    HW2  605   0.161   1.212   0.602
  194SOL     OW  606   0.672   1.391   1.624
  194SOL    HW1  607   0.594   1.341   1.662
  194SOL    HW2  608   0.669   1.486   1.655
  195SOL     OW  609   1.824   0.192   1.227
  195SOL    HW1  610   1.820   0.102   1.271
  195SOL    HW2  611   1.827   0.181   1.128
  196SOL     OW  612   0.428   0.424   0.520
  196SOL    HW1  613   0.458   0.352   0.458
  196SOL    HW2  614   0.389   0.384   0.603
  197SOL     OW  615   1.705   1.487   1.104
  197SOL    HW1  616   1.612   1.462   1.077
  197SOL    HW2  617   1.731   1.437   1.186
  198SOL     OW  618   0.317   0.547   1.280
  198SOL    HW1  619   0.355   0.488   1.352
  198SOL    HW2  620   0.357   0.521   1.192
  199SOL     OW  621   0.812   1.586   0.687
  199SOL    HW1  622   0.844   1.596   0.593
  199SOL    HW2  623   0.733   1.524   0.689
  200SOL     OW  624   1.424   0.214   1.112
  200SOL    HW1  625   1.476   0.149   1.167
  200SOL    HW2  626   1.375   0.277   1.173
  201SOL     OW  627   1.001   0.034   1.154
  201SOL    HW1  628   0.938  -0.038   1.123
  201SOL    HW2  629   1.094  -0.002   1.154
  202SOL     OW  630   0.770   1.330   0.301
  202SOL    HW1  631   0.724   1.243   0.318
  202SOL    HW2  632   0.861   1.327   0.342
  203SOL     OW  633   0.618   1.567   1.284
  203SOL    HW1  634   0.613   1.649   1.341
  203SOL    HW2  635   0.707   1.564   1.239
  204SOL     OW  636   1.352   0.052   0.168
  204SOL    HW1  637   1.387   0.011   0.084
  204SOL    HW2  638   1.262   0.014   0.188
  205SOL     OW  639   1.300   0.453   0.691
  205SOL    HW1  640   1.241   0.533   0.695
  205SOL    HW2  641   1.315   0.418   0.784
  206SOL     OW  642   1.593   0.221   0.882
  206SOL    HW1  643   1.509   0.220   0.936
  206SOL    HW2  644   1.595   0.304   0.826
  207SOL     OW  645   0.039   1.077   0.300
  207SOL    HW1  646   0.138   1.066   0.291
  207SOL    HW2  647  -0.001   0.991   0.332
  208SOL     OW  648   0.875   1.646   0.337
  208SOL    HW1  649   0.798   1.611   0.283
  208SOL    HW2  650   0.843   1.717   0.399
  209SOL     OW  651   0.230   0.628   1.975
  209SOL    HW1  652   0.137   0.626   2.012
  209SOL    HW2  653   0.231   0.589   1.883
  210SOL     OW  654   0.225   0.275   2.858
  210SOL    HW1  655   0.260   0.258   2.950
  210SOL    HW2  656   0.137   0.230   2.846
  211SOL     OW  657   0.019   0.368   2.509
  211SOL    HW1  658  -0.063   0.411   2.548
  211SOL    HW2  659  -0.009   0.295   2.446
  212SOL     OW  660   0.569   1.275   3.027
  212SOL    HW1  661   0.476   1.268   2.990
  212SOL    HW2  662   0.580   1.364   3.071
  213SOL     OW  663   1.555   1.511   2.565
  213SOL    HW1  664   1.498   1.495   2.646
  213SOL    HW2  665   1.496   1.521   2.485
  214SOL     OW  666   1.135   0.703   2.579
  214SOL    HW1  667   1.192   0.781   2.554
  214SOL    HW2  668   1.075   0.729   2.655
  215SOL     OW  669   1.755   0.607   2.093
  215SOL    HW1  670   1.743   0.594   1.994
  215SOL    HW2  671   1.725   0.526   2.142
  216SOL     OW  672   0.768   1.144   2.885
  216SOL    HW1  673   0.690   1.161   2.945
  216SOL    HW2  674   0.802   1.231   2.849
  217SOL     OW  675   0.685   1.012   2.527
  217SOL    HW1  676   0.754   0.996   2.597
  217SOL    HW2  677   0.612   1.069   2.565
  218SOL     OW  678   0.335   1.435   2.923
  218SOL    HW1  679   0.257   1.404   2.870
  218SOL    HW2  680   0.393   1.493   2.866
  219SOL     OW  681   1.603   0.447   2.599
  219SOL    HW1  682   1.529   0.493   2.549
  219SOL    HW2  683   1.654   0.515   2.652
  220SOL     OW  684   0.231   1.713   2.345
  220SOL    HW1  685   0.265   1.790   2.399
  220SOL    HW2  686   0.275   1.713   2.255
  221SOL     OW  687   0.230   1.434   2.400
  221SOL    HW1  688   0.204   1.530   2.400
  221SOL    HW2  689   0.159   1.380   2.445
  222SOL     OW  690   0.240   1.091   2.748
  222SOL    HW1  691   0.254   1.007   2.800
  222SOL    HW2  692   0.185   1.155   2.803
  223SOL     OW  693   0.606   0.964   1.985
  223SOL    HW1  694   0.613   1.048   1.931
  223SOL    HW2  695   0.652   0.977   2.073
  224SOL     OW  696   0.122   0.643   2.425
  224SOL    HW1  697   0.077   0.555   2.442
  224SOL    HW2  698   0.121   0.697   2.509
  225SOL     OW  699   1.842   1.767   2.221
  225SOL    HW1  700   1.896   1.738   2.301
  225SOL    HW2  701   1.872   1.857   2.192
  226SOL     OW  702   0.027   1.596   1.979
  226SOL    HW1  703   0.008   1.500   2.000
  226SOL    HW2  704  -0.006   1.654   2.054
  227SOL     OW  705   1.689   0.922   2.474
  227SOL    HW1  706   1.784   0.893   2.482
  227SOL    HW2  707   1.681   0.987   2.399
  228SOL     OW  708   1.641   1.108   2.294
  228SOL    HW1  709   1.727   1.110   2.242
  228SOL    HW2  710   1.655   1.155   2.382
  229SOL     OW  711   0.613   1.365   2.588
  229SOL    HW1  712   0.564   1.278   2.597
  229SOL    HW2  713   0.590   1.408   2.501
  230SOL     OW  714   0.809   0.004   2.364
  230SOL    HW1  715   0.849   0.095   2.355
  230SOL    HW2  716   0.709   0.012   2.370
  231SOL     OW  717   0.197   0.976   3.126
  231SOL    HW1  718   0.286   0.931   3.112
  231SOL    HW2  719   0.124   0.911   3.107
  232SOL     OW  720   1.525   0.999   2.052
  232SOL    HW1  721   1.462   0.923   2.065
  232SOL    HW2  722   1.573   1.017   2.138
  233SOL     OW  723   1.466   1.417   2.815
  233SOL    HW1  724   1.407   1.423   2.895
  233SOL    HW2  725   1.451   1.329   2.769
  234SOL     OW  726   1.667   1.714   2.434
  234SOL    HW1  727   1.626   1.691   2.346
  234SOL    HW2  728   1.649   1.640   2.499
  235SOL     OW  729   0.598   0.729   2.132
  235SOL    HW1  730   0.622   0.798   2.064
  235SOL    HW2  731   0.520   0.762   2.186
  236SOL     OW  732   1.281   0.345   2.806
  236SOL    HW1  733   1.195   0.295   2.793
  236SOL    HW2  734   1.343   0.291   2.862
  237SOL     OW  735   1.576   1.662   2.169
  237SOL    HW1  736   1.665   1.708   2.172
  237SOL    HW2  737   1.555   1.638   2.074
  238SOL     OW  738   1.041   0.701   2.291
  238SOL    HW1  739   1.067   0.697   2.387
  238SOL    HW2  740   0.956   0.650   2.277
  239SOL     OW  741   0.076   0.811   2.651
  239SOL    HW1  742   0.175   0.799   2.660
  239SOL    HW2  743   0.052   0.906   2.672
  240SOL     OW  744   0.865   0.348   2.057
  240SOL    HW1  745   0.924   0.411   2.008
  240SOL    HW2  746   0.884   0.254   2.028
  241SOL     OW  747   1.362   1.144   2.407
  241SOL    HW1  748   1.445   1.115   2.359
  241SOL    HW2  749   1.313   1.211   2.351
  242SOL     OW  750   0.550   0.196   2.747
  242SOL    HW1  751   0.545   0.191   2.847
  242SOL    HW2  752   0.552   0.292   2.718
  243SOL     OW  753   1.008   1.456   2.339
  243SOL    HW1  754   0.962   1.528   2.287
  243SOL    HW2  755   1.004   1.476   2.437
  244SOL     OW  756   0.351   1.801   2.715
  244SOL    HW1  757   0.401   1.715   2.721
  244SOL    HW2  758   0.416   1.878   2.712
  245SOL     OW  759   1.795   1.066   2.735
  245SOL    HW1  760   1.733   1.051   2.659
  245SOL    HW2  761   1.743   1.077   2.820
  246SOL     OW  762   0.321   0.943   2.104
  246SOL    HW1  763   0.403   0.982   2.062
  246SOL    HW2  764   0.294   0.861   2.055
  247SOL     OW  765   1.458   0.735   2.590
  247SOL    HW1  766   1.453   0.670   2.665
  247SOL    HW2  767   1.538   0.794   2.603
  248SOL     OW  768   1.111   1.776   2.099
  248SOL    HW1  769   1.051   1.714   2.149
  248SOL    HW2  770   1.142   1.732   2.014
  249SOL     OW  771   1.632   1.377   1.943
  249SOL    HW1  772   1.600   1.471   1.933
  249SOL    HW2  773   1.556   1.314   1.931
  250SOL     OW  774   0.464   1.743   2.185
  250SOL    HW1  775   0.497   1.782   2.271
  250SOL    HW2  776   0.540   1.736   2.120
  251SOL     OW  777   1.400   0.107   2.288
  251SOL    HW1  778   1.376   0.070   2.198
  251SOL    HW2  779   1.499   0.123   2.292
  252SOL     OW  780   0.249   1.785   3.103
  252SOL    HW1  781   0.306   1.720   3.153
  252SOL    HW2  782   0.233   1.752   3.010
  253SOL     OW  783   0.940   1.698   2.766
  253SOL    HW1  784   1.020   1.641   2.787
  253SOL    HW2  785   0.891   1.658   2.689
  254SOL     OW  786   0.382   0.700   2.342
  254SOL    HW1  787   0.427   0.610   2.339
  254SOL    HW2  788   0.288   0.689   2.375
  255SOL     OW  789   0.614   0.122   1.979
  255SOL    HW1  790   0.712   0.100   1.986
  255SOL    HW2  791   0.583   0.105   1.886
  256SOL     OW  792   0.803   1.402   2.786
  256SOL    HW1  793   0.893   1.416   2.744
  256SOL    HW2  794   0.732   1.404   2.715
  257SOL     OW  795   0.922   0.503   2.761
  257SOL    HW1  796   0.897   0.494   2.665
  257SOL    HW2  797   0.970   0.421   2.792
  258SOL     OW  798   0.539   0.064   2.374
  258SOL    HW1  799   0.458   0.065   2.432
  258SOL    HW2  800   0.542   0.147   2.319
  259SOL     OW  801   1.434   1.188   1.903
  259SOL    HW1  802   1.466   1.112   1.960
  259SOL    HW2  803   1.342   1.215   1.933
  260SOL     OW  804   0.297   0.035   2.033
  260SOL    HW1  805   0.346   0.119   2.012
  260SOL    HW2  806   0.359  -0.030   2.078
  261SOL     OW  807   0.935   0.236   2.342
  261SOL    HW1  808   0.887   0.277   2.264
  261SOL    HW2  809   1.034   0.234   2.323
  262SOL     OW  810   1.227   1.570   2.655
  262SOL    HW1  811   1.248   1.644   2.590
  262SOL    HW2  812   1.295   1.570   2.728
  263SOL     OW  813   0.459   1.152   2.603
  263SOL    HW1  814   0.388   1.125   2.668
  263SOL    HW2  815   0.433   1.124   2.510
  264SOL     OW  816   1.271   1.797   2.453
  264SOL    HW1  817   1.315   1.861   2.389
  264SOL    HW2  818   1.221   1.849   2.523
  265SOL     OW  819   1.032   0.549   1.878
  265SOL    HW1  820   0.991   0.631   1.839
  265SOL    HW2  821   1.096   0.575   1.951
  266SOL     OW  822   0.866   0.454   2.504
  266SOL    HW1  823   0.834   0.526   2.442
  266SOL    HW2  824   0.890   0.373   2.451
  267SOL     OW  825   1.017   0.039   2.615
  267SOL    HW1  826   0.945   0.044   2.546
  267SOL    HW2  827   0.993  -0.030   2.684
  268SOL     OW  828   1.429   1.173   2.729
  268SOL    HW1  829   1.374   1.089   2.722
  268SOL    HW2  830   1.455   1.202   2.637
  269SOL     OW  831   1.466   0.590   2.854
  269SOL    HW1  832   1.436   0.495   2.861
  269SOL    HW2  833   1.539   0.606   2.920
  270SOL     OW  834   1.857   0.833   2.239
  270SOL    HW1  835   1.899   0.769   2.303
  270SOL    HW2  836   1.819   0.782   2.161
  271SOL     OW  837   0.488   1.385   2.036
  271SOL    HW1  838   0.401   1.370   2.083
  271SOL    HW2  839   0.471   1.411   1.941
  272SOL     OW  840   1.664   1.280   2.519
  272SOL    HW1  841   1.763   1.288   2.533
  272SOL    HW2  842   1.619   1.364   2.550
  273SOL     OW  843   1.390   0.575   1.940
  273SOL    HW1  844   1.336   0.554   2.021
  273SOL    HW2  845   1.481   0.534   1.949
  274SOL     OW  846   0.527   0.256   2.190
  274SOL    HW1  847   0.554   0.197   2.115
  274SOL    HW2  848   0.527   0.351   2.159
  275SOL     OW  849   1.111   1.195   2.962
  275SOL    HW1  850   1.071   1.239   3.043
  275SOL    HW2  851   1.070   1.232   2.879
  276SOL     OW  852   1.638   1.099   2.941
  276SOL    HW1  853   1.643   1.180   3.000
  276SOL    HW2  854   1.552   1.101   2.890
  277SOL     OW  855   0.705   1.050   2.230
  277SOL    HW1  856   0.691   1.057   2.329
  277SOL    HW2  857   0.789   0.999   2.212
  278SOL     OW  858   0.410   0.813   3.113
  278SOL    HW1  859   0.496   0.825   3.163
  278SOL    HW2  860   0.368   0.726   3.140
  279SOL     OW  861   0.367   1.100   2.363
  279SOL    HW1  862   0.360   1.183   2.307
  279SOL    HW2  863   0.371   1.020   2.303
  280SOL     OW  864   0.566   0.537   2.727
  280SOL    HW1  865   0.578   0.603   2.653
  280SOL    HW2  866   0.612   0.571   2.810
  281SOL     OW  867   1.252   1.348   2.250
  281SOL    HW1  868   1.302   1.425   2.290
  281SOL    HW2  869   1.157   1.350   2.282
  282SOL     OW  870   1.272   1.445   3.004
  282SOL    HW1  871   1.319   1.458   3.091
  282SOL    HW2  872   1.206   1.371   3.013
  283SOL     OW  873   1.582   0.639   2.334
  283SOL    HW1  874   1.551   0.700   2.407
  283SOL    HW2  875   1.632   0.691   2.265
  284SOL     OW  876   0.573   0.870   2.891
  284SOL    HW1  877   0.617   0.959   2.882
  284SOL    HW2  878   0.510   0.870   2.968
  285SOL     OW  879   1.209   0.525   2.137
  285SOL    HW1  880   1.222   0.441   2.191
  285SOL    HW2  881   1.180   0.599   2.197
  286SOL     OW  882   0.307   0.213   3.093
  286SOL    HW1  883   0.284   0.250   3.183
  286SOL    HW2  884   0.277   0.118   3.087
  287SOL     OW  885   0.732   0.634   2.926
  287SOL    HW1  886   0.791   0.608   2.850
  287SOL    HW2  887   0.704   0.730   2.915
  288SOL     OW  888   0.307   0.063   2.480
  288SOL    HW1  889   0.296   0.157   2.513
  288SOL    HW2  890   0.302   0.000   2.557
  289SOL     OW  891   1.622   0.367   2.236
  289SOL    HW1  892   1.624   0.291   2.300
  289SOL    HW2  893   1.574   0.444   2.276
  290SOL     OW  894   1.023   0.766   2.828
  290SOL    HW1  895   1.038   0.787   2.924
  290SOL    HW2  896   0.993   0.671   2.819
  291SOL     OW  897   1.540   0.274   1.987
  291SOL    HW1  898   1.479   0.199   2.010
  291SOL    HW2  899   1.562   0.326   2.070
  292SOL     OW  900   1.303   0.838   1.904
  292SOL    HW1  901   1.337   0.745   1.919
  292SOL    HW2  902   1.321   0.865   1.809
  293SOL     OW  903   1.068   1.333   2.711
  293SOL    HW1  904   1.075   1.249   2.656
  293SOL    HW2  905   1.130   1.402   2.675
  294SOL     OW  906   0.319   0.810   2.811
  294SOL    HW1  907   0.412   0.846   2.816
  294SOL    HW2  908   0.313   0.725   2.863
  295SOL     OW  909   0.339   0.509   2.868
  295SOL    HW1  910   0.287   0.426   2.851
  295SOL    HW2  911   0.416   0.514   2.804
  296SOL     OW  912   0.008   1.326   2.062
  296SOL    HW1  913  -0.085   1.347   2.031
  296SOL    HW2  914   0.018   1.227   2.075
  297SOL     OW  915   0.088   1.801   2.789
  297SOL    HW1  916   0.046   1.715   2.762
  297SOL    HW2  917   0.182   1.804   2.755
  298SOL     OW  918   0.504   1.568   2.772
  298SOL    HW1  919   0.570   1.642   2.781
  298SOL    HW2  920   0.548   1.489   2.730
  299SOL     OW  921   1.002   0.796   3.100
  299SOL    HW1  922   1.043   0.764   3.186
  299SOL    HW2  923   0.906   0.769   3.097
  300SOL     OW  924   0.040   0.544   2.976
  300SOL    HW1  925   0.125   0.511   2.935
  300SOL    HW2  926   0.053   0.559   3.074
  301SOL     OW  927   0.815   0.572   2.187
  301SOL    HW1  928   0.822   0.483   2.141
  301SOL    HW2  929   0.721   0.606   2.179
  302SOL     OW  930   1.657   0.604   3.068
  302SOL    HW1  931   1.619   0.535   3.130
  302SOL    HW2  932   1.739   0.568   3.024
  303SOL     OW  933   0.671   0.464   3.131
  303SOL    HW1  934   0.637   0.375   3.101
  303SOL    HW2  935   0.697   0.518   3.051
  304SOL     OW  936   0.473   0.500   2.053
  304SOL    HW1  937   0.534   0.580   2.057
  304SOL    HW2  938   0.378   0.531   2.060
  305SOL     OW  939   1.302   0.855   2.171
  305SOL    HW1  940   1.216   0.824   2.213
  305SOL    HW2  941   1.298   0.841   2.072
  306SOL     OW  942   1.759   1.747   3.016
  306SOL    HW1  943   1.820   1.777   2.943
  306SOL    HW2  944   1.721   1.658   2.994
  307SOL     OW  945   0.083   1.258   2.884
  307SOL    HW1  946   0.078   1.257   2.984
  307SOL    HW2  947   0.000   1.217   2.846
  308SOL     OW  948   1.726   0.135   2.385
  308SOL    HW1  949   1.799   0.118   2.318
  308SOL    HW2  950   1.695   0.048   2.423
  309SOL     OW  951   1.388   1.573   2.339
  309SOL    HW1  952   1.455   1.585   2.265
  309SOL    HW2  953   1.348   1.662   2.362
  310SOL     OW  954   1.280   0.927   2.534
  310SOL    HW1  955   1.340   0.846   2.536
  310SOL    HW2  956   1.320   0.996   2.474
  311SOL     OW  957   0.672   1.616   2.016
  311SOL    HW1  958   0.681   1.626   1.917
  311SOL    HW2  959   0.632   1.527   2.037
  312SOL     OW  960   1.841   0.175   2.825
  312SOL    HW1  961   1.880   0.090   2.789
  312SOL    HW2  962   1.743   0.177   2.806
  313SOL     OW  963   0.263   0.326   2.582
  313SOL    HW1  964   0.184   0.377   2.548
  313SOL    HW2  965   0.254   0.311   2.680
  314SOL     OW  966   1.194   1.612   1.893
  314SOL    HW1  967   1.200   1.519   1.930
  314SOL    HW2  968   1.135   1.612   1.813
  315SOL     OW  969   0.822   1.002   3.234
  315SOL    HW1  970   0.862   1.001   3.142
  315SOL    HW2  971   0.832   1.094   3.274
  316SOL     OW  972   0.916   0.910   2.153
  316SOL    HW1  973   0.979   0.948   2.085
  316SOL    HW2  974   0.956   0.827   2.192
  317SOL     OW  975   1.504   1.607   1.906
  317SOL    HW1  976   1.412   1.644   1.913
  317SOL    HW2  977   1.542   1.627   1.816
  318SOL     OW  978   1.039   1.098   2.558
  318SOL    HW1  979   0.969   1.051   2.612
  318SOL    HW2  980   1.098   1.030   2.515
  319SOL     OW  981   1.014   0.236   2.833
  319SOL    HW1  982   1.006   0.200   2.740
  319SOL    HW2  983   1.012   0.160   2.898
  320SOL     OW  984   0.590   1.487   2.353
  320SOL    HW1  985   0.632   1.429   2.283
  320SOL    HW2  986   0.546   1.566   2.309
  321SOL     OW  987   1.709   0.385   3.243
  321SOL    HW1  988   1.782   0.454   3.247
  321SOL    HW2  989   1.737   0.310   3.184
  322SOL     OW  990   0.255   1.348   2.152
  322SOL    HW1  991   0.159   1.349   2.125
  322SOL    HW2  992   0.267   1.401   2.236
  323SOL     OW  993   0.075   0.345   1.895
  323SOL    HW1  994  -0.017   0.317   1.866
  323SOL    HW2  995   0.106   0.422   1.839
  324SOL     OW  996   0.072   0.166   2.180
  324SOL    HW1  997   0.055   0.249   2.126
  324SOL    HW2  998   0.162   0.129   2.158
  325SOL     OW  999   1.183   1.335   1.981
  325SOL    HW1 1000   1.084   1.324   1.983
  325SOL    HW2 1001   1.217   1.350   2.074
  326SOL     OW 1002   1.493   1.767   2.821
  326SOL    HW1 1003   1.526   1.831   2.752
  326SOL    HW2 1004   1.559   1.761   2.896
  327SOL     OW 1005   1.674   0.883   3.116
  327SOL    HW1 1006   1.647   0.794   3.079
  327SOL    HW2 1007   1.675   0.951   3.043
  328SOL     OW 1008   1.225   0.325   2.311
  328SOL    HW1 1009   1.290   0.251   2.300
  328SOL    HW2 1010   1.245   0.375   2.395
  329SOL     OW 1011   0.594   0.745   2.514
  329SOL    HW1 1012   0.644   0.830   2.495
  329SOL    HW2 1013   0.506   0.747   2.466
  330SOL     OW 1014   0.859   1.374   1.878
  330SOL    HW1 1015   0.813   1.389   1.966
  330SOL    HW2 1016   0.903   1.459   1.848
  331SOL     OW 1017   0.661   1.790   2.815
  331SOL    HW1 1018   0.615   1.878   2.802
  331SOL    HW2 1019   0.760   1.802   2.808
  332SOL     OW 1020   0.859   0.956   2.723
  332SOL    HW1 1021   0.913   0.887   2.771
  332SOL    HW2 1022   0.827   1.025   2.789
  333SOL     OW 1023   1.083   0.984   1.949
  333SOL    HW1 1024   1.060   1.037   1.867
  333SOL    HW2 1025   1.164   0.928   1.930
  334SOL     OW 1026   1.861   1.569   2.713
  334SOL    HW1 1027   1.790   1.557   2.643
  334SOL    HW2 1028   1.862   1.490   2.773
  335SOL     OW 1029   0.079   1.240   2.515
  335SOL    HW1 1030   0.078   1.193   2.603
  335SOL    HW2 1031   0.161   1.212   2.464
  336SOL     OW 1032   1.824   0.192   3.089
  336SOL    HW1 1033   1.820   0.102   3.133
  336SOL    HW2 1034   1.827   0.181   2.990
  337SOL     OW 1035   0.428   0.424   2.382
  337SOL    HW1 1036   0.458   0.352   2.320
  337SOL    HW2 1037   0.389   0.384   2.465
  338SOL     OW 1038   1.705   1.487   2.966
  338SOL    HW1 1039   1.612   1.462   2.939
  338SOL    HW2 1040   1.731   1.437   3.048
  339SOL     OW 1041   0.812   1.586   2.549
  339SOL    HW1 1042   0.844   1.596   2.455
  339SOL    HW2 1043   0.733   1.524   2.551
  340SOL     OW 1044   1.424   0.214   2.974
  340SOL    HW1 1045   1.476   0.149   3.029
  340SOL    HW2 1046   1.375   0.277   3.035
  341SOL     OW 1047   0.770   1.330   2.163
  341SOL    HW1 1048   0.724   1.243   2.180
  341SOL    HW2 1049   0.861   1.327   2.204
  342SOL     OW 1050   1.352   0.052   2.030
  342SOL    HW1 1051   1.387   0.011   1.946
  342SOL    HW2 1052   1.262   0.014   2.050
  343SOL     OW 1053   1.300   0.453   2.553
  343SOL    HW1 1054   1.241   0.533   2.557
  343SOL    HW2 1055   1.315   0.418   2.646
  344SOL     OW 1056   1.593   0.221   2.744
  344SOL    HW1 1057   1.509   0.220   2.798
  344SOL    HW2 1058   1.595   0.304   2.688
  345SOL     OW 1059   0.039   1.077   2.162
  345SOL    HW1 1060   0.138   1.066   2.153
  345SOL    HW2 1061  -0.001   0.991   2.194
  346SOL     OW 1062   0.875   1.646   2.199
  346SOL    HW1 1063   0.798   1.611   2.145
  346SOL    HW2 1064   0.843   1.717   2.261
  347SOL     OW 1065   0.230   2.490   0.113
  347SOL    HW1 1066   0.137   2.488   0.150
  347SOL    HW2 1067   0.231   2.451   0.021
  348SOL     OW 1068   0.225   2.137   0.996
  348SOL    HW1 1069   0.260   2.120   1.088
  348SOL    HW2 1070   0.137   2.092   0.984
  349SOL     OW 1071   0.019   2.230   0.647
  349SOL    HW1 1072  -0.063   2.273   0.686
  349SOL    HW2 1073  -0.009   2.157   0.584
  350SOL     OW 1074   1.135   2.565   0.717
  350SOL    HW1 1075   1.192   2.643   0.692
  350SOL    HW2 1076   1.075   2.591   0.793
  351SOL     OW 1077   1.755   2.469   0.231
  351SOL    HW1 1078   1.743   2.456   0.132
  351SOL    HW2 1079   1.725   2.388   0.280
  352SOL     OW 1080   0.768   3.006   1.023
  352SOL    HW1 1081   0.690   3.023   1.083
  352SOL    HW2 1082   0.802   3.093   0.987
  353SOL     OW 1083   0.850   2.660   1.823
  353SOL    HW1 1084   0.846   2.736   1.888
  353SOL    HW2 1085   0.872   2.696   1.732
  354SOL     OW 1086   0.685   2.874   0.665
  354SOL    HW1 1087   0.754   2.858   0.735
  354SOL    HW2 1088   0.612   2.931   0.703
  355SOL     OW 1089   1.460   3.367   1.339
  355SOL    HW1 1090   1.484   3.461   1.365
  355SOL    HW2 1091   1.444   3.313   1.421
  356SOL     OW 1092   0.438   2.254   1.499
  356SOL    HW1 1093   0.520   2.198   1.508
  356SOL    HW2 1094   0.357   2.196   1.503
  357SOL     OW 1095   1.603   2.309   0.737
  357SOL    HW1 1096   1.529   2.355   0.687
  357SOL    HW2 1097   1.654   2.377   0.790
  358SOL     OW 1098   0.240   2.953   0.886
  358SOL    HW1 1099   0.254   2.869   0.938
  358SOL    HW2 1100   0.185   3.017   0.941
  359SOL     OW 1101   0.606   2.826   0.123
  359SOL    HW1 1102   0.613   2.910   0.069
  359SOL    HW2 1103   0.652   2.839   0.211
  360SOL     OW 1104   1.594   1.976   1.480
  360SOL    HW1 1105   1.576   2.043   1.408
  360SOL    HW2 1106   1.591   2.022   1.569
  361SOL     OW 1107   0.122   2.505   0.563
  361SOL    HW1 1108   0.077   2.417   0.580
  361SOL    HW2 1109   0.121   2.559   0.647
  362SOL     OW 1110   1.689   2.784   0.612
  362SOL    HW1 1111   1.784   2.755   0.620
  362SOL    HW2 1112   1.681   2.849   0.537
  363SOL     OW 1113   0.113   2.599   1.597
  363SOL    HW1 1114   0.201   2.586   1.642
  363SOL    HW2 1115   0.100   2.696   1.575
  364SOL     OW 1116   0.613   3.227   0.726
  364SOL    HW1 1117   0.564   3.140   0.735
  364SOL    HW2 1118   0.590   3.270   0.639
  365SOL     OW 1119   1.293   3.090   1.423
  365SOL    HW1 1120   1.330   3.017   1.365
  365SOL    HW2 1121   1.345   3.095   1.508
  366SOL     OW 1122   0.809   1.866   0.502
  366SOL    HW1 1123   0.849   1.957   0.493
  366SOL    HW2 1124   0.709   1.874   0.508
  367SOL     OW 1125   0.197   2.838   1.264
  367SOL    HW1 1126   0.286   2.793   1.250
  367SOL    HW2 1127   0.124   2.773   1.245
  368SOL     OW 1128   1.525   2.861   0.190
  368SOL    HW1 1129   1.462   2.785   0.203
  368SOL    HW2 1130   1.573   2.879   0.276
  369SOL     OW 1131   0.317   2.113   1.801
  369SOL    HW1 1132   0.388   2.184   1.807
  369SOL    HW2 1133   0.229   2.152   1.829
  370SOL     OW 1134   0.598   2.591   0.270
  370SOL    HW1 1135   0.622   2.660   0.202
  370SOL    HW2 1136   0.520   2.624   0.324
  371SOL     OW 1137   1.281   2.207   0.944
  371SOL    HW1 1138   1.195   2.157   0.931
  371SOL    HW2 1139   1.343   2.153   1.000
  372SOL     OW 1140   0.807   2.467   1.465
  372SOL    HW1 1141   0.760   2.464   1.554
  372SOL    HW2 1142   0.756   2.412   1.399
  373SOL     OW 1143   1.394   2.331   1.674
  373SOL    HW1 1144   1.374   2.374   1.762
  373SOL    HW2 1145   1.472   2.269   1.683
  374SOL     OW 1146   0.973   2.752   1.572
  374SOL    HW1 1147   1.019   2.668   1.543
  374SOL    HW2 1148   0.917   2.786   1.497
  375SOL     OW 1149   0.991   2.272   1.242
  375SOL    HW1 1150   0.914   2.306   1.296
  375SOL    HW2 1151   0.957   2.221   1.163
  376SOL     OW 1152   1.041   2.563   0.429
  376SOL    HW1 1153   1.067   2.559   0.525
  376SOL    HW2 1154   0.956   2.512   0.415
  377SOL     OW 1155   0.076   2.673   0.789
  377SOL    HW1 1156   0.175   2.661   0.798
  377SOL    HW2 1157   0.052   2.768   0.810
  378SOL     OW 1158   0.865   2.210   0.195
  378SOL    HW1 1159   0.924   2.273   0.146
  378SOL    HW2 1160   0.884   2.116   0.166
  379SOL     OW 1161   1.719   2.447   1.831
  379SOL    HW1 1162   1.693   2.536   1.795
  379SOL    HW2 1163   1.717   2.379   1.758
  380SOL     OW 1164   0.550   2.058   0.885
  380SOL    HW1 1165   0.545   2.053   0.985
  380SOL    HW2 1166   0.552   2.154   0.856
  381SOL     OW 1167   1.795   2.928   0.873
  381SOL    HW1 1168   1.733   2.913   0.797
  381SOL    HW2 1169   1.743   2.939   0.958
  382SOL     OW 1170   0.321   2.805   0.242
  382SOL    HW1 1171   0.403   2.844   0.200
  382SOL    HW2 1172   0.294   2.723   0.193
  383SOL     OW 1173   1.458   2.597   0.728
  383SOL    HW1 1174   1.453   2.532   0.803
  383SOL    HW2 1175   1.538   2.656   0.741
  384SOL     OW 1176   0.202   2.147   1.498
  384SOL    HW1 1177   0.122   2.207   1.485
  384SOL    HW2 1178   0.192   2.098   1.584
  385SOL     OW 1179   1.400   1.969   0.426
  385SOL    HW1 1180   1.376   1.932   0.336
  385SOL    HW2 1181   1.499   1.985   0.430
  386SOL     OW 1182   0.382   2.562   0.480
  386SOL    HW1 1183   0.427   2.472   0.477
  386SOL    HW2 1184   0.288   2.551   0.513
  387SOL     OW 1185   1.547   2.084   1.729
  387SOL    HW1 1186   1.542   2.121   1.821
  387SOL    HW2 1187   1.475   2.015   1.717
  388SOL     OW 1188   0.614   1.984   0.117
  388SOL    HW1 1189   0.712   1.962   0.124
  388SOL    HW2 1190   0.583   1.967   0.024
  389SOL     OW 1191   0.781   2.126   1.749
  389SOL    HW1 1192   0.848   2.065   1.792
  389SOL    HW2 1193   0.708   2.145   1.814
  390SOL     OW 1194   1.351   2.452   1.433
  390SOL    HW1 1195   1.379   2.409   1.518
  390SOL    HW2 1196   1.376   2.548   1.434
  391SOL     OW 1197   0.922   2.365   0.899
  391SOL    HW1 1198   0.897   2.356   0.803
  391SOL    HW2 1199   0.970   2.283   0.930
  392SOL     OW 1200   0.539   1.926   0.512
  392SOL    HW1 1201   0.458   1.927   0.570
  392SOL    HW2 1202   0.542   2.009   0.457
  393SOL     OW 1203   0.297   1.897   0.171
  393SOL    HW1 1204   0.346   1.981   0.150
  393SOL    HW2 1205   0.359   1.832   0.216
  394SOL     OW 1206   0.935   2.098   0.480
  394SOL    HW1 1207   0.887   2.139   0.402
  394SOL    HW2 1208   1.034   2.096   0.461
  395SOL     OW 1209   1.076   2.545   1.464
  395SOL    HW1 1210   0.996   2.484   1.467
  395SOL    HW2 1211   1.157   2.492   1.440
  396SOL     OW 1212   0.459   3.014   0.741
  396SOL    HW1 1213   0.388   2.987   0.806
  396SOL    HW2 1214   0.433   2.986   0.648
  397SOL     OW 1215   1.032   2.411   0.016
  397SOL    HW1 1216   0.991   2.493  -0.023
  397SOL    HW2 1217   1.096   2.437   0.089
  398SOL     OW 1218   0.078   2.418   1.386
  398SOL    HW1 1219   0.170   2.417   1.345
  398SOL    HW2 1220   0.072   2.492   1.453
  399SOL     OW 1221   0.561   2.084   1.147
  399SOL    HW1 1222   0.599   2.000   1.184
  399SOL    HW2 1223   0.473   2.103   1.191
  400SOL     OW 1224   0.866   2.316   0.642
  400SOL    HW1 1225   0.834   2.388   0.580
  400SOL    HW2 1226   0.890   2.235   0.589
  401SOL     OW 1227   1.017   1.901   0.753
  401SOL    HW1 1228   0.945   1.906   0.684
  401SOL    HW2 1229   0.993   1.832   0.822
  402SOL     OW 1230   1.429   3.035   0.867
  402SOL    HW1 1231   1.374   2.951   0.860
  402SOL    HW2 1232   1.455   3.064   0.775
  403SOL     OW 1233   1.466   2.452   0.992
  403SOL    HW1 1234   1.436   2.357   0.999
  403SOL    HW2 1235   1.539   2.468   1.058
  404SOL     OW 1236   1.857   2.695   0.377
  404SOL    HW1 1237   1.899   2.631   0.441
  404SOL    HW2 1238   1.819   2.644   0.299
  405SOL     OW 1239   1.390   2.437   0.078
  405SOL    HW1 1240   1.336   2.416   0.159
  405SOL    HW2 1241   1.481   2.396   0.087
  406SOL     OW 1242   0.527   2.118   0.328
  406SOL    HW1 1243   0.554   2.059   0.253
  406SOL    HW2 1244   0.527   2.213   0.297
  407SOL     OW 1245   1.754   3.085   1.588
  407SOL    HW1 1246   1.845   3.046   1.575
  407SOL    HW2 1247   1.762   3.181   1.612
  408SOL     OW 1248   1.638   2.961   1.079
  408SOL    HW1 1249   1.643   3.042   1.138
  408SOL    HW2 1250   1.552   2.963   1.028
  409SOL     OW 1251   0.915   1.951   1.402
  409SOL    HW1 1252   0.940   1.931   1.307
  409SOL    HW2 1253   0.987   2.007   1.444
  410SOL     OW 1254   0.705   2.912   0.368
  410SOL    HW1 1255   0.691   2.919   0.467
  410SOL    HW2 1256   0.789   2.861   0.350
  411SOL     OW 1257   0.410   2.675   1.251
  411SOL    HW1 1258   0.496   2.687   1.301
  411SOL    HW2 1259   0.368   2.588   1.278
  412SOL     OW 1260   1.274   2.248   1.262
  412SOL    HW1 1261   1.295   2.322   1.326
  412SOL    HW2 1262   1.185   2.265   1.219
  413SOL     OW 1263   0.367   2.962   0.501
  413SOL    HW1 1264   0.360   3.045   0.445
  413SOL    HW2 1265   0.371   2.882   0.441
  414SOL     OW 1266   0.566   2.399   0.865
  414SOL    HW1 1267   0.578   2.465   0.791
  414SOL    HW2 1268   0.612   2.433   0.948
  415SOL     OW 1269   1.582   2.501   0.472
  415SOL    HW1 1270   1.551   2.562   0.545
  415SOL    HW2 1271   1.632   2.553   0.403
  416SOL     OW 1272   0.402   2.613   1.598
  416SOL    HW1 1273   0.470   2.668   1.551
  416SOL    HW2 1274   0.442   2.525   1.625
  417SOL     OW 1275   1.587   2.641   1.670
  417SOL    HW1 1276   1.495   2.679   1.665
  417SOL    HW2 1277   1.647   2.688   1.605
  418SOL     OW 1278   1.013   1.967   1.770
  418SOL    HW1 1279   1.019   2.052   1.718
  418SOL    HW2 1280   1.045   1.891   1.713
  419SOL     OW 1281   0.504   1.912   1.740
  419SOL    HW1 1282   0.462   1.855   1.670
  419SOL    HW2 1283   0.438   1.981   1.772
  420SOL     OW 1284   0.573   2.732   1.029
  420SOL    HW1 1285   0.617   2.821   1.020
  420SOL    HW2 1286   0.510   2.732   1.106
  421SOL     OW 1287   1.360   2.724   1.045
  421SOL    HW1 1288   1.285   2.724   0.979
  421SOL    HW2 1289   1.397   2.632   1.054
  422SOL     OW 1290   1.209   2.387   0.275
  422SOL    HW1 1291   1.222   2.303   0.329
  422SOL    HW2 1292   1.180   2.461   0.335
  423SOL     OW 1293   0.307   2.075   1.231
  423SOL    HW1 1294   0.284   2.112   1.321
  423SOL    HW2 1295   0.277   1.980   1.225
  424SOL     OW 1296   0.037   3.172   1.282
  424SOL    HW1 1297   0.090   3.123   1.350
  424SOL    HW2 1298   0.059   3.270   1.287
  425SOL     OW 1299   0.732   2.496   1.064
  425SOL    HW1 1300   0.791   2.470   0.988
  425SOL    HW2 1301   0.704   2.592   1.053
  426SOL     OW 1302   1.728   2.797   1.854
  426SOL    HW1 1303   1.682   2.790   1.765
  426SOL    HW2 1304   1.666   2.841   1.920
  427SOL     OW 1305   0.307   1.925   0.618
  427SOL    HW1 1306   0.296   2.019   0.651
  427SOL    HW2 1307   0.302   1.862   0.695
  428SOL     OW 1308   1.622   2.229   0.374
  428SOL    HW1 1309   1.624   2.153   0.438
  428SOL    HW2 1310   1.574   2.306   0.414
  429SOL     OW 1311   1.023   2.628   0.966
  429SOL    HW1 1312   1.038   2.649   1.062
  429SOL    HW2 1313   0.993   2.533   0.957
  430SOL     OW 1314   0.350   2.760   1.804
  430SOL    HW1 1315   0.426   2.804   1.852
  430SOL    HW2 1316   0.385   2.713   1.722
  431SOL     OW 1317   1.540   2.136   0.125
  431SOL    HW1 1318   1.479   2.061   0.148
  431SOL    HW2 1319   1.562   2.188   0.208
  432SOL     OW 1320   1.303   2.700   0.042
  432SOL    HW1 1321   1.337   2.607   0.057
  432SOL    HW2 1322   1.321   2.727  -0.053
  433SOL     OW 1323   0.319   2.672   0.949
  433SOL    HW1 1324   0.412   2.708   0.954
  433SOL    HW2 1325   0.313   2.587   1.001
  434SOL     OW 1326   0.339   2.371   1.006
  434SOL    HW1 1327   0.287   2.288   0.989
  434SOL    HW2 1328   0.416   2.376   0.942
  435SOL     OW 1329   1.138   2.242   1.678
  435SOL    HW1 1330   1.093   2.305   1.742
  435SOL    HW2 1331   1.231   2.273   1.661
  436SOL     OW 1332   1.160   2.069   1.477
  436SOL    HW1 1333   1.160   2.133   1.554
  436SOL    HW2 1334   1.188   2.117   1.394
  437SOL     OW 1335   1.002   2.658   1.238
  437SOL    HW1 1336   1.043   2.626   1.324
  437SOL    HW2 1337   0.906   2.631   1.235
  438SOL     OW 1338   0.040   2.406   1.114
  438SOL    HW1 1339   0.125   2.373   1.073
  438SOL    HW2 1340   0.053   2.421   1.212
  439SOL     OW 1341   0.189   2.382   1.722
  439SOL    HW1 1342   0.248   2.342   1.652
  439SOL    HW2 1343   0.131   2.453   1.681
  440SOL     OW 1344   1.369   2.812   1.660
  440SOL    HW1 1345   1.408   2.901   1.680
  440SOL    HW2 1346   1.379   2.792   1.563
  441SOL     OW 1347   0.815   2.434   0.325
  441SOL    HW1 1348   0.822   2.345   0.279
  441SOL    HW2 1349   0.721   2.468   0.317
  442SOL     OW 1350   1.657   2.466   1.206
  442SOL    HW1 1351   1.619   2.397   1.268
  442SOL    HW2 1352   1.739   2.430   1.162
  443SOL     OW 1353   0.671   2.326   1.269
  443SOL    HW1 1354   0.637   2.237   1.239
  443SOL    HW2 1355   0.697   2.380   1.189
  444SOL     OW 1356   0.473   2.362   0.191
  444SOL    HW1 1357   0.534   2.442   0.195
  444SOL    HW2 1358   0.378   2.393   0.198
  445SOL     OW 1359   0.159   2.999   1.466
  445SOL    HW1 1360   0.181   2.938   1.542
  445SOL    HW2 1361   0.169   2.950   1.380
  446SOL     OW 1362   1.347   2.921   1.234
  446SOL    HW1 1363   1.371   2.858   1.160
  446SOL    HW2 1364   1.257   2.961   1.216
  447SOL     OW 1365   1.302   2.717   0.309
  447SOL    HW1 1366   1.216   2.686   0.351
  447SOL    HW2 1367   1.298   2.703   0.210
  448SOL     OW 1368   0.083   3.120   1.022
  448SOL    HW1 1369   0.078   3.119   1.122
  448SOL    HW2 1370   0.000   3.079   0.984
  449SOL     OW 1371   0.903   1.948   0.133
  449SOL    HW1 1372   0.954   1.949   0.047
  449SOL    HW2 1373   0.959   1.906   0.204
  450SOL     OW 1374   1.726   1.997   0.523
  450SOL    HW1 1375   1.799   1.980   0.456
  450SOL    HW2 1376   1.695   1.910   0.561
  451SOL     OW 1377   1.280   2.789   0.672
  451SOL    HW1 1378   1.340   2.708   0.674
  451SOL    HW2 1379   1.320   2.858   0.612
  452SOL     OW 1380   1.841   2.037   0.963
  452SOL    HW1 1381   1.880   1.952   0.927
  452SOL    HW2 1382   1.743   2.039   0.944
  453SOL     OW 1383   0.263   2.188   0.720
  453SOL    HW1 1384   0.184   2.239   0.686
  453SOL    HW2 1385   0.254   2.173   0.818
  454SOL     OW 1386   0.822   2.864   1.372
  454SOL    HW1 1387   0.862   2.863   1.280
  454SOL    HW2 1388   0.832   2.956   1.412
  455SOL     OW 1389   0.916   2.772   0.291
  455SOL    HW1 1390   0.979   2.810   0.223
  455SOL    HW2 1391   0.956   2.689   0.330
  456SOL     OW 1392   0.372   3.150   1.490
  456SOL    HW1 1393   0.359   3.243   1.456
  456SOL    HW2 1394   0.288   3.098   1.477
  457SOL     OW 1395   1.014   2.098   0.971
  457SOL    HW1 1396   1.006   2.062   0.878
  457SOL    HW2 1397   1.012   2.022   1.036
  458SOL     OW 1398   1.709   2.247   1.381
  458SOL    HW1 1399   1.782   2.316   1.385
  458SOL    HW2 1400   1.737   2.172   1.322
  459SOL     OW 1401   0.105   2.875   1.726
  459SOL    HW1 1402   0.028   2.842   1.780
  459SOL    HW2 1403   0.190   2.845   1.768
  460SOL     OW 1404   0.672   2.065   1.489
  460SOL    HW1 1405   0.762   2.049   1.449
  460SOL    HW2 1406   0.680   2.070   1.588
  461SOL     OW 1407   0.075   2.207   0.033
  461SOL    HW1 1408  -0.017   2.179   0.004
  461SOL    HW2 1409   0.106   2.284  -0.023
  462SOL     OW 1410   1.440   2.718   1.398
  462SOL    HW1 1411   1.383   2.770   1.335
  462SOL    HW2 1412   1.536   2.730   1.374
  463SOL     OW 1413   0.072   2.028   0.318
  463SOL    HW1 1414   0.055   2.111   0.264
  463SOL    HW2 1415   0.162   1.991   0.296
  464SOL     OW 1416   0.613   2.704   1.431
  464SOL    HW1 1417   0.669   2.785   1.414
  464SOL    HW2 1418   0.672   2.624   1.434
  465SOL     OW 1419   0.716   2.427   1.708
  465SOL    HW1 1420   0.735   2.492   1.782
  465SOL    HW2 1421   0.776   2.347   1.717
  466SOL     OW 1422   1.450   3.082   1.633
  466SOL    HW1 1423   1.441   3.072   1.732
  466SOL    HW2 1424   1.546   3.075   1.607
  467SOL     OW 1425   1.674   2.745   1.254
  467SOL    HW1 1426   1.647   2.656   1.217
  467SOL    HW2 1427   1.675   2.813   1.181
  468SOL     OW 1428   1.225   2.187   0.449
  468SOL    HW1 1429   1.290   2.113   0.438
  468SOL    HW2 1430   1.245   2.237   0.533
  469SOL     OW 1431   0.594   2.607   0.652
  469SOL    HW1 1432   0.644   2.692   0.633
  469SOL    HW2 1433   0.506   2.609   0.604
  470SOL     OW 1434   1.777   2.204   1.642
  470SOL    HW1 1435   1.760   2.235   1.548
  470SOL    HW2 1436   1.693   2.167   1.680
  471SOL     OW 1437   1.730   2.796   1.517
  471SOL    HW1 1438   1.768   2.887   1.532
  471SOL    HW2 1439   1.722   2.779   1.418
  472SOL     OW 1440   0.859   2.818   0.861
  472SOL    HW1 1441   0.913   2.749   0.909
  472SOL    HW2 1442   0.827   2.887   0.927
  473SOL     OW 1443   1.083   2.846   0.087
  473SOL    HW1 1444   1.060   2.899   0.005
  473SOL    HW2 1445   1.164   2.790   0.068
  474SOL     OW 1446   0.079   3.102   0.653
  474SOL    HW1 1447   0.078   3.055   0.741
  474SOL    HW2 1448   0.161   3.074   0.602
  475SOL     OW 1449   1.824   2.054   1.227
  475SOL    HW1 1450   1.820   1.964   1.271
  475SOL    HW2 1451   1.827   2.043   1.128
  476SOL     OW 1452   0.428   2.286   0.520
  476SOL    HW1 1453   0.458   2.214   0.458
  476SOL    HW2 1454   0.389   2.246   0.603
  477SOL     OW 1455   0.317   2.409   1.280
  477SOL    HW1 1456   0.355   2.350   1.352
  477SOL    HW2 1457   0.357   2.383   1.192
  478SOL     OW 1458   1.424   2.076   1.112
  478SOL    HW1 1459   1.476   2.011   1.167
  478SOL    HW2 1460   1.375   2.139   1.173
  479SOL     OW 1461   1.001   1.896   1.154
  479SOL    HW1 1462   0.938   1.824   1.123
  479SOL    HW2 1463   1.094   1.860   1.154
  480SOL     OW 1464   0.770   3.192   0.301
  480SOL    HW1 1465   0.724   3.105   0.318
  480SOL    HW2 1466   0.861   3.189   0.342
  481SOL     OW 1467   1.352   1.914   0.168
  481SOL    HW1 1468   1.387   1.873   0.084
  481SOL    HW2 1469   1.262   1.876   0.188
  482SOL     OW 1470   1.300   2.315   0.691
  482SOL    HW1 1471   1.241   2.395   0.695
  482SOL    HW2 1472   1.315   2.280   0.784
  483SOL     OW 1473   1.593   2.083   0.882
  483SOL    HW1 1474   1.509   2.082   0.936
  483SOL    HW2 1475   1.595   2.166   0.826
  484SOL     OW 1476   0.039   2.939   0.300
  484SOL    HW1 1477   0.138   2.928   0.291
  484SOL    HW2 1478  -0.001   2.853   0.332
  485SOL     OW 1479   0.230   2.490   1.975
  485SOL    HW1 1480   0.137   2.488   2.012
  485SOL    HW2 1481   0.231   2.451   1.883
  486SOL     OW 1482   0.225   2.137   2.858
  486SOL    HW1 1483   0.260   2.120   2.950
  486SOL    HW2 1484   0.137   2.092   2.846
  487SOL     OW 1485   0.019   2.230   2.509
  487SOL    HW1 1486  -0.063   2.273   2.548
  487SOL    HW2 1487  -0.009   2.157   2.446
  488SOL     OW 1488   1.135   2.565   2.579
  488SOL    HW1 1489   1.192   2.643   2.554
  488SOL    HW2 1490   1.075   2.591   2.655
  489SOL     OW 1491   1.755   2.469   2.093
  489SOL    HW1 1492   1.743   2.456   1.994
  489SOL    HW2 1493   1.725   2.388   2.142
  490SOL     OW 1494   0.768   3.006   2.885
  490SOL    HW1 1495   0.690   3.023   2.945
  490SOL    HW2 1496   0.802   3.093   2.849
  491SOL     OW 1497   0.685   2.874   2.527
  491SOL    HW1 1498   0.754   2.858   2.597
  491SOL    HW2 1499   0.612   2.931   2.565
  492SOL     OW 1500   1.603   2.309   2.599
  492SOL    HW1 1501   1.529   2.355   2.549
  492SOL    HW2 1502   1.654   2.377   2.652
  493SOL     OW 1503   0.240   2.953   2.748
  493SOL    HW1 1504   0.254   2.869   2.800
  493SOL    HW2 1505   0.185   3.017   2.803
  494SOL     OW 1506   0.606   2.826   1.985
  494SOL    HW1 1507   0.613   2.910   1.931
  494SOL    HW2 1508   0.652   2.839   2.073
  495SOL     OW 1509   0.122   2.505   2.425
  495SOL    HW1 1510   0.077   2.417   2.442
  495SOL    HW2 1511   0.121   2.559   2.509
  496SOL     OW 1512   1.689   2.784   2.474
  496SOL    HW1 1513   1.784   2.755   2.482
  496SOL    HW2 1514   1.681   2.849   2.399
  497SOL     OW 1515   0.613   3.227   2.588
  497SOL    HW1 1516   0.564   3.140   2.597
  497SOL    HW2 1517   0.590   3.270   2.501
  498SOL     OW 1518   0.809   1.866   2.364
  498SOL    HW1 1519   0.849   1.957   2.355
  498SOL    HW2 1520   0.709   1.874   2.370
  499SOL     OW 1521   0.197   2.838   3.126
  499SOL    HW1 1522   0.286   2.793   3.112
  499SOL    HW2 1523   0.124   2.773   3.107
  500SOL     OW 1524   1.525   2.861   2.052
  500SOL    HW1 1525   1.462   2.785   2.065
  500SOL    HW2 1526   1.573   2.879   2.138
  501SOL     OW 1527   0.598   2.591   2.132
  501SOL    HW1 1528   0.622   2.660   2.064
  501SOL    HW2 1529   0.520   2.624   2.186
  502SOL     OW 1530   1.281   2.207   2.806
  502SOL    HW1 1531   1.195   2.157   2.793
  502SOL    HW2 1532   1.343   2.153   2.862
  503SOL     OW 1533   1.041   2.563   2.291
  503SOL    HW1 1534   1.067   2.559   2.387
  503SOL    HW2 1535   0.956   2.512   2.277
  504SOL     OW 1536   0.076   2.673   2.651
  504SOL    HW1 1537   0.175   2.661   2.660
  504SOL    HW2 1538   0.052   2.768   2.672
  505SOL     OW 1539   0.865   2.210   2.057
  505SOL    HW1 1540   0.924   2.273   2.008
  505SOL    HW2 1541   0.884   2.116   2.028
  506SOL     OW 1542   0.550   2.058   2.747
  506SOL    HW1 1543   0.545   2.053   2.847
  506SOL    HW2 1544   0.552   2.154   2.718
  507SOL     OW 1545   1.795   2.928   2.735
  507SOL    HW1 1546   1.733   2.913   2.659
  507SOL    HW2 1547   1.743   2.939   2.820
  508SOL     OW 1548   0.321   2.805   2.104
  508SOL    HW1 1549   0.403   2.844   2.062
  508SOL    HW2 1550   0.294   2.723   2.055
  509SOL     OW 1551   1.458   2.597   2.590
  509SOL    HW1 1552   1.453   2.532   2.665
  509SOL    HW2 1553   1.538   2.656   2.603
  510SOL     OW 1554   1.400   1.969   2.288
  510SOL    HW1 1555   1.376   1.932   2.198
  510SOL    HW2 1556   1.499   1.985   2.292
  511SOL     OW 1557   0.382   2.562   2.342
  511SOL    HW1 1558   0.427   2.472   2.339
  511SOL    HW2 1559   0.288   2.551   2.375
  512SOL     OW 1560   0.614   1.984   1.979
  512SOL    HW1 1561   0.712   1.962   1.986
  512SOL    HW2 1562   0.583   1.967   1.886
  513SOL     OW 1563   0.888   3.376   3.057
  513SOL    HW1 1564   0.865   3.351   2.963
  513SOL    HW2 1565   0.949   3.307   3.096
  514SOL     OW 1566   0.922   2.365   2.761
  514SOL    HW1 1567   0.897   2.356   2.665
  514SOL    HW2 1568   0.970   2.283   2.792
  515SOL     OW 1569   0.539   1.926   2.374
  515SOL    HW1 1570   0.458   1.927   2.432
  515SOL    HW2 1571   0.542   2.009   2.319
  516SOL     OW 1572   0.297   1.897   2.033
  516SOL    HW1 1573   0.346   1.981   2.012
  516SOL    HW2 1574   0.359   1.832   2.078
  517SOL     OW 1575   0.935   2.098   2.342
  517SOL    HW1 1576   0.887   2.139   2.264
  517SOL    HW2 1577   1.034   2.096   2.323
  518SOL     OW 1578   0.459   3.014   2.603
  518SOL    HW1 1579   0.388   2.987   2.668
  518SOL    HW2 1580   0.433   2.986   2.510
  519SOL     OW 1581   1.032   2.411   1.878
  519SOL    HW1 1582   0.991   2.493   1.839
  519SOL    HW2 1583   1.096   2.437   1.951
  520SOL     OW 1584   0.866   2.316   2.504
  520SOL    HW1 1585   0.834   2.388   2.442
  520SOL    HW2 1586   0.890   2.235   2.451
  521SOL     OW 1587   1.017   1.901   2.615
  521SOL    HW1 1588   0.945   1.906   2.546
  521SOL    HW2 1589   0.993   1.832   2.684
  522SOL     OW 1590   1.429   3.035   2.729
  522SOL    HW1 1591   1.374   2.951   2.722
  522SOL    HW2 1592   1.455   3.064   2.637
  523SOL     OW 1593   1.466   2.452   2.854
  523SOL    HW1 1594   1.436   2.357   2.861
  523SOL    HW2 1595   1.539   2.468   2.920
  524SOL     OW 1596   1.857   2.695   2.239
  524SOL    HW1 1597   1.899   2.631   2.303
  524SOL    HW2 1598   1.819   2.644   2.161
  525SOL     OW 1599   1.390   2.437   1.940
  525SOL    HW1 1600   1.336   2.416   2.021
  525SOL    HW2 1601   1.481   2.396   1.949
  526SOL     OW 1602   0.527   2.118   2.190
  526SOL    HW1 1603   0.554   2.059   2.115
  526SOL    HW2 1604   0.527   2.213   2.159
  527SOL     OW 1605   1.111   3.057   2.962
  527SOL    HW1 1606   1.071   3.101   3.043
  527SOL    HW2 1607   1.070   3.094   2.879
  528SOL     OW 1608   1.638   2.961   2.941
  528SOL    HW1 1609   1.643   3.042   3.000
  528SOL    HW2 1610   1.552   2.963   2.890
  529SOL     OW 1611   0.705   2.912   2.230
  529SOL    HW1 1612   0.691   2.919   2.329
  529SOL    HW2 1613   0.789   2.861   2.212
  530SOL     OW 1614   0.410   2.675   3.113
  530SOL    HW1 1615   0.496   2.687   3.163
  530SOL    HW2 1616   0.368   2.588   3.140
  531SOL     OW 1617   0.367   2.962   2.363
  531SOL    HW1 1618   0.360   3.045   2.307
  531SOL    HW2 1619   0.371   2.882   2.303
  532SOL     OW 1620   0.566   2.399   2.727
  532SOL    HW1 1621   0.578   2.465   2.653
  532SOL    HW2 1622   0.612   2.433   2.810
  533SOL     OW 1623   1.582   2.501   2.334
  533SOL    HW1 1624   1.551   2.562   2.407
  533SOL    HW2 1625   1.632   2.553   2.265
  534SOL     OW 1626   0.573   2.732   2.891
  534SOL    HW1 1627   0.617   2.821   2.882
  534SOL    HW2 1628   0.510   2.732   2.968
  535SOL     OW 1629   1.209   2.387   2.137
  535SOL    HW1 1630   1.222   2.303   2.191
  535SOL    HW2 1631   1.180   2.461   2.197
  536SOL     OW 1632   0.307   2.075   3.093
  536SOL    HW1 1633   0.284   2.112   3.183
  536SOL    HW2 1634   0.277   1.980   3.087
  537SOL     OW 1635   0.037   3.172   3.144
  537SOL    HW1 1636   0.090   3.123   3.212
  537SOL    HW2 1637   0.059   3.270   3.149
  538SOL     OW 1638   0.732   2.496   2.926
  538SOL    HW1 1639   0.791   2.470   2.850
  538SOL    HW2 1640   0.704   2.592   2.915
  539SOL     OW 1641   0.307   1.925   2.480
  539SOL    HW1 1642   0.296   2.019   2.513
  539SOL    HW2 1643   0.302   1.862   2.557
  540SOL     OW 1644   1.622   2.229   2.236
  540SOL    HW1 1645   1.624   2.153   2.300
  540SOL    HW2 1646   1.574   2.306   2.276
  541SOL     OW 1647   1.023   2.628   2.828
  541SOL    HW1 1648   1.038   2.649   2.924
  541SOL    HW2 1649   0.993   2.533   2.819
  542SOL     OW 1650   1.540   2.136   1.987
  542SOL    HW1 1651   1.479   2.061   2.010
  542SOL    HW2 1652   1.562   2.188   2.070
  543SOL     OW 1653   1.303   2.700   1.904
  543SOL    HW1 1654   1.337   2.607   1.919
  543SOL    HW2 1655   1.321   2.727   1.809
  544SOL     OW 1656   0.319   2.672   2.811
  544SOL    HW1 1657   0.412   2.708   2.816
  544SOL    HW2 1658   0.313   2.587   2.863
  545SOL     OW 1659   0.339   2.371   2.868
  545SOL    HW1 1660   0.287   2.288   2.851
  545SOL    HW2 1661   0.416   2.376   2.804
  546SOL     OW 1662   1.002   2.658   3.100
  546SOL    HW1 1663   1.043   2.626   3.186
  546SOL    HW2 1664   0.906   2.631   3.097
  547SOL     OW 1665   0.040   2.406   2.976
  547SOL    HW1 1666   0.125   2.373   2.935
  547SOL    HW2 1667   0.053   2.421   3.074
  548SOL     OW 1668   0.815   2.434   2.187
  548SOL    HW1 1669   0.822   2.345   2.141
  548SOL    HW2 1670   0.721   2.468   2.179
  549SOL     OW 1671   1.657   2.466   3.068
  549SOL    HW1 1672   1.619   2.397   3.130
  549SOL    HW2 1673   1.739   2.430   3.024
  550SOL     OW 1674   0.671   2.326   3.131
  550SOL    HW1 1675   0.637   2.237   3.101
  550SOL    HW2 1676   0.697   2.380   3.051
  551SOL     OW 1677   0.473   2.362   2.053
  551SOL    HW1 1678   0.534   2.442   2.057
  551SOL    HW2 1679   0.378   2.393   2.060
  552SOL     OW 1680   1.347   2.921   3.096
  552SOL    HW1 1681   1.371   2.858   3.022
  552SOL    HW2 1682   1.257   2.961   3.078
  553SOL     OW 1683   1.302   2.717   2.171
  553SOL    HW1 1684   1.216   2.686   2.213
  553SOL    HW2 1685   1.298   2.703   2.072
  554SOL     OW 1686   0.083   3.120   2.884
  554SOL    HW1 1687   0.078   3.119   2.984
  554SOL    HW2 1688   0.000   3.079   2.846
  555SOL     OW 1689   1.726   1.997   2.385
  555SOL    HW1 1690   1.799   1.980   2.318
  555SOL    HW2 1691   1.695   1.910   2.423
  556SOL     OW 1692   1.280   2.789   2.534
  556SOL    HW1 1693   1.340   2.708   2.536
  556SOL    HW2 1694   1.320   2.858   2.474
  557SOL     OW 1695   1.841   2.037   2.825
  557SOL    HW1 1696   1.880   1.952   2.789
  557SOL    HW2 1697   1.743   2.039   2.806
  558SOL     OW 1698   0.263   2.188   2.582
  558SOL    HW1 1699   0.184   2.239   2.548
  558SOL    HW2 1700   0.254   2.173   2.680
  559SOL     OW 1701   0.822   2.864   3.234
  559SOL    HW1 1702   0.862   2.863   3.142
  559SOL    HW2 1703   0.832   2.956   3.274
  560SOL     OW 1704   0.916   2.772   2.153
  560SOL    HW1 1705   0.979   2.810   2.085
  560SOL    HW2 1706   0.956   2.689   2.192
  561SOL     OW 1707   1.014   2.098   2.833
  561SOL    HW1 1708   1.006   2.062   2.740
  561SOL    HW2 1709   1.012   2.022   2.898
  562SOL     OW 1710   1.709   2.247   3.243
  562SOL    HW1 1711   1.782   2.316   3.247
  562SOL    HW2 1712   1.737   2.172   3.184
  563SOL     OW 1713   0.075   2.207   1.895
  563SOL    HW1 1714  -0.017   2.179   1.866
  563SOL    HW2 1715   0.106   2.284   1.839
  564SOL     OW 1716   0.072   2.028   2.180
  564SOL    HW1 1717   0.055   2.111   2.126
  564SOL    HW2 1718   0.162   1.991   2.158
  565SOL     OW 1719   1.674   2.745   3.116
  565SOL    HW1 1720   1.647   2.656   3.079
  565SOL    HW2 1721   1.675   2.813   3.043
  566SOL     OW 1722   1.225   2.187   2.311
  566SOL    HW1 1723   1.290   2.113   2.300
  566SOL    HW2 1724   1.245   2.237   2.395
  567SOL     OW 1725   0.594   2.607   2.514
  567SOL    HW1 1726   0.644   2.692   2.495
  567SOL    HW2 1727   0.506   2.609   2.466
  568SOL     OW 1728   1.730   2.796   3.379
  568SOL    HW1 1729   1.768   2.887   3.394
  568SOL    HW2 1730   1.722   2.779   3.280
  569SOL     OW 1731   0.859   2.818   2.723
  569SOL    HW1 1732   0.913   2.749   2.771
  569SOL    HW2 1733   0.827   2.887   2.789
  570SOL     OW 1734   1.083   2.846   1.949
  570SOL    HW1 1735   1.060   2.899   1.867
  570SOL    HW2 1736   1.164   2.790   1.930
  571SOL     OW 1737   0.079   3.102   2.515
  571SOL    HW1 1738   0.078   3.055   2.603
  571SOL    HW2 1739   0.161   3.074   2.464
  572SOL     OW 1740   1.824   2.054   3.089
  572SOL    HW1 1741   1.820   1.964   3.133
  572SOL    HW2 1742   1.827   2.043   2.990
  573SOL     OW 1743   0.428   2.286   2.382
  573SOL    HW1 1744   0.458   2.214   2.320
  573SOL    HW2 1745   0.389   2.246   2.465
  574SOL     OW 1746   1.424   2.076   2.974
  574SOL    HW1 1747   1.476   2.011   3.029
  574SOL    HW2 1748   1.375   2.139   3.035
  575SOL     OW 1749   0.770   3.192   2.163
  575SOL    HW1 1750   0.724   3.105   2.180
  575SOL    HW2 1751   0.861   3.189   2.204
  576SOL     OW 1752   1.352   1.914   2.030
  576SOL    HW1 1753   1.387   1.873   1.946
  576SOL    HW2 1754   1.262   1.876   2.050
  577SOL     OW 1755   1.300   2.315   2.553
  577SOL    HW1 1756   1.241   2.395   2.557
  577SOL    HW2 1757   1.315   2.280   2.646
  578SOL     OW 1758   1.593   2.083   2.744
  578SOL    HW1 1759   1.509   2.082   2.798
  578SOL    HW2 1760   1.595   2.166   2.688
  579SOL     OW 1761   0.039   2.939   2.162
  579SOL    HW1 1762   0.138   2.928   2.153
  579SOL    HW2 1763  -0.001   2.853   2.194
  580SOL     OW 1764   2.092   0.628   0.113
  580SOL    HW1 1765   1.999   0.626   0.150
  580SOL    HW2 1766   2.093   0.589   0.021
  581SOL     OW 1767   2.087   0.275   0.996
  581SOL    HW1 1768   2.122   0.258   1.088
  581SOL    HW2 1769   1.999   0.230   0.984
  582SOL     OW 1770   1.881   0.368   0.647
  582SOL    HW1 1771   1.799   0.411   0.686
  582SOL    HW2 1772   1.853   0.295   0.584
  583SOL     OW 1773   2.431   1.275   1.165
  583SOL    HW1 1774   2.338   1.268   1.128
  583SOL    HW2 1775   2.442   1.364   1.209
  584SOL     OW 1776   2.630   1.144   1.023
  584SOL    HW1 1777   2.552   1.161   1.083
  584SOL    HW2 1778   2.664   1.231   0.987
  585SOL     OW 1779   2.712   0.798   1.823
  585SOL    HW1 1780   2.708   0.874   1.888
  585SOL    HW2 1781   2.734   0.834   1.732
  586SOL     OW 1782   2.547   1.012   0.665
  586SOL    HW1 1783   2.616   0.996   0.735
  586SOL    HW2 1784   2.474   1.069   0.703
  587SOL     OW 1785   2.548   1.161   1.803
  587SOL    HW1 1786   2.608   1.240   1.817
  587SOL    HW2 1787   2.462   1.192   1.762
  588SOL     OW 1788   2.197   1.435   1.061
  588SOL    HW1 1789   2.119   1.404   1.008
  588SOL    HW2 1790   2.255   1.493   1.004
  589SOL     OW 1791   2.300   0.392   1.499
  589SOL    HW1 1792   2.382   0.336   1.508
  589SOL    HW2 1793   2.219   0.334   1.503
  590SOL     OW 1794   2.093   1.713   0.483
  590SOL    HW1 1795   2.127   1.790   0.537
  590SOL    HW2 1796   2.137   1.713   0.393
  591SOL     OW 1797   2.989   1.341   1.690
  591SOL    HW1 1798   3.036   1.341   1.778
  591SOL    HW2 1799   2.941   1.254   1.679
  592SOL     OW 1800   2.092   1.434   0.538
  592SOL    HW1 1801   2.066   1.530   0.538
  592SOL    HW2 1802   2.021   1.380   0.583
  593SOL     OW 1803   2.102   1.091   0.886
  593SOL    HW1 1804   2.116   1.007   0.938
  593SOL    HW2 1805   2.047   1.155   0.941
  594SOL     OW 1806   2.482   1.786   1.439
  594SOL    HW1 1807   2.390   1.769   1.474
  594SOL    HW2 1808   2.510   1.878   1.465
  595SOL     OW 1809   2.468   0.964   0.123
  595SOL    HW1 1810   2.475   1.048   0.069
  595SOL    HW2 1811   2.514   0.977   0.211
  596SOL     OW 1812   1.984   0.643   0.563
  596SOL    HW1 1813   1.939   0.555   0.580
  596SOL    HW2 1814   1.983   0.697   0.647
  597SOL     OW 1815   1.889   1.596   0.117
  597SOL    HW1 1816   1.870   1.500   0.138
  597SOL    HW2 1817   1.856   1.654   0.192
  598SOL     OW 1818   1.975   0.737   1.597
  598SOL    HW1 1819   2.063   0.724   1.642
  598SOL    HW2 1820   1.962   0.834   1.575
  599SOL     OW 1821   2.475   1.365   0.726
  599SOL    HW1 1822   2.426   1.278   0.735
  599SOL    HW2 1823   2.452   1.408   0.639
  600SOL     OW 1824   2.671   0.004   0.502
  600SOL    HW1 1825   2.711   0.095   0.493
  600SOL    HW2 1826   2.571   0.012   0.508
  601SOL     OW 1827   2.059   0.976   1.264
  601SOL    HW1 1828   2.148   0.931   1.250
  601SOL    HW2 1829   1.986   0.911   1.245
  602SOL     OW 1830   2.179   0.251   1.801
  602SOL    HW1 1831   2.250   0.322   1.807
  602SOL    HW2 1832   2.091   0.290   1.829
  603SOL     OW 1833   2.460   0.729   0.270
  603SOL    HW1 1834   2.484   0.798   0.202
  603SOL    HW2 1835   2.382   0.762   0.324
  604SOL     OW 1836   2.669   0.605   1.465
  604SOL    HW1 1837   2.622   0.602   1.554
  604SOL    HW2 1838   2.618   0.550   1.399
  605SOL     OW 1839   2.835   0.890   1.572
  605SOL    HW1 1840   2.881   0.806   1.543
  605SOL    HW2 1841   2.779   0.924   1.497
  606SOL     OW 1842   2.853   0.410   1.242
  606SOL    HW1 1843   2.776   0.444   1.296
  606SOL    HW2 1844   2.819   0.359   1.163
  607SOL     OW 1845   2.903   0.701   0.429
  607SOL    HW1 1846   2.929   0.697   0.525
  607SOL    HW2 1847   2.818   0.650   0.415
  608SOL     OW 1848   1.938   0.811   0.789
  608SOL    HW1 1849   2.037   0.799   0.798
  608SOL    HW2 1850   1.914   0.906   0.810
  609SOL     OW 1851   1.992   1.821   1.571
  609SOL    HW1 1852   1.982   1.806   1.670
  609SOL    HW2 1853   1.906   1.857   1.535
  610SOL     OW 1854   2.727   0.348   0.195
  610SOL    HW1 1855   2.786   0.411   0.146
  610SOL    HW2 1856   2.746   0.254   0.166
  611SOL     OW 1857   2.412   0.196   0.885
  611SOL    HW1 1858   2.407   0.191   0.985
  611SOL    HW2 1859   2.414   0.292   0.856
  612SOL     OW 1860   2.870   1.456   0.477
  612SOL    HW1 1861   2.824   1.528   0.425
  612SOL    HW2 1862   2.866   1.476   0.575
  613SOL     OW 1863   2.213   1.801   0.853
  613SOL    HW1 1864   2.263   1.715   0.859
  613SOL    HW2 1865   2.278   1.878   0.850
  614SOL     OW 1866   2.183   0.943   0.242
  614SOL    HW1 1867   2.265   0.982   0.200
  614SOL    HW2 1868   2.156   0.861   0.193
  615SOL     OW 1869   2.323   1.266   1.727
  615SOL    HW1 1870   2.273   1.267   1.641
  615SOL    HW2 1871   2.260   1.248   1.803
  616SOL     OW 1872   2.064   0.285   1.498
  616SOL    HW1 1873   1.984   0.345   1.485
  616SOL    HW2 1874   2.054   0.236   1.584
  617SOL     OW 1875   2.326   1.743   0.323
  617SOL    HW1 1876   2.359   1.782   0.409
  617SOL    HW2 1877   2.402   1.736   0.258
  618SOL     OW 1878   2.111   1.785   1.241
  618SOL    HW1 1879   2.168   1.720   1.291
  618SOL    HW2 1880   2.095   1.752   1.148
  619SOL     OW 1881   2.802   1.698   0.904
  619SOL    HW1 1882   2.882   1.641   0.925
  619SOL    HW2 1883   2.753   1.658   0.827
  620SOL     OW 1884   2.244   0.700   0.480
  620SOL    HW1 1885   2.289   0.610   0.477
  620SOL    HW2 1886   2.150   0.689   0.513
  621SOL     OW 1887   2.476   0.122   0.117
  621SOL    HW1 1888   2.574   0.100   0.124
  621SOL    HW2 1889   2.445   0.105   0.024
  622SOL     OW 1890   2.643   0.264   1.749
  622SOL    HW1 1891   2.710   0.203   1.792
  622SOL    HW2 1892   2.570   0.283   1.814
  623SOL     OW 1893   2.750   1.514   1.195
  623SOL    HW1 1894   2.727   1.489   1.101
  623SOL    HW2 1895   2.811   1.445   1.234
  624SOL     OW 1896   2.665   1.402   0.924
  624SOL    HW1 1897   2.755   1.416   0.882
  624SOL    HW2 1898   2.594   1.404   0.853
  625SOL     OW 1899   2.784   0.503   0.899
  625SOL    HW1 1900   2.759   0.494   0.803
  625SOL    HW2 1901   2.832   0.421   0.930
  626SOL     OW 1902   2.401   0.064   0.512
  626SOL    HW1 1903   2.320   0.065   0.570
  626SOL    HW2 1904   2.404   0.147   0.457
  627SOL     OW 1905   2.159   0.035   0.171
  627SOL    HW1 1906   2.208   0.119   0.150
  627SOL    HW2 1907   2.221  -0.030   0.216
  628SOL     OW 1908   2.797   0.236   0.480
  628SOL    HW1 1909   2.749   0.277   0.402
  628SOL    HW2 1910   2.896   0.234   0.461
  629SOL     OW 1911   3.089   1.570   0.793
  629SOL    HW1 1912   3.110   1.644   0.728
  629SOL    HW2 1913   3.157   1.570   0.866
  630SOL     OW 1914   2.321   1.152   0.741
  630SOL    HW1 1915   2.250   1.125   0.806
  630SOL    HW2 1916   2.295   1.124   0.648
  631SOL     OW 1917   3.133   1.797   0.591
  631SOL    HW1 1918   3.177   1.861   0.527
  631SOL    HW2 1919   3.083   1.849   0.661
  632SOL     OW 1920   2.894   0.549   0.016
  632SOL    HW1 1921   2.853   0.631  -0.023
  632SOL    HW2 1922   2.958   0.575   0.089
  633SOL     OW 1923   1.940   0.556   1.386
  633SOL    HW1 1924   2.032   0.555   1.345
  633SOL    HW2 1925   1.934   0.630   1.453
  634SOL     OW 1926   2.423   0.222   1.147
  634SOL    HW1 1927   2.461   0.138   1.184
  634SOL    HW2 1928   2.335   0.241   1.191
  635SOL     OW 1929   2.728   0.454   0.642
  635SOL    HW1 1930   2.696   0.526   0.580
  635SOL    HW2 1931   2.752   0.373   0.589
  636SOL     OW 1932   2.879   0.039   0.753
  636SOL    HW1 1933   2.807   0.044   0.684
  636SOL    HW2 1934   2.855  -0.030   0.822
  637SOL     OW 1935   2.350   1.385   0.174
  637SOL    HW1 1936   2.263   1.370   0.221
  637SOL    HW2 1937   2.333   1.411   0.079
  638SOL     OW 1938   2.389   0.256   0.328
  638SOL    HW1 1939   2.416   0.197   0.253
  638SOL    HW2 1940   2.389   0.351   0.297
  639SOL     OW 1941   2.973   1.195   1.100
  639SOL    HW1 1942   2.933   1.239   1.181
  639SOL    HW2 1943   2.932   1.232   1.017
  640SOL     OW 1944   2.777   0.089   1.402
  640SOL    HW1 1945   2.802   0.069   1.307
  640SOL    HW2 1946   2.849   0.145   1.444
  641SOL     OW 1947   2.842   1.116   1.719
  641SOL    HW1 1948   2.743   1.122   1.729
  641SOL    HW2 1949   2.865   1.036   1.663
  642SOL     OW 1950   2.567   1.050   0.368
  642SOL    HW1 1951   2.553   1.057   0.467
  642SOL    HW2 1952   2.651   0.999   0.350
  643SOL     OW 1953   2.272   0.813   1.251
  643SOL    HW1 1954   2.358   0.825   1.301
  643SOL    HW2 1955   2.230   0.726   1.278
  644SOL     OW 1956   1.926   1.564   1.331
  644SOL    HW1 1957   1.880   1.646   1.297
  644SOL    HW2 1958   2.024   1.583   1.340
  645SOL     OW 1959   2.229   1.100   0.501
  645SOL    HW1 1960   2.222   1.183   0.445
  645SOL    HW2 1961   2.233   1.020   0.441
  646SOL     OW 1962   2.428   0.537   0.865
  646SOL    HW1 1963   2.440   0.603   0.791
  646SOL    HW2 1964   2.474   0.571   0.948
  647SOL     OW 1965   3.114   1.348   0.388
  647SOL    HW1 1966   3.164   1.425   0.428
  647SOL    HW2 1967   3.019   1.350   0.420
  648SOL     OW 1968   2.216   1.510   1.329
  648SOL    HW1 1969   2.195   1.466   1.242
  648SOL    HW2 1970   2.313   1.536   1.332
  649SOL     OW 1971   2.264   0.751   1.598
  649SOL    HW1 1972   2.332   0.806   1.551
  649SOL    HW2 1973   2.304   0.663   1.625
  650SOL     OW 1974   2.875   0.105   1.770
  650SOL    HW1 1975   2.881   0.190   1.718
  650SOL    HW2 1976   2.907   0.029   1.713
  651SOL     OW 1977   2.366   0.050   1.740
  651SOL    HW1 1978   2.324  -0.007   1.670
  651SOL    HW2 1979   2.300   0.119   1.772
  652SOL     OW 1980   2.435   0.870   1.029
  652SOL    HW1 1981   2.479   0.959   1.020
  652SOL    HW2 1982   2.372   0.870   1.106
  653SOL     OW 1983   3.222   0.862   1.045
  653SOL    HW1 1984   3.147   0.862   0.979
  653SOL    HW2 1985   3.259   0.770   1.054
  654SOL     OW 1986   3.071   0.525   0.275
  654SOL    HW1 1987   3.084   0.441   0.329
  654SOL    HW2 1988   3.042   0.599   0.335
  655SOL     OW 1989   2.169   0.213   1.231
  655SOL    HW1 1990   2.146   0.250   1.321
  655SOL    HW2 1991   2.139   0.118   1.225
  656SOL     OW 1992   1.899   1.310   1.282
  656SOL    HW1 1993   1.952   1.261   1.350
  656SOL    HW2 1994   1.921   1.408   1.287
  657SOL     OW 1995   2.594   0.634   1.064
  657SOL    HW1 1996   2.653   0.608   0.988
  657SOL    HW2 1997   2.566   0.730   1.053
  658SOL     OW 1998   2.169   0.063   0.618
  658SOL    HW1 1999   2.158   0.157   0.651
  658SOL    HW2 2000   2.164   0.000   0.695
  659SOL     OW 2001   2.885   0.766   0.966
  659SOL    HW1 2002   2.900   0.787   1.062
  659SOL    HW2 2003   2.855   0.671   0.957
  660SOL     OW 2004   2.842   1.573   1.700
  660SOL    HW1 2005   2.822   1.617   1.612
  660SOL    HW2 2006   2.881   1.482   1.684
  661SOL     OW 2007   2.212   0.898   1.804
  661SOL    HW1 2008   2.288   0.942   1.852
  661SOL    HW2 2009   2.247   0.851   1.722
  662SOL     OW 2010   2.930   1.333   0.849
  662SOL    HW1 2011   2.937   1.249   0.794
  662SOL    HW2 2012   2.992   1.402   0.813
  663SOL     OW 2013   2.181   0.810   0.949
  663SOL    HW1 2014   2.274   0.846   0.954
  663SOL    HW2 2015   2.175   0.725   1.001
  664SOL     OW 2016   2.201   0.509   1.006
  664SOL    HW1 2017   2.149   0.426   0.989
  664SOL    HW2 2018   2.278   0.514   0.942
  665SOL     OW 2019   3.000   0.380   1.678
  665SOL    HW1 2020   2.955   0.443   1.742
  665SOL    HW2 2021   3.093   0.411   1.661
  666SOL     OW 2022   3.022   0.207   1.477
  666SOL    HW1 2023   3.022   0.271   1.554
  666SOL    HW2 2024   3.050   0.255   1.394
  667SOL     OW 2025   1.870   1.326   0.200
  667SOL    HW1 2026   1.777   1.347   0.169
  667SOL    HW2 2027   1.880   1.227   0.213
  668SOL     OW 2028   1.950   1.801   0.927
  668SOL    HW1 2029   1.908   1.715   0.900
  668SOL    HW2 2030   2.044   1.804   0.893
  669SOL     OW 2031   2.366   1.568   0.910
  669SOL    HW1 2032   2.432   1.642   0.919
  669SOL    HW2 2033   2.410   1.489   0.868
  670SOL     OW 2034   2.864   0.796   1.238
  670SOL    HW1 2035   2.905   0.764   1.324
  670SOL    HW2 2036   2.768   0.769   1.235
  671SOL     OW 2037   1.902   0.544   1.114
  671SOL    HW1 2038   1.987   0.511   1.073
  671SOL    HW2 2039   1.915   0.559   1.212
  672SOL     OW 2040   2.051   0.520   1.722
  672SOL    HW1 2041   2.110   0.480   1.652
  672SOL    HW2 2042   1.993   0.591   1.681
  673SOL     OW 2043   2.677   0.572   0.325
  673SOL    HW1 2044   2.684   0.483   0.279
  673SOL    HW2 2045   2.583   0.606   0.317
  674SOL     OW 2046   2.114   1.564   1.744
  674SOL    HW1 2047   2.084   1.621   1.820
  674SOL    HW2 2048   2.107   1.467   1.770
  675SOL     OW 2049   2.533   0.464   1.269
  675SOL    HW1 2050   2.499   0.375   1.239
  675SOL    HW2 2051   2.559   0.518   1.189
  676SOL     OW 2052   2.792   1.678   1.465
  676SOL    HW1 2053   2.768   1.660   1.370
  676SOL    HW2 2054   2.822   1.772   1.475
  677SOL     OW 2055   2.335   0.500   0.191
  677SOL    HW1 2056   2.396   0.580   0.195
  677SOL    HW2 2057   2.240   0.531   0.198
  678SOL     OW 2058   2.021   1.137   1.466
  678SOL    HW1 2059   2.043   1.076   1.542
  678SOL    HW2 2060   2.031   1.088   1.380
  679SOL     OW 2061   3.164   0.855   0.309
  679SOL    HW1 2062   3.078   0.824   0.351
  679SOL    HW2 2063   3.160   0.841   0.210
  680SOL     OW 2064   1.945   1.258   1.022
  680SOL    HW1 2065   1.940   1.257   1.122
  680SOL    HW2 2066   1.862   1.217   0.984
  681SOL     OW 2067   2.550   1.662   1.716
  681SOL    HW1 2068   2.494   1.743   1.725
  681SOL    HW2 2069   2.602   1.666   1.630
  682SOL     OW 2070   2.765   0.086   0.133
  682SOL    HW1 2071   2.816   0.087   0.047
  682SOL    HW2 2072   2.821   0.044   0.204
  683SOL     OW 2073   1.992   1.794   1.851
  683SOL    HW1 2074   1.951   1.720   1.904
  683SOL    HW2 2075   2.056   1.845   1.909
  684SOL     OW 2076   2.692   1.273   1.422
  684SOL    HW1 2077   2.687   1.306   1.517
  684SOL    HW2 2078   2.606   1.292   1.376
  685SOL     OW 2079   2.534   1.616   0.154
  685SOL    HW1 2080   2.543   1.626   0.055
  685SOL    HW2 2081   2.494   1.527   0.175
  686SOL     OW 2082   2.125   0.326   0.720
  686SOL    HW1 2083   2.046   0.377   0.686
  686SOL    HW2 2084   2.116   0.311   0.818
  687SOL     OW 2085   2.684   1.002   1.372
  687SOL    HW1 2086   2.724   1.001   1.280
  687SOL    HW2 2087   2.694   1.094   1.412
  688SOL     OW 2088   2.778   0.910   0.291
  688SOL    HW1 2089   2.841   0.948   0.223
  688SOL    HW2 2090   2.818   0.827   0.330
  689SOL     OW 2091   2.234   1.288   1.490
  689SOL    HW1 2092   2.221   1.381   1.456
  689SOL    HW2 2093   2.150   1.236   1.477
  690SOL     OW 2094   2.901   1.098   0.696
  690SOL    HW1 2095   2.831   1.051   0.750
  690SOL    HW2 2096   2.960   1.030   0.653
  691SOL     OW 2097   2.876   0.236   0.971
  691SOL    HW1 2098   2.868   0.200   0.878
  691SOL    HW2 2099   2.874   0.160   1.036
  692SOL     OW 2100   2.452   1.487   0.491
  692SOL    HW1 2101   2.494   1.429   0.421
  692SOL    HW2 2102   2.408   1.566   0.447
  693SOL     OW 2103   2.117   1.348   0.290
  693SOL    HW1 2104   2.021   1.349   0.263
  693SOL    HW2 2105   2.129   1.401   0.374
  694SOL     OW 2106   1.967   1.013   1.726
  694SOL    HW1 2107   1.890   0.980   1.780
  694SOL    HW2 2108   2.052   0.983   1.768
  695SOL     OW 2109   2.534   0.203   1.489
  695SOL    HW1 2110   2.624   0.187   1.449
  695SOL    HW2 2111   2.542   0.208   1.588
  696SOL     OW 2112   1.934   0.166   0.318
  696SOL    HW1 2113   1.917   0.249   0.264
  696SOL    HW2 2114   2.024   0.129   0.296
  697SOL     OW 2115   2.475   0.842   1.431
  697SOL    HW1 2116   2.531   0.923   1.414
  697SOL    HW2 2117   2.534   0.762   1.434
  698SOL     OW 2118   2.578   0.565   1.708
  698SOL    HW1 2119   2.597   0.630   1.782
  698SOL    HW2 2120   2.638   0.485   1.717
  699SOL     OW 2121   2.252   1.741   1.560
  699SOL    HW1 2122   2.161   1.782   1.558
  699SOL    HW2 2123   2.245   1.647   1.592
  700SOL     OW 2124   2.456   0.745   0.652
  700SOL    HW1 2125   2.506   0.830   0.633
  700SOL    HW2 2126   2.368   0.747   0.604
  701SOL     OW 2127   2.721   1.374   0.016
  701SOL    HW1 2128   2.675   1.389   0.104
  701SOL    HW2 2129   2.765   1.459  -0.014
  702SOL     OW 2130   2.523   1.790   0.953
  702SOL    HW1 2131   2.477   1.878   0.940
  702SOL    HW2 2132   2.622   1.802   0.946
  703SOL     OW 2133   2.721   0.956   0.861
  703SOL    HW1 2134   2.775   0.887   0.909
  703SOL    HW2 2135   2.689   1.025   0.927
  704SOL     OW 2136   2.945   0.984   0.087
  704SOL    HW1 2137   2.922   1.037   0.005
  704SOL    HW2 2138   3.026   0.928   0.068
  705SOL     OW 2139   1.941   1.240   0.653
  705SOL    HW1 2140   1.940   1.193   0.741
  705SOL    HW2 2141   2.023   1.212   0.602
  706SOL     OW 2142   2.534   1.391   1.624
  706SOL    HW1 2143   2.456   1.341   1.662
  706SOL    HW2 2144   2.531   1.486   1.655
  707SOL     OW 2145   2.290   0.424   0.520
  707SOL    HW1 2146   2.320   0.352   0.458
  707SOL    HW2 2147   2.251   0.384   0.603
  708SOL     OW 2148   2.179   0.547   1.280
  708SOL    HW1 2149   2.217   0.488   1.352
  708SOL    HW2 2150   2.219   0.521   1.192
  709SOL     OW 2151   2.674   1.586   0.687
  709SOL    HW1 2152   2.706   1.596   0.593
  709SOL    HW2 2153   2.595   1.524   0.689
  710SOL     OW 2154   2.863   0.034   1.154
  710SOL    HW1 2155   2.800  -0.038   1.123
  710SOL    HW2 2156   2.956  -0.002   1.154
  711SOL     OW 2157   2.632   1.330   0.301
  711SOL    HW1 2158   2.586   1.243   0.318
  711SOL    HW2 2159   2.723   1.327   0.342
  712SOL     OW 2160   2.480   1.567   1.284
  712SOL    HW1 2161   2.475   1.649   1.341
  712SOL    HW2 2162   2.569   1.564   1.239
  713SOL     OW 2163   1.901   1.077   0.300
  713SOL    HW1 2164   2.000   1.066   0.291
  713SOL    HW2 2165   1.861   0.991   0.332
  714SOL     OW 2166   2.737   1.646   0.337
  714SOL    HW1 2167   2.660   1.611   0.283
  714SOL    HW2 2168   2.705   1.717   0.399
  715SOL     OW 2169   2.092   0.628   1.975
  715SOL    HW1 2170   1.999   0.626   2.012
  715SOL    HW2 2171   2.093   0.589   1.883
  716SOL     OW 2172   2.087   0.275   2.858
  716SOL    HW1 2173   2.122   0.258   2.950
  716SOL    HW2 2174   1.999   0.230   2.846
  717SOL     OW 2175   1.881   0.368   2.509
  717SOL    HW1 2176   1.799   0.411   2.548
  717SOL    HW2 2177   1.853   0.295   2.446
  718SOL     OW 2178   2.431   1.275   3.027
  718SOL    HW1 2179   2.338   1.268   2.990
  718SOL    HW2 2180   2.442   1.364   3.071
  719SOL     OW 2181   2.630   1.144   2.885
  719SOL    HW1 2182   2.552   1.161   2.945
  719SOL    HW2 2183   2.664   1.231   2.849
  720SOL     OW 2184   2.547   1.012   2.527
  720SOL    HW1 2185   2.616   0.996   2.597
  720SOL    HW2 2186   2.474   1.069   2.565
  721SOL     OW 2187   2.197   1.435   2.923
  721SOL    HW1 2188   2.119   1.404   2.870
  721SOL    HW2 2189   2.255   1.493   2.866
  722SOL     OW 2190   2.093   1.713   2.345
  722SOL    HW1 2191   2.127   1.790   2.399
  722SOL    HW2 2192   2.137   1.713   2.255
  723SOL     OW 2193   2.092   1.434   2.400
  723SOL    HW1 2194   2.066   1.530   2.400
  723SOL    HW2 2195   2.021   1.380   2.445
  724SOL     OW 2196   2.102   1.091   2.748
  724SOL    HW1 2197   2.116   1.007   2.800
  724SOL    HW2 2198   2.047   1.155   2.803
  725SOL     OW 2199   2.468   0.964   1.985
  725SOL    HW1 2200   2.475   1.048   1.931
  725SOL    HW2 2201   2.514   0.977   2.073
  726SOL     OW 2202   1.984   0.643   2.425
  726SOL    HW1 2203   1.939   0.555   2.442
  726SOL    HW2 2204   1.983   0.697   2.509
  727SOL     OW 2205   1.889   1.596   1.979
  727SOL    HW1 2206   1.870   1.500   2.000
  727SOL    HW2 2207   1.856   1.654   2.054
  728SOL     OW 2208   2.475   1.365   2.588
  728SOL    HW1 2209   2.426   1.278   2.597
  728SOL    HW2 2210   2.452   1.408   2.501
  729SOL     OW 2211   2.671   0.004   2.364
  729SOL    HW1 2212   2.711   0.095   2.355
  729SOL    HW2 2213   2.571   0.012   2.370
  730SOL     OW 2214   2.059   0.976   3.126
  730SOL    HW1 2215   2.148   0.931   3.112
  730SOL    HW2 2216   1.986   0.911   3.107
  731SOL     OW 2217   2.460   0.729   2.132
  731SOL    HW1 2218   2.484   0.798   2.064
  731SOL    HW2 2219   2.382   0.762   2.186
  732SOL     OW 2220   2.903   0.701   2.291
  732SOL    HW1 2221   2.929   0.697   2.387
  732SOL    HW2 2222   2.818   0.650   2.277
  733SOL     OW 2223   1.938   0.811   2.651
  733SOL    HW1 2224   2.037   0.799   2.660
  733SOL    HW2 2225   1.914   0.906   2.672
  734SOL     OW 2226   2.727   0.348   2.057
  734SOL    HW1 2227   2.786   0.411   2.008
  734SOL    HW2 2228   2.746   0.254   2.028
  735SOL     OW 2229   2.412   0.196   2.747
  735SOL    HW1 2230   2.407   0.191   2.847
  735SOL    HW2 2231   2.414   0.292   2.718
  736SOL     OW 2232   2.870   1.456   2.339
  736SOL    HW1 2233   2.824   1.528   2.287
  736SOL    HW2 2234   2.866   1.476   2.437
  737SOL     OW 2235   2.213   1.801   2.715
  737SOL    HW1 2236   2.263   1.715   2.721
  737SOL    HW2 2237   2.278   1.878   2.712
  738SOL     OW 2238   2.183   0.943   2.104
  738SOL    HW1 2239   2.265   0.982   2.062
  738SOL    HW2 2240   2.156   0.861   2.055
  739SOL     OW 2241   2.326   1.743   2.185
  739SOL    HW1 2242   2.359   1.782   2.271
  739SOL    HW2 2243   2.402   1.736   2.120
  740SOL     OW 2244   2.111   1.785   3.103
  740SOL    HW1 2245   2.168   1.720   3.153
  740SOL    HW2 2246   2.095   1.752   3.010
  741SOL     OW 2247   2.802   1.698   2.766
  741SOL    HW1 2248   2.882   1.641   2.787
  741SOL    HW2 2249   2.753   1.658   2.689
  742SOL     OW 2250   2.244   0.700   2.342
  742SOL    HW1 2251   2.289   0.610   2.339
  742SOL    HW2 2252   2.150   0.689   2.375
  743SOL     OW 2253   2.476   0.122   1.979
  743SOL    HW1 2254   2.574   0.100   1.986
  743SOL    HW2 2255   2.445   0.105   1.886
  744SOL     OW 2256   2.665   1.402   2.786
  744SOL    HW1 2257   2.755   1.416   2.744
  744SOL    HW2 2258   2.594   1.404   2.715
  745SOL     OW 2259   2.784   0.503   2.761
  745SOL    HW1 2260   2.759   0.494   2.665
  745SOL    HW2 2261   2.832   0.421   2.792
  746SOL     OW 2262   2.401   0.064   2.374
  746SOL    HW1 2263   2.320   0.065   2.432
  746SOL    HW2 2264   2.404   0.147   2.319
  747SOL     OW 2265   2.159   0.035   2.033
  747SOL    HW1 2266   2.208   0.119   2.012
  747SOL    HW2 2267   2.221  -0.030   2.078
  748SOL     OW 2268   2.797   0.236   2.342
  748SOL    HW1 2269   2.749   0.277   2.264
  748SOL    HW2 2270   2.896   0.234   2.323
  749SOL     OW 2271   3.089   1.570   2.655
  749SOL    HW1 2272   3.110   1.644   2.590
  749SOL    HW2 2273   3.157   1.570   2.728
  750SOL     OW 2274   2.321   1.152   2.603
  750SOL    HW1 2275   2.250   1.125   2.668
  750SOL    HW2 2276   2.295   1.124   2.510
  751SOL     OW 2277   3.133   1.797   2.453
  751SOL    HW1 2278   3.177   1.861   2.389
  751SOL    HW2 2279   3.083   1.849   2.523
  752SOL     OW 2280   2.894   0.549   1.878
  752SOL    HW1 2281   2.853   0.631   1.839
  752SOL    HW2 2282   2.958   0.575   1.951
  753SOL     OW 2283   2.728   0.454   2.504
  753SOL    HW1 2284   2.696   0.526   2.442
  753SOL    HW2 2285   2.752   0.373   2.451
  754SOL     OW 2286   2.879   0.039   2.615
  754SOL    HW1 2287   2.807   0.044   2.546
  754SOL    HW2 2288   2.855  -0.030   2.684
  755SOL     OW 2289   2.350   1.385   2.036
  755SOL    HW1 2290   2.263   1.370   2.083
  755SOL    HW2 2291   2.333   1.411   1.941
  756SOL     OW 2292   2.389   0.256   2.190
  756SOL    HW1 2293   2.416   0.197   2.115
  756SOL    HW2 2294   2.389   0.351   2.159
  757SOL     OW 2295   2.973   1.195   2.962
  757SOL    HW1 2296   2.933   1.239   3.043
  757SOL    HW2 2297   2.932   1.232   2.879
  758SOL     OW 2298   2.567   1.050   2.230
  758SOL    HW1 2299   2.553   1.057   2.329
  758SOL    HW2 2300   2.651   0.999   2.212
  759SOL     OW 2301   2.272   0.813   3.113
  759SOL    HW1 2302   2.358   0.825   3.163
  759SOL    HW2 2303   2.230   0.726   3.140
  760SOL     OW 2304   2.229   1.100   2.363
  760SOL    HW1 2305   2.222   1.183   2.307
  760SOL    HW2 2306   2.233   1.020   2.303
  761SOL     OW 2307   2.428   0.537   2.727
  761SOL    HW1 2308   2.440   0.603   2.653
  761SOL    HW2 2309   2.474   0.571   2.810
  762SOL     OW 2310   3.114   1.348   2.250
  762SOL    HW1 2311   3.164   1.425   2.290
  762SOL    HW2 2312   3.019   1.350   2.282
  763SOL     OW 2313   3.134   1.445   3.004
  763SOL    HW1 2314   3.181   1.458   3.091
  763SOL    HW2 2315   3.068   1.371   3.013
  764SOL     OW 2316   2.435   0.870   2.891
  764SOL    HW1 2317   2.479   0.959   2.882
  764SOL    HW2 2318   2.372   0.870   2.968
  765SOL     OW 2319   3.222   0.862   2.907
  765SOL    HW1 2320   3.147   0.862   2.841
  765SOL    HW2 2321   3.259   0.770   2.916
  766SOL     OW 2322   3.071   0.525   2.137
  766SOL    HW1 2323   3.084   0.441   2.191
  766SOL    HW2 2324   3.042   0.599   2.197
  767SOL     OW 2325   2.169   0.213   3.093
  767SOL    HW1 2326   2.146   0.250   3.183
  767SOL    HW2 2327   2.139   0.118   3.087
  768SOL     OW 2328   2.594   0.634   2.926
  768SOL    HW1 2329   2.653   0.608   2.850
  768SOL    HW2 2330   2.566   0.730   2.915
  769SOL     OW 2331   2.169   0.063   2.480
  769SOL    HW1 2332   2.158   0.157   2.513
  769SOL    HW2 2333   2.164   0.000   2.557
  770SOL     OW 2334   2.885   0.766   2.828
  770SOL    HW1 2335   2.900   0.787   2.924
  770SOL    HW2 2336   2.855   0.671   2.819
  771SOL     OW 2337   3.165   0.838   1.904
  771SOL    HW1 2338   3.199   0.745   1.919
  771SOL    HW2 2339   3.183   0.865   1.809
  772SOL     OW 2340   2.930   1.333   2.711
  772SOL    HW1 2341   2.937   1.249   2.656
  772SOL    HW2 2342   2.992   1.402   2.675
  773SOL     OW 2343   2.181   0.810   2.811
  773SOL    HW1 2344   2.274   0.846   2.816
  773SOL    HW2 2345   2.175   0.725   2.863
  774SOL     OW 2346   2.201   0.509   2.868
  774SOL    HW1 2347   2.149   0.426   2.851
  774SOL    HW2 2348   2.278   0.514   2.804
  775SOL     OW 2349   1.870   1.326   2.062
  775SOL    HW1 2350   1.777   1.347   2.031
  775SOL    HW2 2351   1.880   1.227   2.075
  776SOL     OW 2352   1.950   1.801   2.789
  776SOL    HW1 2353   1.908   1.715   2.762
  776SOL    HW2 2354   2.044   1.804   2.755
  777SOL     OW 2355   2.366   1.568   2.772
  777SOL    HW1 2356   2.432   1.642   2.781
  777SOL    HW2 2357   2.410   1.489   2.730
  778SOL     OW 2358   2.864   0.796   3.100
  778SOL    HW1 2359   2.905   0.764   3.186
  778SOL    HW2 2360   2.768   0.769   3.097
  779SOL     OW 2361   1.902   0.544   2.976
  779SOL    HW1 2362   1.987   0.511   2.935
  779SOL    HW2 2363   1.915   0.559   3.074
  780SOL     OW 2364   2.677   0.572   2.187
  780SOL    HW1 2365   2.684   0.483   2.141
  780SOL    HW2 2366   2.583   0.606   2.179
  781SOL     OW 2367   2.533   0.464   3.131
  781SOL    HW1 2368   2.499   0.375   3.101
  781SOL    HW2 2369   2.559   0.518   3.051
  782SOL     OW 2370   2.335   0.500   2.053
  782SOL    HW1 2371   2.396   0.580   2.057
  782SOL    HW2 2372   2.240   0.531   2.060
  783SOL     OW 2373   3.164   0.855   2.171
  783SOL    HW1 2374   3.078   0.824   2.213
  783SOL    HW2 2375   3.160   0.841   2.072
  784SOL     OW 2376   1.945   1.258   2.884
  784SOL    HW1 2377   1.940   1.257   2.984
  784SOL    HW2 2378   1.862   1.217   2.846
  785SOL     OW 2379   2.534   1.616   2.016
  785SOL    HW1 2380   2.543   1.626   1.917
  785SOL    HW2 2381   2.494   1.527   2.037
  786SOL     OW 2382   2.125   0.326   2.582
  786SOL    HW1 2383   2.046   0.377   2.548
  786SOL    HW2 2384   2.116   0.311   2.680
  787SOL     OW 2385   2.684   1.002   3.234
  787SOL    HW1 2386   2.724   1.001   3.142
  787SOL    HW2 2387   2.694   1.094   3.274
  788SOL     OW 2388   2.778   0.910   2.153
  788SOL    HW1 2389   2.841   0.948   2.085
  788SOL    HW2 2390   2.818   0.827   2.192
  789SOL     OW 2391   2.901   1.098   2.558
  789SOL    HW1 2392   2.831   1.051   2.612
  789SOL    HW2 2393   2.960   1.030   2.515
  790SOL     OW 2394   2.876   0.236   2.833
  790SOL    HW1 2395   2.868   0.200   2.740
  790SOL    HW2 2396   2.874   0.160   2.898
  791SOL     OW 2397   2.452   1.487   2.353
  791SOL    HW1 2398   2.494   1.429   2.283
  791SOL    HW2 2399   2.408   1.566   2.309
  792SOL     OW 2400   2.117   1.348   2.152
  792SOL    HW1 2401   2.021   1.349   2.125
  792SOL    HW2 2402   2.129   1.401   2.236
  793SOL     OW 2403   1.937   0.345   1.895
  793SOL    HW1 2404   1.845   0.317   1.866
  793SOL    HW2 2405   1.968   0.422   1.839
  794SOL     OW 2406   1.934   0.166   2.180
  794SOL    HW1 2407   1.917   0.249   2.126
  794SOL    HW2 2408   2.024   0.129   2.158
  795SOL     OW 2409   2.456   0.745   2.514
  795SOL    HW1 2410   2.506   0.830   2.495
  795SOL    HW2 2411   2.368   0.747   2.466
  796SOL     OW 2412   2.721   1.374   1.878
  796SOL    HW1 2413   2.675   1.389   1.966
  796SOL    HW2 2414   2.765   1.459   1.848
  797SOL     OW 2415   2.523   1.790   2.815
  797SOL    HW1 2416   2.477   1.878   2.802
  797SOL    HW2 2417   2.622   1.802   2.808
  798SOL     OW 2418   2.721   0.956   2.723
  798SOL    HW1 2419   2.775   0.887   2.771
  798SOL    HW2 2420   2.689   1.025   2.789
  799SOL     OW 2421   2.945   0.984   1.949
  799SOL    HW1 2422   2.922   1.037   1.867
  799SOL    HW2 2423   3.026   0.928   1.930
  800SOL     OW 2424   1.941   1.240   2.515
  800SOL    HW1 2425   1.940   1.193   2.603
  800SOL    HW2 2426   2.023   1.212   2.464
  801SOL     OW 2427   2.290   0.424   2.382
  801SOL    HW1 2428   2.320   0.352   2.320
  801SOL    HW2 2429   2.251   0.384   2.465
  802SOL     OW 2430   2.674   1.586   2.549
  802SOL    HW1 2431   2.706   1.596   2.455
  802SOL    HW2 2432   2.595   1.524   2.551
  803SOL     OW 2433   2.632   1.330   2.163
  803SOL    HW1 2434   2.586   1.243   2.180
  803SOL    HW2 2435   2.723   1.327   2.204
  804SOL     OW 2436   1.901   1.077   2.162
  804SOL    HW1 2437   2.000   1.066   2.153
  804SOL    HW2 2438   1.861   0.991   2.194
  805SOL     OW 2439   2.737   1.646   2.199
  805SOL    HW1 2440   2.660   1.611   2.145
  805SOL    HW2 2441   2.705   1.717   2.261
  806SOL     OW 2442   2.092   2.490   0.113
  806SOL    HW1 2443   1.999   2.488   0.150
  806SOL    HW2 2444   2.093   2.451   0.021
  807SOL     OW 2445   2.087   2.137   0.996
  807SOL    HW1 2446   2.122   2.120   1.088
  807SOL    HW2 2447   1.999   2.092   0.984
  808SOL     OW 2448   1.881   2.230   0.647
  808SOL    HW1 2449   1.799   2.273   0.686
  808SOL    HW2 2450   1.853   2.157   0.584
  809SOL     OW 2451   2.630   3.006   1.023
  809SOL    HW1 2452   2.552   3.023   1.083
  809SOL    HW2 2453   2.664   3.093   0.987
  810SOL     OW 2454   2.712   2.660   1.823
  810SOL    HW1 2455   2.708   2.736   1.888
  810SOL    HW2 2456   2.734   2.696   1.732
  811SOL     OW 2457   2.547   2.874   0.665
  811SOL    HW1 2458   2.616   2.858   0.735
  811SOL    HW2 2459   2.474   2.931   0.703
  812SOL     OW 2460   2.300   2.254   1.499
  812SOL    HW1 2461   2.382   2.198   1.508
  812SOL    HW2 2462   2.219   2.196   1.503
  813SOL     OW 2463   2.102   2.953   0.886
  813SOL    HW1 2464   2.116   2.869   0.938
  813SOL    HW2 2465   2.047   3.017   0.941
  814SOL     OW 2466   2.468   2.826   0.123
  814SOL    HW1 2467   2.475   2.910   0.069
  814SOL    HW2 2468   2.514   2.839   0.211
  815SOL     OW 2469   1.984   2.505   0.563
  815SOL    HW1 2470   1.939   2.417   0.580
  815SOL    HW2 2471   1.983   2.559   0.647
  816SOL     OW 2472   1.975   2.599   1.597
  816SOL    HW1 2473   2.063   2.586   1.642
  816SOL    HW2 2474   1.962   2.696   1.575
  817SOL     OW 2475   2.475   3.227   0.726
  817SOL    HW1 2476   2.426   3.140   0.735
  817SOL    HW2 2477   2.452   3.270   0.639
  818SOL     OW 2478   2.671   1.866   0.502
  818SOL    HW1 2479   2.711   1.957   0.493
  818SOL    HW2 2480   2.571   1.874   0.508
  819SOL     OW 2481   2.059   2.838   1.264
  819SOL    HW1 2482   2.148   2.793   1.250
  819SOL    HW2 2483   1.986   2.773   1.245
  820SOL     OW 2484   2.179   2.113   1.801
  820SOL    HW1 2485   2.250   2.184   1.807
  820SOL    HW2 2486   2.091   2.152   1.829
  821SOL     OW 2487   2.460   2.591   0.270
  821SOL    HW1 2488   2.484   2.660   0.202
  821SOL    HW2 2489   2.382   2.624   0.324
  822SOL     OW 2490   2.669   2.467   1.465
  822SOL    HW1 2491   2.622   2.464   1.554
  822SOL    HW2 2492   2.618   2.412   1.399
  823SOL     OW 2493   2.835   2.752   1.572
  823SOL    HW1 2494   2.881   2.668   1.543
  823SOL    HW2 2495   2.779   2.786   1.497
  824SOL     OW 2496   2.853   2.272   1.242
  824SOL    HW1 2497   2.776   2.306   1.296
  824SOL    HW2 2498   2.819   2.221   1.163
  825SOL     OW 2499   2.903   2.563   0.429
  825SOL    HW1 2500   2.929   2.559   0.525
  825SOL    HW2 2501   2.818   2.512   0.415
  826SOL     OW 2502   1.938   2.673   0.789
  826SOL    HW1 2503   2.037   2.661   0.798
  826SOL    HW2 2504   1.914   2.768   0.810
  827SOL     OW 2505   2.727   2.210   0.195
  827SOL    HW1 2506   2.786   2.273   0.146
  827SOL    HW2 2507   2.746   2.116   0.166
  828SOL     OW 2508   2.412   2.058   0.885
  828SOL    HW1 2509   2.407   2.053   0.985
  828SOL    HW2 2510   2.414   2.154   0.856
  829SOL     OW 2511   2.183   2.805   0.242
  829SOL    HW1 2512   2.265   2.844   0.200
  829SOL    HW2 2513   2.156   2.723   0.193
  830SOL     OW 2514   2.064   2.147   1.498
  830SOL    HW1 2515   1.984   2.207   1.485
  830SOL    HW2 2516   2.054   2.098   1.584
  831SOL     OW 2517   2.244   2.562   0.480
  831SOL    HW1 2518   2.289   2.472   0.477
  831SOL    HW2 2519   2.150   2.551   0.513
  832SOL     OW 2520   2.476   1.984   0.117
  832SOL    HW1 2521   2.574   1.962   0.124
  832SOL    HW2 2522   2.445   1.967   0.024
  833SOL     OW 2523   2.643   2.126   1.749
  833SOL    HW1 2524   2.710   2.065   1.792
  833SOL    HW2 2525   2.570   2.145   1.814
  834SOL     OW 2526   2.784   2.365   0.899
  834SOL    HW1 2527   2.759   2.356   0.803
  834SOL    HW2 2528   2.832   2.283   0.930
  835SOL     OW 2529   2.401   1.926   0.512
  835SOL    HW1 2530   2.320   1.927   0.570
  835SOL    HW2 2531   2.404   2.009   0.457
  836SOL     OW 2532   2.159   1.897   0.171
  836SOL    HW1 2533   2.208   1.981   0.150
  836SOL    HW2 2534   2.221   1.832   0.216
  837SOL     OW 2535   2.797   2.098   0.480
  837SOL    HW1 2536   2.749   2.139   0.402
  837SOL    HW2 2537   2.896   2.096   0.461
  838SOL     OW 2538   2.321   3.014   0.741
  838SOL    HW1 2539   2.250   2.987   0.806
  838SOL    HW2 2540   2.295   2.986   0.648
  839SOL     OW 2541   2.894   2.411   0.016
  839SOL    HW1 2542   2.853   2.493  -0.023
  839SOL    HW2 2543   2.958   2.437   0.089
  840SOL     OW 2544   1.940   2.418   1.386
  840SOL    HW1 2545   2.032   2.417   1.345
  840SOL    HW2 2546   1.934   2.492   1.453
  841SOL     OW 2547   2.423   2.084   1.147
  841SOL    HW1 2548   2.461   2.000   1.184
  841SOL    HW2 2549   2.335   2.103   1.191
  842SOL     OW 2550   2.728   2.316   0.642
  842SOL    HW1 2551   2.696   2.388   0.580
  842SOL    HW2 2552   2.752   2.235   0.589
  843SOL     OW 2553   2.879   1.901   0.753
  843SOL    HW1 2554   2.807   1.906   0.684
  843SOL    HW2 2555   2.855   1.832   0.822
  844SOL     OW 2556   2.389   2.118   0.328
  844SOL    HW1 2557   2.416   2.059   0.253
  844SOL    HW2 2558   2.389   2.213   0.297
  845SOL     OW 2559   2.777   1.951   1.402
  845SOL    HW1 2560   2.802   1.931   1.307
  845SOL    HW2 2561   2.849   2.007   1.444
  846SOL     OW 2562   2.567   2.912   0.368
  846SOL    HW1 2563   2.553   2.919   0.467
  846SOL    HW2 2564   2.651   2.861   0.350
  847SOL     OW 2565   2.272   2.675   1.251
  847SOL    HW1 2566   2.358   2.687   1.301
  847SOL    HW2 2567   2.230   2.588   1.278
  848SOL     OW 2568   2.229   2.962   0.501
  848SOL    HW1 2569   2.222   3.045   0.445
  848SOL    HW2 2570   2.233   2.882   0.441
  849SOL     OW 2571   2.428   2.399   0.865
  849SOL    HW1 2572   2.440   2.465   0.791
  849SOL    HW2 2573   2.474   2.433   0.948
  850SOL     OW 2574   2.264   2.613   1.598
  850SOL    HW1 2575   2.332   2.668   1.551
  850SOL    HW2 2576   2.304   2.525   1.625
  851SOL     OW 2577   2.875   1.967   1.770
  851SOL    HW1 2578   2.881   2.052   1.718
  851SOL    HW2 2579   2.907   1.891   1.713
  852SOL     OW 2580   2.366   1.912   1.740
  852SOL    HW1 2581   2.324   1.855   1.670
  852SOL    HW2 2582   2.300   1.981   1.772
  853SOL     OW 2583   2.435   2.732   1.029
  853SOL    HW1 2584   2.479   2.821   1.020
  853SOL    HW2 2585   2.372   2.732   1.106
  854SOL     OW 2586   3.222   2.724   1.045
  854SOL    HW1 2587   3.147   2.724   0.979
  854SOL    HW2 2588   3.259   2.632   1.054
  855SOL     OW 2589   3.071   2.387   0.275
  855SOL    HW1 2590   3.084   2.303   0.329
  855SOL    HW2 2591   3.042   2.461   0.335
  856SOL     OW 2592   2.169   2.075   1.231
  856SOL    HW1 2593   2.146   2.112   1.321
  856SOL    HW2 2594   2.139   1.980   1.225
  857SOL     OW 2595   2.594   2.496   1.064
  857SOL    HW1 2596   2.653   2.470   0.988
  857SOL    HW2 2597   2.566   2.592   1.053
  858SOL     OW 2598   2.169   1.925   0.618
  858SOL    HW1 2599   2.158   2.019   0.651
  858SOL    HW2 2600   2.164   1.862   0.695
  859SOL     OW 2601   2.885   2.628   0.966
  859SOL    HW1 2602   2.900   2.649   1.062
  859SOL    HW2 2603   2.855   2.533   0.957
  860SOL     OW 2604   2.212   2.760   1.804
  860SOL    HW1 2605   2.288   2.804   1.852
  860SOL    HW2 2606   2.247   2.713   1.722
  861SOL     OW 2607   2.181   2.672   0.949
  861SOL    HW1 2608   2.274   2.708   0.954
  861SOL    HW2 2609   2.175   2.587   1.001
  862SOL     OW 2610   2.201   2.371   1.006
  862SOL    HW1 2611   2.149   2.288   0.989
  862SOL    HW2 2612   2.278   2.376   0.942
  863SOL     OW 2613   3.000   2.242   1.678
  863SOL    HW1 2614   2.955   2.305   1.742
  863SOL    HW2 2615   3.093   2.273   1.661
  864SOL     OW 2616   3.022   2.069   1.477
  864SOL    HW1 2617   3.022   2.133   1.554
  864SOL    HW2 2618   3.050   2.117   1.394
  865SOL     OW 2619   2.864   2.658   1.238
  865SOL    HW1 2620   2.905   2.626   1.324
  865SOL    HW2 2621   2.768   2.631   1.235
  866SOL     OW 2622   1.902   2.406   1.114
  866SOL    HW1 2623   1.987   2.373   1.073
  866SOL    HW2 2624   1.915   2.421   1.212
  867SOL     OW 2625   2.051   2.382   1.722
  867SOL    HW1 2626   2.110   2.342   1.652
  867SOL    HW2 2627   1.993   2.453   1.681
  868SOL     OW 2628   2.677   2.434   0.325
  868SOL    HW1 2629   2.684   2.345   0.279
  868SOL    HW2 2630   2.583   2.468   0.317
  869SOL     OW 2631   2.533   2.326   1.269
  869SOL    HW1 2632   2.499   2.237   1.239
  869SOL    HW2 2633   2.559   2.380   1.189
  870SOL     OW 2634   2.335   2.362   0.191
  870SOL    HW1 2635   2.396   2.442   0.195
  870SOL    HW2 2636   2.240   2.393   0.198
  871SOL     OW 2637   2.021   2.999   1.466
  871SOL    HW1 2638   2.043   2.938   1.542
  871SOL    HW2 2639   2.031   2.950   1.380
  872SOL     OW 2640   3.164   2.717   0.309
  872SOL    HW1 2641   3.078   2.686   0.351
  872SOL    HW2 2642   3.160   2.703   0.210
  873SOL     OW 2643   2.765   1.948   0.133
  873SOL    HW1 2644   2.816   1.949   0.047
  873SOL    HW2 2645   2.821   1.906   0.204
  874SOL     OW 2646   2.125   2.188   0.720
  874SOL    HW1 2647   2.046   2.239   0.686
  874SOL    HW2 2648   2.116   2.173   0.818
  875SOL     OW 2649   2.684   2.864   1.372
  875SOL    HW1 2650   2.724   2.863   1.280
  875SOL    HW2 2651   2.694   2.956   1.412
  876SOL     OW 2652   2.778   2.772   0.291
  876SOL    HW1 2653   2.841   2.810   0.223
  876SOL    HW2 2654   2.818   2.689   0.330
  877SOL     OW 2655   2.234   3.150   1.490
  877SOL    HW1 2656   2.221   3.243   1.456
  877SOL    HW2 2657   2.150   3.098   1.477
  878SOL     OW 2658   2.876   2.098   0.971
  878SOL    HW1 2659   2.868   2.062   0.878
  878SOL    HW2 2660   2.874   2.022   1.036
  879SOL     OW 2661   1.967   2.875   1.726
  879SOL    HW1 2662   1.890   2.842   1.780
  879SOL    HW2 2663   2.052   2.845   1.768
  880SOL     OW 2664   2.534   2.065   1.489
  880SOL    HW1 2665   2.624   2.049   1.449
  880SOL    HW2 2666   2.542   2.070   1.588
  881SOL     OW 2667   1.934   2.028   0.318
  881SOL    HW1 2668   1.917   2.111   0.264
  881SOL    HW2 2669   2.024   1.991   0.296
  882SOL     OW 2670   2.475   2.704   1.431
  882SOL    HW1 2671   2.531   2.785   1.414
  882SOL    HW2 2672   2.534   2.624   1.434
  883SOL     OW 2673   2.578   2.427   1.708
  883SOL    HW1 2674   2.597   2.492   1.782
  883SOL    HW2 2675   2.638   2.347   1.717
  884SOL     OW 2676   2.456   2.607   0.652
  884SOL    HW1 2677   2.506   2.692   0.633
  884SOL    HW2 2678   2.368   2.609   0.604
  885SOL     OW 2679   2.721   2.818   0.861
  885SOL    HW1 2680   2.775   2.749   0.909
  885SOL    HW2 2681   2.689   2.887   0.927
  886SOL     OW 2682   2.945   2.846   0.087
  886SOL    HW1 2683   2.922   2.899   0.005
  886SOL    HW2 2684   3.026   2.790   0.068
  887SOL     OW 2685   1.941   3.102   0.653
  887SOL    HW1 2686   1.940   3.055   0.741
  887SOL    HW2 2687   2.023   3.074   0.602
  888SOL     OW 2688   2.290   2.286   0.520
  888SOL    HW1 2689   2.320   2.214   0.458
  888SOL    HW2 2690   2.251   2.246   0.603
  889SOL     OW 2691   2.179   2.409   1.280
  889SOL    HW1 2692   2.217   2.350   1.352
  889SOL    HW2 2693   2.219   2.383   1.192
  890SOL     OW 2694   2.863   1.896   1.154
  890SOL    HW1 2695   2.800   1.824   1.123
  890SOL    HW2 2696   2.956   1.860   1.154
  891SOL     OW 2697   2.632   3.192   0.301
  891SOL    HW1 2698   2.586   3.105   0.318
  891SOL    HW2 2699   2.723   3.189   0.342
  892SOL     OW 2700   2.092   2.490   1.975
  892SOL    HW1 2701   1.999   2.488   2.012
  892SOL    HW2 2702   2.093   2.451   1.883
  893SOL     OW 2703   2.087   2.137   2.858
  893SOL    HW1 2704   2.122   2.120   2.950
  893SOL    HW2 2705   1.999   2.092   2.846
  894SOL     OW 2706   1.881   2.230   2.509
  894SOL    HW1 2707   1.799   2.273   2.548
  894SOL    HW2 2708   1.853   2.157   2.446
  895SOL     OW 2709   2.630   3.006   2.885
  895SOL    HW1 2710   2.552   3.023   2.945
  895SOL    HW2 2711   2.664   3.093   2.849
  896SOL     OW 2712   2.547   2.874   2.527
  896SOL    HW1 2713   2.616   2.858   2.597
  896SOL    HW2 2714   2.474   2.931   2.565
  897SOL     OW 2715   2.102   2.953   2.748
  897SOL    HW1 2716   2.116   2.869   2.800
  897SOL    HW2 2717   2.047   3.017   2.803
  898SOL     OW 2718   2.468   2.826   1.985
  898SOL    HW1 2719   2.475   2.910   1.931
  898SOL    HW2 2720   2.514   2.839   2.073
  899SOL     OW 2721   1.984   2.505   2.425
  899SOL    HW1 2722   1.939   2.417   2.442
  899SOL    HW2 2723   1.983   2.559   2.509
  900SOL     OW 2724   2.475   3.227   2.588
  900SOL    HW1 2725   2.426   3.140   2.597
  900SOL    HW2 2726   2.452   3.270   2.501
  901SOL     OW 2727   2.671   1.866   2.364
  901SOL    HW1 2728   2.711   1.957   2.355
  901SOL    HW2 2729   2.571   1.874   2.370
  902SOL     OW 2730   2.059   2.838   3.126
  902SOL    HW1 2731   2.148   2.793   3.112
  902SOL    HW2 2732   1.986   2.773   3.107
  903SOL     OW 2733   2.460   2.591   2.132
  903SOL    HW1 2734   2.484   2.660   2.064
  903SOL    HW2 2735   2.382   2.624   2.186
  904SOL     OW 2736   2.903   2.563   2.291
  904SOL    HW1 2737   2.929   2.559   2.387
  904SOL    HW2 2738   2.818   2.512   2.277
  905SOL     OW 2739   1.938   2.673   2.651
  905SOL    HW1 2740   2.037   2.661   2.660
  905SOL    HW2 2741   1.914   2.768   2.672
  906SOL     OW 2742   2.727   2.210   2.057
  906SOL    HW1 2743   2.786   2.273   2.008
  906SOL    HW2 2744   2.746   2.116   2.028
  907SOL     OW 2745   2.412   2.058   2.747
  907SOL    HW1 2746   2.407   2.053   2.847
  907SOL    HW2 2747   2.414   2.154   2.718
  908SOL     OW 2748   2.183   2.805   2.104
  908SOL    HW1 2749   2.265   2.844   2.062
  908SOL    HW2 2750   2.156   2.723   2.055
  909SOL     OW 2751   2.244   2.562   2.342
  909SOL    HW1 2752   2.289   2.472   2.339
  909SOL    HW2 2753   2.150   2.551   2.375
  910SOL     OW 2754   2.476   1.984   1.979
  910SOL    HW1 2755   2.574   1.962   1.986
  910SOL    HW2 2756   2.445   1.967   1.886
  911SOL     OW 2757   2.750   3.376   3.057
  911SOL    HW1 2758   2.727   3.351   2.963
  911SOL    HW2 2759   2.811   3.307   3.096
  912SOL     OW 2760   2.784   2.365   2.761
  912SOL    HW1 2761   2.759   2.356   2.665
  912SOL    HW2 2762   2.832   2.283   2.792
  913SOL     OW 2763   2.401   1.926   2.374
  913SOL    HW1 2764   2.320   1.927   2.432
  913SOL    HW2 2765   2.404   2.009   2.319
  914SOL     OW 2766   2.159   1.897   2.033
  914SOL    HW1 2767   2.208   1.981   2.012
  914SOL    HW2 2768   2.221   1.832   2.078
  915SOL     OW 2769   2.797   2.098   2.342
  915SOL    HW1 2770   2.749   2.139   2.264
  915SOL    HW2 2771   2.896   2.096   2.323
  916SOL     OW 2772   2.321   3.014   2.603
  916SOL    HW1 2773   2.250   2.987   2.668
  916SOL    HW2 2774   2.295   2.986   2.510
  917SOL     OW 2775   2.894   2.411   1.878
  917SOL    HW1 2776   2.853   2.493   1.839
  917SOL    HW2 2777   2.958   2.437   1.951
  918SOL     OW 2778   2.728   2.316   2.504
  918SOL    HW1 2779   2.696   2.388   2.442
  918SOL    HW2 2780   2.752   2.235   2.451
  919SOL     OW 2781   2.879   1.901   2.615
  919SOL    HW1 2782   2.807   1.906   2.546
  919SOL    HW2 2783   2.855   1.832   2.684
  920SOL     OW 2784   2.389   2.118   2.190
  920SOL    HW1 2785   2.416   2.059   2.115
  920SOL    HW2 2786   2.389   2.213   2.159
  921SOL     OW 2787   2.973   3.057   2.962
  921SOL    HW1 2788   2.933   3.101   3.043
  921SOL    HW2 2789   2.932   3.094   2.879
  922SOL     OW 2790   2.567   2.912   2.230
  922SOL    HW1 2791   2.553   2.919   2.329
  922SOL    HW2 2792   2.651   2.861   2.212
  923SOL     OW 2793   2.272   2.675   3.113
  923SOL    HW1 2794   2.358   2.687   3.163
  923SOL    HW2 2795   2.230   2.588   3.140
  924SOL     OW 2796   2.229   2.962   2.363
  924SOL    HW1 2797   2.222   3.045   2.307
  924SOL    HW2 2798   2.233   2.882   2.303
  925SOL     OW 2799   2.428   2.399   2.727
  925SOL    HW1 2800   2.440   2.465   2.653
  925SOL    HW2 2801   2.474   2.433   2.810
  926SOL     OW 2802   2.435   2.732   2.891
  926SOL    HW1 2803   2.479   2.821   2.882
  926SOL    HW2 2804   2.372   2.732   2.968
  927SOL     OW 2805   3.222   2.724   2.907
  927SOL    HW1 2806   3.147   2.724   2.841
  927SOL    HW2 2807   3.259   2.632   2.916
  928SOL     OW 2808   3.071   2.387   2.137
  928SOL    HW1 2809   3.084   2.303   2.191
  928SOL    HW2 2810   3.042   2.461   2.197
  929SOL     OW 2811   2.169   2.075   3.093
  929SOL    HW1 2812   2.146   2.112   3.183
  929SOL    HW2 2813   2.139   1.980   3.087
  930SOL     OW 2814   2.594   2.496   2.926
  930SOL    HW1 2815   2.653   2.470   2.850
  930SOL    HW2 2816   2.566   2.592   2.915
  931SOL     OW 2817   2.169   1.925   2.480
  931SOL    HW1 2818   2.158   2.019   2.513
  931SOL    HW2 2819   2.164   1.862   2.557
  932SOL     OW 2820   2.885   2.628   2.828
  932SOL    HW1 2821   2.900   2.649   2.924
  932SOL    HW2 2822   2.855   2.533   2.819
  933SOL     OW 2823   3.165   2.700   1.904
  933SOL    HW1 2824   3.199   2.607   1.919
  933SOL    HW2 2825   3.183   2.727   1.809
  934SOL     OW 2826   2.181   2.672   2.811
  934SOL    HW1 2827   2.274   2.708   2.816
  934SOL    HW2 2828   2.175   2.587   2.863
  935SOL     OW 2829   2.201   2.371   2.868
  935SOL    HW1 2830   2.149   2.288   2.851
  935SOL    HW2 2831   2.278   2.376   2.804
  936SOL     OW 2832   2.864   2.658   3.100
  936SOL    HW1 2833   2.905   2.626   3.186
  936SOL    HW2 2834   2.768   2.631   3.097
  937SOL     OW 2835   1.902   2.406   2.976
  937SOL    HW1 2836   1.987   2.373   2.935
  937SOL    HW2 2837   1.915   2.421   3.074
  938SOL     OW 2838   2.677   2.434   2.187
  938SOL    HW1 2839   2.684   2.345   2.141
  938SOL    HW2 2840   2.583   2.468   2.179
  939SOL     OW 2841   2.533   2.326   3.131
  939SOL    HW1 2842   2.499   2.237   3.101
  939SOL    HW2 2843   2.559   2.380   3.051
  940SOL     OW 2844   2.335   2.362   2.053
  940SOL    HW1 2845   2.396   2.442   2.057
  940SOL    HW2 2846   2.240   2.393   2.060
  941SOL     OW 2847   2.021   2.999   3.328
  941SOL    HW1 2848   2.043   2.938   3.404
  941SOL    HW2 2849   2.031   2.950   3.242
  942SOL     OW 2850   3.164   2.717   2.171
  942SOL    HW1 2851   3.078   2.686   2.213
  942SOL    HW2 2852   3.160   2.703   2.072
  943SOL     OW 2853   2.125   2.188   2.582
  943SOL    HW1 2854   2.046   2.239   2.548
  943SOL    HW2 2855   2.116   2.173   2.680
  944SOL     OW 2856   2.684   2.864   3.234
  944SOL    HW1 2857   2.724   2.863   3.142
  944SOL    HW2 2858   2.694   2.956   3.274
  945SOL     OW 2859   2.778   2.772   2.153
  945SOL    HW1 2860   2.841   2.810   2.085
  945SOL    HW2 2861   2.818   2.689   2.192
  946SOL     OW 2862   2.876   2.098   2.833
  946SOL    HW1 2863   2.868   2.062   2.740
  946SOL    HW2 2864   2.874   2.022   2.898
  947SOL     OW 2865   1.937   2.207   1.895
  947SOL    HW1 2866   1.845   2.179   1.866
  947SOL    HW2 2867   1.968   2.284   1.839
  948SOL     OW 2868   1.934   2.028   2.180
  948SOL    HW1 2869   1.917   2.111   2.126
  948SOL    HW2 2870   2.024   1.991   2.158
  949SOL     OW 2871   2.456   2.607   2.514
  949SOL    HW1 2872   2.506   2.692   2.495
  949SOL    HW2 2873   2.368   2.609   2.466
  950SOL     OW 2874   2.721   2.818   2.723
  950SOL    HW1 2875   2.775   2.749   2.771
  950SOL    HW2 2876   2.689   2.887   2.789
  951SOL     OW 2877   2.945   2.846   1.949
  951SOL    HW1 2878   2.922   2.899   1.867
  951SOL    HW2 2879   3.026   2.790   1.930
  952SOL     OW 2880   1.941   3.102   2.515
  952SOL    HW1 2881   1.940   3.055   2.603
  952SOL    HW2 2882   2.023   3.074   2.464
  953SOL     OW 2883   2.290   2.286   2.382
  953SOL    HW1 2884   2.320   2.214   2.320
  953SOL    HW2 2885   2.251   2.246   2.465
  954SOL     OW 2886   2.632   3.192   2.163
  954SOL    HW1 2887   2.586   3.105   2.180
  954SOL    HW2 2888   2.723   3.189   2.204
  955SOL     OW 2889   1.901   2.939   2.162
  955SOL    HW1 2890   2.000   2.928   2.153
  955SOL    HW2 2891   1.861   2.853   2.194
   3.07517   3.07517   3.07517
