mobley_3105103_GMX.gro created by acpype (v: 2023.10.27) on Thu May 14 13:25:44 2026
 2160
    1MOL     C1    1   1.596   1.314   1.510
    1MOL     C2    2   1.613   1.431   1.575
    1MOL     C3    3   1.469   1.294   1.434
    1MOL     C4    4   1.405   1.518   1.483
    1MOL     C5    5   1.729   1.467   1.662
    1MOL     C6    6   1.316   1.301   1.183
    1MOL     C7    7   1.158   1.348   1.373
    1MOL     C8    8   1.253   1.533   1.232
    1MOL     C9    9   1.284   1.397   1.301
    1MOL     N1   10   1.515   1.526   1.564
    1MOL     N2   11   1.399   1.409   1.397
    1MOL     O1   12   1.432   1.179   1.409
    1MOL     O2   13   1.321   1.607   1.493
    1MOL    CL1   14   1.707   1.183   1.517
    1MOL     H1   15   1.777   1.558   1.624
    1MOL     H2   16   1.806   1.390   1.667
    1MOL     H3   17   1.695   1.487   1.764
    1MOL     H4   18   1.414   1.324   1.139
    1MOL     H5   19   1.316   1.196   1.213
    1MOL     H6   20   1.241   1.308   1.104
    1MOL     H7   21   1.128   1.416   1.453
    1MOL     H8   22   1.174   1.250   1.419
    1MOL     H9   23   1.073   1.339   1.304
    1MOL    H10   24   1.203   1.604   1.298
    1MOL    H11   25   1.344   1.580   1.193
    1MOL    H12   26   1.184   1.520   1.147
    1MOL    H13   27   1.520   1.611   1.620
    2SOL     OW   28   0.230   0.628   0.113
    2SOL    HW1   29   0.137   0.626   0.150
    2SOL    HW2   30   0.231   0.589   0.021
    3SOL     OW   31   0.225   0.275   0.996
    3SOL    HW1   32   0.260   0.258   1.088
    3SOL    HW2   33   0.137   0.230   0.984
    4SOL     OW   34   0.019   0.368   0.647
    4SOL    HW1   35  -0.063   0.411   0.686
    4SOL    HW2   36  -0.009   0.295   0.584
    5SOL     OW   37   0.569   1.275   1.165
    5SOL    HW1   38   0.476   1.268   1.128
    5SOL    HW2   39   0.580   1.364   1.209
    6SOL     OW   40   1.555   1.511   0.703
    6SOL    HW1   41   1.498   1.495   0.784
    6SOL    HW2   42   1.496   1.521   0.623
    7SOL     OW   43   1.135   0.703   0.717
    7SOL    HW1   44   1.192   0.781   0.692
    7SOL    HW2   45   1.075   0.729   0.793
    8SOL     OW   46   1.755   0.607   0.231
    8SOL    HW1   47   1.743   0.594   0.132
    8SOL    HW2   48   1.725   0.526   0.280
    9SOL     OW   49   0.768   1.144   1.023
    9SOL    HW1   50   0.690   1.161   1.083
    9SOL    HW2   51   0.802   1.231   0.987
   10SOL     OW   52   0.850   0.798   1.823
   10SOL    HW1   53   0.846   0.874   1.888
   10SOL    HW2   54   0.872   0.834   1.732
   11SOL     OW   55   0.685   1.012   0.665
   11SOL    HW1   56   0.754   0.996   0.735
   11SOL    HW2   57   0.612   1.069   0.703
   12SOL     OW   58   0.686   1.161   1.803
   12SOL    HW1   59   0.746   1.240   1.817
   12SOL    HW2   60   0.600   1.192   1.762
   13SOL     OW   61   0.335   1.435   1.061
   13SOL    HW1   62   0.257   1.404   1.008
   13SOL    HW2   63   0.393   1.493   1.004
   14SOL     OW   64   0.438   0.392   1.499
   14SOL    HW1   65   0.520   0.336   1.508
   14SOL    HW2   66   0.357   0.334   1.503
   15SOL     OW   67   1.603   0.447   0.737
   15SOL    HW1   68   1.529   0.493   0.687
   15SOL    HW2   69   1.654   0.515   0.790
   16SOL     OW   70   0.231   1.713   0.483
   16SOL    HW1   71   0.265   1.790   0.537
   16SOL    HW2   72   0.275   1.713   0.393
   17SOL     OW   73   1.127   1.341   1.690
   17SOL    HW1   74   1.174   1.341   1.778
   17SOL    HW2   75   1.079   1.254   1.679
   18SOL     OW   76   0.230   1.434   0.538
   18SOL    HW1   77   0.204   1.530   0.538
   18SOL    HW2   78   0.159   1.380   0.583
   19SOL     OW   79   0.240   1.091   0.886
   19SOL    HW1   80   0.254   1.007   0.938
   19SOL    HW2   81   0.185   1.155   0.941
   20SOL     OW   82   0.620   1.786   1.439
   20SOL    HW1   83   0.528   1.769   1.474
   20SOL    HW2   84   0.648   1.878   1.465
   21SOL     OW   85   0.606   0.964   0.123
   21SOL    HW1   86   0.613   1.048   0.069
   21SOL    HW2   87   0.652   0.977   0.211
   22SOL     OW   88   1.594   0.114   1.480
   22SOL    HW1   89   1.576   0.181   1.408
   22SOL    HW2   90   1.591   0.160   1.569
   23SOL     OW   91   0.122   0.643   0.563
   23SOL    HW1   92   0.077   0.555   0.580
   23SOL    HW2   93   0.121   0.697   0.647
   24SOL     OW   94   1.842   1.767   0.359
   24SOL    HW1   95   1.896   1.738   0.439
   24SOL    HW2   96   1.872   1.857   0.330
   25SOL     OW   97   0.027   1.596   0.117
   25SOL    HW1   98   0.008   1.500   0.138
   25SOL    HW2   99  -0.006   1.654   0.192
   26SOL     OW  100   1.689   0.922   0.612
   26SOL    HW1  101   1.784   0.893   0.620
   26SOL    HW2  102   1.681   0.987   0.537
   27SOL     OW  103   1.641   1.108   0.432
   27SOL    HW1  104   1.727   1.110   0.380
   27SOL    HW2  105   1.655   1.155   0.520
   28SOL     OW  106   0.113   0.737   1.597
   28SOL    HW1  107   0.201   0.724   1.642
   28SOL    HW2  108   0.100   0.834   1.575
   29SOL     OW  109   0.613   1.365   0.726
   29SOL    HW1  110   0.564   1.278   0.735
   29SOL    HW2  111   0.590   1.408   0.639
   30SOL     OW  112   0.809   0.004   0.502
   30SOL    HW1  113   0.849   0.095   0.493
   30SOL    HW2  114   0.709   0.012   0.508
   31SOL     OW  115   0.197   0.976   1.264
   31SOL    HW1  116   0.286   0.931   1.250
   31SOL    HW2  117   0.124   0.911   1.245
   32SOL     OW  118   1.525   0.999   0.190
   32SOL    HW1  119   1.462   0.923   0.203
   32SOL    HW2  120   1.573   1.017   0.276
   33SOL     OW  121   1.187   1.792   1.616
   33SOL    HW1  122   1.211   1.852   1.540
   33SOL    HW2  123   1.194   1.697   1.586
   34SOL     OW  124   0.317   0.251   1.801
   34SOL    HW1  125   0.388   0.322   1.807
   34SOL    HW2  126   0.229   0.290   1.829
   35SOL     OW  127   1.466   1.417   0.953
   35SOL    HW1  128   1.407   1.423   1.033
   35SOL    HW2  129   1.451   1.329   0.907
   36SOL     OW  130   1.667   1.714   0.572
   36SOL    HW1  131   1.626   1.691   0.484
   36SOL    HW2  132   1.649   1.640   0.637
   37SOL     OW  133   0.598   0.729   0.270
   37SOL    HW1  134   0.622   0.798   0.202
   37SOL    HW2  135   0.520   0.762   0.324
   38SOL     OW  136   1.281   0.345   0.944
   38SOL    HW1  137   1.195   0.295   0.931
   38SOL    HW2  138   1.343   0.291   1.000
   39SOL     OW  139   1.576   1.662   0.307
   39SOL    HW1  140   1.665   1.708   0.310
   39SOL    HW2  141   1.555   1.638   0.212
   40SOL     OW  142   0.807   0.605   1.465
   40SOL    HW1  143   0.760   0.602   1.554
   40SOL    HW2  144   0.756   0.550   1.399
   41SOL     OW  145   1.394   0.469   1.674
   41SOL    HW1  146   1.374   0.512   1.762
   41SOL    HW2  147   1.472   0.407   1.683
   42SOL     OW  148   0.973   0.890   1.572
   42SOL    HW1  149   1.019   0.806   1.543
   42SOL    HW2  150   0.917   0.924   1.497
   43SOL     OW  151   0.991   0.410   1.242
   43SOL    HW1  152   0.914   0.444   1.296
   43SOL    HW2  153   0.957   0.359   1.163
   44SOL     OW  154   1.041   0.701   0.429
   44SOL    HW1  155   1.067   0.697   0.525
   44SOL    HW2  156   0.956   0.650   0.415
   45SOL     OW  157   0.076   0.811   0.789
   45SOL    HW1  158   0.175   0.799   0.798
   45SOL    HW2  159   0.052   0.906   0.810
   46SOL     OW  160   0.130   1.821   1.571
   46SOL    HW1  161   0.120   1.806   1.670
   46SOL    HW2  162   0.044   1.857   1.535
   47SOL     OW  163   0.865   0.348   0.195
   47SOL    HW1  164   0.924   0.411   0.146
   47SOL    HW2  165   0.884   0.254   0.166
   48SOL     OW  166   1.719   0.585   1.831
   48SOL    HW1  167   1.693   0.674   1.795
   48SOL    HW2  168   1.717   0.517   1.758
   49SOL     OW  169   1.362   1.144   0.545
   49SOL    HW1  170   1.445   1.115   0.497
   49SOL    HW2  171   1.313   1.211   0.489
   50SOL     OW  172   0.550   0.196   0.885
   50SOL    HW1  173   0.545   0.191   0.985
   50SOL    HW2  174   0.552   0.292   0.856
   51SOL     OW  175   1.008   1.456   0.477
   51SOL    HW1  176   0.962   1.528   0.425
   51SOL    HW2  177   1.004   1.476   0.575
   52SOL     OW  178   0.351   1.801   0.853
   52SOL    HW1  179   0.401   1.715   0.859
   52SOL    HW2  180   0.416   1.878   0.850
   53SOL     OW  181   1.795   1.066   0.873
   53SOL    HW1  182   1.733   1.051   0.797
   53SOL    HW2  183   1.743   1.077   0.958
   54SOL     OW  184   0.321   0.943   0.242
   54SOL    HW1  185   0.403   0.982   0.200
   54SOL    HW2  186   0.294   0.861   0.193
   55SOL     OW  187   1.458   0.735   0.728
   55SOL    HW1  188   1.453   0.670   0.803
   55SOL    HW2  189   1.538   0.794   0.741
   56SOL     OW  190   0.461   1.266   1.727
   56SOL    HW1  191   0.411   1.267   1.641
   56SOL    HW2  192   0.398   1.248   1.803
   57SOL     OW  193   1.111   1.776   0.237
   57SOL    HW1  194   1.051   1.714   0.287
   57SOL    HW2  195   1.142   1.732   0.152
   58SOL     OW  196   0.202   0.285   1.498
   58SOL    HW1  197   0.122   0.345   1.485
   58SOL    HW2  198   0.192   0.236   1.584
   59SOL     OW  199   1.632   1.377   0.081
   59SOL    HW1  200   1.600   1.471   0.071
   59SOL    HW2  201   1.556   1.314   0.069
   60SOL     OW  202   0.464   1.743   0.323
   60SOL    HW1  203   0.497   1.782   0.409
   60SOL    HW2  204   0.540   1.736   0.258
   61SOL     OW  205   1.400   0.107   0.426
   61SOL    HW1  206   1.376   0.070   0.336
   61SOL    HW2  207   1.499   0.123   0.430
   62SOL     OW  208   0.249   1.785   1.241
   62SOL    HW1  209   0.306   1.720   1.291
   62SOL    HW2  210   0.233   1.752   1.148
   63SOL     OW  211   0.940   1.698   0.904
   63SOL    HW1  212   1.020   1.641   0.925
   63SOL    HW2  213   0.891   1.658   0.827
   64SOL     OW  214   0.382   0.700   0.480
   64SOL    HW1  215   0.427   0.610   0.477
   64SOL    HW2  216   0.288   0.689   0.513
   65SOL     OW  217   1.547   0.222   1.729
   65SOL    HW1  218   1.542   0.259   1.821
   65SOL    HW2  219   1.475   0.153   1.717
   66SOL     OW  220   0.614   0.122   0.117
   66SOL    HW1  221   0.712   0.100   0.124
   66SOL    HW2  222   0.583   0.105   0.024
   67SOL     OW  223   0.781   0.264   1.749
   67SOL    HW1  224   0.848   0.203   1.792
   67SOL    HW2  225   0.708   0.283   1.814
   68SOL     OW  226   0.888   1.514   1.195
   68SOL    HW1  227   0.865   1.489   1.101
   68SOL    HW2  228   0.949   1.445   1.234
   69SOL     OW  229   1.351   0.590   1.433
   69SOL    HW1  230   1.379   0.547   1.518
   69SOL    HW2  231   1.376   0.686   1.434
   70SOL     OW  232   0.803   1.402   0.924
   70SOL    HW1  233   0.893   1.416   0.882
   70SOL    HW2  234   0.732   1.404   0.853
   71SOL     OW  235   0.922   0.503   0.899
   71SOL    HW1  236   0.897   0.494   0.803
   71SOL    HW2  237   0.970   0.421   0.930
   72SOL     OW  238   0.539   0.064   0.512
   72SOL    HW1  239   0.458   0.065   0.570
   72SOL    HW2  240   0.542   0.147   0.457
   73SOL     OW  241   1.434   1.188   0.041
   73SOL    HW1  242   1.466   1.112   0.098
   73SOL    HW2  243   1.342   1.215   0.071
   74SOL     OW  244   0.297   0.035   0.171
   74SOL    HW1  245   0.346   0.119   0.150
   74SOL    HW2  246   0.359  -0.030   0.216
   75SOL     OW  247   0.935   0.236   0.480
   75SOL    HW1  248   0.887   0.277   0.402
   75SOL    HW2  249   1.034   0.234   0.461
   76SOL     OW  250   1.076   0.683   1.464
   76SOL    HW1  251   0.996   0.622   1.467
   76SOL    HW2  252   1.157   0.630   1.440
   77SOL     OW  253   1.227   1.570   0.793
   77SOL    HW1  254   1.248   1.644   0.728
   77SOL    HW2  255   1.295   1.570   0.866
   78SOL     OW  256   0.459   1.152   0.741
   78SOL    HW1  257   0.388   1.125   0.806
   78SOL    HW2  258   0.433   1.124   0.648
   79SOL     OW  259   1.271   1.797   0.591
   79SOL    HW1  260   1.315   1.861   0.527
   79SOL    HW2  261   1.221   1.849   0.661
   80SOL     OW  262   1.032   0.549   0.016
   80SOL    HW1  263   0.991   0.631  -0.023
   80SOL    HW2  264   1.096   0.575   0.089
   81SOL     OW  265   0.078   0.556   1.386
   81SOL    HW1  266   0.170   0.555   1.345
   81SOL    HW2  267   0.072   0.630   1.453
   82SOL     OW  268   0.561   0.222   1.147
   82SOL    HW1  269   0.599   0.138   1.184
   82SOL    HW2  270   0.473   0.241   1.191
   83SOL     OW  271   0.866   0.454   0.642
   83SOL    HW1  272   0.834   0.526   0.580
   83SOL    HW2  273   0.890   0.373   0.589
   84SOL     OW  274   1.017   0.039   0.753
   84SOL    HW1  275   0.945   0.044   0.684
   84SOL    HW2  276   0.993  -0.030   0.822
   85SOL     OW  277   1.429   1.173   0.867
   85SOL    HW1  278   1.374   1.089   0.860
   85SOL    HW2  279   1.455   1.202   0.775
   86SOL     OW  280   1.466   0.590   0.992
   86SOL    HW1  281   1.436   0.495   0.999
   86SOL    HW2  282   1.539   0.606   1.058
   87SOL     OW  283   1.857   0.833   0.377
   87SOL    HW1  284   1.899   0.769   0.441
   87SOL    HW2  285   1.819   0.782   0.299
   88SOL     OW  286   0.488   1.385   0.174
   88SOL    HW1  287   0.401   1.370   0.221
   88SOL    HW2  288   0.471   1.411   0.079
   89SOL     OW  289   1.664   1.280   0.657
   89SOL    HW1  290   1.763   1.288   0.671
   89SOL    HW2  291   1.619   1.364   0.688
   90SOL     OW  292   1.390   0.575   0.078
   90SOL    HW1  293   1.336   0.554   0.159
   90SOL    HW2  294   1.481   0.534   0.087
   91SOL     OW  295   0.527   0.256   0.328
   91SOL    HW1  296   0.554   0.197   0.253
   91SOL    HW2  297   0.527   0.351   0.297
   92SOL     OW  298   1.111   1.195   1.100
   92SOL    HW1  299   1.071   1.239   1.181
   92SOL    HW2  300   1.070   1.232   1.017
   93SOL     OW  301   1.638   1.099   1.079
   93SOL    HW1  302   1.643   1.180   1.138
   93SOL    HW2  303   1.552   1.101   1.028
   94SOL     OW  304   0.915   0.089   1.402
   94SOL    HW1  305   0.940   0.069   1.307
   94SOL    HW2  306   0.987   0.145   1.444
   95SOL     OW  307   0.980   1.116   1.719
   95SOL    HW1  308   0.881   1.122   1.729
   95SOL    HW2  309   1.003   1.036   1.663
   96SOL     OW  310   0.705   1.050   0.368
   96SOL    HW1  311   0.691   1.057   0.467
   96SOL    HW2  312   0.789   0.999   0.350
   97SOL     OW  313   0.410   0.813   1.251
   97SOL    HW1  314   0.496   0.825   1.301
   97SOL    HW2  315   0.368   0.726   1.278
   98SOL     OW  316   1.274   0.386   1.262
   98SOL    HW1  317   1.295   0.460   1.326
   98SOL    HW2  318   1.185   0.403   1.219
   99SOL     OW  319   0.064   1.564   1.331
   99SOL    HW1  320   0.018   1.646   1.297
   99SOL    HW2  321   0.162   1.583   1.340
  100SOL     OW  322   0.367   1.100   0.501
  100SOL    HW1  323   0.360   1.183   0.445
  100SOL    HW2  324   0.371   1.020   0.441
  101SOL     OW  325   0.566   0.537   0.865
  101SOL    HW1  326   0.578   0.603   0.791
  101SOL    HW2  327   0.612   0.571   0.948
  102SOL     OW  328   1.252   1.348   0.388
  102SOL    HW1  329   1.302   1.425   0.428
  102SOL    HW2  330   1.157   1.350   0.420
  103SOL     OW  331   1.582   0.639   0.472
  103SOL    HW1  332   1.551   0.700   0.545
  103SOL    HW2  333   1.632   0.691   0.403
  104SOL     OW  334   0.354   1.510   1.329
  104SOL    HW1  335   0.333   1.466   1.242
  104SOL    HW2  336   0.451   1.536   1.332
  105SOL     OW  337   0.402   0.751   1.598
  105SOL    HW1  338   0.470   0.806   1.551
  105SOL    HW2  339   0.442   0.663   1.625
  106SOL     OW  340   1.587   0.779   1.670
  106SOL    HW1  341   1.495   0.817   1.665
  106SOL    HW2  342   1.647   0.826   1.605
  107SOL     OW  343   1.013   0.105   1.770
  107SOL    HW1  344   1.019   0.190   1.718
  107SOL    HW2  345   1.045   0.029   1.713
  108SOL     OW  346   0.504   0.050   1.740
  108SOL    HW1  347   0.462  -0.007   1.670
  108SOL    HW2  348   0.438   0.119   1.772
  109SOL     OW  349   0.573   0.870   1.029
  109SOL    HW1  350   0.617   0.959   1.020
  109SOL    HW2  351   0.510   0.870   1.106
  110SOL     OW  352   1.360   0.862   1.045
  110SOL    HW1  353   1.285   0.862   0.979
  110SOL    HW2  354   1.397   0.770   1.054
  111SOL     OW  355   1.209   0.525   0.275
  111SOL    HW1  356   1.222   0.441   0.329
  111SOL    HW2  357   1.180   0.599   0.335
  112SOL     OW  358   0.307   0.213   1.231
  112SOL    HW1  359   0.284   0.250   1.321
  112SOL    HW2  360   0.277   0.118   1.225
  113SOL     OW  361   0.037   1.310   1.282
  113SOL    HW1  362   0.090   1.261   1.350
  113SOL    HW2  363   0.059   1.408   1.287
  114SOL     OW  364   0.732   0.634   1.064
  114SOL    HW1  365   0.791   0.608   0.988
  114SOL    HW2  366   0.704   0.730   1.053
  115SOL     OW  367   1.728   0.935   1.854
  115SOL    HW1  368   1.682   0.928   1.765
  115SOL    HW2  369   1.666   0.979   1.920
  116SOL     OW  370   0.307   0.063   0.618
  116SOL    HW1  371   0.296   0.157   0.651
  116SOL    HW2  372   0.302   0.000   0.695
  117SOL     OW  373   1.622   0.367   0.374
  117SOL    HW1  374   1.624   0.291   0.438
  117SOL    HW2  375   1.574   0.444   0.414
  118SOL     OW  376   1.023   0.766   0.966
  118SOL    HW1  377   1.038   0.787   1.062
  118SOL    HW2  378   0.993   0.671   0.957
  119SOL     OW  379   0.980   1.573   1.700
  119SOL    HW1  380   0.960   1.617   1.612
  119SOL    HW2  381   1.019   1.482   1.684
  120SOL     OW  382   0.350   0.898   1.804
  120SOL    HW1  383   0.426   0.942   1.852
  120SOL    HW2  384   0.385   0.851   1.722
  121SOL     OW  385   1.540   0.274   0.125
  121SOL    HW1  386   1.479   0.199   0.148
  121SOL    HW2  387   1.562   0.326   0.208
  122SOL     OW  388   1.303   0.838   0.042
  122SOL    HW1  389   1.337   0.745   0.057
  122SOL    HW2  390   1.321   0.865  -0.053
  123SOL     OW  391   1.068   1.333   0.849
  123SOL    HW1  392   1.075   1.249   0.794
  123SOL    HW2  393   1.130   1.402   0.813
  124SOL     OW  394   0.319   0.810   0.949
  124SOL    HW1  395   0.412   0.846   0.954
  124SOL    HW2  396   0.313   0.725   1.001
  125SOL     OW  397   0.339   0.509   1.006
  125SOL    HW1  398   0.287   0.426   0.989
  125SOL    HW2  399   0.416   0.514   0.942
  126SOL     OW  400   1.138   0.380   1.678
  126SOL    HW1  401   1.093   0.443   1.742
  126SOL    HW2  402   1.231   0.411   1.661
  127SOL     OW  403   1.160   0.207   1.477
  127SOL    HW1  404   1.160   0.271   1.554
  127SOL    HW2  405   1.188   0.255   1.394
  128SOL     OW  406   0.008   1.326   0.200
  128SOL    HW1  407  -0.085   1.347   0.169
  128SOL    HW2  408   0.018   1.227   0.213
  129SOL     OW  409   0.088   1.801   0.927
  129SOL    HW1  410   0.046   1.715   0.900
  129SOL    HW2  411   0.182   1.804   0.893
  130SOL     OW  412   0.504   1.568   0.910
  130SOL    HW1  413   0.570   1.642   0.919
  130SOL    HW2  414   0.548   1.489   0.868
  131SOL     OW  415   1.002   0.796   1.238
  131SOL    HW1  416   1.043   0.764   1.324
  131SOL    HW2  417   0.906   0.769   1.235
  132SOL     OW  418   0.040   0.544   1.114
  132SOL    HW1  419   0.125   0.511   1.073
  132SOL    HW2  420   0.053   0.559   1.212
  133SOL     OW  421   0.189   0.520   1.722
  133SOL    HW1  422   0.248   0.480   1.652
  133SOL    HW2  423   0.131   0.591   1.681
  134SOL     OW  424   1.369   0.950   1.660
  134SOL    HW1  425   1.408   1.039   1.680
  134SOL    HW2  426   1.379   0.930   1.563
  135SOL     OW  427   0.815   0.572   0.325
  135SOL    HW1  428   0.822   0.483   0.279
  135SOL    HW2  429   0.721   0.606   0.317
  136SOL     OW  430   1.657   0.604   1.206
  136SOL    HW1  431   1.619   0.535   1.268
  136SOL    HW2  432   1.739   0.568   1.162
  137SOL     OW  433   0.252   1.564   1.744
  137SOL    HW1  434   0.222   1.621   1.820
  137SOL    HW2  435   0.245   1.467   1.770
  138SOL     OW  436   0.671   0.464   1.269
  138SOL    HW1  437   0.637   0.375   1.239
  138SOL    HW2  438   0.697   0.518   1.189
  139SOL     OW  439   0.930   1.678   1.465
  139SOL    HW1  440   0.906   1.660   1.370
  139SOL    HW2  441   0.960   1.772   1.475
  140SOL     OW  442   0.473   0.500   0.191
  140SOL    HW1  443   0.534   0.580   0.195
  140SOL    HW2  444   0.378   0.531   0.198
  141SOL     OW  445   0.159   1.137   1.466
  141SOL    HW1  446   0.181   1.076   1.542
  141SOL    HW2  447   0.169   1.088   1.380
  142SOL     OW  448   1.302   0.855   0.309
  142SOL    HW1  449   1.216   0.824   0.351
  142SOL    HW2  450   1.298   0.841   0.210
  143SOL     OW  451   1.759   1.747   1.154
  143SOL    HW1  452   1.820   1.777   1.081
  143SOL    HW2  453   1.721   1.658   1.132
  144SOL     OW  454   0.083   1.258   1.022
  144SOL    HW1  455   0.078   1.257   1.122
  144SOL    HW2  456   0.000   1.217   0.984
  145SOL     OW  457   0.688   1.662   1.716
  145SOL    HW1  458   0.632   1.743   1.725
  145SOL    HW2  459   0.740   1.666   1.630
  146SOL     OW  460   0.903   0.086   0.133
  146SOL    HW1  461   0.954   0.087   0.047
  146SOL    HW2  462   0.959   0.044   0.204
  147SOL     OW  463   1.726   0.135   0.523
  147SOL    HW1  464   1.799   0.118   0.456
  147SOL    HW2  465   1.695   0.048   0.561
  148SOL     OW  466   1.388   1.573   0.477
  148SOL    HW1  467   1.455   1.585   0.403
  148SOL    HW2  468   1.348   1.662   0.500
  149SOL     OW  469   0.130   1.794   1.851
  149SOL    HW1  470   0.089   1.720   1.904
  149SOL    HW2  471   0.194   1.845   1.909
  150SOL     OW  472   1.280   0.927   0.672
  150SOL    HW1  473   1.340   0.846   0.674
  150SOL    HW2  474   1.320   0.996   0.612
  151SOL     OW  475   0.830   1.273   1.422
  151SOL    HW1  476   0.825   1.306   1.517
  151SOL    HW2  477   0.744   1.292   1.376
  152SOL     OW  478   0.672   1.616   0.154
  152SOL    HW1  479   0.681   1.626   0.055
  152SOL    HW2  480   0.632   1.527   0.175
  153SOL     OW  481   1.650   1.720   1.394
  153SOL    HW1  482   1.703   1.730   1.310
  153SOL    HW2  483   1.623   1.810   1.428
  154SOL     OW  484   1.841   0.175   0.963
  154SOL    HW1  485   1.880   0.090   0.927
  154SOL    HW2  486   1.743   0.177   0.944
  155SOL     OW  487   0.263   0.326   0.720
  155SOL    HW1  488   0.184   0.377   0.686
  155SOL    HW2  489   0.254   0.311   0.818
  156SOL     OW  490   1.194   1.612   0.031
  156SOL    HW1  491   1.200   1.519   0.068
  156SOL    HW2  492   1.135   1.612  -0.049
  157SOL     OW  493   0.822   1.002   1.372
  157SOL    HW1  494   0.862   1.001   1.280
  157SOL    HW2  495   0.832   1.094   1.412
  158SOL     OW  496   0.916   0.910   0.291
  158SOL    HW1  497   0.979   0.948   0.223
  158SOL    HW2  498   0.956   0.827   0.330
  159SOL     OW  499   1.504   1.607   0.044
  159SOL    HW1  500   1.412   1.644   0.051
  159SOL    HW2  501   1.542   1.627  -0.046
  160SOL     OW  502   0.372   1.288   1.490
  160SOL    HW1  503   0.359   1.381   1.456
  160SOL    HW2  504   0.288   1.236   1.477
  161SOL     OW  505   1.039   1.098   0.696
  161SOL    HW1  506   0.969   1.051   0.750
  161SOL    HW2  507   1.098   1.030   0.653
  162SOL     OW  508   1.014   0.236   0.971
  162SOL    HW1  509   1.006   0.200   0.878
  162SOL    HW2  510   1.012   0.160   1.036
  163SOL     OW  511   0.590   1.487   0.491
  163SOL    HW1  512   0.632   1.429   0.421
  163SOL    HW2  513   0.546   1.566   0.447
  164SOL     OW  514   1.709   0.385   1.381
  164SOL    HW1  515   1.782   0.454   1.385
  164SOL    HW2  516   1.737   0.310   1.322
  165SOL     OW  517   0.255   1.348   0.290
  165SOL    HW1  518   0.159   1.349   0.263
  165SOL    HW2  519   0.267   1.401   0.374
  166SOL     OW  520   0.105   1.013   1.726
  166SOL    HW1  521   0.028   0.980   1.780
  166SOL    HW2  522   0.190   0.983   1.768
  167SOL     OW  523   0.672   0.203   1.489
  167SOL    HW1  524   0.762   0.187   1.449
  167SOL    HW2  525   0.680   0.208   1.588
  168SOL     OW  526   0.075   0.345   0.033
  168SOL    HW1  527  -0.017   0.317   0.004
  168SOL    HW2  528   0.106   0.422  -0.023
  169SOL     OW  529   1.440   0.856   1.398
  169SOL    HW1  530   1.383   0.908   1.335
  169SOL    HW2  531   1.536   0.868   1.374
  170SOL     OW  532   0.072   0.166   0.318
  170SOL    HW1  533   0.055   0.249   0.264
  170SOL    HW2  534   0.162   0.129   0.296
  171SOL     OW  535   1.183   1.335   0.119
  171SOL    HW1  536   1.084   1.324   0.121
  171SOL    HW2  537   1.217   1.350   0.212
  172SOL     OW  538   0.613   0.842   1.431
  172SOL    HW1  539   0.669   0.923   1.414
  172SOL    HW2  540   0.672   0.762   1.434
  173SOL     OW  541   1.493   1.767   0.959
  173SOL    HW1  542   1.526   1.831   0.890
  173SOL    HW2  543   1.559   1.761   1.034
  174SOL     OW  544   0.716   0.565   1.708
  174SOL    HW1  545   0.735   0.630   1.782
  174SOL    HW2  546   0.776   0.485   1.717
  175SOL     OW  547   0.390   1.741   1.560
  175SOL    HW1  548   0.299   1.782   1.558
  175SOL    HW2  549   0.383   1.647   1.592
  176SOL     OW  550   1.674   0.883   1.254
  176SOL    HW1  551   1.647   0.794   1.217
  176SOL    HW2  552   1.675   0.951   1.181
  177SOL     OW  553   1.225   0.325   0.449
  177SOL    HW1  554   1.290   0.251   0.438
  177SOL    HW2  555   1.245   0.375   0.533
  178SOL     OW  556   0.594   0.745   0.652
  178SOL    HW1  557   0.644   0.830   0.633
  178SOL    HW2  558   0.506   0.747   0.604
  179SOL     OW  559   1.777   0.342   1.642
  179SOL    HW1  560   1.760   0.373   1.548
  179SOL    HW2  561   1.693   0.305   1.680
  180SOL     OW  562   1.730   0.934   1.517
  180SOL    HW1  563   1.768   1.025   1.532
  180SOL    HW2  564   1.722   0.917   1.418
  181SOL     OW  565   0.859   1.374   0.016
  181SOL    HW1  566   0.813   1.389   0.104
  181SOL    HW2  567   0.903   1.459  -0.014
  182SOL     OW  568   0.661   1.790   0.953
  182SOL    HW1  569   0.615   1.878   0.940
  182SOL    HW2  570   0.760   1.802   0.946
  183SOL     OW  571   0.859   0.956   0.861
  183SOL    HW1  572   0.913   0.887   0.909
  183SOL    HW2  573   0.827   1.025   0.927
  184SOL     OW  574   1.083   0.984   0.087
  184SOL    HW1  575   1.060   1.037   0.005
  184SOL    HW2  576   1.164   0.928   0.068
  185SOL     OW  577   1.861   1.569   0.851
  185SOL    HW1  578   1.790   1.557   0.781
  185SOL    HW2  579   1.862   1.490   0.911
  186SOL     OW  580   0.221   1.314   1.844
  186SOL    HW1  581   0.156   1.241   1.823
  186SOL    HW2  582   0.225   1.328   1.942
  187SOL     OW  583   0.079   1.240   0.653
  187SOL    HW1  584   0.078   1.193   0.741
  187SOL    HW2  585   0.161   1.212   0.602
  188SOL     OW  586   0.672   1.391   1.624
  188SOL    HW1  587   0.594   1.341   1.662
  188SOL    HW2  588   0.669   1.486   1.655
  189SOL     OW  589   1.824   0.192   1.227
  189SOL    HW1  590   1.820   0.102   1.271
  189SOL    HW2  591   1.827   0.181   1.128
  190SOL     OW  592   0.428   0.424   0.520
  190SOL    HW1  593   0.458   0.352   0.458
  190SOL    HW2  594   0.389   0.384   0.603
  191SOL     OW  595   1.705   1.487   1.104
  191SOL    HW1  596   1.612   1.462   1.077
  191SOL    HW2  597   1.731   1.437   1.186
  192SOL     OW  598   0.317   0.547   1.280
  192SOL    HW1  599   0.355   0.488   1.352
  192SOL    HW2  600   0.357   0.521   1.192
  193SOL     OW  601   0.812   1.586   0.687
  193SOL    HW1  602   0.844   1.596   0.593
  193SOL    HW2  603   0.733   1.524   0.689
  194SOL     OW  604   1.424   0.214   1.112
  194SOL    HW1  605   1.476   0.149   1.167
  194SOL    HW2  606   1.375   0.277   1.173
  195SOL     OW  607   1.001   0.034   1.154
  195SOL    HW1  608   0.938  -0.038   1.123
  195SOL    HW2  609   1.094  -0.002   1.154
  196SOL     OW  610   0.770   1.330   0.301
  196SOL    HW1  611   0.724   1.243   0.318
  196SOL    HW2  612   0.861   1.327   0.342
  197SOL     OW  613   0.618   1.567   1.284
  197SOL    HW1  614   0.613   1.649   1.341
  197SOL    HW2  615   0.707   1.564   1.239
  198SOL     OW  616   1.352   0.052   0.168
  198SOL    HW1  617   1.387   0.011   0.084
  198SOL    HW2  618   1.262   0.014   0.188
  199SOL     OW  619   1.300   0.453   0.691
  199SOL    HW1  620   1.241   0.533   0.695
  199SOL    HW2  621   1.315   0.418   0.784
  200SOL     OW  622   1.593   0.221   0.882
  200SOL    HW1  623   1.509   0.220   0.936
  200SOL    HW2  624   1.595   0.304   0.826
  201SOL     OW  625   0.039   1.077   0.300
  201SOL    HW1  626   0.138   1.066   0.291
  201SOL    HW2  627  -0.001   0.991   0.332
  202SOL     OW  628   0.875   1.646   0.337
  202SOL    HW1  629   0.798   1.611   0.283
  202SOL    HW2  630   0.843   1.717   0.399
  203SOL     OW  631   0.230   0.628   1.975
  203SOL    HW1  632   0.137   0.626   2.012
  203SOL    HW2  633   0.231   0.589   1.883
  204SOL     OW  634   0.019   0.368   2.509
  204SOL    HW1  635  -0.063   0.411   2.548
  204SOL    HW2  636  -0.009   0.295   2.446
  205SOL     OW  637   1.555   1.511   2.565
  205SOL    HW1  638   1.498   1.495   2.646
  205SOL    HW2  639   1.496   1.521   2.485
  206SOL     OW  640   1.135   0.703   2.579
  206SOL    HW1  641   1.192   0.781   2.554
  206SOL    HW2  642   1.075   0.729   2.655
  207SOL     OW  643   1.755   0.607   2.093
  207SOL    HW1  644   1.743   0.594   1.994
  207SOL    HW2  645   1.725   0.526   2.142
  208SOL     OW  646   0.685   1.012   2.527
  208SOL    HW1  647   0.754   0.996   2.597
  208SOL    HW2  648   0.612   1.069   2.565
  209SOL     OW  649   1.603   0.447   2.599
  209SOL    HW1  650   1.529   0.493   2.549
  209SOL    HW2  651   1.654   0.515   2.652
  210SOL     OW  652   0.231   1.713   2.345
  210SOL    HW1  653   0.265   1.790   2.399
  210SOL    HW2  654   0.275   1.713   2.255
  211SOL     OW  655   0.230   1.434   2.400
  211SOL    HW1  656   0.204   1.530   2.400
  211SOL    HW2  657   0.159   1.380   2.445
  212SOL     OW  658   0.240   1.091   2.748
  212SOL    HW1  659   0.254   1.007   2.800
  212SOL    HW2  660   0.185   1.155   2.803
  213SOL     OW  661   0.606   0.964   1.985
  213SOL    HW1  662   0.613   1.048   1.931
  213SOL    HW2  663   0.652   0.977   2.073
  214SOL     OW  664   0.122   0.643   2.425
  214SOL    HW1  665   0.077   0.555   2.442
  214SOL    HW2  666   0.121   0.697   2.509
  215SOL     OW  667   1.842   1.767   2.221
  215SOL    HW1  668   1.896   1.738   2.301
  215SOL    HW2  669   1.872   1.857   2.192
  216SOL     OW  670   0.027   1.596   1.979
  216SOL    HW1  671   0.008   1.500   2.000
  216SOL    HW2  672  -0.006   1.654   2.054
  217SOL     OW  673   1.689   0.922   2.474
  217SOL    HW1  674   1.784   0.893   2.482
  217SOL    HW2  675   1.681   0.987   2.399
  218SOL     OW  676   1.641   1.108   2.294
  218SOL    HW1  677   1.727   1.110   2.242
  218SOL    HW2  678   1.655   1.155   2.382
  219SOL     OW  679   0.613   1.365   2.588
  219SOL    HW1  680   0.564   1.278   2.597
  219SOL    HW2  681   0.590   1.408   2.501
  220SOL     OW  682   0.809   0.004   2.364
  220SOL    HW1  683   0.849   0.095   2.355
  220SOL    HW2  684   0.709   0.012   2.370
  221SOL     OW  685   1.525   0.999   2.052
  221SOL    HW1  686   1.462   0.923   2.065
  221SOL    HW2  687   1.573   1.017   2.138
  222SOL     OW  688   1.466   1.417   2.815
  222SOL    HW1  689   1.407   1.423   2.895
  222SOL    HW2  690   1.451   1.329   2.769
  223SOL     OW  691   1.667   1.714   2.434
  223SOL    HW1  692   1.626   1.691   2.346
  223SOL    HW2  693   1.649   1.640   2.499
  224SOL     OW  694   0.598   0.729   2.132
  224SOL    HW1  695   0.622   0.798   2.064
  224SOL    HW2  696   0.520   0.762   2.186
  225SOL     OW  697   1.281   0.345   2.806
  225SOL    HW1  698   1.195   0.295   2.793
  225SOL    HW2  699   1.343   0.291   2.862
  226SOL     OW  700   1.576   1.662   2.169
  226SOL    HW1  701   1.665   1.708   2.172
  226SOL    HW2  702   1.555   1.638   2.074
  227SOL     OW  703   1.041   0.701   2.291
  227SOL    HW1  704   1.067   0.697   2.387
  227SOL    HW2  705   0.956   0.650   2.277
  228SOL     OW  706   0.076   0.811   2.651
  228SOL    HW1  707   0.175   0.799   2.660
  228SOL    HW2  708   0.052   0.906   2.672
  229SOL     OW  709   0.865   0.348   2.057
  229SOL    HW1  710   0.924   0.411   2.008
  229SOL    HW2  711   0.884   0.254   2.028
  230SOL     OW  712   1.362   1.144   2.407
  230SOL    HW1  713   1.445   1.115   2.359
  230SOL    HW2  714   1.313   1.211   2.351
  231SOL     OW  715   1.008   1.456   2.339
  231SOL    HW1  716   0.962   1.528   2.287
  231SOL    HW2  717   1.004   1.476   2.437
  232SOL     OW  718   0.351   1.801   2.715
  232SOL    HW1  719   0.401   1.715   2.721
  232SOL    HW2  720   0.416   1.878   2.712
  233SOL     OW  721   1.795   1.066   2.735
  233SOL    HW1  722   1.733   1.051   2.659
  233SOL    HW2  723   1.743   1.077   2.820
  234SOL     OW  724   0.321   0.943   2.104
  234SOL    HW1  725   0.403   0.982   2.062
  234SOL    HW2  726   0.294   0.861   2.055
  235SOL     OW  727   1.458   0.735   2.590
  235SOL    HW1  728   1.453   0.670   2.665
  235SOL    HW2  729   1.538   0.794   2.603
  236SOL     OW  730   1.111   1.776   2.099
  236SOL    HW1  731   1.051   1.714   2.149
  236SOL    HW2  732   1.142   1.732   2.014
  237SOL     OW  733   1.632   1.377   1.943
  237SOL    HW1  734   1.600   1.471   1.933
  237SOL    HW2  735   1.556   1.314   1.931
  238SOL     OW  736   0.464   1.743   2.185
  238SOL    HW1  737   0.497   1.782   2.271
  238SOL    HW2  738   0.540   1.736   2.120
  239SOL     OW  739   1.400   0.107   2.288
  239SOL    HW1  740   1.376   0.070   2.198
  239SOL    HW2  741   1.499   0.123   2.292
  240SOL     OW  742   0.382   0.700   2.342
  240SOL    HW1  743   0.427   0.610   2.339
  240SOL    HW2  744   0.288   0.689   2.375
  241SOL     OW  745   0.614   0.122   1.979
  241SOL    HW1  746   0.712   0.100   1.986
  241SOL    HW2  747   0.583   0.105   1.886
  242SOL     OW  748   0.539   0.064   2.374
  242SOL    HW1  749   0.458   0.065   2.432
  242SOL    HW2  750   0.542   0.147   2.319
  243SOL     OW  751   1.434   1.188   1.903
  243SOL    HW1  752   1.466   1.112   1.960
  243SOL    HW2  753   1.342   1.215   1.933
  244SOL     OW  754   0.297   0.035   2.033
  244SOL    HW1  755   0.346   0.119   2.012
  244SOL    HW2  756   0.359  -0.030   2.078
  245SOL     OW  757   0.935   0.236   2.342
  245SOL    HW1  758   0.887   0.277   2.264
  245SOL    HW2  759   1.034   0.234   2.323
  246SOL     OW  760   0.459   1.152   2.603
  246SOL    HW1  761   0.388   1.125   2.668
  246SOL    HW2  762   0.433   1.124   2.510
  247SOL     OW  763   1.271   1.797   2.453
  247SOL    HW1  764   1.315   1.861   2.389
  247SOL    HW2  765   1.221   1.849   2.523
  248SOL     OW  766   1.032   0.549   1.878
  248SOL    HW1  767   0.991   0.631   1.839
  248SOL    HW2  768   1.096   0.575   1.951
  249SOL     OW  769   0.866   0.454   2.504
  249SOL    HW1  770   0.834   0.526   2.442
  249SOL    HW2  771   0.890   0.373   2.451
  250SOL     OW  772   1.017   0.039   2.615
  250SOL    HW1  773   0.945   0.044   2.546
  250SOL    HW2  774   0.993  -0.030   2.684
  251SOL     OW  775   1.857   0.833   2.239
  251SOL    HW1  776   1.899   0.769   2.303
  251SOL    HW2  777   1.819   0.782   2.161
  252SOL     OW  778   0.488   1.385   2.036
  252SOL    HW1  779   0.401   1.370   2.083
  252SOL    HW2  780   0.471   1.411   1.941
  253SOL     OW  781   1.664   1.280   2.519
  253SOL    HW1  782   1.763   1.288   2.533
  253SOL    HW2  783   1.619   1.364   2.550
  254SOL     OW  784   1.390   0.575   1.940
  254SOL    HW1  785   1.336   0.554   2.021
  254SOL    HW2  786   1.481   0.534   1.949
  255SOL     OW  787   0.527   0.256   2.190
  255SOL    HW1  788   0.554   0.197   2.115
  255SOL    HW2  789   0.527   0.351   2.159
  256SOL     OW  790   0.705   1.050   2.230
  256SOL    HW1  791   0.691   1.057   2.329
  256SOL    HW2  792   0.789   0.999   2.212
  257SOL     OW  793   0.367   1.100   2.363
  257SOL    HW1  794   0.360   1.183   2.307
  257SOL    HW2  795   0.371   1.020   2.303
  258SOL     OW  796   0.566   0.537   2.727
  258SOL    HW1  797   0.578   0.603   2.653
  258SOL    HW2  798   0.612   0.571   2.810
  259SOL     OW  799   1.252   1.348   2.250
  259SOL    HW1  800   1.302   1.425   2.290
  259SOL    HW2  801   1.157   1.350   2.282
  260SOL     OW  802   1.582   0.639   2.334
  260SOL    HW1  803   1.551   0.700   2.407
  260SOL    HW2  804   1.632   0.691   2.265
  261SOL     OW  805   1.209   0.525   2.137
  261SOL    HW1  806   1.222   0.441   2.191
  261SOL    HW2  807   1.180   0.599   2.197
  262SOL     OW  808   0.732   0.634   2.926
  262SOL    HW1  809   0.791   0.608   2.850
  262SOL    HW2  810   0.704   0.730   2.915
  263SOL     OW  811   0.307   0.063   2.480
  263SOL    HW1  812   0.296   0.157   2.513
  263SOL    HW2  813   0.302   0.000   2.557
  264SOL     OW  814   1.622   0.367   2.236
  264SOL    HW1  815   1.624   0.291   2.300
  264SOL    HW2  816   1.574   0.444   2.276
  265SOL     OW  817   1.540   0.274   1.987
  265SOL    HW1  818   1.479   0.199   2.010
  265SOL    HW2  819   1.562   0.326   2.070
  266SOL     OW  820   1.303   0.838   1.904
  266SOL    HW1  821   1.337   0.745   1.919
  266SOL    HW2  822   1.321   0.865   1.809
  267SOL     OW  823   1.068   1.333   2.711
  267SOL    HW1  824   1.075   1.249   2.656
  267SOL    HW2  825   1.130   1.402   2.675
  268SOL     OW  826   0.008   1.326   2.062
  268SOL    HW1  827  -0.085   1.347   2.031
  268SOL    HW2  828   0.018   1.227   2.075
  269SOL     OW  829   0.088   1.801   2.789
  269SOL    HW1  830   0.046   1.715   2.762
  269SOL    HW2  831   0.182   1.804   2.755
  270SOL     OW  832   0.504   1.568   2.772
  270SOL    HW1  833   0.570   1.642   2.781
  270SOL    HW2  834   0.548   1.489   2.730
  271SOL     OW  835   0.815   0.572   2.187
  271SOL    HW1  836   0.822   0.483   2.141
  271SOL    HW2  837   0.721   0.606   2.179
  272SOL     OW  838   0.473   0.500   2.053
  272SOL    HW1  839   0.534   0.580   2.057
  272SOL    HW2  840   0.378   0.531   2.060
  273SOL     OW  841   1.302   0.855   2.171
  273SOL    HW1  842   1.216   0.824   2.213
  273SOL    HW2  843   1.298   0.841   2.072
  274SOL     OW  844   1.726   0.135   2.385
  274SOL    HW1  845   1.799   0.118   2.318
  274SOL    HW2  846   1.695   0.048   2.423
  275SOL     OW  847   1.388   1.573   2.339
  275SOL    HW1  848   1.455   1.585   2.265
  275SOL    HW2  849   1.348   1.662   2.362
  276SOL     OW  850   1.280   0.927   2.534
  276SOL    HW1  851   1.340   0.846   2.536
  276SOL    HW2  852   1.320   0.996   2.474
  277SOL     OW  853   0.672   1.616   2.016
  277SOL    HW1  854   0.681   1.626   1.917
  277SOL    HW2  855   0.632   1.527   2.037
  278SOL     OW  856   1.841   0.175   2.825
  278SOL    HW1  857   1.880   0.090   2.789
  278SOL    HW2  858   1.743   0.177   2.806
  279SOL     OW  859   0.263   0.326   2.582
  279SOL    HW1  860   0.184   0.377   2.548
  279SOL    HW2  861   0.254   0.311   2.680
  280SOL     OW  862   1.194   1.612   1.893
  280SOL    HW1  863   1.200   1.519   1.930
  280SOL    HW2  864   1.135   1.612   1.813
  281SOL     OW  865   0.916   0.910   2.153
  281SOL    HW1  866   0.979   0.948   2.085
  281SOL    HW2  867   0.956   0.827   2.192
  282SOL     OW  868   1.504   1.607   1.906
  282SOL    HW1  869   1.412   1.644   1.913
  282SOL    HW2  870   1.542   1.627   1.816
  283SOL     OW  871   1.039   1.098   2.558
  283SOL    HW1  872   0.969   1.051   2.612
  283SOL    HW2  873   1.098   1.030   2.515
  284SOL     OW  874   0.590   1.487   2.353
  284SOL    HW1  875   0.632   1.429   2.283
  284SOL    HW2  876   0.546   1.566   2.309
  285SOL     OW  877   0.255   1.348   2.152
  285SOL    HW1  878   0.159   1.349   2.125
  285SOL    HW2  879   0.267   1.401   2.236
  286SOL     OW  880   0.075   0.345   1.895
  286SOL    HW1  881  -0.017   0.317   1.866
  286SOL    HW2  882   0.106   0.422   1.839
  287SOL     OW  883   0.072   0.166   2.180
  287SOL    HW1  884   0.055   0.249   2.126
  287SOL    HW2  885   0.162   0.129   2.158
  288SOL     OW  886   1.183   1.335   1.981
  288SOL    HW1  887   1.084   1.324   1.983
  288SOL    HW2  888   1.217   1.350   2.074
  289SOL     OW  889   1.225   0.325   2.311
  289SOL    HW1  890   1.290   0.251   2.300
  289SOL    HW2  891   1.245   0.375   2.395
  290SOL     OW  892   0.594   0.745   2.514
  290SOL    HW1  893   0.644   0.830   2.495
  290SOL    HW2  894   0.506   0.747   2.466
  291SOL     OW  895   0.859   1.374   1.878
  291SOL    HW1  896   0.813   1.389   1.966
  291SOL    HW2  897   0.903   1.459   1.848
  292SOL     OW  898   0.661   1.790   2.815
  292SOL    HW1  899   0.615   1.878   2.802
  292SOL    HW2  900   0.760   1.802   2.808
  293SOL     OW  901   0.859   0.956   2.723
  293SOL    HW1  902   0.913   0.887   2.771
  293SOL    HW2  903   0.827   1.025   2.789
  294SOL     OW  904   1.083   0.984   1.949
  294SOL    HW1  905   1.060   1.037   1.867
  294SOL    HW2  906   1.164   0.928   1.930
  295SOL     OW  907   1.861   1.569   2.713
  295SOL    HW1  908   1.790   1.557   2.643
  295SOL    HW2  909   1.862   1.490   2.773
  296SOL     OW  910   0.079   1.240   2.515
  296SOL    HW1  911   0.078   1.193   2.603
  296SOL    HW2  912   0.161   1.212   2.464
  297SOL     OW  913   1.824   0.192   3.089
  297SOL    HW1  914   1.820   0.102   3.133
  297SOL    HW2  915   1.827   0.181   2.990
  298SOL     OW  916   0.428   0.424   2.382
  298SOL    HW1  917   0.458   0.352   2.320
  298SOL    HW2  918   0.389   0.384   2.465
  299SOL     OW  919   0.812   1.586   2.549
  299SOL    HW1  920   0.844   1.596   2.455
  299SOL    HW2  921   0.733   1.524   2.551
  300SOL     OW  922   0.770   1.330   2.163
  300SOL    HW1  923   0.724   1.243   2.180
  300SOL    HW2  924   0.861   1.327   2.204
  301SOL     OW  925   1.352   0.052   2.030
  301SOL    HW1  926   1.387   0.011   1.946
  301SOL    HW2  927   1.262   0.014   2.050
  302SOL     OW  928   1.300   0.453   2.553
  302SOL    HW1  929   1.241   0.533   2.557
  302SOL    HW2  930   1.315   0.418   2.646
  303SOL     OW  931   1.593   0.221   2.744
  303SOL    HW1  932   1.509   0.220   2.798
  303SOL    HW2  933   1.595   0.304   2.688
  304SOL     OW  934   0.039   1.077   2.162
  304SOL    HW1  935   0.138   1.066   2.153
  304SOL    HW2  936  -0.001   0.991   2.194
  305SOL     OW  937   0.875   1.646   2.199
  305SOL    HW1  938   0.798   1.611   2.145
  305SOL    HW2  939   0.843   1.717   2.261
  306SOL     OW  940   0.230   2.490   0.113
  306SOL    HW1  941   0.137   2.488   0.150
  306SOL    HW2  942   0.231   2.451   0.021
  307SOL     OW  943   0.225   2.137   0.996
  307SOL    HW1  944   0.260   2.120   1.088
  307SOL    HW2  945   0.137   2.092   0.984
  308SOL     OW  946   0.019   2.230   0.647
  308SOL    HW1  947  -0.063   2.273   0.686
  308SOL    HW2  948  -0.009   2.157   0.584
  309SOL     OW  949   1.135   2.565   0.717
  309SOL    HW1  950   1.192   2.643   0.692
  309SOL    HW2  951   1.075   2.591   0.793
  310SOL     OW  952   1.755   2.469   0.231
  310SOL    HW1  953   1.743   2.456   0.132
  310SOL    HW2  954   1.725   2.388   0.280
  311SOL     OW  955   0.850   2.660   1.823
  311SOL    HW1  956   0.846   2.736   1.888
  311SOL    HW2  957   0.872   2.696   1.732
  312SOL     OW  958   0.685   2.874   0.665
  312SOL    HW1  959   0.754   2.858   0.735
  312SOL    HW2  960   0.612   2.931   0.703
  313SOL     OW  961   0.438   2.254   1.499
  313SOL    HW1  962   0.520   2.198   1.508
  313SOL    HW2  963   0.357   2.196   1.503
  314SOL     OW  964   1.603   2.309   0.737
  314SOL    HW1  965   1.529   2.355   0.687
  314SOL    HW2  966   1.654   2.377   0.790
  315SOL     OW  967   1.594   1.976   1.480
  315SOL    HW1  968   1.576   2.043   1.408
  315SOL    HW2  969   1.591   2.022   1.569
  316SOL     OW  970   0.122   2.505   0.563
  316SOL    HW1  971   0.077   2.417   0.580
  316SOL    HW2  972   0.121   2.559   0.647
  317SOL     OW  973   0.113   2.599   1.597
  317SOL    HW1  974   0.201   2.586   1.642
  317SOL    HW2  975   0.100   2.696   1.575
  318SOL     OW  976   0.809   1.866   0.502
  318SOL    HW1  977   0.849   1.957   0.493
  318SOL    HW2  978   0.709   1.874   0.508
  319SOL     OW  979   0.317   2.113   1.801
  319SOL    HW1  980   0.388   2.184   1.807
  319SOL    HW2  981   0.229   2.152   1.829
  320SOL     OW  982   0.598   2.591   0.270
  320SOL    HW1  983   0.622   2.660   0.202
  320SOL    HW2  984   0.520   2.624   0.324
  321SOL     OW  985   1.281   2.207   0.944
  321SOL    HW1  986   1.195   2.157   0.931
  321SOL    HW2  987   1.343   2.153   1.000
  322SOL     OW  988   0.807   2.467   1.465
  322SOL    HW1  989   0.760   2.464   1.554
  322SOL    HW2  990   0.756   2.412   1.399
  323SOL     OW  991   1.394   2.331   1.674
  323SOL    HW1  992   1.374   2.374   1.762
  323SOL    HW2  993   1.472   2.269   1.683
  324SOL     OW  994   0.973   2.752   1.572
  324SOL    HW1  995   1.019   2.668   1.543
  324SOL    HW2  996   0.917   2.786   1.497
  325SOL     OW  997   0.991   2.272   1.242
  325SOL    HW1  998   0.914   2.306   1.296
  325SOL    HW2  999   0.957   2.221   1.163
  326SOL     OW 1000   1.041   2.563   0.429
  326SOL    HW1 1001   1.067   2.559   0.525
  326SOL    HW2 1002   0.956   2.512   0.415
  327SOL     OW 1003   0.076   2.673   0.789
  327SOL    HW1 1004   0.175   2.661   0.798
  327SOL    HW2 1005   0.052   2.768   0.810
  328SOL     OW 1006   0.865   2.210   0.195
  328SOL    HW1 1007   0.924   2.273   0.146
  328SOL    HW2 1008   0.884   2.116   0.166
  329SOL     OW 1009   1.719   2.447   1.831
  329SOL    HW1 1010   1.693   2.536   1.795
  329SOL    HW2 1011   1.717   2.379   1.758
  330SOL     OW 1012   0.550   2.058   0.885
  330SOL    HW1 1013   0.545   2.053   0.985
  330SOL    HW2 1014   0.552   2.154   0.856
  331SOL     OW 1015   1.458   2.597   0.728
  331SOL    HW1 1016   1.453   2.532   0.803
  331SOL    HW2 1017   1.538   2.656   0.741
  332SOL     OW 1018   0.202   2.147   1.498
  332SOL    HW1 1019   0.122   2.207   1.485
  332SOL    HW2 1020   0.192   2.098   1.584
  333SOL     OW 1021   1.400   1.969   0.426
  333SOL    HW1 1022   1.376   1.932   0.336
  333SOL    HW2 1023   1.499   1.985   0.430
  334SOL     OW 1024   0.382   2.562   0.480
  334SOL    HW1 1025   0.427   2.472   0.477
  334SOL    HW2 1026   0.288   2.551   0.513
  335SOL     OW 1027   1.547   2.084   1.729
  335SOL    HW1 1028   1.542   2.121   1.821
  335SOL    HW2 1029   1.475   2.015   1.717
  336SOL     OW 1030   0.781   2.126   1.749
  336SOL    HW1 1031   0.848   2.065   1.792
  336SOL    HW2 1032   0.708   2.145   1.814
  337SOL     OW 1033   1.351   2.452   1.433
  337SOL    HW1 1034   1.379   2.409   1.518
  337SOL    HW2 1035   1.376   2.548   1.434
  338SOL     OW 1036   0.922   2.365   0.899
  338SOL    HW1 1037   0.897   2.356   0.803
  338SOL    HW2 1038   0.970   2.283   0.930
  339SOL     OW 1039   0.539   1.926   0.512
  339SOL    HW1 1040   0.458   1.927   0.570
  339SOL    HW2 1041   0.542   2.009   0.457
  340SOL     OW 1042   0.297   1.897   0.171
  340SOL    HW1 1043   0.346   1.981   0.150
  340SOL    HW2 1044   0.359   1.832   0.216
  341SOL     OW 1045   0.935   2.098   0.480
  341SOL    HW1 1046   0.887   2.139   0.402
  341SOL    HW2 1047   1.034   2.096   0.461
  342SOL     OW 1048   1.076   2.545   1.464
  342SOL    HW1 1049   0.996   2.484   1.467
  342SOL    HW2 1050   1.157   2.492   1.440
  343SOL     OW 1051   1.032   2.411   0.016
  343SOL    HW1 1052   0.991   2.493  -0.023
  343SOL    HW2 1053   1.096   2.437   0.089
  344SOL     OW 1054   0.078   2.418   1.386
  344SOL    HW1 1055   0.170   2.417   1.345
  344SOL    HW2 1056   0.072   2.492   1.453
  345SOL     OW 1057   0.561   2.084   1.147
  345SOL    HW1 1058   0.599   2.000   1.184
  345SOL    HW2 1059   0.473   2.103   1.191
  346SOL     OW 1060   0.866   2.316   0.642
  346SOL    HW1 1061   0.834   2.388   0.580
  346SOL    HW2 1062   0.890   2.235   0.589
  347SOL     OW 1063   1.017   1.901   0.753
  347SOL    HW1 1064   0.945   1.906   0.684
  347SOL    HW2 1065   0.993   1.832   0.822
  348SOL     OW 1066   1.466   2.452   0.992
  348SOL    HW1 1067   1.436   2.357   0.999
  348SOL    HW2 1068   1.539   2.468   1.058
  349SOL     OW 1069   1.857   2.695   0.377
  349SOL    HW1 1070   1.899   2.631   0.441
  349SOL    HW2 1071   1.819   2.644   0.299
  350SOL     OW 1072   1.390   2.437   0.078
  350SOL    HW1 1073   1.336   2.416   0.159
  350SOL    HW2 1074   1.481   2.396   0.087
  351SOL     OW 1075   0.527   2.118   0.328
  351SOL    HW1 1076   0.554   2.059   0.253
  351SOL    HW2 1077   0.527   2.213   0.297
  352SOL     OW 1078   0.915   1.951   1.402
  352SOL    HW1 1079   0.940   1.931   1.307
  352SOL    HW2 1080   0.987   2.007   1.444
  353SOL     OW 1081   0.410   2.675   1.251
  353SOL    HW1 1082   0.496   2.687   1.301
  353SOL    HW2 1083   0.368   2.588   1.278
  354SOL     OW 1084   1.274   2.248   1.262
  354SOL    HW1 1085   1.295   2.322   1.326
  354SOL    HW2 1086   1.185   2.265   1.219
  355SOL     OW 1087   0.566   2.399   0.865
  355SOL    HW1 1088   0.578   2.465   0.791
  355SOL    HW2 1089   0.612   2.433   0.948
  356SOL     OW 1090   1.582   2.501   0.472
  356SOL    HW1 1091   1.551   2.562   0.545
  356SOL    HW2 1092   1.632   2.553   0.403
  357SOL     OW 1093   0.402   2.613   1.598
  357SOL    HW1 1094   0.470   2.668   1.551
  357SOL    HW2 1095   0.442   2.525   1.625
  358SOL     OW 1096   1.587   2.641   1.670
  358SOL    HW1 1097   1.495   2.679   1.665
  358SOL    HW2 1098   1.647   2.688   1.605
  359SOL     OW 1099   1.013   1.967   1.770
  359SOL    HW1 1100   1.019   2.052   1.718
  359SOL    HW2 1101   1.045   1.891   1.713
  360SOL     OW 1102   0.504   1.912   1.740
  360SOL    HW1 1103   0.462   1.855   1.670
  360SOL    HW2 1104   0.438   1.981   1.772
  361SOL     OW 1105   0.573   2.732   1.029
  361SOL    HW1 1106   0.617   2.821   1.020
  361SOL    HW2 1107   0.510   2.732   1.106
  362SOL     OW 1108   1.360   2.724   1.045
  362SOL    HW1 1109   1.285   2.724   0.979
  362SOL    HW2 1110   1.397   2.632   1.054
  363SOL     OW 1111   1.209   2.387   0.275
  363SOL    HW1 1112   1.222   2.303   0.329
  363SOL    HW2 1113   1.180   2.461   0.335
  364SOL     OW 1114   0.307   2.075   1.231
  364SOL    HW1 1115   0.284   2.112   1.321
  364SOL    HW2 1116   0.277   1.980   1.225
  365SOL     OW 1117   0.732   2.496   1.064
  365SOL    HW1 1118   0.791   2.470   0.988
  365SOL    HW2 1119   0.704   2.592   1.053
  366SOL     OW 1120   1.728   2.797   1.854
  366SOL    HW1 1121   1.682   2.790   1.765
  366SOL    HW2 1122   1.666   2.841   1.920
  367SOL     OW 1123   0.307   1.925   0.618
  367SOL    HW1 1124   0.296   2.019   0.651
  367SOL    HW2 1125   0.302   1.862   0.695
  368SOL     OW 1126   1.622   2.229   0.374
  368SOL    HW1 1127   1.624   2.153   0.438
  368SOL    HW2 1128   1.574   2.306   0.414
  369SOL     OW 1129   1.023   2.628   0.966
  369SOL    HW1 1130   1.038   2.649   1.062
  369SOL    HW2 1131   0.993   2.533   0.957
  370SOL     OW 1132   1.540   2.136   0.125
  370SOL    HW1 1133   1.479   2.061   0.148
  370SOL    HW2 1134   1.562   2.188   0.208
  371SOL     OW 1135   1.303   2.700   0.042
  371SOL    HW1 1136   1.337   2.607   0.057
  371SOL    HW2 1137   1.321   2.727  -0.053
  372SOL     OW 1138   0.319   2.672   0.949
  372SOL    HW1 1139   0.412   2.708   0.954
  372SOL    HW2 1140   0.313   2.587   1.001
  373SOL     OW 1141   0.339   2.371   1.006
  373SOL    HW1 1142   0.287   2.288   0.989
  373SOL    HW2 1143   0.416   2.376   0.942
  374SOL     OW 1144   1.138   2.242   1.678
  374SOL    HW1 1145   1.093   2.305   1.742
  374SOL    HW2 1146   1.231   2.273   1.661
  375SOL     OW 1147   1.160   2.069   1.477
  375SOL    HW1 1148   1.160   2.133   1.554
  375SOL    HW2 1149   1.188   2.117   1.394
  376SOL     OW 1150   1.002   2.658   1.238
  376SOL    HW1 1151   1.043   2.626   1.324
  376SOL    HW2 1152   0.906   2.631   1.235
  377SOL     OW 1153   0.040   2.406   1.114
  377SOL    HW1 1154   0.125   2.373   1.073
  377SOL    HW2 1155   0.053   2.421   1.212
  378SOL     OW 1156   0.189   2.382   1.722
  378SOL    HW1 1157   0.248   2.342   1.652
  378SOL    HW2 1158   0.131   2.453   1.681
  379SOL     OW 1159   0.815   2.434   0.325
  379SOL    HW1 1160   0.822   2.345   0.279
  379SOL    HW2 1161   0.721   2.468   0.317
  380SOL     OW 1162   1.657   2.466   1.206
  380SOL    HW1 1163   1.619   2.397   1.268
  380SOL    HW2 1164   1.739   2.430   1.162
  381SOL     OW 1165   0.671   2.326   1.269
  381SOL    HW1 1166   0.637   2.237   1.239
  381SOL    HW2 1167   0.697   2.380   1.189
  382SOL     OW 1168   0.473   2.362   0.191
  382SOL    HW1 1169   0.534   2.442   0.195
  382SOL    HW2 1170   0.378   2.393   0.198
  383SOL     OW 1171   1.302   2.717   0.309
  383SOL    HW1 1172   1.216   2.686   0.351
  383SOL    HW2 1173   1.298   2.703   0.210
  384SOL     OW 1174   0.903   1.948   0.133
  384SOL    HW1 1175   0.954   1.949   0.047
  384SOL    HW2 1176   0.959   1.906   0.204
  385SOL     OW 1177   1.726   1.997   0.523
  385SOL    HW1 1178   1.799   1.980   0.456
  385SOL    HW2 1179   1.695   1.910   0.561
  386SOL     OW 1180   1.280   2.789   0.672
  386SOL    HW1 1181   1.340   2.708   0.674
  386SOL    HW2 1182   1.320   2.858   0.612
  387SOL     OW 1183   1.841   2.037   0.963
  387SOL    HW1 1184   1.880   1.952   0.927
  387SOL    HW2 1185   1.743   2.039   0.944
  388SOL     OW 1186   0.263   2.188   0.720
  388SOL    HW1 1187   0.184   2.239   0.686
  388SOL    HW2 1188   0.254   2.173   0.818
  389SOL     OW 1189   1.014   2.098   0.971
  389SOL    HW1 1190   1.006   2.062   0.878
  389SOL    HW2 1191   1.012   2.022   1.036
  390SOL     OW 1192   1.709   2.247   1.381
  390SOL    HW1 1193   1.782   2.316   1.385
  390SOL    HW2 1194   1.737   2.172   1.322
  391SOL     OW 1195   0.105   2.875   1.726
  391SOL    HW1 1196   0.028   2.842   1.780
  391SOL    HW2 1197   0.190   2.845   1.768
  392SOL     OW 1198   0.672   2.065   1.489
  392SOL    HW1 1199   0.762   2.049   1.449
  392SOL    HW2 1200   0.680   2.070   1.588
  393SOL     OW 1201   0.075   2.207   0.033
  393SOL    HW1 1202  -0.017   2.179   0.004
  393SOL    HW2 1203   0.106   2.284  -0.023
  394SOL     OW 1204   1.440   2.718   1.398
  394SOL    HW1 1205   1.383   2.770   1.335
  394SOL    HW2 1206   1.536   2.730   1.374
  395SOL     OW 1207   0.072   2.028   0.318
  395SOL    HW1 1208   0.055   2.111   0.264
  395SOL    HW2 1209   0.162   1.991   0.296
  396SOL     OW 1210   0.613   2.704   1.431
  396SOL    HW1 1211   0.669   2.785   1.414
  396SOL    HW2 1212   0.672   2.624   1.434
  397SOL     OW 1213   0.716   2.427   1.708
  397SOL    HW1 1214   0.735   2.492   1.782
  397SOL    HW2 1215   0.776   2.347   1.717
  398SOL     OW 1216   1.674   2.745   1.254
  398SOL    HW1 1217   1.647   2.656   1.217
  398SOL    HW2 1218   1.675   2.813   1.181
  399SOL     OW 1219   1.225   2.187   0.449
  399SOL    HW1 1220   1.290   2.113   0.438
  399SOL    HW2 1221   1.245   2.237   0.533
  400SOL     OW 1222   0.594   2.607   0.652
  400SOL    HW1 1223   0.644   2.692   0.633
  400SOL    HW2 1224   0.506   2.609   0.604
  401SOL     OW 1225   1.777   2.204   1.642
  401SOL    HW1 1226   1.760   2.235   1.548
  401SOL    HW2 1227   1.693   2.167   1.680
  402SOL     OW 1228   1.730   2.796   1.517
  402SOL    HW1 1229   1.768   2.887   1.532
  402SOL    HW2 1230   1.722   2.779   1.418
  403SOL     OW 1231   1.824   2.054   1.227
  403SOL    HW1 1232   1.820   1.964   1.271
  403SOL    HW2 1233   1.827   2.043   1.128
  404SOL     OW 1234   0.428   2.286   0.520
  404SOL    HW1 1235   0.458   2.214   0.458
  404SOL    HW2 1236   0.389   2.246   0.603
  405SOL     OW 1237   0.317   2.409   1.280
  405SOL    HW1 1238   0.355   2.350   1.352
  405SOL    HW2 1239   0.357   2.383   1.192
  406SOL     OW 1240   1.424   2.076   1.112
  406SOL    HW1 1241   1.476   2.011   1.167
  406SOL    HW2 1242   1.375   2.139   1.173
  407SOL     OW 1243   1.001   1.896   1.154
  407SOL    HW1 1244   0.938   1.824   1.123
  407SOL    HW2 1245   1.094   1.860   1.154
  408SOL     OW 1246   1.352   1.914   0.168
  408SOL    HW1 1247   1.387   1.873   0.084
  408SOL    HW2 1248   1.262   1.876   0.188
  409SOL     OW 1249   1.300   2.315   0.691
  409SOL    HW1 1250   1.241   2.395   0.695
  409SOL    HW2 1251   1.315   2.280   0.784
  410SOL     OW 1252   1.593   2.083   0.882
  410SOL    HW1 1253   1.509   2.082   0.936
  410SOL    HW2 1254   1.595   2.166   0.826
  411SOL     OW 1255   0.230   2.490   1.975
  411SOL    HW1 1256   0.137   2.488   2.012
  411SOL    HW2 1257   0.231   2.451   1.883
  412SOL     OW 1258   0.019   2.230   2.509
  412SOL    HW1 1259  -0.063   2.273   2.548
  412SOL    HW2 1260  -0.009   2.157   2.446
  413SOL     OW 1261   1.135   2.565   2.579
  413SOL    HW1 1262   1.192   2.643   2.554
  413SOL    HW2 1263   1.075   2.591   2.655
  414SOL     OW 1264   1.755   2.469   2.093
  414SOL    HW1 1265   1.743   2.456   1.994
  414SOL    HW2 1266   1.725   2.388   2.142
  415SOL     OW 1267   0.685   2.874   2.527
  415SOL    HW1 1268   0.754   2.858   2.597
  415SOL    HW2 1269   0.612   2.931   2.565
  416SOL     OW 1270   1.603   2.309   2.599
  416SOL    HW1 1271   1.529   2.355   2.549
  416SOL    HW2 1272   1.654   2.377   2.652
  417SOL     OW 1273   0.240   2.953   2.748
  417SOL    HW1 1274   0.254   2.869   2.800
  417SOL    HW2 1275   0.185   3.017   2.803
  418SOL     OW 1276   0.122   2.505   2.425
  418SOL    HW1 1277   0.077   2.417   2.442
  418SOL    HW2 1278   0.121   2.559   2.509
  419SOL     OW 1279   0.809   1.866   2.364
  419SOL    HW1 1280   0.849   1.957   2.355
  419SOL    HW2 1281   0.709   1.874   2.370
  420SOL     OW 1282   0.598   2.591   2.132
  420SOL    HW1 1283   0.622   2.660   2.064
  420SOL    HW2 1284   0.520   2.624   2.186
  421SOL     OW 1285   1.281   2.207   2.806
  421SOL    HW1 1286   1.195   2.157   2.793
  421SOL    HW2 1287   1.343   2.153   2.862
  422SOL     OW 1288   1.041   2.563   2.291
  422SOL    HW1 1289   1.067   2.559   2.387
  422SOL    HW2 1290   0.956   2.512   2.277
  423SOL     OW 1291   0.076   2.673   2.651
  423SOL    HW1 1292   0.175   2.661   2.660
  423SOL    HW2 1293   0.052   2.768   2.672
  424SOL     OW 1294   0.865   2.210   2.057
  424SOL    HW1 1295   0.924   2.273   2.008
  424SOL    HW2 1296   0.884   2.116   2.028
  425SOL     OW 1297   0.550   2.058   2.747
  425SOL    HW1 1298   0.545   2.053   2.847
  425SOL    HW2 1299   0.552   2.154   2.718
  426SOL     OW 1300   1.458   2.597   2.590
  426SOL    HW1 1301   1.453   2.532   2.665
  426SOL    HW2 1302   1.538   2.656   2.603
  427SOL     OW 1303   1.400   1.969   2.288
  427SOL    HW1 1304   1.376   1.932   2.198
  427SOL    HW2 1305   1.499   1.985   2.292
  428SOL     OW 1306   0.382   2.562   2.342
  428SOL    HW1 1307   0.427   2.472   2.339
  428SOL    HW2 1308   0.288   2.551   2.375
  429SOL     OW 1309   0.614   1.984   1.979
  429SOL    HW1 1310   0.712   1.962   1.986
  429SOL    HW2 1311   0.583   1.967   1.886
  430SOL     OW 1312   0.539   1.926   2.374
  430SOL    HW1 1313   0.458   1.927   2.432
  430SOL    HW2 1314   0.542   2.009   2.319
  431SOL     OW 1315   0.297   1.897   2.033
  431SOL    HW1 1316   0.346   1.981   2.012
  431SOL    HW2 1317   0.359   1.832   2.078
  432SOL     OW 1318   0.935   2.098   2.342
  432SOL    HW1 1319   0.887   2.139   2.264
  432SOL    HW2 1320   1.034   2.096   2.323
  433SOL     OW 1321   1.032   2.411   1.878
  433SOL    HW1 1322   0.991   2.493   1.839
  433SOL    HW2 1323   1.096   2.437   1.951
  434SOL     OW 1324   0.866   2.316   2.504
  434SOL    HW1 1325   0.834   2.388   2.442
  434SOL    HW2 1326   0.890   2.235   2.451
  435SOL     OW 1327   1.017   1.901   2.615
  435SOL    HW1 1328   0.945   1.906   2.546
  435SOL    HW2 1329   0.993   1.832   2.684
  436SOL     OW 1330   1.857   2.695   2.239
  436SOL    HW1 1331   1.899   2.631   2.303
  436SOL    HW2 1332   1.819   2.644   2.161
  437SOL     OW 1333   1.390   2.437   1.940
  437SOL    HW1 1334   1.336   2.416   2.021
  437SOL    HW2 1335   1.481   2.396   1.949
  438SOL     OW 1336   0.527   2.118   2.190
  438SOL    HW1 1337   0.554   2.059   2.115
  438SOL    HW2 1338   0.527   2.213   2.159
  439SOL     OW 1339   1.111   3.057   2.962
  439SOL    HW1 1340   1.071   3.101   3.043
  439SOL    HW2 1341   1.070   3.094   2.879
  440SOL     OW 1342   0.566   2.399   2.727
  440SOL    HW1 1343   0.578   2.465   2.653
  440SOL    HW2 1344   0.612   2.433   2.810
  441SOL     OW 1345   1.582   2.501   2.334
  441SOL    HW1 1346   1.551   2.562   2.407
  441SOL    HW2 1347   1.632   2.553   2.265
  442SOL     OW 1348   1.209   2.387   2.137
  442SOL    HW1 1349   1.222   2.303   2.191
  442SOL    HW2 1350   1.180   2.461   2.197
  443SOL     OW 1351   0.732   2.496   2.926
  443SOL    HW1 1352   0.791   2.470   2.850
  443SOL    HW2 1353   0.704   2.592   2.915
  444SOL     OW 1354   0.307   1.925   2.480
  444SOL    HW1 1355   0.296   2.019   2.513
  444SOL    HW2 1356   0.302   1.862   2.557
  445SOL     OW 1357   1.622   2.229   2.236
  445SOL    HW1 1358   1.624   2.153   2.300
  445SOL    HW2 1359   1.574   2.306   2.276
  446SOL     OW 1360   1.540   2.136   1.987
  446SOL    HW1 1361   1.479   2.061   2.010
  446SOL    HW2 1362   1.562   2.188   2.070
  447SOL     OW 1363   1.303   2.700   1.904
  447SOL    HW1 1364   1.337   2.607   1.919
  447SOL    HW2 1365   1.321   2.727   1.809
  448SOL     OW 1366   0.815   2.434   2.187
  448SOL    HW1 1367   0.822   2.345   2.141
  448SOL    HW2 1368   0.721   2.468   2.179
  449SOL     OW 1369   0.473   2.362   2.053
  449SOL    HW1 1370   0.534   2.442   2.057
  449SOL    HW2 1371   0.378   2.393   2.060
  450SOL     OW 1372   1.302   2.717   2.171
  450SOL    HW1 1373   1.216   2.686   2.213
  450SOL    HW2 1374   1.298   2.703   2.072
  451SOL     OW 1375   1.726   1.997   2.385
  451SOL    HW1 1376   1.799   1.980   2.318
  451SOL    HW2 1377   1.695   1.910   2.423
  452SOL     OW 1378   1.280   2.789   2.534
  452SOL    HW1 1379   1.340   2.708   2.536
  452SOL    HW2 1380   1.320   2.858   2.474
  453SOL     OW 1381   1.841   2.037   2.825
  453SOL    HW1 1382   1.880   1.952   2.789
  453SOL    HW2 1383   1.743   2.039   2.806
  454SOL     OW 1384   0.263   2.188   2.582
  454SOL    HW1 1385   0.184   2.239   2.548
  454SOL    HW2 1386   0.254   2.173   2.680
  455SOL     OW 1387   0.916   2.772   2.153
  455SOL    HW1 1388   0.979   2.810   2.085
  455SOL    HW2 1389   0.956   2.689   2.192
  456SOL     OW 1390   0.075   2.207   1.895
  456SOL    HW1 1391  -0.017   2.179   1.866
  456SOL    HW2 1392   0.106   2.284   1.839
  457SOL     OW 1393   0.072   2.028   2.180
  457SOL    HW1 1394   0.055   2.111   2.126
  457SOL    HW2 1395   0.162   1.991   2.158
  458SOL     OW 1396   1.674   2.745   3.116
  458SOL    HW1 1397   1.647   2.656   3.079
  458SOL    HW2 1398   1.675   2.813   3.043
  459SOL     OW 1399   1.225   2.187   2.311
  459SOL    HW1 1400   1.290   2.113   2.300
  459SOL    HW2 1401   1.245   2.237   2.395
  460SOL     OW 1402   0.594   2.607   2.514
  460SOL    HW1 1403   0.644   2.692   2.495
  460SOL    HW2 1404   0.506   2.609   2.466
  461SOL     OW 1405   0.428   2.286   2.382
  461SOL    HW1 1406   0.458   2.214   2.320
  461SOL    HW2 1407   0.389   2.246   2.465
  462SOL     OW 1408   1.352   1.914   2.030
  462SOL    HW1 1409   1.387   1.873   1.946
  462SOL    HW2 1410   1.262   1.876   2.050
  463SOL     OW 1411   1.300   2.315   2.553
  463SOL    HW1 1412   1.241   2.395   2.557
  463SOL    HW2 1413   1.315   2.280   2.646
  464SOL     OW 1414   1.593   2.083   2.744
  464SOL    HW1 1415   1.509   2.082   2.798
  464SOL    HW2 1416   1.595   2.166   2.688
  465SOL     OW 1417   2.092   0.628   0.113
  465SOL    HW1 1418   1.999   0.626   0.150
  465SOL    HW2 1419   2.093   0.589   0.021
  466SOL     OW 1420   2.087   0.275   0.996
  466SOL    HW1 1421   2.122   0.258   1.088
  466SOL    HW2 1422   1.999   0.230   0.984
  467SOL     OW 1423   1.881   0.368   0.647
  467SOL    HW1 1424   1.799   0.411   0.686
  467SOL    HW2 1425   1.853   0.295   0.584
  468SOL     OW 1426   2.431   1.275   1.165
  468SOL    HW1 1427   2.338   1.268   1.128
  468SOL    HW2 1428   2.442   1.364   1.209
  469SOL     OW 1429   2.630   1.144   1.023
  469SOL    HW1 1430   2.552   1.161   1.083
  469SOL    HW2 1431   2.664   1.231   0.987
  470SOL     OW 1432   2.712   0.798   1.823
  470SOL    HW1 1433   2.708   0.874   1.888
  470SOL    HW2 1434   2.734   0.834   1.732
  471SOL     OW 1435   2.547   1.012   0.665
  471SOL    HW1 1436   2.616   0.996   0.735
  471SOL    HW2 1437   2.474   1.069   0.703
  472SOL     OW 1438   2.548   1.161   1.803
  472SOL    HW1 1439   2.608   1.240   1.817
  472SOL    HW2 1440   2.462   1.192   1.762
  473SOL     OW 1441   2.197   1.435   1.061
  473SOL    HW1 1442   2.119   1.404   1.008
  473SOL    HW2 1443   2.255   1.493   1.004
  474SOL     OW 1444   2.300   0.392   1.499
  474SOL    HW1 1445   2.382   0.336   1.508
  474SOL    HW2 1446   2.219   0.334   1.503
  475SOL     OW 1447   2.093   1.713   0.483
  475SOL    HW1 1448   2.127   1.790   0.537
  475SOL    HW2 1449   2.137   1.713   0.393
  476SOL     OW 1450   2.092   1.434   0.538
  476SOL    HW1 1451   2.066   1.530   0.538
  476SOL    HW2 1452   2.021   1.380   0.583
  477SOL     OW 1453   2.102   1.091   0.886
  477SOL    HW1 1454   2.116   1.007   0.938
  477SOL    HW2 1455   2.047   1.155   0.941
  478SOL     OW 1456   2.482   1.786   1.439
  478SOL    HW1 1457   2.390   1.769   1.474
  478SOL    HW2 1458   2.510   1.878   1.465
  479SOL     OW 1459   2.468   0.964   0.123
  479SOL    HW1 1460   2.475   1.048   0.069
  479SOL    HW2 1461   2.514   0.977   0.211
  480SOL     OW 1462   1.984   0.643   0.563
  480SOL    HW1 1463   1.939   0.555   0.580
  480SOL    HW2 1464   1.983   0.697   0.647
  481SOL     OW 1465   1.889   1.596   0.117
  481SOL    HW1 1466   1.870   1.500   0.138
  481SOL    HW2 1467   1.856   1.654   0.192
  482SOL     OW 1468   1.975   0.737   1.597
  482SOL    HW1 1469   2.063   0.724   1.642
  482SOL    HW2 1470   1.962   0.834   1.575
  483SOL     OW 1471   2.475   1.365   0.726
  483SOL    HW1 1472   2.426   1.278   0.735
  483SOL    HW2 1473   2.452   1.408   0.639
  484SOL     OW 1474   2.671   0.004   0.502
  484SOL    HW1 1475   2.711   0.095   0.493
  484SOL    HW2 1476   2.571   0.012   0.508
  485SOL     OW 1477   2.059   0.976   1.264
  485SOL    HW1 1478   2.148   0.931   1.250
  485SOL    HW2 1479   1.986   0.911   1.245
  486SOL     OW 1480   2.179   0.251   1.801
  486SOL    HW1 1481   2.250   0.322   1.807
  486SOL    HW2 1482   2.091   0.290   1.829
  487SOL     OW 1483   2.460   0.729   0.270
  487SOL    HW1 1484   2.484   0.798   0.202
  487SOL    HW2 1485   2.382   0.762   0.324
  488SOL     OW 1486   2.669   0.605   1.465
  488SOL    HW1 1487   2.622   0.602   1.554
  488SOL    HW2 1488   2.618   0.550   1.399
  489SOL     OW 1489   1.938   0.811   0.789
  489SOL    HW1 1490   2.037   0.799   0.798
  489SOL    HW2 1491   1.914   0.906   0.810
  490SOL     OW 1492   1.992   1.821   1.571
  490SOL    HW1 1493   1.982   1.806   1.670
  490SOL    HW2 1494   1.906   1.857   1.535
  491SOL     OW 1495   2.727   0.348   0.195
  491SOL    HW1 1496   2.786   0.411   0.146
  491SOL    HW2 1497   2.746   0.254   0.166
  492SOL     OW 1498   2.412   0.196   0.885
  492SOL    HW1 1499   2.407   0.191   0.985
  492SOL    HW2 1500   2.414   0.292   0.856
  493SOL     OW 1501   2.870   1.456   0.477
  493SOL    HW1 1502   2.824   1.528   0.425
  493SOL    HW2 1503   2.866   1.476   0.575
  494SOL     OW 1504   2.213   1.801   0.853
  494SOL    HW1 1505   2.263   1.715   0.859
  494SOL    HW2 1506   2.278   1.878   0.850
  495SOL     OW 1507   2.183   0.943   0.242
  495SOL    HW1 1508   2.265   0.982   0.200
  495SOL    HW2 1509   2.156   0.861   0.193
  496SOL     OW 1510   2.323   1.266   1.727
  496SOL    HW1 1511   2.273   1.267   1.641
  496SOL    HW2 1512   2.260   1.248   1.803
  497SOL     OW 1513   2.973   1.776   0.237
  497SOL    HW1 1514   2.913   1.714   0.287
  497SOL    HW2 1515   3.004   1.732   0.152
  498SOL     OW 1516   2.064   0.285   1.498
  498SOL    HW1 1517   1.984   0.345   1.485
  498SOL    HW2 1518   2.054   0.236   1.584
  499SOL     OW 1519   2.326   1.743   0.323
  499SOL    HW1 1520   2.359   1.782   0.409
  499SOL    HW2 1521   2.402   1.736   0.258
  500SOL     OW 1522   2.111   1.785   1.241
  500SOL    HW1 1523   2.168   1.720   1.291
  500SOL    HW2 1524   2.095   1.752   1.148
  501SOL     OW 1525   2.244   0.700   0.480
  501SOL    HW1 1526   2.289   0.610   0.477
  501SOL    HW2 1527   2.150   0.689   0.513
  502SOL     OW 1528   2.476   0.122   0.117
  502SOL    HW1 1529   2.574   0.100   0.124
  502SOL    HW2 1530   2.445   0.105   0.024
  503SOL     OW 1531   2.643   0.264   1.749
  503SOL    HW1 1532   2.710   0.203   1.792
  503SOL    HW2 1533   2.570   0.283   1.814
  504SOL     OW 1534   2.665   1.402   0.924
  504SOL    HW1 1535   2.755   1.416   0.882
  504SOL    HW2 1536   2.594   1.404   0.853
  505SOL     OW 1537   2.784   0.503   0.899
  505SOL    HW1 1538   2.759   0.494   0.803
  505SOL    HW2 1539   2.832   0.421   0.930
  506SOL     OW 1540   2.401   0.064   0.512
  506SOL    HW1 1541   2.320   0.065   0.570
  506SOL    HW2 1542   2.404   0.147   0.457
  507SOL     OW 1543   2.159   0.035   0.171
  507SOL    HW1 1544   2.208   0.119   0.150
  507SOL    HW2 1545   2.221  -0.030   0.216
  508SOL     OW 1546   2.321   1.152   0.741
  508SOL    HW1 1547   2.250   1.125   0.806
  508SOL    HW2 1548   2.295   1.124   0.648
  509SOL     OW 1549   1.940   0.556   1.386
  509SOL    HW1 1550   2.032   0.555   1.345
  509SOL    HW2 1551   1.934   0.630   1.453
  510SOL     OW 1552   2.423   0.222   1.147
  510SOL    HW1 1553   2.461   0.138   1.184
  510SOL    HW2 1554   2.335   0.241   1.191
  511SOL     OW 1555   2.350   1.385   0.174
  511SOL    HW1 1556   2.263   1.370   0.221
  511SOL    HW2 1557   2.333   1.411   0.079
  512SOL     OW 1558   2.389   0.256   0.328
  512SOL    HW1 1559   2.416   0.197   0.253
  512SOL    HW2 1560   2.389   0.351   0.297
  513SOL     OW 1561   2.777   0.089   1.402
  513SOL    HW1 1562   2.802   0.069   1.307
  513SOL    HW2 1563   2.849   0.145   1.444
  514SOL     OW 1564   2.567   1.050   0.368
  514SOL    HW1 1565   2.553   1.057   0.467
  514SOL    HW2 1566   2.651   0.999   0.350
  515SOL     OW 1567   2.272   0.813   1.251
  515SOL    HW1 1568   2.358   0.825   1.301
  515SOL    HW2 1569   2.230   0.726   1.278
  516SOL     OW 1570   1.926   1.564   1.331
  516SOL    HW1 1571   1.880   1.646   1.297
  516SOL    HW2 1572   2.024   1.583   1.340
  517SOL     OW 1573   2.229   1.100   0.501
  517SOL    HW1 1574   2.222   1.183   0.445
  517SOL    HW2 1575   2.233   1.020   0.441
  518SOL     OW 1576   2.428   0.537   0.865
  518SOL    HW1 1577   2.440   0.603   0.791
  518SOL    HW2 1578   2.474   0.571   0.948
  519SOL     OW 1579   2.216   1.510   1.329
  519SOL    HW1 1580   2.195   1.466   1.242
  519SOL    HW2 1581   2.313   1.536   1.332
  520SOL     OW 1582   2.264   0.751   1.598
  520SOL    HW1 1583   2.332   0.806   1.551
  520SOL    HW2 1584   2.304   0.663   1.625
  521SOL     OW 1585   2.366   0.050   1.740
  521SOL    HW1 1586   2.324  -0.007   1.670
  521SOL    HW2 1587   2.300   0.119   1.772
  522SOL     OW 1588   2.435   0.870   1.029
  522SOL    HW1 1589   2.479   0.959   1.020
  522SOL    HW2 1590   2.372   0.870   1.106
  523SOL     OW 1591   2.169   0.213   1.231
  523SOL    HW1 1592   2.146   0.250   1.321
  523SOL    HW2 1593   2.139   0.118   1.225
  524SOL     OW 1594   1.899   1.310   1.282
  524SOL    HW1 1595   1.952   1.261   1.350
  524SOL    HW2 1596   1.921   1.408   1.287
  525SOL     OW 1597   2.594   0.634   1.064
  525SOL    HW1 1598   2.653   0.608   0.988
  525SOL    HW2 1599   2.566   0.730   1.053
  526SOL     OW 1600   2.169   0.063   0.618
  526SOL    HW1 1601   2.158   0.157   0.651
  526SOL    HW2 1602   2.164   0.000   0.695
  527SOL     OW 1603   2.885   0.766   0.966
  527SOL    HW1 1604   2.900   0.787   1.062
  527SOL    HW2 1605   2.855   0.671   0.957
  528SOL     OW 1606   2.842   1.573   1.700
  528SOL    HW1 1607   2.822   1.617   1.612
  528SOL    HW2 1608   2.881   1.482   1.684
  529SOL     OW 1609   2.212   0.898   1.804
  529SOL    HW1 1610   2.288   0.942   1.852
  529SOL    HW2 1611   2.247   0.851   1.722
  530SOL     OW 1612   2.181   0.810   0.949
  530SOL    HW1 1613   2.274   0.846   0.954
  530SOL    HW2 1614   2.175   0.725   1.001
  531SOL     OW 1615   2.201   0.509   1.006
  531SOL    HW1 1616   2.149   0.426   0.989
  531SOL    HW2 1617   2.278   0.514   0.942
  532SOL     OW 1618   1.870   1.326   0.200
  532SOL    HW1 1619   1.777   1.347   0.169
  532SOL    HW2 1620   1.880   1.227   0.213
  533SOL     OW 1621   1.950   1.801   0.927
  533SOL    HW1 1622   1.908   1.715   0.900
  533SOL    HW2 1623   2.044   1.804   0.893
  534SOL     OW 1624   2.366   1.568   0.910
  534SOL    HW1 1625   2.432   1.642   0.919
  534SOL    HW2 1626   2.410   1.489   0.868
  535SOL     OW 1627   1.902   0.544   1.114
  535SOL    HW1 1628   1.987   0.511   1.073
  535SOL    HW2 1629   1.915   0.559   1.212
  536SOL     OW 1630   2.051   0.520   1.722
  536SOL    HW1 1631   2.110   0.480   1.652
  536SOL    HW2 1632   1.993   0.591   1.681
  537SOL     OW 1633   2.677   0.572   0.325
  537SOL    HW1 1634   2.684   0.483   0.279
  537SOL    HW2 1635   2.583   0.606   0.317
  538SOL     OW 1636   2.114   1.564   1.744
  538SOL    HW1 1637   2.084   1.621   1.820
  538SOL    HW2 1638   2.107   1.467   1.770
  539SOL     OW 1639   2.533   0.464   1.269
  539SOL    HW1 1640   2.499   0.375   1.239
  539SOL    HW2 1641   2.559   0.518   1.189
  540SOL     OW 1642   2.335   0.500   0.191
  540SOL    HW1 1643   2.396   0.580   0.195
  540SOL    HW2 1644   2.240   0.531   0.198
  541SOL     OW 1645   2.021   1.137   1.466
  541SOL    HW1 1646   2.043   1.076   1.542
  541SOL    HW2 1647   2.031   1.088   1.380
  542SOL     OW 1648   1.945   1.258   1.022
  542SOL    HW1 1649   1.940   1.257   1.122
  542SOL    HW2 1650   1.862   1.217   0.984
  543SOL     OW 1651   2.550   1.662   1.716
  543SOL    HW1 1652   2.494   1.743   1.725
  543SOL    HW2 1653   2.602   1.666   1.630
  544SOL     OW 1654   2.765   0.086   0.133
  544SOL    HW1 1655   2.816   0.087   0.047
  544SOL    HW2 1656   2.821   0.044   0.204
  545SOL     OW 1657   1.992   1.794   1.851
  545SOL    HW1 1658   1.951   1.720   1.904
  545SOL    HW2 1659   2.056   1.845   1.909
  546SOL     OW 1660   2.692   1.273   1.422
  546SOL    HW1 1661   2.687   1.306   1.517
  546SOL    HW2 1662   2.606   1.292   1.376
  547SOL     OW 1663   2.534   1.616   0.154
  547SOL    HW1 1664   2.543   1.626   0.055
  547SOL    HW2 1665   2.494   1.527   0.175
  548SOL     OW 1666   2.125   0.326   0.720
  548SOL    HW1 1667   2.046   0.377   0.686
  548SOL    HW2 1668   2.116   0.311   0.818
  549SOL     OW 1669   3.056   1.612   0.031
  549SOL    HW1 1670   3.062   1.519   0.068
  549SOL    HW2 1671   2.997   1.612  -0.049
  550SOL     OW 1672   2.684   1.002   1.372
  550SOL    HW1 1673   2.724   1.001   1.280
  550SOL    HW2 1674   2.694   1.094   1.412
  551SOL     OW 1675   2.234   1.288   1.490
  551SOL    HW1 1676   2.221   1.381   1.456
  551SOL    HW2 1677   2.150   1.236   1.477
  552SOL     OW 1678   2.452   1.487   0.491
  552SOL    HW1 1679   2.494   1.429   0.421
  552SOL    HW2 1680   2.408   1.566   0.447
  553SOL     OW 1681   2.117   1.348   0.290
  553SOL    HW1 1682   2.021   1.349   0.263
  553SOL    HW2 1683   2.129   1.401   0.374
  554SOL     OW 1684   1.967   1.013   1.726
  554SOL    HW1 1685   1.890   0.980   1.780
  554SOL    HW2 1686   2.052   0.983   1.768
  555SOL     OW 1687   2.534   0.203   1.489
  555SOL    HW1 1688   2.624   0.187   1.449
  555SOL    HW2 1689   2.542   0.208   1.588
  556SOL     OW 1690   2.475   0.842   1.431
  556SOL    HW1 1691   2.531   0.923   1.414
  556SOL    HW2 1692   2.534   0.762   1.434
  557SOL     OW 1693   2.578   0.565   1.708
  557SOL    HW1 1694   2.597   0.630   1.782
  557SOL    HW2 1695   2.638   0.485   1.717
  558SOL     OW 1696   2.252   1.741   1.560
  558SOL    HW1 1697   2.161   1.782   1.558
  558SOL    HW2 1698   2.245   1.647   1.592
  559SOL     OW 1699   2.456   0.745   0.652
  559SOL    HW1 1700   2.506   0.830   0.633
  559SOL    HW2 1701   2.368   0.747   0.604
  560SOL     OW 1702   2.523   1.790   0.953
  560SOL    HW1 1703   2.477   1.878   0.940
  560SOL    HW2 1704   2.622   1.802   0.946
  561SOL     OW 1705   2.721   0.956   0.861
  561SOL    HW1 1706   2.775   0.887   0.909
  561SOL    HW2 1707   2.689   1.025   0.927
  562SOL     OW 1708   2.083   1.314   1.844
  562SOL    HW1 1709   2.018   1.241   1.823
  562SOL    HW2 1710   2.087   1.328   1.942
  563SOL     OW 1711   1.941   1.240   0.653
  563SOL    HW1 1712   1.940   1.193   0.741
  563SOL    HW2 1713   2.023   1.212   0.602
  564SOL     OW 1714   2.534   1.391   1.624
  564SOL    HW1 1715   2.456   1.341   1.662
  564SOL    HW2 1716   2.531   1.486   1.655
  565SOL     OW 1717   2.290   0.424   0.520
  565SOL    HW1 1718   2.320   0.352   0.458
  565SOL    HW2 1719   2.251   0.384   0.603
  566SOL     OW 1720   2.179   0.547   1.280
  566SOL    HW1 1721   2.217   0.488   1.352
  566SOL    HW2 1722   2.219   0.521   1.192
  567SOL     OW 1723   2.674   1.586   0.687
  567SOL    HW1 1724   2.706   1.596   0.593
  567SOL    HW2 1725   2.595   1.524   0.689
  568SOL     OW 1726   2.863   0.034   1.154
  568SOL    HW1 1727   2.800  -0.038   1.123
  568SOL    HW2 1728   2.956  -0.002   1.154
  569SOL     OW 1729   2.632   1.330   0.301
  569SOL    HW1 1730   2.586   1.243   0.318
  569SOL    HW2 1731   2.723   1.327   0.342
  570SOL     OW 1732   2.480   1.567   1.284
  570SOL    HW1 1733   2.475   1.649   1.341
  570SOL    HW2 1734   2.569   1.564   1.239
  571SOL     OW 1735   1.901   1.077   0.300
  571SOL    HW1 1736   2.000   1.066   0.291
  571SOL    HW2 1737   1.861   0.991   0.332
  572SOL     OW 1738   2.737   1.646   0.337
  572SOL    HW1 1739   2.660   1.611   0.283
  572SOL    HW2 1740   2.705   1.717   0.399
  573SOL     OW 1741   2.092   0.628   1.975
  573SOL    HW1 1742   1.999   0.626   2.012
  573SOL    HW2 1743   2.093   0.589   1.883
  574SOL     OW 1744   2.087   0.275   2.858
  574SOL    HW1 1745   2.122   0.258   2.950
  574SOL    HW2 1746   1.999   0.230   2.846
  575SOL     OW 1747   1.881   0.368   2.509
  575SOL    HW1 1748   1.799   0.411   2.548
  575SOL    HW2 1749   1.853   0.295   2.446
  576SOL     OW 1750   2.630   1.144   2.885
  576SOL    HW1 1751   2.552   1.161   2.945
  576SOL    HW2 1752   2.664   1.231   2.849
  577SOL     OW 1753   2.547   1.012   2.527
  577SOL    HW1 1754   2.616   0.996   2.597
  577SOL    HW2 1755   2.474   1.069   2.565
  578SOL     OW 1756   2.093   1.713   2.345
  578SOL    HW1 1757   2.127   1.790   2.399
  578SOL    HW2 1758   2.137   1.713   2.255
  579SOL     OW 1759   2.092   1.434   2.400
  579SOL    HW1 1760   2.066   1.530   2.400
  579SOL    HW2 1761   2.021   1.380   2.445
  580SOL     OW 1762   2.102   1.091   2.748
  580SOL    HW1 1763   2.116   1.007   2.800
  580SOL    HW2 1764   2.047   1.155   2.803
  581SOL     OW 1765   2.468   0.964   1.985
  581SOL    HW1 1766   2.475   1.048   1.931
  581SOL    HW2 1767   2.514   0.977   2.073
  582SOL     OW 1768   1.984   0.643   2.425
  582SOL    HW1 1769   1.939   0.555   2.442
  582SOL    HW2 1770   1.983   0.697   2.509
  583SOL     OW 1771   1.889   1.596   1.979
  583SOL    HW1 1772   1.870   1.500   2.000
  583SOL    HW2 1773   1.856   1.654   2.054
  584SOL     OW 1774   2.475   1.365   2.588
  584SOL    HW1 1775   2.426   1.278   2.597
  584SOL    HW2 1776   2.452   1.408   2.501
  585SOL     OW 1777   2.671   0.004   2.364
  585SOL    HW1 1778   2.711   0.095   2.355
  585SOL    HW2 1779   2.571   0.012   2.370
  586SOL     OW 1780   2.460   0.729   2.132
  586SOL    HW1 1781   2.484   0.798   2.064
  586SOL    HW2 1782   2.382   0.762   2.186
  587SOL     OW 1783   1.938   0.811   2.651
  587SOL    HW1 1784   2.037   0.799   2.660
  587SOL    HW2 1785   1.914   0.906   2.672
  588SOL     OW 1786   2.727   0.348   2.057
  588SOL    HW1 1787   2.786   0.411   2.008
  588SOL    HW2 1788   2.746   0.254   2.028
  589SOL     OW 1789   2.870   1.456   2.339
  589SOL    HW1 1790   2.824   1.528   2.287
  589SOL    HW2 1791   2.866   1.476   2.437
  590SOL     OW 1792   2.213   1.801   2.715
  590SOL    HW1 1793   2.263   1.715   2.721
  590SOL    HW2 1794   2.278   1.878   2.712
  591SOL     OW 1795   2.183   0.943   2.104
  591SOL    HW1 1796   2.265   0.982   2.062
  591SOL    HW2 1797   2.156   0.861   2.055
  592SOL     OW 1798   2.973   1.776   2.099
  592SOL    HW1 1799   2.913   1.714   2.149
  592SOL    HW2 1800   3.004   1.732   2.014
  593SOL     OW 1801   2.326   1.743   2.185
  593SOL    HW1 1802   2.359   1.782   2.271
  593SOL    HW2 1803   2.402   1.736   2.120
  594SOL     OW 1804   2.244   0.700   2.342
  594SOL    HW1 1805   2.289   0.610   2.339
  594SOL    HW2 1806   2.150   0.689   2.375
  595SOL     OW 1807   2.476   0.122   1.979
  595SOL    HW1 1808   2.574   0.100   1.986
  595SOL    HW2 1809   2.445   0.105   1.886
  596SOL     OW 1810   2.665   1.402   2.786
  596SOL    HW1 1811   2.755   1.416   2.744
  596SOL    HW2 1812   2.594   1.404   2.715
  597SOL     OW 1813   2.401   0.064   2.374
  597SOL    HW1 1814   2.320   0.065   2.432
  597SOL    HW2 1815   2.404   0.147   2.319
  598SOL     OW 1816   2.159   0.035   2.033
  598SOL    HW1 1817   2.208   0.119   2.012
  598SOL    HW2 1818   2.221  -0.030   2.078
  599SOL     OW 1819   2.321   1.152   2.603
  599SOL    HW1 1820   2.250   1.125   2.668
  599SOL    HW2 1821   2.295   1.124   2.510
  600SOL     OW 1822   2.350   1.385   2.036
  600SOL    HW1 1823   2.263   1.370   2.083
  600SOL    HW2 1824   2.333   1.411   1.941
  601SOL     OW 1825   2.389   0.256   2.190
  601SOL    HW1 1826   2.416   0.197   2.115
  601SOL    HW2 1827   2.389   0.351   2.159
  602SOL     OW 1828   2.567   1.050   2.230
  602SOL    HW1 1829   2.553   1.057   2.329
  602SOL    HW2 1830   2.651   0.999   2.212
  603SOL     OW 1831   2.229   1.100   2.363
  603SOL    HW1 1832   2.222   1.183   2.307
  603SOL    HW2 1833   2.233   1.020   2.303
  604SOL     OW 1834   2.428   0.537   2.727
  604SOL    HW1 1835   2.440   0.603   2.653
  604SOL    HW2 1836   2.474   0.571   2.810
  605SOL     OW 1837   2.594   0.634   2.926
  605SOL    HW1 1838   2.653   0.608   2.850
  605SOL    HW2 1839   2.566   0.730   2.915
  606SOL     OW 1840   2.169   0.063   2.480
  606SOL    HW1 1841   2.158   0.157   2.513
  606SOL    HW2 1842   2.164   0.000   2.557
  607SOL     OW 1843   2.885   0.766   2.828
  607SOL    HW1 1844   2.900   0.787   2.924
  607SOL    HW2 1845   2.855   0.671   2.819
  608SOL     OW 1846   1.870   1.326   2.062
  608SOL    HW1 1847   1.777   1.347   2.031
  608SOL    HW2 1848   1.880   1.227   2.075
  609SOL     OW 1849   1.950   1.801   2.789
  609SOL    HW1 1850   1.908   1.715   2.762
  609SOL    HW2 1851   2.044   1.804   2.755
  610SOL     OW 1852   2.366   1.568   2.772
  610SOL    HW1 1853   2.432   1.642   2.781
  610SOL    HW2 1854   2.410   1.489   2.730
  611SOL     OW 1855   2.677   0.572   2.187
  611SOL    HW1 1856   2.684   0.483   2.141
  611SOL    HW2 1857   2.583   0.606   2.179
  612SOL     OW 1858   2.335   0.500   2.053
  612SOL    HW1 1859   2.396   0.580   2.057
  612SOL    HW2 1860   2.240   0.531   2.060
  613SOL     OW 1861   2.765   0.086   1.995
  613SOL    HW1 1862   2.816   0.087   1.909
  613SOL    HW2 1863   2.821   0.044   2.066
  614SOL     OW 1864   2.534   1.616   2.016
  614SOL    HW1 1865   2.543   1.626   1.917
  614SOL    HW2 1866   2.494   1.527   2.037
  615SOL     OW 1867   2.125   0.326   2.582
  615SOL    HW1 1868   2.046   0.377   2.548
  615SOL    HW2 1869   2.116   0.311   2.680
  616SOL     OW 1870   2.452   1.487   2.353
  616SOL    HW1 1871   2.494   1.429   2.283
  616SOL    HW2 1872   2.408   1.566   2.309
  617SOL     OW 1873   2.117   1.348   2.152
  617SOL    HW1 1874   2.021   1.349   2.125
  617SOL    HW2 1875   2.129   1.401   2.236
  618SOL     OW 1876   1.937   0.345   1.895
  618SOL    HW1 1877   1.845   0.317   1.866
  618SOL    HW2 1878   1.968   0.422   1.839
  619SOL     OW 1879   1.934   0.166   2.180
  619SOL    HW1 1880   1.917   0.249   2.126
  619SOL    HW2 1881   2.024   0.129   2.158
  620SOL     OW 1882   2.456   0.745   2.514
  620SOL    HW1 1883   2.506   0.830   2.495
  620SOL    HW2 1884   2.368   0.747   2.466
  621SOL     OW 1885   2.523   1.790   2.815
  621SOL    HW1 1886   2.477   1.878   2.802
  621SOL    HW2 1887   2.622   1.802   2.808
  622SOL     OW 1888   2.721   0.956   2.723
  622SOL    HW1 1889   2.775   0.887   2.771
  622SOL    HW2 1890   2.689   1.025   2.789
  623SOL     OW 1891   1.941   1.240   2.515
  623SOL    HW1 1892   1.940   1.193   2.603
  623SOL    HW2 1893   2.023   1.212   2.464
  624SOL     OW 1894   2.290   0.424   2.382
  624SOL    HW1 1895   2.320   0.352   2.320
  624SOL    HW2 1896   2.251   0.384   2.465
  625SOL     OW 1897   2.674   1.586   2.549
  625SOL    HW1 1898   2.706   1.596   2.455
  625SOL    HW2 1899   2.595   1.524   2.551
  626SOL     OW 1900   2.632   1.330   2.163
  626SOL    HW1 1901   2.586   1.243   2.180
  626SOL    HW2 1902   2.723   1.327   2.204
  627SOL     OW 1903   1.901   1.077   2.162
  627SOL    HW1 1904   2.000   1.066   2.153
  627SOL    HW2 1905   1.861   0.991   2.194
  628SOL     OW 1906   2.737   1.646   2.199
  628SOL    HW1 1907   2.660   1.611   2.145
  628SOL    HW2 1908   2.705   1.717   2.261
  629SOL     OW 1909   2.092   2.490   0.113
  629SOL    HW1 1910   1.999   2.488   0.150
  629SOL    HW2 1911   2.093   2.451   0.021
  630SOL     OW 1912   2.087   2.137   0.996
  630SOL    HW1 1913   2.122   2.120   1.088
  630SOL    HW2 1914   1.999   2.092   0.984
  631SOL     OW 1915   1.881   2.230   0.647
  631SOL    HW1 1916   1.799   2.273   0.686
  631SOL    HW2 1917   1.853   2.157   0.584
  632SOL     OW 1918   2.712   2.660   1.823
  632SOL    HW1 1919   2.708   2.736   1.888
  632SOL    HW2 1920   2.734   2.696   1.732
  633SOL     OW 1921   2.547   2.874   0.665
  633SOL    HW1 1922   2.616   2.858   0.735
  633SOL    HW2 1923   2.474   2.931   0.703
  634SOL     OW 1924   2.300   2.254   1.499
  634SOL    HW1 1925   2.382   2.198   1.508
  634SOL    HW2 1926   2.219   2.196   1.503
  635SOL     OW 1927   1.984   2.505   0.563
  635SOL    HW1 1928   1.939   2.417   0.580
  635SOL    HW2 1929   1.983   2.559   0.647
  636SOL     OW 1930   1.975   2.599   1.597
  636SOL    HW1 1931   2.063   2.586   1.642
  636SOL    HW2 1932   1.962   2.696   1.575
  637SOL     OW 1933   2.671   1.866   0.502
  637SOL    HW1 1934   2.711   1.957   0.493
  637SOL    HW2 1935   2.571   1.874   0.508
  638SOL     OW 1936   2.179   2.113   1.801
  638SOL    HW1 1937   2.250   2.184   1.807
  638SOL    HW2 1938   2.091   2.152   1.829
  639SOL     OW 1939   2.460   2.591   0.270
  639SOL    HW1 1940   2.484   2.660   0.202
  639SOL    HW2 1941   2.382   2.624   0.324
  640SOL     OW 1942   2.669   2.467   1.465
  640SOL    HW1 1943   2.622   2.464   1.554
  640SOL    HW2 1944   2.618   2.412   1.399
  641SOL     OW 1945   1.938   2.673   0.789
  641SOL    HW1 1946   2.037   2.661   0.798
  641SOL    HW2 1947   1.914   2.768   0.810
  642SOL     OW 1948   2.727   2.210   0.195
  642SOL    HW1 1949   2.786   2.273   0.146
  642SOL    HW2 1950   2.746   2.116   0.166
  643SOL     OW 1951   2.412   2.058   0.885
  643SOL    HW1 1952   2.407   2.053   0.985
  643SOL    HW2 1953   2.414   2.154   0.856
  644SOL     OW 1954   2.064   2.147   1.498
  644SOL    HW1 1955   1.984   2.207   1.485
  644SOL    HW2 1956   2.054   2.098   1.584
  645SOL     OW 1957   2.244   2.562   0.480
  645SOL    HW1 1958   2.289   2.472   0.477
  645SOL    HW2 1959   2.150   2.551   0.513
  646SOL     OW 1960   2.643   2.126   1.749
  646SOL    HW1 1961   2.710   2.065   1.792
  646SOL    HW2 1962   2.570   2.145   1.814
  647SOL     OW 1963   2.784   2.365   0.899
  647SOL    HW1 1964   2.759   2.356   0.803
  647SOL    HW2 1965   2.832   2.283   0.930
  648SOL     OW 1966   2.401   1.926   0.512
  648SOL    HW1 1967   2.320   1.927   0.570
  648SOL    HW2 1968   2.404   2.009   0.457
  649SOL     OW 1969   2.159   1.897   0.171
  649SOL    HW1 1970   2.208   1.981   0.150
  649SOL    HW2 1971   2.221   1.832   0.216
  650SOL     OW 1972   1.940   2.418   1.386
  650SOL    HW1 1973   2.032   2.417   1.345
  650SOL    HW2 1974   1.934   2.492   1.453
  651SOL     OW 1975   2.423   2.084   1.147
  651SOL    HW1 1976   2.461   2.000   1.184
  651SOL    HW2 1977   2.335   2.103   1.191
  652SOL     OW 1978   2.389   2.118   0.328
  652SOL    HW1 1979   2.416   2.059   0.253
  652SOL    HW2 1980   2.389   2.213   0.297
  653SOL     OW 1981   2.777   1.951   1.402
  653SOL    HW1 1982   2.802   1.931   1.307
  653SOL    HW2 1983   2.849   2.007   1.444
  654SOL     OW 1984   2.272   2.675   1.251
  654SOL    HW1 1985   2.358   2.687   1.301
  654SOL    HW2 1986   2.230   2.588   1.278
  655SOL     OW 1987   2.428   2.399   0.865
  655SOL    HW1 1988   2.440   2.465   0.791
  655SOL    HW2 1989   2.474   2.433   0.948
  656SOL     OW 1990   2.264   2.613   1.598
  656SOL    HW1 1991   2.332   2.668   1.551
  656SOL    HW2 1992   2.304   2.525   1.625
  657SOL     OW 1993   2.366   1.912   1.740
  657SOL    HW1 1994   2.324   1.855   1.670
  657SOL    HW2 1995   2.300   1.981   1.772
  658SOL     OW 1996   2.435   2.732   1.029
  658SOL    HW1 1997   2.479   2.821   1.020
  658SOL    HW2 1998   2.372   2.732   1.106
  659SOL     OW 1999   2.169   2.075   1.231
  659SOL    HW1 2000   2.146   2.112   1.321
  659SOL    HW2 2001   2.139   1.980   1.225
  660SOL     OW 2002   2.594   2.496   1.064
  660SOL    HW1 2003   2.653   2.470   0.988
  660SOL    HW2 2004   2.566   2.592   1.053
  661SOL     OW 2005   2.169   1.925   0.618
  661SOL    HW1 2006   2.158   2.019   0.651
  661SOL    HW2 2007   2.164   1.862   0.695
  662SOL     OW 2008   2.885   2.628   0.966
  662SOL    HW1 2009   2.900   2.649   1.062
  662SOL    HW2 2010   2.855   2.533   0.957
  663SOL     OW 2011   2.181   2.672   0.949
  663SOL    HW1 2012   2.274   2.708   0.954
  663SOL    HW2 2013   2.175   2.587   1.001
  664SOL     OW 2014   2.201   2.371   1.006
  664SOL    HW1 2015   2.149   2.288   0.989
  664SOL    HW2 2016   2.278   2.376   0.942
  665SOL     OW 2017   2.864   2.658   1.238
  665SOL    HW1 2018   2.905   2.626   1.324
  665SOL    HW2 2019   2.768   2.631   1.235
  666SOL     OW 2020   1.902   2.406   1.114
  666SOL    HW1 2021   1.987   2.373   1.073
  666SOL    HW2 2022   1.915   2.421   1.212
  667SOL     OW 2023   2.051   2.382   1.722
  667SOL    HW1 2024   2.110   2.342   1.652
  667SOL    HW2 2025   1.993   2.453   1.681
  668SOL     OW 2026   2.677   2.434   0.325
  668SOL    HW1 2027   2.684   2.345   0.279
  668SOL    HW2 2028   2.583   2.468   0.317
  669SOL     OW 2029   2.533   2.326   1.269
  669SOL    HW1 2030   2.499   2.237   1.239
  669SOL    HW2 2031   2.559   2.380   1.189
  670SOL     OW 2032   2.335   2.362   0.191
  670SOL    HW1 2033   2.396   2.442   0.195
  670SOL    HW2 2034   2.240   2.393   0.198
  671SOL     OW 2035   2.765   1.948   0.133
  671SOL    HW1 2036   2.816   1.949   0.047
  671SOL    HW2 2037   2.821   1.906   0.204
  672SOL     OW 2038   2.125   2.188   0.720
  672SOL    HW1 2039   2.046   2.239   0.686
  672SOL    HW2 2040   2.116   2.173   0.818
  673SOL     OW 2041   2.901   2.960   0.696
  673SOL    HW1 2042   2.831   2.913   0.750
  673SOL    HW2 2043   2.960   2.892   0.653
  674SOL     OW 2044   1.967   2.875   1.726
  674SOL    HW1 2045   1.890   2.842   1.780
  674SOL    HW2 2046   2.052   2.845   1.768
  675SOL     OW 2047   2.534   2.065   1.489
  675SOL    HW1 2048   2.624   2.049   1.449
  675SOL    HW2 2049   2.542   2.070   1.588
  676SOL     OW 2050   1.934   2.028   0.318
  676SOL    HW1 2051   1.917   2.111   0.264
  676SOL    HW2 2052   2.024   1.991   0.296
  677SOL     OW 2053   2.475   2.704   1.431
  677SOL    HW1 2054   2.531   2.785   1.414
  677SOL    HW2 2055   2.534   2.624   1.434
  678SOL     OW 2056   2.578   2.427   1.708
  678SOL    HW1 2057   2.597   2.492   1.782
  678SOL    HW2 2058   2.638   2.347   1.717
  679SOL     OW 2059   2.456   2.607   0.652
  679SOL    HW1 2060   2.506   2.692   0.633
  679SOL    HW2 2061   2.368   2.609   0.604
  680SOL     OW 2062   2.721   2.818   0.861
  680SOL    HW1 2063   2.775   2.749   0.909
  680SOL    HW2 2064   2.689   2.887   0.927
  681SOL     OW 2065   2.290   2.286   0.520
  681SOL    HW1 2066   2.320   2.214   0.458
  681SOL    HW2 2067   2.251   2.246   0.603
  682SOL     OW 2068   2.179   2.409   1.280
  682SOL    HW1 2069   2.217   2.350   1.352
  682SOL    HW2 2070   2.219   2.383   1.192
  683SOL     OW 2071   2.863   1.896   1.154
  683SOL    HW1 2072   2.800   1.824   1.123
  683SOL    HW2 2073   2.956   1.860   1.154
  684SOL     OW 2074   2.092   2.490   1.975
  684SOL    HW1 2075   1.999   2.488   2.012
  684SOL    HW2 2076   2.093   2.451   1.883
  685SOL     OW 2077   2.087   2.137   2.858
  685SOL    HW1 2078   2.122   2.120   2.950
  685SOL    HW2 2079   1.999   2.092   2.846
  686SOL     OW 2080   1.881   2.230   2.509
  686SOL    HW1 2081   1.799   2.273   2.548
  686SOL    HW2 2082   1.853   2.157   2.446
  687SOL     OW 2083   2.547   2.874   2.527
  687SOL    HW1 2084   2.616   2.858   2.597
  687SOL    HW2 2085   2.474   2.931   2.565
  688SOL     OW 2086   1.984   2.505   2.425
  688SOL    HW1 2087   1.939   2.417   2.442
  688SOL    HW2 2088   1.983   2.559   2.509
  689SOL     OW 2089   2.671   1.866   2.364
  689SOL    HW1 2090   2.711   1.957   2.355
  689SOL    HW2 2091   2.571   1.874   2.370
  690SOL     OW 2092   2.460   2.591   2.132
  690SOL    HW1 2093   2.484   2.660   2.064
  690SOL    HW2 2094   2.382   2.624   2.186
  691SOL     OW 2095   1.938   2.673   2.651
  691SOL    HW1 2096   2.037   2.661   2.660
  691SOL    HW2 2097   1.914   2.768   2.672
  692SOL     OW 2098   2.727   2.210   2.057
  692SOL    HW1 2099   2.786   2.273   2.008
  692SOL    HW2 2100   2.746   2.116   2.028
  693SOL     OW 2101   2.412   2.058   2.747
  693SOL    HW1 2102   2.407   2.053   2.847
  693SOL    HW2 2103   2.414   2.154   2.718
  694SOL     OW 2104   2.244   2.562   2.342
  694SOL    HW1 2105   2.289   2.472   2.339
  694SOL    HW2 2106   2.150   2.551   2.375
  695SOL     OW 2107   2.476   1.984   1.979
  695SOL    HW1 2108   2.574   1.962   1.986
  695SOL    HW2 2109   2.445   1.967   1.886
  696SOL     OW 2110   2.401   1.926   2.374
  696SOL    HW1 2111   2.320   1.927   2.432
  696SOL    HW2 2112   2.404   2.009   2.319
  697SOL     OW 2113   2.159   1.897   2.033
  697SOL    HW1 2114   2.208   1.981   2.012
  697SOL    HW2 2115   2.221   1.832   2.078
  698SOL     OW 2116   2.389   2.118   2.190
  698SOL    HW1 2117   2.416   2.059   2.115
  698SOL    HW2 2118   2.389   2.213   2.159
  699SOL     OW 2119   2.428   2.399   2.727
  699SOL    HW1 2120   2.440   2.465   2.653
  699SOL    HW2 2121   2.474   2.433   2.810
  700SOL     OW 2122   2.594   2.496   2.926
  700SOL    HW1 2123   2.653   2.470   2.850
  700SOL    HW2 2124   2.566   2.592   2.915
  701SOL     OW 2125   2.169   1.925   2.480
  701SOL    HW1 2126   2.158   2.019   2.513
  701SOL    HW2 2127   2.164   1.862   2.557
  702SOL     OW 2128   2.885   2.628   2.828
  702SOL    HW1 2129   2.900   2.649   2.924
  702SOL    HW2 2130   2.855   2.533   2.819
  703SOL     OW 2131   2.677   2.434   2.187
  703SOL    HW1 2132   2.684   2.345   2.141
  703SOL    HW2 2133   2.583   2.468   2.179
  704SOL     OW 2134   2.335   2.362   2.053
  704SOL    HW1 2135   2.396   2.442   2.057
  704SOL    HW2 2136   2.240   2.393   2.060
  705SOL     OW 2137   2.765   1.948   1.995
  705SOL    HW1 2138   2.816   1.949   1.909
  705SOL    HW2 2139   2.821   1.906   2.066
  706SOL     OW 2140   2.125   2.188   2.582
  706SOL    HW1 2141   2.046   2.239   2.548
  706SOL    HW2 2142   2.116   2.173   2.680
  707SOL     OW 2143   2.901   2.960   2.558
  707SOL    HW1 2144   2.831   2.913   2.612
  707SOL    HW2 2145   2.960   2.892   2.515
  708SOL     OW 2146   1.937   2.207   1.895
  708SOL    HW1 2147   1.845   2.179   1.866
  708SOL    HW2 2148   1.968   2.284   1.839
  709SOL     OW 2149   1.934   2.028   2.180
  709SOL    HW1 2150   1.917   2.111   2.126
  709SOL    HW2 2151   2.024   1.991   2.158
  710SOL     OW 2152   2.456   2.607   2.514
  710SOL    HW1 2153   2.506   2.692   2.495
  710SOL    HW2 2154   2.368   2.609   2.466
  711SOL     OW 2155   2.721   2.818   2.723
  711SOL    HW1 2156   2.775   2.749   2.771
  711SOL    HW2 2157   2.689   2.887   2.789
  712SOL     OW 2158   2.290   2.286   2.382
  712SOL    HW1 2159   2.320   2.214   2.320
  712SOL    HW2 2160   2.251   2.246   2.465
   2.82109   2.82109   2.82109
