mobley_4434915_GMX.gro created by acpype (v: 2023.10.27) on Thu May 14 13:42:49 2026
 1112
    1MOL     C1    1   1.126   1.111   1.109
    1MOL    CL1    2   1.021   1.195   1.224
    1MOL     H1    3   1.188   1.185   1.058
    1MOL     H2    4   1.190   1.041   1.164
    1MOL     H3    5   1.065   1.057   1.037
    2SOL     OW    6   0.230   0.628   0.113
    2SOL    HW1    7   0.137   0.626   0.150
    2SOL    HW2    8   0.231   0.589   0.021
    3SOL     OW    9   0.225   0.275   0.996
    3SOL    HW1   10   0.260   0.258   1.088
    3SOL    HW2   11   0.137   0.230   0.984
    4SOL     OW   12   0.019   0.368   0.647
    4SOL    HW1   13  -0.063   0.411   0.686
    4SOL    HW2   14  -0.009   0.295   0.584
    5SOL     OW   15   0.569   1.275   1.165
    5SOL    HW1   16   0.476   1.268   1.128
    5SOL    HW2   17   0.580   1.364   1.209
    6SOL     OW   18   1.555   1.511   0.703
    6SOL    HW1   19   1.498   1.495   0.784
    6SOL    HW2   20   1.496   1.521   0.623
    7SOL     OW   21   1.135   0.703   0.717
    7SOL    HW1   22   1.192   0.781   0.692
    7SOL    HW2   23   1.075   0.729   0.793
    8SOL     OW   24   1.755   0.607   0.231
    8SOL    HW1   25   1.743   0.594   0.132
    8SOL    HW2   26   1.725   0.526   0.280
    9SOL     OW   27   0.768   1.144   1.023
    9SOL    HW1   28   0.690   1.161   1.083
    9SOL    HW2   29   0.802   1.231   0.987
   10SOL     OW   30   0.850   0.798   1.823
   10SOL    HW1   31   0.846   0.874   1.888
   10SOL    HW2   32   0.872   0.834   1.732
   11SOL     OW   33   0.685   1.012   0.665
   11SOL    HW1   34   0.754   0.996   0.735
   11SOL    HW2   35   0.612   1.069   0.703
   12SOL     OW   36   0.686   1.161   1.803
   12SOL    HW1   37   0.746   1.240   1.817
   12SOL    HW2   38   0.600   1.192   1.762
   13SOL     OW   39   0.335   1.435   1.061
   13SOL    HW1   40   0.257   1.404   1.008
   13SOL    HW2   41   0.393   1.493   1.004
   14SOL     OW   42   1.460   1.505   1.339
   14SOL    HW1   43   1.484   1.599   1.365
   14SOL    HW2   44   1.444   1.451   1.421
   15SOL     OW   45   0.438   0.392   1.499
   15SOL    HW1   46   0.520   0.336   1.508
   15SOL    HW2   47   0.357   0.334   1.503
   16SOL     OW   48   1.603   0.447   0.737
   16SOL    HW1   49   1.529   0.493   0.687
   16SOL    HW2   50   1.654   0.515   0.790
   17SOL     OW   51   0.231   1.713   0.483
   17SOL    HW1   52   0.265   1.790   0.537
   17SOL    HW2   53   0.275   1.713   0.393
   18SOL     OW   54   1.127   1.341   1.690
   18SOL    HW1   55   1.174   1.341   1.778
   18SOL    HW2   56   1.079   1.254   1.679
   19SOL     OW   57   0.230   1.434   0.538
   19SOL    HW1   58   0.204   1.530   0.538
   19SOL    HW2   59   0.159   1.380   0.583
   20SOL     OW   60   0.240   1.091   0.886
   20SOL    HW1   61   0.254   1.007   0.938
   20SOL    HW2   62   0.185   1.155   0.941
   21SOL     OW   63   0.620   1.786   1.439
   21SOL    HW1   64   0.528   1.769   1.474
   21SOL    HW2   65   0.648   1.878   1.465
   22SOL     OW   66   0.606   0.964   0.123
   22SOL    HW1   67   0.613   1.048   0.069
   22SOL    HW2   68   0.652   0.977   0.211
   23SOL     OW   69   1.594   0.114   1.480
   23SOL    HW1   70   1.576   0.181   1.408
   23SOL    HW2   71   1.591   0.160   1.569
   24SOL     OW   72   0.122   0.643   0.563
   24SOL    HW1   73   0.077   0.555   0.580
   24SOL    HW2   74   0.121   0.697   0.647
   25SOL     OW   75   1.842   1.767   0.359
   25SOL    HW1   76   1.896   1.738   0.439
   25SOL    HW2   77   1.872   1.857   0.330
   26SOL     OW   78   0.027   1.596   0.117
   26SOL    HW1   79   0.008   1.500   0.138
   26SOL    HW2   80  -0.006   1.654   0.192
   27SOL     OW   81   1.689   0.922   0.612
   27SOL    HW1   82   1.784   0.893   0.620
   27SOL    HW2   83   1.681   0.987   0.537
   28SOL     OW   84   1.641   1.108   0.432
   28SOL    HW1   85   1.727   1.110   0.380
   28SOL    HW2   86   1.655   1.155   0.520
   29SOL     OW   87   0.113   0.737   1.597
   29SOL    HW1   88   0.201   0.724   1.642
   29SOL    HW2   89   0.100   0.834   1.575
   30SOL     OW   90   0.613   1.365   0.726
   30SOL    HW1   91   0.564   1.278   0.735
   30SOL    HW2   92   0.590   1.408   0.639
   31SOL     OW   93   1.293   1.228   1.423
   31SOL    HW1   94   1.330   1.155   1.365
   31SOL    HW2   95   1.345   1.233   1.508
   32SOL     OW   96   0.809   0.004   0.502
   32SOL    HW1   97   0.849   0.095   0.493
   32SOL    HW2   98   0.709   0.012   0.508
   33SOL     OW   99   0.197   0.976   1.264
   33SOL    HW1  100   0.286   0.931   1.250
   33SOL    HW2  101   0.124   0.911   1.245
   34SOL     OW  102   1.525   0.999   0.190
   34SOL    HW1  103   1.462   0.923   0.203
   34SOL    HW2  104   1.573   1.017   0.276
   35SOL     OW  105   1.187   1.792   1.616
   35SOL    HW1  106   1.211   1.852   1.540
   35SOL    HW2  107   1.194   1.697   1.586
   36SOL     OW  108   0.317   0.251   1.801
   36SOL    HW1  109   0.388   0.322   1.807
   36SOL    HW2  110   0.229   0.290   1.829
   37SOL     OW  111   1.466   1.417   0.953
   37SOL    HW1  112   1.407   1.423   1.033
   37SOL    HW2  113   1.451   1.329   0.907
   38SOL     OW  114   1.667   1.714   0.572
   38SOL    HW1  115   1.626   1.691   0.484
   38SOL    HW2  116   1.649   1.640   0.637
   39SOL     OW  117   0.598   0.729   0.270
   39SOL    HW1  118   0.622   0.798   0.202
   39SOL    HW2  119   0.520   0.762   0.324
   40SOL     OW  120   1.281   0.345   0.944
   40SOL    HW1  121   1.195   0.295   0.931
   40SOL    HW2  122   1.343   0.291   1.000
   41SOL     OW  123   1.576   1.662   0.307
   41SOL    HW1  124   1.665   1.708   0.310
   41SOL    HW2  125   1.555   1.638   0.212
   42SOL     OW  126   0.807   0.605   1.465
   42SOL    HW1  127   0.760   0.602   1.554
   42SOL    HW2  128   0.756   0.550   1.399
   43SOL     OW  129   1.394   0.469   1.674
   43SOL    HW1  130   1.374   0.512   1.762
   43SOL    HW2  131   1.472   0.407   1.683
   44SOL     OW  132   0.973   0.890   1.572
   44SOL    HW1  133   1.019   0.806   1.543
   44SOL    HW2  134   0.917   0.924   1.497
   45SOL     OW  135   0.991   0.410   1.242
   45SOL    HW1  136   0.914   0.444   1.296
   45SOL    HW2  137   0.957   0.359   1.163
   46SOL     OW  138   1.041   0.701   0.429
   46SOL    HW1  139   1.067   0.697   0.525
   46SOL    HW2  140   0.956   0.650   0.415
   47SOL     OW  141   0.076   0.811   0.789
   47SOL    HW1  142   0.175   0.799   0.798
   47SOL    HW2  143   0.052   0.906   0.810
   48SOL     OW  144   0.130   1.821   1.571
   48SOL    HW1  145   0.120   1.806   1.670
   48SOL    HW2  146   0.044   1.857   1.535
   49SOL     OW  147   0.865   0.348   0.195
   49SOL    HW1  148   0.924   0.411   0.146
   49SOL    HW2  149   0.884   0.254   0.166
   50SOL     OW  150   1.719   0.585   1.831
   50SOL    HW1  151   1.693   0.674   1.795
   50SOL    HW2  152   1.717   0.517   1.758
   51SOL     OW  153   1.362   1.144   0.545
   51SOL    HW1  154   1.445   1.115   0.497
   51SOL    HW2  155   1.313   1.211   0.489
   52SOL     OW  156   0.550   0.196   0.885
   52SOL    HW1  157   0.545   0.191   0.985
   52SOL    HW2  158   0.552   0.292   0.856
   53SOL     OW  159   1.008   1.456   0.477
   53SOL    HW1  160   0.962   1.528   0.425
   53SOL    HW2  161   1.004   1.476   0.575
   54SOL     OW  162   0.351   1.801   0.853
   54SOL    HW1  163   0.401   1.715   0.859
   54SOL    HW2  164   0.416   1.878   0.850
   55SOL     OW  165   1.795   1.066   0.873
   55SOL    HW1  166   1.733   1.051   0.797
   55SOL    HW2  167   1.743   1.077   0.958
   56SOL     OW  168   1.227   1.550   1.506
   56SOL    HW1  169   1.233   1.473   1.570
   56SOL    HW2  170   1.175   1.524   1.426
   57SOL     OW  171   0.321   0.943   0.242
   57SOL    HW1  172   0.403   0.982   0.200
   57SOL    HW2  173   0.294   0.861   0.193
   58SOL     OW  174   1.458   0.735   0.728
   58SOL    HW1  175   1.453   0.670   0.803
   58SOL    HW2  176   1.538   0.794   0.741
   59SOL     OW  177   0.461   1.266   1.727
   59SOL    HW1  178   0.411   1.267   1.641
   59SOL    HW2  179   0.398   1.248   1.803
   60SOL     OW  180   1.111   1.776   0.237
   60SOL    HW1  181   1.051   1.714   0.287
   60SOL    HW2  182   1.142   1.732   0.152
   61SOL     OW  183   0.202   0.285   1.498
   61SOL    HW1  184   0.122   0.345   1.485
   61SOL    HW2  185   0.192   0.236   1.584
   62SOL     OW  186   1.632   1.377   0.081
   62SOL    HW1  187   1.600   1.471   0.071
   62SOL    HW2  188   1.556   1.314   0.069
   63SOL     OW  189   0.464   1.743   0.323
   63SOL    HW1  190   0.497   1.782   0.409
   63SOL    HW2  191   0.540   1.736   0.258
   64SOL     OW  192   1.400   0.107   0.426
   64SOL    HW1  193   1.376   0.070   0.336
   64SOL    HW2  194   1.499   0.123   0.430
   65SOL     OW  195   0.249   1.785   1.241
   65SOL    HW1  196   0.306   1.720   1.291
   65SOL    HW2  197   0.233   1.752   1.148
   66SOL     OW  198   0.940   1.698   0.904
   66SOL    HW1  199   1.020   1.641   0.925
   66SOL    HW2  200   0.891   1.658   0.827
   67SOL     OW  201   0.382   0.700   0.480
   67SOL    HW1  202   0.427   0.610   0.477
   67SOL    HW2  203   0.288   0.689   0.513
   68SOL     OW  204   1.547   0.222   1.729
   68SOL    HW1  205   1.542   0.259   1.821
   68SOL    HW2  206   1.475   0.153   1.717
   69SOL     OW  207   0.614   0.122   0.117
   69SOL    HW1  208   0.712   0.100   0.124
   69SOL    HW2  209   0.583   0.105   0.024
   70SOL     OW  210   0.781   0.264   1.749
   70SOL    HW1  211   0.848   0.203   1.792
   70SOL    HW2  212   0.708   0.283   1.814
   71SOL     OW  213   0.888   1.514   1.195
   71SOL    HW1  214   0.865   1.489   1.101
   71SOL    HW2  215   0.949   1.445   1.234
   72SOL     OW  216   1.351   0.590   1.433
   72SOL    HW1  217   1.379   0.547   1.518
   72SOL    HW2  218   1.376   0.686   1.434
   73SOL     OW  219   0.803   1.402   0.924
   73SOL    HW1  220   0.893   1.416   0.882
   73SOL    HW2  221   0.732   1.404   0.853
   74SOL     OW  222   0.922   0.503   0.899
   74SOL    HW1  223   0.897   0.494   0.803
   74SOL    HW2  224   0.970   0.421   0.930
   75SOL     OW  225   0.539   0.064   0.512
   75SOL    HW1  226   0.458   0.065   0.570
   75SOL    HW2  227   0.542   0.147   0.457
   76SOL     OW  228   1.434   1.188   0.041
   76SOL    HW1  229   1.466   1.112   0.098
   76SOL    HW2  230   1.342   1.215   0.071
   77SOL     OW  231   0.297   0.035   0.171
   77SOL    HW1  232   0.346   0.119   0.150
   77SOL    HW2  233   0.359  -0.030   0.216
   78SOL     OW  234   0.935   0.236   0.480
   78SOL    HW1  235   0.887   0.277   0.402
   78SOL    HW2  236   1.034   0.234   0.461
   79SOL     OW  237   1.076   0.683   1.464
   79SOL    HW1  238   0.996   0.622   1.467
   79SOL    HW2  239   1.157   0.630   1.440
   80SOL     OW  240   1.227   1.570   0.793
   80SOL    HW1  241   1.248   1.644   0.728
   80SOL    HW2  242   1.295   1.570   0.866
   81SOL     OW  243   0.459   1.152   0.741
   81SOL    HW1  244   0.388   1.125   0.806
   81SOL    HW2  245   0.433   1.124   0.648
   82SOL     OW  246   1.271   1.797   0.591
   82SOL    HW1  247   1.315   1.861   0.527
   82SOL    HW2  248   1.221   1.849   0.661
   83SOL     OW  249   1.032   0.549   0.016
   83SOL    HW1  250   0.991   0.631  -0.023
   83SOL    HW2  251   1.096   0.575   0.089
   84SOL     OW  252   0.078   0.556   1.386
   84SOL    HW1  253   0.170   0.555   1.345
   84SOL    HW2  254   0.072   0.630   1.453
   85SOL     OW  255   0.561   0.222   1.147
   85SOL    HW1  256   0.599   0.138   1.184
   85SOL    HW2  257   0.473   0.241   1.191
   86SOL     OW  258   0.866   0.454   0.642
   86SOL    HW1  259   0.834   0.526   0.580
   86SOL    HW2  260   0.890   0.373   0.589
   87SOL     OW  261   1.017   0.039   0.753
   87SOL    HW1  262   0.945   0.044   0.684
   87SOL    HW2  263   0.993  -0.030   0.822
   88SOL     OW  264   1.429   1.173   0.867
   88SOL    HW1  265   1.374   1.089   0.860
   88SOL    HW2  266   1.455   1.202   0.775
   89SOL     OW  267   1.466   0.590   0.992
   89SOL    HW1  268   1.436   0.495   0.999
   89SOL    HW2  269   1.539   0.606   1.058
   90SOL     OW  270   1.857   0.833   0.377
   90SOL    HW1  271   1.899   0.769   0.441
   90SOL    HW2  272   1.819   0.782   0.299
   91SOL     OW  273   0.488   1.385   0.174
   91SOL    HW1  274   0.401   1.370   0.221
   91SOL    HW2  275   0.471   1.411   0.079
   92SOL     OW  276   1.664   1.280   0.657
   92SOL    HW1  277   1.763   1.288   0.671
   92SOL    HW2  278   1.619   1.364   0.688
   93SOL     OW  279   1.390   0.575   0.078
   93SOL    HW1  280   1.336   0.554   0.159
   93SOL    HW2  281   1.481   0.534   0.087
   94SOL     OW  282   0.527   0.256   0.328
   94SOL    HW1  283   0.554   0.197   0.253
   94SOL    HW2  284   0.527   0.351   0.297
   95SOL     OW  285   1.754   1.223   1.588
   95SOL    HW1  286   1.845   1.184   1.575
   95SOL    HW2  287   1.762   1.319   1.612
   96SOL     OW  288   1.064   1.347   1.340
   96SOL    HW1  289   0.984   1.324   1.395
   96SOL    HW2  290   1.147   1.321   1.389
   97SOL     OW  291   1.592   1.629   1.625
   97SOL    HW1  292   1.619   1.663   1.535
   97SOL    HW2  293   1.671   1.591   1.671
   98SOL     OW  294   1.638   1.099   1.079
   98SOL    HW1  295   1.643   1.180   1.138
   98SOL    HW2  296   1.552   1.101   1.028
   99SOL     OW  297   0.915   0.089   1.402
   99SOL    HW1  298   0.940   0.069   1.307
   99SOL    HW2  299   0.987   0.145   1.444
  100SOL     OW  300   0.980   1.116   1.719
  100SOL    HW1  301   0.881   1.122   1.729
  100SOL    HW2  302   1.003   1.036   1.663
  101SOL     OW  303   0.705   1.050   0.368
  101SOL    HW1  304   0.691   1.057   0.467
  101SOL    HW2  305   0.789   0.999   0.350
  102SOL     OW  306   0.410   0.813   1.251
  102SOL    HW1  307   0.496   0.825   1.301
  102SOL    HW2  308   0.368   0.726   1.278
  103SOL     OW  309   1.274   0.386   1.262
  103SOL    HW1  310   1.295   0.460   1.326
  103SOL    HW2  311   1.185   0.403   1.219
  104SOL     OW  312   0.064   1.564   1.331
  104SOL    HW1  313   0.018   1.646   1.297
  104SOL    HW2  314   0.162   1.583   1.340
  105SOL     OW  315   0.367   1.100   0.501
  105SOL    HW1  316   0.360   1.183   0.445
  105SOL    HW2  317   0.371   1.020   0.441
  106SOL     OW  318   0.566   0.537   0.865
  106SOL    HW1  319   0.578   0.603   0.791
  106SOL    HW2  320   0.612   0.571   0.948
  107SOL     OW  321   1.252   1.348   0.388
  107SOL    HW1  322   1.302   1.425   0.428
  107SOL    HW2  323   1.157   1.350   0.420
  108SOL     OW  324   1.272   1.445   1.142
  108SOL    HW1  325   1.319   1.458   1.229
  108SOL    HW2  326   1.206   1.371   1.151
  109SOL     OW  327   1.582   0.639   0.472
  109SOL    HW1  328   1.551   0.700   0.545
  109SOL    HW2  329   1.632   0.691   0.403
  110SOL     OW  330   0.354   1.510   1.329
  110SOL    HW1  331   0.333   1.466   1.242
  110SOL    HW2  332   0.451   1.536   1.332
  111SOL     OW  333   0.402   0.751   1.598
  111SOL    HW1  334   0.470   0.806   1.551
  111SOL    HW2  335   0.442   0.663   1.625
  112SOL     OW  336   1.587   0.779   1.670
  112SOL    HW1  337   1.495   0.817   1.665
  112SOL    HW2  338   1.647   0.826   1.605
  113SOL     OW  339   1.013   0.105   1.770
  113SOL    HW1  340   1.019   0.190   1.718
  113SOL    HW2  341   1.045   0.029   1.713
  114SOL     OW  342   0.504   0.050   1.740
  114SOL    HW1  343   0.462  -0.007   1.670
  114SOL    HW2  344   0.438   0.119   1.772
  115SOL     OW  345   0.573   0.870   1.029
  115SOL    HW1  346   0.617   0.959   1.020
  115SOL    HW2  347   0.510   0.870   1.106
  116SOL     OW  348   1.360   0.862   1.045
  116SOL    HW1  349   1.285   0.862   0.979
  116SOL    HW2  350   1.397   0.770   1.054
  117SOL     OW  351   1.209   0.525   0.275
  117SOL    HW1  352   1.222   0.441   0.329
  117SOL    HW2  353   1.180   0.599   0.335
  118SOL     OW  354   0.307   0.213   1.231
  118SOL    HW1  355   0.284   0.250   1.321
  118SOL    HW2  356   0.277   0.118   1.225
  119SOL     OW  357   0.037   1.310   1.282
  119SOL    HW1  358   0.090   1.261   1.350
  119SOL    HW2  359   0.059   1.408   1.287
  120SOL     OW  360   0.732   0.634   1.064
  120SOL    HW1  361   0.791   0.608   0.988
  120SOL    HW2  362   0.704   0.730   1.053
  121SOL     OW  363   1.728   0.935   1.854
  121SOL    HW1  364   1.682   0.928   1.765
  121SOL    HW2  365   1.666   0.979   1.920
  122SOL     OW  366   0.307   0.063   0.618
  122SOL    HW1  367   0.296   0.157   0.651
  122SOL    HW2  368   0.302   0.000   0.695
  123SOL     OW  369   1.622   0.367   0.374
  123SOL    HW1  370   1.624   0.291   0.438
  123SOL    HW2  371   1.574   0.444   0.414
  124SOL     OW  372   1.023   0.766   0.966
  124SOL    HW1  373   1.038   0.787   1.062
  124SOL    HW2  374   0.993   0.671   0.957
  125SOL     OW  375   0.980   1.573   1.700
  125SOL    HW1  376   0.960   1.617   1.612
  125SOL    HW2  377   1.019   1.482   1.684
  126SOL     OW  378   1.859   1.518   1.605
  126SOL    HW1  379   1.873   1.545   1.510
  126SOL    HW2  380   1.942   1.540   1.658
  127SOL     OW  381   0.350   0.898   1.804
  127SOL    HW1  382   0.426   0.942   1.852
  127SOL    HW2  383   0.385   0.851   1.722
  128SOL     OW  384   1.540   0.274   0.125
  128SOL    HW1  385   1.479   0.199   0.148
  128SOL    HW2  386   1.562   0.326   0.208
  129SOL     OW  387   1.303   0.838   0.042
  129SOL    HW1  388   1.337   0.745   0.057
  129SOL    HW2  389   1.321   0.865  -0.053
  130SOL     OW  390   1.068   1.333   0.849
  130SOL    HW1  391   1.075   1.249   0.794
  130SOL    HW2  392   1.130   1.402   0.813
  131SOL     OW  393   0.319   0.810   0.949
  131SOL    HW1  394   0.412   0.846   0.954
  131SOL    HW2  395   0.313   0.725   1.001
  132SOL     OW  396   0.339   0.509   1.006
  132SOL    HW1  397   0.287   0.426   0.989
  132SOL    HW2  398   0.416   0.514   0.942
  133SOL     OW  399   1.138   0.380   1.678
  133SOL    HW1  400   1.093   0.443   1.742
  133SOL    HW2  401   1.231   0.411   1.661
  134SOL     OW  402   1.160   0.207   1.477
  134SOL    HW1  403   1.160   0.271   1.554
  134SOL    HW2  404   1.188   0.255   1.394
  135SOL     OW  405   0.008   1.326   0.200
  135SOL    HW1  406  -0.085   1.347   0.169
  135SOL    HW2  407   0.018   1.227   0.213
  136SOL     OW  408   0.088   1.801   0.927
  136SOL    HW1  409   0.046   1.715   0.900
  136SOL    HW2  410   0.182   1.804   0.893
  137SOL     OW  411   0.504   1.568   0.910
  137SOL    HW1  412   0.570   1.642   0.919
  137SOL    HW2  413   0.548   1.489   0.868
  138SOL     OW  414   1.002   0.796   1.238
  138SOL    HW1  415   1.043   0.764   1.324
  138SOL    HW2  416   0.906   0.769   1.235
  139SOL     OW  417   0.040   0.544   1.114
  139SOL    HW1  418   0.125   0.511   1.073
  139SOL    HW2  419   0.053   0.559   1.212
  140SOL     OW  420   0.189   0.520   1.722
  140SOL    HW1  421   0.248   0.480   1.652
  140SOL    HW2  422   0.131   0.591   1.681
  141SOL     OW  423   1.369   0.950   1.660
  141SOL    HW1  424   1.408   1.039   1.680
  141SOL    HW2  425   1.379   0.930   1.563
  142SOL     OW  426   0.815   0.572   0.325
  142SOL    HW1  427   0.822   0.483   0.279
  142SOL    HW2  428   0.721   0.606   0.317
  143SOL     OW  429   1.657   0.604   1.206
  143SOL    HW1  430   1.619   0.535   1.268
  143SOL    HW2  431   1.739   0.568   1.162
  144SOL     OW  432   0.252   1.564   1.744
  144SOL    HW1  433   0.222   1.621   1.820
  144SOL    HW2  434   0.245   1.467   1.770
  145SOL     OW  435   0.671   0.464   1.269
  145SOL    HW1  436   0.637   0.375   1.239
  145SOL    HW2  437   0.697   0.518   1.189
  146SOL     OW  438   0.930   1.678   1.465
  146SOL    HW1  439   0.906   1.660   1.370
  146SOL    HW2  440   0.960   1.772   1.475
  147SOL     OW  441   0.473   0.500   0.191
  147SOL    HW1  442   0.534   0.580   0.195
  147SOL    HW2  443   0.378   0.531   0.198
  148SOL     OW  444   0.159   1.137   1.466
  148SOL    HW1  445   0.181   1.076   1.542
  148SOL    HW2  446   0.169   1.088   1.380
  149SOL     OW  447   1.302   0.855   0.309
  149SOL    HW1  448   1.216   0.824   0.351
  149SOL    HW2  449   1.298   0.841   0.210
  150SOL     OW  450   1.759   1.747   1.154
  150SOL    HW1  451   1.820   1.777   1.081
  150SOL    HW2  452   1.721   1.658   1.132
  151SOL     OW  453   1.252   1.731   1.128
  151SOL    HW1  454   1.336   1.736   1.074
  151SOL    HW2  455   1.229   1.635   1.146
  152SOL     OW  456   0.083   1.258   1.022
  152SOL    HW1  457   0.078   1.257   1.122
  152SOL    HW2  458   0.000   1.217   0.984
  153SOL     OW  459   0.688   1.662   1.716
  153SOL    HW1  460   0.632   1.743   1.725
  153SOL    HW2  461   0.740   1.666   1.630
  154SOL     OW  462   0.903   0.086   0.133
  154SOL    HW1  463   0.954   0.087   0.047
  154SOL    HW2  464   0.959   0.044   0.204
  155SOL     OW  465   1.726   0.135   0.523
  155SOL    HW1  466   1.799   0.118   0.456
  155SOL    HW2  467   1.695   0.048   0.561
  156SOL     OW  468   1.388   1.573   0.477
  156SOL    HW1  469   1.455   1.585   0.403
  156SOL    HW2  470   1.348   1.662   0.500
  157SOL     OW  471   0.130   1.794   1.851
  157SOL    HW1  472   0.089   1.720   1.904
  157SOL    HW2  473   0.194   1.845   1.909
  158SOL     OW  474   1.280   0.927   0.672
  158SOL    HW1  475   1.340   0.846   0.674
  158SOL    HW2  476   1.320   0.996   0.612
  159SOL     OW  477   0.830   1.273   1.422
  159SOL    HW1  478   0.825   1.306   1.517
  159SOL    HW2  479   0.744   1.292   1.376
  160SOL     OW  480   0.672   1.616   0.154
  160SOL    HW1  481   0.681   1.626   0.055
  160SOL    HW2  482   0.632   1.527   0.175
  161SOL     OW  483   1.650   1.720   1.394
  161SOL    HW1  484   1.703   1.730   1.310
  161SOL    HW2  485   1.623   1.810   1.428
  162SOL     OW  486   1.841   0.175   0.963
  162SOL    HW1  487   1.880   0.090   0.927
  162SOL    HW2  488   1.743   0.177   0.944
  163SOL     OW  489   0.263   0.326   0.720
  163SOL    HW1  490   0.184   0.377   0.686
  163SOL    HW2  491   0.254   0.311   0.818
  164SOL     OW  492   1.194   1.612   0.031
  164SOL    HW1  493   1.200   1.519   0.068
  164SOL    HW2  494   1.135   1.612  -0.049
  165SOL     OW  495   0.822   1.002   1.372
  165SOL    HW1  496   0.862   1.001   1.280
  165SOL    HW2  497   0.832   1.094   1.412
  166SOL     OW  498   0.916   0.910   0.291
  166SOL    HW1  499   0.979   0.948   0.223
  166SOL    HW2  500   0.956   0.827   0.330
  167SOL     OW  501   1.504   1.607   0.044
  167SOL    HW1  502   1.412   1.644   0.051
  167SOL    HW2  503   1.542   1.627  -0.046
  168SOL     OW  504   0.372   1.288   1.490
  168SOL    HW1  505   0.359   1.381   1.456
  168SOL    HW2  506   0.288   1.236   1.477
  169SOL     OW  507   1.614   1.292   1.289
  169SOL    HW1  508   1.674   1.295   1.369
  169SOL    HW2  509   1.539   1.356   1.302
  170SOL     OW  510   1.039   1.098   0.696
  170SOL    HW1  511   0.969   1.051   0.750
  170SOL    HW2  512   1.098   1.030   0.653
  171SOL     OW  513   1.014   0.236   0.971
  171SOL    HW1  514   1.006   0.200   0.878
  171SOL    HW2  515   1.012   0.160   1.036
  172SOL     OW  516   0.590   1.487   0.491
  172SOL    HW1  517   0.632   1.429   0.421
  172SOL    HW2  518   0.546   1.566   0.447
  173SOL     OW  519   1.709   0.385   1.381
  173SOL    HW1  520   1.782   0.454   1.385
  173SOL    HW2  521   1.737   0.310   1.322
  174SOL     OW  522   0.255   1.348   0.290
  174SOL    HW1  523   0.159   1.349   0.263
  174SOL    HW2  524   0.267   1.401   0.374
  175SOL     OW  525   0.105   1.013   1.726
  175SOL    HW1  526   0.028   0.980   1.780
  175SOL    HW2  527   0.190   0.983   1.768
  176SOL     OW  528   0.672   0.203   1.489
  176SOL    HW1  529   0.762   0.187   1.449
  176SOL    HW2  530   0.680   0.208   1.588
  177SOL     OW  531   0.075   0.345   0.033
  177SOL    HW1  532  -0.017   0.317   0.004
  177SOL    HW2  533   0.106   0.422  -0.023
  178SOL     OW  534   1.440   0.856   1.398
  178SOL    HW1  535   1.383   0.908   1.335
  178SOL    HW2  536   1.536   0.868   1.374
  179SOL     OW  537   0.072   0.166   0.318
  179SOL    HW1  538   0.055   0.249   0.264
  179SOL    HW2  539   0.162   0.129   0.296
  180SOL     OW  540   1.183   1.335   0.119
  180SOL    HW1  541   1.084   1.324   0.121
  180SOL    HW2  542   1.217   1.350   0.212
  181SOL     OW  543   0.613   0.842   1.431
  181SOL    HW1  544   0.669   0.923   1.414
  181SOL    HW2  545   0.672   0.762   1.434
  182SOL     OW  546   1.493   1.767   0.959
  182SOL    HW1  547   1.526   1.831   0.890
  182SOL    HW2  548   1.559   1.761   1.034
  183SOL     OW  549   0.716   0.565   1.708
  183SOL    HW1  550   0.735   0.630   1.782
  183SOL    HW2  551   0.776   0.485   1.717
  184SOL     OW  552   1.450   1.220   1.633
  184SOL    HW1  553   1.441   1.210   1.732
  184SOL    HW2  554   1.546   1.213   1.607
  185SOL     OW  555   0.390   1.741   1.560
  185SOL    HW1  556   0.299   1.782   1.558
  185SOL    HW2  557   0.383   1.647   1.592
  186SOL     OW  558   1.674   0.883   1.254
  186SOL    HW1  559   1.647   0.794   1.217
  186SOL    HW2  560   1.675   0.951   1.181
  187SOL     OW  561   1.225   0.325   0.449
  187SOL    HW1  562   1.290   0.251   0.438
  187SOL    HW2  563   1.245   0.375   0.533
  188SOL     OW  564   0.594   0.745   0.652
  188SOL    HW1  565   0.644   0.830   0.633
  188SOL    HW2  566   0.506   0.747   0.604
  189SOL     OW  567   1.777   0.342   1.642
  189SOL    HW1  568   1.760   0.373   1.548
  189SOL    HW2  569   1.693   0.305   1.680
  190SOL     OW  570   1.730   0.934   1.517
  190SOL    HW1  571   1.768   1.025   1.532
  190SOL    HW2  572   1.722   0.917   1.418
  191SOL     OW  573   0.859   1.374   0.016
  191SOL    HW1  574   0.813   1.389   0.104
  191SOL    HW2  575   0.903   1.459  -0.014
  192SOL     OW  576   0.661   1.790   0.953
  192SOL    HW1  577   0.615   1.878   0.940
  192SOL    HW2  578   0.760   1.802   0.946
  193SOL     OW  579   0.859   0.956   0.861
  193SOL    HW1  580   0.913   0.887   0.909
  193SOL    HW2  581   0.827   1.025   0.927
  194SOL     OW  582   1.083   0.984   0.087
  194SOL    HW1  583   1.060   1.037   0.005
  194SOL    HW2  584   1.164   0.928   0.068
  195SOL     OW  585   1.861   1.569   0.851
  195SOL    HW1  586   1.790   1.557   0.781
  195SOL    HW2  587   1.862   1.490   0.911
  196SOL     OW  588   0.221   1.314   1.844
  196SOL    HW1  589   0.156   1.241   1.823
  196SOL    HW2  590   0.225   1.328   1.942
  197SOL     OW  591   0.079   1.240   0.653
  197SOL    HW1  592   0.078   1.193   0.741
  197SOL    HW2  593   0.161   1.212   0.602
  198SOL     OW  594   0.672   1.391   1.624
  198SOL    HW1  595   0.594   1.341   1.662
  198SOL    HW2  596   0.669   1.486   1.655
  199SOL     OW  597   1.824   0.192   1.227
  199SOL    HW1  598   1.820   0.102   1.271
  199SOL    HW2  599   1.827   0.181   1.128
  200SOL     OW  600   0.428   0.424   0.520
  200SOL    HW1  601   0.458   0.352   0.458
  200SOL    HW2  602   0.389   0.384   0.603
  201SOL     OW  603   1.705   1.487   1.104
  201SOL    HW1  604   1.612   1.462   1.077
  201SOL    HW2  605   1.731   1.437   1.186
  202SOL     OW  606   0.317   0.547   1.280
  202SOL    HW1  607   0.355   0.488   1.352
  202SOL    HW2  608   0.357   0.521   1.192
  203SOL     OW  609   0.812   1.586   0.687
  203SOL    HW1  610   0.844   1.596   0.593
  203SOL    HW2  611   0.733   1.524   0.689
  204SOL     OW  612   1.424   0.214   1.112
  204SOL    HW1  613   1.476   0.149   1.167
  204SOL    HW2  614   1.375   0.277   1.173
  205SOL     OW  615   1.001   0.034   1.154
  205SOL    HW1  616   0.938  -0.038   1.123
  205SOL    HW2  617   1.094  -0.002   1.154
  206SOL     OW  618   0.770   1.330   0.301
  206SOL    HW1  619   0.724   1.243   0.318
  206SOL    HW2  620   0.861   1.327   0.342
  207SOL     OW  621   0.618   1.567   1.284
  207SOL    HW1  622   0.613   1.649   1.341
  207SOL    HW2  623   0.707   1.564   1.239
  208SOL     OW  624   1.352   0.052   0.168
  208SOL    HW1  625   1.387   0.011   0.084
  208SOL    HW2  626   1.262   0.014   0.188
  209SOL     OW  627   1.300   0.453   0.691
  209SOL    HW1  628   1.241   0.533   0.695
  209SOL    HW2  629   1.315   0.418   0.784
  210SOL     OW  630   1.593   0.221   0.882
  210SOL    HW1  631   1.509   0.220   0.936
  210SOL    HW2  632   1.595   0.304   0.826
  211SOL     OW  633   0.039   1.077   0.300
  211SOL    HW1  634   0.138   1.066   0.291
  211SOL    HW2  635  -0.001   0.991   0.332
  212SOL     OW  636   0.875   1.646   0.337
  212SOL    HW1  637   0.798   1.611   0.283
  212SOL    HW2  638   0.843   1.717   0.399
  213SOL     OW  639   0.230   0.628   1.975
  213SOL    HW1  640   0.137   0.626   2.012
  213SOL    HW2  641   0.231   0.589   1.883
  214SOL     OW  642   1.755   0.607   2.093
  214SOL    HW1  643   1.743   0.594   1.994
  214SOL    HW2  644   1.725   0.526   2.142
  215SOL     OW  645   0.231   1.713   2.345
  215SOL    HW1  646   0.265   1.790   2.399
  215SOL    HW2  647   0.275   1.713   2.255
  216SOL     OW  648   0.606   0.964   1.985
  216SOL    HW1  649   0.613   1.048   1.931
  216SOL    HW2  650   0.652   0.977   2.073
  217SOL     OW  651   0.027   1.596   1.979
  217SOL    HW1  652   0.008   1.500   2.000
  217SOL    HW2  653  -0.006   1.654   2.054
  218SOL     OW  654   1.641   1.108   2.294
  218SOL    HW1  655   1.727   1.110   2.242
  218SOL    HW2  656   1.655   1.155   2.382
  219SOL     OW  657   1.525   0.999   2.052
  219SOL    HW1  658   1.462   0.923   2.065
  219SOL    HW2  659   1.573   1.017   2.138
  220SOL     OW  660   0.598   0.729   2.132
  220SOL    HW1  661   0.622   0.798   2.064
  220SOL    HW2  662   0.520   0.762   2.186
  221SOL     OW  663   0.865   0.348   2.057
  221SOL    HW1  664   0.924   0.411   2.008
  221SOL    HW2  665   0.884   0.254   2.028
  222SOL     OW  666   0.321   0.943   2.104
  222SOL    HW1  667   0.403   0.982   2.062
  222SOL    HW2  668   0.294   0.861   2.055
  223SOL     OW  669   1.111   1.776   2.099
  223SOL    HW1  670   1.051   1.714   2.149
  223SOL    HW2  671   1.142   1.732   2.014
  224SOL     OW  672   1.632   1.377   1.943
  224SOL    HW1  673   1.600   1.471   1.933
  224SOL    HW2  674   1.556   1.314   1.931
  225SOL     OW  675   0.464   1.743   2.185
  225SOL    HW1  676   0.497   1.782   2.271
  225SOL    HW2  677   0.540   1.736   2.120
  226SOL     OW  678   0.614   0.122   1.979
  226SOL    HW1  679   0.712   0.100   1.986
  226SOL    HW2  680   0.583   0.105   1.886
  227SOL     OW  681   1.434   1.188   1.903
  227SOL    HW1  682   1.466   1.112   1.960
  227SOL    HW2  683   1.342   1.215   1.933
  228SOL     OW  684   0.297   0.035   2.033
  228SOL    HW1  685   0.346   0.119   2.012
  228SOL    HW2  686   0.359  -0.030   2.078
  229SOL     OW  687   1.032   0.549   1.878
  229SOL    HW1  688   0.991   0.631   1.839
  229SOL    HW2  689   1.096   0.575   1.951
  230SOL     OW  690   1.857   0.833   2.239
  230SOL    HW1  691   1.899   0.769   2.303
  230SOL    HW2  692   1.819   0.782   2.161
  231SOL     OW  693   0.488   1.385   2.036
  231SOL    HW1  694   0.401   1.370   2.083
  231SOL    HW2  695   0.471   1.411   1.941
  232SOL     OW  696   1.390   0.575   1.940
  232SOL    HW1  697   1.336   0.554   2.021
  232SOL    HW2  698   1.481   0.534   1.949
  233SOL     OW  699   0.527   0.256   2.190
  233SOL    HW1  700   0.554   0.197   2.115
  233SOL    HW2  701   0.527   0.351   2.159
  234SOL     OW  702   1.209   0.525   2.137
  234SOL    HW1  703   1.222   0.441   2.191
  234SOL    HW2  704   1.180   0.599   2.197
  235SOL     OW  705   1.540   0.274   1.987
  235SOL    HW1  706   1.479   0.199   2.010
  235SOL    HW2  707   1.562   0.326   2.070
  236SOL     OW  708   1.303   0.838   1.904
  236SOL    HW1  709   1.337   0.745   1.919
  236SOL    HW2  710   1.321   0.865   1.809
  237SOL     OW  711   0.008   1.326   2.062
  237SOL    HW1  712  -0.085   1.347   2.031
  237SOL    HW2  713   0.018   1.227   2.075
  238SOL     OW  714   0.815   0.572   2.187
  238SOL    HW1  715   0.822   0.483   2.141
  238SOL    HW2  716   0.721   0.606   2.179
  239SOL     OW  717   0.473   0.500   2.053
  239SOL    HW1  718   0.534   0.580   2.057
  239SOL    HW2  719   0.378   0.531   2.060
  240SOL     OW  720   1.726   0.135   2.385
  240SOL    HW1  721   1.799   0.118   2.318
  240SOL    HW2  722   1.695   0.048   2.423
  241SOL     OW  723   0.672   1.616   2.016
  241SOL    HW1  724   0.681   1.626   1.917
  241SOL    HW2  725   0.632   1.527   2.037
  242SOL     OW  726   1.194   1.612   1.893
  242SOL    HW1  727   1.200   1.519   1.930
  242SOL    HW2  728   1.135   1.612   1.813
  243SOL     OW  729   0.916   0.910   2.153
  243SOL    HW1  730   0.979   0.948   2.085
  243SOL    HW2  731   0.956   0.827   2.192
  244SOL     OW  732   1.504   1.607   1.906
  244SOL    HW1  733   1.412   1.644   1.913
  244SOL    HW2  734   1.542   1.627   1.816
  245SOL     OW  735   0.255   1.348   2.152
  245SOL    HW1  736   0.159   1.349   2.125
  245SOL    HW2  737   0.267   1.401   2.236
  246SOL     OW  738   0.075   0.345   1.895
  246SOL    HW1  739  -0.017   0.317   1.866
  246SOL    HW2  740   0.106   0.422   1.839
  247SOL     OW  741   0.072   0.166   2.180
  247SOL    HW1  742   0.055   0.249   2.126
  247SOL    HW2  743   0.162   0.129   2.158
  248SOL     OW  744   1.183   1.335   1.981
  248SOL    HW1  745   1.084   1.324   1.983
  248SOL    HW2  746   1.217   1.350   2.074
  249SOL     OW  747   1.225   0.325   2.311
  249SOL    HW1  748   1.290   0.251   2.300
  249SOL    HW2  749   1.245   0.375   2.395
  250SOL     OW  750   0.859   1.374   1.878
  250SOL    HW1  751   0.813   1.389   1.966
  250SOL    HW2  752   0.903   1.459   1.848
  251SOL     OW  753   1.083   0.984   1.949
  251SOL    HW1  754   1.060   1.037   1.867
  251SOL    HW2  755   1.164   0.928   1.930
  252SOL     OW  756   1.352   0.052   2.030
  252SOL    HW1  757   1.387   0.011   1.946
  252SOL    HW2  758   1.262   0.014   2.050
  253SOL     OW  759   0.039   1.077   2.162
  253SOL    HW1  760   0.138   1.066   2.153
  253SOL    HW2  761  -0.001   0.991   2.194
  254SOL     OW  762   0.875   1.646   2.199
  254SOL    HW1  763   0.798   1.611   2.145
  254SOL    HW2  764   0.843   1.717   2.261
  255SOL     OW  765   0.230   2.490   0.113
  255SOL    HW1  766   0.137   2.488   0.150
  255SOL    HW2  767   0.231   2.451   0.021
  256SOL     OW  768   0.225   2.137   0.996
  256SOL    HW1  769   0.260   2.120   1.088
  256SOL    HW2  770   0.137   2.092   0.984
  257SOL     OW  771   0.019   2.230   0.647
  257SOL    HW1  772  -0.063   2.273   0.686
  257SOL    HW2  773  -0.009   2.157   0.584
  258SOL     OW  774   0.438   2.254   1.499
  258SOL    HW1  775   0.520   2.198   1.508
  258SOL    HW2  776   0.357   2.196   1.503
  259SOL     OW  777   1.594   1.976   1.480
  259SOL    HW1  778   1.576   2.043   1.408
  259SOL    HW2  779   1.591   2.022   1.569
  260SOL     OW  780   0.809   1.866   0.502
  260SOL    HW1  781   0.849   1.957   0.493
  260SOL    HW2  782   0.709   1.874   0.508
  261SOL     OW  783   0.317   2.113   1.801
  261SOL    HW1  784   0.388   2.184   1.807
  261SOL    HW2  785   0.229   2.152   1.829
  262SOL     OW  786   1.281   2.207   0.944
  262SOL    HW1  787   1.195   2.157   0.931
  262SOL    HW2  788   1.343   2.153   1.000
  263SOL     OW  789   0.550   2.058   0.885
  263SOL    HW1  790   0.545   2.053   0.985
  263SOL    HW2  791   0.552   2.154   0.856
  264SOL     OW  792   0.202   2.147   1.498
  264SOL    HW1  793   0.122   2.207   1.485
  264SOL    HW2  794   0.192   2.098   1.584
  265SOL     OW  795   1.400   1.969   0.426
  265SOL    HW1  796   1.376   1.932   0.336
  265SOL    HW2  797   1.499   1.985   0.430
  266SOL     OW  798   1.547   2.084   1.729
  266SOL    HW1  799   1.542   2.121   1.821
  266SOL    HW2  800   1.475   2.015   1.717
  267SOL     OW  801   0.614   1.984   0.117
  267SOL    HW1  802   0.712   1.962   0.124
  267SOL    HW2  803   0.583   1.967   0.024
  268SOL     OW  804   0.781   2.126   1.749
  268SOL    HW1  805   0.848   2.065   1.792
  268SOL    HW2  806   0.708   2.145   1.814
  269SOL     OW  807   1.351   2.452   1.433
  269SOL    HW1  808   1.379   2.409   1.518
  269SOL    HW2  809   1.376   2.548   1.434
  270SOL     OW  810   0.539   1.926   0.512
  270SOL    HW1  811   0.458   1.927   0.570
  270SOL    HW2  812   0.542   2.009   0.457
  271SOL     OW  813   0.935   2.098   0.480
  271SOL    HW1  814   0.887   2.139   0.402
  271SOL    HW2  815   1.034   2.096   0.461
  272SOL     OW  816   0.561   2.084   1.147
  272SOL    HW1  817   0.599   2.000   1.184
  272SOL    HW2  818   0.473   2.103   1.191
  273SOL     OW  819   1.017   1.901   0.753
  273SOL    HW1  820   0.945   1.906   0.684
  273SOL    HW2  821   0.993   1.832   0.822
  274SOL     OW  822   0.527   2.118   0.328
  274SOL    HW1  823   0.554   2.059   0.253
  274SOL    HW2  824   0.527   2.213   0.297
  275SOL     OW  825   0.915   1.951   1.402
  275SOL    HW1  826   0.940   1.931   1.307
  275SOL    HW2  827   0.987   2.007   1.444
  276SOL     OW  828   1.013   1.967   1.770
  276SOL    HW1  829   1.019   2.052   1.718
  276SOL    HW2  830   1.045   1.891   1.713
  277SOL     OW  831   0.504   1.912   1.740
  277SOL    HW1  832   0.462   1.855   1.670
  277SOL    HW2  833   0.438   1.981   1.772
  278SOL     OW  834   1.209   2.387   0.275
  278SOL    HW1  835   1.222   2.303   0.329
  278SOL    HW2  836   1.180   2.461   0.335
  279SOL     OW  837   0.307   2.075   1.231
  279SOL    HW1  838   0.284   2.112   1.321
  279SOL    HW2  839   0.277   1.980   1.225
  280SOL     OW  840   0.732   2.496   1.064
  280SOL    HW1  841   0.791   2.470   0.988
  280SOL    HW2  842   0.704   2.592   1.053
  281SOL     OW  843   0.307   1.925   0.618
  281SOL    HW1  844   0.296   2.019   0.651
  281SOL    HW2  845   0.302   1.862   0.695
  282SOL     OW  846   1.540   2.136   0.125
  282SOL    HW1  847   1.479   2.061   0.148
  282SOL    HW2  848   1.562   2.188   0.208
  283SOL     OW  849   0.339   2.371   1.006
  283SOL    HW1  850   0.287   2.288   0.989
  283SOL    HW2  851   0.416   2.376   0.942
  284SOL     OW  852   1.160   2.069   1.477
  284SOL    HW1  853   1.160   2.133   1.554
  284SOL    HW2  854   1.188   2.117   1.394
  285SOL     OW  855   0.903   1.948   0.133
  285SOL    HW1  856   0.954   1.949   0.047
  285SOL    HW2  857   0.959   1.906   0.204
  286SOL     OW  858   1.726   1.997   0.523
  286SOL    HW1  859   1.799   1.980   0.456
  286SOL    HW2  860   1.695   1.910   0.561
  287SOL     OW  861   1.841   2.037   0.963
  287SOL    HW1  862   1.880   1.952   0.927
  287SOL    HW2  863   1.743   2.039   0.944
  288SOL     OW  864   1.014   2.098   0.971
  288SOL    HW1  865   1.006   2.062   0.878
  288SOL    HW2  866   1.012   2.022   1.036
  289SOL     OW  867   0.672   2.065   1.489
  289SOL    HW1  868   0.762   2.049   1.449
  289SOL    HW2  869   0.680   2.070   1.588
  290SOL     OW  870   0.072   2.028   0.318
  290SOL    HW1  871   0.055   2.111   0.264
  290SOL    HW2  872   0.162   1.991   0.296
  291SOL     OW  873   1.225   2.187   0.449
  291SOL    HW1  874   1.290   2.113   0.438
  291SOL    HW2  875   1.245   2.237   0.533
  292SOL     OW  876   1.777   2.204   1.642
  292SOL    HW1  877   1.760   2.235   1.548
  292SOL    HW2  878   1.693   2.167   1.680
  293SOL     OW  879   1.824   2.054   1.227
  293SOL    HW1  880   1.820   1.964   1.271
  293SOL    HW2  881   1.827   2.043   1.128
  294SOL     OW  882   1.424   2.076   1.112
  294SOL    HW1  883   1.476   2.011   1.167
  294SOL    HW2  884   1.375   2.139   1.173
  295SOL     OW  885   1.001   1.896   1.154
  295SOL    HW1  886   0.938   1.824   1.123
  295SOL    HW2  887   1.094   1.860   1.154
  296SOL     OW  888   1.352   1.914   0.168
  296SOL    HW1  889   1.387   1.873   0.084
  296SOL    HW2  890   1.262   1.876   0.188
  297SOL     OW  891   1.300   2.315   0.691
  297SOL    HW1  892   1.241   2.395   0.695
  297SOL    HW2  893   1.315   2.280   0.784
  298SOL     OW  894   1.593   2.083   0.882
  298SOL    HW1  895   1.509   2.082   0.936
  298SOL    HW2  896   1.595   2.166   0.826
  299SOL     OW  897   1.755   2.469   2.093
  299SOL    HW1  898   1.743   2.456   1.994
  299SOL    HW2  899   1.725   2.388   2.142
  300SOL     OW  900   0.865   2.210   2.057
  300SOL    HW1  901   0.924   2.273   2.008
  300SOL    HW2  902   0.884   2.116   2.028
  301SOL     OW  903   0.614   1.984   1.979
  301SOL    HW1  904   0.712   1.962   1.986
  301SOL    HW2  905   0.583   1.967   1.886
  302SOL     OW  906   0.297   1.897   2.033
  302SOL    HW1  907   0.346   1.981   2.012
  302SOL    HW2  908   0.359   1.832   2.078
  303SOL     OW  909   0.527   2.118   2.190
  303SOL    HW1  910   0.554   2.059   2.115
  303SOL    HW2  911   0.527   2.213   2.159
  304SOL     OW  912   1.209   2.387   2.137
  304SOL    HW1  913   1.222   2.303   2.191
  304SOL    HW2  914   1.180   2.461   2.197
  305SOL     OW  915   0.307   1.925   2.480
  305SOL    HW1  916   0.296   2.019   2.513
  305SOL    HW2  917   0.302   1.862   2.557
  306SOL     OW  918   1.540   2.136   1.987
  306SOL    HW1  919   1.479   2.061   2.010
  306SOL    HW2  920   1.562   2.188   2.070
  307SOL     OW  921   0.815   2.434   2.187
  307SOL    HW1  922   0.822   2.345   2.141
  307SOL    HW2  923   0.721   2.468   2.179
  308SOL     OW  924   1.726   1.997   2.385
  308SOL    HW1  925   1.799   1.980   2.318
  308SOL    HW2  926   1.695   1.910   2.423
  309SOL     OW  927   0.075   2.207   1.895
  309SOL    HW1  928  -0.017   2.179   1.866
  309SOL    HW2  929   0.106   2.284   1.839
  310SOL     OW  930   0.072   2.028   2.180
  310SOL    HW1  931   0.055   2.111   2.126
  310SOL    HW2  932   0.162   1.991   2.158
  311SOL     OW  933   1.352   1.914   2.030
  311SOL    HW1  934   1.387   1.873   1.946
  311SOL    HW2  935   1.262   1.876   2.050
  312SOL     OW  936   2.092   0.628   0.113
  312SOL    HW1  937   1.999   0.626   0.150
  312SOL    HW2  938   2.093   0.589   0.021
  313SOL     OW  939   2.087   0.275   0.996
  313SOL    HW1  940   2.122   0.258   1.088
  313SOL    HW2  941   1.999   0.230   0.984
  314SOL     OW  942   1.881   0.368   0.647
  314SOL    HW1  943   1.799   0.411   0.686
  314SOL    HW2  944   1.853   0.295   0.584
  315SOL     OW  945   2.547   1.012   0.665
  315SOL    HW1  946   2.616   0.996   0.735
  315SOL    HW2  947   2.474   1.069   0.703
  316SOL     OW  948   2.197   1.435   1.061
  316SOL    HW1  949   2.119   1.404   1.008
  316SOL    HW2  950   2.255   1.493   1.004
  317SOL     OW  951   2.093   1.713   0.483
  317SOL    HW1  952   2.127   1.790   0.537
  317SOL    HW2  953   2.137   1.713   0.393
  318SOL     OW  954   2.092   1.434   0.538
  318SOL    HW1  955   2.066   1.530   0.538
  318SOL    HW2  956   2.021   1.380   0.583
  319SOL     OW  957   2.102   1.091   0.886
  319SOL    HW1  958   2.116   1.007   0.938
  319SOL    HW2  959   2.047   1.155   0.941
  320SOL     OW  960   1.984   0.643   0.563
  320SOL    HW1  961   1.939   0.555   0.580
  320SOL    HW2  962   1.983   0.697   0.647
  321SOL     OW  963   1.889   1.596   0.117
  321SOL    HW1  964   1.870   1.500   0.138
  321SOL    HW2  965   1.856   1.654   0.192
  322SOL     OW  966   1.975   0.737   1.597
  322SOL    HW1  967   2.063   0.724   1.642
  322SOL    HW2  968   1.962   0.834   1.575
  323SOL     OW  969   2.059   0.976   1.264
  323SOL    HW1  970   2.148   0.931   1.250
  323SOL    HW2  971   1.986   0.911   1.245
  324SOL     OW  972   1.938   0.811   0.789
  324SOL    HW1  973   2.037   0.799   0.798
  324SOL    HW2  974   1.914   0.906   0.810
  325SOL     OW  975   1.992   1.821   1.571
  325SOL    HW1  976   1.982   1.806   1.670
  325SOL    HW2  977   1.906   1.857   1.535
  326SOL     OW  978   2.064   0.285   1.498
  326SOL    HW1  979   1.984   0.345   1.485
  326SOL    HW2  980   2.054   0.236   1.584
  327SOL     OW  981   1.940   0.556   1.386
  327SOL    HW1  982   2.032   0.555   1.345
  327SOL    HW2  983   1.934   0.630   1.453
  328SOL     OW  984   1.926   1.564   1.331
  328SOL    HW1  985   1.880   1.646   1.297
  328SOL    HW2  986   2.024   1.583   1.340
  329SOL     OW  987   2.169   0.213   1.231
  329SOL    HW1  988   2.146   0.250   1.321
  329SOL    HW2  989   2.139   0.118   1.225
  330SOL     OW  990   1.899   1.310   1.282
  330SOL    HW1  991   1.952   1.261   1.350
  330SOL    HW2  992   1.921   1.408   1.287
  331SOL     OW  993   2.181   0.810   0.949
  331SOL    HW1  994   2.274   0.846   0.954
  331SOL    HW2  995   2.175   0.725   1.001
  332SOL     OW  996   1.870   1.326   0.200
  332SOL    HW1  997   1.777   1.347   0.169
  332SOL    HW2  998   1.880   1.227   0.213
  333SOL     OW  999   1.950   1.801   0.927
  333SOL    HW1 1000   1.908   1.715   0.900
  333SOL    HW2 1001   2.044   1.804   0.893
  334SOL     OW 1002   2.366   1.568   0.910
  334SOL    HW1 1003   2.432   1.642   0.919
  334SOL    HW2 1004   2.410   1.489   0.868
  335SOL     OW 1005   1.902   0.544   1.114
  335SOL    HW1 1006   1.987   0.511   1.073
  335SOL    HW2 1007   1.915   0.559   1.212
  336SOL     OW 1008   2.051   0.520   1.722
  336SOL    HW1 1009   2.110   0.480   1.652
  336SOL    HW2 1010   1.993   0.591   1.681
  337SOL     OW 1011   2.114   1.564   1.744
  337SOL    HW1 1012   2.084   1.621   1.820
  337SOL    HW2 1013   2.107   1.467   1.770
  338SOL     OW 1014   2.021   1.137   1.466
  338SOL    HW1 1015   2.043   1.076   1.542
  338SOL    HW2 1016   2.031   1.088   1.380
  339SOL     OW 1017   1.945   1.258   1.022
  339SOL    HW1 1018   1.940   1.257   1.122
  339SOL    HW2 1019   1.862   1.217   0.984
  340SOL     OW 1020   1.992   1.794   1.851
  340SOL    HW1 1021   1.951   1.720   1.904
  340SOL    HW2 1022   2.056   1.845   1.909
  341SOL     OW 1023   2.234   1.288   1.490
  341SOL    HW1 1024   2.221   1.381   1.456
  341SOL    HW2 1025   2.150   1.236   1.477
  342SOL     OW 1026   1.967   1.013   1.726
  342SOL    HW1 1027   1.890   0.980   1.780
  342SOL    HW2 1028   2.052   0.983   1.768
  343SOL     OW 1029   1.937   0.345   0.033
  343SOL    HW1 1030   1.845   0.317   0.004
  343SOL    HW2 1031   1.968   0.422  -0.023
  344SOL     OW 1032   1.934   0.166   0.318
  344SOL    HW1 1033   1.917   0.249   0.264
  344SOL    HW2 1034   2.024   0.129   0.296
  345SOL     OW 1035   2.475   0.842   1.431
  345SOL    HW1 1036   2.531   0.923   1.414
  345SOL    HW2 1037   2.534   0.762   1.434
  346SOL     OW 1038   1.941   1.240   0.653
  346SOL    HW1 1039   1.940   1.193   0.741
  346SOL    HW2 1040   2.023   1.212   0.602
  347SOL     OW 1041   1.901   1.077   0.300
  347SOL    HW1 1042   2.000   1.066   0.291
  347SOL    HW2 1043   1.861   0.991   0.332
  348SOL     OW 1044   2.092   0.628   1.975
  348SOL    HW1 1045   1.999   0.626   2.012
  348SOL    HW2 1046   2.093   0.589   1.883
  349SOL     OW 1047   2.093   1.713   2.345
  349SOL    HW1 1048   2.127   1.790   2.399
  349SOL    HW2 1049   2.137   1.713   2.255
  350SOL     OW 1050   1.889   1.596   1.979
  350SOL    HW1 1051   1.870   1.500   2.000
  350SOL    HW2 1052   1.856   1.654   2.054
  351SOL     OW 1053   2.169   0.063   2.480
  351SOL    HW1 1054   2.158   0.157   2.513
  351SOL    HW2 1055   2.164   0.000   2.557
  352SOL     OW 1056   1.870   1.326   2.062
  352SOL    HW1 1057   1.777   1.347   2.031
  352SOL    HW2 1058   1.880   1.227   2.075
  353SOL     OW 1059   1.937   0.345   1.895
  353SOL    HW1 1060   1.845   0.317   1.866
  353SOL    HW2 1061   1.968   0.422   1.839
  354SOL     OW 1062   1.934   0.166   2.180
  354SOL    HW1 1063   1.917   0.249   2.126
  354SOL    HW2 1064   2.024   0.129   2.158
  355SOL     OW 1065   1.901   1.077   2.162
  355SOL    HW1 1066   2.000   1.066   2.153
  355SOL    HW2 1067   1.861   0.991   2.194
  356SOL     OW 1068   2.092   2.490   0.113
  356SOL    HW1 1069   1.999   2.488   0.150
  356SOL    HW2 1070   2.093   2.451   0.021
  357SOL     OW 1071   2.087   2.137   0.996
  357SOL    HW1 1072   2.122   2.120   1.088
  357SOL    HW2 1073   1.999   2.092   0.984
  358SOL     OW 1074   1.881   2.230   0.647
  358SOL    HW1 1075   1.799   2.273   0.686
  358SOL    HW2 1076   1.853   2.157   0.584
  359SOL     OW 1077   2.064   2.147   1.498
  359SOL    HW1 1078   1.984   2.207   1.485
  359SOL    HW2 1079   2.054   2.098   1.584
  360SOL     OW 1080   2.401   1.926   0.512
  360SOL    HW1 1081   2.320   1.927   0.570
  360SOL    HW2 1082   2.404   2.009   0.457
  361SOL     OW 1083   2.169   2.075   1.231
  361SOL    HW1 1084   2.146   2.112   1.321
  361SOL    HW2 1085   2.139   1.980   1.225
  362SOL     OW 1086   2.169   1.925   0.618
  362SOL    HW1 1087   2.158   2.019   0.651
  362SOL    HW2 1088   2.164   1.862   0.695
  363SOL     OW 1089   2.201   2.371   1.006
  363SOL    HW1 1090   2.149   2.288   0.989
  363SOL    HW2 1091   2.278   2.376   0.942
  364SOL     OW 1092   1.934   2.028   0.318
  364SOL    HW1 1093   1.917   2.111   0.264
  364SOL    HW2 1094   2.024   1.991   0.296
  365SOL     OW 1095   2.092   2.490   1.975
  365SOL    HW1 1096   1.999   2.488   2.012
  365SOL    HW2 1097   2.093   2.451   1.883
  366SOL     OW 1098   2.401   1.926   2.374
  366SOL    HW1 1099   2.320   1.927   2.432
  366SOL    HW2 1100   2.404   2.009   2.319
  367SOL     OW 1101   2.159   1.897   2.033
  367SOL    HW1 1102   2.208   1.981   2.012
  367SOL    HW2 1103   2.221   1.832   2.078
  368SOL     OW 1104   2.169   1.925   2.480
  368SOL    HW1 1105   2.158   2.019   2.513
  368SOL    HW2 1106   2.164   1.862   2.557
  369SOL     OW 1107   1.937   2.207   1.895
  369SOL    HW1 1108   1.845   2.179   1.866
  369SOL    HW2 1109   1.968   2.284   1.839
  370SOL     OW 1110   1.934   2.028   2.180
  370SOL    HW1 1111   1.917   2.111   2.126
  370SOL    HW2 1112   2.024   1.991   2.158
   2.23654   2.23654   2.23654
