; mobley_7239499_GMX.itp created by acpype (v: 2023.10.27) on Thu May 14 13:40:09 2026

[ atomtypes ]
;name   bond_type     mass     charge   ptype   sigma         epsilon       Amb
 ca       ca          0.00000  0.00000   A     3.31521e-01   4.13379e-01 ; 1.86  0.0988
 os       os          0.00000  0.00000   A     3.15610e-01   3.03758e-01 ; 1.77  0.0726
 cl       cl          0.00000  0.00000   A     3.46595e-01   1.10374e+00 ; 1.95  0.2638
 ha       ha          0.00000  0.00000   A     2.62548e-01   6.73624e-02 ; 1.47  0.0161

[ moleculetype ]
;name            nrexcl
 mobley_7239499   3

[ atoms ]
;   nr  type  resi  res  atom  cgnr     charge      mass       ; qtot   bond_type
     1   ca     1   MOL    C1    1    -0.126000     12.01000 ; qtot -0.126
     2   ca     1   MOL    C2    2    -0.126000     12.01000 ; qtot -0.252
     3   ca     1   MOL    C3    3    -0.119000     12.01000 ; qtot -0.371
     4   ca     1   MOL    C4    4    -0.180300     12.01000 ; qtot -0.551
     5   ca     1   MOL    C5    5    -0.178300     12.01000 ; qtot -0.730
     6   ca     1   MOL    C6    6    -0.183300     12.01000 ; qtot -0.913
     7   ca     1   MOL    C7    7    -0.126000     12.01000 ; qtot -1.039
     8   ca     1   MOL    C8    8     0.210700     12.01000 ; qtot -0.828
     9   ca     1   MOL    C9    9     0.211700     12.01000 ; qtot -0.616
    10   ca     1   MOL   C10   10     0.221700     12.01000 ; qtot -0.395
    11   ca     1   MOL   C11   11     0.218700     12.01000 ; qtot -0.176
    12   ca     1   MOL   C12   12    -0.039900     12.01000 ; qtot -0.216
    13   os     1   MOL    O1   13    -0.392800     16.00000 ; qtot -0.609
    14   os     1   MOL    O2   14    -0.379800     16.00000 ; qtot -0.989
    15   cl     1   MOL   CL1   15    -0.060400     35.45000 ; qtot -1.049
    16   ha     1   MOL    H1   16     0.140000      1.00800 ; qtot -0.909
    17   ha     1   MOL    H2   17     0.141000      1.00800 ; qtot -0.768
    18   ha     1   MOL    H3   18     0.145000      1.00800 ; qtot -0.623
    19   ha     1   MOL    H4   19     0.155000      1.00800 ; qtot -0.468
    20   ha     1   MOL    H5   20     0.157000      1.00800 ; qtot -0.311
    21   ha     1   MOL    H6   21     0.158000      1.00800 ; qtot -0.153
    22   ha     1   MOL    H7   22     0.153000      1.00800 ; qtot 0.000

[ bonds ]
;   ai     aj funct   r             k
     1      2   1    1.3986e-01    2.9644e+05 ;     C1 - C2    
     1      4   1    1.3986e-01    2.9644e+05 ;     C1 - C4    
     1     16   1    1.0860e-01    3.0183e+05 ;     C1 - H1    
     2      5   1    1.3986e-01    2.9644e+05 ;     C2 - C5    
     2     17   1    1.0860e-01    3.0183e+05 ;     C2 - H2    
     3      6   1    1.3986e-01    2.9644e+05 ;     C3 - C6    
     3      7   1    1.3986e-01    2.9644e+05 ;     C3 - C7    
     3     18   1    1.0860e-01    3.0183e+05 ;     C3 - H3    
     4      8   1    1.3986e-01    2.9644e+05 ;     C4 - C8    
     4     19   1    1.0860e-01    3.0183e+05 ;     C4 - H4    
     5      9   1    1.3986e-01    2.9644e+05 ;     C5 - C9    
     5     20   1    1.0860e-01    3.0183e+05 ;     C5 - H5    
     6     10   1    1.3986e-01    2.9644e+05 ;     C6 - C10   
     6     21   1    1.0860e-01    3.0183e+05 ;     C6 - H6    
     7     12   1    1.3986e-01    2.9644e+05 ;     C7 - C12   
     7     22   1    1.0860e-01    3.0183e+05 ;     C7 - H7    
     8      9   1    1.3986e-01    2.9644e+05 ;     C8 - C9    
     8     13   1    1.3688e-01    2.8731e+05 ;     C8 - O1    
     9     14   1    1.3688e-01    2.8731e+05 ;     C9 - O2    
    10     11   1    1.3986e-01    2.9644e+05 ;    C10 - C11   
    10     13   1    1.3688e-01    2.8731e+05 ;    C10 - O1    
    11     12   1    1.3986e-01    2.9644e+05 ;    C11 - C12   
    11     14   1    1.3688e-01    2.8731e+05 ;    C11 - O2    
    12     15   1    1.7572e-01    1.5730e+05 ;    C12 - CL1   

[ pairs ]
;   ai     aj    funct
     1      9      1 ;     C1 - C9    
     1     13      1 ;     C1 - O1    
     1     20      1 ;     C1 - H5    
     2      8      1 ;     C2 - C8    
     2     14      1 ;     C2 - O2    
     2     19      1 ;     C2 - H4    
     3     11      1 ;     C3 - C11   
     3     13      1 ;     C3 - O1    
     3     15      1 ;     C3 - CL1   
     4      5      1 ;     C4 - C5    
     4     10      1 ;     C4 - C10   
     4     14      1 ;     C4 - O2    
     4     17      1 ;     C4 - H2    
     5     11      1 ;     C5 - C11   
     5     13      1 ;     C5 - O1    
     6      8      1 ;     C6 - C8    
     6     12      1 ;     C6 - C12   
     6     14      1 ;     C6 - O2    
     6     22      1 ;     C6 - H7    
     7     10      1 ;     C7 - C10   
     7     14      1 ;     C7 - O2    
     7     21      1 ;     C7 - H6    
     8     11      1 ;     C8 - C11   
     8     20      1 ;     C8 - H5    
     9     10      1 ;     C9 - C10   
     9     12      1 ;     C9 - C12   
     9     17      1 ;     C9 - H2    
     9     19      1 ;     C9 - H4    
    10     15      1 ;    C10 - CL1   
    10     18      1 ;    C10 - H3    
    11     21      1 ;    C11 - H6    
    11     22      1 ;    C11 - H7    
    12     13      1 ;    C12 - O1    
    12     18      1 ;    C12 - H3    
    13     14      1 ;     O1 - O2    
    13     19      1 ;     O1 - H4    
    13     21      1 ;     O1 - H6    
    14     15      1 ;     O2 - CL1   
    14     20      1 ;     O2 - H5    
    15     22      1 ;    CL1 - H7    
    16      5      1 ;     H1 - C5    
    16      8      1 ;     H1 - C8    
    16     17      1 ;     H1 - H2    
    16     19      1 ;     H1 - H4    
    17     20      1 ;     H2 - H5    
    18     21      1 ;     H3 - H6    
    18     22      1 ;     H3 - H7    

[ angles ]
;   ai     aj     ak    funct   theta         cth
     1      2      5      1    1.2002e+02    5.3279e+02 ;     C1 - C2     - C5    
     1      2     17      1    1.1988e+02    3.7572e+02 ;     C1 - C2     - H2    
     1      4      8      1    1.2002e+02    5.3279e+02 ;     C1 - C4     - C8    
     1      4     19      1    1.1988e+02    3.7572e+02 ;     C1 - C4     - H4    
     2      1      4      1    1.2002e+02    5.3279e+02 ;     C2 - C1     - C4    
     2      1     16      1    1.1988e+02    3.7572e+02 ;     C2 - C1     - H1    
     2      5      9      1    1.2002e+02    5.3279e+02 ;     C2 - C5     - C9    
     2      5     20      1    1.1988e+02    3.7572e+02 ;     C2 - C5     - H5    
     3      6     10      1    1.2002e+02    5.3279e+02 ;     C3 - C6     - C10   
     3      6     21      1    1.1988e+02    3.7572e+02 ;     C3 - C6     - H6    
     3      7     12      1    1.2002e+02    5.3279e+02 ;     C3 - C7     - C12   
     3      7     22      1    1.1988e+02    3.7572e+02 ;     C3 - C7     - H7    
     4      1     16      1    1.1988e+02    3.7572e+02 ;     C4 - C1     - H1    
     4      8      9      1    1.2002e+02    5.3279e+02 ;     C4 - C8     - C9    
     4      8     13      1    1.1911e+02    6.6107e+02 ;     C4 - C8     - O1    
     5      2     17      1    1.1988e+02    3.7572e+02 ;     C5 - C2     - H2    
     5      9      8      1    1.2002e+02    5.3279e+02 ;     C5 - C9     - C8    
     5      9     14      1    1.1911e+02    6.6107e+02 ;     C5 - C9     - O2    
     6      3      7      1    1.2002e+02    5.3279e+02 ;     C6 - C3     - C7    
     6      3     18      1    1.1988e+02    3.7572e+02 ;     C6 - C3     - H3    
     6     10     11      1    1.2002e+02    5.3279e+02 ;     C6 - C10    - C11   
     6     10     13      1    1.1911e+02    6.6107e+02 ;     C6 - C10    - O1    
     7      3     18      1    1.1988e+02    3.7572e+02 ;     C7 - C3     - H3    
     7     12     11      1    1.2002e+02    5.3279e+02 ;     C7 - C12    - C11   
     7     12     15      1    1.1938e+02    5.3605e+02 ;     C7 - C12    - CL1   
     8      4     19      1    1.1988e+02    3.7572e+02 ;     C8 - C4     - H4    
     8      9     14      1    1.1911e+02    6.6107e+02 ;     C8 - C9     - O2    
     8     13     10      1    1.1987e+02    7.5036e+02 ;     C8 - O1     - C10   
     9      5     20      1    1.1988e+02    3.7572e+02 ;     C9 - C5     - H5    
     9      8     13      1    1.1911e+02    6.6107e+02 ;     C9 - C8     - O1    
     9     14     11      1    1.1987e+02    7.5036e+02 ;     C9 - O2     - C11   
    10      6     21      1    1.1988e+02    3.7572e+02 ;    C10 - C6     - H6    
    10     11     12      1    1.2002e+02    5.3279e+02 ;    C10 - C11    - C12   
    10     11     14      1    1.1911e+02    6.6107e+02 ;    C10 - C11    - O2    
    11     10     13      1    1.1911e+02    6.6107e+02 ;    C11 - C10    - O1    
    11     12     15      1    1.1938e+02    5.3605e+02 ;    C11 - C12    - CL1   
    12      7     22      1    1.1988e+02    3.7572e+02 ;    C12 - C7     - H7    
    12     11     14      1    1.1911e+02    6.6107e+02 ;    C12 - C11    - O2    

[ dihedrals ] ; propers
; for gromacs 4.5 or higher, using funct 9
;    i      j      k      l   func   phase     kd      pn
     1      2      5      9      9   180.00  15.16700   2 ;     C1-    C2-    C5-    C9
     1      2      5     20      9   180.00  15.16700   2 ;     C1-    C2-    C5-    H5
     1      4      8      9      9   180.00  15.16700   2 ;     C1-    C4-    C8-    C9
     1      4      8     13      9   180.00  15.16700   2 ;     C1-    C4-    C8-    O1
     2      1      4      8      9   180.00  15.16700   2 ;     C2-    C1-    C4-    C8
     2      1      4     19      9   180.00  15.16700   2 ;     C2-    C1-    C4-    H4
     2      5      9      8      9   180.00  15.16700   2 ;     C2-    C5-    C9-    C8
     2      5      9     14      9   180.00  15.16700   2 ;     C2-    C5-    C9-    O2
     3      6     10     11      9   180.00  15.16700   2 ;     C3-    C6-   C10-   C11
     3      6     10     13      9   180.00  15.16700   2 ;     C3-    C6-   C10-    O1
     3      7     12     11      9   180.00  15.16700   2 ;     C3-    C7-   C12-   C11
     3      7     12     15      9   180.00  15.16700   2 ;     C3-    C7-   C12-   CL1
     4      1      2      5      9   180.00  15.16700   2 ;     C4-    C1-    C2-    C5
     4      1      2     17      9   180.00  15.16700   2 ;     C4-    C1-    C2-    H2
     4      8      9      5      9   180.00  15.16700   2 ;     C4-    C8-    C9-    C5
     4      8      9     14      9   180.00  15.16700   2 ;     C4-    C8-    C9-    O2
     4      8     13     10      9   180.00   3.76560   2 ;     C4-    C8-    O1-   C10
     5      9      8     13      9   180.00  15.16700   2 ;     C5-    C9-    C8-    O1
     5      9     14     11      9   180.00   3.76560   2 ;     C5-    C9-    O2-   C11
     6      3      7     12      9   180.00  15.16700   2 ;     C6-    C3-    C7-   C12
     6      3      7     22      9   180.00  15.16700   2 ;     C6-    C3-    C7-    H7
     6     10     11     12      9   180.00  15.16700   2 ;     C6-   C10-   C11-   C12
     6     10     11     14      9   180.00  15.16700   2 ;     C6-   C10-   C11-    O2
     6     10     13      8      9   180.00   3.76560   2 ;     C6-   C10-    O1-    C8
     7      3      6     10      9   180.00  15.16700   2 ;     C7-    C3-    C6-   C10
     7      3      6     21      9   180.00  15.16700   2 ;     C7-    C3-    C6-    H6
     7     12     11     10      9   180.00  15.16700   2 ;     C7-   C12-   C11-   C10
     7     12     11     14      9   180.00  15.16700   2 ;     C7-   C12-   C11-    O2
     8      9      5     20      9   180.00  15.16700   2 ;     C8-    C9-    C5-    H5
     8      9     14     11      9   180.00   3.76560   2 ;     C8-    C9-    O2-   C11
     8     13     10     11      9   180.00   3.76560   2 ;     C8-    O1-   C10-   C11
     9      5      2     17      9   180.00  15.16700   2 ;     C9-    C5-    C2-    H2
     9      8      4     19      9   180.00  15.16700   2 ;     C9-    C8-    C4-    H4
     9      8     13     10      9   180.00   3.76560   2 ;     C9-    C8-    O1-   C10
     9     14     11     10      9   180.00   3.76560   2 ;     C9-    O2-   C11-   C10
     9     14     11     12      9   180.00   3.76560   2 ;     C9-    O2-   C11-   C12
    10      6      3     18      9   180.00  15.16700   2 ;    C10-    C6-    C3-    H3
    10     11     12     15      9   180.00  15.16700   2 ;    C10-   C11-   C12-   CL1
    11     10      6     21      9   180.00  15.16700   2 ;    C11-   C10-    C6-    H6
    11     12      7     22      9   180.00  15.16700   2 ;    C11-   C12-    C7-    H7
    12      7      3     18      9   180.00  15.16700   2 ;    C12-    C7-    C3-    H3
    12     11     10     13      9   180.00  15.16700   2 ;    C12-   C11-   C10-    O1
    13      8      4     19      9   180.00  15.16700   2 ;     O1-    C8-    C4-    H4
    13      8      9     14      9   180.00  15.16700   2 ;     O1-    C8-    C9-    O2
    13     10      6     21      9   180.00  15.16700   2 ;     O1-   C10-    C6-    H6
    13     10     11     14      9   180.00  15.16700   2 ;     O1-   C10-   C11-    O2
    14      9      5     20      9   180.00  15.16700   2 ;     O2-    C9-    C5-    H5
    14     11     12     15      9   180.00  15.16700   2 ;     O2-   C11-   C12-   CL1
    15     12      7     22      9   180.00  15.16700   2 ;    CL1-   C12-    C7-    H7
    16      1      2      5      9   180.00  15.16700   2 ;     H1-    C1-    C2-    C5
    16      1      2     17      9   180.00  15.16700   2 ;     H1-    C1-    C2-    H2
    16      1      4      8      9   180.00  15.16700   2 ;     H1-    C1-    C4-    C8
    16      1      4     19      9   180.00  15.16700   2 ;     H1-    C1-    C4-    H4
    17      2      5     20      9   180.00  15.16700   2 ;     H2-    C2-    C5-    H5
    18      3      6     21      9   180.00  15.16700   2 ;     H3-    C3-    C6-    H6
    18      3      7     22      9   180.00  15.16700   2 ;     H3-    C3-    C7-    H7

[ dihedrals ] ; impropers
; treated as propers in GROMACS to use correct AMBER analytical function
;    i      j      k      l   func   phase     kd      pn
     1      5      2     17      4   180.00   4.60240   2 ;     C1-    C5-    C2-    H2
     1      8      4     19      4   180.00   4.60240   2 ;     C1-    C8-    C4-    H4
     2      9      5     20      4   180.00   4.60240   2 ;     C2-    C9-    C5-    H5
     3     10      6     21      4   180.00   4.60240   2 ;     C3-   C10-    C6-    H6
     3     12      7     22      4   180.00   4.60240   2 ;     C3-   C12-    C7-    H7
     4      9      8     13      4   180.00   4.60240   2 ;     C4-    C9-    C8-    O1
     5      8      9     14      4   180.00   4.60240   2 ;     C5-    C8-    C9-    O2
     6      7      3     18      4   180.00   4.60240   2 ;     C6-    C7-    C3-    H3
     6     11     10     13      4   180.00   4.60240   2 ;     C6-   C11-   C10-    O1
     7     11     12     15      4   180.00   4.60240   2 ;     C7-   C11-   C12-   CL1
    10     12     11     14      4   180.00   4.60240   2 ;    C10-   C12-   C11-    O2
    16      1      4      2      4   180.00   4.60240   2 ;     H1-    C1-    C4-    C2
