; mobley_5471704_GMX.itp created by acpype (v: 2023.10.27) on Thu May 14 13:34:25 2026

[ atomtypes ]
;name   bond_type     mass     charge   ptype   sigma         epsilon       Amb
 c        c           0.00000  0.00000   A     3.31521e-01   4.13379e-01 ; 1.86  0.0988
 c3       c3          0.00000  0.00000   A     3.39771e-01   4.51035e-01 ; 1.91  0.1078
 o        o           0.00000  0.00000   A     3.04812e-01   6.12119e-01 ; 1.71  0.1463
 os       os          0.00000  0.00000   A     3.15610e-01   3.03758e-01 ; 1.77  0.0726
 hc       hc          0.00000  0.00000   A     2.60018e-01   8.70272e-02 ; 1.46  0.0208
 h1       h1          0.00000  0.00000   A     2.42200e-01   8.70272e-02 ; 1.36  0.0208

[ moleculetype ]
;name            nrexcl
 mobley_5471704   3

[ atoms ]
;   nr  type  resi  res  atom  cgnr     charge      mass       ; qtot   bond_type
     1    c     1   MOL    C1    1     0.631098     12.01000 ; qtot 0.631
     2   c3     1   MOL    C2    2    -0.150100     12.01000 ; qtot 0.481
     3   c3     1   MOL    C3    3    -0.094100     12.01000 ; qtot 0.387
     4   c3     1   MOL    C4    4    -0.094100     12.01000 ; qtot 0.293
     5   c3     1   MOL    C5    5    -0.081400     12.01000 ; qtot 0.211
     6   c3     1   MOL    C6    6     0.139400     12.01000 ; qtot 0.351
     7   c3     1   MOL    C7    7    -0.064700     12.01000 ; qtot 0.286
     8    o     1   MOL    O1    8    -0.546000     16.00000 ; qtot -0.260
     9   os     1   MOL    O2    9    -0.445900     16.00000 ; qtot -0.706
    10   hc     1   MOL    H1   10     0.075700      1.00800 ; qtot -0.630
    11   hc     1   MOL    H2   11     0.075700      1.00800 ; qtot -0.554
    12   hc     1   MOL    H3   12     0.075700      1.00800 ; qtot -0.479
    13   hc     1   MOL    H4   13     0.036367      1.00800 ; qtot -0.442
    14   hc     1   MOL    H5   14     0.036367      1.00800 ; qtot -0.406
    15   hc     1   MOL    H6   15     0.036367      1.00800 ; qtot -0.370
    16   hc     1   MOL    H7   16     0.036367      1.00800 ; qtot -0.333
    17   hc     1   MOL    H8   17     0.036367      1.00800 ; qtot -0.297
    18   hc     1   MOL    H9   18     0.036367      1.00800 ; qtot -0.261
    19   hc     1   MOL   H10   19     0.052700      1.00800 ; qtot -0.208
    20   hc     1   MOL   H11   20     0.052700      1.00800 ; qtot -0.155
    21   h1     1   MOL   H12   21     0.053700      1.00800 ; qtot -0.101
    22   h1     1   MOL   H13   22     0.053700      1.00800 ; qtot -0.048
    23   hc     1   MOL   H14   23     0.047700      1.00800 ; qtot -0.000

[ bonds ]
;   ai     aj funct   r             k
     1      2   1    1.5270e-01    1.9652e+05 ;     C1 - C2    
     1      8   1    1.2190e-01    4.9421e+05 ;     C1 - O1    
     1      9   1    1.3621e-01    2.9398e+05 ;     C1 - O2    
     2     10   1    1.0962e-01    2.8891e+05 ;     C2 - H1    
     2     11   1    1.0962e-01    2.8891e+05 ;     C2 - H2    
     2     12   1    1.0962e-01    2.8891e+05 ;     C2 - H3    
     3      7   1    1.5354e-01    1.9154e+05 ;     C3 - C7    
     3     13   1    1.0962e-01    2.8891e+05 ;     C3 - H4    
     3     14   1    1.0962e-01    2.8891e+05 ;     C3 - H5    
     3     15   1    1.0962e-01    2.8891e+05 ;     C3 - H6    
     4      7   1    1.5354e-01    1.9154e+05 ;     C4 - C7    
     4     16   1    1.0962e-01    2.8891e+05 ;     C4 - H7    
     4     17   1    1.0962e-01    2.8891e+05 ;     C4 - H8    
     4     18   1    1.0962e-01    2.8891e+05 ;     C4 - H9    
     5      6   1    1.5354e-01    1.9154e+05 ;     C5 - C6    
     5      7   1    1.5354e-01    1.9154e+05 ;     C5 - C7    
     5     19   1    1.0962e-01    2.8891e+05 ;     C5 - H10   
     5     20   1    1.0962e-01    2.8891e+05 ;     C5 - H11   
     6      9   1    1.4273e-01    2.3620e+05 ;     C6 - O2    
     6     21   1    1.0969e-01    2.8804e+05 ;     C6 - H12   
     6     22   1    1.0969e-01    2.8804e+05 ;     C6 - H13   
     7     23   1    1.0962e-01    2.8891e+05 ;     C7 - H14   

[ pairs ]
;   ai     aj    funct
     1      5      1 ;     C1 - C5    
     1     21      1 ;     C1 - H12   
     1     22      1 ;     C1 - H13   
     2      6      1 ;     C2 - C6    
     3      6      1 ;     C3 - C6    
     3     16      1 ;     C3 - H7    
     3     17      1 ;     C3 - H8    
     3     18      1 ;     C3 - H9    
     3     19      1 ;     C3 - H10   
     3     20      1 ;     C3 - H11   
     4      6      1 ;     C4 - C6    
     4     13      1 ;     C4 - H4    
     4     14      1 ;     C4 - H5    
     4     15      1 ;     C4 - H6    
     4     19      1 ;     C4 - H10   
     4     20      1 ;     C4 - H11   
     5     13      1 ;     C5 - H4    
     5     14      1 ;     C5 - H5    
     5     15      1 ;     C5 - H6    
     5     16      1 ;     C5 - H7    
     5     17      1 ;     C5 - H8    
     5     18      1 ;     C5 - H9    
     6     23      1 ;     C6 - H14   
     7      9      1 ;     C7 - O2    
     7     21      1 ;     C7 - H12   
     7     22      1 ;     C7 - H13   
     8      6      1 ;     O1 - C6    
     8     10      1 ;     O1 - H1    
     8     11      1 ;     O1 - H2    
     8     12      1 ;     O1 - H3    
     9     10      1 ;     O2 - H1    
     9     11      1 ;     O2 - H2    
     9     12      1 ;     O2 - H3    
     9     19      1 ;     O2 - H10   
     9     20      1 ;     O2 - H11   
    13     23      1 ;     H4 - H14   
    14     23      1 ;     H5 - H14   
    15     23      1 ;     H6 - H14   
    16     23      1 ;     H7 - H14   
    17     23      1 ;     H8 - H14   
    18     23      1 ;     H9 - H14   
    19     21      1 ;    H10 - H12   
    19     22      1 ;    H10 - H13   
    19     23      1 ;    H10 - H14   
    20     21      1 ;    H11 - H12   
    20     22      1 ;    H11 - H13   
    20     23      1 ;    H11 - H14   

[ angles ]
;   ai     aj     ak    funct   theta         cth
     1      2     10      1    1.0895e+02    3.6510e+02 ;     C1 - C2     - H1    
     1      2     11      1    1.0895e+02    3.6510e+02 ;     C1 - C2     - H2    
     1      2     12      1    1.0895e+02    3.6510e+02 ;     C1 - C2     - H3    
     1      9      6      1    1.1582e+02    7.4835e+02 ;     C1 - O2     - C6    
     2      1      8      1    1.2290e+02    6.3973e+02 ;     C2 - C1     - O1    
     2      1      9      1    1.1080e+02    6.5245e+02 ;     C2 - C1     - O2    
     3      7      4      1    1.1263e+02    5.0099e+02 ;     C3 - C7     - C4    
     3      7      5      1    1.1263e+02    5.0099e+02 ;     C3 - C7     - C5    
     3      7     23      1    1.0968e+02    3.6208e+02 ;     C3 - C7     - H14   
     4      7      5      1    1.1263e+02    5.0099e+02 ;     C4 - C7     - C5    
     4      7     23      1    1.0968e+02    3.6208e+02 ;     C4 - C7     - H14   
     5      6      9      1    1.0762e+02    6.4802e+02 ;     C5 - C6     - O2    
     5      6     21      1    1.0959e+02    3.6217e+02 ;     C5 - C6     - H12   
     5      6     22      1    1.0959e+02    3.6217e+02 ;     C5 - C6     - H13   
     5      7     23      1    1.0968e+02    3.6208e+02 ;     C5 - C7     - H14   
     6      5      7      1    1.1263e+02    5.0099e+02 ;     C6 - C5     - C7    
     6      5     19      1    1.0968e+02    3.6208e+02 ;     C6 - C5     - H10   
     6      5     20      1    1.0968e+02    3.6208e+02 ;     C6 - C5     - H11   
     7      3     13      1    1.0968e+02    3.6208e+02 ;     C7 - C3     - H4    
     7      3     14      1    1.0968e+02    3.6208e+02 ;     C7 - C3     - H5    
     7      3     15      1    1.0968e+02    3.6208e+02 ;     C7 - C3     - H6    
     7      4     16      1    1.0968e+02    3.6208e+02 ;     C7 - C4     - H7    
     7      4     17      1    1.0968e+02    3.6208e+02 ;     C7 - C4     - H8    
     7      4     18      1    1.0968e+02    3.6208e+02 ;     C7 - C4     - H9    
     7      5     19      1    1.0968e+02    3.6208e+02 ;     C7 - C5     - H10   
     7      5     20      1    1.0968e+02    3.6208e+02 ;     C7 - C5     - H11   
     8      1      9      1    1.2320e+02    8.4734e+02 ;     O1 - C1     - O2    
     9      6     21      1    1.1034e+02    4.7028e+02 ;     O2 - C6     - H12   
     9      6     22      1    1.1034e+02    4.7028e+02 ;     O2 - C6     - H13   
    10      2     11      1    1.0773e+02    2.9957e+02 ;     H1 - C2     - H2    
    10      2     12      1    1.0773e+02    2.9957e+02 ;     H1 - C2     - H3    
    11      2     12      1    1.0773e+02    2.9957e+02 ;     H2 - C2     - H3    
    13      3     14      1    1.0773e+02    2.9957e+02 ;     H4 - C3     - H5    
    13      3     15      1    1.0773e+02    2.9957e+02 ;     H4 - C3     - H6    
    14      3     15      1    1.0773e+02    2.9957e+02 ;     H5 - C3     - H6    
    16      4     17      1    1.0773e+02    2.9957e+02 ;     H7 - C4     - H8    
    16      4     18      1    1.0773e+02    2.9957e+02 ;     H7 - C4     - H9    
    17      4     18      1    1.0773e+02    2.9957e+02 ;     H8 - C4     - H9    
    19      5     20      1    1.0773e+02    2.9957e+02 ;    H10 - C5     - H11   
    21      6     22      1    1.0855e+02    2.9824e+02 ;    H12 - C6     - H13   

[ dihedrals ] ; propers
; for gromacs 4.5 or higher, using funct 9
;    i      j      k      l   func   phase     kd      pn
     1      9      6      5      9     0.00   1.60247   3 ;     C1-    O2-    C6-    C5
     1      9      6      5      9   180.00   3.34720   1 ;     C1-    O2-    C6-    C5
     1      9      6     21      9     0.00   1.60387   3 ;     C1-    O2-    C6-   H12
     1      9      6     22      9     0.00   1.60387   3 ;     C1-    O2-    C6-   H13
     2      1      9      6      9     0.00   3.13800   3 ;     C2-    C1-    O2-    C6
     2      1      9      6      9   180.00   7.90776   1 ;     C2-    C1-    O2-    C6
     2      1      9      6      9   180.00  13.76536   2 ;     C2-    C1-    O2-    C6
     3      7      4     16      9     0.00   0.54392   3 ;     C3-    C7-    C4-    H7
     3      7      4     17      9     0.00   0.54392   3 ;     C3-    C7-    C4-    H8
     3      7      4     18      9     0.00   0.54392   3 ;     C3-    C7-    C4-    H9
     3      7      5      6      9     0.00   2.17568   3 ;     C3-    C7-    C5-    C6
     3      7      5     19      9     0.00   0.54392   3 ;     C3-    C7-    C5-   H10
     3      7      5     20      9     0.00   0.54392   3 ;     C3-    C7-    C5-   H11
     4      7      3     13      9     0.00   0.54392   3 ;     C4-    C7-    C3-    H4
     4      7      3     14      9     0.00   0.54392   3 ;     C4-    C7-    C3-    H5
     4      7      3     15      9     0.00   0.54392   3 ;     C4-    C7-    C3-    H6
     4      7      5      6      9     0.00   2.17568   3 ;     C4-    C7-    C5-    C6
     4      7      5     19      9     0.00   0.54392   3 ;     C4-    C7-    C5-   H10
     4      7      5     20      9     0.00   0.54392   3 ;     C4-    C7-    C5-   H11
     5      7      3     13      9     0.00   0.54392   3 ;     C5-    C7-    C3-    H4
     5      7      3     14      9     0.00   0.54392   3 ;     C5-    C7-    C3-    H5
     5      7      3     15      9     0.00   0.54392   3 ;     C5-    C7-    C3-    H6
     5      7      4     16      9     0.00   0.54392   3 ;     C5-    C7-    C4-    H7
     5      7      4     17      9     0.00   0.54392   3 ;     C5-    C7-    C4-    H8
     5      7      4     18      9     0.00   0.54392   3 ;     C5-    C7-    C4-    H9
     6      5      7     23      9     0.00   0.54392   3 ;     C6-    C5-    C7-   H14
     7      5      6      9      9     0.00   0.65084   3 ;     C7-    C5-    C6-    O2
     7      5      6     21      9     0.00   0.65084   3 ;     C7-    C5-    C6-   H12
     7      5      6     22      9     0.00   0.65084   3 ;     C7-    C5-    C6-   H13
     8      1      2     10      9     0.00  16.86152   1 ;     O1-    C1-    C2-    H1
     8      1      2     10      9   180.00  15.31344   2 ;     O1-    C1-    C2-    H1
     8      1      2     11      9     0.00  16.86152   1 ;     O1-    C1-    C2-    H2
     8      1      2     11      9   180.00  15.31344   2 ;     O1-    C1-    C2-    H2
     8      1      2     12      9     0.00  16.86152   1 ;     O1-    C1-    C2-    H3
     8      1      2     12      9   180.00  15.31344   2 ;     O1-    C1-    C2-    H3
     8      1      9      6      9   180.00   5.85760   1 ;     O1-    C1-    O2-    C6
     8      1      9      6      9   180.00  11.29680   2 ;     O1-    C1-    O2-    C6
     9      1      2     10      9   180.00   0.00000   2 ;     O2-    C1-    C2-    H1
     9      1      2     11      9   180.00   0.00000   2 ;     O2-    C1-    C2-    H2
     9      1      2     12      9   180.00   0.00000   2 ;     O2-    C1-    C2-    H3
     9      6      5     19      9     0.00   0.00000   0 ;     O2-    C6-    C5-   H10
     9      6      5     19      9     0.00   1.04600   1 ;     O2-    C6-    C5-   H10
     9      6      5     20      9     0.00   0.00000   0 ;     O2-    C6-    C5-   H11
     9      6      5     20      9     0.00   1.04600   1 ;     O2-    C6-    C5-   H11
    13      3      7     23      9     0.00   0.50208   3 ;     H4-    C3-    C7-   H14
    14      3      7     23      9     0.00   0.50208   3 ;     H5-    C3-    C7-   H14
    15      3      7     23      9     0.00   0.50208   3 ;     H6-    C3-    C7-   H14
    16      4      7     23      9     0.00   0.50208   3 ;     H7-    C4-    C7-   H14
    17      4      7     23      9     0.00   0.50208   3 ;     H8-    C4-    C7-   H14
    18      4      7     23      9     0.00   0.50208   3 ;     H9-    C4-    C7-   H14
    19      5      6     21      9     0.00   0.65084   3 ;    H10-    C5-    C6-   H12
    19      5      6     22      9     0.00   0.65084   3 ;    H10-    C5-    C6-   H13
    19      5      7     23      9     0.00   0.50208   3 ;    H10-    C5-    C7-   H14
    20      5      6     21      9     0.00   0.65084   3 ;    H11-    C5-    C6-   H12
    20      5      6     22      9     0.00   0.65084   3 ;    H11-    C5-    C6-   H13
    20      5      7     23      9     0.00   0.50208   3 ;    H11-    C5-    C7-   H14

[ dihedrals ] ; impropers
; treated as propers in GROMACS to use correct AMBER analytical function
;    i      j      k      l   func   phase     kd      pn
     9      1      8      2      4   180.00   4.60240   2 ;     O2-    C1-    O1-    C2
