; mobley_4678740_GMX.itp created by acpype (v: 2023.10.27) on Thu May 14 13:16:37 2026

[ atomtypes ]
;name   bond_type     mass     charge   ptype   sigma         epsilon       Amb
 ca       ca          0.00000  0.00000   A     3.31521e-01   4.13379e-01 ; 1.86  0.0988
 c3       c3          0.00000  0.00000   A     3.39771e-01   4.51035e-01 ; 1.91  0.1078
 f        f           0.00000  0.00000   A     3.03422e-01   3.48109e-01 ; 1.70  0.0832
 ha       ha          0.00000  0.00000   A     2.62548e-01   6.73624e-02 ; 1.47  0.0161

[ moleculetype ]
;name            nrexcl
 mobley_4678740   3

[ atoms ]
;   nr  type  resi  res  atom  cgnr     charge      mass       ; qtot   bond_type
     1   ca     1   MOL    C1    1    -0.138000     12.01000 ; qtot -0.138
     2   ca     1   MOL    C2    2    -0.054000     12.01000 ; qtot -0.192
     3   ca     1   MOL    C3    3    -0.054000     12.01000 ; qtot -0.246
     4   ca     1   MOL    C4    4    -0.035000     12.01000 ; qtot -0.281
     5   ca     1   MOL    C5    5    -0.174300     12.01000 ; qtot -0.455
     6   ca     1   MOL    C6    6    -0.174300     12.01000 ; qtot -0.630
     7   c3     1   MOL    C7    7     0.691699     12.01000 ; qtot 0.062
     8   c3     1   MOL    C8    8     0.691699     12.01000 ; qtot 0.754
     9    f     1   MOL    F1    9    -0.232633     19.00000 ; qtot 0.521
    10    f     1   MOL    F2   10    -0.232633     19.00000 ; qtot 0.289
    11    f     1   MOL    F3   11    -0.232633     19.00000 ; qtot 0.056
    12    f     1   MOL    F4   12    -0.232633     19.00000 ; qtot -0.177
    13    f     1   MOL    F5   13    -0.232633     19.00000 ; qtot -0.409
    14    f     1   MOL    F6   14    -0.232633     19.00000 ; qtot -0.642
    15   ha     1   MOL    H1   15     0.153000      1.00800 ; qtot -0.489
    16   ha     1   MOL    H2   16     0.159000      1.00800 ; qtot -0.330
    17   ha     1   MOL    H3   17     0.159000      1.00800 ; qtot -0.171
    18   ha     1   MOL    H4   18     0.171000      1.00800 ; qtot -0.000

[ bonds ]
;   ai     aj funct   r             k
     1      2   1    1.3986e-01    2.9644e+05 ;     C1 - C2    
     1      3   1    1.3986e-01    2.9644e+05 ;     C1 - C3    
     1     15   1    1.0860e-01    3.0183e+05 ;     C1 - H1    
     2      5   1    1.3986e-01    2.9644e+05 ;     C2 - C5    
     2     16   1    1.0860e-01    3.0183e+05 ;     C2 - H2    
     3      6   1    1.3986e-01    2.9644e+05 ;     C3 - C6    
     3     17   1    1.0860e-01    3.0183e+05 ;     C3 - H3    
     4      5   1    1.3986e-01    2.9644e+05 ;     C4 - C5    
     4      6   1    1.3986e-01    2.9644e+05 ;     C4 - C6    
     4     18   1    1.0860e-01    3.0183e+05 ;     C4 - H4    
     5      7   1    1.5147e-01    2.0410e+05 ;     C5 - C7    
     6      8   1    1.5147e-01    2.0410e+05 ;     C6 - C8    
     7      9   1    1.3512e-01    2.7973e+05 ;     C7 - F1    
     7     10   1    1.3512e-01    2.7973e+05 ;     C7 - F2    
     7     11   1    1.3512e-01    2.7973e+05 ;     C7 - F3    
     8     12   1    1.3512e-01    2.7973e+05 ;     C8 - F4    
     8     13   1    1.3512e-01    2.7973e+05 ;     C8 - F5    
     8     14   1    1.3512e-01    2.7973e+05 ;     C8 - F6    

[ pairs ]
;   ai     aj    funct
     1      4      1 ;     C1 - C4    
     1      7      1 ;     C1 - C7    
     1      8      1 ;     C1 - C8    
     2      6      1 ;     C2 - C6    
     2      9      1 ;     C2 - F1    
     2     10      1 ;     C2 - F2    
     2     11      1 ;     C2 - F3    
     2     17      1 ;     C2 - H3    
     2     18      1 ;     C2 - H4    
     3      5      1 ;     C3 - C5    
     3     12      1 ;     C3 - F4    
     3     13      1 ;     C3 - F5    
     3     14      1 ;     C3 - F6    
     3     16      1 ;     C3 - H2    
     3     18      1 ;     C3 - H4    
     4      9      1 ;     C4 - F1    
     4     10      1 ;     C4 - F2    
     4     11      1 ;     C4 - F3    
     4     12      1 ;     C4 - F4    
     4     13      1 ;     C4 - F5    
     4     14      1 ;     C4 - F6    
     4     16      1 ;     C4 - H2    
     4     17      1 ;     C4 - H3    
     5      8      1 ;     C5 - C8    
     6      7      1 ;     C6 - C7    
     7     16      1 ;     C7 - H2    
     7     18      1 ;     C7 - H4    
     8     17      1 ;     C8 - H3    
     8     18      1 ;     C8 - H4    
    15      5      1 ;     H1 - C5    
    15      6      1 ;     H1 - C6    
    15     16      1 ;     H1 - H2    
    15     17      1 ;     H1 - H3    

[ angles ]
;   ai     aj     ak    funct   theta         cth
     1      2      5      1    1.2002e+02    5.3279e+02 ;     C1 - C2     - C5    
     1      2     16      1    1.1988e+02    3.7572e+02 ;     C1 - C2     - H2    
     1      3      6      1    1.2002e+02    5.3279e+02 ;     C1 - C3     - C6    
     1      3     17      1    1.1988e+02    3.7572e+02 ;     C1 - C3     - H3    
     2      1      3      1    1.2002e+02    5.3279e+02 ;     C2 - C1     - C3    
     2      1     15      1    1.1988e+02    3.7572e+02 ;     C2 - C1     - H1    
     2      5      4      1    1.2002e+02    5.3279e+02 ;     C2 - C5     - C4    
     2      5      7      1    1.2083e+02    5.0827e+02 ;     C2 - C5     - C7    
     3      1     15      1    1.1988e+02    3.7572e+02 ;     C3 - C1     - H1    
     3      6      4      1    1.2002e+02    5.3279e+02 ;     C3 - C6     - C4    
     3      6      8      1    1.2083e+02    5.0827e+02 ;     C3 - C6     - C8    
     4      5      7      1    1.2083e+02    5.0827e+02 ;     C4 - C5     - C7    
     4      6      8      1    1.2083e+02    5.0827e+02 ;     C4 - C6     - C8    
     5      2     16      1    1.1988e+02    3.7572e+02 ;     C5 - C2     - H2    
     5      4      6      1    1.2002e+02    5.3279e+02 ;     C5 - C4     - C6    
     5      4     18      1    1.1988e+02    3.7572e+02 ;     C5 - C4     - H4    
     5      7      9      1    1.1178e+02    6.6308e+02 ;     C5 - C7     - F1    
     5      7     10      1    1.1178e+02    6.6308e+02 ;     C5 - C7     - F2    
     5      7     11      1    1.1178e+02    6.6308e+02 ;     C5 - C7     - F3    
     6      3     17      1    1.1988e+02    3.7572e+02 ;     C6 - C3     - H3    
     6      4     18      1    1.1988e+02    3.7572e+02 ;     C6 - C4     - H4    
     6      8     12      1    1.1178e+02    6.6308e+02 ;     C6 - C8     - F4    
     6      8     13      1    1.1178e+02    6.6308e+02 ;     C6 - C8     - F5    
     6      8     14      1    1.1178e+02    6.6308e+02 ;     C6 - C8     - F6    
     9      7     10      1    1.0737e+02    8.9437e+02 ;     F1 - C7     - F2    
     9      7     11      1    1.0737e+02    8.9437e+02 ;     F1 - C7     - F3    
    10      7     11      1    1.0737e+02    8.9437e+02 ;     F2 - C7     - F3    
    12      8     13      1    1.0737e+02    8.9437e+02 ;     F4 - C8     - F5    
    12      8     14      1    1.0737e+02    8.9437e+02 ;     F4 - C8     - F6    
    13      8     14      1    1.0737e+02    8.9437e+02 ;     F5 - C8     - F6    

[ dihedrals ] ; propers
; for gromacs 4.5 or higher, using funct 9
;    i      j      k      l   func   phase     kd      pn
     1      2      5      4      9   180.00  15.16700   2 ;     C1-    C2-    C5-    C4
     1      2      5      7      9   180.00  15.16700   2 ;     C1-    C2-    C5-    C7
     1      3      6      4      9   180.00  15.16700   2 ;     C1-    C3-    C6-    C4
     1      3      6      8      9   180.00  15.16700   2 ;     C1-    C3-    C6-    C8
     2      1      3      6      9   180.00  15.16700   2 ;     C2-    C1-    C3-    C6
     2      1      3     17      9   180.00  15.16700   2 ;     C2-    C1-    C3-    H3
     2      5      4      6      9   180.00  15.16700   2 ;     C2-    C5-    C4-    C6
     2      5      4     18      9   180.00  15.16700   2 ;     C2-    C5-    C4-    H4
     2      5      7      9      9     0.00   0.00000   0 ;     C2-    C5-    C7-    F1
     2      5      7     10      9     0.00   0.00000   0 ;     C2-    C5-    C7-    F2
     2      5      7     11      9     0.00   0.00000   0 ;     C2-    C5-    C7-    F3
     3      1      2      5      9   180.00  15.16700   2 ;     C3-    C1-    C2-    C5
     3      1      2     16      9   180.00  15.16700   2 ;     C3-    C1-    C2-    H2
     3      6      4      5      9   180.00  15.16700   2 ;     C3-    C6-    C4-    C5
     3      6      4     18      9   180.00  15.16700   2 ;     C3-    C6-    C4-    H4
     3      6      8     12      9     0.00   0.00000   0 ;     C3-    C6-    C8-    F4
     3      6      8     13      9     0.00   0.00000   0 ;     C3-    C6-    C8-    F5
     3      6      8     14      9     0.00   0.00000   0 ;     C3-    C6-    C8-    F6
     4      5      2     16      9   180.00  15.16700   2 ;     C4-    C5-    C2-    H2
     4      5      7      9      9     0.00   0.00000   0 ;     C4-    C5-    C7-    F1
     4      5      7     10      9     0.00   0.00000   0 ;     C4-    C5-    C7-    F2
     4      5      7     11      9     0.00   0.00000   0 ;     C4-    C5-    C7-    F3
     4      6      3     17      9   180.00  15.16700   2 ;     C4-    C6-    C3-    H3
     4      6      8     12      9     0.00   0.00000   0 ;     C4-    C6-    C8-    F4
     4      6      8     13      9     0.00   0.00000   0 ;     C4-    C6-    C8-    F5
     4      6      8     14      9     0.00   0.00000   0 ;     C4-    C6-    C8-    F6
     5      4      6      8      9   180.00  15.16700   2 ;     C5-    C4-    C6-    C8
     6      4      5      7      9   180.00  15.16700   2 ;     C6-    C4-    C5-    C7
     7      5      2     16      9   180.00  15.16700   2 ;     C7-    C5-    C2-    H2
     7      5      4     18      9   180.00  15.16700   2 ;     C7-    C5-    C4-    H4
     8      6      3     17      9   180.00  15.16700   2 ;     C8-    C6-    C3-    H3
     8      6      4     18      9   180.00  15.16700   2 ;     C8-    C6-    C4-    H4
    15      1      2      5      9   180.00  15.16700   2 ;     H1-    C1-    C2-    C5
    15      1      2     16      9   180.00  15.16700   2 ;     H1-    C1-    C2-    H2
    15      1      3      6      9   180.00  15.16700   2 ;     H1-    C1-    C3-    C6
    15      1      3     17      9   180.00  15.16700   2 ;     H1-    C1-    C3-    H3

[ dihedrals ] ; impropers
; treated as propers in GROMACS to use correct AMBER analytical function
;    i      j      k      l   func   phase     kd      pn
     1      5      2     16      4   180.00   4.60240   2 ;     C1-    C5-    C2-    H2
     1      6      3     17      4   180.00   4.60240   2 ;     C1-    C6-    C3-    H3
     2      4      5      7      4   180.00   4.60240   2 ;     C2-    C4-    C5-    C7
     5      6      4     18      4   180.00   4.60240   2 ;     C5-    C6-    C4-    H4
     8      3      6      4      4   180.00   4.60240   2 ;     C8-    C3-    C6-    C4
    15      1      3      2      4   180.00   4.60240   2 ;     H1-    C1-    C3-    C2
