; mobley_7497999_GMX.top created by acpype (v: 2023.10.27) on Thu May 14 13:17:45 2026

[ defaults ]
; nbfunc        comb-rule       gen-pairs       fudgeLJ fudgeQQ
1               2               yes             0.5     0.8333333333

; Include mobley_7497999_GMX.itp topology
#include "mobley_7497999_GMX.itp"

; Ligand position restraints
#ifdef POSRES_LIG
#include "posre_mobley_7497999.itp"
#endif

#include "../common/SOL.TIP3P.itp"

[ system ]
mobley_7497999 in water

[ molecules ]
; Compound        nmols
 mobley_7497999   1     
SOL               659
