; mobley_3775790_GMX.itp created by acpype (v: 2023.10.27) on Thu May 14 14:00:53 2026

[ atomtypes ]
;name   bond_type     mass     charge   ptype   sigma         epsilon       Amb
 cc       cc          0.00000  0.00000   A     3.31521e-01   4.13379e-01 ; 1.86  0.0988
 cd       cd          0.00000  0.00000   A     3.31521e-01   4.13379e-01 ; 1.86  0.0988
 c3       c3          0.00000  0.00000   A     3.39771e-01   4.51035e-01 ; 1.91  0.1078
 na       na          0.00000  0.00000   A     3.20581e-01   8.54373e-01 ; 1.80  0.2042
 ha       ha          0.00000  0.00000   A     2.62548e-01   6.73624e-02 ; 1.47  0.0161
 h4       h4          0.00000  0.00000   A     2.53639e-01   6.73624e-02 ; 1.42  0.0161
 h1       h1          0.00000  0.00000   A     2.42200e-01   8.70272e-02 ; 1.36  0.0208

[ moleculetype ]
;name            nrexcl
 mobley_3775790   3

[ atoms ]
;   nr  type  resi  res  atom  cgnr     charge      mass       ; qtot   bond_type
     1   cc     1   MOL    C1    1    -0.197000     12.01000 ; qtot -0.197
     2   cc     1   MOL    C2    2    -0.197000     12.01000 ; qtot -0.394
     3   cd     1   MOL    C3    3    -0.165300     12.01000 ; qtot -0.559
     4   cd     1   MOL    C4    4    -0.165300     12.01000 ; qtot -0.725
     5   c3     1   MOL    C5    5     0.024600     12.01000 ; qtot -0.700
     6   na     1   MOL    N1    6    -0.070100     14.01000 ; qtot -0.770
     7   ha     1   MOL    H1    7     0.150000      1.00800 ; qtot -0.620
     8   ha     1   MOL    H2    8     0.150000      1.00800 ; qtot -0.470
     9   h4     1   MOL    H3    9     0.162000      1.00800 ; qtot -0.308
    10   h4     1   MOL    H4   10     0.162000      1.00800 ; qtot -0.146
    11   h1     1   MOL    H5   11     0.048700      1.00800 ; qtot -0.097
    12   h1     1   MOL    H6   12     0.048700      1.00800 ; qtot -0.049
    13   h1     1   MOL    H7   13     0.048700      1.00800 ; qtot -0.000

[ bonds ]
;   ai     aj funct   r             k
     1      2   1    1.4274e-01    2.6947e+05 ;     C1 - C2    
     1      3   1    1.3730e-01    3.2321e+05 ;     C1 - C3    
     1      7   1    1.0838e-01    3.0470e+05 ;     C1 - H1    
     2      4   1    1.3730e-01    3.2321e+05 ;     C2 - C4    
     2      8   1    1.0838e-01    3.0470e+05 ;     C2 - H2    
     3      6   1    1.3830e-01    2.7819e+05 ;     C3 - N1    
     3      9   1    1.0818e-01    3.0735e+05 ;     C3 - H3    
     4      6   1    1.3830e-01    2.7819e+05 ;     C4 - N1    
     4     10   1    1.0818e-01    3.0735e+05 ;     C4 - H4    
     5      6   1    1.4639e-01    2.1321e+05 ;     C5 - N1    
     5     11   1    1.0969e-01    2.8804e+05 ;     C5 - H5    
     5     12   1    1.0969e-01    2.8804e+05 ;     C5 - H6    
     5     13   1    1.0969e-01    2.8804e+05 ;     C5 - H7    

[ pairs ]
;   ai     aj    funct
     1      5      1 ;     C1 - C5    
     1     10      1 ;     C1 - H4    
     2      5      1 ;     C2 - C5    
     2      9      1 ;     C2 - H3    
     3      8      1 ;     C3 - H2    
     3     10      1 ;     C3 - H4    
     3     11      1 ;     C3 - H5    
     3     12      1 ;     C3 - H6    
     3     13      1 ;     C3 - H7    
     4      9      1 ;     C4 - H3    
     4     11      1 ;     C4 - H5    
     4     12      1 ;     C4 - H6    
     4     13      1 ;     C4 - H7    
     5      9      1 ;     C5 - H3    
     5     10      1 ;     C5 - H4    
     6      8      1 ;     N1 - H2    
     7      4      1 ;     H1 - C4    
     7      6      1 ;     H1 - N1    
     7      8      1 ;     H1 - H2    
     7      9      1 ;     H1 - H3    
     8     10      1 ;     H2 - H4    

[ angles ]
;   ai     aj     ak    funct   theta         cth
     1      2      4      1    1.1919e+02    5.3363e+02 ;     C1 - C2     - C4    
     1      2      8      1    1.1971e+02    3.6987e+02 ;     C1 - C2     - H2    
     1      3      6      1    1.0899e+02    6.0241e+02 ;     C1 - C3     - N1    
     1      3      9      1    1.2764e+02    3.6987e+02 ;     C1 - C3     - H3    
     2      1      3      1    1.1919e+02    5.3363e+02 ;     C2 - C1     - C3    
     2      1      7      1    1.1971e+02    3.6987e+02 ;     C2 - C1     - H1    
     2      4      6      1    1.0899e+02    6.0241e+02 ;     C2 - C4     - N1    
     2      4     10      1    1.2764e+02    3.6987e+02 ;     C2 - C4     - H4    
     3      1      7      1    1.2140e+02    3.7907e+02 ;     C3 - C1     - H1    
     3      6      4      1    1.1090e+02    6.9279e+02 ;     C3 - N1     - C4    
     3      6      5      1    1.2550e+02    6.3170e+02 ;     C3 - N1     - C5    
     4      2      8      1    1.2140e+02    3.7907e+02 ;     C4 - C2     - H2    
     4      6      5      1    1.2550e+02    6.3170e+02 ;     C4 - N1     - C5    
     6      3      9      1    1.2017e+02    4.0233e+02 ;     N1 - C3     - H3    
     6      4     10      1    1.2017e+02    4.0233e+02 ;     N1 - C4     - H4    
     6      5     11      1    1.0876e+02    4.0250e+02 ;     N1 - C5     - H5    
     6      5     12      1    1.0876e+02    4.0250e+02 ;     N1 - C5     - H6    
     6      5     13      1    1.0876e+02    4.0250e+02 ;     N1 - C5     - H7    
    11      5     12      1    1.0855e+02    2.9824e+02 ;     H5 - C5     - H6    
    11      5     13      1    1.0855e+02    2.9824e+02 ;     H5 - C5     - H7    
    12      5     13      1    1.0855e+02    2.9824e+02 ;     H6 - C5     - H7    

[ dihedrals ] ; propers
; for gromacs 4.5 or higher, using funct 9
;    i      j      k      l   func   phase     kd      pn
     1      2      4      6      9   180.00  16.73600   2 ;     C1-    C2-    C4-    N1
     1      2      4     10      9   180.00  16.73600   2 ;     C1-    C2-    C4-    H4
     1      3      6      4      9   180.00   7.11280   2 ;     C1-    C3-    N1-    C4
     1      3      6      5      9   180.00   7.11280   2 ;     C1-    C3-    N1-    C5
     2      1      3      6      9   180.00  16.73600   2 ;     C2-    C1-    C3-    N1
     2      1      3      9      9   180.00  16.73600   2 ;     C2-    C1-    C3-    H3
     2      4      6      3      9   180.00   7.11280   2 ;     C2-    C4-    N1-    C3
     2      4      6      5      9   180.00   7.11280   2 ;     C2-    C4-    N1-    C5
     3      1      2      4      9   180.00  16.73600   2 ;     C3-    C1-    C2-    C4
     3      1      2      8      9   180.00  16.73600   2 ;     C3-    C1-    C2-    H2
     3      6      4     10      9   180.00   7.11280   2 ;     C3-    N1-    C4-    H4
     3      6      5     11      9     0.00   0.00000   0 ;     C3-    N1-    C5-    H5
     3      6      5     12      9     0.00   0.00000   0 ;     C3-    N1-    C5-    H6
     3      6      5     13      9     0.00   0.00000   0 ;     C3-    N1-    C5-    H7
     4      6      3      9      9   180.00   7.11280   2 ;     C4-    N1-    C3-    H3
     4      6      5     11      9     0.00   0.00000   0 ;     C4-    N1-    C5-    H5
     4      6      5     12      9     0.00   0.00000   0 ;     C4-    N1-    C5-    H6
     4      6      5     13      9     0.00   0.00000   0 ;     C4-    N1-    C5-    H7
     5      6      3      9      9   180.00   7.11280   2 ;     C5-    N1-    C3-    H3
     5      6      4     10      9   180.00   7.11280   2 ;     C5-    N1-    C4-    H4
     6      4      2      8      9   180.00  16.73600   2 ;     N1-    C4-    C2-    H2
     7      1      2      4      9   180.00  16.73600   2 ;     H1-    C1-    C2-    C4
     7      1      2      8      9   180.00  16.73600   2 ;     H1-    C1-    C2-    H2
     7      1      3      6      9   180.00  16.73600   2 ;     H1-    C1-    C3-    N1
     7      1      3      9      9   180.00  16.73600   2 ;     H1-    C1-    C3-    H3
     8      2      4     10      9   180.00  16.73600   2 ;     H2-    C2-    C4-    H4

[ dihedrals ] ; impropers
; treated as propers in GROMACS to use correct AMBER analytical function
;    i      j      k      l   func   phase     kd      pn
     1      4      2      8      4   180.00   4.60240   2 ;     C1-    C4-    C2-    H2
     1      9      3      6      4   180.00   4.60240   2 ;     C1-    H3-    C3-    N1
     2     10      4      6      4   180.00   4.60240   2 ;     C2-    H4-    C4-    N1
     5      3      6      4      4   180.00   4.60240   2 ;     C5-    C3-    N1-    C4
     7      1      3      2      4   180.00   4.60240   2 ;     H1-    C1-    C3-    C2
