; mobley_9624458_GMX.itp created by acpype (v: 2023.10.27) on Thu May 14 13:47:32 2026

[ atomtypes ]
;name   bond_type     mass     charge   ptype   sigma         epsilon       Amb
 c3       c3          0.00000  0.00000   A     3.39771e-01   4.51035e-01 ; 1.91  0.1078
 cl       cl          0.00000  0.00000   A     3.46595e-01   1.10374e+00 ; 1.95  0.2638
 hc       hc          0.00000  0.00000   A     2.60018e-01   8.70272e-02 ; 1.46  0.0208
 h1       h1          0.00000  0.00000   A     2.42200e-01   8.70272e-02 ; 1.36  0.0208

[ moleculetype ]
;name            nrexcl
 mobley_9624458   3

[ atoms ]
;   nr  type  resi  res  atom  cgnr     charge      mass       ; qtot   bond_type
     1   c3     1   MOL    C1    1    -0.099400     12.01000 ; qtot -0.099
     2   c3     1   MOL    C2    2     0.033000     12.01000 ; qtot -0.066
     3   c3     1   MOL    C3    3     0.033000     12.01000 ; qtot -0.033
     4   cl     1   MOL   CL1    4    -0.199400     35.45000 ; qtot -0.233
     5   cl     1   MOL   CL2    5    -0.199400     35.45000 ; qtot -0.432
     6   hc     1   MOL    H1    6     0.067700      1.00800 ; qtot -0.364
     7   hc     1   MOL    H2    7     0.067700      1.00800 ; qtot -0.297
     8   h1     1   MOL    H3    8     0.074200      1.00800 ; qtot -0.223
     9   h1     1   MOL    H4    9     0.074200      1.00800 ; qtot -0.148
    10   h1     1   MOL    H5   10     0.074200      1.00800 ; qtot -0.074
    11   h1     1   MOL    H6   11     0.074200      1.00800 ; qtot 0.000

[ bonds ]
;   ai     aj funct   r             k
     1      2   1    1.5354e-01    1.9154e+05 ;     C1 - C2    
     1      3   1    1.5354e-01    1.9154e+05 ;     C1 - C3    
     1      6   1    1.0962e-01    2.8891e+05 ;     C1 - H1    
     1      7   1    1.0962e-01    2.8891e+05 ;     C1 - H2    
     2      4   1    1.8092e-01    1.3724e+05 ;     C2 - CL1   
     2      8   1    1.0969e-01    2.8804e+05 ;     C2 - H3    
     2      9   1    1.0969e-01    2.8804e+05 ;     C2 - H4    
     3      5   1    1.8092e-01    1.3724e+05 ;     C3 - CL2   
     3     10   1    1.0969e-01    2.8804e+05 ;     C3 - H5    
     3     11   1    1.0969e-01    2.8804e+05 ;     C3 - H6    

[ pairs ]
;   ai     aj    funct
     2      5      1 ;     C2 - CL2   
     2     10      1 ;     C2 - H5    
     2     11      1 ;     C2 - H6    
     3      4      1 ;     C3 - CL1   
     3      8      1 ;     C3 - H3    
     3      9      1 ;     C3 - H4    
     6      4      1 ;     H1 - CL1   
     6      5      1 ;     H1 - CL2   
     6      8      1 ;     H1 - H3    
     6      9      1 ;     H1 - H4    
     6     10      1 ;     H1 - H5    
     6     11      1 ;     H1 - H6    
     7      4      1 ;     H2 - CL1   
     7      5      1 ;     H2 - CL2   
     7      8      1 ;     H2 - H3    
     7      9      1 ;     H2 - H4    
     7     10      1 ;     H2 - H5    
     7     11      1 ;     H2 - H6    

[ angles ]
;   ai     aj     ak    funct   theta         cth
     1      2      4      1    1.1039e+02    5.3254e+02 ;     C1 - C2     - CL1   
     1      2      8      1    1.0959e+02    3.6217e+02 ;     C1 - C2     - H3    
     1      2      9      1    1.0959e+02    3.6217e+02 ;     C1 - C2     - H4    
     1      3      5      1    1.1039e+02    5.3254e+02 ;     C1 - C3     - CL2   
     1      3     10      1    1.0959e+02    3.6217e+02 ;     C1 - C3     - H5    
     1      3     11      1    1.0959e+02    3.6217e+02 ;     C1 - C3     - H6    
     2      1      3      1    1.1263e+02    5.0099e+02 ;     C2 - C1     - C3    
     2      1      6      1    1.0968e+02    3.6208e+02 ;     C2 - C1     - H1    
     2      1      7      1    1.0968e+02    3.6208e+02 ;     C2 - C1     - H2    
     3      1      6      1    1.0968e+02    3.6208e+02 ;     C3 - C1     - H1    
     3      1      7      1    1.0968e+02    3.6208e+02 ;     C3 - C1     - H2    
     4      2      8      1    1.0682e+02    3.6183e+02 ;    CL1 - C2     - H3    
     4      2      9      1    1.0682e+02    3.6183e+02 ;    CL1 - C2     - H4    
     5      3     10      1    1.0682e+02    3.6183e+02 ;    CL2 - C3     - H5    
     5      3     11      1    1.0682e+02    3.6183e+02 ;    CL2 - C3     - H6    
     6      1      7      1    1.0773e+02    2.9957e+02 ;     H1 - C1     - H2    
     8      2      9      1    1.0855e+02    2.9824e+02 ;     H3 - C2     - H4    
    10      3     11      1    1.0855e+02    2.9824e+02 ;     H5 - C3     - H6    

[ dihedrals ] ; propers
; for gromacs 4.5 or higher, using funct 9
;    i      j      k      l   func   phase     kd      pn
     2      1      3      5      9     0.00   0.65084   3 ;     C2-    C1-    C3-   CL2
     2      1      3     10      9     0.00   0.65084   3 ;     C2-    C1-    C3-    H5
     2      1      3     11      9     0.00   0.65084   3 ;     C2-    C1-    C3-    H6
     3      1      2      4      9     0.00   0.65084   3 ;     C3-    C1-    C2-   CL1
     3      1      2      8      9     0.00   0.65084   3 ;     C3-    C1-    C2-    H3
     3      1      2      9      9     0.00   0.65084   3 ;     C3-    C1-    C2-    H4
     6      1      2      4      9     0.00   0.75312   3 ;     H1-    C1-    C2-   CL1
     6      1      2      8      9     0.00   0.65084   3 ;     H1-    C1-    C2-    H3
     6      1      2      9      9     0.00   0.65084   3 ;     H1-    C1-    C2-    H4
     6      1      3      5      9     0.00   0.75312   3 ;     H1-    C1-    C3-   CL2
     6      1      3     10      9     0.00   0.65084   3 ;     H1-    C1-    C3-    H5
     6      1      3     11      9     0.00   0.65084   3 ;     H1-    C1-    C3-    H6
     7      1      2      4      9     0.00   0.75312   3 ;     H2-    C1-    C2-   CL1
     7      1      2      8      9     0.00   0.65084   3 ;     H2-    C1-    C2-    H3
     7      1      2      9      9     0.00   0.65084   3 ;     H2-    C1-    C2-    H4
     7      1      3      5      9     0.00   0.75312   3 ;     H2-    C1-    C3-   CL2
     7      1      3     10      9     0.00   0.65084   3 ;     H2-    C1-    C3-    H5
     7      1      3     11      9     0.00   0.65084   3 ;     H2-    C1-    C3-    H6
