; mobley_2068538_GMX.itp created by acpype (v: 2023.10.27) on Thu May 14 14:01:34 2026

[ atomtypes ]
;name   bond_type     mass     charge   ptype   sigma         epsilon       Amb
 c3       c3          0.00000  0.00000   A     3.39771e-01   4.51035e-01 ; 1.91  0.1078
 hc       hc          0.00000  0.00000   A     2.60018e-01   8.70272e-02 ; 1.46  0.0208

[ moleculetype ]
;name            nrexcl
 mobley_2068538   3

[ atoms ]
;   nr  type  resi  res  atom  cgnr     charge      mass       ; qtot   bond_type
     1   c3     1   MOL    C1    1    -0.093101     12.01000 ; qtot -0.093
     2   hc     1   MOL    H1    2     0.032367      1.00800 ; qtot -0.061
     3   hc     1   MOL    H2    3     0.032367      1.00800 ; qtot -0.028
     4   c3     1   MOL    C2    4    -0.081400     12.01000 ; qtot -0.110
     5   hc     1   MOL    H4    5     0.036700      1.00800 ; qtot -0.073
     6   hc     1   MOL    H5    6     0.036700      1.00800 ; qtot -0.036
     7   c3     1   MOL    C8    7    -0.093101     12.01000 ; qtot -0.129
     8   hc     1   MOL    H3    8     0.032367      1.00800 ; qtot -0.097
     9   hc     1   MOL    H6    9     0.032367      1.00800 ; qtot -0.065
    10   hc     1   MOL    H7   10     0.032367      1.00800 ; qtot -0.032
    11   hc     1   MOL    H8   11     0.032367      1.00800 ; qtot -0.000

[ bonds ]
;   ai     aj funct   r             k
     1      2   1    1.0962e-01    2.8891e+05 ;     C1 - H1    
     1      3   1    1.0962e-01    2.8891e+05 ;     C1 - H2    
     1      4   1    1.5354e-01    1.9154e+05 ;     C1 - C2    
     1     11   1    1.0962e-01    2.8891e+05 ;     C1 - H8    
     4      5   1    1.0962e-01    2.8891e+05 ;     C2 - H4    
     4      6   1    1.0962e-01    2.8891e+05 ;     C2 - H5    
     4      7   1    1.5354e-01    1.9154e+05 ;     C2 - C8    
     7      8   1    1.0962e-01    2.8891e+05 ;     C8 - H3    
     7      9   1    1.0962e-01    2.8891e+05 ;     C8 - H6    
     7     10   1    1.0962e-01    2.8891e+05 ;     C8 - H7    

[ pairs ]
;   ai     aj    funct
     1      8      1 ;     C1 - H3    
     1      9      1 ;     C1 - H6    
     1     10      1 ;     C1 - H7    
     2      5      1 ;     H1 - H4    
     2      6      1 ;     H1 - H5    
     2      7      1 ;     H1 - C8    
     3      5      1 ;     H2 - H4    
     3      6      1 ;     H2 - H5    
     3      7      1 ;     H2 - C8    
     5      8      1 ;     H4 - H3    
     5      9      1 ;     H4 - H6    
     5     10      1 ;     H4 - H7    
     6      8      1 ;     H5 - H3    
     6      9      1 ;     H5 - H6    
     6     10      1 ;     H5 - H7    
    11      5      1 ;     H8 - H4    
    11      6      1 ;     H8 - H5    
    11      7      1 ;     H8 - C8    

[ angles ]
;   ai     aj     ak    funct   theta         cth
     1      4      5      1    1.0968e+02    3.6208e+02 ;     C1 - C2     - H4    
     1      4      6      1    1.0968e+02    3.6208e+02 ;     C1 - C2     - H5    
     1      4      7      1    1.1263e+02    5.0099e+02 ;     C1 - C2     - C8    
     2      1      3      1    1.0773e+02    2.9957e+02 ;     H1 - C1     - H2    
     2      1      4      1    1.0968e+02    3.6208e+02 ;     H1 - C1     - C2    
     2      1     11      1    1.0773e+02    2.9957e+02 ;     H1 - C1     - H8    
     3      1      4      1    1.0968e+02    3.6208e+02 ;     H2 - C1     - C2    
     3      1     11      1    1.0773e+02    2.9957e+02 ;     H2 - C1     - H8    
     4      1     11      1    1.0968e+02    3.6208e+02 ;     C2 - C1     - H8    
     4      7      8      1    1.0968e+02    3.6208e+02 ;     C2 - C8     - H3    
     4      7      9      1    1.0968e+02    3.6208e+02 ;     C2 - C8     - H6    
     4      7     10      1    1.0968e+02    3.6208e+02 ;     C2 - C8     - H7    
     5      4      6      1    1.0773e+02    2.9957e+02 ;     H4 - C2     - H5    
     5      4      7      1    1.0968e+02    3.6208e+02 ;     H4 - C2     - C8    
     6      4      7      1    1.0968e+02    3.6208e+02 ;     H5 - C2     - C8    
     8      7      9      1    1.0773e+02    2.9957e+02 ;     H3 - C8     - H6    
     8      7     10      1    1.0773e+02    2.9957e+02 ;     H3 - C8     - H7    
     9      7     10      1    1.0773e+02    2.9957e+02 ;     H6 - C8     - H7    

[ dihedrals ] ; propers
; for gromacs 4.5 or higher, using funct 9
;    i      j      k      l   func   phase     kd      pn
     1      4      7      8      9     0.00   0.54392   3 ;     C1-    C2-    C8-    H3
     1      4      7      9      9     0.00   0.54392   3 ;     C1-    C2-    C8-    H6
     1      4      7     10      9     0.00   0.54392   3 ;     C1-    C2-    C8-    H7
     2      1      4      5      9     0.00   0.50208   3 ;     H1-    C1-    C2-    H4
     2      1      4      6      9     0.00   0.50208   3 ;     H1-    C1-    C2-    H5
     2      1      4      7      9     0.00   0.54392   3 ;     H1-    C1-    C2-    C8
     3      1      4      5      9     0.00   0.50208   3 ;     H2-    C1-    C2-    H4
     3      1      4      6      9     0.00   0.50208   3 ;     H2-    C1-    C2-    H5
     3      1      4      7      9     0.00   0.54392   3 ;     H2-    C1-    C2-    C8
     5      4      7      8      9     0.00   0.50208   3 ;     H4-    C2-    C8-    H3
     5      4      7      9      9     0.00   0.50208   3 ;     H4-    C2-    C8-    H6
     5      4      7     10      9     0.00   0.50208   3 ;     H4-    C2-    C8-    H7
     6      4      7      8      9     0.00   0.50208   3 ;     H5-    C2-    C8-    H3
     6      4      7      9      9     0.00   0.50208   3 ;     H5-    C2-    C8-    H6
     6      4      7     10      9     0.00   0.50208   3 ;     H5-    C2-    C8-    H7
    11      1      4      5      9     0.00   0.50208   3 ;     H8-    C1-    C2-    H4
    11      1      4      6      9     0.00   0.50208   3 ;     H8-    C1-    C2-    H5
    11      1      4      7      9     0.00   0.54392   3 ;     H8-    C1-    C2-    C8
