; mobley_3060426_GMX.itp created by acpype (v: 2023.10.27) on Thu May 14 13:39:59 2026

[ atomtypes ]
;name   bond_type     mass     charge   ptype   sigma         epsilon       Amb
 c3       c3          0.00000  0.00000   A     3.39771e-01   4.51035e-01 ; 1.91  0.1078
 hc       hc          0.00000  0.00000   A     2.60018e-01   8.70272e-02 ; 1.46  0.0208

[ moleculetype ]
;name            nrexcl
 mobley_3060426   3

[ atoms ]
;   nr  type  resi  res  atom  cgnr     charge      mass       ; qtot   bond_type
     1   c3     1   MOL    C1    1    -0.089100     12.01000 ; qtot -0.089
     2   c3     1   MOL    C2    2    -0.089100     12.01000 ; qtot -0.178
     3   c3     1   MOL    C3    3    -0.085767     12.01000 ; qtot -0.264
     4   c3     1   MOL    C4    4    -0.085767     12.01000 ; qtot -0.350
     5   c3     1   MOL    C5    5    -0.085767     12.01000 ; qtot -0.435
     6   c3     1   MOL    C6    6    -0.073400     12.01000 ; qtot -0.509
     7   c3     1   MOL    C7    7    -0.069400     12.01000 ; qtot -0.578
     8   c3     1   MOL    C8    8    -0.066700     12.01000 ; qtot -0.645
     9   c3     1   MOL    C9    9    -0.056000     12.01000 ; qtot -0.701
    10   hc     1   MOL    H1   10     0.033033      1.00800 ; qtot -0.668
    11   hc     1   MOL    H2   11     0.033033      1.00800 ; qtot -0.635
    12   hc     1   MOL    H3   12     0.033033      1.00800 ; qtot -0.602
    13   hc     1   MOL    H4   13     0.033033      1.00800 ; qtot -0.569
    14   hc     1   MOL    H5   14     0.033033      1.00800 ; qtot -0.536
    15   hc     1   MOL    H6   15     0.033033      1.00800 ; qtot -0.503
    16   hc     1   MOL    H7   16     0.033478      1.00800 ; qtot -0.469
    17   hc     1   MOL    H8   17     0.033478      1.00800 ; qtot -0.436
    18   hc     1   MOL    H9   18     0.033478      1.00800 ; qtot -0.402
    19   hc     1   MOL   H10   19     0.033478      1.00800 ; qtot -0.369
    20   hc     1   MOL   H11   20     0.033478      1.00800 ; qtot -0.335
    21   hc     1   MOL   H12   21     0.033478      1.00800 ; qtot -0.302
    22   hc     1   MOL   H13   22     0.033478      1.00800 ; qtot -0.268
    23   hc     1   MOL   H14   23     0.033478      1.00800 ; qtot -0.235
    24   hc     1   MOL   H15   24     0.033478      1.00800 ; qtot -0.201
    25   hc     1   MOL   H16   25     0.039700      1.00800 ; qtot -0.162
    26   hc     1   MOL   H17   26     0.039700      1.00800 ; qtot -0.122
    27   hc     1   MOL   H18   27     0.040200      1.00800 ; qtot -0.082
    28   hc     1   MOL   H19   28     0.040200      1.00800 ; qtot -0.042
    29   hc     1   MOL   H20   29     0.041700      1.00800 ; qtot 0.000

[ bonds ]
;   ai     aj funct   r             k
     1      8   1    1.5354e-01    1.9154e+05 ;     C1 - C8    
     1     10   1    1.0962e-01    2.8891e+05 ;     C1 - H1    
     1     11   1    1.0962e-01    2.8891e+05 ;     C1 - H2    
     1     12   1    1.0962e-01    2.8891e+05 ;     C1 - H3    
     2      8   1    1.5354e-01    1.9154e+05 ;     C2 - C8    
     2     13   1    1.0962e-01    2.8891e+05 ;     C2 - H4    
     2     14   1    1.0962e-01    2.8891e+05 ;     C2 - H5    
     2     15   1    1.0962e-01    2.8891e+05 ;     C2 - H6    
     3      9   1    1.5354e-01    1.9154e+05 ;     C3 - C9    
     3     16   1    1.0962e-01    2.8891e+05 ;     C3 - H7    
     3     17   1    1.0962e-01    2.8891e+05 ;     C3 - H8    
     3     18   1    1.0962e-01    2.8891e+05 ;     C3 - H9    
     4      9   1    1.5354e-01    1.9154e+05 ;     C4 - C9    
     4     19   1    1.0962e-01    2.8891e+05 ;     C4 - H10   
     4     20   1    1.0962e-01    2.8891e+05 ;     C4 - H11   
     4     21   1    1.0962e-01    2.8891e+05 ;     C4 - H12   
     5      9   1    1.5354e-01    1.9154e+05 ;     C5 - C9    
     5     22   1    1.0962e-01    2.8891e+05 ;     C5 - H13   
     5     23   1    1.0962e-01    2.8891e+05 ;     C5 - H14   
     5     24   1    1.0962e-01    2.8891e+05 ;     C5 - H15   
     6      7   1    1.5354e-01    1.9154e+05 ;     C6 - C7    
     6      8   1    1.5354e-01    1.9154e+05 ;     C6 - C8    
     6     25   1    1.0962e-01    2.8891e+05 ;     C6 - H16   
     6     26   1    1.0962e-01    2.8891e+05 ;     C6 - H17   
     7      9   1    1.5354e-01    1.9154e+05 ;     C7 - C9    
     7     27   1    1.0962e-01    2.8891e+05 ;     C7 - H18   
     7     28   1    1.0962e-01    2.8891e+05 ;     C7 - H19   
     8     29   1    1.0962e-01    2.8891e+05 ;     C8 - H20   

[ pairs ]
;   ai     aj    funct
     1      7      1 ;     C1 - C7    
     1     13      1 ;     C1 - H4    
     1     14      1 ;     C1 - H5    
     1     15      1 ;     C1 - H6    
     1     25      1 ;     C1 - H16   
     1     26      1 ;     C1 - H17   
     2      7      1 ;     C2 - C7    
     2     25      1 ;     C2 - H16   
     2     26      1 ;     C2 - H17   
     3      6      1 ;     C3 - C6    
     3     19      1 ;     C3 - H10   
     3     20      1 ;     C3 - H11   
     3     21      1 ;     C3 - H12   
     3     22      1 ;     C3 - H13   
     3     23      1 ;     C3 - H14   
     3     24      1 ;     C3 - H15   
     3     27      1 ;     C3 - H18   
     3     28      1 ;     C3 - H19   
     4      6      1 ;     C4 - C6    
     4     16      1 ;     C4 - H7    
     4     17      1 ;     C4 - H8    
     4     18      1 ;     C4 - H9    
     4     22      1 ;     C4 - H13   
     4     23      1 ;     C4 - H14   
     4     24      1 ;     C4 - H15   
     4     27      1 ;     C4 - H18   
     4     28      1 ;     C4 - H19   
     5      6      1 ;     C5 - C6    
     5     16      1 ;     C5 - H7    
     5     17      1 ;     C5 - H8    
     5     18      1 ;     C5 - H9    
     5     19      1 ;     C5 - H10   
     5     20      1 ;     C5 - H11   
     5     21      1 ;     C5 - H12   
     5     27      1 ;     C5 - H18   
     5     28      1 ;     C5 - H19   
     6     13      1 ;     C6 - H4    
     6     14      1 ;     C6 - H5    
     6     15      1 ;     C6 - H6    
     7     16      1 ;     C7 - H7    
     7     17      1 ;     C7 - H8    
     7     18      1 ;     C7 - H9    
     7     19      1 ;     C7 - H10   
     7     20      1 ;     C7 - H11   
     7     21      1 ;     C7 - H12   
     7     22      1 ;     C7 - H13   
     7     23      1 ;     C7 - H14   
     7     24      1 ;     C7 - H15   
     7     29      1 ;     C7 - H20   
     8      9      1 ;     C8 - C9    
     8     27      1 ;     C8 - H18   
     8     28      1 ;     C8 - H19   
     9     25      1 ;     C9 - H16   
     9     26      1 ;     C9 - H17   
    10      2      1 ;     H1 - C2    
    10      6      1 ;     H1 - C6    
    10     29      1 ;     H1 - H20   
    11      2      1 ;     H2 - C2    
    11      6      1 ;     H2 - C6    
    11     29      1 ;     H2 - H20   
    12      2      1 ;     H3 - C2    
    12      6      1 ;     H3 - C6    
    12     29      1 ;     H3 - H20   
    13     29      1 ;     H4 - H20   
    14     29      1 ;     H5 - H20   
    15     29      1 ;     H6 - H20   
    25     27      1 ;    H16 - H18   
    25     28      1 ;    H16 - H19   
    25     29      1 ;    H16 - H20   
    26     27      1 ;    H17 - H18   
    26     28      1 ;    H17 - H19   
    26     29      1 ;    H17 - H20   

[ angles ]
;   ai     aj     ak    funct   theta         cth
     1      8      2      1    1.1263e+02    5.0099e+02 ;     C1 - C8     - C2    
     1      8      6      1    1.1263e+02    5.0099e+02 ;     C1 - C8     - C6    
     1      8     29      1    1.0968e+02    3.6208e+02 ;     C1 - C8     - H20   
     2      8      6      1    1.1263e+02    5.0099e+02 ;     C2 - C8     - C6    
     2      8     29      1    1.0968e+02    3.6208e+02 ;     C2 - C8     - H20   
     3      9      4      1    1.1263e+02    5.0099e+02 ;     C3 - C9     - C4    
     3      9      5      1    1.1263e+02    5.0099e+02 ;     C3 - C9     - C5    
     3      9      7      1    1.1263e+02    5.0099e+02 ;     C3 - C9     - C7    
     4      9      5      1    1.1263e+02    5.0099e+02 ;     C4 - C9     - C5    
     4      9      7      1    1.1263e+02    5.0099e+02 ;     C4 - C9     - C7    
     5      9      7      1    1.1263e+02    5.0099e+02 ;     C5 - C9     - C7    
     6      7      9      1    1.1263e+02    5.0099e+02 ;     C6 - C7     - C9    
     6      7     27      1    1.0968e+02    3.6208e+02 ;     C6 - C7     - H18   
     6      7     28      1    1.0968e+02    3.6208e+02 ;     C6 - C7     - H19   
     6      8     29      1    1.0968e+02    3.6208e+02 ;     C6 - C8     - H20   
     7      6      8      1    1.1263e+02    5.0099e+02 ;     C7 - C6     - C8    
     7      6     25      1    1.0968e+02    3.6208e+02 ;     C7 - C6     - H16   
     7      6     26      1    1.0968e+02    3.6208e+02 ;     C7 - C6     - H17   
     8      1     10      1    1.0968e+02    3.6208e+02 ;     C8 - C1     - H1    
     8      1     11      1    1.0968e+02    3.6208e+02 ;     C8 - C1     - H2    
     8      1     12      1    1.0968e+02    3.6208e+02 ;     C8 - C1     - H3    
     8      2     13      1    1.0968e+02    3.6208e+02 ;     C8 - C2     - H4    
     8      2     14      1    1.0968e+02    3.6208e+02 ;     C8 - C2     - H5    
     8      2     15      1    1.0968e+02    3.6208e+02 ;     C8 - C2     - H6    
     8      6     25      1    1.0968e+02    3.6208e+02 ;     C8 - C6     - H16   
     8      6     26      1    1.0968e+02    3.6208e+02 ;     C8 - C6     - H17   
     9      3     16      1    1.0968e+02    3.6208e+02 ;     C9 - C3     - H7    
     9      3     17      1    1.0968e+02    3.6208e+02 ;     C9 - C3     - H8    
     9      3     18      1    1.0968e+02    3.6208e+02 ;     C9 - C3     - H9    
     9      4     19      1    1.0968e+02    3.6208e+02 ;     C9 - C4     - H10   
     9      4     20      1    1.0968e+02    3.6208e+02 ;     C9 - C4     - H11   
     9      4     21      1    1.0968e+02    3.6208e+02 ;     C9 - C4     - H12   
     9      5     22      1    1.0968e+02    3.6208e+02 ;     C9 - C5     - H13   
     9      5     23      1    1.0968e+02    3.6208e+02 ;     C9 - C5     - H14   
     9      5     24      1    1.0968e+02    3.6208e+02 ;     C9 - C5     - H15   
     9      7     27      1    1.0968e+02    3.6208e+02 ;     C9 - C7     - H18   
     9      7     28      1    1.0968e+02    3.6208e+02 ;     C9 - C7     - H19   
    10      1     11      1    1.0773e+02    2.9957e+02 ;     H1 - C1     - H2    
    10      1     12      1    1.0773e+02    2.9957e+02 ;     H1 - C1     - H3    
    11      1     12      1    1.0773e+02    2.9957e+02 ;     H2 - C1     - H3    
    13      2     14      1    1.0773e+02    2.9957e+02 ;     H4 - C2     - H5    
    13      2     15      1    1.0773e+02    2.9957e+02 ;     H4 - C2     - H6    
    14      2     15      1    1.0773e+02    2.9957e+02 ;     H5 - C2     - H6    
    16      3     17      1    1.0773e+02    2.9957e+02 ;     H7 - C3     - H8    
    16      3     18      1    1.0773e+02    2.9957e+02 ;     H7 - C3     - H9    
    17      3     18      1    1.0773e+02    2.9957e+02 ;     H8 - C3     - H9    
    19      4     20      1    1.0773e+02    2.9957e+02 ;    H10 - C4     - H11   
    19      4     21      1    1.0773e+02    2.9957e+02 ;    H10 - C4     - H12   
    20      4     21      1    1.0773e+02    2.9957e+02 ;    H11 - C4     - H12   
    22      5     23      1    1.0773e+02    2.9957e+02 ;    H13 - C5     - H14   
    22      5     24      1    1.0773e+02    2.9957e+02 ;    H13 - C5     - H15   
    23      5     24      1    1.0773e+02    2.9957e+02 ;    H14 - C5     - H15   
    25      6     26      1    1.0773e+02    2.9957e+02 ;    H16 - C6     - H17   
    27      7     28      1    1.0773e+02    2.9957e+02 ;    H18 - C7     - H19   

[ dihedrals ] ; propers
; for gromacs 4.5 or higher, using funct 9
;    i      j      k      l   func   phase     kd      pn
     1      8      2     13      9     0.00   0.54392   3 ;     C1-    C8-    C2-    H4
     1      8      2     14      9     0.00   0.54392   3 ;     C1-    C8-    C2-    H5
     1      8      2     15      9     0.00   0.54392   3 ;     C1-    C8-    C2-    H6
     1      8      6      7      9     0.00   2.17568   3 ;     C1-    C8-    C6-    C7
     1      8      6     25      9     0.00   0.54392   3 ;     C1-    C8-    C6-   H16
     1      8      6     26      9     0.00   0.54392   3 ;     C1-    C8-    C6-   H17
     2      8      6      7      9     0.00   2.17568   3 ;     C2-    C8-    C6-    C7
     2      8      6     25      9     0.00   0.54392   3 ;     C2-    C8-    C6-   H16
     2      8      6     26      9     0.00   0.54392   3 ;     C2-    C8-    C6-   H17
     3      9      4     19      9     0.00   0.54392   3 ;     C3-    C9-    C4-   H10
     3      9      4     20      9     0.00   0.54392   3 ;     C3-    C9-    C4-   H11
     3      9      4     21      9     0.00   0.54392   3 ;     C3-    C9-    C4-   H12
     3      9      5     22      9     0.00   0.54392   3 ;     C3-    C9-    C5-   H13
     3      9      5     23      9     0.00   0.54392   3 ;     C3-    C9-    C5-   H14
     3      9      5     24      9     0.00   0.54392   3 ;     C3-    C9-    C5-   H15
     3      9      7      6      9     0.00   2.17568   3 ;     C3-    C9-    C7-    C6
     3      9      7     27      9     0.00   0.54392   3 ;     C3-    C9-    C7-   H18
     3      9      7     28      9     0.00   0.54392   3 ;     C3-    C9-    C7-   H19
     4      9      3     16      9     0.00   0.54392   3 ;     C4-    C9-    C3-    H7
     4      9      3     17      9     0.00   0.54392   3 ;     C4-    C9-    C3-    H8
     4      9      3     18      9     0.00   0.54392   3 ;     C4-    C9-    C3-    H9
     4      9      5     22      9     0.00   0.54392   3 ;     C4-    C9-    C5-   H13
     4      9      5     23      9     0.00   0.54392   3 ;     C4-    C9-    C5-   H14
     4      9      5     24      9     0.00   0.54392   3 ;     C4-    C9-    C5-   H15
     4      9      7      6      9     0.00   2.17568   3 ;     C4-    C9-    C7-    C6
     4      9      7     27      9     0.00   0.54392   3 ;     C4-    C9-    C7-   H18
     4      9      7     28      9     0.00   0.54392   3 ;     C4-    C9-    C7-   H19
     5      9      3     16      9     0.00   0.54392   3 ;     C5-    C9-    C3-    H7
     5      9      3     17      9     0.00   0.54392   3 ;     C5-    C9-    C3-    H8
     5      9      3     18      9     0.00   0.54392   3 ;     C5-    C9-    C3-    H9
     5      9      4     19      9     0.00   0.54392   3 ;     C5-    C9-    C4-   H10
     5      9      4     20      9     0.00   0.54392   3 ;     C5-    C9-    C4-   H11
     5      9      4     21      9     0.00   0.54392   3 ;     C5-    C9-    C4-   H12
     5      9      7      6      9     0.00   2.17568   3 ;     C5-    C9-    C7-    C6
     5      9      7     27      9     0.00   0.54392   3 ;     C5-    C9-    C7-   H18
     5      9      7     28      9     0.00   0.54392   3 ;     C5-    C9-    C7-   H19
     6      8      2     13      9     0.00   0.54392   3 ;     C6-    C8-    C2-    H4
     6      8      2     14      9     0.00   0.54392   3 ;     C6-    C8-    C2-    H5
     6      8      2     15      9     0.00   0.54392   3 ;     C6-    C8-    C2-    H6
     7      6      8     29      9     0.00   0.54392   3 ;     C7-    C6-    C8-   H20
     7      9      3     16      9     0.00   0.54392   3 ;     C7-    C9-    C3-    H7
     7      9      3     17      9     0.00   0.54392   3 ;     C7-    C9-    C3-    H8
     7      9      3     18      9     0.00   0.54392   3 ;     C7-    C9-    C3-    H9
     7      9      4     19      9     0.00   0.54392   3 ;     C7-    C9-    C4-   H10
     7      9      4     20      9     0.00   0.54392   3 ;     C7-    C9-    C4-   H11
     7      9      4     21      9     0.00   0.54392   3 ;     C7-    C9-    C4-   H12
     7      9      5     22      9     0.00   0.54392   3 ;     C7-    C9-    C5-   H13
     7      9      5     23      9     0.00   0.54392   3 ;     C7-    C9-    C5-   H14
     7      9      5     24      9     0.00   0.54392   3 ;     C7-    C9-    C5-   H15
     8      6      7      9      9     0.00   2.17568   3 ;     C8-    C6-    C7-    C9
     8      6      7     27      9     0.00   0.54392   3 ;     C8-    C6-    C7-   H18
     8      6      7     28      9     0.00   0.54392   3 ;     C8-    C6-    C7-   H19
     9      7      6     25      9     0.00   0.54392   3 ;     C9-    C7-    C6-   H16
     9      7      6     26      9     0.00   0.54392   3 ;     C9-    C7-    C6-   H17
    10      1      8      2      9     0.00   0.54392   3 ;     H1-    C1-    C8-    C2
    10      1      8      6      9     0.00   0.54392   3 ;     H1-    C1-    C8-    C6
    10      1      8     29      9     0.00   0.50208   3 ;     H1-    C1-    C8-   H20
    11      1      8      2      9     0.00   0.54392   3 ;     H2-    C1-    C8-    C2
    11      1      8      6      9     0.00   0.54392   3 ;     H2-    C1-    C8-    C6
    11      1      8     29      9     0.00   0.50208   3 ;     H2-    C1-    C8-   H20
    12      1      8      2      9     0.00   0.54392   3 ;     H3-    C1-    C8-    C2
    12      1      8      6      9     0.00   0.54392   3 ;     H3-    C1-    C8-    C6
    12      1      8     29      9     0.00   0.50208   3 ;     H3-    C1-    C8-   H20
    13      2      8     29      9     0.00   0.50208   3 ;     H4-    C2-    C8-   H20
    14      2      8     29      9     0.00   0.50208   3 ;     H5-    C2-    C8-   H20
    15      2      8     29      9     0.00   0.50208   3 ;     H6-    C2-    C8-   H20
    25      6      7     27      9     0.00   0.50208   3 ;    H16-    C6-    C7-   H18
    25      6      7     28      9     0.00   0.50208   3 ;    H16-    C6-    C7-   H19
    25      6      8     29      9     0.00   0.50208   3 ;    H16-    C6-    C8-   H20
    26      6      7     27      9     0.00   0.50208   3 ;    H17-    C6-    C7-   H18
    26      6      7     28      9     0.00   0.50208   3 ;    H17-    C6-    C7-   H19
    26      6      8     29      9     0.00   0.50208   3 ;    H17-    C6-    C8-   H20
