; mobley_3686115_GMX.itp created by acpype (v: 2023.10.27) on Thu May 14 13:16:00 2026

[ atomtypes ]
;name   bond_type     mass     charge   ptype   sigma         epsilon       Amb
 c3       c3          0.00000  0.00000   A     3.39771e-01   4.51035e-01 ; 1.91  0.1078
 os       os          0.00000  0.00000   A     3.15610e-01   3.03758e-01 ; 1.77  0.0726
 hc       hc          0.00000  0.00000   A     2.60018e-01   8.70272e-02 ; 1.46  0.0208
 h1       h1          0.00000  0.00000   A     2.42200e-01   8.70272e-02 ; 1.36  0.0208
 h2       h2          0.00000  0.00000   A     2.24382e-01   8.70272e-02 ; 1.26  0.0208

[ moleculetype ]
;name            nrexcl
 mobley_3686115   3

[ atoms ]
;   nr  type  resi  res  atom  cgnr     charge      mass       ; qtot   bond_type
     1   c3     1   MOL    C1    1    -0.096100     12.01000 ; qtot -0.096
     2   c3     1   MOL    C2    2    -0.096100     12.01000 ; qtot -0.192
     3   c3     1   MOL    C3    3    -0.117100     12.01000 ; qtot -0.309
     4   c3     1   MOL    C4    4     0.131900     12.01000 ; qtot -0.177
     5   c3     1   MOL    C5    5     0.131900     12.01000 ; qtot -0.046
     6   c3     1   MOL    C6    6     0.330900     12.01000 ; qtot 0.285
     7   os     1   MOL    O1    7    -0.453600     16.00000 ; qtot -0.168
     8   os     1   MOL    O2    8    -0.453600     16.00000 ; qtot -0.622
     9   hc     1   MOL    H1    9     0.043200      1.00800 ; qtot -0.579
    10   hc     1   MOL    H2   10     0.043200      1.00800 ; qtot -0.535
    11   hc     1   MOL    H3   11     0.043200      1.00800 ; qtot -0.492
    12   hc     1   MOL    H4   12     0.043200      1.00800 ; qtot -0.449
    13   hc     1   MOL    H5   13     0.043200      1.00800 ; qtot -0.406
    14   hc     1   MOL    H6   14     0.043200      1.00800 ; qtot -0.363
    15   hc     1   MOL    H7   15     0.053367      1.00800 ; qtot -0.309
    16   hc     1   MOL    H8   16     0.053367      1.00800 ; qtot -0.256
    17   hc     1   MOL    H9   17     0.053367      1.00800 ; qtot -0.202
    18   h1     1   MOL   H10   18     0.033450      1.00800 ; qtot -0.169
    19   h1     1   MOL   H11   19     0.033450      1.00800 ; qtot -0.136
    20   h1     1   MOL   H12   20     0.033450      1.00800 ; qtot -0.102
    21   h1     1   MOL   H13   21     0.033450      1.00800 ; qtot -0.069
    22   h2     1   MOL   H14   22     0.068700      1.00800 ; qtot 0.000

[ bonds ]
;   ai     aj funct   r             k
     1      4   1    1.5354e-01    1.9154e+05 ;     C1 - C4    
     1      9   1    1.0962e-01    2.8891e+05 ;     C1 - H1    
     1     10   1    1.0962e-01    2.8891e+05 ;     C1 - H2    
     1     11   1    1.0962e-01    2.8891e+05 ;     C1 - H3    
     2      5   1    1.5354e-01    1.9154e+05 ;     C2 - C5    
     2     12   1    1.0962e-01    2.8891e+05 ;     C2 - H4    
     2     13   1    1.0962e-01    2.8891e+05 ;     C2 - H5    
     2     14   1    1.0962e-01    2.8891e+05 ;     C2 - H6    
     3      6   1    1.5354e-01    1.9154e+05 ;     C3 - C6    
     3     15   1    1.0962e-01    2.8891e+05 ;     C3 - H7    
     3     16   1    1.0962e-01    2.8891e+05 ;     C3 - H8    
     3     17   1    1.0962e-01    2.8891e+05 ;     C3 - H9    
     4      7   1    1.4273e-01    2.3620e+05 ;     C4 - O1    
     4     18   1    1.0969e-01    2.8804e+05 ;     C4 - H10   
     4     19   1    1.0969e-01    2.8804e+05 ;     C4 - H11   
     5      8   1    1.4273e-01    2.3620e+05 ;     C5 - O2    
     5     20   1    1.0969e-01    2.8804e+05 ;     C5 - H12   
     5     21   1    1.0969e-01    2.8804e+05 ;     C5 - H13   
     6      7   1    1.4273e-01    2.3620e+05 ;     C6 - O1    
     6      8   1    1.4273e-01    2.3620e+05 ;     C6 - O2    
     6     22   1    1.0950e-01    2.9039e+05 ;     C6 - H14   

[ pairs ]
;   ai     aj    funct
     1      6      1 ;     C1 - C6    
     2      6      1 ;     C2 - C6    
     3      4      1 ;     C3 - C4    
     3      5      1 ;     C3 - C5    
     4      8      1 ;     C4 - O2    
     4     22      1 ;     C4 - H14   
     5      7      1 ;     C5 - O1    
     5     22      1 ;     C5 - H14   
     6     18      1 ;     C6 - H10   
     6     19      1 ;     C6 - H11   
     6     20      1 ;     C6 - H12   
     6     21      1 ;     C6 - H13   
     7     15      1 ;     O1 - H7    
     7     16      1 ;     O1 - H8    
     7     17      1 ;     O1 - H9    
     8     12      1 ;     O2 - H4    
     8     13      1 ;     O2 - H5    
     8     14      1 ;     O2 - H6    
     8     15      1 ;     O2 - H7    
     8     16      1 ;     O2 - H8    
     8     17      1 ;     O2 - H9    
     9      7      1 ;     H1 - O1    
     9     18      1 ;     H1 - H10   
     9     19      1 ;     H1 - H11   
    10      7      1 ;     H2 - O1    
    10     18      1 ;     H2 - H10   
    10     19      1 ;     H2 - H11   
    11      7      1 ;     H3 - O1    
    11     18      1 ;     H3 - H10   
    11     19      1 ;     H3 - H11   
    12     20      1 ;     H4 - H12   
    12     21      1 ;     H4 - H13   
    13     20      1 ;     H5 - H12   
    13     21      1 ;     H5 - H13   
    14     20      1 ;     H6 - H12   
    14     21      1 ;     H6 - H13   
    15     22      1 ;     H7 - H14   
    16     22      1 ;     H8 - H14   
    17     22      1 ;     H9 - H14   

[ angles ]
;   ai     aj     ak    funct   theta         cth
     1      4      7      1    1.0762e+02    6.4802e+02 ;     C1 - C4     - O1    
     1      4     18      1    1.0959e+02    3.6217e+02 ;     C1 - C4     - H10   
     1      4     19      1    1.0959e+02    3.6217e+02 ;     C1 - C4     - H11   
     2      5      8      1    1.0762e+02    6.4802e+02 ;     C2 - C5     - O2    
     2      5     20      1    1.0959e+02    3.6217e+02 ;     C2 - C5     - H12   
     2      5     21      1    1.0959e+02    3.6217e+02 ;     C2 - C5     - H13   
     3      6      7      1    1.0762e+02    6.4802e+02 ;     C3 - C6     - O1    
     3      6      8      1    1.0762e+02    6.4802e+02 ;     C3 - C6     - O2    
     3      6     22      1    1.1042e+02    3.6091e+02 ;     C3 - C6     - H14   
     4      1      9      1    1.0968e+02    3.6208e+02 ;     C4 - C1     - H1    
     4      1     10      1    1.0968e+02    3.6208e+02 ;     C4 - C1     - H2    
     4      1     11      1    1.0968e+02    3.6208e+02 ;     C4 - C1     - H3    
     4      7      6      1    1.1360e+02    7.3915e+02 ;     C4 - O1     - C6    
     5      2     12      1    1.0968e+02    3.6208e+02 ;     C5 - C2     - H4    
     5      2     13      1    1.0968e+02    3.6208e+02 ;     C5 - C2     - H5    
     5      2     14      1    1.0968e+02    3.6208e+02 ;     C5 - C2     - H6    
     5      8      6      1    1.1360e+02    7.3915e+02 ;     C5 - O2     - C6    
     6      3     15      1    1.0968e+02    3.6208e+02 ;     C6 - C3     - H7    
     6      3     16      1    1.0968e+02    3.6208e+02 ;     C6 - C3     - H8    
     6      3     17      1    1.0968e+02    3.6208e+02 ;     C6 - C3     - H9    
     7      4     18      1    1.1034e+02    4.7028e+02 ;     O1 - C4     - H10   
     7      4     19      1    1.1034e+02    4.7028e+02 ;     O1 - C4     - H11   
     7      6      8      1    1.0789e+02    8.2375e+02 ;     O1 - C6     - O2    
     7      6     22      1    1.1103e+02    4.6894e+02 ;     O1 - C6     - H14   
     8      5     20      1    1.1034e+02    4.7028e+02 ;     O2 - C5     - H12   
     8      5     21      1    1.1034e+02    4.7028e+02 ;     O2 - C5     - H13   
     8      6     22      1    1.1103e+02    4.6894e+02 ;     O2 - C6     - H14   
     9      1     10      1    1.0773e+02    2.9957e+02 ;     H1 - C1     - H2    
     9      1     11      1    1.0773e+02    2.9957e+02 ;     H1 - C1     - H3    
    10      1     11      1    1.0773e+02    2.9957e+02 ;     H2 - C1     - H3    
    12      2     13      1    1.0773e+02    2.9957e+02 ;     H4 - C2     - H5    
    12      2     14      1    1.0773e+02    2.9957e+02 ;     H4 - C2     - H6    
    13      2     14      1    1.0773e+02    2.9957e+02 ;     H5 - C2     - H6    
    15      3     16      1    1.0773e+02    2.9957e+02 ;     H7 - C3     - H8    
    15      3     17      1    1.0773e+02    2.9957e+02 ;     H7 - C3     - H9    
    16      3     17      1    1.0773e+02    2.9957e+02 ;     H8 - C3     - H9    
    18      4     19      1    1.0855e+02    2.9824e+02 ;    H10 - C4     - H11   
    20      5     21      1    1.0855e+02    2.9824e+02 ;    H12 - C5     - H13   

[ dihedrals ] ; propers
; for gromacs 4.5 or higher, using funct 9
;    i      j      k      l   func   phase     kd      pn
     1      4      7      6      9     0.00   0.33472   2 ;     C1-    C4-    O1-    C6
     1      4      7      6      9     0.00   3.13800   3 ;     C1-    C4-    O1-    C6
     1      4      7      6      9   180.00   3.68192   1 ;     C1-    C4-    O1-    C6
     2      5      8      6      9     0.00   0.33472   2 ;     C2-    C5-    O2-    C6
     2      5      8      6      9     0.00   3.13800   3 ;     C2-    C5-    O2-    C6
     2      5      8      6      9   180.00   3.68192   1 ;     C2-    C5-    O2-    C6
     3      6      7      4      9     0.00   0.33472   2 ;     C3-    C6-    O1-    C4
     3      6      7      4      9     0.00   3.13800   3 ;     C3-    C6-    O1-    C4
     3      6      7      4      9   180.00   3.68192   1 ;     C3-    C6-    O1-    C4
     3      6      8      5      9     0.00   0.33472   2 ;     C3-    C6-    O2-    C5
     3      6      8      5      9     0.00   3.13800   3 ;     C3-    C6-    O2-    C5
     3      6      8      5      9   180.00   3.68192   1 ;     C3-    C6-    O2-    C5
     4      7      6      8      9     0.00   3.55640   2 ;     C4-    O1-    C6-    O2
     4      7      6      8      9     0.00   3.55640   3 ;     C4-    O1-    C6-    O2
     4      7      6      8      9   180.00   1.92464   1 ;     C4-    O1-    C6-    O2
     4      7      6     22      9     0.00   1.60387   3 ;     C4-    O1-    C6-   H14
     5      8      6      7      9     0.00   3.55640   2 ;     C5-    O2-    C6-    O1
     5      8      6      7      9     0.00   3.55640   3 ;     C5-    O2-    C6-    O1
     5      8      6      7      9   180.00   1.92464   1 ;     C5-    O2-    C6-    O1
     5      8      6     22      9     0.00   1.60387   3 ;     C5-    O2-    C6-   H14
     6      7      4     18      9     0.00   1.41001   3 ;     C6-    O1-    C4-   H10
     6      7      4     19      9     0.00   1.41001   3 ;     C6-    O1-    C4-   H11
     6      8      5     20      9     0.00   1.41001   3 ;     C6-    O2-    C5-   H12
     6      8      5     21      9     0.00   1.41001   3 ;     C6-    O2-    C5-   H13
     7      6      3     15      9     0.00   0.00000   0 ;     O1-    C6-    C3-    H7
     7      6      3     15      9     0.00   1.04600   1 ;     O1-    C6-    C3-    H7
     7      6      3     16      9     0.00   0.00000   0 ;     O1-    C6-    C3-    H8
     7      6      3     16      9     0.00   1.04600   1 ;     O1-    C6-    C3-    H8
     7      6      3     17      9     0.00   0.00000   0 ;     O1-    C6-    C3-    H9
     7      6      3     17      9     0.00   1.04600   1 ;     O1-    C6-    C3-    H9
     8      5      2     12      9     0.00   0.00000   0 ;     O2-    C5-    C2-    H4
     8      5      2     12      9     0.00   1.04600   1 ;     O2-    C5-    C2-    H4
     8      5      2     13      9     0.00   0.00000   0 ;     O2-    C5-    C2-    H5
     8      5      2     13      9     0.00   1.04600   1 ;     O2-    C5-    C2-    H5
     8      5      2     14      9     0.00   0.00000   0 ;     O2-    C5-    C2-    H6
     8      5      2     14      9     0.00   1.04600   1 ;     O2-    C5-    C2-    H6
     8      6      3     15      9     0.00   0.00000   0 ;     O2-    C6-    C3-    H7
     8      6      3     15      9     0.00   1.04600   1 ;     O2-    C6-    C3-    H7
     8      6      3     16      9     0.00   0.00000   0 ;     O2-    C6-    C3-    H8
     8      6      3     16      9     0.00   1.04600   1 ;     O2-    C6-    C3-    H8
     8      6      3     17      9     0.00   0.00000   0 ;     O2-    C6-    C3-    H9
     8      6      3     17      9     0.00   1.04600   1 ;     O2-    C6-    C3-    H9
     9      1      4      7      9     0.00   0.00000   0 ;     H1-    C1-    C4-    O1
     9      1      4      7      9     0.00   1.04600   1 ;     H1-    C1-    C4-    O1
     9      1      4     18      9     0.00   0.65084   3 ;     H1-    C1-    C4-   H10
     9      1      4     19      9     0.00   0.65084   3 ;     H1-    C1-    C4-   H11
    10      1      4      7      9     0.00   0.00000   0 ;     H2-    C1-    C4-    O1
    10      1      4      7      9     0.00   1.04600   1 ;     H2-    C1-    C4-    O1
    10      1      4     18      9     0.00   0.65084   3 ;     H2-    C1-    C4-   H10
    10      1      4     19      9     0.00   0.65084   3 ;     H2-    C1-    C4-   H11
    11      1      4      7      9     0.00   0.00000   0 ;     H3-    C1-    C4-    O1
    11      1      4      7      9     0.00   1.04600   1 ;     H3-    C1-    C4-    O1
    11      1      4     18      9     0.00   0.65084   3 ;     H3-    C1-    C4-   H10
    11      1      4     19      9     0.00   0.65084   3 ;     H3-    C1-    C4-   H11
    12      2      5     20      9     0.00   0.65084   3 ;     H4-    C2-    C5-   H12
    12      2      5     21      9     0.00   0.65084   3 ;     H4-    C2-    C5-   H13
    13      2      5     20      9     0.00   0.65084   3 ;     H5-    C2-    C5-   H12
    13      2      5     21      9     0.00   0.65084   3 ;     H5-    C2-    C5-   H13
    14      2      5     20      9     0.00   0.65084   3 ;     H6-    C2-    C5-   H12
    14      2      5     21      9     0.00   0.65084   3 ;     H6-    C2-    C5-   H13
    15      3      6     22      9     0.00   0.65084   3 ;     H7-    C3-    C6-   H14
    16      3      6     22      9     0.00   0.65084   3 ;     H8-    C3-    C6-   H14
    17      3      6     22      9     0.00   0.65084   3 ;     H9-    C3-    C6-   H14
