mobley_5282042_GMX.gro created by acpype (v: 2023.10.27) on Thu May 14 13:33:07 2026
 3065
    1MOL     C1    1   1.863   1.849   1.868
    1MOL     C2    2   1.573   1.699   1.246
    1MOL     C3    3   1.988   1.793   1.848
    1MOL     C4    4   1.654   1.599   1.193
    1MOL     C5    5   1.754   1.806   1.792
    1MOL     C6    6   1.570   1.721   1.384
    1MOL     C7    7   2.004   1.694   1.751
    1MOL     C8    8   1.733   1.521   1.278
    1MOL     C9    9   1.768   1.704   1.695
    1MOL    C10   10   1.650   1.643   1.470
    1MOL    C11   11   1.896   1.648   1.674
    1MOL    C12   12   1.732   1.543   1.416
    1MOL    C13   13   1.648   1.666   1.616
    1MOL    C14   14   1.532   1.640   1.679
    1MOL    C15   15   1.931   1.542   1.570
    1MOL    C16   16   1.819   1.459   1.507
    1MOL    C17   17   1.087   1.445   1.729
    1MOL    C18   18   1.212   1.373   1.537
    1MOL    C19   19   1.406   1.601   1.609
    1MOL    C20   20   1.314   1.518   1.699
    1MOL     N1   21   1.191   1.483   1.632
    1MOL     H1   22   1.849   1.926   1.944
    1MOL     H2   23   1.511   1.759   1.180
    1MOL     H3   24   2.073   1.826   1.908
    1MOL     H4   25   1.655   1.581   1.086
    1MOL     H5   26   1.657   1.852   1.811
    1MOL     H6   27   1.506   1.799   1.423
    1MOL     H7   28   2.104   1.652   1.736
    1MOL     H8   29   1.796   1.443   1.235
    1MOL     H9   30   1.530   1.650   1.787
    1MOL    H10   31   1.982   1.593   1.487
    1MOL    H11   32   2.004   1.474   1.615
    1MOL    H12   33   1.757   1.418   1.588
    1MOL    H13   34   1.858   1.373   1.453
    1MOL    H14   35   1.071   1.526   1.800
    1MOL    H15   36   1.117   1.355   1.784
    1MOL    H16   37   0.993   1.424   1.677
    1MOL    H17   38   1.290   1.400   1.464
    1MOL    H18   39   1.120   1.351   1.483
    1MOL    H19   40   1.244   1.282   1.590
    1MOL    H20   41   1.427   1.546   1.517
    1MOL    H21   42   1.354   1.693   1.580
    1MOL    H22   43   1.286   1.576   1.788
    1MOL    H23   44   1.362   1.426   1.731
    2SOL     OW   45   0.230   0.628   0.113
    2SOL    HW1   46   0.137   0.626   0.150
    2SOL    HW2   47   0.231   0.589   0.021
    3SOL     OW   48   0.225   0.275   0.996
    3SOL    HW1   49   0.260   0.258   1.088
    3SOL    HW2   50   0.137   0.230   0.984
    4SOL     OW   51   0.019   0.368   0.647
    4SOL    HW1   52  -0.063   0.411   0.686
    4SOL    HW2   53  -0.009   0.295   0.584
    5SOL     OW   54   0.569   1.275   1.165
    5SOL    HW1   55   0.476   1.268   1.128
    5SOL    HW2   56   0.580   1.364   1.209
    6SOL     OW   57   1.555   1.511   0.703
    6SOL    HW1   58   1.498   1.495   0.784
    6SOL    HW2   59   1.496   1.521   0.623
    7SOL     OW   60   1.135   0.703   0.717
    7SOL    HW1   61   1.192   0.781   0.692
    7SOL    HW2   62   1.075   0.729   0.793
    8SOL     OW   63   1.755   0.607   0.231
    8SOL    HW1   64   1.743   0.594   0.132
    8SOL    HW2   65   1.725   0.526   0.280
    9SOL     OW   66   0.768   1.144   1.023
    9SOL    HW1   67   0.690   1.161   1.083
    9SOL    HW2   68   0.802   1.231   0.987
   10SOL     OW   69   0.850   0.798   1.823
   10SOL    HW1   70   0.846   0.874   1.888
   10SOL    HW2   71   0.872   0.834   1.732
   11SOL     OW   72   0.685   1.012   0.665
   11SOL    HW1   73   0.754   0.996   0.735
   11SOL    HW2   74   0.612   1.069   0.703
   12SOL     OW   75   0.686   1.161   1.803
   12SOL    HW1   76   0.746   1.240   1.817
   12SOL    HW2   77   0.600   1.192   1.762
   13SOL     OW   78   0.335   1.435   1.061
   13SOL    HW1   79   0.257   1.404   1.008
   13SOL    HW2   80   0.393   1.493   1.004
   14SOL     OW   81   0.438   0.392   1.499
   14SOL    HW1   82   0.520   0.336   1.508
   14SOL    HW2   83   0.357   0.334   1.503
   15SOL     OW   84   1.603   0.447   0.737
   15SOL    HW1   85   1.529   0.493   0.687
   15SOL    HW2   86   1.654   0.515   0.790
   16SOL     OW   87   0.231   1.713   0.483
   16SOL    HW1   88   0.265   1.790   0.537
   16SOL    HW2   89   0.275   1.713   0.393
   17SOL     OW   90   0.230   1.434   0.538
   17SOL    HW1   91   0.204   1.530   0.538
   17SOL    HW2   92   0.159   1.380   0.583
   18SOL     OW   93   0.240   1.091   0.886
   18SOL    HW1   94   0.254   1.007   0.938
   18SOL    HW2   95   0.185   1.155   0.941
   19SOL     OW   96   0.620   1.786   1.439
   19SOL    HW1   97   0.528   1.769   1.474
   19SOL    HW2   98   0.648   1.878   1.465
   20SOL     OW   99   0.606   0.964   0.123
   20SOL    HW1  100   0.613   1.048   0.069
   20SOL    HW2  101   0.652   0.977   0.211
   21SOL     OW  102   1.594   0.114   1.480
   21SOL    HW1  103   1.576   0.181   1.408
   21SOL    HW2  104   1.591   0.160   1.569
   22SOL     OW  105   0.122   0.643   0.563
   22SOL    HW1  106   0.077   0.555   0.580
   22SOL    HW2  107   0.121   0.697   0.647
   23SOL     OW  108   1.842   1.767   0.359
   23SOL    HW1  109   1.896   1.738   0.439
   23SOL    HW2  110   1.872   1.857   0.330
   24SOL     OW  111   0.027   1.596   0.117
   24SOL    HW1  112   0.008   1.500   0.138
   24SOL    HW2  113  -0.006   1.654   0.192
   25SOL     OW  114   1.689   0.922   0.612
   25SOL    HW1  115   1.784   0.893   0.620
   25SOL    HW2  116   1.681   0.987   0.537
   26SOL     OW  117   1.641   1.108   0.432
   26SOL    HW1  118   1.727   1.110   0.380
   26SOL    HW2  119   1.655   1.155   0.520
   27SOL     OW  120   0.113   0.737   1.597
   27SOL    HW1  121   0.201   0.724   1.642
   27SOL    HW2  122   0.100   0.834   1.575
   28SOL     OW  123   0.613   1.365   0.726
   28SOL    HW1  124   0.564   1.278   0.735
   28SOL    HW2  125   0.590   1.408   0.639
   29SOL     OW  126   1.293   1.228   1.423
   29SOL    HW1  127   1.330   1.155   1.365
   29SOL    HW2  128   1.345   1.233   1.508
   30SOL     OW  129   0.809   0.004   0.502
   30SOL    HW1  130   0.849   0.095   0.493
   30SOL    HW2  131   0.709   0.012   0.508
   31SOL     OW  132   0.197   0.976   1.264
   31SOL    HW1  133   0.286   0.931   1.250
   31SOL    HW2  134   0.124   0.911   1.245
   32SOL     OW  135   1.525   0.999   0.190
   32SOL    HW1  136   1.462   0.923   0.203
   32SOL    HW2  137   1.573   1.017   0.276
   33SOL     OW  138   1.187   1.792   1.616
   33SOL    HW1  139   1.211   1.852   1.540
   33SOL    HW2  140   1.194   1.697   1.586
   34SOL     OW  141   0.317   0.251   1.801
   34SOL    HW1  142   0.388   0.322   1.807
   34SOL    HW2  143   0.229   0.290   1.829
   35SOL     OW  144   1.466   1.417   0.953
   35SOL    HW1  145   1.407   1.423   1.033
   35SOL    HW2  146   1.451   1.329   0.907
   36SOL     OW  147   1.667   1.714   0.572
   36SOL    HW1  148   1.626   1.691   0.484
   36SOL    HW2  149   1.649   1.640   0.637
   37SOL     OW  150   0.598   0.729   0.270
   37SOL    HW1  151   0.622   0.798   0.202
   37SOL    HW2  152   0.520   0.762   0.324
   38SOL     OW  153   1.281   0.345   0.944
   38SOL    HW1  154   1.195   0.295   0.931
   38SOL    HW2  155   1.343   0.291   1.000
   39SOL     OW  156   1.576   1.662   0.307
   39SOL    HW1  157   1.665   1.708   0.310
   39SOL    HW2  158   1.555   1.638   0.212
   40SOL     OW  159   0.807   0.605   1.465
   40SOL    HW1  160   0.760   0.602   1.554
   40SOL    HW2  161   0.756   0.550   1.399
   41SOL     OW  162   1.394   0.469   1.674
   41SOL    HW1  163   1.374   0.512   1.762
   41SOL    HW2  164   1.472   0.407   1.683
   42SOL     OW  165   0.973   0.890   1.572
   42SOL    HW1  166   1.019   0.806   1.543
   42SOL    HW2  167   0.917   0.924   1.497
   43SOL     OW  168   0.991   0.410   1.242
   43SOL    HW1  169   0.914   0.444   1.296
   43SOL    HW2  170   0.957   0.359   1.163
   44SOL     OW  171   1.041   0.701   0.429
   44SOL    HW1  172   1.067   0.697   0.525
   44SOL    HW2  173   0.956   0.650   0.415
   45SOL     OW  174   0.076   0.811   0.789
   45SOL    HW1  175   0.175   0.799   0.798
   45SOL    HW2  176   0.052   0.906   0.810
   46SOL     OW  177   0.130   1.821   1.571
   46SOL    HW1  178   0.120   1.806   1.670
   46SOL    HW2  179   0.044   1.857   1.535
   47SOL     OW  180   0.865   0.348   0.195
   47SOL    HW1  181   0.924   0.411   0.146
   47SOL    HW2  182   0.884   0.254   0.166
   48SOL     OW  183   1.719   0.585   1.831
   48SOL    HW1  184   1.693   0.674   1.795
   48SOL    HW2  185   1.717   0.517   1.758
   49SOL     OW  186   1.362   1.144   0.545
   49SOL    HW1  187   1.445   1.115   0.497
   49SOL    HW2  188   1.313   1.211   0.489
   50SOL     OW  189   0.550   0.196   0.885
   50SOL    HW1  190   0.545   0.191   0.985
   50SOL    HW2  191   0.552   0.292   0.856
   51SOL     OW  192   1.008   1.456   0.477
   51SOL    HW1  193   0.962   1.528   0.425
   51SOL    HW2  194   1.004   1.476   0.575
   52SOL     OW  195   0.351   1.801   0.853
   52SOL    HW1  196   0.401   1.715   0.859
   52SOL    HW2  197   0.416   1.878   0.850
   53SOL     OW  198   1.795   1.066   0.873
   53SOL    HW1  199   1.733   1.051   0.797
   53SOL    HW2  200   1.743   1.077   0.958
   54SOL     OW  201   0.321   0.943   0.242
   54SOL    HW1  202   0.403   0.982   0.200
   54SOL    HW2  203   0.294   0.861   0.193
   55SOL     OW  204   1.458   0.735   0.728
   55SOL    HW1  205   1.453   0.670   0.803
   55SOL    HW2  206   1.538   0.794   0.741
   56SOL     OW  207   0.461   1.266   1.727
   56SOL    HW1  208   0.411   1.267   1.641
   56SOL    HW2  209   0.398   1.248   1.803
   57SOL     OW  210   1.111   1.776   0.237
   57SOL    HW1  211   1.051   1.714   0.287
   57SOL    HW2  212   1.142   1.732   0.152
   58SOL     OW  213   0.202   0.285   1.498
   58SOL    HW1  214   0.122   0.345   1.485
   58SOL    HW2  215   0.192   0.236   1.584
   59SOL     OW  216   1.632   1.377   0.081
   59SOL    HW1  217   1.600   1.471   0.071
   59SOL    HW2  218   1.556   1.314   0.069
   60SOL     OW  219   0.464   1.743   0.323
   60SOL    HW1  220   0.497   1.782   0.409
   60SOL    HW2  221   0.540   1.736   0.258
   61SOL     OW  222   1.400   0.107   0.426
   61SOL    HW1  223   1.376   0.070   0.336
   61SOL    HW2  224   1.499   0.123   0.430
   62SOL     OW  225   0.249   1.785   1.241
   62SOL    HW1  226   0.306   1.720   1.291
   62SOL    HW2  227   0.233   1.752   1.148
   63SOL     OW  228   0.940   1.698   0.904
   63SOL    HW1  229   1.020   1.641   0.925
   63SOL    HW2  230   0.891   1.658   0.827
   64SOL     OW  231   0.382   0.700   0.480
   64SOL    HW1  232   0.427   0.610   0.477
   64SOL    HW2  233   0.288   0.689   0.513
   65SOL     OW  234   1.547   0.222   1.729
   65SOL    HW1  235   1.542   0.259   1.821
   65SOL    HW2  236   1.475   0.153   1.717
   66SOL     OW  237   0.614   0.122   0.117
   66SOL    HW1  238   0.712   0.100   0.124
   66SOL    HW2  239   0.583   0.105   0.024
   67SOL     OW  240   0.781   0.264   1.749
   67SOL    HW1  241   0.848   0.203   1.792
   67SOL    HW2  242   0.708   0.283   1.814
   68SOL     OW  243   0.888   1.514   1.195
   68SOL    HW1  244   0.865   1.489   1.101
   68SOL    HW2  245   0.949   1.445   1.234
   69SOL     OW  246   1.351   0.590   1.433
   69SOL    HW1  247   1.379   0.547   1.518
   69SOL    HW2  248   1.376   0.686   1.434
   70SOL     OW  249   0.803   1.402   0.924
   70SOL    HW1  250   0.893   1.416   0.882
   70SOL    HW2  251   0.732   1.404   0.853
   71SOL     OW  252   0.922   0.503   0.899
   71SOL    HW1  253   0.897   0.494   0.803
   71SOL    HW2  254   0.970   0.421   0.930
   72SOL     OW  255   0.539   0.064   0.512
   72SOL    HW1  256   0.458   0.065   0.570
   72SOL    HW2  257   0.542   0.147   0.457
   73SOL     OW  258   1.434   1.188   0.041
   73SOL    HW1  259   1.466   1.112   0.098
   73SOL    HW2  260   1.342   1.215   0.071
   74SOL     OW  261   0.297   0.035   0.171
   74SOL    HW1  262   0.346   0.119   0.150
   74SOL    HW2  263   0.359  -0.030   0.216
   75SOL     OW  264   0.935   0.236   0.480
   75SOL    HW1  265   0.887   0.277   0.402
   75SOL    HW2  266   1.034   0.234   0.461
   76SOL     OW  267   1.076   0.683   1.464
   76SOL    HW1  268   0.996   0.622   1.467
   76SOL    HW2  269   1.157   0.630   1.440
   77SOL     OW  270   1.227   1.570   0.793
   77SOL    HW1  271   1.248   1.644   0.728
   77SOL    HW2  272   1.295   1.570   0.866
   78SOL     OW  273   0.459   1.152   0.741
   78SOL    HW1  274   0.388   1.125   0.806
   78SOL    HW2  275   0.433   1.124   0.648
   79SOL     OW  276   1.271   1.797   0.591
   79SOL    HW1  277   1.315   1.861   0.527
   79SOL    HW2  278   1.221   1.849   0.661
   80SOL     OW  279   1.032   0.549   0.016
   80SOL    HW1  280   0.991   0.631  -0.023
   80SOL    HW2  281   1.096   0.575   0.089
   81SOL     OW  282   0.078   0.556   1.386
   81SOL    HW1  283   0.170   0.555   1.345
   81SOL    HW2  284   0.072   0.630   1.453
   82SOL     OW  285   0.561   0.222   1.147
   82SOL    HW1  286   0.599   0.138   1.184
   82SOL    HW2  287   0.473   0.241   1.191
   83SOL     OW  288   0.866   0.454   0.642
   83SOL    HW1  289   0.834   0.526   0.580
   83SOL    HW2  290   0.890   0.373   0.589
   84SOL     OW  291   1.017   0.039   0.753
   84SOL    HW1  292   0.945   0.044   0.684
   84SOL    HW2  293   0.993  -0.030   0.822
   85SOL     OW  294   1.429   1.173   0.867
   85SOL    HW1  295   1.374   1.089   0.860
   85SOL    HW2  296   1.455   1.202   0.775
   86SOL     OW  297   1.466   0.590   0.992
   86SOL    HW1  298   1.436   0.495   0.999
   86SOL    HW2  299   1.539   0.606   1.058
   87SOL     OW  300   1.857   0.833   0.377
   87SOL    HW1  301   1.899   0.769   0.441
   87SOL    HW2  302   1.819   0.782   0.299
   88SOL     OW  303   0.488   1.385   0.174
   88SOL    HW1  304   0.401   1.370   0.221
   88SOL    HW2  305   0.471   1.411   0.079
   89SOL     OW  306   1.664   1.280   0.657
   89SOL    HW1  307   1.763   1.288   0.671
   89SOL    HW2  308   1.619   1.364   0.688
   90SOL     OW  309   1.390   0.575   0.078
   90SOL    HW1  310   1.336   0.554   0.159
   90SOL    HW2  311   1.481   0.534   0.087
   91SOL     OW  312   0.527   0.256   0.328
   91SOL    HW1  313   0.554   0.197   0.253
   91SOL    HW2  314   0.527   0.351   0.297
   92SOL     OW  315   1.111   1.195   1.100
   92SOL    HW1  316   1.071   1.239   1.181
   92SOL    HW2  317   1.070   1.232   1.017
   93SOL     OW  318   1.638   1.099   1.079
   93SOL    HW1  319   1.643   1.180   1.138
   93SOL    HW2  320   1.552   1.101   1.028
   94SOL     OW  321   0.915   0.089   1.402
   94SOL    HW1  322   0.940   0.069   1.307
   94SOL    HW2  323   0.987   0.145   1.444
   95SOL     OW  324   0.980   1.116   1.719
   95SOL    HW1  325   0.881   1.122   1.729
   95SOL    HW2  326   1.003   1.036   1.663
   96SOL     OW  327   0.705   1.050   0.368
   96SOL    HW1  328   0.691   1.057   0.467
   96SOL    HW2  329   0.789   0.999   0.350
   97SOL     OW  330   0.410   0.813   1.251
   97SOL    HW1  331   0.496   0.825   1.301
   97SOL    HW2  332   0.368   0.726   1.278
   98SOL     OW  333   1.274   0.386   1.262
   98SOL    HW1  334   1.295   0.460   1.326
   98SOL    HW2  335   1.185   0.403   1.219
   99SOL     OW  336   0.064   1.564   1.331
   99SOL    HW1  337   0.018   1.646   1.297
   99SOL    HW2  338   0.162   1.583   1.340
  100SOL     OW  339   0.367   1.100   0.501
  100SOL    HW1  340   0.360   1.183   0.445
  100SOL    HW2  341   0.371   1.020   0.441
  101SOL     OW  342   0.566   0.537   0.865
  101SOL    HW1  343   0.578   0.603   0.791
  101SOL    HW2  344   0.612   0.571   0.948
  102SOL     OW  345   1.252   1.348   0.388
  102SOL    HW1  346   1.302   1.425   0.428
  102SOL    HW2  347   1.157   1.350   0.420
  103SOL     OW  348   1.272   1.445   1.142
  103SOL    HW1  349   1.319   1.458   1.229
  103SOL    HW2  350   1.206   1.371   1.151
  104SOL     OW  351   1.582   0.639   0.472
  104SOL    HW1  352   1.551   0.700   0.545
  104SOL    HW2  353   1.632   0.691   0.403
  105SOL     OW  354   0.354   1.510   1.329
  105SOL    HW1  355   0.333   1.466   1.242
  105SOL    HW2  356   0.451   1.536   1.332
  106SOL     OW  357   0.402   0.751   1.598
  106SOL    HW1  358   0.470   0.806   1.551
  106SOL    HW2  359   0.442   0.663   1.625
  107SOL     OW  360   1.587   0.779   1.670
  107SOL    HW1  361   1.495   0.817   1.665
  107SOL    HW2  362   1.647   0.826   1.605
  108SOL     OW  363   1.013   0.105   1.770
  108SOL    HW1  364   1.019   0.190   1.718
  108SOL    HW2  365   1.045   0.029   1.713
  109SOL     OW  366   0.504   0.050   1.740
  109SOL    HW1  367   0.462  -0.007   1.670
  109SOL    HW2  368   0.438   0.119   1.772
  110SOL     OW  369   0.573   0.870   1.029
  110SOL    HW1  370   0.617   0.959   1.020
  110SOL    HW2  371   0.510   0.870   1.106
  111SOL     OW  372   1.360   0.862   1.045
  111SOL    HW1  373   1.285   0.862   0.979
  111SOL    HW2  374   1.397   0.770   1.054
  112SOL     OW  375   1.209   0.525   0.275
  112SOL    HW1  376   1.222   0.441   0.329
  112SOL    HW2  377   1.180   0.599   0.335
  113SOL     OW  378   0.307   0.213   1.231
  113SOL    HW1  379   0.284   0.250   1.321
  113SOL    HW2  380   0.277   0.118   1.225
  114SOL     OW  381   0.037   1.310   1.282
  114SOL    HW1  382   0.090   1.261   1.350
  114SOL    HW2  383   0.059   1.408   1.287
  115SOL     OW  384   0.732   0.634   1.064
  115SOL    HW1  385   0.791   0.608   0.988
  115SOL    HW2  386   0.704   0.730   1.053
  116SOL     OW  387   1.728   0.935   1.854
  116SOL    HW1  388   1.682   0.928   1.765
  116SOL    HW2  389   1.666   0.979   1.920
  117SOL     OW  390   0.307   0.063   0.618
  117SOL    HW1  391   0.296   0.157   0.651
  117SOL    HW2  392   0.302   0.000   0.695
  118SOL     OW  393   1.622   0.367   0.374
  118SOL    HW1  394   1.624   0.291   0.438
  118SOL    HW2  395   1.574   0.444   0.414
  119SOL     OW  396   1.023   0.766   0.966
  119SOL    HW1  397   1.038   0.787   1.062
  119SOL    HW2  398   0.993   0.671   0.957
  120SOL     OW  399   0.350   0.898   1.804
  120SOL    HW1  400   0.426   0.942   1.852
  120SOL    HW2  401   0.385   0.851   1.722
  121SOL     OW  402   1.540   0.274   0.125
  121SOL    HW1  403   1.479   0.199   0.148
  121SOL    HW2  404   1.562   0.326   0.208
  122SOL     OW  405   1.303   0.838   0.042
  122SOL    HW1  406   1.337   0.745   0.057
  122SOL    HW2  407   1.321   0.865  -0.053
  123SOL     OW  408   1.068   1.333   0.849
  123SOL    HW1  409   1.075   1.249   0.794
  123SOL    HW2  410   1.130   1.402   0.813
  124SOL     OW  411   0.319   0.810   0.949
  124SOL    HW1  412   0.412   0.846   0.954
  124SOL    HW2  413   0.313   0.725   1.001
  125SOL     OW  414   0.339   0.509   1.006
  125SOL    HW1  415   0.287   0.426   0.989
  125SOL    HW2  416   0.416   0.514   0.942
  126SOL     OW  417   1.138   0.380   1.678
  126SOL    HW1  418   1.093   0.443   1.742
  126SOL    HW2  419   1.231   0.411   1.661
  127SOL     OW  420   1.160   0.207   1.477
  127SOL    HW1  421   1.160   0.271   1.554
  127SOL    HW2  422   1.188   0.255   1.394
  128SOL     OW  423   0.008   1.326   0.200
  128SOL    HW1  424  -0.085   1.347   0.169
  128SOL    HW2  425   0.018   1.227   0.213
  129SOL     OW  426   0.088   1.801   0.927
  129SOL    HW1  427   0.046   1.715   0.900
  129SOL    HW2  428   0.182   1.804   0.893
  130SOL     OW  429   0.504   1.568   0.910
  130SOL    HW1  430   0.570   1.642   0.919
  130SOL    HW2  431   0.548   1.489   0.868
  131SOL     OW  432   1.002   0.796   1.238
  131SOL    HW1  433   1.043   0.764   1.324
  131SOL    HW2  434   0.906   0.769   1.235
  132SOL     OW  435   0.040   0.544   1.114
  132SOL    HW1  436   0.125   0.511   1.073
  132SOL    HW2  437   0.053   0.559   1.212
  133SOL     OW  438   0.189   0.520   1.722
  133SOL    HW1  439   0.248   0.480   1.652
  133SOL    HW2  440   0.131   0.591   1.681
  134SOL     OW  441   1.369   0.950   1.660
  134SOL    HW1  442   1.408   1.039   1.680
  134SOL    HW2  443   1.379   0.930   1.563
  135SOL     OW  444   0.815   0.572   0.325
  135SOL    HW1  445   0.822   0.483   0.279
  135SOL    HW2  446   0.721   0.606   0.317
  136SOL     OW  447   1.657   0.604   1.206
  136SOL    HW1  448   1.619   0.535   1.268
  136SOL    HW2  449   1.739   0.568   1.162
  137SOL     OW  450   0.252   1.564   1.744
  137SOL    HW1  451   0.222   1.621   1.820
  137SOL    HW2  452   0.245   1.467   1.770
  138SOL     OW  453   0.671   0.464   1.269
  138SOL    HW1  454   0.637   0.375   1.239
  138SOL    HW2  455   0.697   0.518   1.189
  139SOL     OW  456   0.930   1.678   1.465
  139SOL    HW1  457   0.906   1.660   1.370
  139SOL    HW2  458   0.960   1.772   1.475
  140SOL     OW  459   0.473   0.500   0.191
  140SOL    HW1  460   0.534   0.580   0.195
  140SOL    HW2  461   0.378   0.531   0.198
  141SOL     OW  462   0.159   1.137   1.466
  141SOL    HW1  463   0.181   1.076   1.542
  141SOL    HW2  464   0.169   1.088   1.380
  142SOL     OW  465   1.347   1.059   1.234
  142SOL    HW1  466   1.371   0.996   1.160
  142SOL    HW2  467   1.257   1.099   1.216
  143SOL     OW  468   1.302   0.855   0.309
  143SOL    HW1  469   1.216   0.824   0.351
  143SOL    HW2  470   1.298   0.841   0.210
  144SOL     OW  471   1.252   1.731   1.128
  144SOL    HW1  472   1.336   1.736   1.074
  144SOL    HW2  473   1.229   1.635   1.146
  145SOL     OW  474   0.083   1.258   1.022
  145SOL    HW1  475   0.078   1.257   1.122
  145SOL    HW2  476   0.000   1.217   0.984
  146SOL     OW  477   0.688   1.662   1.716
  146SOL    HW1  478   0.632   1.743   1.725
  146SOL    HW2  479   0.740   1.666   1.630
  147SOL     OW  480   0.903   0.086   0.133
  147SOL    HW1  481   0.954   0.087   0.047
  147SOL    HW2  482   0.959   0.044   0.204
  148SOL     OW  483   1.726   0.135   0.523
  148SOL    HW1  484   1.799   0.118   0.456
  148SOL    HW2  485   1.695   0.048   0.561
  149SOL     OW  486   1.388   1.573   0.477
  149SOL    HW1  487   1.455   1.585   0.403
  149SOL    HW2  488   1.348   1.662   0.500
  150SOL     OW  489   0.130   1.794   1.851
  150SOL    HW1  490   0.089   1.720   1.904
  150SOL    HW2  491   0.194   1.845   1.909
  151SOL     OW  492   1.280   0.927   0.672
  151SOL    HW1  493   1.340   0.846   0.674
  151SOL    HW2  494   1.320   0.996   0.612
  152SOL     OW  495   0.830   1.273   1.422
  152SOL    HW1  496   0.825   1.306   1.517
  152SOL    HW2  497   0.744   1.292   1.376
  153SOL     OW  498   0.672   1.616   0.154
  153SOL    HW1  499   0.681   1.626   0.055
  153SOL    HW2  500   0.632   1.527   0.175
  154SOL     OW  501   1.841   0.175   0.963
  154SOL    HW1  502   1.880   0.090   0.927
  154SOL    HW2  503   1.743   0.177   0.944
  155SOL     OW  504   0.263   0.326   0.720
  155SOL    HW1  505   0.184   0.377   0.686
  155SOL    HW2  506   0.254   0.311   0.818
  156SOL     OW  507   1.194   1.612   0.031
  156SOL    HW1  508   1.200   1.519   0.068
  156SOL    HW2  509   1.135   1.612  -0.049
  157SOL     OW  510   0.822   1.002   1.372
  157SOL    HW1  511   0.862   1.001   1.280
  157SOL    HW2  512   0.832   1.094   1.412
  158SOL     OW  513   0.916   0.910   0.291
  158SOL    HW1  514   0.979   0.948   0.223
  158SOL    HW2  515   0.956   0.827   0.330
  159SOL     OW  516   1.504   1.607   0.044
  159SOL    HW1  517   1.412   1.644   0.051
  159SOL    HW2  518   1.542   1.627  -0.046
  160SOL     OW  519   0.372   1.288   1.490
  160SOL    HW1  520   0.359   1.381   1.456
  160SOL    HW2  521   0.288   1.236   1.477
  161SOL     OW  522   1.614   1.292   1.289
  161SOL    HW1  523   1.674   1.295   1.369
  161SOL    HW2  524   1.539   1.356   1.302
  162SOL     OW  525   1.039   1.098   0.696
  162SOL    HW1  526   0.969   1.051   0.750
  162SOL    HW2  527   1.098   1.030   0.653
  163SOL     OW  528   1.014   0.236   0.971
  163SOL    HW1  529   1.006   0.200   0.878
  163SOL    HW2  530   1.012   0.160   1.036
  164SOL     OW  531   0.590   1.487   0.491
  164SOL    HW1  532   0.632   1.429   0.421
  164SOL    HW2  533   0.546   1.566   0.447
  165SOL     OW  534   1.709   0.385   1.381
  165SOL    HW1  535   1.782   0.454   1.385
  165SOL    HW2  536   1.737   0.310   1.322
  166SOL     OW  537   0.255   1.348   0.290
  166SOL    HW1  538   0.159   1.349   0.263
  166SOL    HW2  539   0.267   1.401   0.374
  167SOL     OW  540   0.105   1.013   1.726
  167SOL    HW1  541   0.028   0.980   1.780
  167SOL    HW2  542   0.190   0.983   1.768
  168SOL     OW  543   0.672   0.203   1.489
  168SOL    HW1  544   0.762   0.187   1.449
  168SOL    HW2  545   0.680   0.208   1.588
  169SOL     OW  546   0.075   0.345   0.033
  169SOL    HW1  547  -0.017   0.317   0.004
  169SOL    HW2  548   0.106   0.422  -0.023
  170SOL     OW  549   1.440   0.856   1.398
  170SOL    HW1  550   1.383   0.908   1.335
  170SOL    HW2  551   1.536   0.868   1.374
  171SOL     OW  552   0.072   0.166   0.318
  171SOL    HW1  553   0.055   0.249   0.264
  171SOL    HW2  554   0.162   0.129   0.296
  172SOL     OW  555   1.183   1.335   0.119
  172SOL    HW1  556   1.084   1.324   0.121
  172SOL    HW2  557   1.217   1.350   0.212
  173SOL     OW  558   0.613   0.842   1.431
  173SOL    HW1  559   0.669   0.923   1.414
  173SOL    HW2  560   0.672   0.762   1.434
  174SOL     OW  561   1.493   1.767   0.959
  174SOL    HW1  562   1.526   1.831   0.890
  174SOL    HW2  563   1.559   1.761   1.034
  175SOL     OW  564   0.716   0.565   1.708
  175SOL    HW1  565   0.735   0.630   1.782
  175SOL    HW2  566   0.776   0.485   1.717
  176SOL     OW  567   1.450   1.220   1.633
  176SOL    HW1  568   1.441   1.210   1.732
  176SOL    HW2  569   1.546   1.213   1.607
  177SOL     OW  570   0.390   1.741   1.560
  177SOL    HW1  571   0.299   1.782   1.558
  177SOL    HW2  572   0.383   1.647   1.592
  178SOL     OW  573   1.674   0.883   1.254
  178SOL    HW1  574   1.647   0.794   1.217
  178SOL    HW2  575   1.675   0.951   1.181
  179SOL     OW  576   1.225   0.325   0.449
  179SOL    HW1  577   1.290   0.251   0.438
  179SOL    HW2  578   1.245   0.375   0.533
  180SOL     OW  579   0.594   0.745   0.652
  180SOL    HW1  580   0.644   0.830   0.633
  180SOL    HW2  581   0.506   0.747   0.604
  181SOL     OW  582   1.777   0.342   1.642
  181SOL    HW1  583   1.760   0.373   1.548
  181SOL    HW2  584   1.693   0.305   1.680
  182SOL     OW  585   1.730   0.934   1.517
  182SOL    HW1  586   1.768   1.025   1.532
  182SOL    HW2  587   1.722   0.917   1.418
  183SOL     OW  588   0.859   1.374   0.016
  183SOL    HW1  589   0.813   1.389   0.104
  183SOL    HW2  590   0.903   1.459  -0.014
  184SOL     OW  591   0.661   1.790   0.953
  184SOL    HW1  592   0.615   1.878   0.940
  184SOL    HW2  593   0.760   1.802   0.946
  185SOL     OW  594   0.859   0.956   0.861
  185SOL    HW1  595   0.913   0.887   0.909
  185SOL    HW2  596   0.827   1.025   0.927
  186SOL     OW  597   1.083   0.984   0.087
  186SOL    HW1  598   1.060   1.037   0.005
  186SOL    HW2  599   1.164   0.928   0.068
  187SOL     OW  600   1.861   1.569   0.851
  187SOL    HW1  601   1.790   1.557   0.781
  187SOL    HW2  602   1.862   1.490   0.911
  188SOL     OW  603   0.221   1.314   1.844
  188SOL    HW1  604   0.156   1.241   1.823
  188SOL    HW2  605   0.225   1.328   1.942
  189SOL     OW  606   0.079   1.240   0.653
  189SOL    HW1  607   0.078   1.193   0.741
  189SOL    HW2  608   0.161   1.212   0.602
  190SOL     OW  609   0.672   1.391   1.624
  190SOL    HW1  610   0.594   1.341   1.662
  190SOL    HW2  611   0.669   1.486   1.655
  191SOL     OW  612   1.824   0.192   1.227
  191SOL    HW1  613   1.820   0.102   1.271
  191SOL    HW2  614   1.827   0.181   1.128
  192SOL     OW  615   0.428   0.424   0.520
  192SOL    HW1  616   0.458   0.352   0.458
  192SOL    HW2  617   0.389   0.384   0.603
  193SOL     OW  618   0.317   0.547   1.280
  193SOL    HW1  619   0.355   0.488   1.352
  193SOL    HW2  620   0.357   0.521   1.192
  194SOL     OW  621   0.812   1.586   0.687
  194SOL    HW1  622   0.844   1.596   0.593
  194SOL    HW2  623   0.733   1.524   0.689
  195SOL     OW  624   1.424   0.214   1.112
  195SOL    HW1  625   1.476   0.149   1.167
  195SOL    HW2  626   1.375   0.277   1.173
  196SOL     OW  627   1.001   0.034   1.154
  196SOL    HW1  628   0.938  -0.038   1.123
  196SOL    HW2  629   1.094  -0.002   1.154
  197SOL     OW  630   0.770   1.330   0.301
  197SOL    HW1  631   0.724   1.243   0.318
  197SOL    HW2  632   0.861   1.327   0.342
  198SOL     OW  633   0.618   1.567   1.284
  198SOL    HW1  634   0.613   1.649   1.341
  198SOL    HW2  635   0.707   1.564   1.239
  199SOL     OW  636   1.352   0.052   0.168
  199SOL    HW1  637   1.387   0.011   0.084
  199SOL    HW2  638   1.262   0.014   0.188
  200SOL     OW  639   1.300   0.453   0.691
  200SOL    HW1  640   1.241   0.533   0.695
  200SOL    HW2  641   1.315   0.418   0.784
  201SOL     OW  642   1.593   0.221   0.882
  201SOL    HW1  643   1.509   0.220   0.936
  201SOL    HW2  644   1.595   0.304   0.826
  202SOL     OW  645   0.039   1.077   0.300
  202SOL    HW1  646   0.138   1.066   0.291
  202SOL    HW2  647  -0.001   0.991   0.332
  203SOL     OW  648   0.875   1.646   0.337
  203SOL    HW1  649   0.798   1.611   0.283
  203SOL    HW2  650   0.843   1.717   0.399
  204SOL     OW  651   0.230   0.628   1.975
  204SOL    HW1  652   0.137   0.626   2.012
  204SOL    HW2  653   0.231   0.589   1.883
  205SOL     OW  654   0.225   0.275   2.858
  205SOL    HW1  655   0.260   0.258   2.950
  205SOL    HW2  656   0.137   0.230   2.846
  206SOL     OW  657   0.019   0.368   2.509
  206SOL    HW1  658  -0.063   0.411   2.548
  206SOL    HW2  659  -0.009   0.295   2.446
  207SOL     OW  660   0.569   1.275   3.027
  207SOL    HW1  661   0.476   1.268   2.990
  207SOL    HW2  662   0.580   1.364   3.071
  208SOL     OW  663   1.555   1.511   2.565
  208SOL    HW1  664   1.498   1.495   2.646
  208SOL    HW2  665   1.496   1.521   2.485
  209SOL     OW  666   1.135   0.703   2.579
  209SOL    HW1  667   1.192   0.781   2.554
  209SOL    HW2  668   1.075   0.729   2.655
  210SOL     OW  669   1.755   0.607   2.093
  210SOL    HW1  670   1.743   0.594   1.994
  210SOL    HW2  671   1.725   0.526   2.142
  211SOL     OW  672   0.768   1.144   2.885
  211SOL    HW1  673   0.690   1.161   2.945
  211SOL    HW2  674   0.802   1.231   2.849
  212SOL     OW  675   0.685   1.012   2.527
  212SOL    HW1  676   0.754   0.996   2.597
  212SOL    HW2  677   0.612   1.069   2.565
  213SOL     OW  678   0.335   1.435   2.923
  213SOL    HW1  679   0.257   1.404   2.870
  213SOL    HW2  680   0.393   1.493   2.866
  214SOL     OW  681   1.603   0.447   2.599
  214SOL    HW1  682   1.529   0.493   2.549
  214SOL    HW2  683   1.654   0.515   2.652
  215SOL     OW  684   0.231   1.713   2.345
  215SOL    HW1  685   0.265   1.790   2.399
  215SOL    HW2  686   0.275   1.713   2.255
  216SOL     OW  687   0.230   1.434   2.400
  216SOL    HW1  688   0.204   1.530   2.400
  216SOL    HW2  689   0.159   1.380   2.445
  217SOL     OW  690   0.240   1.091   2.748
  217SOL    HW1  691   0.254   1.007   2.800
  217SOL    HW2  692   0.185   1.155   2.803
  218SOL     OW  693   0.606   0.964   1.985
  218SOL    HW1  694   0.613   1.048   1.931
  218SOL    HW2  695   0.652   0.977   2.073
  219SOL     OW  696   0.122   0.643   2.425
  219SOL    HW1  697   0.077   0.555   2.442
  219SOL    HW2  698   0.121   0.697   2.509
  220SOL     OW  699   1.842   1.767   2.221
  220SOL    HW1  700   1.896   1.738   2.301
  220SOL    HW2  701   1.872   1.857   2.192
  221SOL     OW  702   0.027   1.596   1.979
  221SOL    HW1  703   0.008   1.500   2.000
  221SOL    HW2  704  -0.006   1.654   2.054
  222SOL     OW  705   1.689   0.922   2.474
  222SOL    HW1  706   1.784   0.893   2.482
  222SOL    HW2  707   1.681   0.987   2.399
  223SOL     OW  708   1.641   1.108   2.294
  223SOL    HW1  709   1.727   1.110   2.242
  223SOL    HW2  710   1.655   1.155   2.382
  224SOL     OW  711   0.613   1.365   2.588
  224SOL    HW1  712   0.564   1.278   2.597
  224SOL    HW2  713   0.590   1.408   2.501
  225SOL     OW  714   0.809   0.004   2.364
  225SOL    HW1  715   0.849   0.095   2.355
  225SOL    HW2  716   0.709   0.012   2.370
  226SOL     OW  717   0.197   0.976   3.126
  226SOL    HW1  718   0.286   0.931   3.112
  226SOL    HW2  719   0.124   0.911   3.107
  227SOL     OW  720   1.525   0.999   2.052
  227SOL    HW1  721   1.462   0.923   2.065
  227SOL    HW2  722   1.573   1.017   2.138
  228SOL     OW  723   1.466   1.417   2.815
  228SOL    HW1  724   1.407   1.423   2.895
  228SOL    HW2  725   1.451   1.329   2.769
  229SOL     OW  726   1.667   1.714   2.434
  229SOL    HW1  727   1.626   1.691   2.346
  229SOL    HW2  728   1.649   1.640   2.499
  230SOL     OW  729   0.598   0.729   2.132
  230SOL    HW1  730   0.622   0.798   2.064
  230SOL    HW2  731   0.520   0.762   2.186
  231SOL     OW  732   1.281   0.345   2.806
  231SOL    HW1  733   1.195   0.295   2.793
  231SOL    HW2  734   1.343   0.291   2.862
  232SOL     OW  735   1.576   1.662   2.169
  232SOL    HW1  736   1.665   1.708   2.172
  232SOL    HW2  737   1.555   1.638   2.074
  233SOL     OW  738   1.041   0.701   2.291
  233SOL    HW1  739   1.067   0.697   2.387
  233SOL    HW2  740   0.956   0.650   2.277
  234SOL     OW  741   0.076   0.811   2.651
  234SOL    HW1  742   0.175   0.799   2.660
  234SOL    HW2  743   0.052   0.906   2.672
  235SOL     OW  744   0.130   1.821   3.433
  235SOL    HW1  745   0.120   1.806   3.532
  235SOL    HW2  746   0.044   1.857   3.397
  236SOL     OW  747   0.865   0.348   2.057
  236SOL    HW1  748   0.924   0.411   2.008
  236SOL    HW2  749   0.884   0.254   2.028
  237SOL     OW  750   1.362   1.144   2.407
  237SOL    HW1  751   1.445   1.115   2.359
  237SOL    HW2  752   1.313   1.211   2.351
  238SOL     OW  753   0.550   0.196   2.747
  238SOL    HW1  754   0.545   0.191   2.847
  238SOL    HW2  755   0.552   0.292   2.718
  239SOL     OW  756   1.008   1.456   2.339
  239SOL    HW1  757   0.962   1.528   2.287
  239SOL    HW2  758   1.004   1.476   2.437
  240SOL     OW  759   0.351   1.801   2.715
  240SOL    HW1  760   0.401   1.715   2.721
  240SOL    HW2  761   0.416   1.878   2.712
  241SOL     OW  762   1.795   1.066   2.735
  241SOL    HW1  763   1.733   1.051   2.659
  241SOL    HW2  764   1.743   1.077   2.820
  242SOL     OW  765   0.321   0.943   2.104
  242SOL    HW1  766   0.403   0.982   2.062
  242SOL    HW2  767   0.294   0.861   2.055
  243SOL     OW  768   1.458   0.735   2.590
  243SOL    HW1  769   1.453   0.670   2.665
  243SOL    HW2  770   1.538   0.794   2.603
  244SOL     OW  771   1.111   1.776   2.099
  244SOL    HW1  772   1.051   1.714   2.149
  244SOL    HW2  773   1.142   1.732   2.014
  245SOL     OW  774   1.632   1.377   1.943
  245SOL    HW1  775   1.600   1.471   1.933
  245SOL    HW2  776   1.556   1.314   1.931
  246SOL     OW  777   0.464   1.743   2.185
  246SOL    HW1  778   0.497   1.782   2.271
  246SOL    HW2  779   0.540   1.736   2.120
  247SOL     OW  780   1.400   0.107   2.288
  247SOL    HW1  781   1.376   0.070   2.198
  247SOL    HW2  782   1.499   0.123   2.292
  248SOL     OW  783   0.249   1.785   3.103
  248SOL    HW1  784   0.306   1.720   3.153
  248SOL    HW2  785   0.233   1.752   3.010
  249SOL     OW  786   0.940   1.698   2.766
  249SOL    HW1  787   1.020   1.641   2.787
  249SOL    HW2  788   0.891   1.658   2.689
  250SOL     OW  789   0.382   0.700   2.342
  250SOL    HW1  790   0.427   0.610   2.339
  250SOL    HW2  791   0.288   0.689   2.375
  251SOL     OW  792   0.614   0.122   1.979
  251SOL    HW1  793   0.712   0.100   1.986
  251SOL    HW2  794   0.583   0.105   1.886
  252SOL     OW  795   0.803   1.402   2.786
  252SOL    HW1  796   0.893   1.416   2.744
  252SOL    HW2  797   0.732   1.404   2.715
  253SOL     OW  798   0.922   0.503   2.761
  253SOL    HW1  799   0.897   0.494   2.665
  253SOL    HW2  800   0.970   0.421   2.792
  254SOL     OW  801   0.539   0.064   2.374
  254SOL    HW1  802   0.458   0.065   2.432
  254SOL    HW2  803   0.542   0.147   2.319
  255SOL     OW  804   1.434   1.188   1.903
  255SOL    HW1  805   1.466   1.112   1.960
  255SOL    HW2  806   1.342   1.215   1.933
  256SOL     OW  807   0.297   0.035   2.033
  256SOL    HW1  808   0.346   0.119   2.012
  256SOL    HW2  809   0.359  -0.030   2.078
  257SOL     OW  810   0.935   0.236   2.342
  257SOL    HW1  811   0.887   0.277   2.264
  257SOL    HW2  812   1.034   0.234   2.323
  258SOL     OW  813   1.227   1.570   2.655
  258SOL    HW1  814   1.248   1.644   2.590
  258SOL    HW2  815   1.295   1.570   2.728
  259SOL     OW  816   0.459   1.152   2.603
  259SOL    HW1  817   0.388   1.125   2.668
  259SOL    HW2  818   0.433   1.124   2.510
  260SOL     OW  819   1.271   1.797   2.453
  260SOL    HW1  820   1.315   1.861   2.389
  260SOL    HW2  821   1.221   1.849   2.523
  261SOL     OW  822   1.032   0.549   1.878
  261SOL    HW1  823   0.991   0.631   1.839
  261SOL    HW2  824   1.096   0.575   1.951
  262SOL     OW  825   0.561   0.222   3.009
  262SOL    HW1  826   0.599   0.138   3.046
  262SOL    HW2  827   0.473   0.241   3.053
  263SOL     OW  828   0.866   0.454   2.504
  263SOL    HW1  829   0.834   0.526   2.442
  263SOL    HW2  830   0.890   0.373   2.451
  264SOL     OW  831   1.017   0.039   2.615
  264SOL    HW1  832   0.945   0.044   2.546
  264SOL    HW2  833   0.993  -0.030   2.684
  265SOL     OW  834   1.429   1.173   2.729
  265SOL    HW1  835   1.374   1.089   2.722
  265SOL    HW2  836   1.455   1.202   2.637
  266SOL     OW  837   1.466   0.590   2.854
  266SOL    HW1  838   1.436   0.495   2.861
  266SOL    HW2  839   1.539   0.606   2.920
  267SOL     OW  840   1.857   0.833   2.239
  267SOL    HW1  841   1.899   0.769   2.303
  267SOL    HW2  842   1.819   0.782   2.161
  268SOL     OW  843   0.488   1.385   2.036
  268SOL    HW1  844   0.401   1.370   2.083
  268SOL    HW2  845   0.471   1.411   1.941
  269SOL     OW  846   1.664   1.280   2.519
  269SOL    HW1  847   1.763   1.288   2.533
  269SOL    HW2  848   1.619   1.364   2.550
  270SOL     OW  849   1.390   0.575   1.940
  270SOL    HW1  850   1.336   0.554   2.021
  270SOL    HW2  851   1.481   0.534   1.949
  271SOL     OW  852   0.527   0.256   2.190
  271SOL    HW1  853   0.554   0.197   2.115
  271SOL    HW2  854   0.527   0.351   2.159
  272SOL     OW  855   1.111   1.195   2.962
  272SOL    HW1  856   1.071   1.239   3.043
  272SOL    HW2  857   1.070   1.232   2.879
  273SOL     OW  858   1.638   1.099   2.941
  273SOL    HW1  859   1.643   1.180   3.000
  273SOL    HW2  860   1.552   1.101   2.890
  274SOL     OW  861   0.705   1.050   2.230
  274SOL    HW1  862   0.691   1.057   2.329
  274SOL    HW2  863   0.789   0.999   2.212
  275SOL     OW  864   0.410   0.813   3.113
  275SOL    HW1  865   0.496   0.825   3.163
  275SOL    HW2  866   0.368   0.726   3.140
  276SOL     OW  867   1.274   0.386   3.124
  276SOL    HW1  868   1.295   0.460   3.188
  276SOL    HW2  869   1.185   0.403   3.081
  277SOL     OW  870   0.367   1.100   2.363
  277SOL    HW1  871   0.360   1.183   2.307
  277SOL    HW2  872   0.371   1.020   2.303
  278SOL     OW  873   0.566   0.537   2.727
  278SOL    HW1  874   0.578   0.603   2.653
  278SOL    HW2  875   0.612   0.571   2.810
  279SOL     OW  876   1.252   1.348   2.250
  279SOL    HW1  877   1.302   1.425   2.290
  279SOL    HW2  878   1.157   1.350   2.282
  280SOL     OW  879   1.272   1.445   3.004
  280SOL    HW1  880   1.319   1.458   3.091
  280SOL    HW2  881   1.206   1.371   3.013
  281SOL     OW  882   1.582   0.639   2.334
  281SOL    HW1  883   1.551   0.700   2.407
  281SOL    HW2  884   1.632   0.691   2.265
  282SOL     OW  885   0.354   1.510   3.191
  282SOL    HW1  886   0.333   1.466   3.104
  282SOL    HW2  887   0.451   1.536   3.194
  283SOL     OW  888   0.573   0.870   2.891
  283SOL    HW1  889   0.617   0.959   2.882
  283SOL    HW2  890   0.510   0.870   2.968
  284SOL     OW  891   1.360   0.862   2.907
  284SOL    HW1  892   1.285   0.862   2.841
  284SOL    HW2  893   1.397   0.770   2.916
  285SOL     OW  894   1.209   0.525   2.137
  285SOL    HW1  895   1.222   0.441   2.191
  285SOL    HW2  896   1.180   0.599   2.197
  286SOL     OW  897   0.307   0.213   3.093
  286SOL    HW1  898   0.284   0.250   3.183
  286SOL    HW2  899   0.277   0.118   3.087
  287SOL     OW  900   0.037   1.310   3.144
  287SOL    HW1  901   0.090   1.261   3.212
  287SOL    HW2  902   0.059   1.408   3.149
  288SOL     OW  903   0.732   0.634   2.926
  288SOL    HW1  904   0.791   0.608   2.850
  288SOL    HW2  905   0.704   0.730   2.915
  289SOL     OW  906   0.307   0.063   2.480
  289SOL    HW1  907   0.296   0.157   2.513
  289SOL    HW2  908   0.302   0.000   2.557
  290SOL     OW  909   1.622   0.367   2.236
  290SOL    HW1  910   1.624   0.291   2.300
  290SOL    HW2  911   1.574   0.444   2.276
  291SOL     OW  912   1.023   0.766   2.828
  291SOL    HW1  913   1.038   0.787   2.924
  291SOL    HW2  914   0.993   0.671   2.819
  292SOL     OW  915   1.540   0.274   1.987
  292SOL    HW1  916   1.479   0.199   2.010
  292SOL    HW2  917   1.562   0.326   2.070
  293SOL     OW  918   1.303   0.838   1.904
  293SOL    HW1  919   1.337   0.745   1.919
  293SOL    HW2  920   1.321   0.865   1.809
  294SOL     OW  921   1.068   1.333   2.711
  294SOL    HW1  922   1.075   1.249   2.656
  294SOL    HW2  923   1.130   1.402   2.675
  295SOL     OW  924   0.319   0.810   2.811
  295SOL    HW1  925   0.412   0.846   2.816
  295SOL    HW2  926   0.313   0.725   2.863
  296SOL     OW  927   0.339   0.509   2.868
  296SOL    HW1  928   0.287   0.426   2.851
  296SOL    HW2  929   0.416   0.514   2.804
  297SOL     OW  930   1.160   0.207   3.339
  297SOL    HW1  931   1.160   0.271   3.416
  297SOL    HW2  932   1.188   0.255   3.256
  298SOL     OW  933   0.008   1.326   2.062
  298SOL    HW1  934  -0.085   1.347   2.031
  298SOL    HW2  935   0.018   1.227   2.075
  299SOL     OW  936   0.088   1.801   2.789
  299SOL    HW1  937   0.046   1.715   2.762
  299SOL    HW2  938   0.182   1.804   2.755
  300SOL     OW  939   0.504   1.568   2.772
  300SOL    HW1  940   0.570   1.642   2.781
  300SOL    HW2  941   0.548   1.489   2.730
  301SOL     OW  942   1.002   0.796   3.100
  301SOL    HW1  943   1.043   0.764   3.186
  301SOL    HW2  944   0.906   0.769   3.097
  302SOL     OW  945   0.040   0.544   2.976
  302SOL    HW1  946   0.125   0.511   2.935
  302SOL    HW2  947   0.053   0.559   3.074
  303SOL     OW  948   0.815   0.572   2.187
  303SOL    HW1  949   0.822   0.483   2.141
  303SOL    HW2  950   0.721   0.606   2.179
  304SOL     OW  951   1.657   0.604   3.068
  304SOL    HW1  952   1.619   0.535   3.130
  304SOL    HW2  953   1.739   0.568   3.024
  305SOL     OW  954   0.671   0.464   3.131
  305SOL    HW1  955   0.637   0.375   3.101
  305SOL    HW2  956   0.697   0.518   3.051
  306SOL     OW  957   0.930   1.678   3.327
  306SOL    HW1  958   0.906   1.660   3.232
  306SOL    HW2  959   0.960   1.772   3.337
  307SOL     OW  960   0.473   0.500   2.053
  307SOL    HW1  961   0.534   0.580   2.057
  307SOL    HW2  962   0.378   0.531   2.060
  308SOL     OW  963   1.347   1.059   3.096
  308SOL    HW1  964   1.371   0.996   3.022
  308SOL    HW2  965   1.257   1.099   3.078
  309SOL     OW  966   1.302   0.855   2.171
  309SOL    HW1  967   1.216   0.824   2.213
  309SOL    HW2  968   1.298   0.841   2.072
  310SOL     OW  969   1.759   1.747   3.016
  310SOL    HW1  970   1.820   1.777   2.943
  310SOL    HW2  971   1.721   1.658   2.994
  311SOL     OW  972   1.252   1.731   2.990
  311SOL    HW1  973   1.336   1.736   2.936
  311SOL    HW2  974   1.229   1.635   3.008
  312SOL     OW  975   0.083   1.258   2.884
  312SOL    HW1  976   0.078   1.257   2.984
  312SOL    HW2  977   0.000   1.217   2.846
  313SOL     OW  978   1.726   0.135   2.385
  313SOL    HW1  979   1.799   0.118   2.318
  313SOL    HW2  980   1.695   0.048   2.423
  314SOL     OW  981   1.388   1.573   2.339
  314SOL    HW1  982   1.455   1.585   2.265
  314SOL    HW2  983   1.348   1.662   2.362
  315SOL     OW  984   1.280   0.927   2.534
  315SOL    HW1  985   1.340   0.846   2.536
  315SOL    HW2  986   1.320   0.996   2.474
  316SOL     OW  987   0.672   1.616   2.016
  316SOL    HW1  988   0.681   1.626   1.917
  316SOL    HW2  989   0.632   1.527   2.037
  317SOL     OW  990   1.650   1.720   3.256
  317SOL    HW1  991   1.703   1.730   3.172
  317SOL    HW2  992   1.623   1.810   3.290
  318SOL     OW  993   1.841   0.175   2.825
  318SOL    HW1  994   1.880   0.090   2.789
  318SOL    HW2  995   1.743   0.177   2.806
  319SOL     OW  996   0.263   0.326   2.582
  319SOL    HW1  997   0.184   0.377   2.548
  319SOL    HW2  998   0.254   0.311   2.680
  320SOL     OW  999   0.822   1.002   3.234
  320SOL    HW1 1000   0.862   1.001   3.142
  320SOL    HW2 1001   0.832   1.094   3.274
  321SOL     OW 1002   0.916   0.910   2.153
  321SOL    HW1 1003   0.979   0.948   2.085
  321SOL    HW2 1004   0.956   0.827   2.192
  322SOL     OW 1005   1.039   1.098   2.558
  322SOL    HW1 1006   0.969   1.051   2.612
  322SOL    HW2 1007   1.098   1.030   2.515
  323SOL     OW 1008   1.014   0.236   2.833
  323SOL    HW1 1009   1.006   0.200   2.740
  323SOL    HW2 1010   1.012   0.160   2.898
  324SOL     OW 1011   0.590   1.487   2.353
  324SOL    HW1 1012   0.632   1.429   2.283
  324SOL    HW2 1013   0.546   1.566   2.309
  325SOL     OW 1014   1.709   0.385   3.243
  325SOL    HW1 1015   1.782   0.454   3.247
  325SOL    HW2 1016   1.737   0.310   3.184
  326SOL     OW 1017   0.255   1.348   2.152
  326SOL    HW1 1018   0.159   1.349   2.125
  326SOL    HW2 1019   0.267   1.401   2.236
  327SOL     OW 1020   0.075   0.345   1.895
  327SOL    HW1 1021  -0.017   0.317   1.866
  327SOL    HW2 1022   0.106   0.422   1.839
  328SOL     OW 1023   0.072   0.166   2.180
  328SOL    HW1 1024   0.055   0.249   2.126
  328SOL    HW2 1025   0.162   0.129   2.158
  329SOL     OW 1026   1.183   1.335   1.981
  329SOL    HW1 1027   1.084   1.324   1.983
  329SOL    HW2 1028   1.217   1.350   2.074
  330SOL     OW 1029   1.493   1.767   2.821
  330SOL    HW1 1030   1.526   1.831   2.752
  330SOL    HW2 1031   1.559   1.761   2.896
  331SOL     OW 1032   1.674   0.883   3.116
  331SOL    HW1 1033   1.647   0.794   3.079
  331SOL    HW2 1034   1.675   0.951   3.043
  332SOL     OW 1035   1.225   0.325   2.311
  332SOL    HW1 1036   1.290   0.251   2.300
  332SOL    HW2 1037   1.245   0.375   2.395
  333SOL     OW 1038   0.594   0.745   2.514
  333SOL    HW1 1039   0.644   0.830   2.495
  333SOL    HW2 1040   0.506   0.747   2.466
  334SOL     OW 1041   1.730   0.934   3.379
  334SOL    HW1 1042   1.768   1.025   3.394
  334SOL    HW2 1043   1.722   0.917   3.280
  335SOL     OW 1044   0.859   1.374   1.878
  335SOL    HW1 1045   0.813   1.389   1.966
  335SOL    HW2 1046   0.903   1.459   1.848
  336SOL     OW 1047   0.661   1.790   2.815
  336SOL    HW1 1048   0.615   1.878   2.802
  336SOL    HW2 1049   0.760   1.802   2.808
  337SOL     OW 1050   0.859   0.956   2.723
  337SOL    HW1 1051   0.913   0.887   2.771
  337SOL    HW2 1052   0.827   1.025   2.789
  338SOL     OW 1053   1.083   0.984   1.949
  338SOL    HW1 1054   1.060   1.037   1.867
  338SOL    HW2 1055   1.164   0.928   1.930
  339SOL     OW 1056   1.861   1.569   2.713
  339SOL    HW1 1057   1.790   1.557   2.643
  339SOL    HW2 1058   1.862   1.490   2.773
  340SOL     OW 1059   0.079   1.240   2.515
  340SOL    HW1 1060   0.078   1.193   2.603
  340SOL    HW2 1061   0.161   1.212   2.464
  341SOL     OW 1062   1.824   0.192   3.089
  341SOL    HW1 1063   1.820   0.102   3.133
  341SOL    HW2 1064   1.827   0.181   2.990
  342SOL     OW 1065   0.428   0.424   2.382
  342SOL    HW1 1066   0.458   0.352   2.320
  342SOL    HW2 1067   0.389   0.384   2.465
  343SOL     OW 1068   1.705   1.487   2.966
  343SOL    HW1 1069   1.612   1.462   2.939
  343SOL    HW2 1070   1.731   1.437   3.048
  344SOL     OW 1071   0.812   1.586   2.549
  344SOL    HW1 1072   0.844   1.596   2.455
  344SOL    HW2 1073   0.733   1.524   2.551
  345SOL     OW 1074   1.424   0.214   2.974
  345SOL    HW1 1075   1.476   0.149   3.029
  345SOL    HW2 1076   1.375   0.277   3.035
  346SOL     OW 1077   1.001   0.034   3.016
  346SOL    HW1 1078   0.938  -0.038   2.985
  346SOL    HW2 1079   1.094  -0.002   3.016
  347SOL     OW 1080   0.770   1.330   2.163
  347SOL    HW1 1081   0.724   1.243   2.180
  347SOL    HW2 1082   0.861   1.327   2.204
  348SOL     OW 1083   1.352   0.052   2.030
  348SOL    HW1 1084   1.387   0.011   1.946
  348SOL    HW2 1085   1.262   0.014   2.050
  349SOL     OW 1086   1.300   0.453   2.553
  349SOL    HW1 1087   1.241   0.533   2.557
  349SOL    HW2 1088   1.315   0.418   2.646
  350SOL     OW 1089   1.593   0.221   2.744
  350SOL    HW1 1090   1.509   0.220   2.798
  350SOL    HW2 1091   1.595   0.304   2.688
  351SOL     OW 1092   0.039   1.077   2.162
  351SOL    HW1 1093   0.138   1.066   2.153
  351SOL    HW2 1094  -0.001   0.991   2.194
  352SOL     OW 1095   0.875   1.646   2.199
  352SOL    HW1 1096   0.798   1.611   2.145
  352SOL    HW2 1097   0.843   1.717   2.261
  353SOL     OW 1098   0.230   2.490   0.113
  353SOL    HW1 1099   0.137   2.488   0.150
  353SOL    HW2 1100   0.231   2.451   0.021
  354SOL     OW 1101   0.225   2.137   0.996
  354SOL    HW1 1102   0.260   2.120   1.088
  354SOL    HW2 1103   0.137   2.092   0.984
  355SOL     OW 1104   0.019   2.230   0.647
  355SOL    HW1 1105  -0.063   2.273   0.686
  355SOL    HW2 1106  -0.009   2.157   0.584
  356SOL     OW 1107   1.135   2.565   0.717
  356SOL    HW1 1108   1.192   2.643   0.692
  356SOL    HW2 1109   1.075   2.591   0.793
  357SOL     OW 1110   1.755   2.469   0.231
  357SOL    HW1 1111   1.743   2.456   0.132
  357SOL    HW2 1112   1.725   2.388   0.280
  358SOL     OW 1113   0.768   3.006   1.023
  358SOL    HW1 1114   0.690   3.023   1.083
  358SOL    HW2 1115   0.802   3.093   0.987
  359SOL     OW 1116   0.850   2.660   1.823
  359SOL    HW1 1117   0.846   2.736   1.888
  359SOL    HW2 1118   0.872   2.696   1.732
  360SOL     OW 1119   0.685   2.874   0.665
  360SOL    HW1 1120   0.754   2.858   0.735
  360SOL    HW2 1121   0.612   2.931   0.703
  361SOL     OW 1122   0.686   3.023   1.803
  361SOL    HW1 1123   0.746   3.102   1.817
  361SOL    HW2 1124   0.600   3.054   1.762
  362SOL     OW 1125   0.335   3.297   1.061
  362SOL    HW1 1126   0.257   3.266   1.008
  362SOL    HW2 1127   0.393   3.355   1.004
  363SOL     OW 1128   0.438   2.254   1.499
  363SOL    HW1 1129   0.520   2.198   1.508
  363SOL    HW2 1130   0.357   2.196   1.503
  364SOL     OW 1131   1.603   2.309   0.737
  364SOL    HW1 1132   1.529   2.355   0.687
  364SOL    HW2 1133   1.654   2.377   0.790
  365SOL     OW 1134   0.240   2.953   0.886
  365SOL    HW1 1135   0.254   2.869   0.938
  365SOL    HW2 1136   0.185   3.017   0.941
  366SOL     OW 1137   0.606   2.826   0.123
  366SOL    HW1 1138   0.613   2.910   0.069
  366SOL    HW2 1139   0.652   2.839   0.211
  367SOL     OW 1140   1.594   1.976   1.480
  367SOL    HW1 1141   1.576   2.043   1.408
  367SOL    HW2 1142   1.591   2.022   1.569
  368SOL     OW 1143   0.122   2.505   0.563
  368SOL    HW1 1144   0.077   2.417   0.580
  368SOL    HW2 1145   0.121   2.559   0.647
  369SOL     OW 1146   1.689   2.784   0.612
  369SOL    HW1 1147   1.784   2.755   0.620
  369SOL    HW2 1148   1.681   2.849   0.537
  370SOL     OW 1149   1.641   2.970   0.432
  370SOL    HW1 1150   1.727   2.972   0.380
  370SOL    HW2 1151   1.655   3.017   0.520
  371SOL     OW 1152   0.113   2.599   1.597
  371SOL    HW1 1153   0.201   2.586   1.642
  371SOL    HW2 1154   0.100   2.696   1.575
  372SOL     OW 1155   1.293   3.090   1.423
  372SOL    HW1 1156   1.330   3.017   1.365
  372SOL    HW2 1157   1.345   3.095   1.508
  373SOL     OW 1158   0.809   1.866   0.502
  373SOL    HW1 1159   0.849   1.957   0.493
  373SOL    HW2 1160   0.709   1.874   0.508
  374SOL     OW 1161   0.197   2.838   1.264
  374SOL    HW1 1162   0.286   2.793   1.250
  374SOL    HW2 1163   0.124   2.773   1.245
  375SOL     OW 1164   1.525   2.861   0.190
  375SOL    HW1 1165   1.462   2.785   0.203
  375SOL    HW2 1166   1.573   2.879   0.276
  376SOL     OW 1167   0.317   2.113   1.801
  376SOL    HW1 1168   0.388   2.184   1.807
  376SOL    HW2 1169   0.229   2.152   1.829
  377SOL     OW 1170   0.598   2.591   0.270
  377SOL    HW1 1171   0.622   2.660   0.202
  377SOL    HW2 1172   0.520   2.624   0.324
  378SOL     OW 1173   1.281   2.207   0.944
  378SOL    HW1 1174   1.195   2.157   0.931
  378SOL    HW2 1175   1.343   2.153   1.000
  379SOL     OW 1176   0.807   2.467   1.465
  379SOL    HW1 1177   0.760   2.464   1.554
  379SOL    HW2 1178   0.756   2.412   1.399
  380SOL     OW 1179   1.394   2.331   1.674
  380SOL    HW1 1180   1.374   2.374   1.762
  380SOL    HW2 1181   1.472   2.269   1.683
  381SOL     OW 1182   0.973   2.752   1.572
  381SOL    HW1 1183   1.019   2.668   1.543
  381SOL    HW2 1184   0.917   2.786   1.497
  382SOL     OW 1185   0.991   2.272   1.242
  382SOL    HW1 1186   0.914   2.306   1.296
  382SOL    HW2 1187   0.957   2.221   1.163
  383SOL     OW 1188   1.041   2.563   0.429
  383SOL    HW1 1189   1.067   2.559   0.525
  383SOL    HW2 1190   0.956   2.512   0.415
  384SOL     OW 1191   0.076   2.673   0.789
  384SOL    HW1 1192   0.175   2.661   0.798
  384SOL    HW2 1193   0.052   2.768   0.810
  385SOL     OW 1194   0.865   2.210   0.195
  385SOL    HW1 1195   0.924   2.273   0.146
  385SOL    HW2 1196   0.884   2.116   0.166
  386SOL     OW 1197   1.719   2.447   1.831
  386SOL    HW1 1198   1.693   2.536   1.795
  386SOL    HW2 1199   1.717   2.379   1.758
  387SOL     OW 1200   1.362   3.006   0.545
  387SOL    HW1 1201   1.445   2.977   0.497
  387SOL    HW2 1202   1.313   3.073   0.489
  388SOL     OW 1203   0.550   2.058   0.885
  388SOL    HW1 1204   0.545   2.053   0.985
  388SOL    HW2 1205   0.552   2.154   0.856
  389SOL     OW 1206   1.795   2.928   0.873
  389SOL    HW1 1207   1.733   2.913   0.797
  389SOL    HW2 1208   1.743   2.939   0.958
  390SOL     OW 1209   0.321   2.805   0.242
  390SOL    HW1 1210   0.403   2.844   0.200
  390SOL    HW2 1211   0.294   2.723   0.193
  391SOL     OW 1212   1.458   2.597   0.728
  391SOL    HW1 1213   1.453   2.532   0.803
  391SOL    HW2 1214   1.538   2.656   0.741
  392SOL     OW 1215   0.202   2.147   1.498
  392SOL    HW1 1216   0.122   2.207   1.485
  392SOL    HW2 1217   0.192   2.098   1.584
  393SOL     OW 1218   1.400   1.969   0.426
  393SOL    HW1 1219   1.376   1.932   0.336
  393SOL    HW2 1220   1.499   1.985   0.430
  394SOL     OW 1221   0.382   2.562   0.480
  394SOL    HW1 1222   0.427   2.472   0.477
  394SOL    HW2 1223   0.288   2.551   0.513
  395SOL     OW 1224   1.547   2.084   1.729
  395SOL    HW1 1225   1.542   2.121   1.821
  395SOL    HW2 1226   1.475   2.015   1.717
  396SOL     OW 1227   0.614   1.984   0.117
  396SOL    HW1 1228   0.712   1.962   0.124
  396SOL    HW2 1229   0.583   1.967   0.024
  397SOL     OW 1230   0.781   2.126   1.749
  397SOL    HW1 1231   0.848   2.065   1.792
  397SOL    HW2 1232   0.708   2.145   1.814
  398SOL     OW 1233   1.351   2.452   1.433
  398SOL    HW1 1234   1.379   2.409   1.518
  398SOL    HW2 1235   1.376   2.548   1.434
  399SOL     OW 1236   0.803   3.264   0.924
  399SOL    HW1 1237   0.893   3.278   0.882
  399SOL    HW2 1238   0.732   3.266   0.853
  400SOL     OW 1239   0.922   2.365   0.899
  400SOL    HW1 1240   0.897   2.356   0.803
  400SOL    HW2 1241   0.970   2.283   0.930
  401SOL     OW 1242   0.539   1.926   0.512
  401SOL    HW1 1243   0.458   1.927   0.570
  401SOL    HW2 1244   0.542   2.009   0.457
  402SOL     OW 1245   0.297   1.897   0.171
  402SOL    HW1 1246   0.346   1.981   0.150
  402SOL    HW2 1247   0.359   1.832   0.216
  403SOL     OW 1248   0.935   2.098   0.480
  403SOL    HW1 1249   0.887   2.139   0.402
  403SOL    HW2 1250   1.034   2.096   0.461
  404SOL     OW 1251   1.076   2.545   1.464
  404SOL    HW1 1252   0.996   2.484   1.467
  404SOL    HW2 1253   1.157   2.492   1.440
  405SOL     OW 1254   0.459   3.014   0.741
  405SOL    HW1 1255   0.388   2.987   0.806
  405SOL    HW2 1256   0.433   2.986   0.648
  406SOL     OW 1257   1.032   2.411   0.016
  406SOL    HW1 1258   0.991   2.493  -0.023
  406SOL    HW2 1259   1.096   2.437   0.089
  407SOL     OW 1260   0.078   2.418   1.386
  407SOL    HW1 1261   0.170   2.417   1.345
  407SOL    HW2 1262   0.072   2.492   1.453
  408SOL     OW 1263   0.561   2.084   1.147
  408SOL    HW1 1264   0.599   2.000   1.184
  408SOL    HW2 1265   0.473   2.103   1.191
  409SOL     OW 1266   0.866   2.316   0.642
  409SOL    HW1 1267   0.834   2.388   0.580
  409SOL    HW2 1268   0.890   2.235   0.589
  410SOL     OW 1269   1.017   1.901   0.753
  410SOL    HW1 1270   0.945   1.906   0.684
  410SOL    HW2 1271   0.993   1.832   0.822
  411SOL     OW 1272   1.429   3.035   0.867
  411SOL    HW1 1273   1.374   2.951   0.860
  411SOL    HW2 1274   1.455   3.064   0.775
  412SOL     OW 1275   1.466   2.452   0.992
  412SOL    HW1 1276   1.436   2.357   0.999
  412SOL    HW2 1277   1.539   2.468   1.058
  413SOL     OW 1278   1.857   2.695   0.377
  413SOL    HW1 1279   1.899   2.631   0.441
  413SOL    HW2 1280   1.819   2.644   0.299
  414SOL     OW 1281   1.390   2.437   0.078
  414SOL    HW1 1282   1.336   2.416   0.159
  414SOL    HW2 1283   1.481   2.396   0.087
  415SOL     OW 1284   0.527   2.118   0.328
  415SOL    HW1 1285   0.554   2.059   0.253
  415SOL    HW2 1286   0.527   2.213   0.297
  416SOL     OW 1287   1.754   3.085   1.588
  416SOL    HW1 1288   1.845   3.046   1.575
  416SOL    HW2 1289   1.762   3.181   1.612
  417SOL     OW 1290   1.638   2.961   1.079
  417SOL    HW1 1291   1.643   3.042   1.138
  417SOL    HW2 1292   1.552   2.963   1.028
  418SOL     OW 1293   0.915   1.951   1.402
  418SOL    HW1 1294   0.940   1.931   1.307
  418SOL    HW2 1295   0.987   2.007   1.444
  419SOL     OW 1296   0.980   2.978   1.719
  419SOL    HW1 1297   0.881   2.984   1.729
  419SOL    HW2 1298   1.003   2.898   1.663
  420SOL     OW 1299   0.705   2.912   0.368
  420SOL    HW1 1300   0.691   2.919   0.467
  420SOL    HW2 1301   0.789   2.861   0.350
  421SOL     OW 1302   0.410   2.675   1.251
  421SOL    HW1 1303   0.496   2.687   1.301
  421SOL    HW2 1304   0.368   2.588   1.278
  422SOL     OW 1305   1.274   2.248   1.262
  422SOL    HW1 1306   1.295   2.322   1.326
  422SOL    HW2 1307   1.185   2.265   1.219
  423SOL     OW 1308   0.367   2.962   0.501
  423SOL    HW1 1309   0.360   3.045   0.445
  423SOL    HW2 1310   0.371   2.882   0.441
  424SOL     OW 1311   0.566   2.399   0.865
  424SOL    HW1 1312   0.578   2.465   0.791
  424SOL    HW2 1313   0.612   2.433   0.948
  425SOL     OW 1314   1.582   2.501   0.472
  425SOL    HW1 1315   1.551   2.562   0.545
  425SOL    HW2 1316   1.632   2.553   0.403
  426SOL     OW 1317   0.402   2.613   1.598
  426SOL    HW1 1318   0.470   2.668   1.551
  426SOL    HW2 1319   0.442   2.525   1.625
  427SOL     OW 1320   1.587   2.641   1.670
  427SOL    HW1 1321   1.495   2.679   1.665
  427SOL    HW2 1322   1.647   2.688   1.605
  428SOL     OW 1323   1.013   1.967   1.770
  428SOL    HW1 1324   1.019   2.052   1.718
  428SOL    HW2 1325   1.045   1.891   1.713
  429SOL     OW 1326   0.504   1.912   1.740
  429SOL    HW1 1327   0.462   1.855   1.670
  429SOL    HW2 1328   0.438   1.981   1.772
  430SOL     OW 1329   0.573   2.732   1.029
  430SOL    HW1 1330   0.617   2.821   1.020
  430SOL    HW2 1331   0.510   2.732   1.106
  431SOL     OW 1332   1.360   2.724   1.045
  431SOL    HW1 1333   1.285   2.724   0.979
  431SOL    HW2 1334   1.397   2.632   1.054
  432SOL     OW 1335   1.209   2.387   0.275
  432SOL    HW1 1336   1.222   2.303   0.329
  432SOL    HW2 1337   1.180   2.461   0.335
  433SOL     OW 1338   0.307   2.075   1.231
  433SOL    HW1 1339   0.284   2.112   1.321
  433SOL    HW2 1340   0.277   1.980   1.225
  434SOL     OW 1341   0.037   3.172   1.282
  434SOL    HW1 1342   0.090   3.123   1.350
  434SOL    HW2 1343   0.059   3.270   1.287
  435SOL     OW 1344   0.732   2.496   1.064
  435SOL    HW1 1345   0.791   2.470   0.988
  435SOL    HW2 1346   0.704   2.592   1.053
  436SOL     OW 1347   1.728   2.797   1.854
  436SOL    HW1 1348   1.682   2.790   1.765
  436SOL    HW2 1349   1.666   2.841   1.920
  437SOL     OW 1350   0.307   1.925   0.618
  437SOL    HW1 1351   0.296   2.019   0.651
  437SOL    HW2 1352   0.302   1.862   0.695
  438SOL     OW 1353   1.622   2.229   0.374
  438SOL    HW1 1354   1.624   2.153   0.438
  438SOL    HW2 1355   1.574   2.306   0.414
  439SOL     OW 1356   1.023   2.628   0.966
  439SOL    HW1 1357   1.038   2.649   1.062
  439SOL    HW2 1358   0.993   2.533   0.957
  440SOL     OW 1359   0.350   2.760   1.804
  440SOL    HW1 1360   0.426   2.804   1.852
  440SOL    HW2 1361   0.385   2.713   1.722
  441SOL     OW 1362   1.540   2.136   0.125
  441SOL    HW1 1363   1.479   2.061   0.148
  441SOL    HW2 1364   1.562   2.188   0.208
  442SOL     OW 1365   1.303   2.700   0.042
  442SOL    HW1 1366   1.337   2.607   0.057
  442SOL    HW2 1367   1.321   2.727  -0.053
  443SOL     OW 1368   0.319   2.672   0.949
  443SOL    HW1 1369   0.412   2.708   0.954
  443SOL    HW2 1370   0.313   2.587   1.001
  444SOL     OW 1371   0.339   2.371   1.006
  444SOL    HW1 1372   0.287   2.288   0.989
  444SOL    HW2 1373   0.416   2.376   0.942
  445SOL     OW 1374   1.138   2.242   1.678
  445SOL    HW1 1375   1.093   2.305   1.742
  445SOL    HW2 1376   1.231   2.273   1.661
  446SOL     OW 1377   1.160   2.069   1.477
  446SOL    HW1 1378   1.160   2.133   1.554
  446SOL    HW2 1379   1.188   2.117   1.394
  447SOL     OW 1380   0.008   3.188   0.200
  447SOL    HW1 1381  -0.085   3.209   0.169
  447SOL    HW2 1382   0.018   3.089   0.213
  448SOL     OW 1383   1.002   2.658   1.238
  448SOL    HW1 1384   1.043   2.626   1.324
  448SOL    HW2 1385   0.906   2.631   1.235
  449SOL     OW 1386   0.040   2.406   1.114
  449SOL    HW1 1387   0.125   2.373   1.073
  449SOL    HW2 1388   0.053   2.421   1.212
  450SOL     OW 1389   0.189   2.382   1.722
  450SOL    HW1 1390   0.248   2.342   1.652
  450SOL    HW2 1391   0.131   2.453   1.681
  451SOL     OW 1392   1.369   2.812   1.660
  451SOL    HW1 1393   1.408   2.901   1.680
  451SOL    HW2 1394   1.379   2.792   1.563
  452SOL     OW 1395   0.815   2.434   0.325
  452SOL    HW1 1396   0.822   2.345   0.279
  452SOL    HW2 1397   0.721   2.468   0.317
  453SOL     OW 1398   1.657   2.466   1.206
  453SOL    HW1 1399   1.619   2.397   1.268
  453SOL    HW2 1400   1.739   2.430   1.162
  454SOL     OW 1401   0.671   2.326   1.269
  454SOL    HW1 1402   0.637   2.237   1.239
  454SOL    HW2 1403   0.697   2.380   1.189
  455SOL     OW 1404   0.473   2.362   0.191
  455SOL    HW1 1405   0.534   2.442   0.195
  455SOL    HW2 1406   0.378   2.393   0.198
  456SOL     OW 1407   0.159   2.999   1.466
  456SOL    HW1 1408   0.181   2.938   1.542
  456SOL    HW2 1409   0.169   2.950   1.380
  457SOL     OW 1410   1.347   2.921   1.234
  457SOL    HW1 1411   1.371   2.858   1.160
  457SOL    HW2 1412   1.257   2.961   1.216
  458SOL     OW 1413   1.302   2.717   0.309
  458SOL    HW1 1414   1.216   2.686   0.351
  458SOL    HW2 1415   1.298   2.703   0.210
  459SOL     OW 1416   0.083   3.120   1.022
  459SOL    HW1 1417   0.078   3.119   1.122
  459SOL    HW2 1418   0.000   3.079   0.984
  460SOL     OW 1419   0.903   1.948   0.133
  460SOL    HW1 1420   0.954   1.949   0.047
  460SOL    HW2 1421   0.959   1.906   0.204
  461SOL     OW 1422   1.726   1.997   0.523
  461SOL    HW1 1423   1.799   1.980   0.456
  461SOL    HW2 1424   1.695   1.910   0.561
  462SOL     OW 1425   1.280   2.789   0.672
  462SOL    HW1 1426   1.340   2.708   0.674
  462SOL    HW2 1427   1.320   2.858   0.612
  463SOL     OW 1428   1.841   2.037   0.963
  463SOL    HW1 1429   1.880   1.952   0.927
  463SOL    HW2 1430   1.743   2.039   0.944
  464SOL     OW 1431   0.263   2.188   0.720
  464SOL    HW1 1432   0.184   2.239   0.686
  464SOL    HW2 1433   0.254   2.173   0.818
  465SOL     OW 1434   0.822   2.864   1.372
  465SOL    HW1 1435   0.862   2.863   1.280
  465SOL    HW2 1436   0.832   2.956   1.412
  466SOL     OW 1437   0.916   2.772   0.291
  466SOL    HW1 1438   0.979   2.810   0.223
  466SOL    HW2 1439   0.956   2.689   0.330
  467SOL     OW 1440   0.372   3.150   1.490
  467SOL    HW1 1441   0.359   3.243   1.456
  467SOL    HW2 1442   0.288   3.098   1.477
  468SOL     OW 1443   1.614   3.154   1.289
  468SOL    HW1 1444   1.674   3.157   1.369
  468SOL    HW2 1445   1.539   3.218   1.302
  469SOL     OW 1446   1.039   2.960   0.696
  469SOL    HW1 1447   0.969   2.913   0.750
  469SOL    HW2 1448   1.098   2.892   0.653
  470SOL     OW 1449   1.014   2.098   0.971
  470SOL    HW1 1450   1.006   2.062   0.878
  470SOL    HW2 1451   1.012   2.022   1.036
  471SOL     OW 1452   1.709   2.247   1.381
  471SOL    HW1 1453   1.782   2.316   1.385
  471SOL    HW2 1454   1.737   2.172   1.322
  472SOL     OW 1455   0.105   2.875   1.726
  472SOL    HW1 1456   0.028   2.842   1.780
  472SOL    HW2 1457   0.190   2.845   1.768
  473SOL     OW 1458   0.672   2.065   1.489
  473SOL    HW1 1459   0.762   2.049   1.449
  473SOL    HW2 1460   0.680   2.070   1.588
  474SOL     OW 1461   0.075   2.207   0.033
  474SOL    HW1 1462  -0.017   2.179   0.004
  474SOL    HW2 1463   0.106   2.284  -0.023
  475SOL     OW 1464   1.440   2.718   1.398
  475SOL    HW1 1465   1.383   2.770   1.335
  475SOL    HW2 1466   1.536   2.730   1.374
  476SOL     OW 1467   0.072   2.028   0.318
  476SOL    HW1 1468   0.055   2.111   0.264
  476SOL    HW2 1469   0.162   1.991   0.296
  477SOL     OW 1470   0.613   2.704   1.431
  477SOL    HW1 1471   0.669   2.785   1.414
  477SOL    HW2 1472   0.672   2.624   1.434
  478SOL     OW 1473   0.716   2.427   1.708
  478SOL    HW1 1474   0.735   2.492   1.782
  478SOL    HW2 1475   0.776   2.347   1.717
  479SOL     OW 1476   1.450   3.082   1.633
  479SOL    HW1 1477   1.441   3.072   1.732
  479SOL    HW2 1478   1.546   3.075   1.607
  480SOL     OW 1479   1.674   2.745   1.254
  480SOL    HW1 1480   1.647   2.656   1.217
  480SOL    HW2 1481   1.675   2.813   1.181
  481SOL     OW 1482   1.225   2.187   0.449
  481SOL    HW1 1483   1.290   2.113   0.438
  481SOL    HW2 1484   1.245   2.237   0.533
  482SOL     OW 1485   0.594   2.607   0.652
  482SOL    HW1 1486   0.644   2.692   0.633
  482SOL    HW2 1487   0.506   2.609   0.604
  483SOL     OW 1488   1.777   2.204   1.642
  483SOL    HW1 1489   1.760   2.235   1.548
  483SOL    HW2 1490   1.693   2.167   1.680
  484SOL     OW 1491   1.730   2.796   1.517
  484SOL    HW1 1492   1.768   2.887   1.532
  484SOL    HW2 1493   1.722   2.779   1.418
  485SOL     OW 1494   0.859   2.818   0.861
  485SOL    HW1 1495   0.913   2.749   0.909
  485SOL    HW2 1496   0.827   2.887   0.927
  486SOL     OW 1497   1.083   2.846   0.087
  486SOL    HW1 1498   1.060   2.899   0.005
  486SOL    HW2 1499   1.164   2.790   0.068
  487SOL     OW 1500   0.079   3.102   0.653
  487SOL    HW1 1501   0.078   3.055   0.741
  487SOL    HW2 1502   0.161   3.074   0.602
  488SOL     OW 1503   1.824   2.054   1.227
  488SOL    HW1 1504   1.820   1.964   1.271
  488SOL    HW2 1505   1.827   2.043   1.128
  489SOL     OW 1506   0.428   2.286   0.520
  489SOL    HW1 1507   0.458   2.214   0.458
  489SOL    HW2 1508   0.389   2.246   0.603
  490SOL     OW 1509   0.317   2.409   1.280
  490SOL    HW1 1510   0.355   2.350   1.352
  490SOL    HW2 1511   0.357   2.383   1.192
  491SOL     OW 1512   1.424   2.076   1.112
  491SOL    HW1 1513   1.476   2.011   1.167
  491SOL    HW2 1514   1.375   2.139   1.173
  492SOL     OW 1515   1.001   1.896   1.154
  492SOL    HW1 1516   0.938   1.824   1.123
  492SOL    HW2 1517   1.094   1.860   1.154
  493SOL     OW 1518   0.770   3.192   0.301
  493SOL    HW1 1519   0.724   3.105   0.318
  493SOL    HW2 1520   0.861   3.189   0.342
  494SOL     OW 1521   1.352   1.914   0.168
  494SOL    HW1 1522   1.387   1.873   0.084
  494SOL    HW2 1523   1.262   1.876   0.188
  495SOL     OW 1524   1.300   2.315   0.691
  495SOL    HW1 1525   1.241   2.395   0.695
  495SOL    HW2 1526   1.315   2.280   0.784
  496SOL     OW 1527   1.593   2.083   0.882
  496SOL    HW1 1528   1.509   2.082   0.936
  496SOL    HW2 1529   1.595   2.166   0.826
  497SOL     OW 1530   0.039   2.939   0.300
  497SOL    HW1 1531   0.138   2.928   0.291
  497SOL    HW2 1532  -0.001   2.853   0.332
  498SOL     OW 1533   0.230   2.490   1.975
  498SOL    HW1 1534   0.137   2.488   2.012
  498SOL    HW2 1535   0.231   2.451   1.883
  499SOL     OW 1536   0.225   2.137   2.858
  499SOL    HW1 1537   0.260   2.120   2.950
  499SOL    HW2 1538   0.137   2.092   2.846
  500SOL     OW 1539   0.019   2.230   2.509
  500SOL    HW1 1540  -0.063   2.273   2.548
  500SOL    HW2 1541  -0.009   2.157   2.446
  501SOL     OW 1542   1.135   2.565   2.579
  501SOL    HW1 1543   1.192   2.643   2.554
  501SOL    HW2 1544   1.075   2.591   2.655
  502SOL     OW 1545   1.755   2.469   2.093
  502SOL    HW1 1546   1.743   2.456   1.994
  502SOL    HW2 1547   1.725   2.388   2.142
  503SOL     OW 1548   0.768   3.006   2.885
  503SOL    HW1 1549   0.690   3.023   2.945
  503SOL    HW2 1550   0.802   3.093   2.849
  504SOL     OW 1551   0.685   2.874   2.527
  504SOL    HW1 1552   0.754   2.858   2.597
  504SOL    HW2 1553   0.612   2.931   2.565
  505SOL     OW 1554   0.335   3.297   2.923
  505SOL    HW1 1555   0.257   3.266   2.870
  505SOL    HW2 1556   0.393   3.355   2.866
  506SOL     OW 1557   1.603   2.309   2.599
  506SOL    HW1 1558   1.529   2.355   2.549
  506SOL    HW2 1559   1.654   2.377   2.652
  507SOL     OW 1560   0.240   2.953   2.748
  507SOL    HW1 1561   0.254   2.869   2.800
  507SOL    HW2 1562   0.185   3.017   2.803
  508SOL     OW 1563   0.606   2.826   1.985
  508SOL    HW1 1564   0.613   2.910   1.931
  508SOL    HW2 1565   0.652   2.839   2.073
  509SOL     OW 1566   0.122   2.505   2.425
  509SOL    HW1 1567   0.077   2.417   2.442
  509SOL    HW2 1568   0.121   2.559   2.509
  510SOL     OW 1569   1.689   2.784   2.474
  510SOL    HW1 1570   1.784   2.755   2.482
  510SOL    HW2 1571   1.681   2.849   2.399
  511SOL     OW 1572   1.641   2.970   2.294
  511SOL    HW1 1573   1.727   2.972   2.242
  511SOL    HW2 1574   1.655   3.017   2.382
  512SOL     OW 1575   0.809   1.866   2.364
  512SOL    HW1 1576   0.849   1.957   2.355
  512SOL    HW2 1577   0.709   1.874   2.370
  513SOL     OW 1578   0.197   2.838   3.126
  513SOL    HW1 1579   0.286   2.793   3.112
  513SOL    HW2 1580   0.124   2.773   3.107
  514SOL     OW 1581   1.525   2.861   2.052
  514SOL    HW1 1582   1.462   2.785   2.065
  514SOL    HW2 1583   1.573   2.879   2.138
  515SOL     OW 1584   0.598   2.591   2.132
  515SOL    HW1 1585   0.622   2.660   2.064
  515SOL    HW2 1586   0.520   2.624   2.186
  516SOL     OW 1587   1.281   2.207   2.806
  516SOL    HW1 1588   1.195   2.157   2.793
  516SOL    HW2 1589   1.343   2.153   2.862
  517SOL     OW 1590   1.041   2.563   2.291
  517SOL    HW1 1591   1.067   2.559   2.387
  517SOL    HW2 1592   0.956   2.512   2.277
  518SOL     OW 1593   0.076   2.673   2.651
  518SOL    HW1 1594   0.175   2.661   2.660
  518SOL    HW2 1595   0.052   2.768   2.672
  519SOL     OW 1596   0.865   2.210   2.057
  519SOL    HW1 1597   0.924   2.273   2.008
  519SOL    HW2 1598   0.884   2.116   2.028
  520SOL     OW 1599   1.362   3.006   2.407
  520SOL    HW1 1600   1.445   2.977   2.359
  520SOL    HW2 1601   1.313   3.073   2.351
  521SOL     OW 1602   0.550   2.058   2.747
  521SOL    HW1 1603   0.545   2.053   2.847
  521SOL    HW2 1604   0.552   2.154   2.718
  522SOL     OW 1605   1.795   2.928   2.735
  522SOL    HW1 1606   1.733   2.913   2.659
  522SOL    HW2 1607   1.743   2.939   2.820
  523SOL     OW 1608   0.321   2.805   2.104
  523SOL    HW1 1609   0.403   2.844   2.062
  523SOL    HW2 1610   0.294   2.723   2.055
  524SOL     OW 1611   1.458   2.597   2.590
  524SOL    HW1 1612   1.453   2.532   2.665
  524SOL    HW2 1613   1.538   2.656   2.603
  525SOL     OW 1614   1.400   1.969   2.288
  525SOL    HW1 1615   1.376   1.932   2.198
  525SOL    HW2 1616   1.499   1.985   2.292
  526SOL     OW 1617   0.382   2.562   2.342
  526SOL    HW1 1618   0.427   2.472   2.339
  526SOL    HW2 1619   0.288   2.551   2.375
  527SOL     OW 1620   0.614   1.984   1.979
  527SOL    HW1 1621   0.712   1.962   1.986
  527SOL    HW2 1622   0.583   1.967   1.886
  528SOL     OW 1623   0.803   3.264   2.786
  528SOL    HW1 1624   0.893   3.278   2.744
  528SOL    HW2 1625   0.732   3.266   2.715
  529SOL     OW 1626   0.922   2.365   2.761
  529SOL    HW1 1627   0.897   2.356   2.665
  529SOL    HW2 1628   0.970   2.283   2.792
  530SOL     OW 1629   0.539   1.926   2.374
  530SOL    HW1 1630   0.458   1.927   2.432
  530SOL    HW2 1631   0.542   2.009   2.319
  531SOL     OW 1632   0.297   1.897   2.033
  531SOL    HW1 1633   0.346   1.981   2.012
  531SOL    HW2 1634   0.359   1.832   2.078
  532SOL     OW 1635   0.935   2.098   2.342
  532SOL    HW1 1636   0.887   2.139   2.264
  532SOL    HW2 1637   1.034   2.096   2.323
  533SOL     OW 1638   0.459   3.014   2.603
  533SOL    HW1 1639   0.388   2.987   2.668
  533SOL    HW2 1640   0.433   2.986   2.510
  534SOL     OW 1641   1.032   2.411   1.878
  534SOL    HW1 1642   0.991   2.493   1.839
  534SOL    HW2 1643   1.096   2.437   1.951
  535SOL     OW 1644   0.561   2.084   3.009
  535SOL    HW1 1645   0.599   2.000   3.046
  535SOL    HW2 1646   0.473   2.103   3.053
  536SOL     OW 1647   0.866   2.316   2.504
  536SOL    HW1 1648   0.834   2.388   2.442
  536SOL    HW2 1649   0.890   2.235   2.451
  537SOL     OW 1650   1.017   1.901   2.615
  537SOL    HW1 1651   0.945   1.906   2.546
  537SOL    HW2 1652   0.993   1.832   2.684
  538SOL     OW 1653   1.429   3.035   2.729
  538SOL    HW1 1654   1.374   2.951   2.722
  538SOL    HW2 1655   1.455   3.064   2.637
  539SOL     OW 1656   1.466   2.452   2.854
  539SOL    HW1 1657   1.436   2.357   2.861
  539SOL    HW2 1658   1.539   2.468   2.920
  540SOL     OW 1659   1.857   2.695   2.239
  540SOL    HW1 1660   1.899   2.631   2.303
  540SOL    HW2 1661   1.819   2.644   2.161
  541SOL     OW 1662   1.390   2.437   1.940
  541SOL    HW1 1663   1.336   2.416   2.021
  541SOL    HW2 1664   1.481   2.396   1.949
  542SOL     OW 1665   0.527   2.118   2.190
  542SOL    HW1 1666   0.554   2.059   2.115
  542SOL    HW2 1667   0.527   2.213   2.159
  543SOL     OW 1668   1.638   2.961   2.941
  543SOL    HW1 1669   1.643   3.042   3.000
  543SOL    HW2 1670   1.552   2.963   2.890
  544SOL     OW 1671   0.705   2.912   2.230
  544SOL    HW1 1672   0.691   2.919   2.329
  544SOL    HW2 1673   0.789   2.861   2.212
  545SOL     OW 1674   0.410   2.675   3.113
  545SOL    HW1 1675   0.496   2.687   3.163
  545SOL    HW2 1676   0.368   2.588   3.140
  546SOL     OW 1677   1.274   2.248   3.124
  546SOL    HW1 1678   1.295   2.322   3.188
  546SOL    HW2 1679   1.185   2.265   3.081
  547SOL     OW 1680   0.367   2.962   2.363
  547SOL    HW1 1681   0.360   3.045   2.307
  547SOL    HW2 1682   0.371   2.882   2.303
  548SOL     OW 1683   0.566   2.399   2.727
  548SOL    HW1 1684   0.578   2.465   2.653
  548SOL    HW2 1685   0.612   2.433   2.810
  549SOL     OW 1686   1.582   2.501   2.334
  549SOL    HW1 1687   1.551   2.562   2.407
  549SOL    HW2 1688   1.632   2.553   2.265
  550SOL     OW 1689   0.573   2.732   2.891
  550SOL    HW1 1690   0.617   2.821   2.882
  550SOL    HW2 1691   0.510   2.732   2.968
  551SOL     OW 1692   1.360   2.724   2.907
  551SOL    HW1 1693   1.285   2.724   2.841
  551SOL    HW2 1694   1.397   2.632   2.916
  552SOL     OW 1695   1.209   2.387   2.137
  552SOL    HW1 1696   1.222   2.303   2.191
  552SOL    HW2 1697   1.180   2.461   2.197
  553SOL     OW 1698   0.307   2.075   3.093
  553SOL    HW1 1699   0.284   2.112   3.183
  553SOL    HW2 1700   0.277   1.980   3.087
  554SOL     OW 1701   0.037   3.172   3.144
  554SOL    HW1 1702   0.090   3.123   3.212
  554SOL    HW2 1703   0.059   3.270   3.149
  555SOL     OW 1704   0.732   2.496   2.926
  555SOL    HW1 1705   0.791   2.470   2.850
  555SOL    HW2 1706   0.704   2.592   2.915
  556SOL     OW 1707   0.307   1.925   2.480
  556SOL    HW1 1708   0.296   2.019   2.513
  556SOL    HW2 1709   0.302   1.862   2.557
  557SOL     OW 1710   1.622   2.229   2.236
  557SOL    HW1 1711   1.624   2.153   2.300
  557SOL    HW2 1712   1.574   2.306   2.276
  558SOL     OW 1713   1.023   2.628   2.828
  558SOL    HW1 1714   1.038   2.649   2.924
  558SOL    HW2 1715   0.993   2.533   2.819
  559SOL     OW 1716   1.540   2.136   1.987
  559SOL    HW1 1717   1.479   2.061   2.010
  559SOL    HW2 1718   1.562   2.188   2.070
  560SOL     OW 1719   1.303   2.700   1.904
  560SOL    HW1 1720   1.337   2.607   1.919
  560SOL    HW2 1721   1.321   2.727   1.809
  561SOL     OW 1722   0.319   2.672   2.811
  561SOL    HW1 1723   0.412   2.708   2.816
  561SOL    HW2 1724   0.313   2.587   2.863
  562SOL     OW 1725   0.339   2.371   2.868
  562SOL    HW1 1726   0.287   2.288   2.851
  562SOL    HW2 1727   0.416   2.376   2.804
  563SOL     OW 1728   1.160   2.069   3.339
  563SOL    HW1 1729   1.160   2.133   3.416
  563SOL    HW2 1730   1.188   2.117   3.256
  564SOL     OW 1731   0.008   3.188   2.062
  564SOL    HW1 1732  -0.085   3.209   2.031
  564SOL    HW2 1733   0.018   3.089   2.075
  565SOL     OW 1734   1.002   2.658   3.100
  565SOL    HW1 1735   1.043   2.626   3.186
  565SOL    HW2 1736   0.906   2.631   3.097
  566SOL     OW 1737   0.040   2.406   2.976
  566SOL    HW1 1738   0.125   2.373   2.935
  566SOL    HW2 1739   0.053   2.421   3.074
  567SOL     OW 1740   0.815   2.434   2.187
  567SOL    HW1 1741   0.822   2.345   2.141
  567SOL    HW2 1742   0.721   2.468   2.179
  568SOL     OW 1743   1.657   2.466   3.068
  568SOL    HW1 1744   1.619   2.397   3.130
  568SOL    HW2 1745   1.739   2.430   3.024
  569SOL     OW 1746   0.671   2.326   3.131
  569SOL    HW1 1747   0.637   2.237   3.101
  569SOL    HW2 1748   0.697   2.380   3.051
  570SOL     OW 1749   0.473   2.362   2.053
  570SOL    HW1 1750   0.534   2.442   2.057
  570SOL    HW2 1751   0.378   2.393   2.060
  571SOL     OW 1752   1.347   2.921   3.096
  571SOL    HW1 1753   1.371   2.858   3.022
  571SOL    HW2 1754   1.257   2.961   3.078
  572SOL     OW 1755   1.302   2.717   2.171
  572SOL    HW1 1756   1.216   2.686   2.213
  572SOL    HW2 1757   1.298   2.703   2.072
  573SOL     OW 1758   0.083   3.120   2.884
  573SOL    HW1 1759   0.078   3.119   2.984
  573SOL    HW2 1760   0.000   3.079   2.846
  574SOL     OW 1761   1.726   1.997   2.385
  574SOL    HW1 1762   1.799   1.980   2.318
  574SOL    HW2 1763   1.695   1.910   2.423
  575SOL     OW 1764   1.280   2.789   2.534
  575SOL    HW1 1765   1.340   2.708   2.536
  575SOL    HW2 1766   1.320   2.858   2.474
  576SOL     OW 1767   1.841   2.037   2.825
  576SOL    HW1 1768   1.880   1.952   2.789
  576SOL    HW2 1769   1.743   2.039   2.806
  577SOL     OW 1770   0.263   2.188   2.582
  577SOL    HW1 1771   0.184   2.239   2.548
  577SOL    HW2 1772   0.254   2.173   2.680
  578SOL     OW 1773   1.194   3.474   1.893
  578SOL    HW1 1774   1.200   3.381   1.930
  578SOL    HW2 1775   1.135   3.474   1.813
  579SOL     OW 1776   0.822   2.864   3.234
  579SOL    HW1 1777   0.862   2.863   3.142
  579SOL    HW2 1778   0.832   2.956   3.274
  580SOL     OW 1779   0.916   2.772   2.153
  580SOL    HW1 1780   0.979   2.810   2.085
  580SOL    HW2 1781   0.956   2.689   2.192
  581SOL     OW 1782   1.614   3.154   3.151
  581SOL    HW1 1783   1.674   3.157   3.231
  581SOL    HW2 1784   1.539   3.218   3.164
  582SOL     OW 1785   1.039   2.960   2.558
  582SOL    HW1 1786   0.969   2.913   2.612
  582SOL    HW2 1787   1.098   2.892   2.515
  583SOL     OW 1788   1.014   2.098   2.833
  583SOL    HW1 1789   1.006   2.062   2.740
  583SOL    HW2 1790   1.012   2.022   2.898
  584SOL     OW 1791   1.709   2.247   3.243
  584SOL    HW1 1792   1.782   2.316   3.247
  584SOL    HW2 1793   1.737   2.172   3.184
  585SOL     OW 1794   0.075   2.207   1.895
  585SOL    HW1 1795  -0.017   2.179   1.866
  585SOL    HW2 1796   0.106   2.284   1.839
  586SOL     OW 1797   0.072   2.028   2.180
  586SOL    HW1 1798   0.055   2.111   2.126
  586SOL    HW2 1799   0.162   1.991   2.158
  587SOL     OW 1800   1.674   2.745   3.116
  587SOL    HW1 1801   1.647   2.656   3.079
  587SOL    HW2 1802   1.675   2.813   3.043
  588SOL     OW 1803   1.225   2.187   2.311
  588SOL    HW1 1804   1.290   2.113   2.300
  588SOL    HW2 1805   1.245   2.237   2.395
  589SOL     OW 1806   0.594   2.607   2.514
  589SOL    HW1 1807   0.644   2.692   2.495
  589SOL    HW2 1808   0.506   2.609   2.466
  590SOL     OW 1809   1.730   2.796   3.379
  590SOL    HW1 1810   1.768   2.887   3.394
  590SOL    HW2 1811   1.722   2.779   3.280
  591SOL     OW 1812   0.859   2.818   2.723
  591SOL    HW1 1813   0.913   2.749   2.771
  591SOL    HW2 1814   0.827   2.887   2.789
  592SOL     OW 1815   1.083   2.846   1.949
  592SOL    HW1 1816   1.060   2.899   1.867
  592SOL    HW2 1817   1.164   2.790   1.930
  593SOL     OW 1818   0.079   3.102   2.515
  593SOL    HW1 1819   0.078   3.055   2.603
  593SOL    HW2 1820   0.161   3.074   2.464
  594SOL     OW 1821   1.824   2.054   3.089
  594SOL    HW1 1822   1.820   1.964   3.133
  594SOL    HW2 1823   1.827   2.043   2.990
  595SOL     OW 1824   0.428   2.286   2.382
  595SOL    HW1 1825   0.458   2.214   2.320
  595SOL    HW2 1826   0.389   2.246   2.465
  596SOL     OW 1827   1.424   2.076   2.974
  596SOL    HW1 1828   1.476   2.011   3.029
  596SOL    HW2 1829   1.375   2.139   3.035
  597SOL     OW 1830   1.001   1.896   3.016
  597SOL    HW1 1831   0.938   1.824   2.985
  597SOL    HW2 1832   1.094   1.860   3.016
  598SOL     OW 1833   0.770   3.192   2.163
  598SOL    HW1 1834   0.724   3.105   2.180
  598SOL    HW2 1835   0.861   3.189   2.204
  599SOL     OW 1836   1.352   1.914   2.030
  599SOL    HW1 1837   1.387   1.873   1.946
  599SOL    HW2 1838   1.262   1.876   2.050
  600SOL     OW 1839   1.300   2.315   2.553
  600SOL    HW1 1840   1.241   2.395   2.557
  600SOL    HW2 1841   1.315   2.280   2.646
  601SOL     OW 1842   1.593   2.083   2.744
  601SOL    HW1 1843   1.509   2.082   2.798
  601SOL    HW2 1844   1.595   2.166   2.688
  602SOL     OW 1845   0.039   2.939   2.162
  602SOL    HW1 1846   0.138   2.928   2.153
  602SOL    HW2 1847  -0.001   2.853   2.194
  603SOL     OW 1848   2.092   0.628   0.113
  603SOL    HW1 1849   1.999   0.626   0.150
  603SOL    HW2 1850   2.093   0.589   0.021
  604SOL     OW 1851   2.087   0.275   0.996
  604SOL    HW1 1852   2.122   0.258   1.088
  604SOL    HW2 1853   1.999   0.230   0.984
  605SOL     OW 1854   1.881   0.368   0.647
  605SOL    HW1 1855   1.799   0.411   0.686
  605SOL    HW2 1856   1.853   0.295   0.584
  606SOL     OW 1857   2.431   1.275   1.165
  606SOL    HW1 1858   2.338   1.268   1.128
  606SOL    HW2 1859   2.442   1.364   1.209
  607SOL     OW 1860   2.997   0.703   0.717
  607SOL    HW1 1861   3.054   0.781   0.692
  607SOL    HW2 1862   2.937   0.729   0.793
  608SOL     OW 1863   2.630   1.144   1.023
  608SOL    HW1 1864   2.552   1.161   1.083
  608SOL    HW2 1865   2.664   1.231   0.987
  609SOL     OW 1866   2.712   0.798   1.823
  609SOL    HW1 1867   2.708   0.874   1.888
  609SOL    HW2 1868   2.734   0.834   1.732
  610SOL     OW 1869   2.547   1.012   0.665
  610SOL    HW1 1870   2.616   0.996   0.735
  610SOL    HW2 1871   2.474   1.069   0.703
  611SOL     OW 1872   2.548   1.161   1.803
  611SOL    HW1 1873   2.608   1.240   1.817
  611SOL    HW2 1874   2.462   1.192   1.762
  612SOL     OW 1875   2.197   1.435   1.061
  612SOL    HW1 1876   2.119   1.404   1.008
  612SOL    HW2 1877   2.255   1.493   1.004
  613SOL     OW 1878   2.300   0.392   1.499
  613SOL    HW1 1879   2.382   0.336   1.508
  613SOL    HW2 1880   2.219   0.334   1.503
  614SOL     OW 1881   2.093   1.713   0.483
  614SOL    HW1 1882   2.127   1.790   0.537
  614SOL    HW2 1883   2.137   1.713   0.393
  615SOL     OW 1884   2.989   1.341   1.690
  615SOL    HW1 1885   3.036   1.341   1.778
  615SOL    HW2 1886   2.941   1.254   1.679
  616SOL     OW 1887   2.092   1.434   0.538
  616SOL    HW1 1888   2.066   1.530   0.538
  616SOL    HW2 1889   2.021   1.380   0.583
  617SOL     OW 1890   2.102   1.091   0.886
  617SOL    HW1 1891   2.116   1.007   0.938
  617SOL    HW2 1892   2.047   1.155   0.941
  618SOL     OW 1893   2.482   1.786   1.439
  618SOL    HW1 1894   2.390   1.769   1.474
  618SOL    HW2 1895   2.510   1.878   1.465
  619SOL     OW 1896   2.468   0.964   0.123
  619SOL    HW1 1897   2.475   1.048   0.069
  619SOL    HW2 1898   2.514   0.977   0.211
  620SOL     OW 1899   1.984   0.643   0.563
  620SOL    HW1 1900   1.939   0.555   0.580
  620SOL    HW2 1901   1.983   0.697   0.647
  621SOL     OW 1902   1.889   1.596   0.117
  621SOL    HW1 1903   1.870   1.500   0.138
  621SOL    HW2 1904   1.856   1.654   0.192
  622SOL     OW 1905   1.975   0.737   1.597
  622SOL    HW1 1906   2.063   0.724   1.642
  622SOL    HW2 1907   1.962   0.834   1.575
  623SOL     OW 1908   2.475   1.365   0.726
  623SOL    HW1 1909   2.426   1.278   0.735
  623SOL    HW2 1910   2.452   1.408   0.639
  624SOL     OW 1911   2.671   0.004   0.502
  624SOL    HW1 1912   2.711   0.095   0.493
  624SOL    HW2 1913   2.571   0.012   0.508
  625SOL     OW 1914   2.059   0.976   1.264
  625SOL    HW1 1915   2.148   0.931   1.250
  625SOL    HW2 1916   1.986   0.911   1.245
  626SOL     OW 1917   3.049   1.792   1.616
  626SOL    HW1 1918   3.073   1.852   1.540
  626SOL    HW2 1919   3.056   1.697   1.586
  627SOL     OW 1920   2.179   0.251   1.801
  627SOL    HW1 1921   2.250   0.322   1.807
  627SOL    HW2 1922   2.091   0.290   1.829
  628SOL     OW 1923   2.460   0.729   0.270
  628SOL    HW1 1924   2.484   0.798   0.202
  628SOL    HW2 1925   2.382   0.762   0.324
  629SOL     OW 1926   2.669   0.605   1.465
  629SOL    HW1 1927   2.622   0.602   1.554
  629SOL    HW2 1928   2.618   0.550   1.399
  630SOL     OW 1929   2.835   0.890   1.572
  630SOL    HW1 1930   2.881   0.806   1.543
  630SOL    HW2 1931   2.779   0.924   1.497
  631SOL     OW 1932   2.853   0.410   1.242
  631SOL    HW1 1933   2.776   0.444   1.296
  631SOL    HW2 1934   2.819   0.359   1.163
  632SOL     OW 1935   2.903   0.701   0.429
  632SOL    HW1 1936   2.929   0.697   0.525
  632SOL    HW2 1937   2.818   0.650   0.415
  633SOL     OW 1938   1.938   0.811   0.789
  633SOL    HW1 1939   2.037   0.799   0.798
  633SOL    HW2 1940   1.914   0.906   0.810
  634SOL     OW 1941   2.727   0.348   0.195
  634SOL    HW1 1942   2.786   0.411   0.146
  634SOL    HW2 1943   2.746   0.254   0.166
  635SOL     OW 1944   2.412   0.196   0.885
  635SOL    HW1 1945   2.407   0.191   0.985
  635SOL    HW2 1946   2.414   0.292   0.856
  636SOL     OW 1947   2.870   1.456   0.477
  636SOL    HW1 1948   2.824   1.528   0.425
  636SOL    HW2 1949   2.866   1.476   0.575
  637SOL     OW 1950   2.213   1.801   0.853
  637SOL    HW1 1951   2.263   1.715   0.859
  637SOL    HW2 1952   2.278   1.878   0.850
  638SOL     OW 1953   3.089   1.550   1.506
  638SOL    HW1 1954   3.095   1.473   1.570
  638SOL    HW2 1955   3.037   1.524   1.426
  639SOL     OW 1956   2.183   0.943   0.242
  639SOL    HW1 1957   2.265   0.982   0.200
  639SOL    HW2 1958   2.156   0.861   0.193
  640SOL     OW 1959   2.323   1.266   1.727
  640SOL    HW1 1960   2.273   1.267   1.641
  640SOL    HW2 1961   2.260   1.248   1.803
  641SOL     OW 1962   2.973   1.776   0.237
  641SOL    HW1 1963   2.913   1.714   0.287
  641SOL    HW2 1964   3.004   1.732   0.152
  642SOL     OW 1965   2.064   0.285   1.498
  642SOL    HW1 1966   1.984   0.345   1.485
  642SOL    HW2 1967   2.054   0.236   1.584
  643SOL     OW 1968   2.326   1.743   0.323
  643SOL    HW1 1969   2.359   1.782   0.409
  643SOL    HW2 1970   2.402   1.736   0.258
  644SOL     OW 1971   2.111   1.785   1.241
  644SOL    HW1 1972   2.168   1.720   1.291
  644SOL    HW2 1973   2.095   1.752   1.148
  645SOL     OW 1974   2.802   1.698   0.904
  645SOL    HW1 1975   2.882   1.641   0.925
  645SOL    HW2 1976   2.753   1.658   0.827
  646SOL     OW 1977   2.244   0.700   0.480
  646SOL    HW1 1978   2.289   0.610   0.477
  646SOL    HW2 1979   2.150   0.689   0.513
  647SOL     OW 1980   2.476   0.122   0.117
  647SOL    HW1 1981   2.574   0.100   0.124
  647SOL    HW2 1982   2.445   0.105   0.024
  648SOL     OW 1983   2.643   0.264   1.749
  648SOL    HW1 1984   2.710   0.203   1.792
  648SOL    HW2 1985   2.570   0.283   1.814
  649SOL     OW 1986   2.750   1.514   1.195
  649SOL    HW1 1987   2.727   1.489   1.101
  649SOL    HW2 1988   2.811   1.445   1.234
  650SOL     OW 1989   2.665   1.402   0.924
  650SOL    HW1 1990   2.755   1.416   0.882
  650SOL    HW2 1991   2.594   1.404   0.853
  651SOL     OW 1992   2.784   0.503   0.899
  651SOL    HW1 1993   2.759   0.494   0.803
  651SOL    HW2 1994   2.832   0.421   0.930
  652SOL     OW 1995   2.401   0.064   0.512
  652SOL    HW1 1996   2.320   0.065   0.570
  652SOL    HW2 1997   2.404   0.147   0.457
  653SOL     OW 1998   2.159   0.035   0.171
  653SOL    HW1 1999   2.208   0.119   0.150
  653SOL    HW2 2000   2.221  -0.030   0.216
  654SOL     OW 2001   2.797   0.236   0.480
  654SOL    HW1 2002   2.749   0.277   0.402
  654SOL    HW2 2003   2.896   0.234   0.461
  655SOL     OW 2004   2.938   0.683   1.464
  655SOL    HW1 2005   2.858   0.622   1.467
  655SOL    HW2 2006   3.019   0.630   1.440
  656SOL     OW 2007   3.089   1.570   0.793
  656SOL    HW1 2008   3.110   1.644   0.728
  656SOL    HW2 2009   3.157   1.570   0.866
  657SOL     OW 2010   2.321   1.152   0.741
  657SOL    HW1 2011   2.250   1.125   0.806
  657SOL    HW2 2012   2.295   1.124   0.648
  658SOL     OW 2013   3.133   1.797   0.591
  658SOL    HW1 2014   3.177   1.861   0.527
  658SOL    HW2 2015   3.083   1.849   0.661
  659SOL     OW 2016   2.894   0.549   0.016
  659SOL    HW1 2017   2.853   0.631  -0.023
  659SOL    HW2 2018   2.958   0.575   0.089
  660SOL     OW 2019   1.940   0.556   1.386
  660SOL    HW1 2020   2.032   0.555   1.345
  660SOL    HW2 2021   1.934   0.630   1.453
  661SOL     OW 2022   2.423   0.222   1.147
  661SOL    HW1 2023   2.461   0.138   1.184
  661SOL    HW2 2024   2.335   0.241   1.191
  662SOL     OW 2025   2.728   0.454   0.642
  662SOL    HW1 2026   2.696   0.526   0.580
  662SOL    HW2 2027   2.752   0.373   0.589
  663SOL     OW 2028   2.879   0.039   0.753
  663SOL    HW1 2029   2.807   0.044   0.684
  663SOL    HW2 2030   2.855  -0.030   0.822
  664SOL     OW 2031   2.350   1.385   0.174
  664SOL    HW1 2032   2.263   1.370   0.221
  664SOL    HW2 2033   2.333   1.411   0.079
  665SOL     OW 2034   2.389   0.256   0.328
  665SOL    HW1 2035   2.416   0.197   0.253
  665SOL    HW2 2036   2.389   0.351   0.297
  666SOL     OW 2037   2.926   1.347   1.340
  666SOL    HW1 2038   2.846   1.324   1.395
  666SOL    HW2 2039   3.009   1.321   1.389
  667SOL     OW 2040   2.973   1.195   1.100
  667SOL    HW1 2041   2.933   1.239   1.181
  667SOL    HW2 2042   2.932   1.232   1.017
  668SOL     OW 2043   2.777   0.089   1.402
  668SOL    HW1 2044   2.802   0.069   1.307
  668SOL    HW2 2045   2.849   0.145   1.444
  669SOL     OW 2046   2.842   1.116   1.719
  669SOL    HW1 2047   2.743   1.122   1.729
  669SOL    HW2 2048   2.865   1.036   1.663
  670SOL     OW 2049   2.567   1.050   0.368
  670SOL    HW1 2050   2.553   1.057   0.467
  670SOL    HW2 2051   2.651   0.999   0.350
  671SOL     OW 2052   2.272   0.813   1.251
  671SOL    HW1 2053   2.358   0.825   1.301
  671SOL    HW2 2054   2.230   0.726   1.278
  672SOL     OW 2055   1.926   1.564   1.331
  672SOL    HW1 2056   1.880   1.646   1.297
  672SOL    HW2 2057   2.024   1.583   1.340
  673SOL     OW 2058   2.229   1.100   0.501
  673SOL    HW1 2059   2.222   1.183   0.445
  673SOL    HW2 2060   2.233   1.020   0.441
  674SOL     OW 2061   2.428   0.537   0.865
  674SOL    HW1 2062   2.440   0.603   0.791
  674SOL    HW2 2063   2.474   0.571   0.948
  675SOL     OW 2064   3.114   1.348   0.388
  675SOL    HW1 2065   3.164   1.425   0.428
  675SOL    HW2 2066   3.019   1.350   0.420
  676SOL     OW 2067   2.216   1.510   1.329
  676SOL    HW1 2068   2.195   1.466   1.242
  676SOL    HW2 2069   2.313   1.536   1.332
  677SOL     OW 2070   2.264   0.751   1.598
  677SOL    HW1 2071   2.332   0.806   1.551
  677SOL    HW2 2072   2.304   0.663   1.625
  678SOL     OW 2073   2.875   0.105   1.770
  678SOL    HW1 2074   2.881   0.190   1.718
  678SOL    HW2 2075   2.907   0.029   1.713
  679SOL     OW 2076   2.366   0.050   1.740
  679SOL    HW1 2077   2.324  -0.007   1.670
  679SOL    HW2 2078   2.300   0.119   1.772
  680SOL     OW 2079   2.435   0.870   1.029
  680SOL    HW1 2080   2.479   0.959   1.020
  680SOL    HW2 2081   2.372   0.870   1.106
  681SOL     OW 2082   3.222   0.862   1.045
  681SOL    HW1 2083   3.147   0.862   0.979
  681SOL    HW2 2084   3.259   0.770   1.054
  682SOL     OW 2085   3.071   0.525   0.275
  682SOL    HW1 2086   3.084   0.441   0.329
  682SOL    HW2 2087   3.042   0.599   0.335
  683SOL     OW 2088   2.169   0.213   1.231
  683SOL    HW1 2089   2.146   0.250   1.321
  683SOL    HW2 2090   2.139   0.118   1.225
  684SOL     OW 2091   1.899   1.310   1.282
  684SOL    HW1 2092   1.952   1.261   1.350
  684SOL    HW2 2093   1.921   1.408   1.287
  685SOL     OW 2094   2.594   0.634   1.064
  685SOL    HW1 2095   2.653   0.608   0.988
  685SOL    HW2 2096   2.566   0.730   1.053
  686SOL     OW 2097   2.169   0.063   0.618
  686SOL    HW1 2098   2.158   0.157   0.651
  686SOL    HW2 2099   2.164   0.000   0.695
  687SOL     OW 2100   2.885   0.766   0.966
  687SOL    HW1 2101   2.900   0.787   1.062
  687SOL    HW2 2102   2.855   0.671   0.957
  688SOL     OW 2103   2.842   1.573   1.700
  688SOL    HW1 2104   2.822   1.617   1.612
  688SOL    HW2 2105   2.881   1.482   1.684
  689SOL     OW 2106   2.212   0.898   1.804
  689SOL    HW1 2107   2.288   0.942   1.852
  689SOL    HW2 2108   2.247   0.851   1.722
  690SOL     OW 2109   2.930   1.333   0.849
  690SOL    HW1 2110   2.937   1.249   0.794
  690SOL    HW2 2111   2.992   1.402   0.813
  691SOL     OW 2112   2.181   0.810   0.949
  691SOL    HW1 2113   2.274   0.846   0.954
  691SOL    HW2 2114   2.175   0.725   1.001
  692SOL     OW 2115   2.201   0.509   1.006
  692SOL    HW1 2116   2.149   0.426   0.989
  692SOL    HW2 2117   2.278   0.514   0.942
  693SOL     OW 2118   3.000   0.380   1.678
  693SOL    HW1 2119   2.955   0.443   1.742
  693SOL    HW2 2120   3.093   0.411   1.661
  694SOL     OW 2121   3.022   0.207   1.477
  694SOL    HW1 2122   3.022   0.271   1.554
  694SOL    HW2 2123   3.050   0.255   1.394
  695SOL     OW 2124   1.870   1.326   0.200
  695SOL    HW1 2125   1.777   1.347   0.169
  695SOL    HW2 2126   1.880   1.227   0.213
  696SOL     OW 2127   1.950   1.801   0.927
  696SOL    HW1 2128   1.908   1.715   0.900
  696SOL    HW2 2129   2.044   1.804   0.893
  697SOL     OW 2130   2.366   1.568   0.910
  697SOL    HW1 2131   2.432   1.642   0.919
  697SOL    HW2 2132   2.410   1.489   0.868
  698SOL     OW 2133   2.864   0.796   1.238
  698SOL    HW1 2134   2.905   0.764   1.324
  698SOL    HW2 2135   2.768   0.769   1.235
  699SOL     OW 2136   1.902   0.544   1.114
  699SOL    HW1 2137   1.987   0.511   1.073
  699SOL    HW2 2138   1.915   0.559   1.212
  700SOL     OW 2139   2.051   0.520   1.722
  700SOL    HW1 2140   2.110   0.480   1.652
  700SOL    HW2 2141   1.993   0.591   1.681
  701SOL     OW 2142   2.677   0.572   0.325
  701SOL    HW1 2143   2.684   0.483   0.279
  701SOL    HW2 2144   2.583   0.606   0.317
  702SOL     OW 2145   2.533   0.464   1.269
  702SOL    HW1 2146   2.499   0.375   1.239
  702SOL    HW2 2147   2.559   0.518   1.189
  703SOL     OW 2148   2.792   1.678   1.465
  703SOL    HW1 2149   2.768   1.660   1.370
  703SOL    HW2 2150   2.822   1.772   1.475
  704SOL     OW 2151   2.335   0.500   0.191
  704SOL    HW1 2152   2.396   0.580   0.195
  704SOL    HW2 2153   2.240   0.531   0.198
  705SOL     OW 2154   2.021   1.137   1.466
  705SOL    HW1 2155   2.043   1.076   1.542
  705SOL    HW2 2156   2.031   1.088   1.380
  706SOL     OW 2157   3.209   1.059   1.234
  706SOL    HW1 2158   3.233   0.996   1.160
  706SOL    HW2 2159   3.119   1.099   1.216
  707SOL     OW 2160   3.114   1.731   1.128
  707SOL    HW1 2161   3.198   1.736   1.074
  707SOL    HW2 2162   3.091   1.635   1.146
  708SOL     OW 2163   1.945   1.258   1.022
  708SOL    HW1 2164   1.940   1.257   1.122
  708SOL    HW2 2165   1.862   1.217   0.984
  709SOL     OW 2166   2.550   1.662   1.716
  709SOL    HW1 2167   2.494   1.743   1.725
  709SOL    HW2 2168   2.602   1.666   1.630
  710SOL     OW 2169   2.765   0.086   0.133
  710SOL    HW1 2170   2.816   0.087   0.047
  710SOL    HW2 2171   2.821   0.044   0.204
  711SOL     OW 2172   2.692   1.273   1.422
  711SOL    HW1 2173   2.687   1.306   1.517
  711SOL    HW2 2174   2.606   1.292   1.376
  712SOL     OW 2175   2.534   1.616   0.154
  712SOL    HW1 2176   2.543   1.626   0.055
  712SOL    HW2 2177   2.494   1.527   0.175
  713SOL     OW 2178   2.125   0.326   0.720
  713SOL    HW1 2179   2.046   0.377   0.686
  713SOL    HW2 2180   2.116   0.311   0.818
  714SOL     OW 2181   2.684   1.002   1.372
  714SOL    HW1 2182   2.724   1.001   1.280
  714SOL    HW2 2183   2.694   1.094   1.412
  715SOL     OW 2184   2.778   0.910   0.291
  715SOL    HW1 2185   2.841   0.948   0.223
  715SOL    HW2 2186   2.818   0.827   0.330
  716SOL     OW 2187   2.234   1.288   1.490
  716SOL    HW1 2188   2.221   1.381   1.456
  716SOL    HW2 2189   2.150   1.236   1.477
  717SOL     OW 2190   2.901   1.098   0.696
  717SOL    HW1 2191   2.831   1.051   0.750
  717SOL    HW2 2192   2.960   1.030   0.653
  718SOL     OW 2193   2.876   0.236   0.971
  718SOL    HW1 2194   2.868   0.200   0.878
  718SOL    HW2 2195   2.874   0.160   1.036
  719SOL     OW 2196   2.452   1.487   0.491
  719SOL    HW1 2197   2.494   1.429   0.421
  719SOL    HW2 2198   2.408   1.566   0.447
  720SOL     OW 2199   2.117   1.348   0.290
  720SOL    HW1 2200   2.021   1.349   0.263
  720SOL    HW2 2201   2.129   1.401   0.374
  721SOL     OW 2202   1.967   1.013   1.726
  721SOL    HW1 2203   1.890   0.980   1.780
  721SOL    HW2 2204   2.052   0.983   1.768
  722SOL     OW 2205   2.534   0.203   1.489
  722SOL    HW1 2206   2.624   0.187   1.449
  722SOL    HW2 2207   2.542   0.208   1.588
  723SOL     OW 2208   1.934   0.166   0.318
  723SOL    HW1 2209   1.917   0.249   0.264
  723SOL    HW2 2210   2.024   0.129   0.296
  724SOL     OW 2211   2.475   0.842   1.431
  724SOL    HW1 2212   2.531   0.923   1.414
  724SOL    HW2 2213   2.534   0.762   1.434
  725SOL     OW 2214   2.578   0.565   1.708
  725SOL    HW1 2215   2.597   0.630   1.782
  725SOL    HW2 2216   2.638   0.485   1.717
  726SOL     OW 2217   2.252   1.741   1.560
  726SOL    HW1 2218   2.161   1.782   1.558
  726SOL    HW2 2219   2.245   1.647   1.592
  727SOL     OW 2220   2.456   0.745   0.652
  727SOL    HW1 2221   2.506   0.830   0.633
  727SOL    HW2 2222   2.368   0.747   0.604
  728SOL     OW 2223   2.721   1.374   0.016
  728SOL    HW1 2224   2.675   1.389   0.104
  728SOL    HW2 2225   2.765   1.459  -0.014
  729SOL     OW 2226   2.523   1.790   0.953
  729SOL    HW1 2227   2.477   1.878   0.940
  729SOL    HW2 2228   2.622   1.802   0.946
  730SOL     OW 2229   2.721   0.956   0.861
  730SOL    HW1 2230   2.775   0.887   0.909
  730SOL    HW2 2231   2.689   1.025   0.927
  731SOL     OW 2232   2.945   0.984   0.087
  731SOL    HW1 2233   2.922   1.037   0.005
  731SOL    HW2 2234   3.026   0.928   0.068
  732SOL     OW 2235   2.083   1.314   1.844
  732SOL    HW1 2236   2.018   1.241   1.823
  732SOL    HW2 2237   2.087   1.328   1.942
  733SOL     OW 2238   1.941   1.240   0.653
  733SOL    HW1 2239   1.940   1.193   0.741
  733SOL    HW2 2240   2.023   1.212   0.602
  734SOL     OW 2241   2.534   1.391   1.624
  734SOL    HW1 2242   2.456   1.341   1.662
  734SOL    HW2 2243   2.531   1.486   1.655
  735SOL     OW 2244   2.290   0.424   0.520
  735SOL    HW1 2245   2.320   0.352   0.458
  735SOL    HW2 2246   2.251   0.384   0.603
  736SOL     OW 2247   2.179   0.547   1.280
  736SOL    HW1 2248   2.217   0.488   1.352
  736SOL    HW2 2249   2.219   0.521   1.192
  737SOL     OW 2250   2.674   1.586   0.687
  737SOL    HW1 2251   2.706   1.596   0.593
  737SOL    HW2 2252   2.595   1.524   0.689
  738SOL     OW 2253   2.863   0.034   1.154
  738SOL    HW1 2254   2.800  -0.038   1.123
  738SOL    HW2 2255   2.956  -0.002   1.154
  739SOL     OW 2256   2.632   1.330   0.301
  739SOL    HW1 2257   2.586   1.243   0.318
  739SOL    HW2 2258   2.723   1.327   0.342
  740SOL     OW 2259   2.480   1.567   1.284
  740SOL    HW1 2260   2.475   1.649   1.341
  740SOL    HW2 2261   2.569   1.564   1.239
  741SOL     OW 2262   1.901   1.077   0.300
  741SOL    HW1 2263   2.000   1.066   0.291
  741SOL    HW2 2264   1.861   0.991   0.332
  742SOL     OW 2265   2.737   1.646   0.337
  742SOL    HW1 2266   2.660   1.611   0.283
  742SOL    HW2 2267   2.705   1.717   0.399
  743SOL     OW 2268   2.092   0.628   1.975
  743SOL    HW1 2269   1.999   0.626   2.012
  743SOL    HW2 2270   2.093   0.589   1.883
  744SOL     OW 2271   2.087   0.275   2.858
  744SOL    HW1 2272   2.122   0.258   2.950
  744SOL    HW2 2273   1.999   0.230   2.846
  745SOL     OW 2274   1.881   0.368   2.509
  745SOL    HW1 2275   1.799   0.411   2.548
  745SOL    HW2 2276   1.853   0.295   2.446
  746SOL     OW 2277   2.431   1.275   3.027
  746SOL    HW1 2278   2.338   1.268   2.990
  746SOL    HW2 2279   2.442   1.364   3.071
  747SOL     OW 2280   2.997   0.703   2.579
  747SOL    HW1 2281   3.054   0.781   2.554
  747SOL    HW2 2282   2.937   0.729   2.655
  748SOL     OW 2283   2.630   1.144   2.885
  748SOL    HW1 2284   2.552   1.161   2.945
  748SOL    HW2 2285   2.664   1.231   2.849
  749SOL     OW 2286   2.547   1.012   2.527
  749SOL    HW1 2287   2.616   0.996   2.597
  749SOL    HW2 2288   2.474   1.069   2.565
  750SOL     OW 2289   2.197   1.435   2.923
  750SOL    HW1 2290   2.119   1.404   2.870
  750SOL    HW2 2291   2.255   1.493   2.866
  751SOL     OW 2292   2.093   1.713   2.345
  751SOL    HW1 2293   2.127   1.790   2.399
  751SOL    HW2 2294   2.137   1.713   2.255
  752SOL     OW 2295   2.092   1.434   2.400
  752SOL    HW1 2296   2.066   1.530   2.400
  752SOL    HW2 2297   2.021   1.380   2.445
  753SOL     OW 2298   2.102   1.091   2.748
  753SOL    HW1 2299   2.116   1.007   2.800
  753SOL    HW2 2300   2.047   1.155   2.803
  754SOL     OW 2301   2.468   0.964   1.985
  754SOL    HW1 2302   2.475   1.048   1.931
  754SOL    HW2 2303   2.514   0.977   2.073
  755SOL     OW 2304   1.984   0.643   2.425
  755SOL    HW1 2305   1.939   0.555   2.442
  755SOL    HW2 2306   1.983   0.697   2.509
  756SOL     OW 2307   1.889   1.596   1.979
  756SOL    HW1 2308   1.870   1.500   2.000
  756SOL    HW2 2309   1.856   1.654   2.054
  757SOL     OW 2310   2.475   1.365   2.588
  757SOL    HW1 2311   2.426   1.278   2.597
  757SOL    HW2 2312   2.452   1.408   2.501
  758SOL     OW 2313   2.671   0.004   2.364
  758SOL    HW1 2314   2.711   0.095   2.355
  758SOL    HW2 2315   2.571   0.012   2.370
  759SOL     OW 2316   2.059   0.976   3.126
  759SOL    HW1 2317   2.148   0.931   3.112
  759SOL    HW2 2318   1.986   0.911   3.107
  760SOL     OW 2319   2.460   0.729   2.132
  760SOL    HW1 2320   2.484   0.798   2.064
  760SOL    HW2 2321   2.382   0.762   2.186
  761SOL     OW 2322   2.903   0.701   2.291
  761SOL    HW1 2323   2.929   0.697   2.387
  761SOL    HW2 2324   2.818   0.650   2.277
  762SOL     OW 2325   1.938   0.811   2.651
  762SOL    HW1 2326   2.037   0.799   2.660
  762SOL    HW2 2327   1.914   0.906   2.672
  763SOL     OW 2328   2.727   0.348   2.057
  763SOL    HW1 2329   2.786   0.411   2.008
  763SOL    HW2 2330   2.746   0.254   2.028
  764SOL     OW 2331   2.412   0.196   2.747
  764SOL    HW1 2332   2.407   0.191   2.847
  764SOL    HW2 2333   2.414   0.292   2.718
  765SOL     OW 2334   2.870   1.456   2.339
  765SOL    HW1 2335   2.824   1.528   2.287
  765SOL    HW2 2336   2.866   1.476   2.437
  766SOL     OW 2337   2.213   1.801   2.715
  766SOL    HW1 2338   2.263   1.715   2.721
  766SOL    HW2 2339   2.278   1.878   2.712
  767SOL     OW 2340   2.183   0.943   2.104
  767SOL    HW1 2341   2.265   0.982   2.062
  767SOL    HW2 2342   2.156   0.861   2.055
  768SOL     OW 2343   2.973   1.776   2.099
  768SOL    HW1 2344   2.913   1.714   2.149
  768SOL    HW2 2345   3.004   1.732   2.014
  769SOL     OW 2346   2.326   1.743   2.185
  769SOL    HW1 2347   2.359   1.782   2.271
  769SOL    HW2 2348   2.402   1.736   2.120
  770SOL     OW 2349   2.111   1.785   3.103
  770SOL    HW1 2350   2.168   1.720   3.153
  770SOL    HW2 2351   2.095   1.752   3.010
  771SOL     OW 2352   2.802   1.698   2.766
  771SOL    HW1 2353   2.882   1.641   2.787
  771SOL    HW2 2354   2.753   1.658   2.689
  772SOL     OW 2355   2.244   0.700   2.342
  772SOL    HW1 2356   2.289   0.610   2.339
  772SOL    HW2 2357   2.150   0.689   2.375
  773SOL     OW 2358   2.476   0.122   1.979
  773SOL    HW1 2359   2.574   0.100   1.986
  773SOL    HW2 2360   2.445   0.105   1.886
  774SOL     OW 2361   2.665   1.402   2.786
  774SOL    HW1 2362   2.755   1.416   2.744
  774SOL    HW2 2363   2.594   1.404   2.715
  775SOL     OW 2364   2.784   0.503   2.761
  775SOL    HW1 2365   2.759   0.494   2.665
  775SOL    HW2 2366   2.832   0.421   2.792
  776SOL     OW 2367   2.401   0.064   2.374
  776SOL    HW1 2368   2.320   0.065   2.432
  776SOL    HW2 2369   2.404   0.147   2.319
  777SOL     OW 2370   2.159   0.035   2.033
  777SOL    HW1 2371   2.208   0.119   2.012
  777SOL    HW2 2372   2.221  -0.030   2.078
  778SOL     OW 2373   2.797   0.236   2.342
  778SOL    HW1 2374   2.749   0.277   2.264
  778SOL    HW2 2375   2.896   0.234   2.323
  779SOL     OW 2376   3.089   1.570   2.655
  779SOL    HW1 2377   3.110   1.644   2.590
  779SOL    HW2 2378   3.157   1.570   2.728
  780SOL     OW 2379   2.321   1.152   2.603
  780SOL    HW1 2380   2.250   1.125   2.668
  780SOL    HW2 2381   2.295   1.124   2.510
  781SOL     OW 2382   3.133   1.797   2.453
  781SOL    HW1 2383   3.177   1.861   2.389
  781SOL    HW2 2384   3.083   1.849   2.523
  782SOL     OW 2385   2.894   0.549   1.878
  782SOL    HW1 2386   2.853   0.631   1.839
  782SOL    HW2 2387   2.958   0.575   1.951
  783SOL     OW 2388   2.423   0.222   3.009
  783SOL    HW1 2389   2.461   0.138   3.046
  783SOL    HW2 2390   2.335   0.241   3.053
  784SOL     OW 2391   2.728   0.454   2.504
  784SOL    HW1 2392   2.696   0.526   2.442
  784SOL    HW2 2393   2.752   0.373   2.451
  785SOL     OW 2394   2.879   0.039   2.615
  785SOL    HW1 2395   2.807   0.044   2.546
  785SOL    HW2 2396   2.855  -0.030   2.684
  786SOL     OW 2397   2.350   1.385   2.036
  786SOL    HW1 2398   2.263   1.370   2.083
  786SOL    HW2 2399   2.333   1.411   1.941
  787SOL     OW 2400   2.389   0.256   2.190
  787SOL    HW1 2401   2.416   0.197   2.115
  787SOL    HW2 2402   2.389   0.351   2.159
  788SOL     OW 2403   2.973   1.195   2.962
  788SOL    HW1 2404   2.933   1.239   3.043
  788SOL    HW2 2405   2.932   1.232   2.879
  789SOL     OW 2406   2.567   1.050   2.230
  789SOL    HW1 2407   2.553   1.057   2.329
  789SOL    HW2 2408   2.651   0.999   2.212
  790SOL     OW 2409   2.272   0.813   3.113
  790SOL    HW1 2410   2.358   0.825   3.163
  790SOL    HW2 2411   2.230   0.726   3.140
  791SOL     OW 2412   2.229   1.100   2.363
  791SOL    HW1 2413   2.222   1.183   2.307
  791SOL    HW2 2414   2.233   1.020   2.303
  792SOL     OW 2415   2.428   0.537   2.727
  792SOL    HW1 2416   2.440   0.603   2.653
  792SOL    HW2 2417   2.474   0.571   2.810
  793SOL     OW 2418   3.114   1.348   2.250
  793SOL    HW1 2419   3.164   1.425   2.290
  793SOL    HW2 2420   3.019   1.350   2.282
  794SOL     OW 2421   2.216   1.510   3.191
  794SOL    HW1 2422   2.195   1.466   3.104
  794SOL    HW2 2423   2.313   1.536   3.194
  795SOL     OW 2424   2.435   0.870   2.891
  795SOL    HW1 2425   2.479   0.959   2.882
  795SOL    HW2 2426   2.372   0.870   2.968
  796SOL     OW 2427   3.222   0.862   2.907
  796SOL    HW1 2428   3.147   0.862   2.841
  796SOL    HW2 2429   3.259   0.770   2.916
  797SOL     OW 2430   3.071   0.525   2.137
  797SOL    HW1 2431   3.084   0.441   2.191
  797SOL    HW2 2432   3.042   0.599   2.197
  798SOL     OW 2433   2.169   0.213   3.093
  798SOL    HW1 2434   2.146   0.250   3.183
  798SOL    HW2 2435   2.139   0.118   3.087
  799SOL     OW 2436   1.899   1.310   3.144
  799SOL    HW1 2437   1.952   1.261   3.212
  799SOL    HW2 2438   1.921   1.408   3.149
  800SOL     OW 2439   2.594   0.634   2.926
  800SOL    HW1 2440   2.653   0.608   2.850
  800SOL    HW2 2441   2.566   0.730   2.915
  801SOL     OW 2442   2.169   0.063   2.480
  801SOL    HW1 2443   2.158   0.157   2.513
  801SOL    HW2 2444   2.164   0.000   2.557
  802SOL     OW 2445   2.885   0.766   2.828
  802SOL    HW1 2446   2.900   0.787   2.924
  802SOL    HW2 2447   2.855   0.671   2.819
  803SOL     OW 2448   3.402   0.274   1.987
  803SOL    HW1 2449   3.341   0.199   2.010
  803SOL    HW2 2450   3.424   0.326   2.070
  804SOL     OW 2451   2.930   1.333   2.711
  804SOL    HW1 2452   2.937   1.249   2.656
  804SOL    HW2 2453   2.992   1.402   2.675
  805SOL     OW 2454   2.181   0.810   2.811
  805SOL    HW1 2455   2.274   0.846   2.816
  805SOL    HW2 2456   2.175   0.725   2.863
  806SOL     OW 2457   2.201   0.509   2.868
  806SOL    HW1 2458   2.149   0.426   2.851
  806SOL    HW2 2459   2.278   0.514   2.804
  807SOL     OW 2460   3.022   0.207   3.339
  807SOL    HW1 2461   3.022   0.271   3.416
  807SOL    HW2 2462   3.050   0.255   3.256
  808SOL     OW 2463   1.870   1.326   2.062
  808SOL    HW1 2464   1.777   1.347   2.031
  808SOL    HW2 2465   1.880   1.227   2.075
  809SOL     OW 2466   1.950   1.801   2.789
  809SOL    HW1 2467   1.908   1.715   2.762
  809SOL    HW2 2468   2.044   1.804   2.755
  810SOL     OW 2469   2.366   1.568   2.772
  810SOL    HW1 2470   2.432   1.642   2.781
  810SOL    HW2 2471   2.410   1.489   2.730
  811SOL     OW 2472   2.864   0.796   3.100
  811SOL    HW1 2473   2.905   0.764   3.186
  811SOL    HW2 2474   2.768   0.769   3.097
  812SOL     OW 2475   1.902   0.544   2.976
  812SOL    HW1 2476   1.987   0.511   2.935
  812SOL    HW2 2477   1.915   0.559   3.074
  813SOL     OW 2478   2.677   0.572   2.187
  813SOL    HW1 2479   2.684   0.483   2.141
  813SOL    HW2 2480   2.583   0.606   2.179
  814SOL     OW 2481   2.533   0.464   3.131
  814SOL    HW1 2482   2.499   0.375   3.101
  814SOL    HW2 2483   2.559   0.518   3.051
  815SOL     OW 2484   2.792   1.678   3.327
  815SOL    HW1 2485   2.768   1.660   3.232
  815SOL    HW2 2486   2.822   1.772   3.337
  816SOL     OW 2487   2.335   0.500   2.053
  816SOL    HW1 2488   2.396   0.580   2.057
  816SOL    HW2 2489   2.240   0.531   2.060
  817SOL     OW 2490   3.209   1.059   3.096
  817SOL    HW1 2491   3.233   0.996   3.022
  817SOL    HW2 2492   3.119   1.099   3.078
  818SOL     OW 2493   3.114   1.731   2.990
  818SOL    HW1 2494   3.198   1.736   2.936
  818SOL    HW2 2495   3.091   1.635   3.008
  819SOL     OW 2496   1.945   1.258   2.884
  819SOL    HW1 2497   1.940   1.257   2.984
  819SOL    HW2 2498   1.862   1.217   2.846
  820SOL     OW 2499   2.534   1.616   2.016
  820SOL    HW1 2500   2.543   1.626   1.917
  820SOL    HW2 2501   2.494   1.527   2.037
  821SOL     OW 2502   2.125   0.326   2.582
  821SOL    HW1 2503   2.046   0.377   2.548
  821SOL    HW2 2504   2.116   0.311   2.680
  822SOL     OW 2505   2.684   1.002   3.234
  822SOL    HW1 2506   2.724   1.001   3.142
  822SOL    HW2 2507   2.694   1.094   3.274
  823SOL     OW 2508   2.778   0.910   2.153
  823SOL    HW1 2509   2.841   0.948   2.085
  823SOL    HW2 2510   2.818   0.827   2.192
  824SOL     OW 2511   3.476   1.292   3.151
  824SOL    HW1 2512   3.536   1.295   3.231
  824SOL    HW2 2513   3.401   1.356   3.164
  825SOL     OW 2514   2.901   1.098   2.558
  825SOL    HW1 2515   2.831   1.051   2.612
  825SOL    HW2 2516   2.960   1.030   2.515
  826SOL     OW 2517   2.876   0.236   2.833
  826SOL    HW1 2518   2.868   0.200   2.740
  826SOL    HW2 2519   2.874   0.160   2.898
  827SOL     OW 2520   2.452   1.487   2.353
  827SOL    HW1 2521   2.494   1.429   2.283
  827SOL    HW2 2522   2.408   1.566   2.309
  828SOL     OW 2523   2.117   1.348   2.152
  828SOL    HW1 2524   2.021   1.349   2.125
  828SOL    HW2 2525   2.129   1.401   2.236
  829SOL     OW 2526   1.937   0.345   1.895
  829SOL    HW1 2527   1.845   0.317   1.866
  829SOL    HW2 2528   1.968   0.422   1.839
  830SOL     OW 2529   1.934   0.166   2.180
  830SOL    HW1 2530   1.917   0.249   2.126
  830SOL    HW2 2531   2.024   0.129   2.158
  831SOL     OW 2532   2.456   0.745   2.514
  831SOL    HW1 2533   2.506   0.830   2.495
  831SOL    HW2 2534   2.368   0.747   2.466
  832SOL     OW 2535   2.721   1.374   1.878
  832SOL    HW1 2536   2.675   1.389   1.966
  832SOL    HW2 2537   2.765   1.459   1.848
  833SOL     OW 2538   2.523   1.790   2.815
  833SOL    HW1 2539   2.477   1.878   2.802
  833SOL    HW2 2540   2.622   1.802   2.808
  834SOL     OW 2541   2.721   0.956   2.723
  834SOL    HW1 2542   2.775   0.887   2.771
  834SOL    HW2 2543   2.689   1.025   2.789
  835SOL     OW 2544   2.945   0.984   1.949
  835SOL    HW1 2545   2.922   1.037   1.867
  835SOL    HW2 2546   3.026   0.928   1.930
  836SOL     OW 2547   1.941   1.240   2.515
  836SOL    HW1 2548   1.940   1.193   2.603
  836SOL    HW2 2549   2.023   1.212   2.464
  837SOL     OW 2550   2.290   0.424   2.382
  837SOL    HW1 2551   2.320   0.352   2.320
  837SOL    HW2 2552   2.251   0.384   2.465
  838SOL     OW 2553   2.674   1.586   2.549
  838SOL    HW1 2554   2.706   1.596   2.455
  838SOL    HW2 2555   2.595   1.524   2.551
  839SOL     OW 2556   2.863   0.034   3.016
  839SOL    HW1 2557   2.800  -0.038   2.985
  839SOL    HW2 2558   2.956  -0.002   3.016
  840SOL     OW 2559   2.632   1.330   2.163
  840SOL    HW1 2560   2.586   1.243   2.180
  840SOL    HW2 2561   2.723   1.327   2.204
  841SOL     OW 2562   1.901   1.077   2.162
  841SOL    HW1 2563   2.000   1.066   2.153
  841SOL    HW2 2564   1.861   0.991   2.194
  842SOL     OW 2565   2.737   1.646   2.199
  842SOL    HW1 2566   2.660   1.611   2.145
  842SOL    HW2 2567   2.705   1.717   2.261
  843SOL     OW 2568   2.092   2.490   0.113
  843SOL    HW1 2569   1.999   2.488   0.150
  843SOL    HW2 2570   2.093   2.451   0.021
  844SOL     OW 2571   2.087   2.137   0.996
  844SOL    HW1 2572   2.122   2.120   1.088
  844SOL    HW2 2573   1.999   2.092   0.984
  845SOL     OW 2574   1.881   2.230   0.647
  845SOL    HW1 2575   1.799   2.273   0.686
  845SOL    HW2 2576   1.853   2.157   0.584
  846SOL     OW 2577   2.997   2.565   0.717
  846SOL    HW1 2578   3.054   2.643   0.692
  846SOL    HW2 2579   2.937   2.591   0.793
  847SOL     OW 2580   2.630   3.006   1.023
  847SOL    HW1 2581   2.552   3.023   1.083
  847SOL    HW2 2582   2.664   3.093   0.987
  848SOL     OW 2583   2.712   2.660   1.823
  848SOL    HW1 2584   2.708   2.736   1.888
  848SOL    HW2 2585   2.734   2.696   1.732
  849SOL     OW 2586   2.547   2.874   0.665
  849SOL    HW1 2587   2.616   2.858   0.735
  849SOL    HW2 2588   2.474   2.931   0.703
  850SOL     OW 2589   2.548   3.023   1.803
  850SOL    HW1 2590   2.608   3.102   1.817
  850SOL    HW2 2591   2.462   3.054   1.762
  851SOL     OW 2592   2.197   3.297   1.061
  851SOL    HW1 2593   2.119   3.266   1.008
  851SOL    HW2 2594   2.255   3.355   1.004
  852SOL     OW 2595   2.300   2.254   1.499
  852SOL    HW1 2596   2.382   2.198   1.508
  852SOL    HW2 2597   2.219   2.196   1.503
  853SOL     OW 2598   2.102   2.953   0.886
  853SOL    HW1 2599   2.116   2.869   0.938
  853SOL    HW2 2600   2.047   3.017   0.941
  854SOL     OW 2601   2.468   2.826   0.123
  854SOL    HW1 2602   2.475   2.910   0.069
  854SOL    HW2 2603   2.514   2.839   0.211
  855SOL     OW 2604   1.984   2.505   0.563
  855SOL    HW1 2605   1.939   2.417   0.580
  855SOL    HW2 2606   1.983   2.559   0.647
  856SOL     OW 2607   1.975   2.599   1.597
  856SOL    HW1 2608   2.063   2.586   1.642
  856SOL    HW2 2609   1.962   2.696   1.575
  857SOL     OW 2610   2.671   1.866   0.502
  857SOL    HW1 2611   2.711   1.957   0.493
  857SOL    HW2 2612   2.571   1.874   0.508
  858SOL     OW 2613   2.059   2.838   1.264
  858SOL    HW1 2614   2.148   2.793   1.250
  858SOL    HW2 2615   1.986   2.773   1.245
  859SOL     OW 2616   2.179   2.113   1.801
  859SOL    HW1 2617   2.250   2.184   1.807
  859SOL    HW2 2618   2.091   2.152   1.829
  860SOL     OW 2619   2.460   2.591   0.270
  860SOL    HW1 2620   2.484   2.660   0.202
  860SOL    HW2 2621   2.382   2.624   0.324
  861SOL     OW 2622   2.669   2.467   1.465
  861SOL    HW1 2623   2.622   2.464   1.554
  861SOL    HW2 2624   2.618   2.412   1.399
  862SOL     OW 2625   2.835   2.752   1.572
  862SOL    HW1 2626   2.881   2.668   1.543
  862SOL    HW2 2627   2.779   2.786   1.497
  863SOL     OW 2628   2.853   2.272   1.242
  863SOL    HW1 2629   2.776   2.306   1.296
  863SOL    HW2 2630   2.819   2.221   1.163
  864SOL     OW 2631   2.903   2.563   0.429
  864SOL    HW1 2632   2.929   2.559   0.525
  864SOL    HW2 2633   2.818   2.512   0.415
  865SOL     OW 2634   1.938   2.673   0.789
  865SOL    HW1 2635   2.037   2.661   0.798
  865SOL    HW2 2636   1.914   2.768   0.810
  866SOL     OW 2637   2.727   2.210   0.195
  866SOL    HW1 2638   2.786   2.273   0.146
  866SOL    HW2 2639   2.746   2.116   0.166
  867SOL     OW 2640   2.412   2.058   0.885
  867SOL    HW1 2641   2.407   2.053   0.985
  867SOL    HW2 2642   2.414   2.154   0.856
  868SOL     OW 2643   2.183   2.805   0.242
  868SOL    HW1 2644   2.265   2.844   0.200
  868SOL    HW2 2645   2.156   2.723   0.193
  869SOL     OW 2646   2.064   2.147   1.498
  869SOL    HW1 2647   1.984   2.207   1.485
  869SOL    HW2 2648   2.054   2.098   1.584
  870SOL     OW 2649   2.244   2.562   0.480
  870SOL    HW1 2650   2.289   2.472   0.477
  870SOL    HW2 2651   2.150   2.551   0.513
  871SOL     OW 2652   2.476   1.984   0.117
  871SOL    HW1 2653   2.574   1.962   0.124
  871SOL    HW2 2654   2.445   1.967   0.024
  872SOL     OW 2655   2.643   2.126   1.749
  872SOL    HW1 2656   2.710   2.065   1.792
  872SOL    HW2 2657   2.570   2.145   1.814
  873SOL     OW 2658   2.665   3.264   0.924
  873SOL    HW1 2659   2.755   3.278   0.882
  873SOL    HW2 2660   2.594   3.266   0.853
  874SOL     OW 2661   2.784   2.365   0.899
  874SOL    HW1 2662   2.759   2.356   0.803
  874SOL    HW2 2663   2.832   2.283   0.930
  875SOL     OW 2664   2.401   1.926   0.512
  875SOL    HW1 2665   2.320   1.927   0.570
  875SOL    HW2 2666   2.404   2.009   0.457
  876SOL     OW 2667   2.159   1.897   0.171
  876SOL    HW1 2668   2.208   1.981   0.150
  876SOL    HW2 2669   2.221   1.832   0.216
  877SOL     OW 2670   2.797   2.098   0.480
  877SOL    HW1 2671   2.749   2.139   0.402
  877SOL    HW2 2672   2.896   2.096   0.461
  878SOL     OW 2673   2.938   2.545   1.464
  878SOL    HW1 2674   2.858   2.484   1.467
  878SOL    HW2 2675   3.019   2.492   1.440
  879SOL     OW 2676   2.321   3.014   0.741
  879SOL    HW1 2677   2.250   2.987   0.806
  879SOL    HW2 2678   2.295   2.986   0.648
  880SOL     OW 2679   2.894   2.411   0.016
  880SOL    HW1 2680   2.853   2.493  -0.023
  880SOL    HW2 2681   2.958   2.437   0.089
  881SOL     OW 2682   1.940   2.418   1.386
  881SOL    HW1 2683   2.032   2.417   1.345
  881SOL    HW2 2684   1.934   2.492   1.453
  882SOL     OW 2685   2.423   2.084   1.147
  882SOL    HW1 2686   2.461   2.000   1.184
  882SOL    HW2 2687   2.335   2.103   1.191
  883SOL     OW 2688   2.728   2.316   0.642
  883SOL    HW1 2689   2.696   2.388   0.580
  883SOL    HW2 2690   2.752   2.235   0.589
  884SOL     OW 2691   2.879   1.901   0.753
  884SOL    HW1 2692   2.807   1.906   0.684
  884SOL    HW2 2693   2.855   1.832   0.822
  885SOL     OW 2694   2.389   2.118   0.328
  885SOL    HW1 2695   2.416   2.059   0.253
  885SOL    HW2 2696   2.389   2.213   0.297
  886SOL     OW 2697   2.777   1.951   1.402
  886SOL    HW1 2698   2.802   1.931   1.307
  886SOL    HW2 2699   2.849   2.007   1.444
  887SOL     OW 2700   2.842   2.978   1.719
  887SOL    HW1 2701   2.743   2.984   1.729
  887SOL    HW2 2702   2.865   2.898   1.663
  888SOL     OW 2703   2.567   2.912   0.368
  888SOL    HW1 2704   2.553   2.919   0.467
  888SOL    HW2 2705   2.651   2.861   0.350
  889SOL     OW 2706   2.272   2.675   1.251
  889SOL    HW1 2707   2.358   2.687   1.301
  889SOL    HW2 2708   2.230   2.588   1.278
  890SOL     OW 2709   2.229   2.962   0.501
  890SOL    HW1 2710   2.222   3.045   0.445
  890SOL    HW2 2711   2.233   2.882   0.441
  891SOL     OW 2712   2.428   2.399   0.865
  891SOL    HW1 2713   2.440   2.465   0.791
  891SOL    HW2 2714   2.474   2.433   0.948
  892SOL     OW 2715   2.264   2.613   1.598
  892SOL    HW1 2716   2.332   2.668   1.551
  892SOL    HW2 2717   2.304   2.525   1.625
  893SOL     OW 2718   2.875   1.967   1.770
  893SOL    HW1 2719   2.881   2.052   1.718
  893SOL    HW2 2720   2.907   1.891   1.713
  894SOL     OW 2721   2.366   1.912   1.740
  894SOL    HW1 2722   2.324   1.855   1.670
  894SOL    HW2 2723   2.300   1.981   1.772
  895SOL     OW 2724   2.435   2.732   1.029
  895SOL    HW1 2725   2.479   2.821   1.020
  895SOL    HW2 2726   2.372   2.732   1.106
  896SOL     OW 2727   3.222   2.724   1.045
  896SOL    HW1 2728   3.147   2.724   0.979
  896SOL    HW2 2729   3.259   2.632   1.054
  897SOL     OW 2730   3.071   2.387   0.275
  897SOL    HW1 2731   3.084   2.303   0.329
  897SOL    HW2 2732   3.042   2.461   0.335
  898SOL     OW 2733   2.169   2.075   1.231
  898SOL    HW1 2734   2.146   2.112   1.321
  898SOL    HW2 2735   2.139   1.980   1.225
  899SOL     OW 2736   2.594   2.496   1.064
  899SOL    HW1 2737   2.653   2.470   0.988
  899SOL    HW2 2738   2.566   2.592   1.053
  900SOL     OW 2739   2.169   1.925   0.618
  900SOL    HW1 2740   2.158   2.019   0.651
  900SOL    HW2 2741   2.164   1.862   0.695
  901SOL     OW 2742   2.885   2.628   0.966
  901SOL    HW1 2743   2.900   2.649   1.062
  901SOL    HW2 2744   2.855   2.533   0.957
  902SOL     OW 2745   2.212   2.760   1.804
  902SOL    HW1 2746   2.288   2.804   1.852
  902SOL    HW2 2747   2.247   2.713   1.722
  903SOL     OW 2748   2.181   2.672   0.949
  903SOL    HW1 2749   2.274   2.708   0.954
  903SOL    HW2 2750   2.175   2.587   1.001
  904SOL     OW 2751   2.201   2.371   1.006
  904SOL    HW1 2752   2.149   2.288   0.989
  904SOL    HW2 2753   2.278   2.376   0.942
  905SOL     OW 2754   3.000   2.242   1.678
  905SOL    HW1 2755   2.955   2.305   1.742
  905SOL    HW2 2756   3.093   2.273   1.661
  906SOL     OW 2757   3.022   2.069   1.477
  906SOL    HW1 2758   3.022   2.133   1.554
  906SOL    HW2 2759   3.050   2.117   1.394
  907SOL     OW 2760   1.870   3.188   0.200
  907SOL    HW1 2761   1.777   3.209   0.169
  907SOL    HW2 2762   1.880   3.089   0.213
  908SOL     OW 2763   2.864   2.658   1.238
  908SOL    HW1 2764   2.905   2.626   1.324
  908SOL    HW2 2765   2.768   2.631   1.235
  909SOL     OW 2766   1.902   2.406   1.114
  909SOL    HW1 2767   1.987   2.373   1.073
  909SOL    HW2 2768   1.915   2.421   1.212
  910SOL     OW 2769   2.051   2.382   1.722
  910SOL    HW1 2770   2.110   2.342   1.652
  910SOL    HW2 2771   1.993   2.453   1.681
  911SOL     OW 2772   2.677   2.434   0.325
  911SOL    HW1 2773   2.684   2.345   0.279
  911SOL    HW2 2774   2.583   2.468   0.317
  912SOL     OW 2775   2.533   2.326   1.269
  912SOL    HW1 2776   2.499   2.237   1.239
  912SOL    HW2 2777   2.559   2.380   1.189
  913SOL     OW 2778   2.335   2.362   0.191
  913SOL    HW1 2779   2.396   2.442   0.195
  913SOL    HW2 2780   2.240   2.393   0.198
  914SOL     OW 2781   2.021   2.999   1.466
  914SOL    HW1 2782   2.043   2.938   1.542
  914SOL    HW2 2783   2.031   2.950   1.380
  915SOL     OW 2784   3.209   2.921   1.234
  915SOL    HW1 2785   3.233   2.858   1.160
  915SOL    HW2 2786   3.119   2.961   1.216
  916SOL     OW 2787   1.945   3.120   1.022
  916SOL    HW1 2788   1.940   3.119   1.122
  916SOL    HW2 2789   1.862   3.079   0.984
  917SOL     OW 2790   2.765   1.948   0.133
  917SOL    HW1 2791   2.816   1.949   0.047
  917SOL    HW2 2792   2.821   1.906   0.204
  918SOL     OW 2793   2.125   2.188   0.720
  918SOL    HW1 2794   2.046   2.239   0.686
  918SOL    HW2 2795   2.116   2.173   0.818
  919SOL     OW 2796   2.684   2.864   1.372
  919SOL    HW1 2797   2.724   2.863   1.280
  919SOL    HW2 2798   2.694   2.956   1.412
  920SOL     OW 2799   2.778   2.772   0.291
  920SOL    HW1 2800   2.841   2.810   0.223
  920SOL    HW2 2801   2.818   2.689   0.330
  921SOL     OW 2802   2.234   3.150   1.490
  921SOL    HW1 2803   2.221   3.243   1.456
  921SOL    HW2 2804   2.150   3.098   1.477
  922SOL     OW 2805   2.901   2.960   0.696
  922SOL    HW1 2806   2.831   2.913   0.750
  922SOL    HW2 2807   2.960   2.892   0.653
  923SOL     OW 2808   2.876   2.098   0.971
  923SOL    HW1 2809   2.868   2.062   0.878
  923SOL    HW2 2810   2.874   2.022   1.036
  924SOL     OW 2811   1.967   2.875   1.726
  924SOL    HW1 2812   1.890   2.842   1.780
  924SOL    HW2 2813   2.052   2.845   1.768
  925SOL     OW 2814   2.534   2.065   1.489
  925SOL    HW1 2815   2.624   2.049   1.449
  925SOL    HW2 2816   2.542   2.070   1.588
  926SOL     OW 2817   1.934   2.028   0.318
  926SOL    HW1 2818   1.917   2.111   0.264
  926SOL    HW2 2819   2.024   1.991   0.296
  927SOL     OW 2820   2.475   2.704   1.431
  927SOL    HW1 2821   2.531   2.785   1.414
  927SOL    HW2 2822   2.534   2.624   1.434
  928SOL     OW 2823   2.578   2.427   1.708
  928SOL    HW1 2824   2.597   2.492   1.782
  928SOL    HW2 2825   2.638   2.347   1.717
  929SOL     OW 2826   3.312   3.082   1.633
  929SOL    HW1 2827   3.303   3.072   1.732
  929SOL    HW2 2828   3.408   3.075   1.607
  930SOL     OW 2829   2.456   2.607   0.652
  930SOL    HW1 2830   2.506   2.692   0.633
  930SOL    HW2 2831   2.368   2.609   0.604
  931SOL     OW 2832   2.721   2.818   0.861
  931SOL    HW1 2833   2.775   2.749   0.909
  931SOL    HW2 2834   2.689   2.887   0.927
  932SOL     OW 2835   2.945   2.846   0.087
  932SOL    HW1 2836   2.922   2.899   0.005
  932SOL    HW2 2837   3.026   2.790   0.068
  933SOL     OW 2838   1.941   3.102   0.653
  933SOL    HW1 2839   1.940   3.055   0.741
  933SOL    HW2 2840   2.023   3.074   0.602
  934SOL     OW 2841   2.290   2.286   0.520
  934SOL    HW1 2842   2.320   2.214   0.458
  934SOL    HW2 2843   2.251   2.246   0.603
  935SOL     OW 2844   2.179   2.409   1.280
  935SOL    HW1 2845   2.217   2.350   1.352
  935SOL    HW2 2846   2.219   2.383   1.192
  936SOL     OW 2847   2.863   1.896   1.154
  936SOL    HW1 2848   2.800   1.824   1.123
  936SOL    HW2 2849   2.956   1.860   1.154
  937SOL     OW 2850   2.632   3.192   0.301
  937SOL    HW1 2851   2.586   3.105   0.318
  937SOL    HW2 2852   2.723   3.189   0.342
  938SOL     OW 2853   1.901   2.939   0.300
  938SOL    HW1 2854   2.000   2.928   0.291
  938SOL    HW2 2855   1.861   2.853   0.332
  939SOL     OW 2856   2.092   2.490   1.975
  939SOL    HW1 2857   1.999   2.488   2.012
  939SOL    HW2 2858   2.093   2.451   1.883
  940SOL     OW 2859   2.087   2.137   2.858
  940SOL    HW1 2860   2.122   2.120   2.950
  940SOL    HW2 2861   1.999   2.092   2.846
  941SOL     OW 2862   1.881   2.230   2.509
  941SOL    HW1 2863   1.799   2.273   2.548
  941SOL    HW2 2864   1.853   2.157   2.446
  942SOL     OW 2865   2.997   2.565   2.579
  942SOL    HW1 2866   3.054   2.643   2.554
  942SOL    HW2 2867   2.937   2.591   2.655
  943SOL     OW 2868   2.630   3.006   2.885
  943SOL    HW1 2869   2.552   3.023   2.945
  943SOL    HW2 2870   2.664   3.093   2.849
  944SOL     OW 2871   2.547   2.874   2.527
  944SOL    HW1 2872   2.616   2.858   2.597
  944SOL    HW2 2873   2.474   2.931   2.565
  945SOL     OW 2874   2.197   3.297   2.923
  945SOL    HW1 2875   2.119   3.266   2.870
  945SOL    HW2 2876   2.255   3.355   2.866
  946SOL     OW 2877   2.102   2.953   2.748
  946SOL    HW1 2878   2.116   2.869   2.800
  946SOL    HW2 2879   2.047   3.017   2.803
  947SOL     OW 2880   2.468   2.826   1.985
  947SOL    HW1 2881   2.475   2.910   1.931
  947SOL    HW2 2882   2.514   2.839   2.073
  948SOL     OW 2883   1.984   2.505   2.425
  948SOL    HW1 2884   1.939   2.417   2.442
  948SOL    HW2 2885   1.983   2.559   2.509
  949SOL     OW 2886   2.671   1.866   2.364
  949SOL    HW1 2887   2.711   1.957   2.355
  949SOL    HW2 2888   2.571   1.874   2.370
  950SOL     OW 2889   2.059   2.838   3.126
  950SOL    HW1 2890   2.148   2.793   3.112
  950SOL    HW2 2891   1.986   2.773   3.107
  951SOL     OW 2892   2.460   2.591   2.132
  951SOL    HW1 2893   2.484   2.660   2.064
  951SOL    HW2 2894   2.382   2.624   2.186
  952SOL     OW 2895   2.903   2.563   2.291
  952SOL    HW1 2896   2.929   2.559   2.387
  952SOL    HW2 2897   2.818   2.512   2.277
  953SOL     OW 2898   1.938   2.673   2.651
  953SOL    HW1 2899   2.037   2.661   2.660
  953SOL    HW2 2900   1.914   2.768   2.672
  954SOL     OW 2901   2.727   2.210   2.057
  954SOL    HW1 2902   2.786   2.273   2.008
  954SOL    HW2 2903   2.746   2.116   2.028
  955SOL     OW 2904   2.412   2.058   2.747
  955SOL    HW1 2905   2.407   2.053   2.847
  955SOL    HW2 2906   2.414   2.154   2.718
  956SOL     OW 2907   2.183   2.805   2.104
  956SOL    HW1 2908   2.265   2.844   2.062
  956SOL    HW2 2909   2.156   2.723   2.055
  957SOL     OW 2910   2.244   2.562   2.342
  957SOL    HW1 2911   2.289   2.472   2.339
  957SOL    HW2 2912   2.150   2.551   2.375
  958SOL     OW 2913   2.476   1.984   1.979
  958SOL    HW1 2914   2.574   1.962   1.986
  958SOL    HW2 2915   2.445   1.967   1.886
  959SOL     OW 2916   2.665   3.264   2.786
  959SOL    HW1 2917   2.755   3.278   2.744
  959SOL    HW2 2918   2.594   3.266   2.715
  960SOL     OW 2919   2.784   2.365   2.761
  960SOL    HW1 2920   2.759   2.356   2.665
  960SOL    HW2 2921   2.832   2.283   2.792
  961SOL     OW 2922   2.401   1.926   2.374
  961SOL    HW1 2923   2.320   1.927   2.432
  961SOL    HW2 2924   2.404   2.009   2.319
  962SOL     OW 2925   3.296   3.050   1.903
  962SOL    HW1 2926   3.328   2.974   1.960
  962SOL    HW2 2927   3.204   3.077   1.933
  963SOL     OW 2928   2.159   1.897   2.033
  963SOL    HW1 2929   2.208   1.981   2.012
  963SOL    HW2 2930   2.221   1.832   2.078
  964SOL     OW 2931   2.797   2.098   2.342
  964SOL    HW1 2932   2.749   2.139   2.264
  964SOL    HW2 2933   2.896   2.096   2.323
  965SOL     OW 2934   2.321   3.014   2.603
  965SOL    HW1 2935   2.250   2.987   2.668
  965SOL    HW2 2936   2.295   2.986   2.510
  966SOL     OW 2937   2.894   2.411   1.878
  966SOL    HW1 2938   2.853   2.493   1.839
  966SOL    HW2 2939   2.958   2.437   1.951
  967SOL     OW 2940   2.423   2.084   3.009
  967SOL    HW1 2941   2.461   2.000   3.046
  967SOL    HW2 2942   2.335   2.103   3.053
  968SOL     OW 2943   2.728   2.316   2.504
  968SOL    HW1 2944   2.696   2.388   2.442
  968SOL    HW2 2945   2.752   2.235   2.451
  969SOL     OW 2946   2.879   1.901   2.615
  969SOL    HW1 2947   2.807   1.906   2.546
  969SOL    HW2 2948   2.855   1.832   2.684
  970SOL     OW 2949   2.389   2.118   2.190
  970SOL    HW1 2950   2.416   2.059   2.115
  970SOL    HW2 2951   2.389   2.213   2.159
  971SOL     OW 2952   2.567   2.912   2.230
  971SOL    HW1 2953   2.553   2.919   2.329
  971SOL    HW2 2954   2.651   2.861   2.212
  972SOL     OW 2955   2.272   2.675   3.113
  972SOL    HW1 2956   2.358   2.687   3.163
  972SOL    HW2 2957   2.230   2.588   3.140
  973SOL     OW 2958   2.229   2.962   2.363
  973SOL    HW1 2959   2.222   3.045   2.307
  973SOL    HW2 2960   2.233   2.882   2.303
  974SOL     OW 2961   2.428   2.399   2.727
  974SOL    HW1 2962   2.440   2.465   2.653
  974SOL    HW2 2963   2.474   2.433   2.810
  975SOL     OW 2964   2.435   2.732   2.891
  975SOL    HW1 2965   2.479   2.821   2.882
  975SOL    HW2 2966   2.372   2.732   2.968
  976SOL     OW 2967   3.222   2.724   2.907
  976SOL    HW1 2968   3.147   2.724   2.841
  976SOL    HW2 2969   3.259   2.632   2.916
  977SOL     OW 2970   3.071   2.387   2.137
  977SOL    HW1 2971   3.084   2.303   2.191
  977SOL    HW2 2972   3.042   2.461   2.197
  978SOL     OW 2973   2.169   2.075   3.093
  978SOL    HW1 2974   2.146   2.112   3.183
  978SOL    HW2 2975   2.139   1.980   3.087
  979SOL     OW 2976   2.594   2.496   2.926
  979SOL    HW1 2977   2.653   2.470   2.850
  979SOL    HW2 2978   2.566   2.592   2.915
  980SOL     OW 2979   2.169   1.925   2.480
  980SOL    HW1 2980   2.158   2.019   2.513
  980SOL    HW2 2981   2.164   1.862   2.557
  981SOL     OW 2982   2.885   2.628   2.828
  981SOL    HW1 2983   2.900   2.649   2.924
  981SOL    HW2 2984   2.855   2.533   2.819
  982SOL     OW 2985   3.402   2.136   1.987
  982SOL    HW1 2986   3.341   2.061   2.010
  982SOL    HW2 2987   3.424   2.188   2.070
  983SOL     OW 2988   2.181   2.672   2.811
  983SOL    HW1 2989   2.274   2.708   2.816
  983SOL    HW2 2990   2.175   2.587   2.863
  984SOL     OW 2991   2.201   2.371   2.868
  984SOL    HW1 2992   2.149   2.288   2.851
  984SOL    HW2 2993   2.278   2.376   2.804
  985SOL     OW 2994   3.022   2.069   3.339
  985SOL    HW1 2995   3.022   2.133   3.416
  985SOL    HW2 2996   3.050   2.117   3.256
  986SOL     OW 2997   1.870   3.188   2.062
  986SOL    HW1 2998   1.777   3.209   2.031
  986SOL    HW2 2999   1.880   3.089   2.075
  987SOL     OW 3000   2.864   2.658   3.100
  987SOL    HW1 3001   2.905   2.626   3.186
  987SOL    HW2 3002   2.768   2.631   3.097
  988SOL     OW 3003   1.902   2.406   2.976
  988SOL    HW1 3004   1.987   2.373   2.935
  988SOL    HW2 3005   1.915   2.421   3.074
  989SOL     OW 3006   2.677   2.434   2.187
  989SOL    HW1 3007   2.684   2.345   2.141
  989SOL    HW2 3008   2.583   2.468   2.179
  990SOL     OW 3009   2.533   2.326   3.131
  990SOL    HW1 3010   2.499   2.237   3.101
  990SOL    HW2 3011   2.559   2.380   3.051
  991SOL     OW 3012   2.335   2.362   2.053
  991SOL    HW1 3013   2.396   2.442   2.057
  991SOL    HW2 3014   2.240   2.393   2.060
  992SOL     OW 3015   3.209   2.921   3.096
  992SOL    HW1 3016   3.233   2.858   3.022
  992SOL    HW2 3017   3.119   2.961   3.078
  993SOL     OW 3018   1.945   3.120   2.884
  993SOL    HW1 3019   1.940   3.119   2.984
  993SOL    HW2 3020   1.862   3.079   2.846
  994SOL     OW 3021   2.125   2.188   2.582
  994SOL    HW1 3022   2.046   2.239   2.548
  994SOL    HW2 3023   2.116   2.173   2.680
  995SOL     OW 3024   2.684   2.864   3.234
  995SOL    HW1 3025   2.724   2.863   3.142
  995SOL    HW2 3026   2.694   2.956   3.274
  996SOL     OW 3027   2.778   2.772   2.153
  996SOL    HW1 3028   2.841   2.810   2.085
  996SOL    HW2 3029   2.818   2.689   2.192
  997SOL     OW 3030   2.901   2.960   2.558
  997SOL    HW1 3031   2.831   2.913   2.612
  997SOL    HW2 3032   2.960   2.892   2.515
  998SOL     OW 3033   2.876   2.098   2.833
  998SOL    HW1 3034   2.868   2.062   2.740
  998SOL    HW2 3035   2.874   2.022   2.898
  999SOL     OW 3036   1.937   2.207   1.895
  999SOL    HW1 3037   1.845   2.179   1.866
  999SOL    HW2 3038   1.968   2.284   1.839
 1000SOL     OW 3039   1.934   2.028   2.180
 1000SOL    HW1 3040   1.917   2.111   2.126
 1000SOL    HW2 3041   2.024   1.991   2.158
 1001SOL     OW 3042   2.456   2.607   2.514
 1001SOL    HW1 3043   2.506   2.692   2.495
 1001SOL    HW2 3044   2.368   2.609   2.466
 1002SOL     OW 3045   2.721   2.818   2.723
 1002SOL    HW1 3046   2.775   2.749   2.771
 1002SOL    HW2 3047   2.689   2.887   2.789
 1003SOL     OW 3048   2.945   2.846   1.949
 1003SOL    HW1 3049   2.922   2.899   1.867
 1003SOL    HW2 3050   3.026   2.790   1.930
 1004SOL     OW 3051   1.941   3.102   2.515
 1004SOL    HW1 3052   1.940   3.055   2.603
 1004SOL    HW2 3053   2.023   3.074   2.464
 1005SOL     OW 3054   2.290   2.286   2.382
 1005SOL    HW1 3055   2.320   2.214   2.320
 1005SOL    HW2 3056   2.251   2.246   2.465
 1006SOL     OW 3057   2.863   1.896   3.016
 1006SOL    HW1 3058   2.800   1.824   2.985
 1006SOL    HW2 3059   2.956   1.860   3.016
 1007SOL     OW 3060   2.632   3.192   2.163
 1007SOL    HW1 3061   2.586   3.105   2.180
 1007SOL    HW2 3062   2.723   3.189   2.204
 1008SOL     OW 3063   1.901   2.939   2.162
 1008SOL    HW1 3064   2.000   2.928   2.153
 1008SOL    HW2 3065   1.861   2.853   2.194
   3.17531   3.17531   3.17531
