; mobley_8765203_GMX.itp created by acpype (v: 2023.10.27) on Thu May 14 13:37:57 2026

[ atomtypes ]
;name   bond_type     mass     charge   ptype   sigma         epsilon       Amb
 c2       c2          0.00000  0.00000   A     3.31521e-01   4.13379e-01 ; 1.86  0.0988
 ce       ce          0.00000  0.00000   A     3.31521e-01   4.13379e-01 ; 1.86  0.0988
 c3       c3          0.00000  0.00000   A     3.39771e-01   4.51035e-01 ; 1.91  0.1078
 ha       ha          0.00000  0.00000   A     2.62548e-01   6.73624e-02 ; 1.47  0.0161
 hc       hc          0.00000  0.00000   A     2.60018e-01   8.70272e-02 ; 1.46  0.0208

[ moleculetype ]
;name            nrexcl
 mobley_8765203   3

[ atoms ]
;   nr  type  resi  res  atom  cgnr     charge      mass       ; qtot   bond_type
     1   c2     1   MOL    C1    1    -0.213000     12.01000 ; qtot -0.213
     2   c2     1   MOL    C2    2    -0.213000     12.01000 ; qtot -0.426
     3   ce     1   MOL    C3    3    -0.131000     12.01000 ; qtot -0.557
     4   ce     1   MOL    C4    4    -0.083200     12.01000 ; qtot -0.640
     5   c3     1   MOL    C5    5    -0.060900     12.01000 ; qtot -0.701
     6   ha     1   MOL    H1    6     0.113000      1.00800 ; qtot -0.588
     7   ha     1   MOL    H2    7     0.113000      1.00800 ; qtot -0.475
     8   ha     1   MOL    H3    8     0.113500      1.00800 ; qtot -0.362
     9   ha     1   MOL    H4    9     0.113500      1.00800 ; qtot -0.248
    10   ha     1   MOL    H5   10     0.120000      1.00800 ; qtot -0.128
    11   hc     1   MOL    H6   11     0.042700      1.00800 ; qtot -0.085
    12   hc     1   MOL    H7   12     0.042700      1.00800 ; qtot -0.043
    13   hc     1   MOL    H8   13     0.042700      1.00800 ; qtot 0.000

[ bonds ]
;   ai     aj funct   r             k
     1      3   1    1.3457e-01    3.5505e+05 ;     C1 - C3    
     1      6   1    1.0882e-01    2.9898e+05 ;     C1 - H1    
     1      7   1    1.0882e-01    2.9898e+05 ;     C1 - H2    
     2      4   1    1.3457e-01    3.5505e+05 ;     C2 - C4    
     2      8   1    1.0882e-01    2.9898e+05 ;     C2 - H3    
     2      9   1    1.0882e-01    2.9898e+05 ;     C2 - H4    
     3      4   1    1.4615e-01    2.4127e+05 ;     C3 - C4    
     3     10   1    1.0880e-01    2.9923e+05 ;     C3 - H5    
     4      5   1    1.5109e-01    2.0651e+05 ;     C4 - C5    
     5     11   1    1.0962e-01    2.8891e+05 ;     C5 - H6    
     5     12   1    1.0962e-01    2.8891e+05 ;     C5 - H7    
     5     13   1    1.0962e-01    2.8891e+05 ;     C5 - H8    

[ pairs ]
;   ai     aj    funct
     1      2      1 ;     C1 - C2    
     1      5      1 ;     C1 - C5    
     2     10      1 ;     C2 - H5    
     2     11      1 ;     C2 - H6    
     2     12      1 ;     C2 - H7    
     2     13      1 ;     C2 - H8    
     3      8      1 ;     C3 - H3    
     3      9      1 ;     C3 - H4    
     3     11      1 ;     C3 - H6    
     3     12      1 ;     C3 - H7    
     3     13      1 ;     C3 - H8    
     5      8      1 ;     C5 - H3    
     5      9      1 ;     C5 - H4    
     5     10      1 ;     C5 - H5    
     6      4      1 ;     H1 - C4    
     6     10      1 ;     H1 - H5    
     7      4      1 ;     H2 - C4    
     7     10      1 ;     H2 - H5    

[ angles ]
;   ai     aj     ak    funct   theta         cth
     1      3      4      1    1.2323e+02    5.2216e+02 ;     C1 - C3     - C4    
     1      3     10      1    1.2000e+02    3.8694e+02 ;     C1 - C3     - H5    
     2      4      3      1    1.2323e+02    5.2216e+02 ;     C2 - C4     - C3    
     2      4      5      1    1.2365e+02    5.1062e+02 ;     C2 - C4     - C5    
     3      1      6      1    1.2049e+02    3.8618e+02 ;     C3 - C1     - H1    
     3      1      7      1    1.2049e+02    3.8618e+02 ;     C3 - C1     - H2    
     3      4      5      1    1.1824e+02    5.0493e+02 ;     C3 - C4     - C5    
     4      2      8      1    1.2049e+02    3.8618e+02 ;     C4 - C2     - H3    
     4      2      9      1    1.2049e+02    3.8618e+02 ;     C4 - C2     - H4    
     4      3     10      1    1.1662e+02    3.6710e+02 ;     C4 - C3     - H5    
     4      5     11      1    1.1088e+02    3.6535e+02 ;     C4 - C5     - H6    
     4      5     12      1    1.1088e+02    3.6535e+02 ;     C4 - C5     - H7    
     4      5     13      1    1.1088e+02    3.6535e+02 ;     C4 - C5     - H8    
     6      1      7      1    1.1666e+02    2.9003e+02 ;     H1 - C1     - H2    
     8      2      9      1    1.1666e+02    2.9003e+02 ;     H3 - C2     - H4    
    11      5     12      1    1.0773e+02    2.9957e+02 ;     H6 - C5     - H7    
    11      5     13      1    1.0773e+02    2.9957e+02 ;     H6 - C5     - H8    
    12      5     13      1    1.0773e+02    2.9957e+02 ;     H7 - C5     - H8    

[ dihedrals ] ; propers
; for gromacs 4.5 or higher, using funct 9
;    i      j      k      l   func   phase     kd      pn
     1      3      4      2      9     0.00   3.09616   3 ;     C1-    C3-    C4-    C2
     1      3      4      5      9   180.00   1.88280   3 ;     C1-    C3-    C4-    C5
     2      4      3     10      9   180.00   4.18400   2 ;     C2-    C4-    C3-    H5
     2      4      5     11      9   180.00   1.08784   3 ;     C2-    C4-    C5-    H6
     2      4      5     12      9   180.00   1.08784   3 ;     C2-    C4-    C5-    H7
     2      4      5     13      9   180.00   1.08784   3 ;     C2-    C4-    C5-    H8
     3      4      2      8      9   180.00  27.82360   2 ;     C3-    C4-    C2-    H3
     3      4      2      9      9   180.00  27.82360   2 ;     C3-    C4-    C2-    H4
     3      4      5     11      9   180.00   1.08784   3 ;     C3-    C4-    C5-    H6
     3      4      5     12      9   180.00   1.08784   3 ;     C3-    C4-    C5-    H7
     3      4      5     13      9   180.00   1.08784   3 ;     C3-    C4-    C5-    H8
     5      4      2      8      9   180.00  27.82360   2 ;     C5-    C4-    C2-    H3
     5      4      2      9      9   180.00  27.82360   2 ;     C5-    C4-    C2-    H4
     5      4      3     10      9   180.00   4.18400   2 ;     C5-    C4-    C3-    H5
     6      1      3      4      9   180.00  27.82360   2 ;     H1-    C1-    C3-    C4
     6      1      3     10      9   180.00  27.82360   2 ;     H1-    C1-    C3-    H5
     7      1      3      4      9   180.00  27.82360   2 ;     H2-    C1-    C3-    C4
     7      1      3     10      9   180.00  27.82360   2 ;     H2-    C1-    C3-    H5

[ dihedrals ] ; impropers
; treated as propers in GROMACS to use correct AMBER analytical function
;    i      j      k      l   func   phase     kd      pn
     1      4      3     10      4   180.00   4.60240   2 ;     C1-    C4-    C3-    H5
     2      5      4      3      4   180.00   4.60240   2 ;     C2-    C5-    C4-    C3
     4      8      2      9      4   180.00   4.60240   2 ;     C4-    H3-    C2-    H4
     7      1      6      3      4   180.00   4.60240   2 ;     H2-    C1-    H1-    C3
