; mobley_5631798_GMX.itp created by acpype (v: 2023.10.27) on Thu May 14 13:46:02 2026

[ atomtypes ]
;name   bond_type     mass     charge   ptype   sigma         epsilon       Amb
 n9       n9          0.00000  0.00000   A     4.04468e-01   3.97480e-02 ; 2.27  0.0095
 hn       hn          0.00000  0.00000   A     1.10650e-01   4.18400e-02 ; 0.62  0.0100

[ moleculetype ]
;name            nrexcl
 mobley_5631798   3

[ atoms ]
;   nr  type  resi  res  atom  cgnr     charge      mass       ; qtot   bond_type
     1   n9     1   MOL    N1    1    -1.010400     14.01000 ; qtot -1.010
     2   hn     1   MOL    H1    2     0.336800      1.00800 ; qtot -0.674
     3   hn     1   MOL    H2    3     0.336800      1.00800 ; qtot -0.337
     4   hn     1   MOL    H3    4     0.336800      1.00800 ; qtot 0.000

[ bonds ]
;   ai     aj funct   r             k
     1      2   1    1.0192e-01    3.8550e+05 ;     N1 - H1    
     1      3   1    1.0192e-01    3.8550e+05 ;     N1 - H2    
     1      4   1    1.0192e-01    3.8550e+05 ;     N1 - H3    

[ angles ]
;   ai     aj     ak    funct   theta         cth
     2      1      3      1    1.0601e+02    4.0141e+02 ;     H1 - N1     - H2    
     2      1      4      1    1.0601e+02    4.0141e+02 ;     H1 - N1     - H3    
     3      1      4      1    1.0601e+02    4.0141e+02 ;     H2 - N1     - H3    
