; mobley_511661_GMX.itp created by acpype (v: 2023.10.27) on Thu May 14 14:00:08 2026

[ atomtypes ]
;name   bond_type     mass     charge   ptype   sigma         epsilon       Amb
 ha       ha          0.00000  0.00000   A     2.62548e-01   6.73624e-02 ; 1.47  0.0161
 c2       c2          0.00000  0.00000   A     3.31521e-01   4.13379e-01 ; 1.86  0.0988
 ce       ce          0.00000  0.00000   A     3.31521e-01   4.13379e-01 ; 1.86  0.0988

[ moleculetype ]
;name            nrexcl
 mobley_511661    3

[ atoms ]
;   nr  type  resi  res  atom  cgnr     charge      mass       ; qtot   bond_type
     1   ha     1   MOL    H1    1     0.112500      1.00800 ; qtot 0.112
     2   c2     1   MOL    C2    2    -0.209000     12.01000 ; qtot -0.097
     3   ha     1   MOL    H2    3     0.112500      1.00800 ; qtot 0.016
     4   ce     1   MOL    C1    4    -0.137000     12.01000 ; qtot -0.121
     5   ha     1   MOL    H3    5     0.121000      1.00800 ; qtot 0.000
     6   ce     1   MOL    C4    6    -0.137000     12.01000 ; qtot -0.137
     7   ha     1   MOL    H4    7     0.121000      1.00800 ; qtot -0.016
     8   c2     1   MOL    C3    8    -0.209000     12.01000 ; qtot -0.225
     9   ha     1   MOL    H5    9     0.112500      1.00800 ; qtot -0.112
    10   ha     1   MOL    H6   10     0.112500      1.00800 ; qtot 0.000

[ bonds ]
;   ai     aj funct   r             k
     1      2   1    1.0882e-01    2.9898e+05 ;     H1 - C2    
     2      3   1    1.0882e-01    2.9898e+05 ;     C2 - H2    
     2      4   1    1.3457e-01    3.5505e+05 ;     C2 - C1    
     4      5   1    1.0880e-01    2.9923e+05 ;     C1 - H3    
     4      6   1    1.4615e-01    2.4127e+05 ;     C1 - C4    
     6      7   1    1.0880e-01    2.9923e+05 ;     C4 - H4    
     6      8   1    1.3457e-01    3.5505e+05 ;     C4 - C3    
     8      9   1    1.0882e-01    2.9898e+05 ;     C3 - H5    
     8     10   1    1.0882e-01    2.9898e+05 ;     C3 - H6    

[ pairs ]
;   ai     aj    funct
     1      5      1 ;     H1 - H3    
     1      6      1 ;     H1 - C4    
     2      7      1 ;     C2 - H4    
     2      8      1 ;     C2 - C3    
     3      5      1 ;     H2 - H3    
     3      6      1 ;     H2 - C4    
     4      9      1 ;     C1 - H5    
     4     10      1 ;     C1 - H6    
     5      7      1 ;     H3 - H4    
     5      8      1 ;     H3 - C3    
     7      9      1 ;     H4 - H5    
     7     10      1 ;     H4 - H6    

[ angles ]
;   ai     aj     ak    funct   theta         cth
     1      2      3      1    1.1666e+02    2.9003e+02 ;     H1 - C2     - H2    
     1      2      4      1    1.2049e+02    3.8618e+02 ;     H1 - C2     - C1    
     2      4      5      1    1.2000e+02    3.8694e+02 ;     C2 - C1     - H3    
     2      4      6      1    1.2323e+02    5.2216e+02 ;     C2 - C1     - C4    
     3      2      4      1    1.2049e+02    3.8618e+02 ;     H2 - C2     - C1    
     4      6      7      1    1.1662e+02    3.6710e+02 ;     C1 - C4     - H4    
     4      6      8      1    1.2323e+02    5.2216e+02 ;     C1 - C4     - C3    
     5      4      6      1    1.1662e+02    3.6710e+02 ;     H3 - C1     - C4    
     6      8      9      1    1.2049e+02    3.8618e+02 ;     C4 - C3     - H5    
     6      8     10      1    1.2049e+02    3.8618e+02 ;     C4 - C3     - H6    
     7      6      8      1    1.2000e+02    3.8694e+02 ;     H4 - C4     - C3    
     9      8     10      1    1.1666e+02    2.9003e+02 ;     H5 - C3     - H6    

[ dihedrals ] ; propers
; for gromacs 4.5 or higher, using funct 9
;    i      j      k      l   func   phase     kd      pn
     1      2      4      5      9   180.00  27.82360   2 ;     H1-    C2-    C1-    H3
     1      2      4      6      9   180.00  27.82360   2 ;     H1-    C2-    C1-    C4
     2      4      6      7      9   180.00   4.18400   2 ;     C2-    C1-    C4-    H4
     2      4      6      8      9     0.00   3.09616   3 ;     C2-    C1-    C4-    C3
     3      2      4      5      9   180.00  27.82360   2 ;     H2-    C2-    C1-    H3
     3      2      4      6      9   180.00  27.82360   2 ;     H2-    C2-    C1-    C4
     4      6      8      9      9   180.00  27.82360   2 ;     C1-    C4-    C3-    H5
     4      6      8     10      9   180.00  27.82360   2 ;     C1-    C4-    C3-    H6
     5      4      6      7      9   180.00   4.18400   2 ;     H3-    C1-    C4-    H4
     5      4      6      8      9   180.00   4.18400   2 ;     H3-    C1-    C4-    C3
     7      6      8      9      9   180.00  27.82360   2 ;     H4-    C4-    C3-    H5
     7      6      8     10      9   180.00  27.82360   2 ;     H4-    C4-    C3-    H6

[ dihedrals ] ; impropers
; treated as propers in GROMACS to use correct AMBER analytical function
;    i      j      k      l   func   phase     kd      pn
     2      6      4      5      4   180.00   4.60240   2 ;     C2-    C4-    C1-    H3
     4      1      2      3      4   180.00   4.60240   2 ;     C1-    H1-    C2-    H2
     6      9      8     10      4   180.00   4.60240   2 ;     C4-    H5-    C3-    H6
     8      4      6      7      4   180.00   4.60240   2 ;     C3-    C1-    C4-    H4
