mobley_4893032_GMX.gro created by acpype (v: 2023.10.27) on Thu May 14 13:49:43 2026
 1929
    1MOL     C1    1   1.383   1.489   1.591
    1MOL     C2    2   1.325   1.292   1.135
    1MOL     C3    3   1.365   1.364   1.514
    1MOL     C4    4   1.335   1.264   1.284
    1MOL     C5    5   1.350   1.393   1.365
    1MOL     N1    6   1.397   1.587   1.651
    1MOL     H1    7   1.414   1.344   1.099
    1MOL     H2    8   1.314   1.199   1.080
    1MOL     H3    9   1.238   1.355   1.113
    1MOL     H4   10   1.276   1.312   1.551
    1MOL     H5   11   1.451   1.298   1.531
    1MOL     H6   12   1.246   1.210   1.317
    1MOL     H7   13   1.421   1.199   1.303
    1MOL     H8   14   1.263   1.458   1.348
    1MOL     H9   15   1.438   1.449   1.329
    2SOL     OW   16   0.230   0.628   0.113
    2SOL    HW1   17   0.137   0.626   0.150
    2SOL    HW2   18   0.231   0.589   0.021
    3SOL     OW   19   0.225   0.275   0.996
    3SOL    HW1   20   0.260   0.258   1.088
    3SOL    HW2   21   0.137   0.230   0.984
    4SOL     OW   22   0.019   0.368   0.647
    4SOL    HW1   23  -0.063   0.411   0.686
    4SOL    HW2   24  -0.009   0.295   0.584
    5SOL     OW   25   0.569   1.275   1.165
    5SOL    HW1   26   0.476   1.268   1.128
    5SOL    HW2   27   0.580   1.364   1.209
    6SOL     OW   28   1.555   1.511   0.703
    6SOL    HW1   29   1.498   1.495   0.784
    6SOL    HW2   30   1.496   1.521   0.623
    7SOL     OW   31   1.135   0.703   0.717
    7SOL    HW1   32   1.192   0.781   0.692
    7SOL    HW2   33   1.075   0.729   0.793
    8SOL     OW   34   1.755   0.607   0.231
    8SOL    HW1   35   1.743   0.594   0.132
    8SOL    HW2   36   1.725   0.526   0.280
    9SOL     OW   37   0.768   1.144   1.023
    9SOL    HW1   38   0.690   1.161   1.083
    9SOL    HW2   39   0.802   1.231   0.987
   10SOL     OW   40   0.850   0.798   1.823
   10SOL    HW1   41   0.846   0.874   1.888
   10SOL    HW2   42   0.872   0.834   1.732
   11SOL     OW   43   0.685   1.012   0.665
   11SOL    HW1   44   0.754   0.996   0.735
   11SOL    HW2   45   0.612   1.069   0.703
   12SOL     OW   46   0.686   1.161   1.803
   12SOL    HW1   47   0.746   1.240   1.817
   12SOL    HW2   48   0.600   1.192   1.762
   13SOL     OW   49   0.335   1.435   1.061
   13SOL    HW1   50   0.257   1.404   1.008
   13SOL    HW2   51   0.393   1.493   1.004
   14SOL     OW   52   0.438   0.392   1.499
   14SOL    HW1   53   0.520   0.336   1.508
   14SOL    HW2   54   0.357   0.334   1.503
   15SOL     OW   55   1.603   0.447   0.737
   15SOL    HW1   56   1.529   0.493   0.687
   15SOL    HW2   57   1.654   0.515   0.790
   16SOL     OW   58   0.231   1.713   0.483
   16SOL    HW1   59   0.265   1.790   0.537
   16SOL    HW2   60   0.275   1.713   0.393
   17SOL     OW   61   1.127   1.341   1.690
   17SOL    HW1   62   1.174   1.341   1.778
   17SOL    HW2   63   1.079   1.254   1.679
   18SOL     OW   64   0.230   1.434   0.538
   18SOL    HW1   65   0.204   1.530   0.538
   18SOL    HW2   66   0.159   1.380   0.583
   19SOL     OW   67   0.240   1.091   0.886
   19SOL    HW1   68   0.254   1.007   0.938
   19SOL    HW2   69   0.185   1.155   0.941
   20SOL     OW   70   0.620   1.786   1.439
   20SOL    HW1   71   0.528   1.769   1.474
   20SOL    HW2   72   0.648   1.878   1.465
   21SOL     OW   73   0.606   0.964   0.123
   21SOL    HW1   74   0.613   1.048   0.069
   21SOL    HW2   75   0.652   0.977   0.211
   22SOL     OW   76   1.594   0.114   1.480
   22SOL    HW1   77   1.576   0.181   1.408
   22SOL    HW2   78   1.591   0.160   1.569
   23SOL     OW   79   0.122   0.643   0.563
   23SOL    HW1   80   0.077   0.555   0.580
   23SOL    HW2   81   0.121   0.697   0.647
   24SOL     OW   82   1.842   1.767   0.359
   24SOL    HW1   83   1.896   1.738   0.439
   24SOL    HW2   84   1.872   1.857   0.330
   25SOL     OW   85   0.027   1.596   0.117
   25SOL    HW1   86   0.008   1.500   0.138
   25SOL    HW2   87  -0.006   1.654   0.192
   26SOL     OW   88   1.689   0.922   0.612
   26SOL    HW1   89   1.784   0.893   0.620
   26SOL    HW2   90   1.681   0.987   0.537
   27SOL     OW   91   1.641   1.108   0.432
   27SOL    HW1   92   1.727   1.110   0.380
   27SOL    HW2   93   1.655   1.155   0.520
   28SOL     OW   94   0.113   0.737   1.597
   28SOL    HW1   95   0.201   0.724   1.642
   28SOL    HW2   96   0.100   0.834   1.575
   29SOL     OW   97   0.613   1.365   0.726
   29SOL    HW1   98   0.564   1.278   0.735
   29SOL    HW2   99   0.590   1.408   0.639
   30SOL     OW  100   0.809   0.004   0.502
   30SOL    HW1  101   0.849   0.095   0.493
   30SOL    HW2  102   0.709   0.012   0.508
   31SOL     OW  103   0.197   0.976   1.264
   31SOL    HW1  104   0.286   0.931   1.250
   31SOL    HW2  105   0.124   0.911   1.245
   32SOL     OW  106   1.525   0.999   0.190
   32SOL    HW1  107   1.462   0.923   0.203
   32SOL    HW2  108   1.573   1.017   0.276
   33SOL     OW  109   1.187   1.792   1.616
   33SOL    HW1  110   1.211   1.852   1.540
   33SOL    HW2  111   1.194   1.697   1.586
   34SOL     OW  112   0.317   0.251   1.801
   34SOL    HW1  113   0.388   0.322   1.807
   34SOL    HW2  114   0.229   0.290   1.829
   35SOL     OW  115   1.667   1.714   0.572
   35SOL    HW1  116   1.626   1.691   0.484
   35SOL    HW2  117   1.649   1.640   0.637
   36SOL     OW  118   0.598   0.729   0.270
   36SOL    HW1  119   0.622   0.798   0.202
   36SOL    HW2  120   0.520   0.762   0.324
   37SOL     OW  121   1.281   0.345   0.944
   37SOL    HW1  122   1.195   0.295   0.931
   37SOL    HW2  123   1.343   0.291   1.000
   38SOL     OW  124   1.576   1.662   0.307
   38SOL    HW1  125   1.665   1.708   0.310
   38SOL    HW2  126   1.555   1.638   0.212
   39SOL     OW  127   0.807   0.605   1.465
   39SOL    HW1  128   0.760   0.602   1.554
   39SOL    HW2  129   0.756   0.550   1.399
   40SOL     OW  130   1.394   0.469   1.674
   40SOL    HW1  131   1.374   0.512   1.762
   40SOL    HW2  132   1.472   0.407   1.683
   41SOL     OW  133   0.973   0.890   1.572
   41SOL    HW1  134   1.019   0.806   1.543
   41SOL    HW2  135   0.917   0.924   1.497
   42SOL     OW  136   0.991   0.410   1.242
   42SOL    HW1  137   0.914   0.444   1.296
   42SOL    HW2  138   0.957   0.359   1.163
   43SOL     OW  139   1.041   0.701   0.429
   43SOL    HW1  140   1.067   0.697   0.525
   43SOL    HW2  141   0.956   0.650   0.415
   44SOL     OW  142   0.076   0.811   0.789
   44SOL    HW1  143   0.175   0.799   0.798
   44SOL    HW2  144   0.052   0.906   0.810
   45SOL     OW  145   0.130   1.821   1.571
   45SOL    HW1  146   0.120   1.806   1.670
   45SOL    HW2  147   0.044   1.857   1.535
   46SOL     OW  148   0.865   0.348   0.195
   46SOL    HW1  149   0.924   0.411   0.146
   46SOL    HW2  150   0.884   0.254   0.166
   47SOL     OW  151   1.719   0.585   1.831
   47SOL    HW1  152   1.693   0.674   1.795
   47SOL    HW2  153   1.717   0.517   1.758
   48SOL     OW  154   1.362   1.144   0.545
   48SOL    HW1  155   1.445   1.115   0.497
   48SOL    HW2  156   1.313   1.211   0.489
   49SOL     OW  157   0.550   0.196   0.885
   49SOL    HW1  158   0.545   0.191   0.985
   49SOL    HW2  159   0.552   0.292   0.856
   50SOL     OW  160   1.008   1.456   0.477
   50SOL    HW1  161   0.962   1.528   0.425
   50SOL    HW2  162   1.004   1.476   0.575
   51SOL     OW  163   0.351   1.801   0.853
   51SOL    HW1  164   0.401   1.715   0.859
   51SOL    HW2  165   0.416   1.878   0.850
   52SOL     OW  166   1.795   1.066   0.873
   52SOL    HW1  167   1.733   1.051   0.797
   52SOL    HW2  168   1.743   1.077   0.958
   53SOL     OW  169   0.321   0.943   0.242
   53SOL    HW1  170   0.403   0.982   0.200
   53SOL    HW2  171   0.294   0.861   0.193
   54SOL     OW  172   1.458   0.735   0.728
   54SOL    HW1  173   1.453   0.670   0.803
   54SOL    HW2  174   1.538   0.794   0.741
   55SOL     OW  175   0.461   1.266   1.727
   55SOL    HW1  176   0.411   1.267   1.641
   55SOL    HW2  177   0.398   1.248   1.803
   56SOL     OW  178   1.111   1.776   0.237
   56SOL    HW1  179   1.051   1.714   0.287
   56SOL    HW2  180   1.142   1.732   0.152
   57SOL     OW  181   0.202   0.285   1.498
   57SOL    HW1  182   0.122   0.345   1.485
   57SOL    HW2  183   0.192   0.236   1.584
   58SOL     OW  184   1.632   1.377   0.081
   58SOL    HW1  185   1.600   1.471   0.071
   58SOL    HW2  186   1.556   1.314   0.069
   59SOL     OW  187   0.464   1.743   0.323
   59SOL    HW1  188   0.497   1.782   0.409
   59SOL    HW2  189   0.540   1.736   0.258
   60SOL     OW  190   1.400   0.107   0.426
   60SOL    HW1  191   1.376   0.070   0.336
   60SOL    HW2  192   1.499   0.123   0.430
   61SOL     OW  193   0.249   1.785   1.241
   61SOL    HW1  194   0.306   1.720   1.291
   61SOL    HW2  195   0.233   1.752   1.148
   62SOL     OW  196   0.940   1.698   0.904
   62SOL    HW1  197   1.020   1.641   0.925
   62SOL    HW2  198   0.891   1.658   0.827
   63SOL     OW  199   0.382   0.700   0.480
   63SOL    HW1  200   0.427   0.610   0.477
   63SOL    HW2  201   0.288   0.689   0.513
   64SOL     OW  202   1.547   0.222   1.729
   64SOL    HW1  203   1.542   0.259   1.821
   64SOL    HW2  204   1.475   0.153   1.717
   65SOL     OW  205   0.614   0.122   0.117
   65SOL    HW1  206   0.712   0.100   0.124
   65SOL    HW2  207   0.583   0.105   0.024
   66SOL     OW  208   0.781   0.264   1.749
   66SOL    HW1  209   0.848   0.203   1.792
   66SOL    HW2  210   0.708   0.283   1.814
   67SOL     OW  211   0.888   1.514   1.195
   67SOL    HW1  212   0.865   1.489   1.101
   67SOL    HW2  213   0.949   1.445   1.234
   68SOL     OW  214   1.351   0.590   1.433
   68SOL    HW1  215   1.379   0.547   1.518
   68SOL    HW2  216   1.376   0.686   1.434
   69SOL     OW  217   0.803   1.402   0.924
   69SOL    HW1  218   0.893   1.416   0.882
   69SOL    HW2  219   0.732   1.404   0.853
   70SOL     OW  220   0.922   0.503   0.899
   70SOL    HW1  221   0.897   0.494   0.803
   70SOL    HW2  222   0.970   0.421   0.930
   71SOL     OW  223   0.539   0.064   0.512
   71SOL    HW1  224   0.458   0.065   0.570
   71SOL    HW2  225   0.542   0.147   0.457
   72SOL     OW  226   1.434   1.188   0.041
   72SOL    HW1  227   1.466   1.112   0.098
   72SOL    HW2  228   1.342   1.215   0.071
   73SOL     OW  229   0.297   0.035   0.171
   73SOL    HW1  230   0.346   0.119   0.150
   73SOL    HW2  231   0.359  -0.030   0.216
   74SOL     OW  232   0.935   0.236   0.480
   74SOL    HW1  233   0.887   0.277   0.402
   74SOL    HW2  234   1.034   0.234   0.461
   75SOL     OW  235   1.076   0.683   1.464
   75SOL    HW1  236   0.996   0.622   1.467
   75SOL    HW2  237   1.157   0.630   1.440
   76SOL     OW  238   1.227   1.570   0.793
   76SOL    HW1  239   1.248   1.644   0.728
   76SOL    HW2  240   1.295   1.570   0.866
   77SOL     OW  241   0.459   1.152   0.741
   77SOL    HW1  242   0.388   1.125   0.806
   77SOL    HW2  243   0.433   1.124   0.648
   78SOL     OW  244   1.271   1.797   0.591
   78SOL    HW1  245   1.315   1.861   0.527
   78SOL    HW2  246   1.221   1.849   0.661
   79SOL     OW  247   1.032   0.549   0.016
   79SOL    HW1  248   0.991   0.631  -0.023
   79SOL    HW2  249   1.096   0.575   0.089
   80SOL     OW  250   0.078   0.556   1.386
   80SOL    HW1  251   0.170   0.555   1.345
   80SOL    HW2  252   0.072   0.630   1.453
   81SOL     OW  253   0.561   0.222   1.147
   81SOL    HW1  254   0.599   0.138   1.184
   81SOL    HW2  255   0.473   0.241   1.191
   82SOL     OW  256   0.866   0.454   0.642
   82SOL    HW1  257   0.834   0.526   0.580
   82SOL    HW2  258   0.890   0.373   0.589
   83SOL     OW  259   1.017   0.039   0.753
   83SOL    HW1  260   0.945   0.044   0.684
   83SOL    HW2  261   0.993  -0.030   0.822
   84SOL     OW  262   1.429   1.173   0.867
   84SOL    HW1  263   1.374   1.089   0.860
   84SOL    HW2  264   1.455   1.202   0.775
   85SOL     OW  265   1.466   0.590   0.992
   85SOL    HW1  266   1.436   0.495   0.999
   85SOL    HW2  267   1.539   0.606   1.058
   86SOL     OW  268   1.857   0.833   0.377
   86SOL    HW1  269   1.899   0.769   0.441
   86SOL    HW2  270   1.819   0.782   0.299
   87SOL     OW  271   0.488   1.385   0.174
   87SOL    HW1  272   0.401   1.370   0.221
   87SOL    HW2  273   0.471   1.411   0.079
   88SOL     OW  274   1.664   1.280   0.657
   88SOL    HW1  275   1.763   1.288   0.671
   88SOL    HW2  276   1.619   1.364   0.688
   89SOL     OW  277   1.390   0.575   0.078
   89SOL    HW1  278   1.336   0.554   0.159
   89SOL    HW2  279   1.481   0.534   0.087
   90SOL     OW  280   0.527   0.256   0.328
   90SOL    HW1  281   0.554   0.197   0.253
   90SOL    HW2  282   0.527   0.351   0.297
   91SOL     OW  283   1.754   1.223   1.588
   91SOL    HW1  284   1.845   1.184   1.575
   91SOL    HW2  285   1.762   1.319   1.612
   92SOL     OW  286   1.064   1.347   1.340
   92SOL    HW1  287   0.984   1.324   1.395
   92SOL    HW2  288   1.147   1.321   1.389
   93SOL     OW  289   1.592   1.629   1.625
   93SOL    HW1  290   1.619   1.663   1.535
   93SOL    HW2  291   1.671   1.591   1.671
   94SOL     OW  292   1.111   1.195   1.100
   94SOL    HW1  293   1.071   1.239   1.181
   94SOL    HW2  294   1.070   1.232   1.017
   95SOL     OW  295   1.638   1.099   1.079
   95SOL    HW1  296   1.643   1.180   1.138
   95SOL    HW2  297   1.552   1.101   1.028
   96SOL     OW  298   0.915   0.089   1.402
   96SOL    HW1  299   0.940   0.069   1.307
   96SOL    HW2  300   0.987   0.145   1.444
   97SOL     OW  301   0.980   1.116   1.719
   97SOL    HW1  302   0.881   1.122   1.729
   97SOL    HW2  303   1.003   1.036   1.663
   98SOL     OW  304   0.705   1.050   0.368
   98SOL    HW1  305   0.691   1.057   0.467
   98SOL    HW2  306   0.789   0.999   0.350
   99SOL     OW  307   0.410   0.813   1.251
   99SOL    HW1  308   0.496   0.825   1.301
   99SOL    HW2  309   0.368   0.726   1.278
  100SOL     OW  310   1.274   0.386   1.262
  100SOL    HW1  311   1.295   0.460   1.326
  100SOL    HW2  312   1.185   0.403   1.219
  101SOL     OW  313   0.064   1.564   1.331
  101SOL    HW1  314   0.018   1.646   1.297
  101SOL    HW2  315   0.162   1.583   1.340
  102SOL     OW  316   0.367   1.100   0.501
  102SOL    HW1  317   0.360   1.183   0.445
  102SOL    HW2  318   0.371   1.020   0.441
  103SOL     OW  319   0.566   0.537   0.865
  103SOL    HW1  320   0.578   0.603   0.791
  103SOL    HW2  321   0.612   0.571   0.948
  104SOL     OW  322   1.252   1.348   0.388
  104SOL    HW1  323   1.302   1.425   0.428
  104SOL    HW2  324   1.157   1.350   0.420
  105SOL     OW  325   1.582   0.639   0.472
  105SOL    HW1  326   1.551   0.700   0.545
  105SOL    HW2  327   1.632   0.691   0.403
  106SOL     OW  328   0.354   1.510   1.329
  106SOL    HW1  329   0.333   1.466   1.242
  106SOL    HW2  330   0.451   1.536   1.332
  107SOL     OW  331   0.402   0.751   1.598
  107SOL    HW1  332   0.470   0.806   1.551
  107SOL    HW2  333   0.442   0.663   1.625
  108SOL     OW  334   1.587   0.779   1.670
  108SOL    HW1  335   1.495   0.817   1.665
  108SOL    HW2  336   1.647   0.826   1.605
  109SOL     OW  337   1.013   0.105   1.770
  109SOL    HW1  338   1.019   0.190   1.718
  109SOL    HW2  339   1.045   0.029   1.713
  110SOL     OW  340   0.504   0.050   1.740
  110SOL    HW1  341   0.462  -0.007   1.670
  110SOL    HW2  342   0.438   0.119   1.772
  111SOL     OW  343   0.573   0.870   1.029
  111SOL    HW1  344   0.617   0.959   1.020
  111SOL    HW2  345   0.510   0.870   1.106
  112SOL     OW  346   1.360   0.862   1.045
  112SOL    HW1  347   1.285   0.862   0.979
  112SOL    HW2  348   1.397   0.770   1.054
  113SOL     OW  349   1.209   0.525   0.275
  113SOL    HW1  350   1.222   0.441   0.329
  113SOL    HW2  351   1.180   0.599   0.335
  114SOL     OW  352   0.307   0.213   1.231
  114SOL    HW1  353   0.284   0.250   1.321
  114SOL    HW2  354   0.277   0.118   1.225
  115SOL     OW  355   0.037   1.310   1.282
  115SOL    HW1  356   0.090   1.261   1.350
  115SOL    HW2  357   0.059   1.408   1.287
  116SOL     OW  358   0.732   0.634   1.064
  116SOL    HW1  359   0.791   0.608   0.988
  116SOL    HW2  360   0.704   0.730   1.053
  117SOL     OW  361   1.728   0.935   1.854
  117SOL    HW1  362   1.682   0.928   1.765
  117SOL    HW2  363   1.666   0.979   1.920
  118SOL     OW  364   0.307   0.063   0.618
  118SOL    HW1  365   0.296   0.157   0.651
  118SOL    HW2  366   0.302   0.000   0.695
  119SOL     OW  367   1.622   0.367   0.374
  119SOL    HW1  368   1.624   0.291   0.438
  119SOL    HW2  369   1.574   0.444   0.414
  120SOL     OW  370   1.023   0.766   0.966
  120SOL    HW1  371   1.038   0.787   1.062
  120SOL    HW2  372   0.993   0.671   0.957
  121SOL     OW  373   0.980   1.573   1.700
  121SOL    HW1  374   0.960   1.617   1.612
  121SOL    HW2  375   1.019   1.482   1.684
  122SOL     OW  376   1.859   1.518   1.605
  122SOL    HW1  377   1.873   1.545   1.510
  122SOL    HW2  378   1.942   1.540   1.658
  123SOL     OW  379   0.350   0.898   1.804
  123SOL    HW1  380   0.426   0.942   1.852
  123SOL    HW2  381   0.385   0.851   1.722
  124SOL     OW  382   1.540   0.274   0.125
  124SOL    HW1  383   1.479   0.199   0.148
  124SOL    HW2  384   1.562   0.326   0.208
  125SOL     OW  385   1.303   0.838   0.042
  125SOL    HW1  386   1.337   0.745   0.057
  125SOL    HW2  387   1.321   0.865  -0.053
  126SOL     OW  388   1.068   1.333   0.849
  126SOL    HW1  389   1.075   1.249   0.794
  126SOL    HW2  390   1.130   1.402   0.813
  127SOL     OW  391   0.319   0.810   0.949
  127SOL    HW1  392   0.412   0.846   0.954
  127SOL    HW2  393   0.313   0.725   1.001
  128SOL     OW  394   0.339   0.509   1.006
  128SOL    HW1  395   0.287   0.426   0.989
  128SOL    HW2  396   0.416   0.514   0.942
  129SOL     OW  397   1.138   0.380   1.678
  129SOL    HW1  398   1.093   0.443   1.742
  129SOL    HW2  399   1.231   0.411   1.661
  130SOL     OW  400   1.160   0.207   1.477
  130SOL    HW1  401   1.160   0.271   1.554
  130SOL    HW2  402   1.188   0.255   1.394
  131SOL     OW  403   0.008   1.326   0.200
  131SOL    HW1  404  -0.085   1.347   0.169
  131SOL    HW2  405   0.018   1.227   0.213
  132SOL     OW  406   0.088   1.801   0.927
  132SOL    HW1  407   0.046   1.715   0.900
  132SOL    HW2  408   0.182   1.804   0.893
  133SOL     OW  409   0.504   1.568   0.910
  133SOL    HW1  410   0.570   1.642   0.919
  133SOL    HW2  411   0.548   1.489   0.868
  134SOL     OW  412   1.002   0.796   1.238
  134SOL    HW1  413   1.043   0.764   1.324
  134SOL    HW2  414   0.906   0.769   1.235
  135SOL     OW  415   0.040   0.544   1.114
  135SOL    HW1  416   0.125   0.511   1.073
  135SOL    HW2  417   0.053   0.559   1.212
  136SOL     OW  418   0.189   0.520   1.722
  136SOL    HW1  419   0.248   0.480   1.652
  136SOL    HW2  420   0.131   0.591   1.681
  137SOL     OW  421   1.369   0.950   1.660
  137SOL    HW1  422   1.408   1.039   1.680
  137SOL    HW2  423   1.379   0.930   1.563
  138SOL     OW  424   0.815   0.572   0.325
  138SOL    HW1  425   0.822   0.483   0.279
  138SOL    HW2  426   0.721   0.606   0.317
  139SOL     OW  427   1.657   0.604   1.206
  139SOL    HW1  428   1.619   0.535   1.268
  139SOL    HW2  429   1.739   0.568   1.162
  140SOL     OW  430   0.252   1.564   1.744
  140SOL    HW1  431   0.222   1.621   1.820
  140SOL    HW2  432   0.245   1.467   1.770
  141SOL     OW  433   0.671   0.464   1.269
  141SOL    HW1  434   0.637   0.375   1.239
  141SOL    HW2  435   0.697   0.518   1.189
  142SOL     OW  436   0.930   1.678   1.465
  142SOL    HW1  437   0.906   1.660   1.370
  142SOL    HW2  438   0.960   1.772   1.475
  143SOL     OW  439   0.473   0.500   0.191
  143SOL    HW1  440   0.534   0.580   0.195
  143SOL    HW2  441   0.378   0.531   0.198
  144SOL     OW  442   0.159   1.137   1.466
  144SOL    HW1  443   0.181   1.076   1.542
  144SOL    HW2  444   0.169   1.088   1.380
  145SOL     OW  445   1.347   1.059   1.234
  145SOL    HW1  446   1.371   0.996   1.160
  145SOL    HW2  447   1.257   1.099   1.216
  146SOL     OW  448   1.302   0.855   0.309
  146SOL    HW1  449   1.216   0.824   0.351
  146SOL    HW2  450   1.298   0.841   0.210
  147SOL     OW  451   1.759   1.747   1.154
  147SOL    HW1  452   1.820   1.777   1.081
  147SOL    HW2  453   1.721   1.658   1.132
  148SOL     OW  454   1.252   1.731   1.128
  148SOL    HW1  455   1.336   1.736   1.074
  148SOL    HW2  456   1.229   1.635   1.146
  149SOL     OW  457   0.083   1.258   1.022
  149SOL    HW1  458   0.078   1.257   1.122
  149SOL    HW2  459   0.000   1.217   0.984
  150SOL     OW  460   0.688   1.662   1.716
  150SOL    HW1  461   0.632   1.743   1.725
  150SOL    HW2  462   0.740   1.666   1.630
  151SOL     OW  463   0.903   0.086   0.133
  151SOL    HW1  464   0.954   0.087   0.047
  151SOL    HW2  465   0.959   0.044   0.204
  152SOL     OW  466   1.726   0.135   0.523
  152SOL    HW1  467   1.799   0.118   0.456
  152SOL    HW2  468   1.695   0.048   0.561
  153SOL     OW  469   1.388   1.573   0.477
  153SOL    HW1  470   1.455   1.585   0.403
  153SOL    HW2  471   1.348   1.662   0.500
  154SOL     OW  472   0.130   1.794   1.851
  154SOL    HW1  473   0.089   1.720   1.904
  154SOL    HW2  474   0.194   1.845   1.909
  155SOL     OW  475   1.280   0.927   0.672
  155SOL    HW1  476   1.340   0.846   0.674
  155SOL    HW2  477   1.320   0.996   0.612
  156SOL     OW  478   0.830   1.273   1.422
  156SOL    HW1  479   0.825   1.306   1.517
  156SOL    HW2  480   0.744   1.292   1.376
  157SOL     OW  481   0.672   1.616   0.154
  157SOL    HW1  482   0.681   1.626   0.055
  157SOL    HW2  483   0.632   1.527   0.175
  158SOL     OW  484   1.650   1.720   1.394
  158SOL    HW1  485   1.703   1.730   1.310
  158SOL    HW2  486   1.623   1.810   1.428
  159SOL     OW  487   1.841   0.175   0.963
  159SOL    HW1  488   1.880   0.090   0.927
  159SOL    HW2  489   1.743   0.177   0.944
  160SOL     OW  490   0.263   0.326   0.720
  160SOL    HW1  491   0.184   0.377   0.686
  160SOL    HW2  492   0.254   0.311   0.818
  161SOL     OW  493   1.194   1.612   0.031
  161SOL    HW1  494   1.200   1.519   0.068
  161SOL    HW2  495   1.135   1.612  -0.049
  162SOL     OW  496   0.822   1.002   1.372
  162SOL    HW1  497   0.862   1.001   1.280
  162SOL    HW2  498   0.832   1.094   1.412
  163SOL     OW  499   0.916   0.910   0.291
  163SOL    HW1  500   0.979   0.948   0.223
  163SOL    HW2  501   0.956   0.827   0.330
  164SOL     OW  502   1.504   1.607   0.044
  164SOL    HW1  503   1.412   1.644   0.051
  164SOL    HW2  504   1.542   1.627  -0.046
  165SOL     OW  505   0.372   1.288   1.490
  165SOL    HW1  506   0.359   1.381   1.456
  165SOL    HW2  507   0.288   1.236   1.477
  166SOL     OW  508   1.614   1.292   1.289
  166SOL    HW1  509   1.674   1.295   1.369
  166SOL    HW2  510   1.539   1.356   1.302
  167SOL     OW  511   1.039   1.098   0.696
  167SOL    HW1  512   0.969   1.051   0.750
  167SOL    HW2  513   1.098   1.030   0.653
  168SOL     OW  514   1.014   0.236   0.971
  168SOL    HW1  515   1.006   0.200   0.878
  168SOL    HW2  516   1.012   0.160   1.036
  169SOL     OW  517   0.590   1.487   0.491
  169SOL    HW1  518   0.632   1.429   0.421
  169SOL    HW2  519   0.546   1.566   0.447
  170SOL     OW  520   1.709   0.385   1.381
  170SOL    HW1  521   1.782   0.454   1.385
  170SOL    HW2  522   1.737   0.310   1.322
  171SOL     OW  523   0.255   1.348   0.290
  171SOL    HW1  524   0.159   1.349   0.263
  171SOL    HW2  525   0.267   1.401   0.374
  172SOL     OW  526   0.105   1.013   1.726
  172SOL    HW1  527   0.028   0.980   1.780
  172SOL    HW2  528   0.190   0.983   1.768
  173SOL     OW  529   0.672   0.203   1.489
  173SOL    HW1  530   0.762   0.187   1.449
  173SOL    HW2  531   0.680   0.208   1.588
  174SOL     OW  532   0.075   0.345   0.033
  174SOL    HW1  533  -0.017   0.317   0.004
  174SOL    HW2  534   0.106   0.422  -0.023
  175SOL     OW  535   1.440   0.856   1.398
  175SOL    HW1  536   1.383   0.908   1.335
  175SOL    HW2  537   1.536   0.868   1.374
  176SOL     OW  538   0.072   0.166   0.318
  176SOL    HW1  539   0.055   0.249   0.264
  176SOL    HW2  540   0.162   0.129   0.296
  177SOL     OW  541   1.183   1.335   0.119
  177SOL    HW1  542   1.084   1.324   0.121
  177SOL    HW2  543   1.217   1.350   0.212
  178SOL     OW  544   0.613   0.842   1.431
  178SOL    HW1  545   0.669   0.923   1.414
  178SOL    HW2  546   0.672   0.762   1.434
  179SOL     OW  547   1.493   1.767   0.959
  179SOL    HW1  548   1.526   1.831   0.890
  179SOL    HW2  549   1.559   1.761   1.034
  180SOL     OW  550   0.716   0.565   1.708
  180SOL    HW1  551   0.735   0.630   1.782
  180SOL    HW2  552   0.776   0.485   1.717
  181SOL     OW  553   0.390   1.741   1.560
  181SOL    HW1  554   0.299   1.782   1.558
  181SOL    HW2  555   0.383   1.647   1.592
  182SOL     OW  556   1.674   0.883   1.254
  182SOL    HW1  557   1.647   0.794   1.217
  182SOL    HW2  558   1.675   0.951   1.181
  183SOL     OW  559   1.225   0.325   0.449
  183SOL    HW1  560   1.290   0.251   0.438
  183SOL    HW2  561   1.245   0.375   0.533
  184SOL     OW  562   0.594   0.745   0.652
  184SOL    HW1  563   0.644   0.830   0.633
  184SOL    HW2  564   0.506   0.747   0.604
  185SOL     OW  565   1.777   0.342   1.642
  185SOL    HW1  566   1.760   0.373   1.548
  185SOL    HW2  567   1.693   0.305   1.680
  186SOL     OW  568   1.730   0.934   1.517
  186SOL    HW1  569   1.768   1.025   1.532
  186SOL    HW2  570   1.722   0.917   1.418
  187SOL     OW  571   0.859   1.374   0.016
  187SOL    HW1  572   0.813   1.389   0.104
  187SOL    HW2  573   0.903   1.459  -0.014
  188SOL     OW  574   0.661   1.790   0.953
  188SOL    HW1  575   0.615   1.878   0.940
  188SOL    HW2  576   0.760   1.802   0.946
  189SOL     OW  577   0.859   0.956   0.861
  189SOL    HW1  578   0.913   0.887   0.909
  189SOL    HW2  579   0.827   1.025   0.927
  190SOL     OW  580   1.083   0.984   0.087
  190SOL    HW1  581   1.060   1.037   0.005
  190SOL    HW2  582   1.164   0.928   0.068
  191SOL     OW  583   1.861   1.569   0.851
  191SOL    HW1  584   1.790   1.557   0.781
  191SOL    HW2  585   1.862   1.490   0.911
  192SOL     OW  586   0.221   1.314   1.844
  192SOL    HW1  587   0.156   1.241   1.823
  192SOL    HW2  588   0.225   1.328   1.942
  193SOL     OW  589   0.079   1.240   0.653
  193SOL    HW1  590   0.078   1.193   0.741
  193SOL    HW2  591   0.161   1.212   0.602
  194SOL     OW  592   0.672   1.391   1.624
  194SOL    HW1  593   0.594   1.341   1.662
  194SOL    HW2  594   0.669   1.486   1.655
  195SOL     OW  595   1.824   0.192   1.227
  195SOL    HW1  596   1.820   0.102   1.271
  195SOL    HW2  597   1.827   0.181   1.128
  196SOL     OW  598   0.428   0.424   0.520
  196SOL    HW1  599   0.458   0.352   0.458
  196SOL    HW2  600   0.389   0.384   0.603
  197SOL     OW  601   1.705   1.487   1.104
  197SOL    HW1  602   1.612   1.462   1.077
  197SOL    HW2  603   1.731   1.437   1.186
  198SOL     OW  604   0.317   0.547   1.280
  198SOL    HW1  605   0.355   0.488   1.352
  198SOL    HW2  606   0.357   0.521   1.192
  199SOL     OW  607   0.812   1.586   0.687
  199SOL    HW1  608   0.844   1.596   0.593
  199SOL    HW2  609   0.733   1.524   0.689
  200SOL     OW  610   1.424   0.214   1.112
  200SOL    HW1  611   1.476   0.149   1.167
  200SOL    HW2  612   1.375   0.277   1.173
  201SOL     OW  613   1.001   0.034   1.154
  201SOL    HW1  614   0.938  -0.038   1.123
  201SOL    HW2  615   1.094  -0.002   1.154
  202SOL     OW  616   0.770   1.330   0.301
  202SOL    HW1  617   0.724   1.243   0.318
  202SOL    HW2  618   0.861   1.327   0.342
  203SOL     OW  619   0.618   1.567   1.284
  203SOL    HW1  620   0.613   1.649   1.341
  203SOL    HW2  621   0.707   1.564   1.239
  204SOL     OW  622   1.352   0.052   0.168
  204SOL    HW1  623   1.387   0.011   0.084
  204SOL    HW2  624   1.262   0.014   0.188
  205SOL     OW  625   1.300   0.453   0.691
  205SOL    HW1  626   1.241   0.533   0.695
  205SOL    HW2  627   1.315   0.418   0.784
  206SOL     OW  628   1.593   0.221   0.882
  206SOL    HW1  629   1.509   0.220   0.936
  206SOL    HW2  630   1.595   0.304   0.826
  207SOL     OW  631   0.039   1.077   0.300
  207SOL    HW1  632   0.138   1.066   0.291
  207SOL    HW2  633  -0.001   0.991   0.332
  208SOL     OW  634   0.875   1.646   0.337
  208SOL    HW1  635   0.798   1.611   0.283
  208SOL    HW2  636   0.843   1.717   0.399
  209SOL     OW  637   0.230   0.628   1.975
  209SOL    HW1  638   0.137   0.626   2.012
  209SOL    HW2  639   0.231   0.589   1.883
  210SOL     OW  640   0.225   0.275   2.858
  210SOL    HW1  641   0.260   0.258   2.950
  210SOL    HW2  642   0.137   0.230   2.846
  211SOL     OW  643   0.019   0.368   2.509
  211SOL    HW1  644  -0.063   0.411   2.548
  211SOL    HW2  645  -0.009   0.295   2.446
  212SOL     OW  646   1.755   0.607   2.093
  212SOL    HW1  647   1.743   0.594   1.994
  212SOL    HW2  648   1.725   0.526   2.142
  213SOL     OW  649   0.685   1.012   2.527
  213SOL    HW1  650   0.754   0.996   2.597
  213SOL    HW2  651   0.612   1.069   2.565
  214SOL     OW  652   1.603   0.447   2.599
  214SOL    HW1  653   1.529   0.493   2.549
  214SOL    HW2  654   1.654   0.515   2.652
  215SOL     OW  655   0.231   1.713   2.345
  215SOL    HW1  656   0.265   1.790   2.399
  215SOL    HW2  657   0.275   1.713   2.255
  216SOL     OW  658   0.230   1.434   2.400
  216SOL    HW1  659   0.204   1.530   2.400
  216SOL    HW2  660   0.159   1.380   2.445
  217SOL     OW  661   0.240   1.091   2.748
  217SOL    HW1  662   0.254   1.007   2.800
  217SOL    HW2  663   0.185   1.155   2.803
  218SOL     OW  664   0.606   0.964   1.985
  218SOL    HW1  665   0.613   1.048   1.931
  218SOL    HW2  666   0.652   0.977   2.073
  219SOL     OW  667   0.122   0.643   2.425
  219SOL    HW1  668   0.077   0.555   2.442
  219SOL    HW2  669   0.121   0.697   2.509
  220SOL     OW  670   1.842   1.767   2.221
  220SOL    HW1  671   1.896   1.738   2.301
  220SOL    HW2  672   1.872   1.857   2.192
  221SOL     OW  673   0.027   1.596   1.979
  221SOL    HW1  674   0.008   1.500   2.000
  221SOL    HW2  675  -0.006   1.654   2.054
  222SOL     OW  676   1.689   0.922   2.474
  222SOL    HW1  677   1.784   0.893   2.482
  222SOL    HW2  678   1.681   0.987   2.399
  223SOL     OW  679   1.641   1.108   2.294
  223SOL    HW1  680   1.727   1.110   2.242
  223SOL    HW2  681   1.655   1.155   2.382
  224SOL     OW  682   0.613   1.365   2.588
  224SOL    HW1  683   0.564   1.278   2.597
  224SOL    HW2  684   0.590   1.408   2.501
  225SOL     OW  685   0.809   0.004   2.364
  225SOL    HW1  686   0.849   0.095   2.355
  225SOL    HW2  687   0.709   0.012   2.370
  226SOL     OW  688   1.525   0.999   2.052
  226SOL    HW1  689   1.462   0.923   2.065
  226SOL    HW2  690   1.573   1.017   2.138
  227SOL     OW  691   1.667   1.714   2.434
  227SOL    HW1  692   1.626   1.691   2.346
  227SOL    HW2  693   1.649   1.640   2.499
  228SOL     OW  694   0.598   0.729   2.132
  228SOL    HW1  695   0.622   0.798   2.064
  228SOL    HW2  696   0.520   0.762   2.186
  229SOL     OW  697   1.281   0.345   2.806
  229SOL    HW1  698   1.195   0.295   2.793
  229SOL    HW2  699   1.343   0.291   2.862
  230SOL     OW  700   1.576   1.662   2.169
  230SOL    HW1  701   1.665   1.708   2.172
  230SOL    HW2  702   1.555   1.638   2.074
  231SOL     OW  703   1.041   0.701   2.291
  231SOL    HW1  704   1.067   0.697   2.387
  231SOL    HW2  705   0.956   0.650   2.277
  232SOL     OW  706   0.076   0.811   2.651
  232SOL    HW1  707   0.175   0.799   2.660
  232SOL    HW2  708   0.052   0.906   2.672
  233SOL     OW  709   0.865   0.348   2.057
  233SOL    HW1  710   0.924   0.411   2.008
  233SOL    HW2  711   0.884   0.254   2.028
  234SOL     OW  712   1.362   1.144   2.407
  234SOL    HW1  713   1.445   1.115   2.359
  234SOL    HW2  714   1.313   1.211   2.351
  235SOL     OW  715   1.008   1.456   2.339
  235SOL    HW1  716   0.962   1.528   2.287
  235SOL    HW2  717   1.004   1.476   2.437
  236SOL     OW  718   0.351   1.801   2.715
  236SOL    HW1  719   0.401   1.715   2.721
  236SOL    HW2  720   0.416   1.878   2.712
  237SOL     OW  721   1.795   1.066   2.735
  237SOL    HW1  722   1.733   1.051   2.659
  237SOL    HW2  723   1.743   1.077   2.820
  238SOL     OW  724   0.321   0.943   2.104
  238SOL    HW1  725   0.403   0.982   2.062
  238SOL    HW2  726   0.294   0.861   2.055
  239SOL     OW  727   1.458   0.735   2.590
  239SOL    HW1  728   1.453   0.670   2.665
  239SOL    HW2  729   1.538   0.794   2.603
  240SOL     OW  730   1.111   1.776   2.099
  240SOL    HW1  731   1.051   1.714   2.149
  240SOL    HW2  732   1.142   1.732   2.014
  241SOL     OW  733   1.632   1.377   1.943
  241SOL    HW1  734   1.600   1.471   1.933
  241SOL    HW2  735   1.556   1.314   1.931
  242SOL     OW  736   0.464   1.743   2.185
  242SOL    HW1  737   0.497   1.782   2.271
  242SOL    HW2  738   0.540   1.736   2.120
  243SOL     OW  739   1.400   0.107   2.288
  243SOL    HW1  740   1.376   0.070   2.198
  243SOL    HW2  741   1.499   0.123   2.292
  244SOL     OW  742   0.940   1.698   2.766
  244SOL    HW1  743   1.020   1.641   2.787
  244SOL    HW2  744   0.891   1.658   2.689
  245SOL     OW  745   0.382   0.700   2.342
  245SOL    HW1  746   0.427   0.610   2.339
  245SOL    HW2  747   0.288   0.689   2.375
  246SOL     OW  748   0.614   0.122   1.979
  246SOL    HW1  749   0.712   0.100   1.986
  246SOL    HW2  750   0.583   0.105   1.886
  247SOL     OW  751   0.539   0.064   2.374
  247SOL    HW1  752   0.458   0.065   2.432
  247SOL    HW2  753   0.542   0.147   2.319
  248SOL     OW  754   1.434   1.188   1.903
  248SOL    HW1  755   1.466   1.112   1.960
  248SOL    HW2  756   1.342   1.215   1.933
  249SOL     OW  757   0.297   0.035   2.033
  249SOL    HW1  758   0.346   0.119   2.012
  249SOL    HW2  759   0.359  -0.030   2.078
  250SOL     OW  760   0.935   0.236   2.342
  250SOL    HW1  761   0.887   0.277   2.264
  250SOL    HW2  762   1.034   0.234   2.323
  251SOL     OW  763   0.459   1.152   2.603
  251SOL    HW1  764   0.388   1.125   2.668
  251SOL    HW2  765   0.433   1.124   2.510
  252SOL     OW  766   1.271   1.797   2.453
  252SOL    HW1  767   1.315   1.861   2.389
  252SOL    HW2  768   1.221   1.849   2.523
  253SOL     OW  769   1.032   0.549   1.878
  253SOL    HW1  770   0.991   0.631   1.839
  253SOL    HW2  771   1.096   0.575   1.951
  254SOL     OW  772   0.866   0.454   2.504
  254SOL    HW1  773   0.834   0.526   2.442
  254SOL    HW2  774   0.890   0.373   2.451
  255SOL     OW  775   1.857   0.833   2.239
  255SOL    HW1  776   1.899   0.769   2.303
  255SOL    HW2  777   1.819   0.782   2.161
  256SOL     OW  778   0.488   1.385   2.036
  256SOL    HW1  779   0.401   1.370   2.083
  256SOL    HW2  780   0.471   1.411   1.941
  257SOL     OW  781   1.664   1.280   2.519
  257SOL    HW1  782   1.763   1.288   2.533
  257SOL    HW2  783   1.619   1.364   2.550
  258SOL     OW  784   1.390   0.575   1.940
  258SOL    HW1  785   1.336   0.554   2.021
  258SOL    HW2  786   1.481   0.534   1.949
  259SOL     OW  787   0.527   0.256   2.190
  259SOL    HW1  788   0.554   0.197   2.115
  259SOL    HW2  789   0.527   0.351   2.159
  260SOL     OW  790   0.705   1.050   2.230
  260SOL    HW1  791   0.691   1.057   2.329
  260SOL    HW2  792   0.789   0.999   2.212
  261SOL     OW  793   0.367   1.100   2.363
  261SOL    HW1  794   0.360   1.183   2.307
  261SOL    HW2  795   0.371   1.020   2.303
  262SOL     OW  796   1.252   1.348   2.250
  262SOL    HW1  797   1.302   1.425   2.290
  262SOL    HW2  798   1.157   1.350   2.282
  263SOL     OW  799   1.582   0.639   2.334
  263SOL    HW1  800   1.551   0.700   2.407
  263SOL    HW2  801   1.632   0.691   2.265
  264SOL     OW  802   1.209   0.525   2.137
  264SOL    HW1  803   1.222   0.441   2.191
  264SOL    HW2  804   1.180   0.599   2.197
  265SOL     OW  805   0.307   0.063   2.480
  265SOL    HW1  806   0.296   0.157   2.513
  265SOL    HW2  807   0.302   0.000   2.557
  266SOL     OW  808   1.622   0.367   2.236
  266SOL    HW1  809   1.624   0.291   2.300
  266SOL    HW2  810   1.574   0.444   2.276
  267SOL     OW  811   1.540   0.274   1.987
  267SOL    HW1  812   1.479   0.199   2.010
  267SOL    HW2  813   1.562   0.326   2.070
  268SOL     OW  814   1.303   0.838   1.904
  268SOL    HW1  815   1.337   0.745   1.919
  268SOL    HW2  816   1.321   0.865   1.809
  269SOL     OW  817   0.008   1.326   2.062
  269SOL    HW1  818  -0.085   1.347   2.031
  269SOL    HW2  819   0.018   1.227   2.075
  270SOL     OW  820   0.040   0.544   2.976
  270SOL    HW1  821   0.125   0.511   2.935
  270SOL    HW2  822   0.053   0.559   3.074
  271SOL     OW  823   0.815   0.572   2.187
  271SOL    HW1  824   0.822   0.483   2.141
  271SOL    HW2  825   0.721   0.606   2.179
  272SOL     OW  826   0.473   0.500   2.053
  272SOL    HW1  827   0.534   0.580   2.057
  272SOL    HW2  828   0.378   0.531   2.060
  273SOL     OW  829   1.302   0.855   2.171
  273SOL    HW1  830   1.216   0.824   2.213
  273SOL    HW2  831   1.298   0.841   2.072
  274SOL     OW  832   1.726   0.135   2.385
  274SOL    HW1  833   1.799   0.118   2.318
  274SOL    HW2  834   1.695   0.048   2.423
  275SOL     OW  835   1.388   1.573   2.339
  275SOL    HW1  836   1.455   1.585   2.265
  275SOL    HW2  837   1.348   1.662   2.362
  276SOL     OW  838   0.672   1.616   2.016
  276SOL    HW1  839   0.681   1.626   1.917
  276SOL    HW2  840   0.632   1.527   2.037
  277SOL     OW  841   1.841   0.175   2.825
  277SOL    HW1  842   1.880   0.090   2.789
  277SOL    HW2  843   1.743   0.177   2.806
  278SOL     OW  844   0.263   0.326   2.582
  278SOL    HW1  845   0.184   0.377   2.548
  278SOL    HW2  846   0.254   0.311   2.680
  279SOL     OW  847   1.194   1.612   1.893
  279SOL    HW1  848   1.200   1.519   1.930
  279SOL    HW2  849   1.135   1.612   1.813
  280SOL     OW  850   0.916   0.910   2.153
  280SOL    HW1  851   0.979   0.948   2.085
  280SOL    HW2  852   0.956   0.827   2.192
  281SOL     OW  853   1.504   1.607   1.906
  281SOL    HW1  854   1.412   1.644   1.913
  281SOL    HW2  855   1.542   1.627   1.816
  282SOL     OW  856   0.590   1.487   2.353
  282SOL    HW1  857   0.632   1.429   2.283
  282SOL    HW2  858   0.546   1.566   2.309
  283SOL     OW  859   0.255   1.348   2.152
  283SOL    HW1  860   0.159   1.349   2.125
  283SOL    HW2  861   0.267   1.401   2.236
  284SOL     OW  862   0.075   0.345   1.895
  284SOL    HW1  863  -0.017   0.317   1.866
  284SOL    HW2  864   0.106   0.422   1.839
  285SOL     OW  865   0.072   0.166   2.180
  285SOL    HW1  866   0.055   0.249   2.126
  285SOL    HW2  867   0.162   0.129   2.158
  286SOL     OW  868   1.183   1.335   1.981
  286SOL    HW1  869   1.084   1.324   1.983
  286SOL    HW2  870   1.217   1.350   2.074
  287SOL     OW  871   1.225   0.325   2.311
  287SOL    HW1  872   1.290   0.251   2.300
  287SOL    HW2  873   1.245   0.375   2.395
  288SOL     OW  874   0.594   0.745   2.514
  288SOL    HW1  875   0.644   0.830   2.495
  288SOL    HW2  876   0.506   0.747   2.466
  289SOL     OW  877   0.859   1.374   1.878
  289SOL    HW1  878   0.813   1.389   1.966
  289SOL    HW2  879   0.903   1.459   1.848
  290SOL     OW  880   0.661   1.790   2.815
  290SOL    HW1  881   0.615   1.878   2.802
  290SOL    HW2  882   0.760   1.802   2.808
  291SOL     OW  883   0.859   0.956   2.723
  291SOL    HW1  884   0.913   0.887   2.771
  291SOL    HW2  885   0.827   1.025   2.789
  292SOL     OW  886   1.083   0.984   1.949
  292SOL    HW1  887   1.060   1.037   1.867
  292SOL    HW2  888   1.164   0.928   1.930
  293SOL     OW  889   0.079   1.240   2.515
  293SOL    HW1  890   0.078   1.193   2.603
  293SOL    HW2  891   0.161   1.212   2.464
  294SOL     OW  892   0.428   0.424   2.382
  294SOL    HW1  893   0.458   0.352   2.320
  294SOL    HW2  894   0.389   0.384   2.465
  295SOL     OW  895   1.705   1.487   2.966
  295SOL    HW1  896   1.612   1.462   2.939
  295SOL    HW2  897   1.731   1.437   3.048
  296SOL     OW  898   0.812   1.586   2.549
  296SOL    HW1  899   0.844   1.596   2.455
  296SOL    HW2  900   0.733   1.524   2.551
  297SOL     OW  901   0.770   1.330   2.163
  297SOL    HW1  902   0.724   1.243   2.180
  297SOL    HW2  903   0.861   1.327   2.204
  298SOL     OW  904   1.352   0.052   2.030
  298SOL    HW1  905   1.387   0.011   1.946
  298SOL    HW2  906   1.262   0.014   2.050
  299SOL     OW  907   1.300   0.453   2.553
  299SOL    HW1  908   1.241   0.533   2.557
  299SOL    HW2  909   1.315   0.418   2.646
  300SOL     OW  910   0.039   1.077   2.162
  300SOL    HW1  911   0.138   1.066   2.153
  300SOL    HW2  912  -0.001   0.991   2.194
  301SOL     OW  913   0.875   1.646   2.199
  301SOL    HW1  914   0.798   1.611   2.145
  301SOL    HW2  915   0.843   1.717   2.261
  302SOL     OW  916   0.230   2.490   0.113
  302SOL    HW1  917   0.137   2.488   0.150
  302SOL    HW2  918   0.231   2.451   0.021
  303SOL     OW  919   0.225   2.137   0.996
  303SOL    HW1  920   0.260   2.120   1.088
  303SOL    HW2  921   0.137   2.092   0.984
  304SOL     OW  922   0.019   2.230   0.647
  304SOL    HW1  923  -0.063   2.273   0.686
  304SOL    HW2  924  -0.009   2.157   0.584
  305SOL     OW  925   1.755   2.469   0.231
  305SOL    HW1  926   1.743   2.456   0.132
  305SOL    HW2  927   1.725   2.388   0.280
  306SOL     OW  928   0.850   2.660   1.823
  306SOL    HW1  929   0.846   2.736   1.888
  306SOL    HW2  930   0.872   2.696   1.732
  307SOL     OW  931   0.685   2.874   0.665
  307SOL    HW1  932   0.754   2.858   0.735
  307SOL    HW2  933   0.612   2.931   0.703
  308SOL     OW  934   0.438   2.254   1.499
  308SOL    HW1  935   0.520   2.198   1.508
  308SOL    HW2  936   0.357   2.196   1.503
  309SOL     OW  937   1.603   2.309   0.737
  309SOL    HW1  938   1.529   2.355   0.687
  309SOL    HW2  939   1.654   2.377   0.790
  310SOL     OW  940   1.594   1.976   1.480
  310SOL    HW1  941   1.576   2.043   1.408
  310SOL    HW2  942   1.591   2.022   1.569
  311SOL     OW  943   0.122   2.505   0.563
  311SOL    HW1  944   0.077   2.417   0.580
  311SOL    HW2  945   0.121   2.559   0.647
  312SOL     OW  946   0.113   2.599   1.597
  312SOL    HW1  947   0.201   2.586   1.642
  312SOL    HW2  948   0.100   2.696   1.575
  313SOL     OW  949   0.809   1.866   0.502
  313SOL    HW1  950   0.849   1.957   0.493
  313SOL    HW2  951   0.709   1.874   0.508
  314SOL     OW  952   0.317   2.113   1.801
  314SOL    HW1  953   0.388   2.184   1.807
  314SOL    HW2  954   0.229   2.152   1.829
  315SOL     OW  955   0.598   2.591   0.270
  315SOL    HW1  956   0.622   2.660   0.202
  315SOL    HW2  957   0.520   2.624   0.324
  316SOL     OW  958   1.281   2.207   0.944
  316SOL    HW1  959   1.195   2.157   0.931
  316SOL    HW2  960   1.343   2.153   1.000
  317SOL     OW  961   0.807   2.467   1.465
  317SOL    HW1  962   0.760   2.464   1.554
  317SOL    HW2  963   0.756   2.412   1.399
  318SOL     OW  964   1.394   2.331   1.674
  318SOL    HW1  965   1.374   2.374   1.762
  318SOL    HW2  966   1.472   2.269   1.683
  319SOL     OW  967   0.991   2.272   1.242
  319SOL    HW1  968   0.914   2.306   1.296
  319SOL    HW2  969   0.957   2.221   1.163
  320SOL     OW  970   1.041   2.563   0.429
  320SOL    HW1  971   1.067   2.559   0.525
  320SOL    HW2  972   0.956   2.512   0.415
  321SOL     OW  973   0.076   2.673   0.789
  321SOL    HW1  974   0.175   2.661   0.798
  321SOL    HW2  975   0.052   2.768   0.810
  322SOL     OW  976   0.865   2.210   0.195
  322SOL    HW1  977   0.924   2.273   0.146
  322SOL    HW2  978   0.884   2.116   0.166
  323SOL     OW  979   1.719   2.447   1.831
  323SOL    HW1  980   1.693   2.536   1.795
  323SOL    HW2  981   1.717   2.379   1.758
  324SOL     OW  982   0.550   2.058   0.885
  324SOL    HW1  983   0.545   2.053   0.985
  324SOL    HW2  984   0.552   2.154   0.856
  325SOL     OW  985   1.458   2.597   0.728
  325SOL    HW1  986   1.453   2.532   0.803
  325SOL    HW2  987   1.538   2.656   0.741
  326SOL     OW  988   0.202   2.147   1.498
  326SOL    HW1  989   0.122   2.207   1.485
  326SOL    HW2  990   0.192   2.098   1.584
  327SOL     OW  991   1.400   1.969   0.426
  327SOL    HW1  992   1.376   1.932   0.336
  327SOL    HW2  993   1.499   1.985   0.430
  328SOL     OW  994   0.382   2.562   0.480
  328SOL    HW1  995   0.427   2.472   0.477
  328SOL    HW2  996   0.288   2.551   0.513
  329SOL     OW  997   1.547   2.084   1.729
  329SOL    HW1  998   1.542   2.121   1.821
  329SOL    HW2  999   1.475   2.015   1.717
  330SOL     OW 1000   0.781   2.126   1.749
  330SOL    HW1 1001   0.848   2.065   1.792
  330SOL    HW2 1002   0.708   2.145   1.814
  331SOL     OW 1003   1.351   2.452   1.433
  331SOL    HW1 1004   1.379   2.409   1.518
  331SOL    HW2 1005   1.376   2.548   1.434
  332SOL     OW 1006   0.922   2.365   0.899
  332SOL    HW1 1007   0.897   2.356   0.803
  332SOL    HW2 1008   0.970   2.283   0.930
  333SOL     OW 1009   0.539   1.926   0.512
  333SOL    HW1 1010   0.458   1.927   0.570
  333SOL    HW2 1011   0.542   2.009   0.457
  334SOL     OW 1012   0.297   1.897   0.171
  334SOL    HW1 1013   0.346   1.981   0.150
  334SOL    HW2 1014   0.359   1.832   0.216
  335SOL     OW 1015   0.935   2.098   0.480
  335SOL    HW1 1016   0.887   2.139   0.402
  335SOL    HW2 1017   1.034   2.096   0.461
  336SOL     OW 1018   1.076   2.545   1.464
  336SOL    HW1 1019   0.996   2.484   1.467
  336SOL    HW2 1020   1.157   2.492   1.440
  337SOL     OW 1021   1.032   2.411   0.016
  337SOL    HW1 1022   0.991   2.493  -0.023
  337SOL    HW2 1023   1.096   2.437   0.089
  338SOL     OW 1024   0.078   2.418   1.386
  338SOL    HW1 1025   0.170   2.417   1.345
  338SOL    HW2 1026   0.072   2.492   1.453
  339SOL     OW 1027   0.561   2.084   1.147
  339SOL    HW1 1028   0.599   2.000   1.184
  339SOL    HW2 1029   0.473   2.103   1.191
  340SOL     OW 1030   0.866   2.316   0.642
  340SOL    HW1 1031   0.834   2.388   0.580
  340SOL    HW2 1032   0.890   2.235   0.589
  341SOL     OW 1033   1.017   1.901   0.753
  341SOL    HW1 1034   0.945   1.906   0.684
  341SOL    HW2 1035   0.993   1.832   0.822
  342SOL     OW 1036   1.466   2.452   0.992
  342SOL    HW1 1037   1.436   2.357   0.999
  342SOL    HW2 1038   1.539   2.468   1.058
  343SOL     OW 1039   1.390   2.437   0.078
  343SOL    HW1 1040   1.336   2.416   0.159
  343SOL    HW2 1041   1.481   2.396   0.087
  344SOL     OW 1042   0.527   2.118   0.328
  344SOL    HW1 1043   0.554   2.059   0.253
  344SOL    HW2 1044   0.527   2.213   0.297
  345SOL     OW 1045   0.915   1.951   1.402
  345SOL    HW1 1046   0.940   1.931   1.307
  345SOL    HW2 1047   0.987   2.007   1.444
  346SOL     OW 1048   0.705   2.912   0.368
  346SOL    HW1 1049   0.691   2.919   0.467
  346SOL    HW2 1050   0.789   2.861   0.350
  347SOL     OW 1051   0.410   2.675   1.251
  347SOL    HW1 1052   0.496   2.687   1.301
  347SOL    HW2 1053   0.368   2.588   1.278
  348SOL     OW 1054   1.274   2.248   1.262
  348SOL    HW1 1055   1.295   2.322   1.326
  348SOL    HW2 1056   1.185   2.265   1.219
  349SOL     OW 1057   0.566   2.399   0.865
  349SOL    HW1 1058   0.578   2.465   0.791
  349SOL    HW2 1059   0.612   2.433   0.948
  350SOL     OW 1060   1.582   2.501   0.472
  350SOL    HW1 1061   1.551   2.562   0.545
  350SOL    HW2 1062   1.632   2.553   0.403
  351SOL     OW 1063   1.587   2.641   1.670
  351SOL    HW1 1064   1.495   2.679   1.665
  351SOL    HW2 1065   1.647   2.688   1.605
  352SOL     OW 1066   1.013   1.967   1.770
  352SOL    HW1 1067   1.019   2.052   1.718
  352SOL    HW2 1068   1.045   1.891   1.713
  353SOL     OW 1069   0.504   1.912   1.740
  353SOL    HW1 1070   0.462   1.855   1.670
  353SOL    HW2 1071   0.438   1.981   1.772
  354SOL     OW 1072   1.360   2.724   1.045
  354SOL    HW1 1073   1.285   2.724   0.979
  354SOL    HW2 1074   1.397   2.632   1.054
  355SOL     OW 1075   1.209   2.387   0.275
  355SOL    HW1 1076   1.222   2.303   0.329
  355SOL    HW2 1077   1.180   2.461   0.335
  356SOL     OW 1078   0.307   2.075   1.231
  356SOL    HW1 1079   0.284   2.112   1.321
  356SOL    HW2 1080   0.277   1.980   1.225
  357SOL     OW 1081   0.732   2.496   1.064
  357SOL    HW1 1082   0.791   2.470   0.988
  357SOL    HW2 1083   0.704   2.592   1.053
  358SOL     OW 1084   1.728   2.797   1.854
  358SOL    HW1 1085   1.682   2.790   1.765
  358SOL    HW2 1086   1.666   2.841   1.920
  359SOL     OW 1087   0.307   1.925   0.618
  359SOL    HW1 1088   0.296   2.019   0.651
  359SOL    HW2 1089   0.302   1.862   0.695
  360SOL     OW 1090   1.622   2.229   0.374
  360SOL    HW1 1091   1.624   2.153   0.438
  360SOL    HW2 1092   1.574   2.306   0.414
  361SOL     OW 1093   1.540   2.136   0.125
  361SOL    HW1 1094   1.479   2.061   0.148
  361SOL    HW2 1095   1.562   2.188   0.208
  362SOL     OW 1096   0.319   2.672   0.949
  362SOL    HW1 1097   0.412   2.708   0.954
  362SOL    HW2 1098   0.313   2.587   1.001
  363SOL     OW 1099   0.339   2.371   1.006
  363SOL    HW1 1100   0.287   2.288   0.989
  363SOL    HW2 1101   0.416   2.376   0.942
  364SOL     OW 1102   1.138   2.242   1.678
  364SOL    HW1 1103   1.093   2.305   1.742
  364SOL    HW2 1104   1.231   2.273   1.661
  365SOL     OW 1105   1.160   2.069   1.477
  365SOL    HW1 1106   1.160   2.133   1.554
  365SOL    HW2 1107   1.188   2.117   1.394
  366SOL     OW 1108   0.040   2.406   1.114
  366SOL    HW1 1109   0.125   2.373   1.073
  366SOL    HW2 1110   0.053   2.421   1.212
  367SOL     OW 1111   0.189   2.382   1.722
  367SOL    HW1 1112   0.248   2.342   1.652
  367SOL    HW2 1113   0.131   2.453   1.681
  368SOL     OW 1114   0.815   2.434   0.325
  368SOL    HW1 1115   0.822   2.345   0.279
  368SOL    HW2 1116   0.721   2.468   0.317
  369SOL     OW 1117   1.657   2.466   1.206
  369SOL    HW1 1118   1.619   2.397   1.268
  369SOL    HW2 1119   1.739   2.430   1.162
  370SOL     OW 1120   0.671   2.326   1.269
  370SOL    HW1 1121   0.637   2.237   1.239
  370SOL    HW2 1122   0.697   2.380   1.189
  371SOL     OW 1123   0.473   2.362   0.191
  371SOL    HW1 1124   0.534   2.442   0.195
  371SOL    HW2 1125   0.378   2.393   0.198
  372SOL     OW 1126   0.903   1.948   0.133
  372SOL    HW1 1127   0.954   1.949   0.047
  372SOL    HW2 1128   0.959   1.906   0.204
  373SOL     OW 1129   1.726   1.997   0.523
  373SOL    HW1 1130   1.799   1.980   0.456
  373SOL    HW2 1131   1.695   1.910   0.561
  374SOL     OW 1132   1.280   2.789   0.672
  374SOL    HW1 1133   1.340   2.708   0.674
  374SOL    HW2 1134   1.320   2.858   0.612
  375SOL     OW 1135   1.841   2.037   0.963
  375SOL    HW1 1136   1.880   1.952   0.927
  375SOL    HW2 1137   1.743   2.039   0.944
  376SOL     OW 1138   0.263   2.188   0.720
  376SOL    HW1 1139   0.184   2.239   0.686
  376SOL    HW2 1140   0.254   2.173   0.818
  377SOL     OW 1141   1.014   2.098   0.971
  377SOL    HW1 1142   1.006   2.062   0.878
  377SOL    HW2 1143   1.012   2.022   1.036
  378SOL     OW 1144   1.709   2.247   1.381
  378SOL    HW1 1145   1.782   2.316   1.385
  378SOL    HW2 1146   1.737   2.172   1.322
  379SOL     OW 1147   0.105   2.875   1.726
  379SOL    HW1 1148   0.028   2.842   1.780
  379SOL    HW2 1149   0.190   2.845   1.768
  380SOL     OW 1150   0.672   2.065   1.489
  380SOL    HW1 1151   0.762   2.049   1.449
  380SOL    HW2 1152   0.680   2.070   1.588
  381SOL     OW 1153   0.075   2.207   0.033
  381SOL    HW1 1154  -0.017   2.179   0.004
  381SOL    HW2 1155   0.106   2.284  -0.023
  382SOL     OW 1156   0.072   2.028   0.318
  382SOL    HW1 1157   0.055   2.111   0.264
  382SOL    HW2 1158   0.162   1.991   0.296
  383SOL     OW 1159   0.716   2.427   1.708
  383SOL    HW1 1160   0.735   2.492   1.782
  383SOL    HW2 1161   0.776   2.347   1.717
  384SOL     OW 1162   1.674   2.745   1.254
  384SOL    HW1 1163   1.647   2.656   1.217
  384SOL    HW2 1164   1.675   2.813   1.181
  385SOL     OW 1165   1.225   2.187   0.449
  385SOL    HW1 1166   1.290   2.113   0.438
  385SOL    HW2 1167   1.245   2.237   0.533
  386SOL     OW 1168   0.594   2.607   0.652
  386SOL    HW1 1169   0.644   2.692   0.633
  386SOL    HW2 1170   0.506   2.609   0.604
  387SOL     OW 1171   1.777   2.204   1.642
  387SOL    HW1 1172   1.760   2.235   1.548
  387SOL    HW2 1173   1.693   2.167   1.680
  388SOL     OW 1174   0.859   2.818   0.861
  388SOL    HW1 1175   0.913   2.749   0.909
  388SOL    HW2 1176   0.827   2.887   0.927
  389SOL     OW 1177   1.824   2.054   1.227
  389SOL    HW1 1178   1.820   1.964   1.271
  389SOL    HW2 1179   1.827   2.043   1.128
  390SOL     OW 1180   0.428   2.286   0.520
  390SOL    HW1 1181   0.458   2.214   0.458
  390SOL    HW2 1182   0.389   2.246   0.603
  391SOL     OW 1183   0.317   2.409   1.280
  391SOL    HW1 1184   0.355   2.350   1.352
  391SOL    HW2 1185   0.357   2.383   1.192
  392SOL     OW 1186   1.424   2.076   1.112
  392SOL    HW1 1187   1.476   2.011   1.167
  392SOL    HW2 1188   1.375   2.139   1.173
  393SOL     OW 1189   1.001   1.896   1.154
  393SOL    HW1 1190   0.938   1.824   1.123
  393SOL    HW2 1191   1.094   1.860   1.154
  394SOL     OW 1192   1.352   1.914   0.168
  394SOL    HW1 1193   1.387   1.873   0.084
  394SOL    HW2 1194   1.262   1.876   0.188
  395SOL     OW 1195   1.300   2.315   0.691
  395SOL    HW1 1196   1.241   2.395   0.695
  395SOL    HW2 1197   1.315   2.280   0.784
  396SOL     OW 1198   1.593   2.083   0.882
  396SOL    HW1 1199   1.509   2.082   0.936
  396SOL    HW2 1200   1.595   2.166   0.826
  397SOL     OW 1201   0.230   2.490   1.975
  397SOL    HW1 1202   0.137   2.488   2.012
  397SOL    HW2 1203   0.231   2.451   1.883
  398SOL     OW 1204   0.225   2.137   2.858
  398SOL    HW1 1205   0.260   2.120   2.950
  398SOL    HW2 1206   0.137   2.092   2.846
  399SOL     OW 1207   0.019   2.230   2.509
  399SOL    HW1 1208  -0.063   2.273   2.548
  399SOL    HW2 1209  -0.009   2.157   2.446
  400SOL     OW 1210   1.755   2.469   2.093
  400SOL    HW1 1211   1.743   2.456   1.994
  400SOL    HW2 1212   1.725   2.388   2.142
  401SOL     OW 1213   0.685   2.874   2.527
  401SOL    HW1 1214   0.754   2.858   2.597
  401SOL    HW2 1215   0.612   2.931   2.565
  402SOL     OW 1216   1.603   2.309   2.599
  402SOL    HW1 1217   1.529   2.355   2.549
  402SOL    HW2 1218   1.654   2.377   2.652
  403SOL     OW 1219   0.122   2.505   2.425
  403SOL    HW1 1220   0.077   2.417   2.442
  403SOL    HW2 1221   0.121   2.559   2.509
  404SOL     OW 1222   0.809   1.866   2.364
  404SOL    HW1 1223   0.849   1.957   2.355
  404SOL    HW2 1224   0.709   1.874   2.370
  405SOL     OW 1225   0.598   2.591   2.132
  405SOL    HW1 1226   0.622   2.660   2.064
  405SOL    HW2 1227   0.520   2.624   2.186
  406SOL     OW 1228   1.281   2.207   2.806
  406SOL    HW1 1229   1.195   2.157   2.793
  406SOL    HW2 1230   1.343   2.153   2.862
  407SOL     OW 1231   1.041   2.563   2.291
  407SOL    HW1 1232   1.067   2.559   2.387
  407SOL    HW2 1233   0.956   2.512   2.277
  408SOL     OW 1234   0.076   2.673   2.651
  408SOL    HW1 1235   0.175   2.661   2.660
  408SOL    HW2 1236   0.052   2.768   2.672
  409SOL     OW 1237   0.865   2.210   2.057
  409SOL    HW1 1238   0.924   2.273   2.008
  409SOL    HW2 1239   0.884   2.116   2.028
  410SOL     OW 1240   1.458   2.597   2.590
  410SOL    HW1 1241   1.453   2.532   2.665
  410SOL    HW2 1242   1.538   2.656   2.603
  411SOL     OW 1243   1.400   1.969   2.288
  411SOL    HW1 1244   1.376   1.932   2.198
  411SOL    HW2 1245   1.499   1.985   2.292
  412SOL     OW 1246   0.382   2.562   2.342
  412SOL    HW1 1247   0.427   2.472   2.339
  412SOL    HW2 1248   0.288   2.551   2.375
  413SOL     OW 1249   0.614   1.984   1.979
  413SOL    HW1 1250   0.712   1.962   1.986
  413SOL    HW2 1251   0.583   1.967   1.886
  414SOL     OW 1252   0.539   1.926   2.374
  414SOL    HW1 1253   0.458   1.927   2.432
  414SOL    HW2 1254   0.542   2.009   2.319
  415SOL     OW 1255   0.297   1.897   2.033
  415SOL    HW1 1256   0.346   1.981   2.012
  415SOL    HW2 1257   0.359   1.832   2.078
  416SOL     OW 1258   0.935   2.098   2.342
  416SOL    HW1 1259   0.887   2.139   2.264
  416SOL    HW2 1260   1.034   2.096   2.323
  417SOL     OW 1261   1.032   2.411   1.878
  417SOL    HW1 1262   0.991   2.493   1.839
  417SOL    HW2 1263   1.096   2.437   1.951
  418SOL     OW 1264   0.866   2.316   2.504
  418SOL    HW1 1265   0.834   2.388   2.442
  418SOL    HW2 1266   0.890   2.235   2.451
  419SOL     OW 1267   1.390   2.437   1.940
  419SOL    HW1 1268   1.336   2.416   2.021
  419SOL    HW2 1269   1.481   2.396   1.949
  420SOL     OW 1270   0.527   2.118   2.190
  420SOL    HW1 1271   0.554   2.059   2.115
  420SOL    HW2 1272   0.527   2.213   2.159
  421SOL     OW 1273   0.705   2.912   2.230
  421SOL    HW1 1274   0.691   2.919   2.329
  421SOL    HW2 1275   0.789   2.861   2.212
  422SOL     OW 1276   1.582   2.501   2.334
  422SOL    HW1 1277   1.551   2.562   2.407
  422SOL    HW2 1278   1.632   2.553   2.265
  423SOL     OW 1279   1.209   2.387   2.137
  423SOL    HW1 1280   1.222   2.303   2.191
  423SOL    HW2 1281   1.180   2.461   2.197
  424SOL     OW 1282   0.307   1.925   2.480
  424SOL    HW1 1283   0.296   2.019   2.513
  424SOL    HW2 1284   0.302   1.862   2.557
  425SOL     OW 1285   1.622   2.229   2.236
  425SOL    HW1 1286   1.624   2.153   2.300
  425SOL    HW2 1287   1.574   2.306   2.276
  426SOL     OW 1288   1.540   2.136   1.987
  426SOL    HW1 1289   1.479   2.061   2.010
  426SOL    HW2 1290   1.562   2.188   2.070
  427SOL     OW 1291   0.040   2.406   2.976
  427SOL    HW1 1292   0.125   2.373   2.935
  427SOL    HW2 1293   0.053   2.421   3.074
  428SOL     OW 1294   0.815   2.434   2.187
  428SOL    HW1 1295   0.822   2.345   2.141
  428SOL    HW2 1296   0.721   2.468   2.179
  429SOL     OW 1297   0.473   2.362   2.053
  429SOL    HW1 1298   0.534   2.442   2.057
  429SOL    HW2 1299   0.378   2.393   2.060
  430SOL     OW 1300   1.726   1.997   2.385
  430SOL    HW1 1301   1.799   1.980   2.318
  430SOL    HW2 1302   1.695   1.910   2.423
  431SOL     OW 1303   1.280   2.789   2.534
  431SOL    HW1 1304   1.340   2.708   2.536
  431SOL    HW2 1305   1.320   2.858   2.474
  432SOL     OW 1306   1.841   2.037   2.825
  432SOL    HW1 1307   1.880   1.952   2.789
  432SOL    HW2 1308   1.743   2.039   2.806
  433SOL     OW 1309   0.263   2.188   2.582
  433SOL    HW1 1310   0.184   2.239   2.548
  433SOL    HW2 1311   0.254   2.173   2.680
  434SOL     OW 1312   0.916   2.772   2.153
  434SOL    HW1 1313   0.979   2.810   2.085
  434SOL    HW2 1314   0.956   2.689   2.192
  435SOL     OW 1315   1.039   2.960   2.558
  435SOL    HW1 1316   0.969   2.913   2.612
  435SOL    HW2 1317   1.098   2.892   2.515
  436SOL     OW 1318   0.075   2.207   1.895
  436SOL    HW1 1319  -0.017   2.179   1.866
  436SOL    HW2 1320   0.106   2.284   1.839
  437SOL     OW 1321   0.072   2.028   2.180
  437SOL    HW1 1322   0.055   2.111   2.126
  437SOL    HW2 1323   0.162   1.991   2.158
  438SOL     OW 1324   1.225   2.187   2.311
  438SOL    HW1 1325   1.290   2.113   2.300
  438SOL    HW2 1326   1.245   2.237   2.395
  439SOL     OW 1327   0.594   2.607   2.514
  439SOL    HW1 1328   0.644   2.692   2.495
  439SOL    HW2 1329   0.506   2.609   2.466
  440SOL     OW 1330   0.428   2.286   2.382
  440SOL    HW1 1331   0.458   2.214   2.320
  440SOL    HW2 1332   0.389   2.246   2.465
  441SOL     OW 1333   1.352   1.914   2.030
  441SOL    HW1 1334   1.387   1.873   1.946
  441SOL    HW2 1335   1.262   1.876   2.050
  442SOL     OW 1336   1.300   2.315   2.553
  442SOL    HW1 1337   1.241   2.395   2.557
  442SOL    HW2 1338   1.315   2.280   2.646
  443SOL     OW 1339   2.092   0.628   0.113
  443SOL    HW1 1340   1.999   0.626   0.150
  443SOL    HW2 1341   2.093   0.589   0.021
  444SOL     OW 1342   2.087   0.275   0.996
  444SOL    HW1 1343   2.122   0.258   1.088
  444SOL    HW2 1344   1.999   0.230   0.984
  445SOL     OW 1345   1.881   0.368   0.647
  445SOL    HW1 1346   1.799   0.411   0.686
  445SOL    HW2 1347   1.853   0.295   0.584
  446SOL     OW 1348   2.431   1.275   1.165
  446SOL    HW1 1349   2.338   1.268   1.128
  446SOL    HW2 1350   2.442   1.364   1.209
  447SOL     OW 1351   2.712   0.798   1.823
  447SOL    HW1 1352   2.708   0.874   1.888
  447SOL    HW2 1353   2.734   0.834   1.732
  448SOL     OW 1354   2.547   1.012   0.665
  448SOL    HW1 1355   2.616   0.996   0.735
  448SOL    HW2 1356   2.474   1.069   0.703
  449SOL     OW 1357   2.548   1.161   1.803
  449SOL    HW1 1358   2.608   1.240   1.817
  449SOL    HW2 1359   2.462   1.192   1.762
  450SOL     OW 1360   2.197   1.435   1.061
  450SOL    HW1 1361   2.119   1.404   1.008
  450SOL    HW2 1362   2.255   1.493   1.004
  451SOL     OW 1363   2.300   0.392   1.499
  451SOL    HW1 1364   2.382   0.336   1.508
  451SOL    HW2 1365   2.219   0.334   1.503
  452SOL     OW 1366   2.093   1.713   0.483
  452SOL    HW1 1367   2.127   1.790   0.537
  452SOL    HW2 1368   2.137   1.713   0.393
  453SOL     OW 1369   2.092   1.434   0.538
  453SOL    HW1 1370   2.066   1.530   0.538
  453SOL    HW2 1371   2.021   1.380   0.583
  454SOL     OW 1372   2.102   1.091   0.886
  454SOL    HW1 1373   2.116   1.007   0.938
  454SOL    HW2 1374   2.047   1.155   0.941
  455SOL     OW 1375   2.482   1.786   1.439
  455SOL    HW1 1376   2.390   1.769   1.474
  455SOL    HW2 1377   2.510   1.878   1.465
  456SOL     OW 1378   2.468   0.964   0.123
  456SOL    HW1 1379   2.475   1.048   0.069
  456SOL    HW2 1380   2.514   0.977   0.211
  457SOL     OW 1381   1.984   0.643   0.563
  457SOL    HW1 1382   1.939   0.555   0.580
  457SOL    HW2 1383   1.983   0.697   0.647
  458SOL     OW 1384   1.889   1.596   0.117
  458SOL    HW1 1385   1.870   1.500   0.138
  458SOL    HW2 1386   1.856   1.654   0.192
  459SOL     OW 1387   1.975   0.737   1.597
  459SOL    HW1 1388   2.063   0.724   1.642
  459SOL    HW2 1389   1.962   0.834   1.575
  460SOL     OW 1390   2.475   1.365   0.726
  460SOL    HW1 1391   2.426   1.278   0.735
  460SOL    HW2 1392   2.452   1.408   0.639
  461SOL     OW 1393   2.671   0.004   0.502
  461SOL    HW1 1394   2.711   0.095   0.493
  461SOL    HW2 1395   2.571   0.012   0.508
  462SOL     OW 1396   2.059   0.976   1.264
  462SOL    HW1 1397   2.148   0.931   1.250
  462SOL    HW2 1398   1.986   0.911   1.245
  463SOL     OW 1399   2.179   0.251   1.801
  463SOL    HW1 1400   2.250   0.322   1.807
  463SOL    HW2 1401   2.091   0.290   1.829
  464SOL     OW 1402   2.460   0.729   0.270
  464SOL    HW1 1403   2.484   0.798   0.202
  464SOL    HW2 1404   2.382   0.762   0.324
  465SOL     OW 1405   1.938   0.811   0.789
  465SOL    HW1 1406   2.037   0.799   0.798
  465SOL    HW2 1407   1.914   0.906   0.810
  466SOL     OW 1408   1.992   1.821   1.571
  466SOL    HW1 1409   1.982   1.806   1.670
  466SOL    HW2 1410   1.906   1.857   1.535
  467SOL     OW 1411   2.412   0.196   0.885
  467SOL    HW1 1412   2.407   0.191   0.985
  467SOL    HW2 1413   2.414   0.292   0.856
  468SOL     OW 1414   2.213   1.801   0.853
  468SOL    HW1 1415   2.263   1.715   0.859
  468SOL    HW2 1416   2.278   1.878   0.850
  469SOL     OW 1417   2.183   0.943   0.242
  469SOL    HW1 1418   2.265   0.982   0.200
  469SOL    HW2 1419   2.156   0.861   0.193
  470SOL     OW 1420   2.323   1.266   1.727
  470SOL    HW1 1421   2.273   1.267   1.641
  470SOL    HW2 1422   2.260   1.248   1.803
  471SOL     OW 1423   2.064   0.285   1.498
  471SOL    HW1 1424   1.984   0.345   1.485
  471SOL    HW2 1425   2.054   0.236   1.584
  472SOL     OW 1426   2.326   1.743   0.323
  472SOL    HW1 1427   2.359   1.782   0.409
  472SOL    HW2 1428   2.402   1.736   0.258
  473SOL     OW 1429   2.111   1.785   1.241
  473SOL    HW1 1430   2.168   1.720   1.291
  473SOL    HW2 1431   2.095   1.752   1.148
  474SOL     OW 1432   2.244   0.700   0.480
  474SOL    HW1 1433   2.289   0.610   0.477
  474SOL    HW2 1434   2.150   0.689   0.513
  475SOL     OW 1435   2.476   0.122   0.117
  475SOL    HW1 1436   2.574   0.100   0.124
  475SOL    HW2 1437   2.445   0.105   0.024
  476SOL     OW 1438   2.665   1.402   0.924
  476SOL    HW1 1439   2.755   1.416   0.882
  476SOL    HW2 1440   2.594   1.404   0.853
  477SOL     OW 1441   2.784   0.503   0.899
  477SOL    HW1 1442   2.759   0.494   0.803
  477SOL    HW2 1443   2.832   0.421   0.930
  478SOL     OW 1444   2.401   0.064   0.512
  478SOL    HW1 1445   2.320   0.065   0.570
  478SOL    HW2 1446   2.404   0.147   0.457
  479SOL     OW 1447   2.159   0.035   0.171
  479SOL    HW1 1448   2.208   0.119   0.150
  479SOL    HW2 1449   2.221  -0.030   0.216
  480SOL     OW 1450   2.321   1.152   0.741
  480SOL    HW1 1451   2.250   1.125   0.806
  480SOL    HW2 1452   2.295   1.124   0.648
  481SOL     OW 1453   1.940   0.556   1.386
  481SOL    HW1 1454   2.032   0.555   1.345
  481SOL    HW2 1455   1.934   0.630   1.453
  482SOL     OW 1456   2.423   0.222   1.147
  482SOL    HW1 1457   2.461   0.138   1.184
  482SOL    HW2 1458   2.335   0.241   1.191
  483SOL     OW 1459   2.350   1.385   0.174
  483SOL    HW1 1460   2.263   1.370   0.221
  483SOL    HW2 1461   2.333   1.411   0.079
  484SOL     OW 1462   2.389   0.256   0.328
  484SOL    HW1 1463   2.416   0.197   0.253
  484SOL    HW2 1464   2.389   0.351   0.297
  485SOL     OW 1465   2.777   0.089   1.402
  485SOL    HW1 1466   2.802   0.069   1.307
  485SOL    HW2 1467   2.849   0.145   1.444
  486SOL     OW 1468   2.272   0.813   1.251
  486SOL    HW1 1469   2.358   0.825   1.301
  486SOL    HW2 1470   2.230   0.726   1.278
  487SOL     OW 1471   1.926   1.564   1.331
  487SOL    HW1 1472   1.880   1.646   1.297
  487SOL    HW2 1473   2.024   1.583   1.340
  488SOL     OW 1474   2.229   1.100   0.501
  488SOL    HW1 1475   2.222   1.183   0.445
  488SOL    HW2 1476   2.233   1.020   0.441
  489SOL     OW 1477   2.428   0.537   0.865
  489SOL    HW1 1478   2.440   0.603   0.791
  489SOL    HW2 1479   2.474   0.571   0.948
  490SOL     OW 1480   2.216   1.510   1.329
  490SOL    HW1 1481   2.195   1.466   1.242
  490SOL    HW2 1482   2.313   1.536   1.332
  491SOL     OW 1483   2.264   0.751   1.598
  491SOL    HW1 1484   2.332   0.806   1.551
  491SOL    HW2 1485   2.304   0.663   1.625
  492SOL     OW 1486   2.366   0.050   1.740
  492SOL    HW1 1487   2.324  -0.007   1.670
  492SOL    HW2 1488   2.300   0.119   1.772
  493SOL     OW 1489   2.435   0.870   1.029
  493SOL    HW1 1490   2.479   0.959   1.020
  493SOL    HW2 1491   2.372   0.870   1.106
  494SOL     OW 1492   2.169   0.213   1.231
  494SOL    HW1 1493   2.146   0.250   1.321
  494SOL    HW2 1494   2.139   0.118   1.225
  495SOL     OW 1495   1.899   1.310   1.282
  495SOL    HW1 1496   1.952   1.261   1.350
  495SOL    HW2 1497   1.921   1.408   1.287
  496SOL     OW 1498   2.594   0.634   1.064
  496SOL    HW1 1499   2.653   0.608   0.988
  496SOL    HW2 1500   2.566   0.730   1.053
  497SOL     OW 1501   2.169   0.063   0.618
  497SOL    HW1 1502   2.158   0.157   0.651
  497SOL    HW2 1503   2.164   0.000   0.695
  498SOL     OW 1504   2.212   0.898   1.804
  498SOL    HW1 1505   2.288   0.942   1.852
  498SOL    HW2 1506   2.247   0.851   1.722
  499SOL     OW 1507   2.930   1.333   0.849
  499SOL    HW1 1508   2.937   1.249   0.794
  499SOL    HW2 1509   2.992   1.402   0.813
  500SOL     OW 1510   2.181   0.810   0.949
  500SOL    HW1 1511   2.274   0.846   0.954
  500SOL    HW2 1512   2.175   0.725   1.001
  501SOL     OW 1513   2.201   0.509   1.006
  501SOL    HW1 1514   2.149   0.426   0.989
  501SOL    HW2 1515   2.278   0.514   0.942
  502SOL     OW 1516   1.870   1.326   0.200
  502SOL    HW1 1517   1.777   1.347   0.169
  502SOL    HW2 1518   1.880   1.227   0.213
  503SOL     OW 1519   1.950   1.801   0.927
  503SOL    HW1 1520   1.908   1.715   0.900
  503SOL    HW2 1521   2.044   1.804   0.893
  504SOL     OW 1522   2.366   1.568   0.910
  504SOL    HW1 1523   2.432   1.642   0.919
  504SOL    HW2 1524   2.410   1.489   0.868
  505SOL     OW 1525   1.902   0.544   1.114
  505SOL    HW1 1526   1.987   0.511   1.073
  505SOL    HW2 1527   1.915   0.559   1.212
  506SOL     OW 1528   2.051   0.520   1.722
  506SOL    HW1 1529   2.110   0.480   1.652
  506SOL    HW2 1530   1.993   0.591   1.681
  507SOL     OW 1531   2.114   1.564   1.744
  507SOL    HW1 1532   2.084   1.621   1.820
  507SOL    HW2 1533   2.107   1.467   1.770
  508SOL     OW 1534   2.533   0.464   1.269
  508SOL    HW1 1535   2.499   0.375   1.239
  508SOL    HW2 1536   2.559   0.518   1.189
  509SOL     OW 1537   2.335   0.500   0.191
  509SOL    HW1 1538   2.396   0.580   0.195
  509SOL    HW2 1539   2.240   0.531   0.198
  510SOL     OW 1540   2.021   1.137   1.466
  510SOL    HW1 1541   2.043   1.076   1.542
  510SOL    HW2 1542   2.031   1.088   1.380
  511SOL     OW 1543   1.945   1.258   1.022
  511SOL    HW1 1544   1.940   1.257   1.122
  511SOL    HW2 1545   1.862   1.217   0.984
  512SOL     OW 1546   2.550   1.662   1.716
  512SOL    HW1 1547   2.494   1.743   1.725
  512SOL    HW2 1548   2.602   1.666   1.630
  513SOL     OW 1549   1.992   1.794   1.851
  513SOL    HW1 1550   1.951   1.720   1.904
  513SOL    HW2 1551   2.056   1.845   1.909
  514SOL     OW 1552   2.534   1.616   0.154
  514SOL    HW1 1553   2.543   1.626   0.055
  514SOL    HW2 1554   2.494   1.527   0.175
  515SOL     OW 1555   2.125   0.326   0.720
  515SOL    HW1 1556   2.046   0.377   0.686
  515SOL    HW2 1557   2.116   0.311   0.818
  516SOL     OW 1558   2.234   1.288   1.490
  516SOL    HW1 1559   2.221   1.381   1.456
  516SOL    HW2 1560   2.150   1.236   1.477
  517SOL     OW 1561   2.452   1.487   0.491
  517SOL    HW1 1562   2.494   1.429   0.421
  517SOL    HW2 1563   2.408   1.566   0.447
  518SOL     OW 1564   2.117   1.348   0.290
  518SOL    HW1 1565   2.021   1.349   0.263
  518SOL    HW2 1566   2.129   1.401   0.374
  519SOL     OW 1567   1.967   1.013   1.726
  519SOL    HW1 1568   1.890   0.980   1.780
  519SOL    HW2 1569   2.052   0.983   1.768
  520SOL     OW 1570   2.534   0.203   1.489
  520SOL    HW1 1571   2.624   0.187   1.449
  520SOL    HW2 1572   2.542   0.208   1.588
  521SOL     OW 1573   1.937   0.345   0.033
  521SOL    HW1 1574   1.845   0.317   0.004
  521SOL    HW2 1575   1.968   0.422  -0.023
  522SOL     OW 1576   1.934   0.166   0.318
  522SOL    HW1 1577   1.917   0.249   0.264
  522SOL    HW2 1578   2.024   0.129   0.296
  523SOL     OW 1579   2.475   0.842   1.431
  523SOL    HW1 1580   2.531   0.923   1.414
  523SOL    HW2 1581   2.534   0.762   1.434
  524SOL     OW 1582   2.578   0.565   1.708
  524SOL    HW1 1583   2.597   0.630   1.782
  524SOL    HW2 1584   2.638   0.485   1.717
  525SOL     OW 1585   2.252   1.741   1.560
  525SOL    HW1 1586   2.161   1.782   1.558
  525SOL    HW2 1587   2.245   1.647   1.592
  526SOL     OW 1588   2.456   0.745   0.652
  526SOL    HW1 1589   2.506   0.830   0.633
  526SOL    HW2 1590   2.368   0.747   0.604
  527SOL     OW 1591   2.523   1.790   0.953
  527SOL    HW1 1592   2.477   1.878   0.940
  527SOL    HW2 1593   2.622   1.802   0.946
  528SOL     OW 1594   2.083   1.314   1.844
  528SOL    HW1 1595   2.018   1.241   1.823
  528SOL    HW2 1596   2.087   1.328   1.942
  529SOL     OW 1597   1.941   1.240   0.653
  529SOL    HW1 1598   1.940   1.193   0.741
  529SOL    HW2 1599   2.023   1.212   0.602
  530SOL     OW 1600   2.534   1.391   1.624
  530SOL    HW1 1601   2.456   1.341   1.662
  530SOL    HW2 1602   2.531   1.486   1.655
  531SOL     OW 1603   2.290   0.424   0.520
  531SOL    HW1 1604   2.320   0.352   0.458
  531SOL    HW2 1605   2.251   0.384   0.603
  532SOL     OW 1606   2.179   0.547   1.280
  532SOL    HW1 1607   2.217   0.488   1.352
  532SOL    HW2 1608   2.219   0.521   1.192
  533SOL     OW 1609   2.674   1.586   0.687
  533SOL    HW1 1610   2.706   1.596   0.593
  533SOL    HW2 1611   2.595   1.524   0.689
  534SOL     OW 1612   2.480   1.567   1.284
  534SOL    HW1 1613   2.475   1.649   1.341
  534SOL    HW2 1614   2.569   1.564   1.239
  535SOL     OW 1615   1.901   1.077   0.300
  535SOL    HW1 1616   2.000   1.066   0.291
  535SOL    HW2 1617   1.861   0.991   0.332
  536SOL     OW 1618   2.092   0.628   1.975
  536SOL    HW1 1619   1.999   0.626   2.012
  536SOL    HW2 1620   2.093   0.589   1.883
  537SOL     OW 1621   2.087   0.275   2.858
  537SOL    HW1 1622   2.122   0.258   2.950
  537SOL    HW2 1623   1.999   0.230   2.846
  538SOL     OW 1624   1.881   0.368   2.509
  538SOL    HW1 1625   1.799   0.411   2.548
  538SOL    HW2 1626   1.853   0.295   2.446
  539SOL     OW 1627   2.547   1.012   2.527
  539SOL    HW1 1628   2.616   0.996   2.597
  539SOL    HW2 1629   2.474   1.069   2.565
  540SOL     OW 1630   2.093   1.713   2.345
  540SOL    HW1 1631   2.127   1.790   2.399
  540SOL    HW2 1632   2.137   1.713   2.255
  541SOL     OW 1633   2.092   1.434   2.400
  541SOL    HW1 1634   2.066   1.530   2.400
  541SOL    HW2 1635   2.021   1.380   2.445
  542SOL     OW 1636   2.102   1.091   2.748
  542SOL    HW1 1637   2.116   1.007   2.800
  542SOL    HW2 1638   2.047   1.155   2.803
  543SOL     OW 1639   2.468   0.964   1.985
  543SOL    HW1 1640   2.475   1.048   1.931
  543SOL    HW2 1641   2.514   0.977   2.073
  544SOL     OW 1642   1.984   0.643   2.425
  544SOL    HW1 1643   1.939   0.555   2.442
  544SOL    HW2 1644   1.983   0.697   2.509
  545SOL     OW 1645   1.889   1.596   1.979
  545SOL    HW1 1646   1.870   1.500   2.000
  545SOL    HW2 1647   1.856   1.654   2.054
  546SOL     OW 1648   2.475   1.365   2.588
  546SOL    HW1 1649   2.426   1.278   2.597
  546SOL    HW2 1650   2.452   1.408   2.501
  547SOL     OW 1651   2.671   0.004   2.364
  547SOL    HW1 1652   2.711   0.095   2.355
  547SOL    HW2 1653   2.571   0.012   2.370
  548SOL     OW 1654   2.460   0.729   2.132
  548SOL    HW1 1655   2.484   0.798   2.064
  548SOL    HW2 1656   2.382   0.762   2.186
  549SOL     OW 1657   1.938   0.811   2.651
  549SOL    HW1 1658   2.037   0.799   2.660
  549SOL    HW2 1659   1.914   0.906   2.672
  550SOL     OW 1660   2.213   1.801   2.715
  550SOL    HW1 1661   2.263   1.715   2.721
  550SOL    HW2 1662   2.278   1.878   2.712
  551SOL     OW 1663   2.183   0.943   2.104
  551SOL    HW1 1664   2.265   0.982   2.062
  551SOL    HW2 1665   2.156   0.861   2.055
  552SOL     OW 1666   2.326   1.743   2.185
  552SOL    HW1 1667   2.359   1.782   2.271
  552SOL    HW2 1668   2.402   1.736   2.120
  553SOL     OW 1669   2.244   0.700   2.342
  553SOL    HW1 1670   2.289   0.610   2.339
  553SOL    HW2 1671   2.150   0.689   2.375
  554SOL     OW 1672   2.476   0.122   1.979
  554SOL    HW1 1673   2.574   0.100   1.986
  554SOL    HW2 1674   2.445   0.105   1.886
  555SOL     OW 1675   2.401   0.064   2.374
  555SOL    HW1 1676   2.320   0.065   2.432
  555SOL    HW2 1677   2.404   0.147   2.319
  556SOL     OW 1678   2.159   0.035   2.033
  556SOL    HW1 1679   2.208   0.119   2.012
  556SOL    HW2 1680   2.221  -0.030   2.078
  557SOL     OW 1681   2.321   1.152   2.603
  557SOL    HW1 1682   2.250   1.125   2.668
  557SOL    HW2 1683   2.295   1.124   2.510
  558SOL     OW 1684   2.350   1.385   2.036
  558SOL    HW1 1685   2.263   1.370   2.083
  558SOL    HW2 1686   2.333   1.411   1.941
  559SOL     OW 1687   2.389   0.256   2.190
  559SOL    HW1 1688   2.416   0.197   2.115
  559SOL    HW2 1689   2.389   0.351   2.159
  560SOL     OW 1690   2.229   1.100   2.363
  560SOL    HW1 1691   2.222   1.183   2.307
  560SOL    HW2 1692   2.233   1.020   2.303
  561SOL     OW 1693   2.169   0.063   2.480
  561SOL    HW1 1694   2.158   0.157   2.513
  561SOL    HW2 1695   2.164   0.000   2.557
  562SOL     OW 1696   2.930   1.333   2.711
  562SOL    HW1 1697   2.937   1.249   2.656
  562SOL    HW2 1698   2.992   1.402   2.675
  563SOL     OW 1699   1.870   1.326   2.062
  563SOL    HW1 1700   1.777   1.347   2.031
  563SOL    HW2 1701   1.880   1.227   2.075
  564SOL     OW 1702   2.677   0.572   2.187
  564SOL    HW1 1703   2.684   0.483   2.141
  564SOL    HW2 1704   2.583   0.606   2.179
  565SOL     OW 1705   2.335   0.500   2.053
  565SOL    HW1 1706   2.396   0.580   2.057
  565SOL    HW2 1707   2.240   0.531   2.060
  566SOL     OW 1708   2.534   1.616   2.016
  566SOL    HW1 1709   2.543   1.626   1.917
  566SOL    HW2 1710   2.494   1.527   2.037
  567SOL     OW 1711   2.125   0.326   2.582
  567SOL    HW1 1712   2.046   0.377   2.548
  567SOL    HW2 1713   2.116   0.311   2.680
  568SOL     OW 1714   2.452   1.487   2.353
  568SOL    HW1 1715   2.494   1.429   2.283
  568SOL    HW2 1716   2.408   1.566   2.309
  569SOL     OW 1717   2.117   1.348   2.152
  569SOL    HW1 1718   2.021   1.349   2.125
  569SOL    HW2 1719   2.129   1.401   2.236
  570SOL     OW 1720   1.937   0.345   1.895
  570SOL    HW1 1721   1.845   0.317   1.866
  570SOL    HW2 1722   1.968   0.422   1.839
  571SOL     OW 1723   1.934   0.166   2.180
  571SOL    HW1 1724   1.917   0.249   2.126
  571SOL    HW2 1725   2.024   0.129   2.158
  572SOL     OW 1726   2.456   0.745   2.514
  572SOL    HW1 1727   2.506   0.830   2.495
  572SOL    HW2 1728   2.368   0.747   2.466
  573SOL     OW 1729   2.523   1.790   2.815
  573SOL    HW1 1730   2.477   1.878   2.802
  573SOL    HW2 1731   2.622   1.802   2.808
  574SOL     OW 1732   1.941   1.240   2.515
  574SOL    HW1 1733   1.940   1.193   2.603
  574SOL    HW2 1734   2.023   1.212   2.464
  575SOL     OW 1735   2.290   0.424   2.382
  575SOL    HW1 1736   2.320   0.352   2.320
  575SOL    HW2 1737   2.251   0.384   2.465
  576SOL     OW 1738   2.674   1.586   2.549
  576SOL    HW1 1739   2.706   1.596   2.455
  576SOL    HW2 1740   2.595   1.524   2.551
  577SOL     OW 1741   1.901   1.077   2.162
  577SOL    HW1 1742   2.000   1.066   2.153
  577SOL    HW2 1743   1.861   0.991   2.194
  578SOL     OW 1744   2.092   2.490   0.113
  578SOL    HW1 1745   1.999   2.488   0.150
  578SOL    HW2 1746   2.093   2.451   0.021
  579SOL     OW 1747   2.087   2.137   0.996
  579SOL    HW1 1748   2.122   2.120   1.088
  579SOL    HW2 1749   1.999   2.092   0.984
  580SOL     OW 1750   1.881   2.230   0.647
  580SOL    HW1 1751   1.799   2.273   0.686
  580SOL    HW2 1752   1.853   2.157   0.584
  581SOL     OW 1753   2.712   2.660   1.823
  581SOL    HW1 1754   2.708   2.736   1.888
  581SOL    HW2 1755   2.734   2.696   1.732
  582SOL     OW 1756   2.547   2.874   0.665
  582SOL    HW1 1757   2.616   2.858   0.735
  582SOL    HW2 1758   2.474   2.931   0.703
  583SOL     OW 1759   2.300   2.254   1.499
  583SOL    HW1 1760   2.382   2.198   1.508
  583SOL    HW2 1761   2.219   2.196   1.503
  584SOL     OW 1762   1.984   2.505   0.563
  584SOL    HW1 1763   1.939   2.417   0.580
  584SOL    HW2 1764   1.983   2.559   0.647
  585SOL     OW 1765   1.975   2.599   1.597
  585SOL    HW1 1766   2.063   2.586   1.642
  585SOL    HW2 1767   1.962   2.696   1.575
  586SOL     OW 1768   2.671   1.866   0.502
  586SOL    HW1 1769   2.711   1.957   0.493
  586SOL    HW2 1770   2.571   1.874   0.508
  587SOL     OW 1771   2.179   2.113   1.801
  587SOL    HW1 1772   2.250   2.184   1.807
  587SOL    HW2 1773   2.091   2.152   1.829
  588SOL     OW 1774   2.460   2.591   0.270
  588SOL    HW1 1775   2.484   2.660   0.202
  588SOL    HW2 1776   2.382   2.624   0.324
  589SOL     OW 1777   2.412   2.058   0.885
  589SOL    HW1 1778   2.407   2.053   0.985
  589SOL    HW2 1779   2.414   2.154   0.856
  590SOL     OW 1780   2.064   2.147   1.498
  590SOL    HW1 1781   1.984   2.207   1.485
  590SOL    HW2 1782   2.054   2.098   1.584
  591SOL     OW 1783   2.244   2.562   0.480
  591SOL    HW1 1784   2.289   2.472   0.477
  591SOL    HW2 1785   2.150   2.551   0.513
  592SOL     OW 1786   2.784   2.365   0.899
  592SOL    HW1 1787   2.759   2.356   0.803
  592SOL    HW2 1788   2.832   2.283   0.930
  593SOL     OW 1789   2.401   1.926   0.512
  593SOL    HW1 1790   2.320   1.927   0.570
  593SOL    HW2 1791   2.404   2.009   0.457
  594SOL     OW 1792   2.159   1.897   0.171
  594SOL    HW1 1793   2.208   1.981   0.150
  594SOL    HW2 1794   2.221   1.832   0.216
  595SOL     OW 1795   1.940   2.418   1.386
  595SOL    HW1 1796   2.032   2.417   1.345
  595SOL    HW2 1797   1.934   2.492   1.453
  596SOL     OW 1798   2.423   2.084   1.147
  596SOL    HW1 1799   2.461   2.000   1.184
  596SOL    HW2 1800   2.335   2.103   1.191
  597SOL     OW 1801   2.389   2.118   0.328
  597SOL    HW1 1802   2.416   2.059   0.253
  597SOL    HW2 1803   2.389   2.213   0.297
  598SOL     OW 1804   2.777   1.951   1.402
  598SOL    HW1 1805   2.802   1.931   1.307
  598SOL    HW2 1806   2.849   2.007   1.444
  599SOL     OW 1807   2.272   2.675   1.251
  599SOL    HW1 1808   2.358   2.687   1.301
  599SOL    HW2 1809   2.230   2.588   1.278
  600SOL     OW 1810   2.428   2.399   0.865
  600SOL    HW1 1811   2.440   2.465   0.791
  600SOL    HW2 1812   2.474   2.433   0.948
  601SOL     OW 1813   2.366   1.912   1.740
  601SOL    HW1 1814   2.324   1.855   1.670
  601SOL    HW2 1815   2.300   1.981   1.772
  602SOL     OW 1816   2.169   2.075   1.231
  602SOL    HW1 1817   2.146   2.112   1.321
  602SOL    HW2 1818   2.139   1.980   1.225
  603SOL     OW 1819   2.594   2.496   1.064
  603SOL    HW1 1820   2.653   2.470   0.988
  603SOL    HW2 1821   2.566   2.592   1.053
  604SOL     OW 1822   2.169   1.925   0.618
  604SOL    HW1 1823   2.158   2.019   0.651
  604SOL    HW2 1824   2.164   1.862   0.695
  605SOL     OW 1825   2.181   2.672   0.949
  605SOL    HW1 1826   2.274   2.708   0.954
  605SOL    HW2 1827   2.175   2.587   1.001
  606SOL     OW 1828   2.201   2.371   1.006
  606SOL    HW1 1829   2.149   2.288   0.989
  606SOL    HW2 1830   2.278   2.376   0.942
  607SOL     OW 1831   1.902   2.406   1.114
  607SOL    HW1 1832   1.987   2.373   1.073
  607SOL    HW2 1833   1.915   2.421   1.212
  608SOL     OW 1834   2.051   2.382   1.722
  608SOL    HW1 1835   2.110   2.342   1.652
  608SOL    HW2 1836   1.993   2.453   1.681
  609SOL     OW 1837   2.533   2.326   1.269
  609SOL    HW1 1838   2.499   2.237   1.239
  609SOL    HW2 1839   2.559   2.380   1.189
  610SOL     OW 1840   2.335   2.362   0.191
  610SOL    HW1 1841   2.396   2.442   0.195
  610SOL    HW2 1842   2.240   2.393   0.198
  611SOL     OW 1843   2.125   2.188   0.720
  611SOL    HW1 1844   2.046   2.239   0.686
  611SOL    HW2 1845   2.116   2.173   0.818
  612SOL     OW 1846   1.967   2.875   1.726
  612SOL    HW1 1847   1.890   2.842   1.780
  612SOL    HW2 1848   2.052   2.845   1.768
  613SOL     OW 1849   2.534   2.065   1.489
  613SOL    HW1 1850   2.624   2.049   1.449
  613SOL    HW2 1851   2.542   2.070   1.588
  614SOL     OW 1852   1.937   2.207   0.033
  614SOL    HW1 1853   1.845   2.179   0.004
  614SOL    HW2 1854   1.968   2.284  -0.023
  615SOL     OW 1855   1.934   2.028   0.318
  615SOL    HW1 1856   1.917   2.111   0.264
  615SOL    HW2 1857   2.024   1.991   0.296
  616SOL     OW 1858   2.578   2.427   1.708
  616SOL    HW1 1859   2.597   2.492   1.782
  616SOL    HW2 1860   2.638   2.347   1.717
  617SOL     OW 1861   2.456   2.607   0.652
  617SOL    HW1 1862   2.506   2.692   0.633
  617SOL    HW2 1863   2.368   2.609   0.604
  618SOL     OW 1864   2.290   2.286   0.520
  618SOL    HW1 1865   2.320   2.214   0.458
  618SOL    HW2 1866   2.251   2.246   0.603
  619SOL     OW 1867   2.179   2.409   1.280
  619SOL    HW1 1868   2.217   2.350   1.352
  619SOL    HW2 1869   2.219   2.383   1.192
  620SOL     OW 1870   2.092   2.490   1.975
  620SOL    HW1 1871   1.999   2.488   2.012
  620SOL    HW2 1872   2.093   2.451   1.883
  621SOL     OW 1873   2.087   2.137   2.858
  621SOL    HW1 1874   2.122   2.120   2.950
  621SOL    HW2 1875   1.999   2.092   2.846
  622SOL     OW 1876   1.881   2.230   2.509
  622SOL    HW1 1877   1.799   2.273   2.548
  622SOL    HW2 1878   1.853   2.157   2.446
  623SOL     OW 1879   2.547   2.874   2.527
  623SOL    HW1 1880   2.616   2.858   2.597
  623SOL    HW2 1881   2.474   2.931   2.565
  624SOL     OW 1882   1.984   2.505   2.425
  624SOL    HW1 1883   1.939   2.417   2.442
  624SOL    HW2 1884   1.983   2.559   2.509
  625SOL     OW 1885   2.671   1.866   2.364
  625SOL    HW1 1886   2.711   1.957   2.355
  625SOL    HW2 1887   2.571   1.874   2.370
  626SOL     OW 1888   2.460   2.591   2.132
  626SOL    HW1 1889   2.484   2.660   2.064
  626SOL    HW2 1890   2.382   2.624   2.186
  627SOL     OW 1891   2.244   2.562   2.342
  627SOL    HW1 1892   2.289   2.472   2.339
  627SOL    HW2 1893   2.150   2.551   2.375
  628SOL     OW 1894   2.476   1.984   1.979
  628SOL    HW1 1895   2.574   1.962   1.986
  628SOL    HW2 1896   2.445   1.967   1.886
  629SOL     OW 1897   2.401   1.926   2.374
  629SOL    HW1 1898   2.320   1.927   2.432
  629SOL    HW2 1899   2.404   2.009   2.319
  630SOL     OW 1900   2.159   1.897   2.033
  630SOL    HW1 1901   2.208   1.981   2.012
  630SOL    HW2 1902   2.221   1.832   2.078
  631SOL     OW 1903   2.389   2.118   2.190
  631SOL    HW1 1904   2.416   2.059   2.115
  631SOL    HW2 1905   2.389   2.213   2.159
  632SOL     OW 1906   2.169   1.925   2.480
  632SOL    HW1 1907   2.158   2.019   2.513
  632SOL    HW2 1908   2.164   1.862   2.557
  633SOL     OW 1909   2.677   2.434   2.187
  633SOL    HW1 1910   2.684   2.345   2.141
  633SOL    HW2 1911   2.583   2.468   2.179
  634SOL     OW 1912   2.335   2.362   2.053
  634SOL    HW1 1913   2.396   2.442   2.057
  634SOL    HW2 1914   2.240   2.393   2.060
  635SOL     OW 1915   2.125   2.188   2.582
  635SOL    HW1 1916   2.046   2.239   2.548
  635SOL    HW2 1917   2.116   2.173   2.680
  636SOL     OW 1918   1.937   2.207   1.895
  636SOL    HW1 1919   1.845   2.179   1.866
  636SOL    HW2 1920   1.968   2.284   1.839
  637SOL     OW 1921   1.934   2.028   2.180
  637SOL    HW1 1922   1.917   2.111   2.126
  637SOL    HW2 1923   2.024   1.991   2.158
  638SOL     OW 1924   2.456   2.607   2.514
  638SOL    HW1 1925   2.506   2.692   2.495
  638SOL    HW2 1926   2.368   2.609   2.466
  639SOL     OW 1927   2.290   2.286   2.382
  639SOL    HW1 1928   2.320   2.214   2.320
  639SOL    HW2 1929   2.251   2.246   2.465
   2.69532   2.69532   2.69532
