; mobley_1469079_GMX.itp created by acpype (v: 2023.10.27) on Thu May 14 13:27:50 2026

[ atomtypes ]
;name   bond_type     mass     charge   ptype   sigma         epsilon       Amb
 ca       ca          0.00000  0.00000   A     3.31521e-01   4.13379e-01 ; 1.86  0.0988
 os       os          0.00000  0.00000   A     3.15610e-01   3.03758e-01 ; 1.77  0.0726
 cl       cl          0.00000  0.00000   A     3.46595e-01   1.10374e+00 ; 1.95  0.2638
 ha       ha          0.00000  0.00000   A     2.62548e-01   6.73624e-02 ; 1.47  0.0161

[ moleculetype ]
;name            nrexcl
 mobley_1469079   3

[ atoms ]
;   nr  type  resi  res  atom  cgnr     charge      mass       ; qtot   bond_type
     1   ca     1   MOL    C1    1    -0.125000     12.01000 ; qtot -0.125
     2   ca     1   MOL    C2    2    -0.125000     12.01000 ; qtot -0.250
     3   ca     1   MOL    C3    3    -0.178300     12.01000 ; qtot -0.428
     4   ca     1   MOL    C4    4    -0.178300     12.01000 ; qtot -0.607
     5   ca     1   MOL    C5    5    -0.174300     12.01000 ; qtot -0.781
     6   ca     1   MOL    C6    6    -0.174300     12.01000 ; qtot -0.955
     7   ca     1   MOL    C7    7     0.209700     12.01000 ; qtot -0.746
     8   ca     1   MOL    C8    8     0.209700     12.01000 ; qtot -0.536
     9   ca     1   MOL    C9    9     0.222700     12.01000 ; qtot -0.313
    10   ca     1   MOL   C10   10     0.222700     12.01000 ; qtot -0.090
    11   ca     1   MOL   C11   11     0.018400     12.01000 ; qtot -0.072
    12   ca     1   MOL   C12   12     0.018400     12.01000 ; qtot -0.054
    13   os     1   MOL    O1   13    -0.386800     16.00000 ; qtot -0.440
    14   os     1   MOL    O2   14    -0.386800     16.00000 ; qtot -0.827
    15   cl     1   MOL   CL1   15    -0.058400     35.45000 ; qtot -0.886
    16   cl     1   MOL   CL2   16    -0.058400     35.45000 ; qtot -0.944
    17   ha     1   MOL    H1   17     0.142000      1.00800 ; qtot -0.802
    18   ha     1   MOL    H2   18     0.142000      1.00800 ; qtot -0.660
    19   ha     1   MOL    H3   19     0.157000      1.00800 ; qtot -0.503
    20   ha     1   MOL    H4   20     0.157000      1.00800 ; qtot -0.346
    21   ha     1   MOL    H5   21     0.173000      1.00800 ; qtot -0.173
    22   ha     1   MOL    H6   22     0.173000      1.00800 ; qtot 0.000

[ bonds ]
;   ai     aj funct   r             k
     1      2   1    1.3986e-01    2.9644e+05 ;     C1 - C2    
     1      3   1    1.3986e-01    2.9644e+05 ;     C1 - C3    
     1     17   1    1.0860e-01    3.0183e+05 ;     C1 - H1    
     2      4   1    1.3986e-01    2.9644e+05 ;     C2 - C4    
     2     18   1    1.0860e-01    3.0183e+05 ;     C2 - H2    
     3      7   1    1.3986e-01    2.9644e+05 ;     C3 - C7    
     3     19   1    1.0860e-01    3.0183e+05 ;     C3 - H3    
     4      8   1    1.3986e-01    2.9644e+05 ;     C4 - C8    
     4     20   1    1.0860e-01    3.0183e+05 ;     C4 - H4    
     5      9   1    1.3986e-01    2.9644e+05 ;     C5 - C9    
     5     11   1    1.3986e-01    2.9644e+05 ;     C5 - C11   
     5     21   1    1.0860e-01    3.0183e+05 ;     C5 - H5    
     6     10   1    1.3986e-01    2.9644e+05 ;     C6 - C10   
     6     12   1    1.3986e-01    2.9644e+05 ;     C6 - C12   
     6     22   1    1.0860e-01    3.0183e+05 ;     C6 - H6    
     7      8   1    1.3986e-01    2.9644e+05 ;     C7 - C8    
     7     13   1    1.3688e-01    2.8731e+05 ;     C7 - O1    
     8     14   1    1.3688e-01    2.8731e+05 ;     C8 - O2    
     9     10   1    1.3986e-01    2.9644e+05 ;     C9 - C10   
     9     13   1    1.3688e-01    2.8731e+05 ;     C9 - O1    
    10     14   1    1.3688e-01    2.8731e+05 ;    C10 - O2    
    11     12   1    1.3986e-01    2.9644e+05 ;    C11 - C12   
    11     15   1    1.7572e-01    1.5730e+05 ;    C11 - CL1   
    12     16   1    1.7572e-01    1.5730e+05 ;    C12 - CL2   

[ pairs ]
;   ai     aj    funct
     1      8      1 ;     C1 - C8    
     1     13      1 ;     C1 - O1    
     1     20      1 ;     C1 - H4    
     2      7      1 ;     C2 - C7    
     2     14      1 ;     C2 - O2    
     2     19      1 ;     C2 - H3    
     3      4      1 ;     C3 - C4    
     3      9      1 ;     C3 - C9    
     3     14      1 ;     C3 - O2    
     3     18      1 ;     C3 - H2    
     4     10      1 ;     C4 - C10   
     4     13      1 ;     C4 - O1    
     5      6      1 ;     C5 - C6    
     5      7      1 ;     C5 - C7    
     5     14      1 ;     C5 - O2    
     5     16      1 ;     C5 - CL2   
     6      8      1 ;     C6 - C8    
     6     13      1 ;     C6 - O1    
     6     15      1 ;     C6 - CL1   
     7     10      1 ;     C7 - C10   
     7     20      1 ;     C7 - H4    
     8      9      1 ;     C8 - C9    
     8     18      1 ;     C8 - H2    
     8     19      1 ;     C8 - H3    
     9     12      1 ;     C9 - C12   
     9     15      1 ;     C9 - CL1   
     9     22      1 ;     C9 - H6    
    10     11      1 ;    C10 - C11   
    10     16      1 ;    C10 - CL2   
    10     21      1 ;    C10 - H5    
    11     13      1 ;    C11 - O1    
    11     22      1 ;    C11 - H6    
    12     14      1 ;    C12 - O2    
    12     21      1 ;    C12 - H5    
    13     14      1 ;     O1 - O2    
    13     19      1 ;     O1 - H3    
    13     21      1 ;     O1 - H5    
    14     20      1 ;     O2 - H4    
    14     22      1 ;     O2 - H6    
    15     16      1 ;    CL1 - CL2   
    15     21      1 ;    CL1 - H5    
    16     22      1 ;    CL2 - H6    
    17      4      1 ;     H1 - C4    
    17      7      1 ;     H1 - C7    
    17     18      1 ;     H1 - H2    
    17     19      1 ;     H1 - H3    
    18     20      1 ;     H2 - H4    

[ angles ]
;   ai     aj     ak    funct   theta         cth
     1      2      4      1    1.2002e+02    5.3279e+02 ;     C1 - C2     - C4    
     1      2     18      1    1.1988e+02    3.7572e+02 ;     C1 - C2     - H2    
     1      3      7      1    1.2002e+02    5.3279e+02 ;     C1 - C3     - C7    
     1      3     19      1    1.1988e+02    3.7572e+02 ;     C1 - C3     - H3    
     2      1      3      1    1.2002e+02    5.3279e+02 ;     C2 - C1     - C3    
     2      1     17      1    1.1988e+02    3.7572e+02 ;     C2 - C1     - H1    
     2      4      8      1    1.2002e+02    5.3279e+02 ;     C2 - C4     - C8    
     2      4     20      1    1.1988e+02    3.7572e+02 ;     C2 - C4     - H4    
     3      1     17      1    1.1988e+02    3.7572e+02 ;     C3 - C1     - H1    
     3      7      8      1    1.2002e+02    5.3279e+02 ;     C3 - C7     - C8    
     3      7     13      1    1.1911e+02    6.6107e+02 ;     C3 - C7     - O1    
     4      2     18      1    1.1988e+02    3.7572e+02 ;     C4 - C2     - H2    
     4      8      7      1    1.2002e+02    5.3279e+02 ;     C4 - C8     - C7    
     4      8     14      1    1.1911e+02    6.6107e+02 ;     C4 - C8     - O2    
     5      9     10      1    1.2002e+02    5.3279e+02 ;     C5 - C9     - C10   
     5      9     13      1    1.1911e+02    6.6107e+02 ;     C5 - C9     - O1    
     5     11     12      1    1.2002e+02    5.3279e+02 ;     C5 - C11    - C12   
     5     11     15      1    1.1938e+02    5.3605e+02 ;     C5 - C11    - CL1   
     6     10      9      1    1.2002e+02    5.3279e+02 ;     C6 - C10    - C9    
     6     10     14      1    1.1911e+02    6.6107e+02 ;     C6 - C10    - O2    
     6     12     11      1    1.2002e+02    5.3279e+02 ;     C6 - C12    - C11   
     6     12     16      1    1.1938e+02    5.3605e+02 ;     C6 - C12    - CL2   
     7      3     19      1    1.1988e+02    3.7572e+02 ;     C7 - C3     - H3    
     7      8     14      1    1.1911e+02    6.6107e+02 ;     C7 - C8     - O2    
     7     13      9      1    1.1987e+02    7.5036e+02 ;     C7 - O1     - C9    
     8      4     20      1    1.1988e+02    3.7572e+02 ;     C8 - C4     - H4    
     8      7     13      1    1.1911e+02    6.6107e+02 ;     C8 - C7     - O1    
     8     14     10      1    1.1987e+02    7.5036e+02 ;     C8 - O2     - C10   
     9      5     11      1    1.2002e+02    5.3279e+02 ;     C9 - C5     - C11   
     9      5     21      1    1.1988e+02    3.7572e+02 ;     C9 - C5     - H5    
     9     10     14      1    1.1911e+02    6.6107e+02 ;     C9 - C10    - O2    
    10      6     12      1    1.2002e+02    5.3279e+02 ;    C10 - C6     - C12   
    10      6     22      1    1.1988e+02    3.7572e+02 ;    C10 - C6     - H6    
    10      9     13      1    1.1911e+02    6.6107e+02 ;    C10 - C9     - O1    
    11      5     21      1    1.1988e+02    3.7572e+02 ;    C11 - C5     - H5    
    11     12     16      1    1.1938e+02    5.3605e+02 ;    C11 - C12    - CL2   
    12      6     22      1    1.1988e+02    3.7572e+02 ;    C12 - C6     - H6    
    12     11     15      1    1.1938e+02    5.3605e+02 ;    C12 - C11    - CL1   

[ dihedrals ] ; propers
; for gromacs 4.5 or higher, using funct 9
;    i      j      k      l   func   phase     kd      pn
     1      2      4      8      9   180.00  15.16700   2 ;     C1-    C2-    C4-    C8
     1      2      4     20      9   180.00  15.16700   2 ;     C1-    C2-    C4-    H4
     1      3      7      8      9   180.00  15.16700   2 ;     C1-    C3-    C7-    C8
     1      3      7     13      9   180.00  15.16700   2 ;     C1-    C3-    C7-    O1
     2      1      3      7      9   180.00  15.16700   2 ;     C2-    C1-    C3-    C7
     2      1      3     19      9   180.00  15.16700   2 ;     C2-    C1-    C3-    H3
     2      4      8      7      9   180.00  15.16700   2 ;     C2-    C4-    C8-    C7
     2      4      8     14      9   180.00  15.16700   2 ;     C2-    C4-    C8-    O2
     3      1      2      4      9   180.00  15.16700   2 ;     C3-    C1-    C2-    C4
     3      1      2     18      9   180.00  15.16700   2 ;     C3-    C1-    C2-    H2
     3      7      8      4      9   180.00  15.16700   2 ;     C3-    C7-    C8-    C4
     3      7      8     14      9   180.00  15.16700   2 ;     C3-    C7-    C8-    O2
     3      7     13      9      9   180.00   3.76560   2 ;     C3-    C7-    O1-    C9
     4      8      7     13      9   180.00  15.16700   2 ;     C4-    C8-    C7-    O1
     4      8     14     10      9   180.00   3.76560   2 ;     C4-    C8-    O2-   C10
     5      9     10      6      9   180.00  15.16700   2 ;     C5-    C9-   C10-    C6
     5      9     10     14      9   180.00  15.16700   2 ;     C5-    C9-   C10-    O2
     5      9     13      7      9   180.00   3.76560   2 ;     C5-    C9-    O1-    C7
     5     11     12      6      9   180.00  15.16700   2 ;     C5-   C11-   C12-    C6
     5     11     12     16      9   180.00  15.16700   2 ;     C5-   C11-   C12-   CL2
     6     10      9     13      9   180.00  15.16700   2 ;     C6-   C10-    C9-    O1
     6     10     14      8      9   180.00   3.76560   2 ;     C6-   C10-    O2-    C8
     6     12     11     15      9   180.00  15.16700   2 ;     C6-   C12-   C11-   CL1
     7      8      4     20      9   180.00  15.16700   2 ;     C7-    C8-    C4-    H4
     7      8     14     10      9   180.00   3.76560   2 ;     C7-    C8-    O2-   C10
     7     13      9     10      9   180.00   3.76560   2 ;     C7-    O1-    C9-   C10
     8      4      2     18      9   180.00  15.16700   2 ;     C8-    C4-    C2-    H2
     8      7      3     19      9   180.00  15.16700   2 ;     C8-    C7-    C3-    H3
     8      7     13      9      9   180.00   3.76560   2 ;     C8-    C7-    O1-    C9
     8     14     10      9      9   180.00   3.76560   2 ;     C8-    O2-   C10-    C9
     9      5     11     12      9   180.00  15.16700   2 ;     C9-    C5-   C11-   C12
     9      5     11     15      9   180.00  15.16700   2 ;     C9-    C5-   C11-   CL1
     9     10      6     12      9   180.00  15.16700   2 ;     C9-   C10-    C6-   C12
     9     10      6     22      9   180.00  15.16700   2 ;     C9-   C10-    C6-    H6
    10      6     12     11      9   180.00  15.16700   2 ;    C10-    C6-   C12-   C11
    10      6     12     16      9   180.00  15.16700   2 ;    C10-    C6-   C12-   CL2
    10      9      5     11      9   180.00  15.16700   2 ;    C10-    C9-    C5-   C11
    10      9      5     21      9   180.00  15.16700   2 ;    C10-    C9-    C5-    H5
    11      5      9     13      9   180.00  15.16700   2 ;    C11-    C5-    C9-    O1
    11     12      6     22      9   180.00  15.16700   2 ;    C11-   C12-    C6-    H6
    12      6     10     14      9   180.00  15.16700   2 ;    C12-    C6-   C10-    O2
    12     11      5     21      9   180.00  15.16700   2 ;    C12-   C11-    C5-    H5
    13      7      3     19      9   180.00  15.16700   2 ;     O1-    C7-    C3-    H3
    13      7      8     14      9   180.00  15.16700   2 ;     O1-    C7-    C8-    O2
    13      9      5     21      9   180.00  15.16700   2 ;     O1-    C9-    C5-    H5
    13      9     10     14      9   180.00  15.16700   2 ;     O1-    C9-   C10-    O2
    14      8      4     20      9   180.00  15.16700   2 ;     O2-    C8-    C4-    H4
    14     10      6     22      9   180.00  15.16700   2 ;     O2-   C10-    C6-    H6
    15     11      5     21      9   180.00  15.16700   2 ;    CL1-   C11-    C5-    H5
    15     11     12     16      9   180.00  15.16700   2 ;    CL1-   C11-   C12-   CL2
    16     12      6     22      9   180.00  15.16700   2 ;    CL2-   C12-    C6-    H6
    17      1      2      4      9   180.00  15.16700   2 ;     H1-    C1-    C2-    C4
    17      1      2     18      9   180.00  15.16700   2 ;     H1-    C1-    C2-    H2
    17      1      3      7      9   180.00  15.16700   2 ;     H1-    C1-    C3-    C7
    17      1      3     19      9   180.00  15.16700   2 ;     H1-    C1-    C3-    H3
    18      2      4     20      9   180.00  15.16700   2 ;     H2-    C2-    C4-    H4

[ dihedrals ] ; impropers
; treated as propers in GROMACS to use correct AMBER analytical function
;    i      j      k      l   func   phase     kd      pn
     1      4      2     18      4   180.00   4.60240   2 ;     C1-    C4-    C2-    H2
     1      7      3     19      4   180.00   4.60240   2 ;     C1-    C7-    C3-    H3
     2      8      4     20      4   180.00   4.60240   2 ;     C2-    C8-    C4-    H4
     3      8      7     13      4   180.00   4.60240   2 ;     C3-    C8-    C7-    O1
     4      7      8     14      4   180.00   4.60240   2 ;     C4-    C7-    C8-    O2
     5     10      9     13      4   180.00   4.60240   2 ;     C5-   C10-    C9-    O1
     5     12     11     15      4   180.00   4.60240   2 ;     C5-   C12-   C11-   CL1
     6      9     10     14      4   180.00   4.60240   2 ;     C6-    C9-   C10-    O2
     6     11     12     16      4   180.00   4.60240   2 ;     C6-   C11-   C12-   CL2
     9     11      5     21      4   180.00   4.60240   2 ;     C9-   C11-    C5-    H5
    10     12      6     22      4   180.00   4.60240   2 ;    C10-   C12-    C6-    H6
    17      1      3      2      4   180.00   4.60240   2 ;     H1-    C1-    C3-    C2
