mobley_7578802_GMX.gro created by acpype (v: 2023.10.27) on Thu May 14 13:44:22 2026
 1232
    1MOL     C1    1   1.151   1.163   1.157
    1MOL    BR1    2   1.179   0.971   1.174
    1MOL    BR2    3   1.151   1.253   1.330
    1MOL    BR3    4   1.275   1.245   1.032
    1MOL     H1    5   1.051   1.176   1.115
    2SOL     OW    6   0.230   0.628   0.113
    2SOL    HW1    7   0.137   0.626   0.150
    2SOL    HW2    8   0.231   0.589   0.021
    3SOL     OW    9   0.225   0.275   0.996
    3SOL    HW1   10   0.260   0.258   1.088
    3SOL    HW2   11   0.137   0.230   0.984
    4SOL     OW   12   0.019   0.368   0.647
    4SOL    HW1   13  -0.063   0.411   0.686
    4SOL    HW2   14  -0.009   0.295   0.584
    5SOL     OW   15   0.569   1.275   1.165
    5SOL    HW1   16   0.476   1.268   1.128
    5SOL    HW2   17   0.580   1.364   1.209
    6SOL     OW   18   1.555   1.511   0.703
    6SOL    HW1   19   1.498   1.495   0.784
    6SOL    HW2   20   1.496   1.521   0.623
    7SOL     OW   21   1.135   0.703   0.717
    7SOL    HW1   22   1.192   0.781   0.692
    7SOL    HW2   23   1.075   0.729   0.793
    8SOL     OW   24   1.755   0.607   0.231
    8SOL    HW1   25   1.743   0.594   0.132
    8SOL    HW2   26   1.725   0.526   0.280
    9SOL     OW   27   0.768   1.144   1.023
    9SOL    HW1   28   0.690   1.161   1.083
    9SOL    HW2   29   0.802   1.231   0.987
   10SOL     OW   30   0.850   0.798   1.823
   10SOL    HW1   31   0.846   0.874   1.888
   10SOL    HW2   32   0.872   0.834   1.732
   11SOL     OW   33   0.685   1.012   0.665
   11SOL    HW1   34   0.754   0.996   0.735
   11SOL    HW2   35   0.612   1.069   0.703
   12SOL     OW   36   0.686   1.161   1.803
   12SOL    HW1   37   0.746   1.240   1.817
   12SOL    HW2   38   0.600   1.192   1.762
   13SOL     OW   39   0.335   1.435   1.061
   13SOL    HW1   40   0.257   1.404   1.008
   13SOL    HW2   41   0.393   1.493   1.004
   14SOL     OW   42   1.460   1.505   1.339
   14SOL    HW1   43   1.484   1.599   1.365
   14SOL    HW2   44   1.444   1.451   1.421
   15SOL     OW   45   0.438   0.392   1.499
   15SOL    HW1   46   0.520   0.336   1.508
   15SOL    HW2   47   0.357   0.334   1.503
   16SOL     OW   48   1.603   0.447   0.737
   16SOL    HW1   49   1.529   0.493   0.687
   16SOL    HW2   50   1.654   0.515   0.790
   17SOL     OW   51   0.231   1.713   0.483
   17SOL    HW1   52   0.265   1.790   0.537
   17SOL    HW2   53   0.275   1.713   0.393
   18SOL     OW   54   1.127   1.341   1.690
   18SOL    HW1   55   1.174   1.341   1.778
   18SOL    HW2   56   1.079   1.254   1.679
   19SOL     OW   57   0.230   1.434   0.538
   19SOL    HW1   58   0.204   1.530   0.538
   19SOL    HW2   59   0.159   1.380   0.583
   20SOL     OW   60   0.240   1.091   0.886
   20SOL    HW1   61   0.254   1.007   0.938
   20SOL    HW2   62   0.185   1.155   0.941
   21SOL     OW   63   0.620   1.786   1.439
   21SOL    HW1   64   0.528   1.769   1.474
   21SOL    HW2   65   0.648   1.878   1.465
   22SOL     OW   66   0.606   0.964   0.123
   22SOL    HW1   67   0.613   1.048   0.069
   22SOL    HW2   68   0.652   0.977   0.211
   23SOL     OW   69   1.594   0.114   1.480
   23SOL    HW1   70   1.576   0.181   1.408
   23SOL    HW2   71   1.591   0.160   1.569
   24SOL     OW   72   0.122   0.643   0.563
   24SOL    HW1   73   0.077   0.555   0.580
   24SOL    HW2   74   0.121   0.697   0.647
   25SOL     OW   75   1.842   1.767   0.359
   25SOL    HW1   76   1.896   1.738   0.439
   25SOL    HW2   77   1.872   1.857   0.330
   26SOL     OW   78   0.027   1.596   0.117
   26SOL    HW1   79   0.008   1.500   0.138
   26SOL    HW2   80  -0.006   1.654   0.192
   27SOL     OW   81   1.689   0.922   0.612
   27SOL    HW1   82   1.784   0.893   0.620
   27SOL    HW2   83   1.681   0.987   0.537
   28SOL     OW   84   1.641   1.108   0.432
   28SOL    HW1   85   1.727   1.110   0.380
   28SOL    HW2   86   1.655   1.155   0.520
   29SOL     OW   87   0.113   0.737   1.597
   29SOL    HW1   88   0.201   0.724   1.642
   29SOL    HW2   89   0.100   0.834   1.575
   30SOL     OW   90   0.613   1.365   0.726
   30SOL    HW1   91   0.564   1.278   0.735
   30SOL    HW2   92   0.590   1.408   0.639
   31SOL     OW   93   0.809   0.004   0.502
   31SOL    HW1   94   0.849   0.095   0.493
   31SOL    HW2   95   0.709   0.012   0.508
   32SOL     OW   96   0.197   0.976   1.264
   32SOL    HW1   97   0.286   0.931   1.250
   32SOL    HW2   98   0.124   0.911   1.245
   33SOL     OW   99   1.525   0.999   0.190
   33SOL    HW1  100   1.462   0.923   0.203
   33SOL    HW2  101   1.573   1.017   0.276
   34SOL     OW  102   1.187   1.792   1.616
   34SOL    HW1  103   1.211   1.852   1.540
   34SOL    HW2  104   1.194   1.697   1.586
   35SOL     OW  105   0.317   0.251   1.801
   35SOL    HW1  106   0.388   0.322   1.807
   35SOL    HW2  107   0.229   0.290   1.829
   36SOL     OW  108   1.466   1.417   0.953
   36SOL    HW1  109   1.407   1.423   1.033
   36SOL    HW2  110   1.451   1.329   0.907
   37SOL     OW  111   1.667   1.714   0.572
   37SOL    HW1  112   1.626   1.691   0.484
   37SOL    HW2  113   1.649   1.640   0.637
   38SOL     OW  114   0.598   0.729   0.270
   38SOL    HW1  115   0.622   0.798   0.202
   38SOL    HW2  116   0.520   0.762   0.324
   39SOL     OW  117   1.281   0.345   0.944
   39SOL    HW1  118   1.195   0.295   0.931
   39SOL    HW2  119   1.343   0.291   1.000
   40SOL     OW  120   1.576   1.662   0.307
   40SOL    HW1  121   1.665   1.708   0.310
   40SOL    HW2  122   1.555   1.638   0.212
   41SOL     OW  123   0.807   0.605   1.465
   41SOL    HW1  124   0.760   0.602   1.554
   41SOL    HW2  125   0.756   0.550   1.399
   42SOL     OW  126   1.394   0.469   1.674
   42SOL    HW1  127   1.374   0.512   1.762
   42SOL    HW2  128   1.472   0.407   1.683
   43SOL     OW  129   0.973   0.890   1.572
   43SOL    HW1  130   1.019   0.806   1.543
   43SOL    HW2  131   0.917   0.924   1.497
   44SOL     OW  132   0.991   0.410   1.242
   44SOL    HW1  133   0.914   0.444   1.296
   44SOL    HW2  134   0.957   0.359   1.163
   45SOL     OW  135   1.041   0.701   0.429
   45SOL    HW1  136   1.067   0.697   0.525
   45SOL    HW2  137   0.956   0.650   0.415
   46SOL     OW  138   0.076   0.811   0.789
   46SOL    HW1  139   0.175   0.799   0.798
   46SOL    HW2  140   0.052   0.906   0.810
   47SOL     OW  141   0.130   1.821   1.571
   47SOL    HW1  142   0.120   1.806   1.670
   47SOL    HW2  143   0.044   1.857   1.535
   48SOL     OW  144   0.865   0.348   0.195
   48SOL    HW1  145   0.924   0.411   0.146
   48SOL    HW2  146   0.884   0.254   0.166
   49SOL     OW  147   1.719   0.585   1.831
   49SOL    HW1  148   1.693   0.674   1.795
   49SOL    HW2  149   1.717   0.517   1.758
   50SOL     OW  150   1.362   1.144   0.545
   50SOL    HW1  151   1.445   1.115   0.497
   50SOL    HW2  152   1.313   1.211   0.489
   51SOL     OW  153   0.550   0.196   0.885
   51SOL    HW1  154   0.545   0.191   0.985
   51SOL    HW2  155   0.552   0.292   0.856
   52SOL     OW  156   1.008   1.456   0.477
   52SOL    HW1  157   0.962   1.528   0.425
   52SOL    HW2  158   1.004   1.476   0.575
   53SOL     OW  159   0.351   1.801   0.853
   53SOL    HW1  160   0.401   1.715   0.859
   53SOL    HW2  161   0.416   1.878   0.850
   54SOL     OW  162   1.795   1.066   0.873
   54SOL    HW1  163   1.733   1.051   0.797
   54SOL    HW2  164   1.743   1.077   0.958
   55SOL     OW  165   1.227   1.550   1.506
   55SOL    HW1  166   1.233   1.473   1.570
   55SOL    HW2  167   1.175   1.524   1.426
   56SOL     OW  168   0.321   0.943   0.242
   56SOL    HW1  169   0.403   0.982   0.200
   56SOL    HW2  170   0.294   0.861   0.193
   57SOL     OW  171   1.458   0.735   0.728
   57SOL    HW1  172   1.453   0.670   0.803
   57SOL    HW2  173   1.538   0.794   0.741
   58SOL     OW  174   0.461   1.266   1.727
   58SOL    HW1  175   0.411   1.267   1.641
   58SOL    HW2  176   0.398   1.248   1.803
   59SOL     OW  177   1.111   1.776   0.237
   59SOL    HW1  178   1.051   1.714   0.287
   59SOL    HW2  179   1.142   1.732   0.152
   60SOL     OW  180   0.202   0.285   1.498
   60SOL    HW1  181   0.122   0.345   1.485
   60SOL    HW2  182   0.192   0.236   1.584
   61SOL     OW  183   1.632   1.377   0.081
   61SOL    HW1  184   1.600   1.471   0.071
   61SOL    HW2  185   1.556   1.314   0.069
   62SOL     OW  186   0.464   1.743   0.323
   62SOL    HW1  187   0.497   1.782   0.409
   62SOL    HW2  188   0.540   1.736   0.258
   63SOL     OW  189   1.400   0.107   0.426
   63SOL    HW1  190   1.376   0.070   0.336
   63SOL    HW2  191   1.499   0.123   0.430
   64SOL     OW  192   0.249   1.785   1.241
   64SOL    HW1  193   0.306   1.720   1.291
   64SOL    HW2  194   0.233   1.752   1.148
   65SOL     OW  195   0.940   1.698   0.904
   65SOL    HW1  196   1.020   1.641   0.925
   65SOL    HW2  197   0.891   1.658   0.827
   66SOL     OW  198   0.382   0.700   0.480
   66SOL    HW1  199   0.427   0.610   0.477
   66SOL    HW2  200   0.288   0.689   0.513
   67SOL     OW  201   1.547   0.222   1.729
   67SOL    HW1  202   1.542   0.259   1.821
   67SOL    HW2  203   1.475   0.153   1.717
   68SOL     OW  204   0.614   0.122   0.117
   68SOL    HW1  205   0.712   0.100   0.124
   68SOL    HW2  206   0.583   0.105   0.024
   69SOL     OW  207   0.781   0.264   1.749
   69SOL    HW1  208   0.848   0.203   1.792
   69SOL    HW2  209   0.708   0.283   1.814
   70SOL     OW  210   0.888   1.514   1.195
   70SOL    HW1  211   0.865   1.489   1.101
   70SOL    HW2  212   0.949   1.445   1.234
   71SOL     OW  213   1.351   0.590   1.433
   71SOL    HW1  214   1.379   0.547   1.518
   71SOL    HW2  215   1.376   0.686   1.434
   72SOL     OW  216   0.803   1.402   0.924
   72SOL    HW1  217   0.893   1.416   0.882
   72SOL    HW2  218   0.732   1.404   0.853
   73SOL     OW  219   0.922   0.503   0.899
   73SOL    HW1  220   0.897   0.494   0.803
   73SOL    HW2  221   0.970   0.421   0.930
   74SOL     OW  222   0.539   0.064   0.512
   74SOL    HW1  223   0.458   0.065   0.570
   74SOL    HW2  224   0.542   0.147   0.457
   75SOL     OW  225   1.434   1.188   0.041
   75SOL    HW1  226   1.466   1.112   0.098
   75SOL    HW2  227   1.342   1.215   0.071
   76SOL     OW  228   0.297   0.035   0.171
   76SOL    HW1  229   0.346   0.119   0.150
   76SOL    HW2  230   0.359  -0.030   0.216
   77SOL     OW  231   0.935   0.236   0.480
   77SOL    HW1  232   0.887   0.277   0.402
   77SOL    HW2  233   1.034   0.234   0.461
   78SOL     OW  234   1.076   0.683   1.464
   78SOL    HW1  235   0.996   0.622   1.467
   78SOL    HW2  236   1.157   0.630   1.440
   79SOL     OW  237   1.227   1.570   0.793
   79SOL    HW1  238   1.248   1.644   0.728
   79SOL    HW2  239   1.295   1.570   0.866
   80SOL     OW  240   0.459   1.152   0.741
   80SOL    HW1  241   0.388   1.125   0.806
   80SOL    HW2  242   0.433   1.124   0.648
   81SOL     OW  243   1.271   1.797   0.591
   81SOL    HW1  244   1.315   1.861   0.527
   81SOL    HW2  245   1.221   1.849   0.661
   82SOL     OW  246   1.032   0.549   0.016
   82SOL    HW1  247   0.991   0.631  -0.023
   82SOL    HW2  248   1.096   0.575   0.089
   83SOL     OW  249   0.078   0.556   1.386
   83SOL    HW1  250   0.170   0.555   1.345
   83SOL    HW2  251   0.072   0.630   1.453
   84SOL     OW  252   0.561   0.222   1.147
   84SOL    HW1  253   0.599   0.138   1.184
   84SOL    HW2  254   0.473   0.241   1.191
   85SOL     OW  255   0.866   0.454   0.642
   85SOL    HW1  256   0.834   0.526   0.580
   85SOL    HW2  257   0.890   0.373   0.589
   86SOL     OW  258   1.017   0.039   0.753
   86SOL    HW1  259   0.945   0.044   0.684
   86SOL    HW2  260   0.993  -0.030   0.822
   87SOL     OW  261   1.429   1.173   0.867
   87SOL    HW1  262   1.374   1.089   0.860
   87SOL    HW2  263   1.455   1.202   0.775
   88SOL     OW  264   1.466   0.590   0.992
   88SOL    HW1  265   1.436   0.495   0.999
   88SOL    HW2  266   1.539   0.606   1.058
   89SOL     OW  267   1.857   0.833   0.377
   89SOL    HW1  268   1.899   0.769   0.441
   89SOL    HW2  269   1.819   0.782   0.299
   90SOL     OW  270   0.488   1.385   0.174
   90SOL    HW1  271   0.401   1.370   0.221
   90SOL    HW2  272   0.471   1.411   0.079
   91SOL     OW  273   1.664   1.280   0.657
   91SOL    HW1  274   1.763   1.288   0.671
   91SOL    HW2  275   1.619   1.364   0.688
   92SOL     OW  276   1.390   0.575   0.078
   92SOL    HW1  277   1.336   0.554   0.159
   92SOL    HW2  278   1.481   0.534   0.087
   93SOL     OW  279   0.527   0.256   0.328
   93SOL    HW1  280   0.554   0.197   0.253
   93SOL    HW2  281   0.527   0.351   0.297
   94SOL     OW  282   1.754   1.223   1.588
   94SOL    HW1  283   1.845   1.184   1.575
   94SOL    HW2  284   1.762   1.319   1.612
   95SOL     OW  285   1.592   1.629   1.625
   95SOL    HW1  286   1.619   1.663   1.535
   95SOL    HW2  287   1.671   1.591   1.671
   96SOL     OW  288   1.638   1.099   1.079
   96SOL    HW1  289   1.643   1.180   1.138
   96SOL    HW2  290   1.552   1.101   1.028
   97SOL     OW  291   0.915   0.089   1.402
   97SOL    HW1  292   0.940   0.069   1.307
   97SOL    HW2  293   0.987   0.145   1.444
   98SOL     OW  294   0.980   1.116   1.719
   98SOL    HW1  295   0.881   1.122   1.729
   98SOL    HW2  296   1.003   1.036   1.663
   99SOL     OW  297   0.705   1.050   0.368
   99SOL    HW1  298   0.691   1.057   0.467
   99SOL    HW2  299   0.789   0.999   0.350
  100SOL     OW  300   0.410   0.813   1.251
  100SOL    HW1  301   0.496   0.825   1.301
  100SOL    HW2  302   0.368   0.726   1.278
  101SOL     OW  303   1.274   0.386   1.262
  101SOL    HW1  304   1.295   0.460   1.326
  101SOL    HW2  305   1.185   0.403   1.219
  102SOL     OW  306   0.064   1.564   1.331
  102SOL    HW1  307   0.018   1.646   1.297
  102SOL    HW2  308   0.162   1.583   1.340
  103SOL     OW  309   0.367   1.100   0.501
  103SOL    HW1  310   0.360   1.183   0.445
  103SOL    HW2  311   0.371   1.020   0.441
  104SOL     OW  312   0.566   0.537   0.865
  104SOL    HW1  313   0.578   0.603   0.791
  104SOL    HW2  314   0.612   0.571   0.948
  105SOL     OW  315   1.252   1.348   0.388
  105SOL    HW1  316   1.302   1.425   0.428
  105SOL    HW2  317   1.157   1.350   0.420
  106SOL     OW  318   1.272   1.445   1.142
  106SOL    HW1  319   1.319   1.458   1.229
  106SOL    HW2  320   1.206   1.371   1.151
  107SOL     OW  321   1.582   0.639   0.472
  107SOL    HW1  322   1.551   0.700   0.545
  107SOL    HW2  323   1.632   0.691   0.403
  108SOL     OW  324   0.354   1.510   1.329
  108SOL    HW1  325   0.333   1.466   1.242
  108SOL    HW2  326   0.451   1.536   1.332
  109SOL     OW  327   0.402   0.751   1.598
  109SOL    HW1  328   0.470   0.806   1.551
  109SOL    HW2  329   0.442   0.663   1.625
  110SOL     OW  330   1.587   0.779   1.670
  110SOL    HW1  331   1.495   0.817   1.665
  110SOL    HW2  332   1.647   0.826   1.605
  111SOL     OW  333   1.013   0.105   1.770
  111SOL    HW1  334   1.019   0.190   1.718
  111SOL    HW2  335   1.045   0.029   1.713
  112SOL     OW  336   0.504   0.050   1.740
  112SOL    HW1  337   0.462  -0.007   1.670
  112SOL    HW2  338   0.438   0.119   1.772
  113SOL     OW  339   0.573   0.870   1.029
  113SOL    HW1  340   0.617   0.959   1.020
  113SOL    HW2  341   0.510   0.870   1.106
  114SOL     OW  342   1.360   0.862   1.045
  114SOL    HW1  343   1.285   0.862   0.979
  114SOL    HW2  344   1.397   0.770   1.054
  115SOL     OW  345   1.209   0.525   0.275
  115SOL    HW1  346   1.222   0.441   0.329
  115SOL    HW2  347   1.180   0.599   0.335
  116SOL     OW  348   0.307   0.213   1.231
  116SOL    HW1  349   0.284   0.250   1.321
  116SOL    HW2  350   0.277   0.118   1.225
  117SOL     OW  351   0.037   1.310   1.282
  117SOL    HW1  352   0.090   1.261   1.350
  117SOL    HW2  353   0.059   1.408   1.287
  118SOL     OW  354   0.732   0.634   1.064
  118SOL    HW1  355   0.791   0.608   0.988
  118SOL    HW2  356   0.704   0.730   1.053
  119SOL     OW  357   1.728   0.935   1.854
  119SOL    HW1  358   1.682   0.928   1.765
  119SOL    HW2  359   1.666   0.979   1.920
  120SOL     OW  360   0.307   0.063   0.618
  120SOL    HW1  361   0.296   0.157   0.651
  120SOL    HW2  362   0.302   0.000   0.695
  121SOL     OW  363   1.622   0.367   0.374
  121SOL    HW1  364   1.624   0.291   0.438
  121SOL    HW2  365   1.574   0.444   0.414
  122SOL     OW  366   1.023   0.766   0.966
  122SOL    HW1  367   1.038   0.787   1.062
  122SOL    HW2  368   0.993   0.671   0.957
  123SOL     OW  369   0.980   1.573   1.700
  123SOL    HW1  370   0.960   1.617   1.612
  123SOL    HW2  371   1.019   1.482   1.684
  124SOL     OW  372   1.859   1.518   1.605
  124SOL    HW1  373   1.873   1.545   1.510
  124SOL    HW2  374   1.942   1.540   1.658
  125SOL     OW  375   0.350   0.898   1.804
  125SOL    HW1  376   0.426   0.942   1.852
  125SOL    HW2  377   0.385   0.851   1.722
  126SOL     OW  378   1.540   0.274   0.125
  126SOL    HW1  379   1.479   0.199   0.148
  126SOL    HW2  380   1.562   0.326   0.208
  127SOL     OW  381   1.303   0.838   0.042
  127SOL    HW1  382   1.337   0.745   0.057
  127SOL    HW2  383   1.321   0.865  -0.053
  128SOL     OW  384   1.068   1.333   0.849
  128SOL    HW1  385   1.075   1.249   0.794
  128SOL    HW2  386   1.130   1.402   0.813
  129SOL     OW  387   0.319   0.810   0.949
  129SOL    HW1  388   0.412   0.846   0.954
  129SOL    HW2  389   0.313   0.725   1.001
  130SOL     OW  390   0.339   0.509   1.006
  130SOL    HW1  391   0.287   0.426   0.989
  130SOL    HW2  392   0.416   0.514   0.942
  131SOL     OW  393   1.138   0.380   1.678
  131SOL    HW1  394   1.093   0.443   1.742
  131SOL    HW2  395   1.231   0.411   1.661
  132SOL     OW  396   1.160   0.207   1.477
  132SOL    HW1  397   1.160   0.271   1.554
  132SOL    HW2  398   1.188   0.255   1.394
  133SOL     OW  399   0.008   1.326   0.200
  133SOL    HW1  400  -0.085   1.347   0.169
  133SOL    HW2  401   0.018   1.227   0.213
  134SOL     OW  402   0.088   1.801   0.927
  134SOL    HW1  403   0.046   1.715   0.900
  134SOL    HW2  404   0.182   1.804   0.893
  135SOL     OW  405   0.504   1.568   0.910
  135SOL    HW1  406   0.570   1.642   0.919
  135SOL    HW2  407   0.548   1.489   0.868
  136SOL     OW  408   1.002   0.796   1.238
  136SOL    HW1  409   1.043   0.764   1.324
  136SOL    HW2  410   0.906   0.769   1.235
  137SOL     OW  411   0.040   0.544   1.114
  137SOL    HW1  412   0.125   0.511   1.073
  137SOL    HW2  413   0.053   0.559   1.212
  138SOL     OW  414   0.189   0.520   1.722
  138SOL    HW1  415   0.248   0.480   1.652
  138SOL    HW2  416   0.131   0.591   1.681
  139SOL     OW  417   1.369   0.950   1.660
  139SOL    HW1  418   1.408   1.039   1.680
  139SOL    HW2  419   1.379   0.930   1.563
  140SOL     OW  420   0.815   0.572   0.325
  140SOL    HW1  421   0.822   0.483   0.279
  140SOL    HW2  422   0.721   0.606   0.317
  141SOL     OW  423   1.657   0.604   1.206
  141SOL    HW1  424   1.619   0.535   1.268
  141SOL    HW2  425   1.739   0.568   1.162
  142SOL     OW  426   0.252   1.564   1.744
  142SOL    HW1  427   0.222   1.621   1.820
  142SOL    HW2  428   0.245   1.467   1.770
  143SOL     OW  429   0.671   0.464   1.269
  143SOL    HW1  430   0.637   0.375   1.239
  143SOL    HW2  431   0.697   0.518   1.189
  144SOL     OW  432   0.930   1.678   1.465
  144SOL    HW1  433   0.906   1.660   1.370
  144SOL    HW2  434   0.960   1.772   1.475
  145SOL     OW  435   0.473   0.500   0.191
  145SOL    HW1  436   0.534   0.580   0.195
  145SOL    HW2  437   0.378   0.531   0.198
  146SOL     OW  438   0.159   1.137   1.466
  146SOL    HW1  439   0.181   1.076   1.542
  146SOL    HW2  440   0.169   1.088   1.380
  147SOL     OW  441   1.302   0.855   0.309
  147SOL    HW1  442   1.216   0.824   0.351
  147SOL    HW2  443   1.298   0.841   0.210
  148SOL     OW  444   1.759   1.747   1.154
  148SOL    HW1  445   1.820   1.777   1.081
  148SOL    HW2  446   1.721   1.658   1.132
  149SOL     OW  447   1.252   1.731   1.128
  149SOL    HW1  448   1.336   1.736   1.074
  149SOL    HW2  449   1.229   1.635   1.146
  150SOL     OW  450   0.083   1.258   1.022
  150SOL    HW1  451   0.078   1.257   1.122
  150SOL    HW2  452   0.000   1.217   0.984
  151SOL     OW  453   0.688   1.662   1.716
  151SOL    HW1  454   0.632   1.743   1.725
  151SOL    HW2  455   0.740   1.666   1.630
  152SOL     OW  456   0.903   0.086   0.133
  152SOL    HW1  457   0.954   0.087   0.047
  152SOL    HW2  458   0.959   0.044   0.204
  153SOL     OW  459   1.726   0.135   0.523
  153SOL    HW1  460   1.799   0.118   0.456
  153SOL    HW2  461   1.695   0.048   0.561
  154SOL     OW  462   1.388   1.573   0.477
  154SOL    HW1  463   1.455   1.585   0.403
  154SOL    HW2  464   1.348   1.662   0.500
  155SOL     OW  465   0.130   1.794   1.851
  155SOL    HW1  466   0.089   1.720   1.904
  155SOL    HW2  467   0.194   1.845   1.909
  156SOL     OW  468   1.280   0.927   0.672
  156SOL    HW1  469   1.340   0.846   0.674
  156SOL    HW2  470   1.320   0.996   0.612
  157SOL     OW  471   0.830   1.273   1.422
  157SOL    HW1  472   0.825   1.306   1.517
  157SOL    HW2  473   0.744   1.292   1.376
  158SOL     OW  474   0.672   1.616   0.154
  158SOL    HW1  475   0.681   1.626   0.055
  158SOL    HW2  476   0.632   1.527   0.175
  159SOL     OW  477   1.650   1.720   1.394
  159SOL    HW1  478   1.703   1.730   1.310
  159SOL    HW2  479   1.623   1.810   1.428
  160SOL     OW  480   1.841   0.175   0.963
  160SOL    HW1  481   1.880   0.090   0.927
  160SOL    HW2  482   1.743   0.177   0.944
  161SOL     OW  483   0.263   0.326   0.720
  161SOL    HW1  484   0.184   0.377   0.686
  161SOL    HW2  485   0.254   0.311   0.818
  162SOL     OW  486   1.194   1.612   0.031
  162SOL    HW1  487   1.200   1.519   0.068
  162SOL    HW2  488   1.135   1.612  -0.049
  163SOL     OW  489   0.822   1.002   1.372
  163SOL    HW1  490   0.862   1.001   1.280
  163SOL    HW2  491   0.832   1.094   1.412
  164SOL     OW  492   0.916   0.910   0.291
  164SOL    HW1  493   0.979   0.948   0.223
  164SOL    HW2  494   0.956   0.827   0.330
  165SOL     OW  495   1.504   1.607   0.044
  165SOL    HW1  496   1.412   1.644   0.051
  165SOL    HW2  497   1.542   1.627  -0.046
  166SOL     OW  498   0.372   1.288   1.490
  166SOL    HW1  499   0.359   1.381   1.456
  166SOL    HW2  500   0.288   1.236   1.477
  167SOL     OW  501   1.614   1.292   1.289
  167SOL    HW1  502   1.674   1.295   1.369
  167SOL    HW2  503   1.539   1.356   1.302
  168SOL     OW  504   1.039   1.098   0.696
  168SOL    HW1  505   0.969   1.051   0.750
  168SOL    HW2  506   1.098   1.030   0.653
  169SOL     OW  507   1.014   0.236   0.971
  169SOL    HW1  508   1.006   0.200   0.878
  169SOL    HW2  509   1.012   0.160   1.036
  170SOL     OW  510   0.590   1.487   0.491
  170SOL    HW1  511   0.632   1.429   0.421
  170SOL    HW2  512   0.546   1.566   0.447
  171SOL     OW  513   1.709   0.385   1.381
  171SOL    HW1  514   1.782   0.454   1.385
  171SOL    HW2  515   1.737   0.310   1.322
  172SOL     OW  516   0.255   1.348   0.290
  172SOL    HW1  517   0.159   1.349   0.263
  172SOL    HW2  518   0.267   1.401   0.374
  173SOL     OW  519   0.105   1.013   1.726
  173SOL    HW1  520   0.028   0.980   1.780
  173SOL    HW2  521   0.190   0.983   1.768
  174SOL     OW  522   0.672   0.203   1.489
  174SOL    HW1  523   0.762   0.187   1.449
  174SOL    HW2  524   0.680   0.208   1.588
  175SOL     OW  525   0.075   0.345   0.033
  175SOL    HW1  526  -0.017   0.317   0.004
  175SOL    HW2  527   0.106   0.422  -0.023
  176SOL     OW  528   1.440   0.856   1.398
  176SOL    HW1  529   1.383   0.908   1.335
  176SOL    HW2  530   1.536   0.868   1.374
  177SOL     OW  531   0.072   0.166   0.318
  177SOL    HW1  532   0.055   0.249   0.264
  177SOL    HW2  533   0.162   0.129   0.296
  178SOL     OW  534   1.183   1.335   0.119
  178SOL    HW1  535   1.084   1.324   0.121
  178SOL    HW2  536   1.217   1.350   0.212
  179SOL     OW  537   0.613   0.842   1.431
  179SOL    HW1  538   0.669   0.923   1.414
  179SOL    HW2  539   0.672   0.762   1.434
  180SOL     OW  540   1.493   1.767   0.959
  180SOL    HW1  541   1.526   1.831   0.890
  180SOL    HW2  542   1.559   1.761   1.034
  181SOL     OW  543   0.716   0.565   1.708
  181SOL    HW1  544   0.735   0.630   1.782
  181SOL    HW2  545   0.776   0.485   1.717
  182SOL     OW  546   1.450   1.220   1.633
  182SOL    HW1  547   1.441   1.210   1.732
  182SOL    HW2  548   1.546   1.213   1.607
  183SOL     OW  549   0.390   1.741   1.560
  183SOL    HW1  550   0.299   1.782   1.558
  183SOL    HW2  551   0.383   1.647   1.592
  184SOL     OW  552   1.674   0.883   1.254
  184SOL    HW1  553   1.647   0.794   1.217
  184SOL    HW2  554   1.675   0.951   1.181
  185SOL     OW  555   1.225   0.325   0.449
  185SOL    HW1  556   1.290   0.251   0.438
  185SOL    HW2  557   1.245   0.375   0.533
  186SOL     OW  558   0.594   0.745   0.652
  186SOL    HW1  559   0.644   0.830   0.633
  186SOL    HW2  560   0.506   0.747   0.604
  187SOL     OW  561   1.777   0.342   1.642
  187SOL    HW1  562   1.760   0.373   1.548
  187SOL    HW2  563   1.693   0.305   1.680
  188SOL     OW  564   1.730   0.934   1.517
  188SOL    HW1  565   1.768   1.025   1.532
  188SOL    HW2  566   1.722   0.917   1.418
  189SOL     OW  567   0.859   1.374   0.016
  189SOL    HW1  568   0.813   1.389   0.104
  189SOL    HW2  569   0.903   1.459  -0.014
  190SOL     OW  570   0.661   1.790   0.953
  190SOL    HW1  571   0.615   1.878   0.940
  190SOL    HW2  572   0.760   1.802   0.946
  191SOL     OW  573   0.859   0.956   0.861
  191SOL    HW1  574   0.913   0.887   0.909
  191SOL    HW2  575   0.827   1.025   0.927
  192SOL     OW  576   1.083   0.984   0.087
  192SOL    HW1  577   1.060   1.037   0.005
  192SOL    HW2  578   1.164   0.928   0.068
  193SOL     OW  579   1.861   1.569   0.851
  193SOL    HW1  580   1.790   1.557   0.781
  193SOL    HW2  581   1.862   1.490   0.911
  194SOL     OW  582   0.221   1.314   1.844
  194SOL    HW1  583   0.156   1.241   1.823
  194SOL    HW2  584   0.225   1.328   1.942
  195SOL     OW  585   0.079   1.240   0.653
  195SOL    HW1  586   0.078   1.193   0.741
  195SOL    HW2  587   0.161   1.212   0.602
  196SOL     OW  588   0.672   1.391   1.624
  196SOL    HW1  589   0.594   1.341   1.662
  196SOL    HW2  590   0.669   1.486   1.655
  197SOL     OW  591   1.824   0.192   1.227
  197SOL    HW1  592   1.820   0.102   1.271
  197SOL    HW2  593   1.827   0.181   1.128
  198SOL     OW  594   0.428   0.424   0.520
  198SOL    HW1  595   0.458   0.352   0.458
  198SOL    HW2  596   0.389   0.384   0.603
  199SOL     OW  597   1.705   1.487   1.104
  199SOL    HW1  598   1.612   1.462   1.077
  199SOL    HW2  599   1.731   1.437   1.186
  200SOL     OW  600   0.317   0.547   1.280
  200SOL    HW1  601   0.355   0.488   1.352
  200SOL    HW2  602   0.357   0.521   1.192
  201SOL     OW  603   0.812   1.586   0.687
  201SOL    HW1  604   0.844   1.596   0.593
  201SOL    HW2  605   0.733   1.524   0.689
  202SOL     OW  606   1.424   0.214   1.112
  202SOL    HW1  607   1.476   0.149   1.167
  202SOL    HW2  608   1.375   0.277   1.173
  203SOL     OW  609   1.001   0.034   1.154
  203SOL    HW1  610   0.938  -0.038   1.123
  203SOL    HW2  611   1.094  -0.002   1.154
  204SOL     OW  612   0.770   1.330   0.301
  204SOL    HW1  613   0.724   1.243   0.318
  204SOL    HW2  614   0.861   1.327   0.342
  205SOL     OW  615   0.618   1.567   1.284
  205SOL    HW1  616   0.613   1.649   1.341
  205SOL    HW2  617   0.707   1.564   1.239
  206SOL     OW  618   1.352   0.052   0.168
  206SOL    HW1  619   1.387   0.011   0.084
  206SOL    HW2  620   1.262   0.014   0.188
  207SOL     OW  621   1.300   0.453   0.691
  207SOL    HW1  622   1.241   0.533   0.695
  207SOL    HW2  623   1.315   0.418   0.784
  208SOL     OW  624   1.593   0.221   0.882
  208SOL    HW1  625   1.509   0.220   0.936
  208SOL    HW2  626   1.595   0.304   0.826
  209SOL     OW  627   0.039   1.077   0.300
  209SOL    HW1  628   0.138   1.066   0.291
  209SOL    HW2  629  -0.001   0.991   0.332
  210SOL     OW  630   0.875   1.646   0.337
  210SOL    HW1  631   0.798   1.611   0.283
  210SOL    HW2  632   0.843   1.717   0.399
  211SOL     OW  633   0.230   0.628   1.975
  211SOL    HW1  634   0.137   0.626   2.012
  211SOL    HW2  635   0.231   0.589   1.883
  212SOL     OW  636   1.755   0.607   2.093
  212SOL    HW1  637   1.743   0.594   1.994
  212SOL    HW2  638   1.725   0.526   2.142
  213SOL     OW  639   0.231   1.713   2.345
  213SOL    HW1  640   0.265   1.790   2.399
  213SOL    HW2  641   0.275   1.713   2.255
  214SOL     OW  642   0.230   1.434   2.400
  214SOL    HW1  643   0.204   1.530   2.400
  214SOL    HW2  644   0.159   1.380   2.445
  215SOL     OW  645   0.606   0.964   1.985
  215SOL    HW1  646   0.613   1.048   1.931
  215SOL    HW2  647   0.652   0.977   2.073
  216SOL     OW  648   1.842   1.767   2.221
  216SOL    HW1  649   1.896   1.738   2.301
  216SOL    HW2  650   1.872   1.857   2.192
  217SOL     OW  651   0.027   1.596   1.979
  217SOL    HW1  652   0.008   1.500   2.000
  217SOL    HW2  653  -0.006   1.654   2.054
  218SOL     OW  654   1.689   0.922   2.474
  218SOL    HW1  655   1.784   0.893   2.482
  218SOL    HW2  656   1.681   0.987   2.399
  219SOL     OW  657   1.641   1.108   2.294
  219SOL    HW1  658   1.727   1.110   2.242
  219SOL    HW2  659   1.655   1.155   2.382
  220SOL     OW  660   1.525   0.999   2.052
  220SOL    HW1  661   1.462   0.923   2.065
  220SOL    HW2  662   1.573   1.017   2.138
  221SOL     OW  663   0.598   0.729   2.132
  221SOL    HW1  664   0.622   0.798   2.064
  221SOL    HW2  665   0.520   0.762   2.186
  222SOL     OW  666   0.865   0.348   2.057
  222SOL    HW1  667   0.924   0.411   2.008
  222SOL    HW2  668   0.884   0.254   2.028
  223SOL     OW  669   0.321   0.943   2.104
  223SOL    HW1  670   0.403   0.982   2.062
  223SOL    HW2  671   0.294   0.861   2.055
  224SOL     OW  672   1.111   1.776   2.099
  224SOL    HW1  673   1.051   1.714   2.149
  224SOL    HW2  674   1.142   1.732   2.014
  225SOL     OW  675   1.632   1.377   1.943
  225SOL    HW1  676   1.600   1.471   1.933
  225SOL    HW2  677   1.556   1.314   1.931
  226SOL     OW  678   0.464   1.743   2.185
  226SOL    HW1  679   0.497   1.782   2.271
  226SOL    HW2  680   0.540   1.736   2.120
  227SOL     OW  681   0.614   0.122   1.979
  227SOL    HW1  682   0.712   0.100   1.986
  227SOL    HW2  683   0.583   0.105   1.886
  228SOL     OW  684   1.434   1.188   1.903
  228SOL    HW1  685   1.466   1.112   1.960
  228SOL    HW2  686   1.342   1.215   1.933
  229SOL     OW  687   0.297   0.035   2.033
  229SOL    HW1  688   0.346   0.119   2.012
  229SOL    HW2  689   0.359  -0.030   2.078
  230SOL     OW  690   1.032   0.549   1.878
  230SOL    HW1  691   0.991   0.631   1.839
  230SOL    HW2  692   1.096   0.575   1.951
  231SOL     OW  693   1.857   0.833   2.239
  231SOL    HW1  694   1.899   0.769   2.303
  231SOL    HW2  695   1.819   0.782   2.161
  232SOL     OW  696   0.488   1.385   2.036
  232SOL    HW1  697   0.401   1.370   2.083
  232SOL    HW2  698   0.471   1.411   1.941
  233SOL     OW  699   1.390   0.575   1.940
  233SOL    HW1  700   1.336   0.554   2.021
  233SOL    HW2  701   1.481   0.534   1.949
  234SOL     OW  702   0.527   0.256   2.190
  234SOL    HW1  703   0.554   0.197   2.115
  234SOL    HW2  704   0.527   0.351   2.159
  235SOL     OW  705   0.367   1.100   2.363
  235SOL    HW1  706   0.360   1.183   2.307
  235SOL    HW2  707   0.371   1.020   2.303
  236SOL     OW  708   1.252   1.348   2.250
  236SOL    HW1  709   1.302   1.425   2.290
  236SOL    HW2  710   1.157   1.350   2.282
  237SOL     OW  711   1.582   0.639   2.334
  237SOL    HW1  712   1.551   0.700   2.407
  237SOL    HW2  713   1.632   0.691   2.265
  238SOL     OW  714   1.209   0.525   2.137
  238SOL    HW1  715   1.222   0.441   2.191
  238SOL    HW2  716   1.180   0.599   2.197
  239SOL     OW  717   1.622   0.367   2.236
  239SOL    HW1  718   1.624   0.291   2.300
  239SOL    HW2  719   1.574   0.444   2.276
  240SOL     OW  720   1.540   0.274   1.987
  240SOL    HW1  721   1.479   0.199   2.010
  240SOL    HW2  722   1.562   0.326   2.070
  241SOL     OW  723   1.303   0.838   1.904
  241SOL    HW1  724   1.337   0.745   1.919
  241SOL    HW2  725   1.321   0.865   1.809
  242SOL     OW  726   0.008   1.326   2.062
  242SOL    HW1  727  -0.085   1.347   2.031
  242SOL    HW2  728   0.018   1.227   2.075
  243SOL     OW  729   0.815   0.572   2.187
  243SOL    HW1  730   0.822   0.483   2.141
  243SOL    HW2  731   0.721   0.606   2.179
  244SOL     OW  732   0.473   0.500   2.053
  244SOL    HW1  733   0.534   0.580   2.057
  244SOL    HW2  734   0.378   0.531   2.060
  245SOL     OW  735   1.726   0.135   2.385
  245SOL    HW1  736   1.799   0.118   2.318
  245SOL    HW2  737   1.695   0.048   2.423
  246SOL     OW  738   0.672   1.616   2.016
  246SOL    HW1  739   0.681   1.626   1.917
  246SOL    HW2  740   0.632   1.527   2.037
  247SOL     OW  741   0.263   0.326   2.582
  247SOL    HW1  742   0.184   0.377   2.548
  247SOL    HW2  743   0.254   0.311   2.680
  248SOL     OW  744   1.194   1.612   1.893
  248SOL    HW1  745   1.200   1.519   1.930
  248SOL    HW2  746   1.135   1.612   1.813
  249SOL     OW  747   0.916   0.910   2.153
  249SOL    HW1  748   0.979   0.948   2.085
  249SOL    HW2  749   0.956   0.827   2.192
  250SOL     OW  750   1.504   1.607   1.906
  250SOL    HW1  751   1.412   1.644   1.913
  250SOL    HW2  752   1.542   1.627   1.816
  251SOL     OW  753   0.255   1.348   2.152
  251SOL    HW1  754   0.159   1.349   2.125
  251SOL    HW2  755   0.267   1.401   2.236
  252SOL     OW  756   0.075   0.345   1.895
  252SOL    HW1  757  -0.017   0.317   1.866
  252SOL    HW2  758   0.106   0.422   1.839
  253SOL     OW  759   0.072   0.166   2.180
  253SOL    HW1  760   0.055   0.249   2.126
  253SOL    HW2  761   0.162   0.129   2.158
  254SOL     OW  762   1.183   1.335   1.981
  254SOL    HW1  763   1.084   1.324   1.983
  254SOL    HW2  764   1.217   1.350   2.074
  255SOL     OW  765   1.225   0.325   2.311
  255SOL    HW1  766   1.290   0.251   2.300
  255SOL    HW2  767   1.245   0.375   2.395
  256SOL     OW  768   0.859   1.374   1.878
  256SOL    HW1  769   0.813   1.389   1.966
  256SOL    HW2  770   0.903   1.459   1.848
  257SOL     OW  771   1.083   0.984   1.949
  257SOL    HW1  772   1.060   1.037   1.867
  257SOL    HW2  773   1.164   0.928   1.930
  258SOL     OW  774   1.352   0.052   2.030
  258SOL    HW1  775   1.387   0.011   1.946
  258SOL    HW2  776   1.262   0.014   2.050
  259SOL     OW  777   0.039   1.077   2.162
  259SOL    HW1  778   0.138   1.066   2.153
  259SOL    HW2  779  -0.001   0.991   2.194
  260SOL     OW  780   0.875   1.646   2.199
  260SOL    HW1  781   0.798   1.611   2.145
  260SOL    HW2  782   0.843   1.717   2.261
  261SOL     OW  783   0.225   2.137   0.996
  261SOL    HW1  784   0.260   2.120   1.088
  261SOL    HW2  785   0.137   2.092   0.984
  262SOL     OW  786   0.019   2.230   0.647
  262SOL    HW1  787  -0.063   2.273   0.686
  262SOL    HW2  788  -0.009   2.157   0.584
  263SOL     OW  789   0.438   2.254   1.499
  263SOL    HW1  790   0.520   2.198   1.508
  263SOL    HW2  791   0.357   2.196   1.503
  264SOL     OW  792   1.603   2.309   0.737
  264SOL    HW1  793   1.529   2.355   0.687
  264SOL    HW2  794   1.654   2.377   0.790
  265SOL     OW  795   1.594   1.976   1.480
  265SOL    HW1  796   1.576   2.043   1.408
  265SOL    HW2  797   1.591   2.022   1.569
  266SOL     OW  798   0.122   2.505   0.563
  266SOL    HW1  799   0.077   2.417   0.580
  266SOL    HW2  800   0.121   2.559   0.647
  267SOL     OW  801   0.809   1.866   0.502
  267SOL    HW1  802   0.849   1.957   0.493
  267SOL    HW2  803   0.709   1.874   0.508
  268SOL     OW  804   0.317   2.113   1.801
  268SOL    HW1  805   0.388   2.184   1.807
  268SOL    HW2  806   0.229   2.152   1.829
  269SOL     OW  807   1.281   2.207   0.944
  269SOL    HW1  808   1.195   2.157   0.931
  269SOL    HW2  809   1.343   2.153   1.000
  270SOL     OW  810   1.394   2.331   1.674
  270SOL    HW1  811   1.374   2.374   1.762
  270SOL    HW2  812   1.472   2.269   1.683
  271SOL     OW  813   1.719   2.447   1.831
  271SOL    HW1  814   1.693   2.536   1.795
  271SOL    HW2  815   1.717   2.379   1.758
  272SOL     OW  816   0.550   2.058   0.885
  272SOL    HW1  817   0.545   2.053   0.985
  272SOL    HW2  818   0.552   2.154   0.856
  273SOL     OW  819   0.202   2.147   1.498
  273SOL    HW1  820   0.122   2.207   1.485
  273SOL    HW2  821   0.192   2.098   1.584
  274SOL     OW  822   1.400   1.969   0.426
  274SOL    HW1  823   1.376   1.932   0.336
  274SOL    HW2  824   1.499   1.985   0.430
  275SOL     OW  825   1.547   2.084   1.729
  275SOL    HW1  826   1.542   2.121   1.821
  275SOL    HW2  827   1.475   2.015   1.717
  276SOL     OW  828   0.614   1.984   0.117
  276SOL    HW1  829   0.712   1.962   0.124
  276SOL    HW2  830   0.583   1.967   0.024
  277SOL     OW  831   0.781   2.126   1.749
  277SOL    HW1  832   0.848   2.065   1.792
  277SOL    HW2  833   0.708   2.145   1.814
  278SOL     OW  834   1.351   2.452   1.433
  278SOL    HW1  835   1.379   2.409   1.518
  278SOL    HW2  836   1.376   2.548   1.434
  279SOL     OW  837   0.539   1.926   0.512
  279SOL    HW1  838   0.458   1.927   0.570
  279SOL    HW2  839   0.542   2.009   0.457
  280SOL     OW  840   0.935   2.098   0.480
  280SOL    HW1  841   0.887   2.139   0.402
  280SOL    HW2  842   1.034   2.096   0.461
  281SOL     OW  843   0.078   2.418   1.386
  281SOL    HW1  844   0.170   2.417   1.345
  281SOL    HW2  845   0.072   2.492   1.453
  282SOL     OW  846   0.561   2.084   1.147
  282SOL    HW1  847   0.599   2.000   1.184
  282SOL    HW2  848   0.473   2.103   1.191
  283SOL     OW  849   1.017   1.901   0.753
  283SOL    HW1  850   0.945   1.906   0.684
  283SOL    HW2  851   0.993   1.832   0.822
  284SOL     OW  852   0.527   2.118   0.328
  284SOL    HW1  853   0.554   2.059   0.253
  284SOL    HW2  854   0.527   2.213   0.297
  285SOL     OW  855   0.915   1.951   1.402
  285SOL    HW1  856   0.940   1.931   1.307
  285SOL    HW2  857   0.987   2.007   1.444
  286SOL     OW  858   1.013   1.967   1.770
  286SOL    HW1  859   1.019   2.052   1.718
  286SOL    HW2  860   1.045   1.891   1.713
  287SOL     OW  861   0.504   1.912   1.740
  287SOL    HW1  862   0.462   1.855   1.670
  287SOL    HW2  863   0.438   1.981   1.772
  288SOL     OW  864   0.307   2.075   1.231
  288SOL    HW1  865   0.284   2.112   1.321
  288SOL    HW2  866   0.277   1.980   1.225
  289SOL     OW  867   0.732   2.496   1.064
  289SOL    HW1  868   0.791   2.470   0.988
  289SOL    HW2  869   0.704   2.592   1.053
  290SOL     OW  870   0.307   1.925   0.618
  290SOL    HW1  871   0.296   2.019   0.651
  290SOL    HW2  872   0.302   1.862   0.695
  291SOL     OW  873   1.622   2.229   0.374
  291SOL    HW1  874   1.624   2.153   0.438
  291SOL    HW2  875   1.574   2.306   0.414
  292SOL     OW  876   1.540   2.136   0.125
  292SOL    HW1  877   1.479   2.061   0.148
  292SOL    HW2  878   1.562   2.188   0.208
  293SOL     OW  879   0.339   2.371   1.006
  293SOL    HW1  880   0.287   2.288   0.989
  293SOL    HW2  881   0.416   2.376   0.942
  294SOL     OW  882   1.160   2.069   1.477
  294SOL    HW1  883   1.160   2.133   1.554
  294SOL    HW2  884   1.188   2.117   1.394
  295SOL     OW  885   0.040   2.406   1.114
  295SOL    HW1  886   0.125   2.373   1.073
  295SOL    HW2  887   0.053   2.421   1.212
  296SOL     OW  888   0.189   2.382   1.722
  296SOL    HW1  889   0.248   2.342   1.652
  296SOL    HW2  890   0.131   2.453   1.681
  297SOL     OW  891   0.815   2.434   0.325
  297SOL    HW1  892   0.822   2.345   0.279
  297SOL    HW2  893   0.721   2.468   0.317
  298SOL     OW  894   0.903   1.948   0.133
  298SOL    HW1  895   0.954   1.949   0.047
  298SOL    HW2  896   0.959   1.906   0.204
  299SOL     OW  897   1.726   1.997   0.523
  299SOL    HW1  898   1.799   1.980   0.456
  299SOL    HW2  899   1.695   1.910   0.561
  300SOL     OW  900   1.841   2.037   0.963
  300SOL    HW1  901   1.880   1.952   0.927
  300SOL    HW2  902   1.743   2.039   0.944
  301SOL     OW  903   1.014   2.098   0.971
  301SOL    HW1  904   1.006   2.062   0.878
  301SOL    HW2  905   1.012   2.022   1.036
  302SOL     OW  906   1.709   2.247   1.381
  302SOL    HW1  907   1.782   2.316   1.385
  302SOL    HW2  908   1.737   2.172   1.322
  303SOL     OW  909   0.672   2.065   1.489
  303SOL    HW1  910   0.762   2.049   1.449
  303SOL    HW2  911   0.680   2.070   1.588
  304SOL     OW  912   0.075   2.207   0.033
  304SOL    HW1  913  -0.017   2.179   0.004
  304SOL    HW2  914   0.106   2.284  -0.023
  305SOL     OW  915   0.072   2.028   0.318
  305SOL    HW1  916   0.055   2.111   0.264
  305SOL    HW2  917   0.162   1.991   0.296
  306SOL     OW  918   1.225   2.187   0.449
  306SOL    HW1  919   1.290   2.113   0.438
  306SOL    HW2  920   1.245   2.237   0.533
  307SOL     OW  921   1.777   2.204   1.642
  307SOL    HW1  922   1.760   2.235   1.548
  307SOL    HW2  923   1.693   2.167   1.680
  308SOL     OW  924   1.824   2.054   1.227
  308SOL    HW1  925   1.820   1.964   1.271
  308SOL    HW2  926   1.827   2.043   1.128
  309SOL     OW  927   1.424   2.076   1.112
  309SOL    HW1  928   1.476   2.011   1.167
  309SOL    HW2  929   1.375   2.139   1.173
  310SOL     OW  930   1.001   1.896   1.154
  310SOL    HW1  931   0.938   1.824   1.123
  310SOL    HW2  932   1.094   1.860   1.154
  311SOL     OW  933   1.352   1.914   0.168
  311SOL    HW1  934   1.387   1.873   0.084
  311SOL    HW2  935   1.262   1.876   0.188
  312SOL     OW  936   1.300   2.315   0.691
  312SOL    HW1  937   1.241   2.395   0.695
  312SOL    HW2  938   1.315   2.280   0.784
  313SOL     OW  939   1.593   2.083   0.882
  313SOL    HW1  940   1.509   2.082   0.936
  313SOL    HW2  941   1.595   2.166   0.826
  314SOL     OW  942   1.135   2.565   2.579
  314SOL    HW1  943   1.192   2.643   2.554
  314SOL    HW2  944   1.075   2.591   2.655
  315SOL     OW  945   1.755   2.469   2.093
  315SOL    HW1  946   1.743   2.456   1.994
  315SOL    HW2  947   1.725   2.388   2.142
  316SOL     OW  948   1.041   2.563   2.291
  316SOL    HW1  949   1.067   2.559   2.387
  316SOL    HW2  950   0.956   2.512   2.277
  317SOL     OW  951   0.865   2.210   2.057
  317SOL    HW1  952   0.924   2.273   2.008
  317SOL    HW2  953   0.884   2.116   2.028
  318SOL     OW  954   0.382   2.562   2.342
  318SOL    HW1  955   0.427   2.472   2.339
  318SOL    HW2  956   0.288   2.551   2.375
  319SOL     OW  957   0.614   1.984   1.979
  319SOL    HW1  958   0.712   1.962   1.986
  319SOL    HW2  959   0.583   1.967   1.886
  320SOL     OW  960   0.297   1.897   2.033
  320SOL    HW1  961   0.346   1.981   2.012
  320SOL    HW2  962   0.359   1.832   2.078
  321SOL     OW  963   0.527   2.118   2.190
  321SOL    HW1  964   0.554   2.059   2.115
  321SOL    HW2  965   0.527   2.213   2.159
  322SOL     OW  966   0.307   1.925   2.480
  322SOL    HW1  967   0.296   2.019   2.513
  322SOL    HW2  968   0.302   1.862   2.557
  323SOL     OW  969   1.622   2.229   2.236
  323SOL    HW1  970   1.624   2.153   2.300
  323SOL    HW2  971   1.574   2.306   2.276
  324SOL     OW  972   1.540   2.136   1.987
  324SOL    HW1  973   1.479   2.061   2.010
  324SOL    HW2  974   1.562   2.188   2.070
  325SOL     OW  975   0.815   2.434   2.187
  325SOL    HW1  976   0.822   2.345   2.141
  325SOL    HW2  977   0.721   2.468   2.179
  326SOL     OW  978   1.726   1.997   2.385
  326SOL    HW1  979   1.799   1.980   2.318
  326SOL    HW2  980   1.695   1.910   2.423
  327SOL     OW  981   0.075   2.207   1.895
  327SOL    HW1  982  -0.017   2.179   1.866
  327SOL    HW2  983   0.106   2.284   1.839
  328SOL     OW  984   0.072   2.028   2.180
  328SOL    HW1  985   0.055   2.111   2.126
  328SOL    HW2  986   0.162   1.991   2.158
  329SOL     OW  987   1.225   2.187   2.311
  329SOL    HW1  988   1.290   2.113   2.300
  329SOL    HW2  989   1.245   2.237   2.395
  330SOL     OW  990   1.352   1.914   2.030
  330SOL    HW1  991   1.387   1.873   1.946
  330SOL    HW2  992   1.262   1.876   2.050
  331SOL     OW  993   2.092   0.628   0.113
  331SOL    HW1  994   1.999   0.626   0.150
  331SOL    HW2  995   2.093   0.589   0.021
  332SOL     OW  996   2.087   0.275   0.996
  332SOL    HW1  997   2.122   0.258   1.088
  332SOL    HW2  998   1.999   0.230   0.984
  333SOL     OW  999   1.881   0.368   0.647
  333SOL    HW1 1000   1.799   0.411   0.686
  333SOL    HW2 1001   1.853   0.295   0.584
  334SOL     OW 1002   2.547   1.012   0.665
  334SOL    HW1 1003   2.616   0.996   0.735
  334SOL    HW2 1004   2.474   1.069   0.703
  335SOL     OW 1005   2.197   1.435   1.061
  335SOL    HW1 1006   2.119   1.404   1.008
  335SOL    HW2 1007   2.255   1.493   1.004
  336SOL     OW 1008   2.093   1.713   0.483
  336SOL    HW1 1009   2.127   1.790   0.537
  336SOL    HW2 1010   2.137   1.713   0.393
  337SOL     OW 1011   2.092   1.434   0.538
  337SOL    HW1 1012   2.066   1.530   0.538
  337SOL    HW2 1013   2.021   1.380   0.583
  338SOL     OW 1014   2.102   1.091   0.886
  338SOL    HW1 1015   2.116   1.007   0.938
  338SOL    HW2 1016   2.047   1.155   0.941
  339SOL     OW 1017   1.984   0.643   0.563
  339SOL    HW1 1018   1.939   0.555   0.580
  339SOL    HW2 1019   1.983   0.697   0.647
  340SOL     OW 1020   1.889   1.596   0.117
  340SOL    HW1 1021   1.870   1.500   0.138
  340SOL    HW2 1022   1.856   1.654   0.192
  341SOL     OW 1023   1.975   0.737   1.597
  341SOL    HW1 1024   2.063   0.724   1.642
  341SOL    HW2 1025   1.962   0.834   1.575
  342SOL     OW 1026   2.059   0.976   1.264
  342SOL    HW1 1027   2.148   0.931   1.250
  342SOL    HW2 1028   1.986   0.911   1.245
  343SOL     OW 1029   2.460   0.729   0.270
  343SOL    HW1 1030   2.484   0.798   0.202
  343SOL    HW2 1031   2.382   0.762   0.324
  344SOL     OW 1032   1.938   0.811   0.789
  344SOL    HW1 1033   2.037   0.799   0.798
  344SOL    HW2 1034   1.914   0.906   0.810
  345SOL     OW 1035   1.992   1.821   1.571
  345SOL    HW1 1036   1.982   1.806   1.670
  345SOL    HW2 1037   1.906   1.857   1.535
  346SOL     OW 1038   2.183   0.943   0.242
  346SOL    HW1 1039   2.265   0.982   0.200
  346SOL    HW2 1040   2.156   0.861   0.193
  347SOL     OW 1041   2.323   1.266   1.727
  347SOL    HW1 1042   2.273   1.267   1.641
  347SOL    HW2 1043   2.260   1.248   1.803
  348SOL     OW 1044   2.064   0.285   1.498
  348SOL    HW1 1045   1.984   0.345   1.485
  348SOL    HW2 1046   2.054   0.236   1.584
  349SOL     OW 1047   2.111   1.785   1.241
  349SOL    HW1 1048   2.168   1.720   1.291
  349SOL    HW2 1049   2.095   1.752   1.148
  350SOL     OW 1050   2.244   0.700   0.480
  350SOL    HW1 1051   2.289   0.610   0.477
  350SOL    HW2 1052   2.150   0.689   0.513
  351SOL     OW 1053   2.159   0.035   0.171
  351SOL    HW1 1054   2.208   0.119   0.150
  351SOL    HW2 1055   2.221  -0.030   0.216
  352SOL     OW 1056   1.940   0.556   1.386
  352SOL    HW1 1057   2.032   0.555   1.345
  352SOL    HW2 1058   1.934   0.630   1.453
  353SOL     OW 1059   1.926   1.564   1.331
  353SOL    HW1 1060   1.880   1.646   1.297
  353SOL    HW2 1061   2.024   1.583   1.340
  354SOL     OW 1062   2.229   1.100   0.501
  354SOL    HW1 1063   2.222   1.183   0.445
  354SOL    HW2 1064   2.233   1.020   0.441
  355SOL     OW 1065   2.428   0.537   0.865
  355SOL    HW1 1066   2.440   0.603   0.791
  355SOL    HW2 1067   2.474   0.571   0.948
  356SOL     OW 1068   2.435   0.870   1.029
  356SOL    HW1 1069   2.479   0.959   1.020
  356SOL    HW2 1070   2.372   0.870   1.106
  357SOL     OW 1071   2.169   0.213   1.231
  357SOL    HW1 1072   2.146   0.250   1.321
  357SOL    HW2 1073   2.139   0.118   1.225
  358SOL     OW 1074   1.899   1.310   1.282
  358SOL    HW1 1075   1.952   1.261   1.350
  358SOL    HW2 1076   1.921   1.408   1.287
  359SOL     OW 1077   2.181   0.810   0.949
  359SOL    HW1 1078   2.274   0.846   0.954
  359SOL    HW2 1079   2.175   0.725   1.001
  360SOL     OW 1080   2.201   0.509   1.006
  360SOL    HW1 1081   2.149   0.426   0.989
  360SOL    HW2 1082   2.278   0.514   0.942
  361SOL     OW 1083   1.870   1.326   0.200
  361SOL    HW1 1084   1.777   1.347   0.169
  361SOL    HW2 1085   1.880   1.227   0.213
  362SOL     OW 1086   1.950   1.801   0.927
  362SOL    HW1 1087   1.908   1.715   0.900
  362SOL    HW2 1088   2.044   1.804   0.893
  363SOL     OW 1089   1.902   0.544   1.114
  363SOL    HW1 1090   1.987   0.511   1.073
  363SOL    HW2 1091   1.915   0.559   1.212
  364SOL     OW 1092   2.051   0.520   1.722
  364SOL    HW1 1093   2.110   0.480   1.652
  364SOL    HW2 1094   1.993   0.591   1.681
  365SOL     OW 1095   2.114   1.564   1.744
  365SOL    HW1 1096   2.084   1.621   1.820
  365SOL    HW2 1097   2.107   1.467   1.770
  366SOL     OW 1098   2.021   1.137   1.466
  366SOL    HW1 1099   2.043   1.076   1.542
  366SOL    HW2 1100   2.031   1.088   1.380
  367SOL     OW 1101   1.945   1.258   1.022
  367SOL    HW1 1102   1.940   1.257   1.122
  367SOL    HW2 1103   1.862   1.217   0.984
  368SOL     OW 1104   1.992   1.794   1.851
  368SOL    HW1 1105   1.951   1.720   1.904
  368SOL    HW2 1106   2.056   1.845   1.909
  369SOL     OW 1107   2.125   0.326   0.720
  369SOL    HW1 1108   2.046   0.377   0.686
  369SOL    HW2 1109   2.116   0.311   0.818
  370SOL     OW 1110   2.234   1.288   1.490
  370SOL    HW1 1111   2.221   1.381   1.456
  370SOL    HW2 1112   2.150   1.236   1.477
  371SOL     OW 1113   2.117   1.348   0.290
  371SOL    HW1 1114   2.021   1.349   0.263
  371SOL    HW2 1115   2.129   1.401   0.374
  372SOL     OW 1116   1.967   1.013   1.726
  372SOL    HW1 1117   1.890   0.980   1.780
  372SOL    HW2 1118   2.052   0.983   1.768
  373SOL     OW 1119   1.937   0.345   0.033
  373SOL    HW1 1120   1.845   0.317   0.004
  373SOL    HW2 1121   1.968   0.422  -0.023
  374SOL     OW 1122   1.934   0.166   0.318
  374SOL    HW1 1123   1.917   0.249   0.264
  374SOL    HW2 1124   2.024   0.129   0.296
  375SOL     OW 1125   2.252   1.741   1.560
  375SOL    HW1 1126   2.161   1.782   1.558
  375SOL    HW2 1127   2.245   1.647   1.592
  376SOL     OW 1128   2.083   1.314   1.844
  376SOL    HW1 1129   2.018   1.241   1.823
  376SOL    HW2 1130   2.087   1.328   1.942
  377SOL     OW 1131   1.941   1.240   0.653
  377SOL    HW1 1132   1.940   1.193   0.741
  377SOL    HW2 1133   2.023   1.212   0.602
  378SOL     OW 1134   2.179   0.547   1.280
  378SOL    HW1 1135   2.217   0.488   1.352
  378SOL    HW2 1136   2.219   0.521   1.192
  379SOL     OW 1137   1.901   1.077   0.300
  379SOL    HW1 1138   2.000   1.066   0.291
  379SOL    HW2 1139   1.861   0.991   0.332
  380SOL     OW 1140   2.092   0.628   1.975
  380SOL    HW1 1141   1.999   0.626   2.012
  380SOL    HW2 1142   2.093   0.589   1.883
  381SOL     OW 1143   2.093   1.713   2.345
  381SOL    HW1 1144   2.127   1.790   2.399
  381SOL    HW2 1145   2.137   1.713   2.255
  382SOL     OW 1146   2.092   1.434   2.400
  382SOL    HW1 1147   2.066   1.530   2.400
  382SOL    HW2 1148   2.021   1.380   2.445
  383SOL     OW 1149   1.889   1.596   1.979
  383SOL    HW1 1150   1.870   1.500   2.000
  383SOL    HW2 1151   1.856   1.654   2.054
  384SOL     OW 1152   2.460   0.729   2.132
  384SOL    HW1 1153   2.484   0.798   2.064
  384SOL    HW2 1154   2.382   0.762   2.186
  385SOL     OW 1155   2.183   0.943   2.104
  385SOL    HW1 1156   2.265   0.982   2.062
  385SOL    HW2 1157   2.156   0.861   2.055
  386SOL     OW 1158   2.159   0.035   2.033
  386SOL    HW1 1159   2.208   0.119   2.012
  386SOL    HW2 1160   2.221  -0.030   2.078
  387SOL     OW 1161   2.229   1.100   2.363
  387SOL    HW1 1162   2.222   1.183   2.307
  387SOL    HW2 1163   2.233   1.020   2.303
  388SOL     OW 1164   1.870   1.326   2.062
  388SOL    HW1 1165   1.777   1.347   2.031
  388SOL    HW2 1166   1.880   1.227   2.075
  389SOL     OW 1167   2.125   0.326   2.582
  389SOL    HW1 1168   2.046   0.377   2.548
  389SOL    HW2 1169   2.116   0.311   2.680
  390SOL     OW 1170   2.117   1.348   2.152
  390SOL    HW1 1171   2.021   1.349   2.125
  390SOL    HW2 1172   2.129   1.401   2.236
  391SOL     OW 1173   1.937   0.345   1.895
  391SOL    HW1 1174   1.845   0.317   1.866
  391SOL    HW2 1175   1.968   0.422   1.839
  392SOL     OW 1176   1.934   0.166   2.180
  392SOL    HW1 1177   1.917   0.249   2.126
  392SOL    HW2 1178   2.024   0.129   2.158
  393SOL     OW 1179   1.901   1.077   2.162
  393SOL    HW1 1180   2.000   1.066   2.153
  393SOL    HW2 1181   1.861   0.991   2.194
  394SOL     OW 1182   2.087   2.137   0.996
  394SOL    HW1 1183   2.122   2.120   1.088
  394SOL    HW2 1184   1.999   2.092   0.984
  395SOL     OW 1185   1.881   2.230   0.647
  395SOL    HW1 1186   1.799   2.273   0.686
  395SOL    HW2 1187   1.853   2.157   0.584
  396SOL     OW 1188   1.984   2.505   0.563
  396SOL    HW1 1189   1.939   2.417   0.580
  396SOL    HW2 1190   1.983   2.559   0.647
  397SOL     OW 1191   2.064   2.147   1.498
  397SOL    HW1 1192   1.984   2.207   1.485
  397SOL    HW2 1193   2.054   2.098   1.584
  398SOL     OW 1194   1.940   2.418   1.386
  398SOL    HW1 1195   2.032   2.417   1.345
  398SOL    HW2 1196   1.934   2.492   1.453
  399SOL     OW 1197   2.423   2.084   1.147
  399SOL    HW1 1198   2.461   2.000   1.184
  399SOL    HW2 1199   2.335   2.103   1.191
  400SOL     OW 1200   2.169   2.075   1.231
  400SOL    HW1 1201   2.146   2.112   1.321
  400SOL    HW2 1202   2.139   1.980   1.225
  401SOL     OW 1203   2.169   1.925   0.618
  401SOL    HW1 1204   2.158   2.019   0.651
  401SOL    HW2 1205   2.164   1.862   0.695
  402SOL     OW 1206   2.201   2.371   1.006
  402SOL    HW1 1207   2.149   2.288   0.989
  402SOL    HW2 1208   2.278   2.376   0.942
  403SOL     OW 1209   2.051   2.382   1.722
  403SOL    HW1 1210   2.110   2.342   1.652
  403SOL    HW2 1211   1.993   2.453   1.681
  404SOL     OW 1212   2.125   2.188   0.720
  404SOL    HW1 1213   2.046   2.239   0.686
  404SOL    HW2 1214   2.116   2.173   0.818
  405SOL     OW 1215   1.937   2.207   0.033
  405SOL    HW1 1216   1.845   2.179   0.004
  405SOL    HW2 1217   1.968   2.284  -0.023
  406SOL     OW 1218   1.934   2.028   0.318
  406SOL    HW1 1219   1.917   2.111   0.264
  406SOL    HW2 1220   2.024   1.991   0.296
  407SOL     OW 1221   2.159   1.897   2.033
  407SOL    HW1 1222   2.208   1.981   2.012
  407SOL    HW2 1223   2.221   1.832   2.078
  408SOL     OW 1224   2.169   1.925   2.480
  408SOL    HW1 1225   2.158   2.019   2.513
  408SOL    HW2 1226   2.164   1.862   2.557
  409SOL     OW 1227   1.937   2.207   1.895
  409SOL    HW1 1228   1.845   2.179   1.866
  409SOL    HW2 1229   1.968   2.284   1.839
  410SOL     OW 1230   1.934   2.028   2.180
  410SOL    HW1 1231   1.917   2.111   2.126
  410SOL    HW2 1232   2.024   1.991   2.158
   2.32349   2.32349   2.32349
