; mobley_9209581_GMX.itp created by acpype (v: 2023.10.27) on Thu May 14 13:51:25 2026

[ atomtypes ]
;name   bond_type     mass     charge   ptype   sigma         epsilon       Amb
 c3       c3          0.00000  0.00000   A     3.39771e-01   4.51035e-01 ; 1.91  0.1078
 n3       n3          0.00000  0.00000   A     3.36510e-01   3.58987e-01 ; 1.89  0.0858
 h1       h1          0.00000  0.00000   A     2.42200e-01   8.70272e-02 ; 1.36  0.0208

[ moleculetype ]
;name            nrexcl
 mobley_9209581   3

[ atoms ]
;   nr  type  resi  res  atom  cgnr     charge      mass       ; qtot   bond_type
     1   c3     1   MOL    C1    1     0.157100     12.01000 ; qtot 0.157
     2   c3     1   MOL    C2    2     0.157100     12.01000 ; qtot 0.314
     3   c3     1   MOL    C3    3     0.157100     12.01000 ; qtot 0.471
     4   n3     1   MOL    N1    4    -0.738600     14.01000 ; qtot -0.267
     5   h1     1   MOL    H1    5     0.029700      1.00800 ; qtot -0.238
     6   h1     1   MOL    H2    6     0.029700      1.00800 ; qtot -0.208
     7   h1     1   MOL    H3    7     0.029700      1.00800 ; qtot -0.178
     8   h1     1   MOL    H4    8     0.029700      1.00800 ; qtot -0.149
     9   h1     1   MOL    H5    9     0.029700      1.00800 ; qtot -0.119
    10   h1     1   MOL    H6   10     0.029700      1.00800 ; qtot -0.089
    11   h1     1   MOL    H7   11     0.029700      1.00800 ; qtot -0.059
    12   h1     1   MOL    H8   12     0.029700      1.00800 ; qtot -0.030
    13   h1     1   MOL    H9   13     0.029700      1.00800 ; qtot -0.000

[ bonds ]
;   ai     aj funct   r             k
     1      4   1    1.4626e-01    2.1410e+05 ;     C1 - N1    
     1      5   1    1.0969e-01    2.8804e+05 ;     C1 - H1    
     1      6   1    1.0969e-01    2.8804e+05 ;     C1 - H2    
     1      7   1    1.0969e-01    2.8804e+05 ;     C1 - H3    
     2      4   1    1.4626e-01    2.1410e+05 ;     C2 - N1    
     2      8   1    1.0969e-01    2.8804e+05 ;     C2 - H4    
     2      9   1    1.0969e-01    2.8804e+05 ;     C2 - H5    
     2     10   1    1.0969e-01    2.8804e+05 ;     C2 - H6    
     3      4   1    1.4626e-01    2.1410e+05 ;     C3 - N1    
     3     11   1    1.0969e-01    2.8804e+05 ;     C3 - H7    
     3     12   1    1.0969e-01    2.8804e+05 ;     C3 - H8    
     3     13   1    1.0969e-01    2.8804e+05 ;     C3 - H9    

[ pairs ]
;   ai     aj    funct
     1      8      1 ;     C1 - H4    
     1      9      1 ;     C1 - H5    
     1     10      1 ;     C1 - H6    
     1     11      1 ;     C1 - H7    
     1     12      1 ;     C1 - H8    
     1     13      1 ;     C1 - H9    
     2     11      1 ;     C2 - H7    
     2     12      1 ;     C2 - H8    
     2     13      1 ;     C2 - H9    
     3      8      1 ;     C3 - H4    
     3      9      1 ;     C3 - H5    
     3     10      1 ;     C3 - H6    
     5      2      1 ;     H1 - C2    
     5      3      1 ;     H1 - C3    
     6      2      1 ;     H2 - C2    
     6      3      1 ;     H2 - C3    
     7      2      1 ;     H3 - C2    
     7      3      1 ;     H3 - C3    

[ angles ]
;   ai     aj     ak    funct   theta         cth
     1      4      2      1    1.1242e+02    6.5061e+02 ;     C1 - N1     - C2    
     1      4      3      1    1.1242e+02    6.5061e+02 ;     C1 - N1     - C3    
     2      4      3      1    1.1242e+02    6.5061e+02 ;     C2 - N1     - C3    
     4      1      5      1    1.1009e+02    4.0033e+02 ;     N1 - C1     - H1    
     4      1      6      1    1.1009e+02    4.0033e+02 ;     N1 - C1     - H2    
     4      1      7      1    1.1009e+02    4.0033e+02 ;     N1 - C1     - H3    
     4      2      8      1    1.1009e+02    4.0033e+02 ;     N1 - C2     - H4    
     4      2      9      1    1.1009e+02    4.0033e+02 ;     N1 - C2     - H5    
     4      2     10      1    1.1009e+02    4.0033e+02 ;     N1 - C2     - H6    
     4      3     11      1    1.1009e+02    4.0033e+02 ;     N1 - C3     - H7    
     4      3     12      1    1.1009e+02    4.0033e+02 ;     N1 - C3     - H8    
     4      3     13      1    1.1009e+02    4.0033e+02 ;     N1 - C3     - H9    
     5      1      6      1    1.0855e+02    2.9824e+02 ;     H1 - C1     - H2    
     5      1      7      1    1.0855e+02    2.9824e+02 ;     H1 - C1     - H3    
     6      1      7      1    1.0855e+02    2.9824e+02 ;     H2 - C1     - H3    
     8      2      9      1    1.0855e+02    2.9824e+02 ;     H4 - C2     - H5    
     8      2     10      1    1.0855e+02    2.9824e+02 ;     H4 - C2     - H6    
     9      2     10      1    1.0855e+02    2.9824e+02 ;     H5 - C2     - H6    
    11      3     12      1    1.0855e+02    2.9824e+02 ;     H7 - C3     - H8    
    11      3     13      1    1.0855e+02    2.9824e+02 ;     H7 - C3     - H9    
    12      3     13      1    1.0855e+02    2.9824e+02 ;     H8 - C3     - H9    

[ dihedrals ] ; propers
; for gromacs 4.5 or higher, using funct 9
;    i      j      k      l   func   phase     kd      pn
     1      4      2      8      9     0.00   0.94140   3 ;     C1-    N1-    C2-    H4
     1      4      2      9      9     0.00   0.94140   3 ;     C1-    N1-    C2-    H5
     1      4      2     10      9     0.00   0.94140   3 ;     C1-    N1-    C2-    H6
     1      4      3     11      9     0.00   0.94140   3 ;     C1-    N1-    C3-    H7
     1      4      3     12      9     0.00   0.94140   3 ;     C1-    N1-    C3-    H8
     1      4      3     13      9     0.00   0.94140   3 ;     C1-    N1-    C3-    H9
     2      4      3     11      9     0.00   0.94140   3 ;     C2-    N1-    C3-    H7
     2      4      3     12      9     0.00   0.94140   3 ;     C2-    N1-    C3-    H8
     2      4      3     13      9     0.00   0.94140   3 ;     C2-    N1-    C3-    H9
     3      4      2      8      9     0.00   0.94140   3 ;     C3-    N1-    C2-    H4
     3      4      2      9      9     0.00   0.94140   3 ;     C3-    N1-    C2-    H5
     3      4      2     10      9     0.00   0.94140   3 ;     C3-    N1-    C2-    H6
     5      1      4      2      9     0.00   0.94140   3 ;     H1-    C1-    N1-    C2
     5      1      4      3      9     0.00   0.94140   3 ;     H1-    C1-    N1-    C3
     6      1      4      2      9     0.00   0.94140   3 ;     H2-    C1-    N1-    C2
     6      1      4      3      9     0.00   0.94140   3 ;     H2-    C1-    N1-    C3
     7      1      4      2      9     0.00   0.94140   3 ;     H3-    C1-    N1-    C2
     7      1      4      3      9     0.00   0.94140   3 ;     H3-    C1-    N1-    C3
