; mobley_9729792_GMX.itp created by acpype (v: 2023.10.27) on Thu May 14 13:18:47 2026

[ atomtypes ]
;name   bond_type     mass     charge   ptype   sigma         epsilon       Amb
 ce       ce          0.00000  0.00000   A     3.31521e-01   4.13379e-01 ; 1.86  0.0988
 cf       cf          0.00000  0.00000   A     3.31521e-01   4.13379e-01 ; 1.86  0.0988
 c2       c2          0.00000  0.00000   A     3.31521e-01   4.13379e-01 ; 1.86  0.0988
 c3       c3          0.00000  0.00000   A     3.39771e-01   4.51035e-01 ; 1.91  0.1078
 ha       ha          0.00000  0.00000   A     2.62548e-01   6.73624e-02 ; 1.47  0.0161
 hc       hc          0.00000  0.00000   A     2.60018e-01   8.70272e-02 ; 1.46  0.0208

[ moleculetype ]
;name            nrexcl
 mobley_9729792   3

[ atoms ]
;   nr  type  resi  res  atom  cgnr     charge      mass       ; qtot   bond_type
     1   ce     1   MOL    C1    1    -0.125000     12.01000 ; qtot -0.125
     2   cf     1   MOL    C2    2    -0.125000     12.01000 ; qtot -0.250
     3   ce     1   MOL    C3    3    -0.141000     12.01000 ; qtot -0.391
     4   cf     1   MOL    C4    4    -0.141000     12.01000 ; qtot -0.532
     5   c2     1   MOL    C5    5    -0.144200     12.01000 ; qtot -0.676
     6   c2     1   MOL    C6    6    -0.144200     12.01000 ; qtot -0.820
     7   c3     1   MOL    C7    7    -0.017000     12.01000 ; qtot -0.837
     8   ha     1   MOL    H1    8     0.122000      1.00800 ; qtot -0.715
     9   ha     1   MOL    H2    9     0.122000      1.00800 ; qtot -0.593
    10   ha     1   MOL    H3   10     0.124000      1.00800 ; qtot -0.469
    11   ha     1   MOL    H4   11     0.124000      1.00800 ; qtot -0.345
    12   ha     1   MOL    H5   12     0.121000      1.00800 ; qtot -0.224
    13   ha     1   MOL    H6   13     0.121000      1.00800 ; qtot -0.103
    14   hc     1   MOL    H7   14     0.051700      1.00800 ; qtot -0.052
    15   hc     1   MOL    H8   15     0.051700      1.00800 ; qtot -0.000

[ bonds ]
;   ai     aj funct   r             k
     1      2   1    1.3561e-01    3.4249e+05 ;     C1 - C2    
     1      3   1    1.4615e-01    2.4127e+05 ;     C1 - C3    
     1      8   1    1.0880e-01    2.9923e+05 ;     C1 - H1    
     2      4   1    1.4514e-01    2.4923e+05 ;     C2 - C4    
     2      9   1    1.0885e-01    2.9859e+05 ;     C2 - H2    
     3      5   1    1.3457e-01    3.5505e+05 ;     C3 - C5    
     3     10   1    1.0880e-01    2.9923e+05 ;     C3 - H3    
     4      6   1    1.3477e-01    3.5259e+05 ;     C4 - C6    
     4     11   1    1.0885e-01    2.9859e+05 ;     C4 - H4    
     5      7   1    1.5088e-01    2.0786e+05 ;     C5 - C7    
     5     12   1    1.0882e-01    2.9898e+05 ;     C5 - H5    
     6      7   1    1.5088e-01    2.0786e+05 ;     C6 - C7    
     6     13   1    1.0882e-01    2.9898e+05 ;     C6 - H6    
     7     14   1    1.0962e-01    2.8891e+05 ;     C7 - H7    
     7     15   1    1.0962e-01    2.8891e+05 ;     C7 - H8    

[ pairs ]
;   ai     aj    funct
     1      6      1 ;     C1 - C6    
     1      7      1 ;     C1 - C7    
     1     11      1 ;     C1 - H4    
     1     12      1 ;     C1 - H5    
     2      5      1 ;     C2 - C5    
     2      7      1 ;     C2 - C7    
     2     10      1 ;     C2 - H3    
     2     13      1 ;     C2 - H6    
     3      4      1 ;     C3 - C4    
     3      6      1 ;     C3 - C6    
     3      9      1 ;     C3 - H2    
     3     14      1 ;     C3 - H7    
     3     15      1 ;     C3 - H8    
     4      5      1 ;     C4 - C5    
     4     14      1 ;     C4 - H7    
     4     15      1 ;     C4 - H8    
     5     13      1 ;     C5 - H6    
     6      9      1 ;     C6 - H2    
     6     12      1 ;     C6 - H5    
     7     10      1 ;     C7 - H3    
     7     11      1 ;     C7 - H4    
     8      4      1 ;     H1 - C4    
     8      5      1 ;     H1 - C5    
     8      9      1 ;     H1 - H2    
     8     10      1 ;     H1 - H3    
     9     11      1 ;     H2 - H4    
    10     12      1 ;     H3 - H5    
    11     13      1 ;     H4 - H6    
    12     14      1 ;     H5 - H7    
    12     15      1 ;     H5 - H8    
    13     14      1 ;     H6 - H7    
    13     15      1 ;     H6 - H8    

[ angles ]
;   ai     aj     ak    funct   theta         cth
     1      2      4      1    1.2427e+02    5.2049e+02 ;     C1 - C2     - C4    
     1      2      9      1    1.1812e+02    3.8769e+02 ;     C1 - C2     - H2    
     1      3      5      1    1.2323e+02    5.2216e+02 ;     C1 - C3     - C5    
     1      3     10      1    1.1662e+02    3.6710e+02 ;     C1 - C3     - H3    
     2      1      3      1    1.2425e+02    5.1840e+02 ;     C2 - C1     - C3    
     2      1      8      1    1.1843e+02    3.8727e+02 ;     C2 - C1     - H1    
     2      4      6      1    1.2343e+02    5.2359e+02 ;     C2 - C4     - C6    
     2      4     11      1    1.1673e+02    3.6911e+02 ;     C2 - C4     - H4    
     3      1      8      1    1.1662e+02    3.6710e+02 ;     C3 - C1     - H1    
     3      5      7      1    1.2558e+02    5.0710e+02 ;     C3 - C5     - C7    
     3      5     12      1    1.2049e+02    3.8618e+02 ;     C3 - C5     - H5    
     4      2      9      1    1.1673e+02    3.6911e+02 ;     C4 - C2     - H2    
     4      6      7      1    1.2508e+02    5.0785e+02 ;     C4 - C6     - C7    
     4      6     13      1    1.1934e+02    3.8761e+02 ;     C4 - C6     - H6    
     5      3     10      1    1.2000e+02    3.8694e+02 ;     C5 - C3     - H3    
     5      7      6      1    1.1185e+02    5.1162e+02 ;     C5 - C7     - C6    
     5      7     14      1    1.1065e+02    3.6618e+02 ;     C5 - C7     - H7    
     5      7     15      1    1.1065e+02    3.6618e+02 ;     C5 - C7     - H8    
     6      4     11      1    1.1891e+02    3.8828e+02 ;     C6 - C4     - H4    
     6      7     14      1    1.1065e+02    3.6618e+02 ;     C6 - C7     - H7    
     6      7     15      1    1.1065e+02    3.6618e+02 ;     C6 - C7     - H8    
     7      5     12      1    1.1505e+02    3.5941e+02 ;     C7 - C5     - H5    
     7      6     13      1    1.1505e+02    3.5941e+02 ;     C7 - C6     - H6    
    14      7     15      1    1.0773e+02    2.9957e+02 ;     H7 - C7     - H8    

[ dihedrals ] ; propers
; for gromacs 4.5 or higher, using funct 9
;    i      j      k      l   func   phase     kd      pn
     1      2      4      6      9   180.00   4.18400   2 ;     C1-    C2-    C4-    C6
     1      2      4     11      9   180.00   4.18400   2 ;     C1-    C2-    C4-    H4
     1      3      5      7      9   180.00  27.82360   2 ;     C1-    C3-    C5-    C7
     1      3      5     12      9   180.00  27.82360   2 ;     C1-    C3-    C5-    H5
     2      1      3      5      9   180.00   4.18400   2 ;     C2-    C1-    C3-    C5
     2      1      3     10      9   180.00   4.18400   2 ;     C2-    C1-    C3-    H3
     2      4      6      7      9   180.00  27.82360   2 ;     C2-    C4-    C6-    C7
     2      4      6     13      9   180.00  27.82360   2 ;     C2-    C4-    C6-    H6
     3      1      2      4      9   180.00  27.82360   2 ;     C3-    C1-    C2-    C4
     3      1      2      9      9   180.00  27.82360   2 ;     C3-    C1-    C2-    H2
     3      5      7      6      9     0.00   0.00000   0 ;     C3-    C5-    C7-    C6
     3      5      7     14      9     0.00   0.00000   0 ;     C3-    C5-    C7-    H7
     3      5      7     15      9     0.00   0.00000   0 ;     C3-    C5-    C7-    H8
     4      6      7      5      9     0.00   0.00000   0 ;     C4-    C6-    C7-    C5
     4      6      7     14      9     0.00   0.00000   0 ;     C4-    C6-    C7-    H7
     4      6      7     15      9     0.00   0.00000   0 ;     C4-    C6-    C7-    H8
     5      7      6     13      9     0.00   0.00000   0 ;     C5-    C7-    C6-    H6
     6      4      2      9      9   180.00   4.18400   2 ;     C6-    C4-    C2-    H2
     6      7      5     12      9     0.00   0.00000   0 ;     C6-    C7-    C5-    H5
     7      5      3     10      9   180.00  27.82360   2 ;     C7-    C5-    C3-    H3
     7      6      4     11      9   180.00  27.82360   2 ;     C7-    C6-    C4-    H4
     8      1      2      4      9   180.00  27.82360   2 ;     H1-    C1-    C2-    C4
     8      1      2      9      9   180.00  27.82360   2 ;     H1-    C1-    C2-    H2
     8      1      3      5      9   180.00   4.18400   2 ;     H1-    C1-    C3-    C5
     8      1      3     10      9   180.00   4.18400   2 ;     H1-    C1-    C3-    H3
     9      2      4     11      9   180.00   4.18400   2 ;     H2-    C2-    C4-    H4
    10      3      5     12      9   180.00  27.82360   2 ;     H3-    C3-    C5-    H5
    11      4      6     13      9   180.00  27.82360   2 ;     H4-    C4-    C6-    H6
    12      5      7     14      9     0.00   0.00000   0 ;     H5-    C5-    C7-    H7
    12      5      7     15      9     0.00   0.00000   0 ;     H5-    C5-    C7-    H8
    13      6      7     14      9     0.00   0.00000   0 ;     H6-    C6-    C7-    H7
    13      6      7     15      9     0.00   0.00000   0 ;     H6-    C6-    C7-    H8

[ dihedrals ] ; impropers
; treated as propers in GROMACS to use correct AMBER analytical function
;    i      j      k      l   func   phase     kd      pn
     1      4      2      9      4   180.00   4.60240   2 ;     C1-    C4-    C2-    H2
     5      1      3     10      4   180.00   4.60240   2 ;     C5-    C1-    C3-    H3
     6      2      4     11      4   180.00   4.60240   2 ;     C6-    C2-    C4-    H4
     7      3      5     12      4   180.00   4.60240   2 ;     C7-    C3-    C5-    H5
     7      4      6     13      4   180.00   4.60240   2 ;     C7-    C4-    C6-    H6
     8      1      2      3      4   180.00   4.60240   2 ;     H1-    C1-    C2-    C3
