; mobley_4893032_GMX.itp created by acpype (v: 2023.10.27) on Thu May 14 13:49:43 2026

[ atomtypes ]
;name   bond_type     mass     charge   ptype   sigma         epsilon       Amb
 c1       c1          0.00000  0.00000   A     3.47896e-01   6.67766e-01 ; 1.95  0.1596
 c3       c3          0.00000  0.00000   A     3.39771e-01   4.51035e-01 ; 1.91  0.1078
 n1       n1          0.00000  0.00000   A     3.27352e-01   4.59403e-01 ; 1.84  0.1098
 hc       hc          0.00000  0.00000   A     2.60018e-01   8.70272e-02 ; 1.46  0.0208

[ moleculetype ]
;name            nrexcl
 mobley_4893032   3

[ atoms ]
;   nr  type  resi  res  atom  cgnr     charge      mass       ; qtot   bond_type
     1   c1     1   MOL    C1    1     0.210700     12.01000 ; qtot 0.211
     2   c3     1   MOL    C2    2    -0.094100     12.01000 ; qtot 0.117
     3   c3     1   MOL    C3    3    -0.024300     12.01000 ; qtot 0.092
     4   c3     1   MOL    C4    4    -0.080400     12.01000 ; qtot 0.012
     5   c3     1   MOL    C5    5    -0.078400     12.01000 ; qtot -0.066
     6   n1     1   MOL    N1    6    -0.375799     14.01000 ; qtot -0.442
     7   hc     1   MOL    H1    7     0.036033      1.00800 ; qtot -0.406
     8   hc     1   MOL    H2    8     0.036033      1.00800 ; qtot -0.370
     9   hc     1   MOL    H3    9     0.036033      1.00800 ; qtot -0.334
    10   hc     1   MOL    H4   10     0.072700      1.00800 ; qtot -0.262
    11   hc     1   MOL    H5   11     0.072700      1.00800 ; qtot -0.189
    12   hc     1   MOL    H6   12     0.040700      1.00800 ; qtot -0.148
    13   hc     1   MOL    H7   13     0.040700      1.00800 ; qtot -0.107
    14   hc     1   MOL    H8   14     0.053700      1.00800 ; qtot -0.054
    15   hc     1   MOL    H9   15     0.053700      1.00800 ; qtot -0.000

[ bonds ]
;   ai     aj funct   r             k
     1      3   1    1.4656e-01    2.3814e+05 ;     C1 - C3    
     1      6   1    1.1619e-01    6.2865e+05 ;     C1 - N1    
     2      4   1    1.5354e-01    1.9154e+05 ;     C2 - C4    
     2      7   1    1.0962e-01    2.8891e+05 ;     C2 - H1    
     2      8   1    1.0962e-01    2.8891e+05 ;     C2 - H2    
     2      9   1    1.0962e-01    2.8891e+05 ;     C2 - H3    
     3      5   1    1.5354e-01    1.9154e+05 ;     C3 - C5    
     3     10   1    1.0962e-01    2.8891e+05 ;     C3 - H4    
     3     11   1    1.0962e-01    2.8891e+05 ;     C3 - H5    
     4      5   1    1.5354e-01    1.9154e+05 ;     C4 - C5    
     4     12   1    1.0962e-01    2.8891e+05 ;     C4 - H6    
     4     13   1    1.0962e-01    2.8891e+05 ;     C4 - H7    
     5     14   1    1.0962e-01    2.8891e+05 ;     C5 - H8    
     5     15   1    1.0962e-01    2.8891e+05 ;     C5 - H9    

[ pairs ]
;   ai     aj    funct
     1      4      1 ;     C1 - C4    
     1     14      1 ;     C1 - H8    
     1     15      1 ;     C1 - H9    
     2      3      1 ;     C2 - C3    
     2     14      1 ;     C2 - H8    
     2     15      1 ;     C2 - H9    
     3     12      1 ;     C3 - H6    
     3     13      1 ;     C3 - H7    
     4     10      1 ;     C4 - H4    
     4     11      1 ;     C4 - H5    
     5      7      1 ;     C5 - H1    
     5      8      1 ;     C5 - H2    
     5      9      1 ;     C5 - H3    
     6      5      1 ;     N1 - C5    
     6     10      1 ;     N1 - H4    
     6     11      1 ;     N1 - H5    
     7     12      1 ;     H1 - H6    
     7     13      1 ;     H1 - H7    
     8     12      1 ;     H2 - H6    
     8     13      1 ;     H2 - H7    
     9     12      1 ;     H3 - H6    
     9     13      1 ;     H3 - H7    
    10     14      1 ;     H4 - H8    
    10     15      1 ;     H4 - H9    
    11     14      1 ;     H5 - H8    
    11     15      1 ;     H5 - H9    
    12     14      1 ;     H6 - H8    
    12     15      1 ;     H6 - H9    
    13     14      1 ;     H7 - H8    
    13     15      1 ;     H7 - H9    

[ angles ]
;   ai     aj     ak    funct   theta         cth
     1      3      5      1    1.1202e+02    5.1354e+02 ;     C1 - C3     - C5    
     1      3     10      1    1.0945e+02    3.7765e+02 ;     C1 - C3     - H4    
     1      3     11      1    1.0945e+02    3.7765e+02 ;     C1 - C3     - H5    
     2      4      5      1    1.1263e+02    5.0099e+02 ;     C2 - C4     - C5    
     2      4     12      1    1.0968e+02    3.6208e+02 ;     C2 - C4     - H6    
     2      4     13      1    1.0968e+02    3.6208e+02 ;     C2 - C4     - H7    
     3      1      6      1    1.7866e+02    4.8049e+02 ;     C3 - C1     - N1    
     3      5      4      1    1.1263e+02    5.0099e+02 ;     C3 - C5     - C4    
     3      5     14      1    1.0968e+02    3.6208e+02 ;     C3 - C5     - H8    
     3      5     15      1    1.0968e+02    3.6208e+02 ;     C3 - C5     - H9    
     4      2      7      1    1.0968e+02    3.6208e+02 ;     C4 - C2     - H1    
     4      2      8      1    1.0968e+02    3.6208e+02 ;     C4 - C2     - H2    
     4      2      9      1    1.0968e+02    3.6208e+02 ;     C4 - C2     - H3    
     4      5     14      1    1.0968e+02    3.6208e+02 ;     C4 - C5     - H8    
     4      5     15      1    1.0968e+02    3.6208e+02 ;     C4 - C5     - H9    
     5      3     10      1    1.0968e+02    3.6208e+02 ;     C5 - C3     - H4    
     5      3     11      1    1.0968e+02    3.6208e+02 ;     C5 - C3     - H5    
     5      4     12      1    1.0968e+02    3.6208e+02 ;     C5 - C4     - H6    
     5      4     13      1    1.0968e+02    3.6208e+02 ;     C5 - C4     - H7    
     7      2      8      1    1.0773e+02    2.9957e+02 ;     H1 - C2     - H2    
     7      2      9      1    1.0773e+02    2.9957e+02 ;     H1 - C2     - H3    
     8      2      9      1    1.0773e+02    2.9957e+02 ;     H2 - C2     - H3    
    10      3     11      1    1.0773e+02    2.9957e+02 ;     H4 - C3     - H5    
    12      4     13      1    1.0773e+02    2.9957e+02 ;     H6 - C4     - H7    
    14      5     15      1    1.0773e+02    2.9957e+02 ;     H8 - C5     - H9    

[ dihedrals ] ; propers
; for gromacs 4.5 or higher, using funct 9
;    i      j      k      l   func   phase     kd      pn
     1      3      5      4      9     0.00   0.65084   3 ;     C1-    C3-    C5-    C4
     1      3      5     14      9     0.00   0.65084   3 ;     C1-    C3-    C5-    H8
     1      3      5     15      9     0.00   0.65084   3 ;     C1-    C3-    C5-    H9
     2      4      5      3      9     0.00   2.17568   3 ;     C2-    C4-    C5-    C3
     2      4      5     14      9     0.00   0.54392   3 ;     C2-    C4-    C5-    H8
     2      4      5     15      9     0.00   0.54392   3 ;     C2-    C4-    C5-    H9
     3      5      4     12      9     0.00   0.54392   3 ;     C3-    C5-    C4-    H6
     3      5      4     13      9     0.00   0.54392   3 ;     C3-    C5-    C4-    H7
     4      5      3     10      9     0.00   0.54392   3 ;     C4-    C5-    C3-    H4
     4      5      3     11      9     0.00   0.54392   3 ;     C4-    C5-    C3-    H5
     5      4      2      7      9     0.00   0.54392   3 ;     C5-    C4-    C2-    H1
     5      4      2      8      9     0.00   0.54392   3 ;     C5-    C4-    C2-    H2
     5      4      2      9      9     0.00   0.54392   3 ;     C5-    C4-    C2-    H3
     6      1      3      5      9   180.00   0.00000   2 ;     N1-    C1-    C3-    C5
     6      1      3     10      9   180.00   0.00000   2 ;     N1-    C1-    C3-    H4
     6      1      3     11      9   180.00   0.00000   2 ;     N1-    C1-    C3-    H5
     7      2      4     12      9     0.00   0.50208   3 ;     H1-    C2-    C4-    H6
     7      2      4     13      9     0.00   0.50208   3 ;     H1-    C2-    C4-    H7
     8      2      4     12      9     0.00   0.50208   3 ;     H2-    C2-    C4-    H6
     8      2      4     13      9     0.00   0.50208   3 ;     H2-    C2-    C4-    H7
     9      2      4     12      9     0.00   0.50208   3 ;     H3-    C2-    C4-    H6
     9      2      4     13      9     0.00   0.50208   3 ;     H3-    C2-    C4-    H7
    10      3      5     14      9     0.00   0.50208   3 ;     H4-    C3-    C5-    H8
    10      3      5     15      9     0.00   0.50208   3 ;     H4-    C3-    C5-    H9
    11      3      5     14      9     0.00   0.50208   3 ;     H5-    C3-    C5-    H8
    11      3      5     15      9     0.00   0.50208   3 ;     H5-    C3-    C5-    H9
    12      4      5     14      9     0.00   0.50208   3 ;     H6-    C4-    C5-    H8
    12      4      5     15      9     0.00   0.50208   3 ;     H6-    C4-    C5-    H9
    13      4      5     14      9     0.00   0.50208   3 ;     H7-    C4-    C5-    H8
    13      4      5     15      9     0.00   0.50208   3 ;     H7-    C4-    C5-    H9
