; mobley_6620221_GMX.itp created by acpype (v: 2023.10.27) on Thu May 14 13:45:16 2026

[ atomtypes ]
;name   bond_type     mass     charge   ptype   sigma         epsilon       Amb
 ca       ca          0.00000  0.00000   A     3.31521e-01   4.13379e-01 ; 1.86  0.0988
 c        c           0.00000  0.00000   A     3.31521e-01   4.13379e-01 ; 1.86  0.0988
 c5       c5          0.00000  0.00000   A     3.39771e-01   4.51035e-01 ; 1.91  0.1078
 c3       c3          0.00000  0.00000   A     3.39771e-01   4.51035e-01 ; 1.91  0.1078
 ns       ns          0.00000  0.00000   A     3.26995e-01   4.91202e-01 ; 1.84  0.1174
 o        o           0.00000  0.00000   A     3.04812e-01   6.12119e-01 ; 1.71  0.1463
 os       os          0.00000  0.00000   A     3.15610e-01   3.03758e-01 ; 1.77  0.0726
 ha       ha          0.00000  0.00000   A     2.62548e-01   6.73624e-02 ; 1.47  0.0161
 hc       hc          0.00000  0.00000   A     2.60018e-01   8.70272e-02 ; 1.46  0.0208
 h1       h1          0.00000  0.00000   A     2.42200e-01   8.70272e-02 ; 1.36  0.0208
 hn       hn          0.00000  0.00000   A     1.10650e-01   4.18400e-02 ; 0.62  0.0100

[ moleculetype ]
;name            nrexcl
 mobley_6620221   3

[ atoms ]
;   nr  type  resi  res  atom  cgnr     charge      mass       ; qtot   bond_type
     1   ca     1   MOL    C1    1    -0.158000     12.01000 ; qtot -0.158
     2   ca     1   MOL    C2    2    -0.083000     12.01000 ; qtot -0.241
     3   ca     1   MOL    C3    3    -0.090000     12.01000 ; qtot -0.331
     4   ca     1   MOL    C4    4    -0.154300     12.01000 ; qtot -0.485
     5   ca     1   MOL    C5    5     0.120100     12.01000 ; qtot -0.365
     6   ca     1   MOL    C6    6     0.085100     12.01000 ; qtot -0.280
     7    c     1   MOL    C7    7     0.736100     12.01000 ; qtot 0.456
     8   c5     1   MOL    C8    8    -0.046100     12.01000 ; qtot 0.410
     9   c5     1   MOL    C9    9     0.143800     12.01000 ; qtot 0.554
    10   c3     1   MOL   C10   10    -0.100100     12.01000 ; qtot 0.454
    11   c3     1   MOL   C11   11    -0.100100     12.01000 ; qtot 0.354
    12   c3     1   MOL   C12   12     0.078300     12.01000 ; qtot 0.432
    13   ns     1   MOL    N1   13    -0.532900     14.01000 ; qtot -0.101
    14    o     1   MOL    O1   14    -0.568000     16.00000 ; qtot -0.669
    15   os     1   MOL    O2   15    -0.307900     16.00000 ; qtot -0.977
    16   os     1   MOL    O3   16    -0.355200     16.00000 ; qtot -1.332
    17   ha     1   MOL    H1   17     0.138000      1.00800 ; qtot -1.194
    18   ha     1   MOL    H2   18     0.137000      1.00800 ; qtot -1.057
    19   ha     1   MOL    H3   19     0.160000      1.00800 ; qtot -0.897
    20   hc     1   MOL    H4   20     0.065700      1.00800 ; qtot -0.831
    21   hc     1   MOL    H5   21     0.065700      1.00800 ; qtot -0.766
    22   hc     1   MOL    H6   22     0.049200      1.00800 ; qtot -0.717
    23   hc     1   MOL    H7   23     0.049200      1.00800 ; qtot -0.667
    24   hc     1   MOL    H8   24     0.049200      1.00800 ; qtot -0.618
    25   hc     1   MOL    H9   25     0.049200      1.00800 ; qtot -0.569
    26   hc     1   MOL   H10   26     0.049200      1.00800 ; qtot -0.520
    27   hc     1   MOL   H11   27     0.049200      1.00800 ; qtot -0.471
    28   h1     1   MOL   H12   28     0.048700      1.00800 ; qtot -0.422
    29   h1     1   MOL   H13   29     0.048700      1.00800 ; qtot -0.373
    30   h1     1   MOL   H14   30     0.048700      1.00800 ; qtot -0.324
    31   hn     1   MOL   H15   31     0.324500      1.00800 ; qtot 0.000

[ bonds ]
;   ai     aj funct   r             k
     1      2   1    1.3986e-01    2.9644e+05 ;     C1 - C2    
     1      3   1    1.3986e-01    2.9644e+05 ;     C1 - C3    
     1     17   1    1.0860e-01    3.0183e+05 ;     C1 - H1    
     2      4   1    1.3986e-01    2.9644e+05 ;     C2 - C4    
     2     18   1    1.0860e-01    3.0183e+05 ;     C2 - H2    
     3      6   1    1.3986e-01    2.9644e+05 ;     C3 - C6    
     3     19   1    1.0860e-01    3.0183e+05 ;     C3 - H3    
     4      5   1    1.3986e-01    2.9644e+05 ;     C4 - C5    
     4      8   1    1.5151e-01    2.0384e+05 ;     C4 - C8    
     5      6   1    1.3986e-01    2.9644e+05 ;     C5 - C6    
     5     15   1    1.3688e-01    2.8731e+05 ;     C5 - O2    
     6     16   1    1.3688e-01    2.8731e+05 ;     C6 - O3    
     7     13   1    1.3798e-01    2.8122e+05 ;     C7 - N1    
     7     14   1    1.2190e-01    4.9421e+05 ;     C7 - O1    
     7     16   1    1.3621e-01    2.9398e+05 ;     C7 - O3    
     8      9   1    1.5483e-01    1.8418e+05 ;     C8 - C9    
     8     20   1    1.0954e-01    2.8989e+05 ;     C8 - H4    
     8     21   1    1.0954e-01    2.8989e+05 ;     C8 - H5    
     9     10   1    1.5372e-01    1.9049e+05 ;     C9 - C10   
     9     11   1    1.5372e-01    1.9049e+05 ;     C9 - C11   
     9     15   1    1.4346e-01    2.3063e+05 ;     C9 - O2    
    10     22   1    1.0962e-01    2.8891e+05 ;    C10 - H6    
    10     23   1    1.0962e-01    2.8891e+05 ;    C10 - H7    
    10     24   1    1.0962e-01    2.8891e+05 ;    C10 - H8    
    11     25   1    1.0962e-01    2.8891e+05 ;    C11 - H9    
    11     26   1    1.0962e-01    2.8891e+05 ;    C11 - H10   
    11     27   1    1.0962e-01    2.8891e+05 ;    C11 - H11   
    12     13   1    1.4556e-01    2.1896e+05 ;    C12 - N1    
    12     28   1    1.0969e-01    2.8804e+05 ;    C12 - H12   
    12     29   1    1.0969e-01    2.8804e+05 ;    C12 - H13   
    12     30   1    1.0969e-01    2.8804e+05 ;    C12 - H14   
    13     31   1    1.0132e-01    3.9630e+05 ;     N1 - H15   

[ pairs ]
;   ai     aj    funct
     1      5      1 ;     C1 - C5    
     1      8      1 ;     C1 - C8    
     1     16      1 ;     C1 - O3    
     2      6      1 ;     C2 - C6    
     2      9      1 ;     C2 - C9    
     2     15      1 ;     C2 - O2    
     2     19      1 ;     C2 - H3    
     2     20      1 ;     C2 - H4    
     2     21      1 ;     C2 - H5    
     3      4      1 ;     C3 - C4    
     3      7      1 ;     C3 - C7    
     3     15      1 ;     C3 - O2    
     3     18      1 ;     C3 - H2    
     4     10      1 ;     C4 - C10   
     4     11      1 ;     C4 - C11   
     4     16      1 ;     C4 - O3    
     5      7      1 ;     C5 - C7    
     5     10      1 ;     C5 - C10   
     5     11      1 ;     C5 - C11   
     5     18      1 ;     C5 - H2    
     5     19      1 ;     C5 - H3    
     5     20      1 ;     C5 - H4    
     5     21      1 ;     C5 - H5    
     6      8      1 ;     C6 - C8    
     6      9      1 ;     C6 - C9    
     6     13      1 ;     C6 - N1    
     6     14      1 ;     C6 - O1    
     7     28      1 ;     C7 - H12   
     7     29      1 ;     C7 - H13   
     7     30      1 ;     C7 - H14   
     8     18      1 ;     C8 - H2    
     8     22      1 ;     C8 - H6    
     8     23      1 ;     C8 - H7    
     8     24      1 ;     C8 - H8    
     8     25      1 ;     C8 - H9    
     8     26      1 ;     C8 - H10   
     8     27      1 ;     C8 - H11   
    10     20      1 ;    C10 - H4    
    10     21      1 ;    C10 - H5    
    10     25      1 ;    C10 - H9    
    10     26      1 ;    C10 - H10   
    10     27      1 ;    C10 - H11   
    11     20      1 ;    C11 - H4    
    11     21      1 ;    C11 - H5    
    11     22      1 ;    C11 - H6    
    11     23      1 ;    C11 - H7    
    11     24      1 ;    C11 - H8    
    12     14      1 ;    C12 - O1    
    12     16      1 ;    C12 - O3    
    14     31      1 ;     O1 - H15   
    15     16      1 ;     O2 - O3    
    15     20      1 ;     O2 - H4    
    15     21      1 ;     O2 - H5    
    15     22      1 ;     O2 - H6    
    15     23      1 ;     O2 - H7    
    15     24      1 ;     O2 - H8    
    15     25      1 ;     O2 - H9    
    15     26      1 ;     O2 - H10   
    15     27      1 ;     O2 - H11   
    16     19      1 ;     O3 - H3    
    16     31      1 ;     O3 - H15   
    17      4      1 ;     H1 - C4    
    17      6      1 ;     H1 - C6    
    17     18      1 ;     H1 - H2    
    17     19      1 ;     H1 - H3    
    28     31      1 ;    H12 - H15   
    29     31      1 ;    H13 - H15   
    30     31      1 ;    H14 - H15   

[ angles ]
;   ai     aj     ak    funct   theta         cth
     1      2      4      1    1.2002e+02    5.3279e+02 ;     C1 - C2     - C4    
     1      2     18      1    1.1988e+02    3.7572e+02 ;     C1 - C2     - H2    
     1      3      6      1    1.2002e+02    5.3279e+02 ;     C1 - C3     - C6    
     1      3     19      1    1.1988e+02    3.7572e+02 ;     C1 - C3     - H3    
     2      1      3      1    1.2002e+02    5.3279e+02 ;     C2 - C1     - C3    
     2      1     17      1    1.1988e+02    3.7572e+02 ;     C2 - C1     - H1    
     2      4      5      1    1.2002e+02    5.3279e+02 ;     C2 - C4     - C5    
     2      4      8      1    1.2187e+02    5.0601e+02 ;     C2 - C4     - C8    
     3      1     17      1    1.1988e+02    3.7572e+02 ;     C3 - C1     - H1    
     3      6      5      1    1.2002e+02    5.3279e+02 ;     C3 - C6     - C5    
     3      6     16      1    1.1911e+02    6.6107e+02 ;     C3 - C6     - O3    
     4      2     18      1    1.1988e+02    3.7572e+02 ;     C4 - C2     - H2    
     4      5      6      1    1.2002e+02    5.3279e+02 ;     C4 - C5     - C6    
     4      5     15      1    1.1911e+02    6.6107e+02 ;     C4 - C5     - O2    
     4      8      9      1    1.0483e+02    5.2049e+02 ;     C4 - C8     - C9    
     4      8     20      1    1.1160e+02    3.6334e+02 ;     C4 - C8     - H4    
     4      8     21      1    1.1160e+02    3.6334e+02 ;     C4 - C8     - H5    
     5      4      8      1    1.2187e+02    5.0601e+02 ;     C5 - C4     - C8    
     5      6     16      1    1.1911e+02    6.6107e+02 ;     C5 - C6     - O3    
     5     15      9      1    1.0598e+02    7.7839e+02 ;     C5 - O2     - C9    
     6      3     19      1    1.1988e+02    3.7572e+02 ;     C6 - C3     - H3    
     6      5     15      1    1.1911e+02    6.6107e+02 ;     C6 - C5     - O2    
     6     16      7      1    1.2129e+02    7.4776e+02 ;     C6 - O3     - C7    
     7     13     12      1    1.2196e+02    6.4350e+02 ;     C7 - N1     - C12   
     7     13     31      1    1.1726e+02    4.8007e+02 ;     C7 - N1     - H15   
     8      9     10      1    1.1360e+02    4.9647e+02 ;     C8 - C9     - C10   
     8      9     11      1    1.1360e+02    4.9647e+02 ;     C8 - C9     - C11   
     8      9     15      1    1.0614e+02    6.4793e+02 ;     C8 - C9     - O2    
     9      8     20      1    1.1117e+02    3.5690e+02 ;     C9 - C8     - H4    
     9      8     21      1    1.1117e+02    3.5690e+02 ;     C9 - C8     - H5    
     9     10     22      1    1.1053e+02    3.6033e+02 ;     C9 - C10    - H6    
     9     10     23      1    1.1053e+02    3.6033e+02 ;     C9 - C10    - H7    
     9     10     24      1    1.1053e+02    3.6033e+02 ;     C9 - C10    - H8    
     9     11     25      1    1.1053e+02    3.6033e+02 ;     C9 - C11    - H9    
     9     11     26      1    1.1053e+02    3.6033e+02 ;     C9 - C11    - H10   
     9     11     27      1    1.1053e+02    3.6033e+02 ;     C9 - C11    - H11   
    10      9     11      1    1.1028e+02    5.0576e+02 ;    C10 - C9     - C11   
    10      9     15      1    1.0897e+02    6.4224e+02 ;    C10 - C9     - O2    
    11      9     15      1    1.0897e+02    6.4224e+02 ;    C11 - C9     - O2    
    12     13     31      1    1.1742e+02    4.5706e+02 ;    C12 - N1     - H15   
    13      7     14      1    1.2305e+02    7.2977e+02 ;     N1 - C7     - O1    
    13      7     16      1    1.0888e+02    7.4090e+02 ;     N1 - C7     - O3    
    13     12     28      1    1.0849e+02    4.0493e+02 ;     N1 - C12    - H12   
    13     12     29      1    1.0849e+02    4.0493e+02 ;     N1 - C12    - H13   
    13     12     30      1    1.0849e+02    4.0493e+02 ;     N1 - C12    - H14   
    14      7     16      1    1.2320e+02    8.4734e+02 ;     O1 - C7     - O3    
    20      8     21      1    1.0722e+02    3.0049e+02 ;     H4 - C8     - H5    
    22     10     23      1    1.0773e+02    2.9957e+02 ;     H6 - C10    - H7    
    22     10     24      1    1.0773e+02    2.9957e+02 ;     H6 - C10    - H8    
    23     10     24      1    1.0773e+02    2.9957e+02 ;     H7 - C10    - H8    
    25     11     26      1    1.0773e+02    2.9957e+02 ;     H9 - C11    - H10   
    25     11     27      1    1.0773e+02    2.9957e+02 ;     H9 - C11    - H11   
    26     11     27      1    1.0773e+02    2.9957e+02 ;    H10 - C11    - H11   
    28     12     29      1    1.0855e+02    2.9824e+02 ;    H12 - C12    - H13   
    28     12     30      1    1.0855e+02    2.9824e+02 ;    H12 - C12    - H14   
    29     12     30      1    1.0855e+02    2.9824e+02 ;    H13 - C12    - H14   

[ dihedrals ] ; propers
; for gromacs 4.5 or higher, using funct 9
;    i      j      k      l   func   phase     kd      pn
     1      2      4      5      9   180.00  15.16700   2 ;     C1-    C2-    C4-    C5
     1      2      4      8      9   180.00  15.16700   2 ;     C1-    C2-    C4-    C8
     1      3      6      5      9   180.00  15.16700   2 ;     C1-    C3-    C6-    C5
     1      3      6     16      9   180.00  15.16700   2 ;     C1-    C3-    C6-    O3
     2      1      3      6      9   180.00  15.16700   2 ;     C2-    C1-    C3-    C6
     2      1      3     19      9   180.00  15.16700   2 ;     C2-    C1-    C3-    H3
     2      4      5      6      9   180.00  15.16700   2 ;     C2-    C4-    C5-    C6
     2      4      5     15      9   180.00  15.16700   2 ;     C2-    C4-    C5-    O2
     2      4      8      9      9   180.00   1.00416   2 ;     C2-    C4-    C8-    C9
     2      4      8     20      9     0.00   0.00000   0 ;     C2-    C4-    C8-    H4
     2      4      8     21      9     0.00   0.00000   0 ;     C2-    C4-    C8-    H5
     3      1      2      4      9   180.00  15.16700   2 ;     C3-    C1-    C2-    C4
     3      1      2     18      9   180.00  15.16700   2 ;     C3-    C1-    C2-    H2
     3      6      5      4      9   180.00  15.16700   2 ;     C3-    C6-    C5-    C4
     3      6      5     15      9   180.00  15.16700   2 ;     C3-    C6-    C5-    O2
     3      6     16      7      9   180.00   4.10032   2 ;     C3-    C6-    O3-    C7
     4      5      6     16      9   180.00  15.16700   2 ;     C4-    C5-    C6-    O3
     4      5     15      9      9   180.00   6.94544   2 ;     C4-    C5-    O2-    C9
     4      8      9     10      9     0.00   0.65084   3 ;     C4-    C8-    C9-   C10
     4      8      9     11      9     0.00   0.65084   3 ;     C4-    C8-    C9-   C11
     4      8      9     15      9     0.00   0.65084   3 ;     C4-    C8-    C9-    O2
     5      4      2     18      9   180.00  15.16700   2 ;     C5-    C4-    C2-    H2
     5      4      8      9      9   180.00   1.00416   2 ;     C5-    C4-    C8-    C9
     5      4      8     20      9     0.00   0.00000   0 ;     C5-    C4-    C8-    H4
     5      4      8     21      9     0.00   0.00000   0 ;     C5-    C4-    C8-    H5
     5      6      3     19      9   180.00  15.16700   2 ;     C5-    C6-    C3-    H3
     5      6     16      7      9   180.00   4.10032   2 ;     C5-    C6-    O3-    C7
     5     15      9      8      9     0.00   1.60387   3 ;     C5-    O2-    C9-    C8
     5     15      9     10      9     0.00   1.60387   3 ;     C5-    O2-    C9-   C10
     5     15      9     11      9     0.00   1.60387   3 ;     C5-    O2-    C9-   C11
     6      5      4      8      9   180.00  15.16700   2 ;     C6-    C5-    C4-    C8
     6      5     15      9      9   180.00   6.94544   2 ;     C6-    C5-    O2-    C9
     6     16      7     13      9   180.00  11.29680   2 ;     C6-    O3-    C7-    N1
     6     16      7     14      9     0.00   0.33472   3 ;     C6-    O3-    C7-    O1
     6     16      7     14      9     0.00   7.23832   1 ;     C6-    O3-    C7-    O1
     6     16      7     14      9   180.00   8.99560   2 ;     C6-    O3-    C7-    O1
     7     13     12     28      9     0.00   0.00000   0 ;     C7-    N1-   C12-   H12
     7     13     12     29      9     0.00   0.00000   0 ;     C7-    N1-   C12-   H13
     7     13     12     30      9     0.00   0.00000   0 ;     C7-    N1-   C12-   H14
     8      4      2     18      9   180.00  15.16700   2 ;     C8-    C4-    C2-    H2
     8      4      5     15      9   180.00  15.16700   2 ;     C8-    C4-    C5-    O2
     8      9     10     22      9     0.00   0.54392   3 ;     C8-    C9-   C10-    H6
     8      9     10     23      9     0.00   0.54392   3 ;     C8-    C9-   C10-    H7
     8      9     10     24      9     0.00   0.54392   3 ;     C8-    C9-   C10-    H8
     8      9     11     25      9     0.00   0.54392   3 ;     C8-    C9-   C11-    H9
     8      9     11     26      9     0.00   0.54392   3 ;     C8-    C9-   C11-   H10
     8      9     11     27      9     0.00   0.54392   3 ;     C8-    C9-   C11-   H11
    10      9      8     20      9     0.00   0.54392   3 ;    C10-    C9-    C8-    H4
    10      9      8     21      9     0.00   0.54392   3 ;    C10-    C9-    C8-    H5
    10      9     11     25      9     0.00   0.54392   3 ;    C10-    C9-   C11-    H9
    10      9     11     26      9     0.00   0.54392   3 ;    C10-    C9-   C11-   H10
    10      9     11     27      9     0.00   0.54392   3 ;    C10-    C9-   C11-   H11
    11      9      8     20      9     0.00   0.54392   3 ;    C11-    C9-    C8-    H4
    11      9      8     21      9     0.00   0.54392   3 ;    C11-    C9-    C8-    H5
    11      9     10     22      9     0.00   0.54392   3 ;    C11-    C9-   C10-    H6
    11      9     10     23      9     0.00   0.54392   3 ;    C11-    C9-   C10-    H7
    11      9     10     24      9     0.00   0.54392   3 ;    C11-    C9-   C10-    H8
    12     13      7     14      9   180.00  10.46000   2 ;    C12-    N1-    C7-    O1
    12     13      7     16      9   180.00  10.46000   2 ;    C12-    N1-    C7-    O3
    14      7     13     31      9     0.00   8.36800   1 ;     O1-    C7-    N1-   H15
    14      7     13     31      9   180.00  10.46000   2 ;     O1-    C7-    N1-   H15
    15      5      6     16      9   180.00  15.16700   2 ;     O2-    C5-    C6-    O3
    15      9      8     20      9     0.00   0.00000   0 ;     O2-    C9-    C8-    H4
    15      9      8     20      9     0.00   1.04600   1 ;     O2-    C9-    C8-    H4
    15      9      8     21      9     0.00   0.00000   0 ;     O2-    C9-    C8-    H5
    15      9      8     21      9     0.00   1.04600   1 ;     O2-    C9-    C8-    H5
    15      9     10     22      9     0.00   0.00000   0 ;     O2-    C9-   C10-    H6
    15      9     10     22      9     0.00   1.04600   1 ;     O2-    C9-   C10-    H6
    15      9     10     23      9     0.00   0.00000   0 ;     O2-    C9-   C10-    H7
    15      9     10     23      9     0.00   1.04600   1 ;     O2-    C9-   C10-    H7
    15      9     10     24      9     0.00   0.00000   0 ;     O2-    C9-   C10-    H8
    15      9     10     24      9     0.00   1.04600   1 ;     O2-    C9-   C10-    H8
    15      9     11     25      9     0.00   0.00000   0 ;     O2-    C9-   C11-    H9
    15      9     11     25      9     0.00   1.04600   1 ;     O2-    C9-   C11-    H9
    15      9     11     26      9     0.00   0.00000   0 ;     O2-    C9-   C11-   H10
    15      9     11     26      9     0.00   1.04600   1 ;     O2-    C9-   C11-   H10
    15      9     11     27      9     0.00   0.00000   0 ;     O2-    C9-   C11-   H11
    15      9     11     27      9     0.00   1.04600   1 ;     O2-    C9-   C11-   H11
    16      6      3     19      9   180.00  15.16700   2 ;     O3-    C6-    C3-    H3
    16      7     13     31      9   180.00  10.46000   2 ;     O3-    C7-    N1-   H15
    17      1      2      4      9   180.00  15.16700   2 ;     H1-    C1-    C2-    C4
    17      1      2     18      9   180.00  15.16700   2 ;     H1-    C1-    C2-    H2
    17      1      3      6      9   180.00  15.16700   2 ;     H1-    C1-    C3-    C6
    17      1      3     19      9   180.00  15.16700   2 ;     H1-    C1-    C3-    H3
    28     12     13     31      9     0.00   0.00000   0 ;    H12-   C12-    N1-   H15
    29     12     13     31      9     0.00   0.00000   0 ;    H13-   C12-    N1-   H15
    30     12     13     31      9     0.00   0.00000   0 ;    H14-   C12-    N1-   H15

[ dihedrals ] ; impropers
; treated as propers in GROMACS to use correct AMBER analytical function
;    i      j      k      l   func   phase     kd      pn
     1      4      2     18      4   180.00   4.60240   2 ;     C1-    C4-    C2-    H2
     1      6      3     19      4   180.00   4.60240   2 ;     C1-    C6-    C3-    H3
     3      5      6     16      4   180.00   4.60240   2 ;     C3-    C5-    C6-    O3
     4      6      5     15      4   180.00   4.60240   2 ;     C4-    C6-    C5-    O2
     7     12     13     31      4   180.00   4.60240   2 ;     C7-   C12-    N1-   H15
     8      2      4      5      4   180.00   4.60240   2 ;     C8-    C2-    C4-    C5
    13     14      7     16      4   180.00   4.60240   2 ;     N1-    O1-    C7-    O3
    17      1      3      2      4   180.00   4.60240   2 ;     H1-    C1-    C3-    C2
