mobley_1323538_GMX.gro created by acpype (v: 2023.10.27) on Thu May 14 13:48:30 2026
 2447
    1MOL     O4    1   1.359   1.531   1.690
    1MOL     P1    2   1.430   1.483   1.566
    1MOL     O1    3   1.440   1.320   1.553
    1MOL     C1    4   1.320   1.245   1.565
    1MOL    H11    5   1.283   1.256   1.666
    1MOL    H12    6   1.246   1.284   1.494
    1MOL     C4    7   1.350   1.100   1.534
    1MOL    H41    8   1.260   1.039   1.543
    1MOL    H42    9   1.426   1.060   1.601
    1MOL    H43   10   1.390   1.089   1.433
    1MOL     O2   11   1.584   1.530   1.551
    1MOL     C2   12   1.611   1.671   1.563
    1MOL    H21   13   1.550   1.726   1.494
    1MOL    H22   14   1.589   1.704   1.666
    1MOL     C5   15   1.757   1.695   1.533
    1MOL    H51   16   1.784   1.660   1.433
    1MOL    H52   17   1.821   1.640   1.602
    1MOL    H53   18   1.782   1.800   1.541
    1MOL     O3   19   1.361   1.531   1.425
    1MOL     C3   20   1.419   1.490   1.301
    1MOL    H31   21   1.522   1.527   1.293
    1MOL    H32   22   1.421   1.381   1.296
    1MOL     C6   23   1.337   1.545   1.187
    1MOL    H61   24   1.334   1.655   1.193
    1MOL    H62   25   1.231   1.510   1.194
    1MOL    H63   26   1.378   1.520   1.090
    2SOL     OW   27   0.230   0.628   0.113
    2SOL    HW1   28   0.137   0.626   0.150
    2SOL    HW2   29   0.231   0.589   0.021
    3SOL     OW   30   0.225   0.275   0.996
    3SOL    HW1   31   0.260   0.258   1.088
    3SOL    HW2   32   0.137   0.230   0.984
    4SOL     OW   33   0.019   0.368   0.647
    4SOL    HW1   34  -0.063   0.411   0.686
    4SOL    HW2   35  -0.009   0.295   0.584
    5SOL     OW   36   0.569   1.275   1.165
    5SOL    HW1   37   0.476   1.268   1.128
    5SOL    HW2   38   0.580   1.364   1.209
    6SOL     OW   39   1.555   1.511   0.703
    6SOL    HW1   40   1.498   1.495   0.784
    6SOL    HW2   41   1.496   1.521   0.623
    7SOL     OW   42   1.135   0.703   0.717
    7SOL    HW1   43   1.192   0.781   0.692
    7SOL    HW2   44   1.075   0.729   0.793
    8SOL     OW   45   1.755   0.607   0.231
    8SOL    HW1   46   1.743   0.594   0.132
    8SOL    HW2   47   1.725   0.526   0.280
    9SOL     OW   48   0.768   1.144   1.023
    9SOL    HW1   49   0.690   1.161   1.083
    9SOL    HW2   50   0.802   1.231   0.987
   10SOL     OW   51   0.850   0.798   1.823
   10SOL    HW1   52   0.846   0.874   1.888
   10SOL    HW2   53   0.872   0.834   1.732
   11SOL     OW   54   0.685   1.012   0.665
   11SOL    HW1   55   0.754   0.996   0.735
   11SOL    HW2   56   0.612   1.069   0.703
   12SOL     OW   57   0.686   1.161   1.803
   12SOL    HW1   58   0.746   1.240   1.817
   12SOL    HW2   59   0.600   1.192   1.762
   13SOL     OW   60   0.335   1.435   1.061
   13SOL    HW1   61   0.257   1.404   1.008
   13SOL    HW2   62   0.393   1.493   1.004
   14SOL     OW   63   0.438   0.392   1.499
   14SOL    HW1   64   0.520   0.336   1.508
   14SOL    HW2   65   0.357   0.334   1.503
   15SOL     OW   66   1.603   0.447   0.737
   15SOL    HW1   67   1.529   0.493   0.687
   15SOL    HW2   68   1.654   0.515   0.790
   16SOL     OW   69   0.231   1.713   0.483
   16SOL    HW1   70   0.265   1.790   0.537
   16SOL    HW2   71   0.275   1.713   0.393
   17SOL     OW   72   1.127   1.341   1.690
   17SOL    HW1   73   1.174   1.341   1.778
   17SOL    HW2   74   1.079   1.254   1.679
   18SOL     OW   75   0.230   1.434   0.538
   18SOL    HW1   76   0.204   1.530   0.538
   18SOL    HW2   77   0.159   1.380   0.583
   19SOL     OW   78   0.240   1.091   0.886
   19SOL    HW1   79   0.254   1.007   0.938
   19SOL    HW2   80   0.185   1.155   0.941
   20SOL     OW   81   0.620   1.786   1.439
   20SOL    HW1   82   0.528   1.769   1.474
   20SOL    HW2   83   0.648   1.878   1.465
   21SOL     OW   84   0.606   0.964   0.123
   21SOL    HW1   85   0.613   1.048   0.069
   21SOL    HW2   86   0.652   0.977   0.211
   22SOL     OW   87   1.594   0.114   1.480
   22SOL    HW1   88   1.576   0.181   1.408
   22SOL    HW2   89   1.591   0.160   1.569
   23SOL     OW   90   0.122   0.643   0.563
   23SOL    HW1   91   0.077   0.555   0.580
   23SOL    HW2   92   0.121   0.697   0.647
   24SOL     OW   93   1.842   1.767   0.359
   24SOL    HW1   94   1.896   1.738   0.439
   24SOL    HW2   95   1.872   1.857   0.330
   25SOL     OW   96   0.027   1.596   0.117
   25SOL    HW1   97   0.008   1.500   0.138
   25SOL    HW2   98  -0.006   1.654   0.192
   26SOL     OW   99   1.689   0.922   0.612
   26SOL    HW1  100   1.784   0.893   0.620
   26SOL    HW2  101   1.681   0.987   0.537
   27SOL     OW  102   1.641   1.108   0.432
   27SOL    HW1  103   1.727   1.110   0.380
   27SOL    HW2  104   1.655   1.155   0.520
   28SOL     OW  105   0.113   0.737   1.597
   28SOL    HW1  106   0.201   0.724   1.642
   28SOL    HW2  107   0.100   0.834   1.575
   29SOL     OW  108   0.613   1.365   0.726
   29SOL    HW1  109   0.564   1.278   0.735
   29SOL    HW2  110   0.590   1.408   0.639
   30SOL     OW  111   0.809   0.004   0.502
   30SOL    HW1  112   0.849   0.095   0.493
   30SOL    HW2  113   0.709   0.012   0.508
   31SOL     OW  114   0.197   0.976   1.264
   31SOL    HW1  115   0.286   0.931   1.250
   31SOL    HW2  116   0.124   0.911   1.245
   32SOL     OW  117   1.525   0.999   0.190
   32SOL    HW1  118   1.462   0.923   0.203
   32SOL    HW2  119   1.573   1.017   0.276
   33SOL     OW  120   1.187   1.792   1.616
   33SOL    HW1  121   1.211   1.852   1.540
   33SOL    HW2  122   1.194   1.697   1.586
   34SOL     OW  123   0.317   0.251   1.801
   34SOL    HW1  124   0.388   0.322   1.807
   34SOL    HW2  125   0.229   0.290   1.829
   35SOL     OW  126   1.667   1.714   0.572
   35SOL    HW1  127   1.626   1.691   0.484
   35SOL    HW2  128   1.649   1.640   0.637
   36SOL     OW  129   0.598   0.729   0.270
   36SOL    HW1  130   0.622   0.798   0.202
   36SOL    HW2  131   0.520   0.762   0.324
   37SOL     OW  132   1.281   0.345   0.944
   37SOL    HW1  133   1.195   0.295   0.931
   37SOL    HW2  134   1.343   0.291   1.000
   38SOL     OW  135   1.576   1.662   0.307
   38SOL    HW1  136   1.665   1.708   0.310
   38SOL    HW2  137   1.555   1.638   0.212
   39SOL     OW  138   0.807   0.605   1.465
   39SOL    HW1  139   0.760   0.602   1.554
   39SOL    HW2  140   0.756   0.550   1.399
   40SOL     OW  141   1.394   0.469   1.674
   40SOL    HW1  142   1.374   0.512   1.762
   40SOL    HW2  143   1.472   0.407   1.683
   41SOL     OW  144   0.973   0.890   1.572
   41SOL    HW1  145   1.019   0.806   1.543
   41SOL    HW2  146   0.917   0.924   1.497
   42SOL     OW  147   0.991   0.410   1.242
   42SOL    HW1  148   0.914   0.444   1.296
   42SOL    HW2  149   0.957   0.359   1.163
   43SOL     OW  150   1.041   0.701   0.429
   43SOL    HW1  151   1.067   0.697   0.525
   43SOL    HW2  152   0.956   0.650   0.415
   44SOL     OW  153   0.076   0.811   0.789
   44SOL    HW1  154   0.175   0.799   0.798
   44SOL    HW2  155   0.052   0.906   0.810
   45SOL     OW  156   0.130   1.821   1.571
   45SOL    HW1  157   0.120   1.806   1.670
   45SOL    HW2  158   0.044   1.857   1.535
   46SOL     OW  159   0.865   0.348   0.195
   46SOL    HW1  160   0.924   0.411   0.146
   46SOL    HW2  161   0.884   0.254   0.166
   47SOL     OW  162   1.719   0.585   1.831
   47SOL    HW1  163   1.693   0.674   1.795
   47SOL    HW2  164   1.717   0.517   1.758
   48SOL     OW  165   1.362   1.144   0.545
   48SOL    HW1  166   1.445   1.115   0.497
   48SOL    HW2  167   1.313   1.211   0.489
   49SOL     OW  168   0.550   0.196   0.885
   49SOL    HW1  169   0.545   0.191   0.985
   49SOL    HW2  170   0.552   0.292   0.856
   50SOL     OW  171   1.008   1.456   0.477
   50SOL    HW1  172   0.962   1.528   0.425
   50SOL    HW2  173   1.004   1.476   0.575
   51SOL     OW  174   0.351   1.801   0.853
   51SOL    HW1  175   0.401   1.715   0.859
   51SOL    HW2  176   0.416   1.878   0.850
   52SOL     OW  177   1.795   1.066   0.873
   52SOL    HW1  178   1.733   1.051   0.797
   52SOL    HW2  179   1.743   1.077   0.958
   53SOL     OW  180   0.321   0.943   0.242
   53SOL    HW1  181   0.403   0.982   0.200
   53SOL    HW2  182   0.294   0.861   0.193
   54SOL     OW  183   1.458   0.735   0.728
   54SOL    HW1  184   1.453   0.670   0.803
   54SOL    HW2  185   1.538   0.794   0.741
   55SOL     OW  186   0.461   1.266   1.727
   55SOL    HW1  187   0.411   1.267   1.641
   55SOL    HW2  188   0.398   1.248   1.803
   56SOL     OW  189   1.111   1.776   0.237
   56SOL    HW1  190   1.051   1.714   0.287
   56SOL    HW2  191   1.142   1.732   0.152
   57SOL     OW  192   0.202   0.285   1.498
   57SOL    HW1  193   0.122   0.345   1.485
   57SOL    HW2  194   0.192   0.236   1.584
   58SOL     OW  195   1.632   1.377   0.081
   58SOL    HW1  196   1.600   1.471   0.071
   58SOL    HW2  197   1.556   1.314   0.069
   59SOL     OW  198   0.464   1.743   0.323
   59SOL    HW1  199   0.497   1.782   0.409
   59SOL    HW2  200   0.540   1.736   0.258
   60SOL     OW  201   1.400   0.107   0.426
   60SOL    HW1  202   1.376   0.070   0.336
   60SOL    HW2  203   1.499   0.123   0.430
   61SOL     OW  204   0.249   1.785   1.241
   61SOL    HW1  205   0.306   1.720   1.291
   61SOL    HW2  206   0.233   1.752   1.148
   62SOL     OW  207   0.940   1.698   0.904
   62SOL    HW1  208   1.020   1.641   0.925
   62SOL    HW2  209   0.891   1.658   0.827
   63SOL     OW  210   0.382   0.700   0.480
   63SOL    HW1  211   0.427   0.610   0.477
   63SOL    HW2  212   0.288   0.689   0.513
   64SOL     OW  213   1.547   0.222   1.729
   64SOL    HW1  214   1.542   0.259   1.821
   64SOL    HW2  215   1.475   0.153   1.717
   65SOL     OW  216   0.614   0.122   0.117
   65SOL    HW1  217   0.712   0.100   0.124
   65SOL    HW2  218   0.583   0.105   0.024
   66SOL     OW  219   0.781   0.264   1.749
   66SOL    HW1  220   0.848   0.203   1.792
   66SOL    HW2  221   0.708   0.283   1.814
   67SOL     OW  222   0.888   1.514   1.195
   67SOL    HW1  223   0.865   1.489   1.101
   67SOL    HW2  224   0.949   1.445   1.234
   68SOL     OW  225   1.351   0.590   1.433
   68SOL    HW1  226   1.379   0.547   1.518
   68SOL    HW2  227   1.376   0.686   1.434
   69SOL     OW  228   0.803   1.402   0.924
   69SOL    HW1  229   0.893   1.416   0.882
   69SOL    HW2  230   0.732   1.404   0.853
   70SOL     OW  231   0.922   0.503   0.899
   70SOL    HW1  232   0.897   0.494   0.803
   70SOL    HW2  233   0.970   0.421   0.930
   71SOL     OW  234   0.539   0.064   0.512
   71SOL    HW1  235   0.458   0.065   0.570
   71SOL    HW2  236   0.542   0.147   0.457
   72SOL     OW  237   1.434   1.188   0.041
   72SOL    HW1  238   1.466   1.112   0.098
   72SOL    HW2  239   1.342   1.215   0.071
   73SOL     OW  240   0.297   0.035   0.171
   73SOL    HW1  241   0.346   0.119   0.150
   73SOL    HW2  242   0.359  -0.030   0.216
   74SOL     OW  243   0.935   0.236   0.480
   74SOL    HW1  244   0.887   0.277   0.402
   74SOL    HW2  245   1.034   0.234   0.461
   75SOL     OW  246   1.076   0.683   1.464
   75SOL    HW1  247   0.996   0.622   1.467
   75SOL    HW2  248   1.157   0.630   1.440
   76SOL     OW  249   1.227   1.570   0.793
   76SOL    HW1  250   1.248   1.644   0.728
   76SOL    HW2  251   1.295   1.570   0.866
   77SOL     OW  252   0.459   1.152   0.741
   77SOL    HW1  253   0.388   1.125   0.806
   77SOL    HW2  254   0.433   1.124   0.648
   78SOL     OW  255   1.271   1.797   0.591
   78SOL    HW1  256   1.315   1.861   0.527
   78SOL    HW2  257   1.221   1.849   0.661
   79SOL     OW  258   1.032   0.549   0.016
   79SOL    HW1  259   0.991   0.631  -0.023
   79SOL    HW2  260   1.096   0.575   0.089
   80SOL     OW  261   0.078   0.556   1.386
   80SOL    HW1  262   0.170   0.555   1.345
   80SOL    HW2  263   0.072   0.630   1.453
   81SOL     OW  264   0.561   0.222   1.147
   81SOL    HW1  265   0.599   0.138   1.184
   81SOL    HW2  266   0.473   0.241   1.191
   82SOL     OW  267   0.866   0.454   0.642
   82SOL    HW1  268   0.834   0.526   0.580
   82SOL    HW2  269   0.890   0.373   0.589
   83SOL     OW  270   1.017   0.039   0.753
   83SOL    HW1  271   0.945   0.044   0.684
   83SOL    HW2  272   0.993  -0.030   0.822
   84SOL     OW  273   1.429   1.173   0.867
   84SOL    HW1  274   1.374   1.089   0.860
   84SOL    HW2  275   1.455   1.202   0.775
   85SOL     OW  276   1.466   0.590   0.992
   85SOL    HW1  277   1.436   0.495   0.999
   85SOL    HW2  278   1.539   0.606   1.058
   86SOL     OW  279   1.857   0.833   0.377
   86SOL    HW1  280   1.899   0.769   0.441
   86SOL    HW2  281   1.819   0.782   0.299
   87SOL     OW  282   0.488   1.385   0.174
   87SOL    HW1  283   0.401   1.370   0.221
   87SOL    HW2  284   0.471   1.411   0.079
   88SOL     OW  285   1.664   1.280   0.657
   88SOL    HW1  286   1.763   1.288   0.671
   88SOL    HW2  287   1.619   1.364   0.688
   89SOL     OW  288   1.390   0.575   0.078
   89SOL    HW1  289   1.336   0.554   0.159
   89SOL    HW2  290   1.481   0.534   0.087
   90SOL     OW  291   0.527   0.256   0.328
   90SOL    HW1  292   0.554   0.197   0.253
   90SOL    HW2  293   0.527   0.351   0.297
   91SOL     OW  294   1.754   1.223   1.588
   91SOL    HW1  295   1.845   1.184   1.575
   91SOL    HW2  296   1.762   1.319   1.612
   92SOL     OW  297   1.064   1.347   1.340
   92SOL    HW1  298   0.984   1.324   1.395
   92SOL    HW2  299   1.147   1.321   1.389
   93SOL     OW  300   1.111   1.195   1.100
   93SOL    HW1  301   1.071   1.239   1.181
   93SOL    HW2  302   1.070   1.232   1.017
   94SOL     OW  303   1.638   1.099   1.079
   94SOL    HW1  304   1.643   1.180   1.138
   94SOL    HW2  305   1.552   1.101   1.028
   95SOL     OW  306   0.915   0.089   1.402
   95SOL    HW1  307   0.940   0.069   1.307
   95SOL    HW2  308   0.987   0.145   1.444
   96SOL     OW  309   0.980   1.116   1.719
   96SOL    HW1  310   0.881   1.122   1.729
   96SOL    HW2  311   1.003   1.036   1.663
   97SOL     OW  312   0.705   1.050   0.368
   97SOL    HW1  313   0.691   1.057   0.467
   97SOL    HW2  314   0.789   0.999   0.350
   98SOL     OW  315   0.410   0.813   1.251
   98SOL    HW1  316   0.496   0.825   1.301
   98SOL    HW2  317   0.368   0.726   1.278
   99SOL     OW  318   1.274   0.386   1.262
   99SOL    HW1  319   1.295   0.460   1.326
   99SOL    HW2  320   1.185   0.403   1.219
  100SOL     OW  321   0.064   1.564   1.331
  100SOL    HW1  322   0.018   1.646   1.297
  100SOL    HW2  323   0.162   1.583   1.340
  101SOL     OW  324   0.367   1.100   0.501
  101SOL    HW1  325   0.360   1.183   0.445
  101SOL    HW2  326   0.371   1.020   0.441
  102SOL     OW  327   0.566   0.537   0.865
  102SOL    HW1  328   0.578   0.603   0.791
  102SOL    HW2  329   0.612   0.571   0.948
  103SOL     OW  330   1.252   1.348   0.388
  103SOL    HW1  331   1.302   1.425   0.428
  103SOL    HW2  332   1.157   1.350   0.420
  104SOL     OW  333   1.582   0.639   0.472
  104SOL    HW1  334   1.551   0.700   0.545
  104SOL    HW2  335   1.632   0.691   0.403
  105SOL     OW  336   0.354   1.510   1.329
  105SOL    HW1  337   0.333   1.466   1.242
  105SOL    HW2  338   0.451   1.536   1.332
  106SOL     OW  339   0.402   0.751   1.598
  106SOL    HW1  340   0.470   0.806   1.551
  106SOL    HW2  341   0.442   0.663   1.625
  107SOL     OW  342   1.587   0.779   1.670
  107SOL    HW1  343   1.495   0.817   1.665
  107SOL    HW2  344   1.647   0.826   1.605
  108SOL     OW  345   1.013   0.105   1.770
  108SOL    HW1  346   1.019   0.190   1.718
  108SOL    HW2  347   1.045   0.029   1.713
  109SOL     OW  348   0.504   0.050   1.740
  109SOL    HW1  349   0.462  -0.007   1.670
  109SOL    HW2  350   0.438   0.119   1.772
  110SOL     OW  351   0.573   0.870   1.029
  110SOL    HW1  352   0.617   0.959   1.020
  110SOL    HW2  353   0.510   0.870   1.106
  111SOL     OW  354   1.360   0.862   1.045
  111SOL    HW1  355   1.285   0.862   0.979
  111SOL    HW2  356   1.397   0.770   1.054
  112SOL     OW  357   1.209   0.525   0.275
  112SOL    HW1  358   1.222   0.441   0.329
  112SOL    HW2  359   1.180   0.599   0.335
  113SOL     OW  360   0.307   0.213   1.231
  113SOL    HW1  361   0.284   0.250   1.321
  113SOL    HW2  362   0.277   0.118   1.225
  114SOL     OW  363   0.037   1.310   1.282
  114SOL    HW1  364   0.090   1.261   1.350
  114SOL    HW2  365   0.059   1.408   1.287
  115SOL     OW  366   0.732   0.634   1.064
  115SOL    HW1  367   0.791   0.608   0.988
  115SOL    HW2  368   0.704   0.730   1.053
  116SOL     OW  369   1.728   0.935   1.854
  116SOL    HW1  370   1.682   0.928   1.765
  116SOL    HW2  371   1.666   0.979   1.920
  117SOL     OW  372   0.307   0.063   0.618
  117SOL    HW1  373   0.296   0.157   0.651
  117SOL    HW2  374   0.302   0.000   0.695
  118SOL     OW  375   1.622   0.367   0.374
  118SOL    HW1  376   1.624   0.291   0.438
  118SOL    HW2  377   1.574   0.444   0.414
  119SOL     OW  378   1.023   0.766   0.966
  119SOL    HW1  379   1.038   0.787   1.062
  119SOL    HW2  380   0.993   0.671   0.957
  120SOL     OW  381   0.980   1.573   1.700
  120SOL    HW1  382   0.960   1.617   1.612
  120SOL    HW2  383   1.019   1.482   1.684
  121SOL     OW  384   0.350   0.898   1.804
  121SOL    HW1  385   0.426   0.942   1.852
  121SOL    HW2  386   0.385   0.851   1.722
  122SOL     OW  387   1.540   0.274   0.125
  122SOL    HW1  388   1.479   0.199   0.148
  122SOL    HW2  389   1.562   0.326   0.208
  123SOL     OW  390   1.303   0.838   0.042
  123SOL    HW1  391   1.337   0.745   0.057
  123SOL    HW2  392   1.321   0.865  -0.053
  124SOL     OW  393   1.068   1.333   0.849
  124SOL    HW1  394   1.075   1.249   0.794
  124SOL    HW2  395   1.130   1.402   0.813
  125SOL     OW  396   0.319   0.810   0.949
  125SOL    HW1  397   0.412   0.846   0.954
  125SOL    HW2  398   0.313   0.725   1.001
  126SOL     OW  399   0.339   0.509   1.006
  126SOL    HW1  400   0.287   0.426   0.989
  126SOL    HW2  401   0.416   0.514   0.942
  127SOL     OW  402   1.138   0.380   1.678
  127SOL    HW1  403   1.093   0.443   1.742
  127SOL    HW2  404   1.231   0.411   1.661
  128SOL     OW  405   1.160   0.207   1.477
  128SOL    HW1  406   1.160   0.271   1.554
  128SOL    HW2  407   1.188   0.255   1.394
  129SOL     OW  408   0.008   1.326   0.200
  129SOL    HW1  409  -0.085   1.347   0.169
  129SOL    HW2  410   0.018   1.227   0.213
  130SOL     OW  411   0.088   1.801   0.927
  130SOL    HW1  412   0.046   1.715   0.900
  130SOL    HW2  413   0.182   1.804   0.893
  131SOL     OW  414   0.504   1.568   0.910
  131SOL    HW1  415   0.570   1.642   0.919
  131SOL    HW2  416   0.548   1.489   0.868
  132SOL     OW  417   1.002   0.796   1.238
  132SOL    HW1  418   1.043   0.764   1.324
  132SOL    HW2  419   0.906   0.769   1.235
  133SOL     OW  420   0.040   0.544   1.114
  133SOL    HW1  421   0.125   0.511   1.073
  133SOL    HW2  422   0.053   0.559   1.212
  134SOL     OW  423   0.189   0.520   1.722
  134SOL    HW1  424   0.248   0.480   1.652
  134SOL    HW2  425   0.131   0.591   1.681
  135SOL     OW  426   0.815   0.572   0.325
  135SOL    HW1  427   0.822   0.483   0.279
  135SOL    HW2  428   0.721   0.606   0.317
  136SOL     OW  429   1.657   0.604   1.206
  136SOL    HW1  430   1.619   0.535   1.268
  136SOL    HW2  431   1.739   0.568   1.162
  137SOL     OW  432   0.252   1.564   1.744
  137SOL    HW1  433   0.222   1.621   1.820
  137SOL    HW2  434   0.245   1.467   1.770
  138SOL     OW  435   0.671   0.464   1.269
  138SOL    HW1  436   0.637   0.375   1.239
  138SOL    HW2  437   0.697   0.518   1.189
  139SOL     OW  438   0.930   1.678   1.465
  139SOL    HW1  439   0.906   1.660   1.370
  139SOL    HW2  440   0.960   1.772   1.475
  140SOL     OW  441   0.473   0.500   0.191
  140SOL    HW1  442   0.534   0.580   0.195
  140SOL    HW2  443   0.378   0.531   0.198
  141SOL     OW  444   0.159   1.137   1.466
  141SOL    HW1  445   0.181   1.076   1.542
  141SOL    HW2  446   0.169   1.088   1.380
  142SOL     OW  447   1.347   1.059   1.234
  142SOL    HW1  448   1.371   0.996   1.160
  142SOL    HW2  449   1.257   1.099   1.216
  143SOL     OW  450   1.302   0.855   0.309
  143SOL    HW1  451   1.216   0.824   0.351
  143SOL    HW2  452   1.298   0.841   0.210
  144SOL     OW  453   1.759   1.747   1.154
  144SOL    HW1  454   1.820   1.777   1.081
  144SOL    HW2  455   1.721   1.658   1.132
  145SOL     OW  456   0.083   1.258   1.022
  145SOL    HW1  457   0.078   1.257   1.122
  145SOL    HW2  458   0.000   1.217   0.984
  146SOL     OW  459   0.688   1.662   1.716
  146SOL    HW1  460   0.632   1.743   1.725
  146SOL    HW2  461   0.740   1.666   1.630
  147SOL     OW  462   0.903   0.086   0.133
  147SOL    HW1  463   0.954   0.087   0.047
  147SOL    HW2  464   0.959   0.044   0.204
  148SOL     OW  465   1.726   0.135   0.523
  148SOL    HW1  466   1.799   0.118   0.456
  148SOL    HW2  467   1.695   0.048   0.561
  149SOL     OW  468   1.388   1.573   0.477
  149SOL    HW1  469   1.455   1.585   0.403
  149SOL    HW2  470   1.348   1.662   0.500
  150SOL     OW  471   0.130   1.794   1.851
  150SOL    HW1  472   0.089   1.720   1.904
  150SOL    HW2  473   0.194   1.845   1.909
  151SOL     OW  474   1.280   0.927   0.672
  151SOL    HW1  475   1.340   0.846   0.674
  151SOL    HW2  476   1.320   0.996   0.612
  152SOL     OW  477   0.830   1.273   1.422
  152SOL    HW1  478   0.825   1.306   1.517
  152SOL    HW2  479   0.744   1.292   1.376
  153SOL     OW  480   0.672   1.616   0.154
  153SOL    HW1  481   0.681   1.626   0.055
  153SOL    HW2  482   0.632   1.527   0.175
  154SOL     OW  483   1.841   0.175   0.963
  154SOL    HW1  484   1.880   0.090   0.927
  154SOL    HW2  485   1.743   0.177   0.944
  155SOL     OW  486   0.263   0.326   0.720
  155SOL    HW1  487   0.184   0.377   0.686
  155SOL    HW2  488   0.254   0.311   0.818
  156SOL     OW  489   1.194   1.612   0.031
  156SOL    HW1  490   1.200   1.519   0.068
  156SOL    HW2  491   1.135   1.612  -0.049
  157SOL     OW  492   0.822   1.002   1.372
  157SOL    HW1  493   0.862   1.001   1.280
  157SOL    HW2  494   0.832   1.094   1.412
  158SOL     OW  495   0.916   0.910   0.291
  158SOL    HW1  496   0.979   0.948   0.223
  158SOL    HW2  497   0.956   0.827   0.330
  159SOL     OW  498   1.504   1.607   0.044
  159SOL    HW1  499   1.412   1.644   0.051
  159SOL    HW2  500   1.542   1.627  -0.046
  160SOL     OW  501   0.372   1.288   1.490
  160SOL    HW1  502   0.359   1.381   1.456
  160SOL    HW2  503   0.288   1.236   1.477
  161SOL     OW  504   1.039   1.098   0.696
  161SOL    HW1  505   0.969   1.051   0.750
  161SOL    HW2  506   1.098   1.030   0.653
  162SOL     OW  507   1.014   0.236   0.971
  162SOL    HW1  508   1.006   0.200   0.878
  162SOL    HW2  509   1.012   0.160   1.036
  163SOL     OW  510   0.590   1.487   0.491
  163SOL    HW1  511   0.632   1.429   0.421
  163SOL    HW2  512   0.546   1.566   0.447
  164SOL     OW  513   1.709   0.385   1.381
  164SOL    HW1  514   1.782   0.454   1.385
  164SOL    HW2  515   1.737   0.310   1.322
  165SOL     OW  516   0.255   1.348   0.290
  165SOL    HW1  517   0.159   1.349   0.263
  165SOL    HW2  518   0.267   1.401   0.374
  166SOL     OW  519   0.105   1.013   1.726
  166SOL    HW1  520   0.028   0.980   1.780
  166SOL    HW2  521   0.190   0.983   1.768
  167SOL     OW  522   0.672   0.203   1.489
  167SOL    HW1  523   0.762   0.187   1.449
  167SOL    HW2  524   0.680   0.208   1.588
  168SOL     OW  525   0.075   0.345   0.033
  168SOL    HW1  526  -0.017   0.317   0.004
  168SOL    HW2  527   0.106   0.422  -0.023
  169SOL     OW  528   1.440   0.856   1.398
  169SOL    HW1  529   1.383   0.908   1.335
  169SOL    HW2  530   1.536   0.868   1.374
  170SOL     OW  531   0.072   0.166   0.318
  170SOL    HW1  532   0.055   0.249   0.264
  170SOL    HW2  533   0.162   0.129   0.296
  171SOL     OW  534   1.183   1.335   0.119
  171SOL    HW1  535   1.084   1.324   0.121
  171SOL    HW2  536   1.217   1.350   0.212
  172SOL     OW  537   0.613   0.842   1.431
  172SOL    HW1  538   0.669   0.923   1.414
  172SOL    HW2  539   0.672   0.762   1.434
  173SOL     OW  540   1.493   1.767   0.959
  173SOL    HW1  541   1.526   1.831   0.890
  173SOL    HW2  542   1.559   1.761   1.034
  174SOL     OW  543   0.716   0.565   1.708
  174SOL    HW1  544   0.735   0.630   1.782
  174SOL    HW2  545   0.776   0.485   1.717
  175SOL     OW  546   0.390   1.741   1.560
  175SOL    HW1  547   0.299   1.782   1.558
  175SOL    HW2  548   0.383   1.647   1.592
  176SOL     OW  549   1.674   0.883   1.254
  176SOL    HW1  550   1.647   0.794   1.217
  176SOL    HW2  551   1.675   0.951   1.181
  177SOL     OW  552   1.225   0.325   0.449
  177SOL    HW1  553   1.290   0.251   0.438
  177SOL    HW2  554   1.245   0.375   0.533
  178SOL     OW  555   0.594   0.745   0.652
  178SOL    HW1  556   0.644   0.830   0.633
  178SOL    HW2  557   0.506   0.747   0.604
  179SOL     OW  558   1.777   0.342   1.642
  179SOL    HW1  559   1.760   0.373   1.548
  179SOL    HW2  560   1.693   0.305   1.680
  180SOL     OW  561   1.730   0.934   1.517
  180SOL    HW1  562   1.768   1.025   1.532
  180SOL    HW2  563   1.722   0.917   1.418
  181SOL     OW  564   0.859   1.374   0.016
  181SOL    HW1  565   0.813   1.389   0.104
  181SOL    HW2  566   0.903   1.459  -0.014
  182SOL     OW  567   0.661   1.790   0.953
  182SOL    HW1  568   0.615   1.878   0.940
  182SOL    HW2  569   0.760   1.802   0.946
  183SOL     OW  570   0.859   0.956   0.861
  183SOL    HW1  571   0.913   0.887   0.909
  183SOL    HW2  572   0.827   1.025   0.927
  184SOL     OW  573   1.083   0.984   0.087
  184SOL    HW1  574   1.060   1.037   0.005
  184SOL    HW2  575   1.164   0.928   0.068
  185SOL     OW  576   1.861   1.569   0.851
  185SOL    HW1  577   1.790   1.557   0.781
  185SOL    HW2  578   1.862   1.490   0.911
  186SOL     OW  579   0.221   1.314   1.844
  186SOL    HW1  580   0.156   1.241   1.823
  186SOL    HW2  581   0.225   1.328   1.942
  187SOL     OW  582   0.079   1.240   0.653
  187SOL    HW1  583   0.078   1.193   0.741
  187SOL    HW2  584   0.161   1.212   0.602
  188SOL     OW  585   0.672   1.391   1.624
  188SOL    HW1  586   0.594   1.341   1.662
  188SOL    HW2  587   0.669   1.486   1.655
  189SOL     OW  588   1.824   0.192   1.227
  189SOL    HW1  589   1.820   0.102   1.271
  189SOL    HW2  590   1.827   0.181   1.128
  190SOL     OW  591   0.428   0.424   0.520
  190SOL    HW1  592   0.458   0.352   0.458
  190SOL    HW2  593   0.389   0.384   0.603
  191SOL     OW  594   1.705   1.487   1.104
  191SOL    HW1  595   1.612   1.462   1.077
  191SOL    HW2  596   1.731   1.437   1.186
  192SOL     OW  597   0.317   0.547   1.280
  192SOL    HW1  598   0.355   0.488   1.352
  192SOL    HW2  599   0.357   0.521   1.192
  193SOL     OW  600   0.812   1.586   0.687
  193SOL    HW1  601   0.844   1.596   0.593
  193SOL    HW2  602   0.733   1.524   0.689
  194SOL     OW  603   1.424   0.214   1.112
  194SOL    HW1  604   1.476   0.149   1.167
  194SOL    HW2  605   1.375   0.277   1.173
  195SOL     OW  606   1.001   0.034   1.154
  195SOL    HW1  607   0.938  -0.038   1.123
  195SOL    HW2  608   1.094  -0.002   1.154
  196SOL     OW  609   0.770   1.330   0.301
  196SOL    HW1  610   0.724   1.243   0.318
  196SOL    HW2  611   0.861   1.327   0.342
  197SOL     OW  612   0.618   1.567   1.284
  197SOL    HW1  613   0.613   1.649   1.341
  197SOL    HW2  614   0.707   1.564   1.239
  198SOL     OW  615   1.352   0.052   0.168
  198SOL    HW1  616   1.387   0.011   0.084
  198SOL    HW2  617   1.262   0.014   0.188
  199SOL     OW  618   1.300   0.453   0.691
  199SOL    HW1  619   1.241   0.533   0.695
  199SOL    HW2  620   1.315   0.418   0.784
  200SOL     OW  621   1.593   0.221   0.882
  200SOL    HW1  622   1.509   0.220   0.936
  200SOL    HW2  623   1.595   0.304   0.826
  201SOL     OW  624   0.039   1.077   0.300
  201SOL    HW1  625   0.138   1.066   0.291
  201SOL    HW2  626  -0.001   0.991   0.332
  202SOL     OW  627   0.875   1.646   0.337
  202SOL    HW1  628   0.798   1.611   0.283
  202SOL    HW2  629   0.843   1.717   0.399
  203SOL     OW  630   0.230   0.628   1.975
  203SOL    HW1  631   0.137   0.626   2.012
  203SOL    HW2  632   0.231   0.589   1.883
  204SOL     OW  633   0.225   0.275   2.858
  204SOL    HW1  634   0.260   0.258   2.950
  204SOL    HW2  635   0.137   0.230   2.846
  205SOL     OW  636   0.019   0.368   2.509
  205SOL    HW1  637  -0.063   0.411   2.548
  205SOL    HW2  638  -0.009   0.295   2.446
  206SOL     OW  639   1.555   1.511   2.565
  206SOL    HW1  640   1.498   1.495   2.646
  206SOL    HW2  641   1.496   1.521   2.485
  207SOL     OW  642   1.135   0.703   2.579
  207SOL    HW1  643   1.192   0.781   2.554
  207SOL    HW2  644   1.075   0.729   2.655
  208SOL     OW  645   1.755   0.607   2.093
  208SOL    HW1  646   1.743   0.594   1.994
  208SOL    HW2  647   1.725   0.526   2.142
  209SOL     OW  648   0.768   1.144   2.885
  209SOL    HW1  649   0.690   1.161   2.945
  209SOL    HW2  650   0.802   1.231   2.849
  210SOL     OW  651   0.685   1.012   2.527
  210SOL    HW1  652   0.754   0.996   2.597
  210SOL    HW2  653   0.612   1.069   2.565
  211SOL     OW  654   0.335   1.435   2.923
  211SOL    HW1  655   0.257   1.404   2.870
  211SOL    HW2  656   0.393   1.493   2.866
  212SOL     OW  657   1.603   0.447   2.599
  212SOL    HW1  658   1.529   0.493   2.549
  212SOL    HW2  659   1.654   0.515   2.652
  213SOL     OW  660   0.231   1.713   2.345
  213SOL    HW1  661   0.265   1.790   2.399
  213SOL    HW2  662   0.275   1.713   2.255
  214SOL     OW  663   0.230   1.434   2.400
  214SOL    HW1  664   0.204   1.530   2.400
  214SOL    HW2  665   0.159   1.380   2.445
  215SOL     OW  666   0.240   1.091   2.748
  215SOL    HW1  667   0.254   1.007   2.800
  215SOL    HW2  668   0.185   1.155   2.803
  216SOL     OW  669   0.606   0.964   1.985
  216SOL    HW1  670   0.613   1.048   1.931
  216SOL    HW2  671   0.652   0.977   2.073
  217SOL     OW  672   0.122   0.643   2.425
  217SOL    HW1  673   0.077   0.555   2.442
  217SOL    HW2  674   0.121   0.697   2.509
  218SOL     OW  675   1.842   1.767   2.221
  218SOL    HW1  676   1.896   1.738   2.301
  218SOL    HW2  677   1.872   1.857   2.192
  219SOL     OW  678   0.027   1.596   1.979
  219SOL    HW1  679   0.008   1.500   2.000
  219SOL    HW2  680  -0.006   1.654   2.054
  220SOL     OW  681   1.689   0.922   2.474
  220SOL    HW1  682   1.784   0.893   2.482
  220SOL    HW2  683   1.681   0.987   2.399
  221SOL     OW  684   1.641   1.108   2.294
  221SOL    HW1  685   1.727   1.110   2.242
  221SOL    HW2  686   1.655   1.155   2.382
  222SOL     OW  687   0.613   1.365   2.588
  222SOL    HW1  688   0.564   1.278   2.597
  222SOL    HW2  689   0.590   1.408   2.501
  223SOL     OW  690   0.809   0.004   2.364
  223SOL    HW1  691   0.849   0.095   2.355
  223SOL    HW2  692   0.709   0.012   2.370
  224SOL     OW  693   1.525   0.999   2.052
  224SOL    HW1  694   1.462   0.923   2.065
  224SOL    HW2  695   1.573   1.017   2.138
  225SOL     OW  696   1.466   1.417   2.815
  225SOL    HW1  697   1.407   1.423   2.895
  225SOL    HW2  698   1.451   1.329   2.769
  226SOL     OW  699   1.667   1.714   2.434
  226SOL    HW1  700   1.626   1.691   2.346
  226SOL    HW2  701   1.649   1.640   2.499
  227SOL     OW  702   0.598   0.729   2.132
  227SOL    HW1  703   0.622   0.798   2.064
  227SOL    HW2  704   0.520   0.762   2.186
  228SOL     OW  705   1.281   0.345   2.806
  228SOL    HW1  706   1.195   0.295   2.793
  228SOL    HW2  707   1.343   0.291   2.862
  229SOL     OW  708   1.576   1.662   2.169
  229SOL    HW1  709   1.665   1.708   2.172
  229SOL    HW2  710   1.555   1.638   2.074
  230SOL     OW  711   1.041   0.701   2.291
  230SOL    HW1  712   1.067   0.697   2.387
  230SOL    HW2  713   0.956   0.650   2.277
  231SOL     OW  714   0.076   0.811   2.651
  231SOL    HW1  715   0.175   0.799   2.660
  231SOL    HW2  716   0.052   0.906   2.672
  232SOL     OW  717   0.865   0.348   2.057
  232SOL    HW1  718   0.924   0.411   2.008
  232SOL    HW2  719   0.884   0.254   2.028
  233SOL     OW  720   1.362   1.144   2.407
  233SOL    HW1  721   1.445   1.115   2.359
  233SOL    HW2  722   1.313   1.211   2.351
  234SOL     OW  723   0.550   0.196   2.747
  234SOL    HW1  724   0.545   0.191   2.847
  234SOL    HW2  725   0.552   0.292   2.718
  235SOL     OW  726   1.008   1.456   2.339
  235SOL    HW1  727   0.962   1.528   2.287
  235SOL    HW2  728   1.004   1.476   2.437
  236SOL     OW  729   0.351   1.801   2.715
  236SOL    HW1  730   0.401   1.715   2.721
  236SOL    HW2  731   0.416   1.878   2.712
  237SOL     OW  732   1.795   1.066   2.735
  237SOL    HW1  733   1.733   1.051   2.659
  237SOL    HW2  734   1.743   1.077   2.820
  238SOL     OW  735   0.321   0.943   2.104
  238SOL    HW1  736   0.403   0.982   2.062
  238SOL    HW2  737   0.294   0.861   2.055
  239SOL     OW  738   1.458   0.735   2.590
  239SOL    HW1  739   1.453   0.670   2.665
  239SOL    HW2  740   1.538   0.794   2.603
  240SOL     OW  741   1.111   1.776   2.099
  240SOL    HW1  742   1.051   1.714   2.149
  240SOL    HW2  743   1.142   1.732   2.014
  241SOL     OW  744   1.632   1.377   1.943
  241SOL    HW1  745   1.600   1.471   1.933
  241SOL    HW2  746   1.556   1.314   1.931
  242SOL     OW  747   0.464   1.743   2.185
  242SOL    HW1  748   0.497   1.782   2.271
  242SOL    HW2  749   0.540   1.736   2.120
  243SOL     OW  750   1.400   0.107   2.288
  243SOL    HW1  751   1.376   0.070   2.198
  243SOL    HW2  752   1.499   0.123   2.292
  244SOL     OW  753   0.249   1.785   3.103
  244SOL    HW1  754   0.306   1.720   3.153
  244SOL    HW2  755   0.233   1.752   3.010
  245SOL     OW  756   0.940   1.698   2.766
  245SOL    HW1  757   1.020   1.641   2.787
  245SOL    HW2  758   0.891   1.658   2.689
  246SOL     OW  759   0.382   0.700   2.342
  246SOL    HW1  760   0.427   0.610   2.339
  246SOL    HW2  761   0.288   0.689   2.375
  247SOL     OW  762   0.614   0.122   1.979
  247SOL    HW1  763   0.712   0.100   1.986
  247SOL    HW2  764   0.583   0.105   1.886
  248SOL     OW  765   0.922   0.503   2.761
  248SOL    HW1  766   0.897   0.494   2.665
  248SOL    HW2  767   0.970   0.421   2.792
  249SOL     OW  768   0.539   0.064   2.374
  249SOL    HW1  769   0.458   0.065   2.432
  249SOL    HW2  770   0.542   0.147   2.319
  250SOL     OW  771   1.434   1.188   1.903
  250SOL    HW1  772   1.466   1.112   1.960
  250SOL    HW2  773   1.342   1.215   1.933
  251SOL     OW  774   0.297   0.035   2.033
  251SOL    HW1  775   0.346   0.119   2.012
  251SOL    HW2  776   0.359  -0.030   2.078
  252SOL     OW  777   0.935   0.236   2.342
  252SOL    HW1  778   0.887   0.277   2.264
  252SOL    HW2  779   1.034   0.234   2.323
  253SOL     OW  780   1.227   1.570   2.655
  253SOL    HW1  781   1.248   1.644   2.590
  253SOL    HW2  782   1.295   1.570   2.728
  254SOL     OW  783   0.459   1.152   2.603
  254SOL    HW1  784   0.388   1.125   2.668
  254SOL    HW2  785   0.433   1.124   2.510
  255SOL     OW  786   1.271   1.797   2.453
  255SOL    HW1  787   1.315   1.861   2.389
  255SOL    HW2  788   1.221   1.849   2.523
  256SOL     OW  789   1.032   0.549   1.878
  256SOL    HW1  790   0.991   0.631   1.839
  256SOL    HW2  791   1.096   0.575   1.951
  257SOL     OW  792   0.866   0.454   2.504
  257SOL    HW1  793   0.834   0.526   2.442
  257SOL    HW2  794   0.890   0.373   2.451
  258SOL     OW  795   1.017   0.039   2.615
  258SOL    HW1  796   0.945   0.044   2.546
  258SOL    HW2  797   0.993  -0.030   2.684
  259SOL     OW  798   1.429   1.173   2.729
  259SOL    HW1  799   1.374   1.089   2.722
  259SOL    HW2  800   1.455   1.202   2.637
  260SOL     OW  801   1.857   0.833   2.239
  260SOL    HW1  802   1.899   0.769   2.303
  260SOL    HW2  803   1.819   0.782   2.161
  261SOL     OW  804   0.488   1.385   2.036
  261SOL    HW1  805   0.401   1.370   2.083
  261SOL    HW2  806   0.471   1.411   1.941
  262SOL     OW  807   1.664   1.280   2.519
  262SOL    HW1  808   1.763   1.288   2.533
  262SOL    HW2  809   1.619   1.364   2.550
  263SOL     OW  810   1.390   0.575   1.940
  263SOL    HW1  811   1.336   0.554   2.021
  263SOL    HW2  812   1.481   0.534   1.949
  264SOL     OW  813   0.527   0.256   2.190
  264SOL    HW1  814   0.554   0.197   2.115
  264SOL    HW2  815   0.527   0.351   2.159
  265SOL     OW  816   1.638   1.099   2.941
  265SOL    HW1  817   1.643   1.180   3.000
  265SOL    HW2  818   1.552   1.101   2.890
  266SOL     OW  819   0.705   1.050   2.230
  266SOL    HW1  820   0.691   1.057   2.329
  266SOL    HW2  821   0.789   0.999   2.212
  267SOL     OW  822   0.367   1.100   2.363
  267SOL    HW1  823   0.360   1.183   2.307
  267SOL    HW2  824   0.371   1.020   2.303
  268SOL     OW  825   0.566   0.537   2.727
  268SOL    HW1  826   0.578   0.603   2.653
  268SOL    HW2  827   0.612   0.571   2.810
  269SOL     OW  828   1.252   1.348   2.250
  269SOL    HW1  829   1.302   1.425   2.290
  269SOL    HW2  830   1.157   1.350   2.282
  270SOL     OW  831   1.582   0.639   2.334
  270SOL    HW1  832   1.551   0.700   2.407
  270SOL    HW2  833   1.632   0.691   2.265
  271SOL     OW  834   0.573   0.870   2.891
  271SOL    HW1  835   0.617   0.959   2.882
  271SOL    HW2  836   0.510   0.870   2.968
  272SOL     OW  837   1.209   0.525   2.137
  272SOL    HW1  838   1.222   0.441   2.191
  272SOL    HW2  839   1.180   0.599   2.197
  273SOL     OW  840   0.732   0.634   2.926
  273SOL    HW1  841   0.791   0.608   2.850
  273SOL    HW2  842   0.704   0.730   2.915
  274SOL     OW  843   0.307   0.063   2.480
  274SOL    HW1  844   0.296   0.157   2.513
  274SOL    HW2  845   0.302   0.000   2.557
  275SOL     OW  846   1.622   0.367   2.236
  275SOL    HW1  847   1.624   0.291   2.300
  275SOL    HW2  848   1.574   0.444   2.276
  276SOL     OW  849   1.540   0.274   1.987
  276SOL    HW1  850   1.479   0.199   2.010
  276SOL    HW2  851   1.562   0.326   2.070
  277SOL     OW  852   1.303   0.838   1.904
  277SOL    HW1  853   1.337   0.745   1.919
  277SOL    HW2  854   1.321   0.865   1.809
  278SOL     OW  855   1.068   1.333   2.711
  278SOL    HW1  856   1.075   1.249   2.656
  278SOL    HW2  857   1.130   1.402   2.675
  279SOL     OW  858   0.319   0.810   2.811
  279SOL    HW1  859   0.412   0.846   2.816
  279SOL    HW2  860   0.313   0.725   2.863
  280SOL     OW  861   0.008   1.326   2.062
  280SOL    HW1  862  -0.085   1.347   2.031
  280SOL    HW2  863   0.018   1.227   2.075
  281SOL     OW  864   0.088   1.801   2.789
  281SOL    HW1  865   0.046   1.715   2.762
  281SOL    HW2  866   0.182   1.804   2.755
  282SOL     OW  867   0.504   1.568   2.772
  282SOL    HW1  868   0.570   1.642   2.781
  282SOL    HW2  869   0.548   1.489   2.730
  283SOL     OW  870   0.815   0.572   2.187
  283SOL    HW1  871   0.822   0.483   2.141
  283SOL    HW2  872   0.721   0.606   2.179
  284SOL     OW  873   0.671   0.464   3.131
  284SOL    HW1  874   0.637   0.375   3.101
  284SOL    HW2  875   0.697   0.518   3.051
  285SOL     OW  876   0.473   0.500   2.053
  285SOL    HW1  877   0.534   0.580   2.057
  285SOL    HW2  878   0.378   0.531   2.060
  286SOL     OW  879   1.302   0.855   2.171
  286SOL    HW1  880   1.216   0.824   2.213
  286SOL    HW2  881   1.298   0.841   2.072
  287SOL     OW  882   1.759   1.747   3.016
  287SOL    HW1  883   1.820   1.777   2.943
  287SOL    HW2  884   1.721   1.658   2.994
  288SOL     OW  885   0.083   1.258   2.884
  288SOL    HW1  886   0.078   1.257   2.984
  288SOL    HW2  887   0.000   1.217   2.846
  289SOL     OW  888   1.726   0.135   2.385
  289SOL    HW1  889   1.799   0.118   2.318
  289SOL    HW2  890   1.695   0.048   2.423
  290SOL     OW  891   1.388   1.573   2.339
  290SOL    HW1  892   1.455   1.585   2.265
  290SOL    HW2  893   1.348   1.662   2.362
  291SOL     OW  894   1.280   0.927   2.534
  291SOL    HW1  895   1.340   0.846   2.536
  291SOL    HW2  896   1.320   0.996   2.474
  292SOL     OW  897   0.672   1.616   2.016
  292SOL    HW1  898   0.681   1.626   1.917
  292SOL    HW2  899   0.632   1.527   2.037
  293SOL     OW  900   1.841   0.175   2.825
  293SOL    HW1  901   1.880   0.090   2.789
  293SOL    HW2  902   1.743   0.177   2.806
  294SOL     OW  903   0.263   0.326   2.582
  294SOL    HW1  904   0.184   0.377   2.548
  294SOL    HW2  905   0.254   0.311   2.680
  295SOL     OW  906   1.194   1.612   1.893
  295SOL    HW1  907   1.200   1.519   1.930
  295SOL    HW2  908   1.135   1.612   1.813
  296SOL     OW  909   0.916   0.910   2.153
  296SOL    HW1  910   0.979   0.948   2.085
  296SOL    HW2  911   0.956   0.827   2.192
  297SOL     OW  912   1.504   1.607   1.906
  297SOL    HW1  913   1.412   1.644   1.913
  297SOL    HW2  914   1.542   1.627   1.816
  298SOL     OW  915   1.039   1.098   2.558
  298SOL    HW1  916   0.969   1.051   2.612
  298SOL    HW2  917   1.098   1.030   2.515
  299SOL     OW  918   0.590   1.487   2.353
  299SOL    HW1  919   0.632   1.429   2.283
  299SOL    HW2  920   0.546   1.566   2.309
  300SOL     OW  921   0.255   1.348   2.152
  300SOL    HW1  922   0.159   1.349   2.125
  300SOL    HW2  923   0.267   1.401   2.236
  301SOL     OW  924   0.075   0.345   1.895
  301SOL    HW1  925  -0.017   0.317   1.866
  301SOL    HW2  926   0.106   0.422   1.839
  302SOL     OW  927   0.072   0.166   2.180
  302SOL    HW1  928   0.055   0.249   2.126
  302SOL    HW2  929   0.162   0.129   2.158
  303SOL     OW  930   1.183   1.335   1.981
  303SOL    HW1  931   1.084   1.324   1.983
  303SOL    HW2  932   1.217   1.350   2.074
  304SOL     OW  933   1.674   0.883   3.116
  304SOL    HW1  934   1.647   0.794   3.079
  304SOL    HW2  935   1.675   0.951   3.043
  305SOL     OW  936   1.225   0.325   2.311
  305SOL    HW1  937   1.290   0.251   2.300
  305SOL    HW2  938   1.245   0.375   2.395
  306SOL     OW  939   0.594   0.745   2.514
  306SOL    HW1  940   0.644   0.830   2.495
  306SOL    HW2  941   0.506   0.747   2.466
  307SOL     OW  942   0.859   1.374   1.878
  307SOL    HW1  943   0.813   1.389   1.966
  307SOL    HW2  944   0.903   1.459   1.848
  308SOL     OW  945   0.661   1.790   2.815
  308SOL    HW1  946   0.615   1.878   2.802
  308SOL    HW2  947   0.760   1.802   2.808
  309SOL     OW  948   0.859   0.956   2.723
  309SOL    HW1  949   0.913   0.887   2.771
  309SOL    HW2  950   0.827   1.025   2.789
  310SOL     OW  951   1.083   0.984   1.949
  310SOL    HW1  952   1.060   1.037   1.867
  310SOL    HW2  953   1.164   0.928   1.930
  311SOL     OW  954   1.861   1.569   2.713
  311SOL    HW1  955   1.790   1.557   2.643
  311SOL    HW2  956   1.862   1.490   2.773
  312SOL     OW  957   0.079   1.240   2.515
  312SOL    HW1  958   0.078   1.193   2.603
  312SOL    HW2  959   0.161   1.212   2.464
  313SOL     OW  960   1.824   0.192   3.089
  313SOL    HW1  961   1.820   0.102   3.133
  313SOL    HW2  962   1.827   0.181   2.990
  314SOL     OW  963   0.428   0.424   2.382
  314SOL    HW1  964   0.458   0.352   2.320
  314SOL    HW2  965   0.389   0.384   2.465
  315SOL     OW  966   0.812   1.586   2.549
  315SOL    HW1  967   0.844   1.596   2.455
  315SOL    HW2  968   0.733   1.524   2.551
  316SOL     OW  969   0.770   1.330   2.163
  316SOL    HW1  970   0.724   1.243   2.180
  316SOL    HW2  971   0.861   1.327   2.204
  317SOL     OW  972   1.352   0.052   2.030
  317SOL    HW1  973   1.387   0.011   1.946
  317SOL    HW2  974   1.262   0.014   2.050
  318SOL     OW  975   1.300   0.453   2.553
  318SOL    HW1  976   1.241   0.533   2.557
  318SOL    HW2  977   1.315   0.418   2.646
  319SOL     OW  978   1.593   0.221   2.744
  319SOL    HW1  979   1.509   0.220   2.798
  319SOL    HW2  980   1.595   0.304   2.688
  320SOL     OW  981   0.039   1.077   2.162
  320SOL    HW1  982   0.138   1.066   2.153
  320SOL    HW2  983  -0.001   0.991   2.194
  321SOL     OW  984   0.875   1.646   2.199
  321SOL    HW1  985   0.798   1.611   2.145
  321SOL    HW2  986   0.843   1.717   2.261
  322SOL     OW  987   0.230   2.490   0.113
  322SOL    HW1  988   0.137   2.488   0.150
  322SOL    HW2  989   0.231   2.451   0.021
  323SOL     OW  990   0.225   2.137   0.996
  323SOL    HW1  991   0.260   2.120   1.088
  323SOL    HW2  992   0.137   2.092   0.984
  324SOL     OW  993   0.019   2.230   0.647
  324SOL    HW1  994  -0.063   2.273   0.686
  324SOL    HW2  995  -0.009   2.157   0.584
  325SOL     OW  996   1.135   2.565   0.717
  325SOL    HW1  997   1.192   2.643   0.692
  325SOL    HW2  998   1.075   2.591   0.793
  326SOL     OW  999   1.755   2.469   0.231
  326SOL    HW1 1000   1.743   2.456   0.132
  326SOL    HW2 1001   1.725   2.388   0.280
  327SOL     OW 1002   0.768   3.006   1.023
  327SOL    HW1 1003   0.690   3.023   1.083
  327SOL    HW2 1004   0.802   3.093   0.987
  328SOL     OW 1005   0.850   2.660   1.823
  328SOL    HW1 1006   0.846   2.736   1.888
  328SOL    HW2 1007   0.872   2.696   1.732
  329SOL     OW 1008   0.685   2.874   0.665
  329SOL    HW1 1009   0.754   2.858   0.735
  329SOL    HW2 1010   0.612   2.931   0.703
  330SOL     OW 1011   0.438   2.254   1.499
  330SOL    HW1 1012   0.520   2.198   1.508
  330SOL    HW2 1013   0.357   2.196   1.503
  331SOL     OW 1014   1.603   2.309   0.737
  331SOL    HW1 1015   1.529   2.355   0.687
  331SOL    HW2 1016   1.654   2.377   0.790
  332SOL     OW 1017   0.240   2.953   0.886
  332SOL    HW1 1018   0.254   2.869   0.938
  332SOL    HW2 1019   0.185   3.017   0.941
  333SOL     OW 1020   1.594   1.976   1.480
  333SOL    HW1 1021   1.576   2.043   1.408
  333SOL    HW2 1022   1.591   2.022   1.569
  334SOL     OW 1023   0.122   2.505   0.563
  334SOL    HW1 1024   0.077   2.417   0.580
  334SOL    HW2 1025   0.121   2.559   0.647
  335SOL     OW 1026   0.113   2.599   1.597
  335SOL    HW1 1027   0.201   2.586   1.642
  335SOL    HW2 1028   0.100   2.696   1.575
  336SOL     OW 1029   0.809   1.866   0.502
  336SOL    HW1 1030   0.849   1.957   0.493
  336SOL    HW2 1031   0.709   1.874   0.508
  337SOL     OW 1032   0.197   2.838   1.264
  337SOL    HW1 1033   0.286   2.793   1.250
  337SOL    HW2 1034   0.124   2.773   1.245
  338SOL     OW 1035   1.525   2.861   0.190
  338SOL    HW1 1036   1.462   2.785   0.203
  338SOL    HW2 1037   1.573   2.879   0.276
  339SOL     OW 1038   0.317   2.113   1.801
  339SOL    HW1 1039   0.388   2.184   1.807
  339SOL    HW2 1040   0.229   2.152   1.829
  340SOL     OW 1041   0.598   2.591   0.270
  340SOL    HW1 1042   0.622   2.660   0.202
  340SOL    HW2 1043   0.520   2.624   0.324
  341SOL     OW 1044   1.281   2.207   0.944
  341SOL    HW1 1045   1.195   2.157   0.931
  341SOL    HW2 1046   1.343   2.153   1.000
  342SOL     OW 1047   0.807   2.467   1.465
  342SOL    HW1 1048   0.760   2.464   1.554
  342SOL    HW2 1049   0.756   2.412   1.399
  343SOL     OW 1050   1.394   2.331   1.674
  343SOL    HW1 1051   1.374   2.374   1.762
  343SOL    HW2 1052   1.472   2.269   1.683
  344SOL     OW 1053   0.973   2.752   1.572
  344SOL    HW1 1054   1.019   2.668   1.543
  344SOL    HW2 1055   0.917   2.786   1.497
  345SOL     OW 1056   0.991   2.272   1.242
  345SOL    HW1 1057   0.914   2.306   1.296
  345SOL    HW2 1058   0.957   2.221   1.163
  346SOL     OW 1059   1.041   2.563   0.429
  346SOL    HW1 1060   1.067   2.559   0.525
  346SOL    HW2 1061   0.956   2.512   0.415
  347SOL     OW 1062   0.076   2.673   0.789
  347SOL    HW1 1063   0.175   2.661   0.798
  347SOL    HW2 1064   0.052   2.768   0.810
  348SOL     OW 1065   0.865   2.210   0.195
  348SOL    HW1 1066   0.924   2.273   0.146
  348SOL    HW2 1067   0.884   2.116   0.166
  349SOL     OW 1068   1.719   2.447   1.831
  349SOL    HW1 1069   1.693   2.536   1.795
  349SOL    HW2 1070   1.717   2.379   1.758
  350SOL     OW 1071   0.550   2.058   0.885
  350SOL    HW1 1072   0.545   2.053   0.985
  350SOL    HW2 1073   0.552   2.154   0.856
  351SOL     OW 1074   1.458   2.597   0.728
  351SOL    HW1 1075   1.453   2.532   0.803
  351SOL    HW2 1076   1.538   2.656   0.741
  352SOL     OW 1077   0.202   2.147   1.498
  352SOL    HW1 1078   0.122   2.207   1.485
  352SOL    HW2 1079   0.192   2.098   1.584
  353SOL     OW 1080   1.400   1.969   0.426
  353SOL    HW1 1081   1.376   1.932   0.336
  353SOL    HW2 1082   1.499   1.985   0.430
  354SOL     OW 1083   0.382   2.562   0.480
  354SOL    HW1 1084   0.427   2.472   0.477
  354SOL    HW2 1085   0.288   2.551   0.513
  355SOL     OW 1086   1.547   2.084   1.729
  355SOL    HW1 1087   1.542   2.121   1.821
  355SOL    HW2 1088   1.475   2.015   1.717
  356SOL     OW 1089   0.614   1.984   0.117
  356SOL    HW1 1090   0.712   1.962   0.124
  356SOL    HW2 1091   0.583   1.967   0.024
  357SOL     OW 1092   0.781   2.126   1.749
  357SOL    HW1 1093   0.848   2.065   1.792
  357SOL    HW2 1094   0.708   2.145   1.814
  358SOL     OW 1095   1.351   2.452   1.433
  358SOL    HW1 1096   1.379   2.409   1.518
  358SOL    HW2 1097   1.376   2.548   1.434
  359SOL     OW 1098   0.922   2.365   0.899
  359SOL    HW1 1099   0.897   2.356   0.803
  359SOL    HW2 1100   0.970   2.283   0.930
  360SOL     OW 1101   0.539   1.926   0.512
  360SOL    HW1 1102   0.458   1.927   0.570
  360SOL    HW2 1103   0.542   2.009   0.457
  361SOL     OW 1104   0.935   2.098   0.480
  361SOL    HW1 1105   0.887   2.139   0.402
  361SOL    HW2 1106   1.034   2.096   0.461
  362SOL     OW 1107   1.076   2.545   1.464
  362SOL    HW1 1108   0.996   2.484   1.467
  362SOL    HW2 1109   1.157   2.492   1.440
  363SOL     OW 1110   1.032   2.411   0.016
  363SOL    HW1 1111   0.991   2.493  -0.023
  363SOL    HW2 1112   1.096   2.437   0.089
  364SOL     OW 1113   0.078   2.418   1.386
  364SOL    HW1 1114   0.170   2.417   1.345
  364SOL    HW2 1115   0.072   2.492   1.453
  365SOL     OW 1116   0.561   2.084   1.147
  365SOL    HW1 1117   0.599   2.000   1.184
  365SOL    HW2 1118   0.473   2.103   1.191
  366SOL     OW 1119   0.866   2.316   0.642
  366SOL    HW1 1120   0.834   2.388   0.580
  366SOL    HW2 1121   0.890   2.235   0.589
  367SOL     OW 1122   1.017   1.901   0.753
  367SOL    HW1 1123   0.945   1.906   0.684
  367SOL    HW2 1124   0.993   1.832   0.822
  368SOL     OW 1125   1.466   2.452   0.992
  368SOL    HW1 1126   1.436   2.357   0.999
  368SOL    HW2 1127   1.539   2.468   1.058
  369SOL     OW 1128   1.857   2.695   0.377
  369SOL    HW1 1129   1.899   2.631   0.441
  369SOL    HW2 1130   1.819   2.644   0.299
  370SOL     OW 1131   1.390   2.437   0.078
  370SOL    HW1 1132   1.336   2.416   0.159
  370SOL    HW2 1133   1.481   2.396   0.087
  371SOL     OW 1134   0.527   2.118   0.328
  371SOL    HW1 1135   0.554   2.059   0.253
  371SOL    HW2 1136   0.527   2.213   0.297
  372SOL     OW 1137   1.638   2.961   1.079
  372SOL    HW1 1138   1.643   3.042   1.138
  372SOL    HW2 1139   1.552   2.963   1.028
  373SOL     OW 1140   0.915   1.951   1.402
  373SOL    HW1 1141   0.940   1.931   1.307
  373SOL    HW2 1142   0.987   2.007   1.444
  374SOL     OW 1143   0.410   2.675   1.251
  374SOL    HW1 1144   0.496   2.687   1.301
  374SOL    HW2 1145   0.368   2.588   1.278
  375SOL     OW 1146   1.274   2.248   1.262
  375SOL    HW1 1147   1.295   2.322   1.326
  375SOL    HW2 1148   1.185   2.265   1.219
  376SOL     OW 1149   0.566   2.399   0.865
  376SOL    HW1 1150   0.578   2.465   0.791
  376SOL    HW2 1151   0.612   2.433   0.948
  377SOL     OW 1152   1.582   2.501   0.472
  377SOL    HW1 1153   1.551   2.562   0.545
  377SOL    HW2 1154   1.632   2.553   0.403
  378SOL     OW 1155   0.402   2.613   1.598
  378SOL    HW1 1156   0.470   2.668   1.551
  378SOL    HW2 1157   0.442   2.525   1.625
  379SOL     OW 1158   1.587   2.641   1.670
  379SOL    HW1 1159   1.495   2.679   1.665
  379SOL    HW2 1160   1.647   2.688   1.605
  380SOL     OW 1161   1.013   1.967   1.770
  380SOL    HW1 1162   1.019   2.052   1.718
  380SOL    HW2 1163   1.045   1.891   1.713
  381SOL     OW 1164   0.504   1.912   1.740
  381SOL    HW1 1165   0.462   1.855   1.670
  381SOL    HW2 1166   0.438   1.981   1.772
  382SOL     OW 1167   0.573   2.732   1.029
  382SOL    HW1 1168   0.617   2.821   1.020
  382SOL    HW2 1169   0.510   2.732   1.106
  383SOL     OW 1170   1.360   2.724   1.045
  383SOL    HW1 1171   1.285   2.724   0.979
  383SOL    HW2 1172   1.397   2.632   1.054
  384SOL     OW 1173   1.209   2.387   0.275
  384SOL    HW1 1174   1.222   2.303   0.329
  384SOL    HW2 1175   1.180   2.461   0.335
  385SOL     OW 1176   0.307   2.075   1.231
  385SOL    HW1 1177   0.284   2.112   1.321
  385SOL    HW2 1178   0.277   1.980   1.225
  386SOL     OW 1179   0.037   3.172   1.282
  386SOL    HW1 1180   0.090   3.123   1.350
  386SOL    HW2 1181   0.059   3.270   1.287
  387SOL     OW 1182   0.732   2.496   1.064
  387SOL    HW1 1183   0.791   2.470   0.988
  387SOL    HW2 1184   0.704   2.592   1.053
  388SOL     OW 1185   1.728   2.797   1.854
  388SOL    HW1 1186   1.682   2.790   1.765
  388SOL    HW2 1187   1.666   2.841   1.920
  389SOL     OW 1188   0.307   1.925   0.618
  389SOL    HW1 1189   0.296   2.019   0.651
  389SOL    HW2 1190   0.302   1.862   0.695
  390SOL     OW 1191   1.622   2.229   0.374
  390SOL    HW1 1192   1.624   2.153   0.438
  390SOL    HW2 1193   1.574   2.306   0.414
  391SOL     OW 1194   1.023   2.628   0.966
  391SOL    HW1 1195   1.038   2.649   1.062
  391SOL    HW2 1196   0.993   2.533   0.957
  392SOL     OW 1197   0.350   2.760   1.804
  392SOL    HW1 1198   0.426   2.804   1.852
  392SOL    HW2 1199   0.385   2.713   1.722
  393SOL     OW 1200   1.540   2.136   0.125
  393SOL    HW1 1201   1.479   2.061   0.148
  393SOL    HW2 1202   1.562   2.188   0.208
  394SOL     OW 1203   1.303   2.700   0.042
  394SOL    HW1 1204   1.337   2.607   0.057
  394SOL    HW2 1205   1.321   2.727  -0.053
  395SOL     OW 1206   0.319   2.672   0.949
  395SOL    HW1 1207   0.412   2.708   0.954
  395SOL    HW2 1208   0.313   2.587   1.001
  396SOL     OW 1209   0.339   2.371   1.006
  396SOL    HW1 1210   0.287   2.288   0.989
  396SOL    HW2 1211   0.416   2.376   0.942
  397SOL     OW 1212   1.138   2.242   1.678
  397SOL    HW1 1213   1.093   2.305   1.742
  397SOL    HW2 1214   1.231   2.273   1.661
  398SOL     OW 1215   1.160   2.069   1.477
  398SOL    HW1 1216   1.160   2.133   1.554
  398SOL    HW2 1217   1.188   2.117   1.394
  399SOL     OW 1218   1.002   2.658   1.238
  399SOL    HW1 1219   1.043   2.626   1.324
  399SOL    HW2 1220   0.906   2.631   1.235
  400SOL     OW 1221   0.040   2.406   1.114
  400SOL    HW1 1222   0.125   2.373   1.073
  400SOL    HW2 1223   0.053   2.421   1.212
  401SOL     OW 1224   0.189   2.382   1.722
  401SOL    HW1 1225   0.248   2.342   1.652
  401SOL    HW2 1226   0.131   2.453   1.681
  402SOL     OW 1227   1.369   2.812   1.660
  402SOL    HW1 1228   1.408   2.901   1.680
  402SOL    HW2 1229   1.379   2.792   1.563
  403SOL     OW 1230   0.815   2.434   0.325
  403SOL    HW1 1231   0.822   2.345   0.279
  403SOL    HW2 1232   0.721   2.468   0.317
  404SOL     OW 1233   1.657   2.466   1.206
  404SOL    HW1 1234   1.619   2.397   1.268
  404SOL    HW2 1235   1.739   2.430   1.162
  405SOL     OW 1236   0.671   2.326   1.269
  405SOL    HW1 1237   0.637   2.237   1.239
  405SOL    HW2 1238   0.697   2.380   1.189
  406SOL     OW 1239   0.473   2.362   0.191
  406SOL    HW1 1240   0.534   2.442   0.195
  406SOL    HW2 1241   0.378   2.393   0.198
  407SOL     OW 1242   0.159   2.999   1.466
  407SOL    HW1 1243   0.181   2.938   1.542
  407SOL    HW2 1244   0.169   2.950   1.380
  408SOL     OW 1245   1.347   2.921   1.234
  408SOL    HW1 1246   1.371   2.858   1.160
  408SOL    HW2 1247   1.257   2.961   1.216
  409SOL     OW 1248   1.302   2.717   0.309
  409SOL    HW1 1249   1.216   2.686   0.351
  409SOL    HW2 1250   1.298   2.703   0.210
  410SOL     OW 1251   0.903   1.948   0.133
  410SOL    HW1 1252   0.954   1.949   0.047
  410SOL    HW2 1253   0.959   1.906   0.204
  411SOL     OW 1254   1.726   1.997   0.523
  411SOL    HW1 1255   1.799   1.980   0.456
  411SOL    HW2 1256   1.695   1.910   0.561
  412SOL     OW 1257   1.280   2.789   0.672
  412SOL    HW1 1258   1.340   2.708   0.674
  412SOL    HW2 1259   1.320   2.858   0.612
  413SOL     OW 1260   1.841   2.037   0.963
  413SOL    HW1 1261   1.880   1.952   0.927
  413SOL    HW2 1262   1.743   2.039   0.944
  414SOL     OW 1263   0.263   2.188   0.720
  414SOL    HW1 1264   0.184   2.239   0.686
  414SOL    HW2 1265   0.254   2.173   0.818
  415SOL     OW 1266   0.916   2.772   0.291
  415SOL    HW1 1267   0.979   2.810   0.223
  415SOL    HW2 1268   0.956   2.689   0.330
  416SOL     OW 1269   1.014   2.098   0.971
  416SOL    HW1 1270   1.006   2.062   0.878
  416SOL    HW2 1271   1.012   2.022   1.036
  417SOL     OW 1272   1.709   2.247   1.381
  417SOL    HW1 1273   1.782   2.316   1.385
  417SOL    HW2 1274   1.737   2.172   1.322
  418SOL     OW 1275   0.105   2.875   1.726
  418SOL    HW1 1276   0.028   2.842   1.780
  418SOL    HW2 1277   0.190   2.845   1.768
  419SOL     OW 1278   0.672   2.065   1.489
  419SOL    HW1 1279   0.762   2.049   1.449
  419SOL    HW2 1280   0.680   2.070   1.588
  420SOL     OW 1281   0.075   2.207   0.033
  420SOL    HW1 1282  -0.017   2.179   0.004
  420SOL    HW2 1283   0.106   2.284  -0.023
  421SOL     OW 1284   1.440   2.718   1.398
  421SOL    HW1 1285   1.383   2.770   1.335
  421SOL    HW2 1286   1.536   2.730   1.374
  422SOL     OW 1287   0.072   2.028   0.318
  422SOL    HW1 1288   0.055   2.111   0.264
  422SOL    HW2 1289   0.162   1.991   0.296
  423SOL     OW 1290   0.613   2.704   1.431
  423SOL    HW1 1291   0.669   2.785   1.414
  423SOL    HW2 1292   0.672   2.624   1.434
  424SOL     OW 1293   0.716   2.427   1.708
  424SOL    HW1 1294   0.735   2.492   1.782
  424SOL    HW2 1295   0.776   2.347   1.717
  425SOL     OW 1296   1.674   2.745   1.254
  425SOL    HW1 1297   1.647   2.656   1.217
  425SOL    HW2 1298   1.675   2.813   1.181
  426SOL     OW 1299   1.225   2.187   0.449
  426SOL    HW1 1300   1.290   2.113   0.438
  426SOL    HW2 1301   1.245   2.237   0.533
  427SOL     OW 1302   0.594   2.607   0.652
  427SOL    HW1 1303   0.644   2.692   0.633
  427SOL    HW2 1304   0.506   2.609   0.604
  428SOL     OW 1305   1.777   2.204   1.642
  428SOL    HW1 1306   1.760   2.235   1.548
  428SOL    HW2 1307   1.693   2.167   1.680
  429SOL     OW 1308   1.730   2.796   1.517
  429SOL    HW1 1309   1.768   2.887   1.532
  429SOL    HW2 1310   1.722   2.779   1.418
  430SOL     OW 1311   0.859   2.818   0.861
  430SOL    HW1 1312   0.913   2.749   0.909
  430SOL    HW2 1313   0.827   2.887   0.927
  431SOL     OW 1314   1.083   2.846   0.087
  431SOL    HW1 1315   1.060   2.899   0.005
  431SOL    HW2 1316   1.164   2.790   0.068
  432SOL     OW 1317   0.079   3.102   0.653
  432SOL    HW1 1318   0.078   3.055   0.741
  432SOL    HW2 1319   0.161   3.074   0.602
  433SOL     OW 1320   1.824   2.054   1.227
  433SOL    HW1 1321   1.820   1.964   1.271
  433SOL    HW2 1322   1.827   2.043   1.128
  434SOL     OW 1323   0.428   2.286   0.520
  434SOL    HW1 1324   0.458   2.214   0.458
  434SOL    HW2 1325   0.389   2.246   0.603
  435SOL     OW 1326   0.317   2.409   1.280
  435SOL    HW1 1327   0.355   2.350   1.352
  435SOL    HW2 1328   0.357   2.383   1.192
  436SOL     OW 1329   1.424   2.076   1.112
  436SOL    HW1 1330   1.476   2.011   1.167
  436SOL    HW2 1331   1.375   2.139   1.173
  437SOL     OW 1332   1.001   1.896   1.154
  437SOL    HW1 1333   0.938   1.824   1.123
  437SOL    HW2 1334   1.094   1.860   1.154
  438SOL     OW 1335   1.352   1.914   0.168
  438SOL    HW1 1336   1.387   1.873   0.084
  438SOL    HW2 1337   1.262   1.876   0.188
  439SOL     OW 1338   1.300   2.315   0.691
  439SOL    HW1 1339   1.241   2.395   0.695
  439SOL    HW2 1340   1.315   2.280   0.784
  440SOL     OW 1341   1.593   2.083   0.882
  440SOL    HW1 1342   1.509   2.082   0.936
  440SOL    HW2 1343   1.595   2.166   0.826
  441SOL     OW 1344   0.230   2.490   1.975
  441SOL    HW1 1345   0.137   2.488   2.012
  441SOL    HW2 1346   0.231   2.451   1.883
  442SOL     OW 1347   0.225   2.137   2.858
  442SOL    HW1 1348   0.260   2.120   2.950
  442SOL    HW2 1349   0.137   2.092   2.846
  443SOL     OW 1350   0.019   2.230   2.509
  443SOL    HW1 1351  -0.063   2.273   2.548
  443SOL    HW2 1352  -0.009   2.157   2.446
  444SOL     OW 1353   1.135   2.565   2.579
  444SOL    HW1 1354   1.192   2.643   2.554
  444SOL    HW2 1355   1.075   2.591   2.655
  445SOL     OW 1356   1.755   2.469   2.093
  445SOL    HW1 1357   1.743   2.456   1.994
  445SOL    HW2 1358   1.725   2.388   2.142
  446SOL     OW 1359   0.685   2.874   2.527
  446SOL    HW1 1360   0.754   2.858   2.597
  446SOL    HW2 1361   0.612   2.931   2.565
  447SOL     OW 1362   1.603   2.309   2.599
  447SOL    HW1 1363   1.529   2.355   2.549
  447SOL    HW2 1364   1.654   2.377   2.652
  448SOL     OW 1365   0.240   2.953   2.748
  448SOL    HW1 1366   0.254   2.869   2.800
  448SOL    HW2 1367   0.185   3.017   2.803
  449SOL     OW 1368   0.122   2.505   2.425
  449SOL    HW1 1369   0.077   2.417   2.442
  449SOL    HW2 1370   0.121   2.559   2.509
  450SOL     OW 1371   0.809   1.866   2.364
  450SOL    HW1 1372   0.849   1.957   2.355
  450SOL    HW2 1373   0.709   1.874   2.370
  451SOL     OW 1374   1.525   2.861   2.052
  451SOL    HW1 1375   1.462   2.785   2.065
  451SOL    HW2 1376   1.573   2.879   2.138
  452SOL     OW 1377   0.598   2.591   2.132
  452SOL    HW1 1378   0.622   2.660   2.064
  452SOL    HW2 1379   0.520   2.624   2.186
  453SOL     OW 1380   1.281   2.207   2.806
  453SOL    HW1 1381   1.195   2.157   2.793
  453SOL    HW2 1382   1.343   2.153   2.862
  454SOL     OW 1383   1.041   2.563   2.291
  454SOL    HW1 1384   1.067   2.559   2.387
  454SOL    HW2 1385   0.956   2.512   2.277
  455SOL     OW 1386   0.076   2.673   2.651
  455SOL    HW1 1387   0.175   2.661   2.660
  455SOL    HW2 1388   0.052   2.768   2.672
  456SOL     OW 1389   0.865   2.210   2.057
  456SOL    HW1 1390   0.924   2.273   2.008
  456SOL    HW2 1391   0.884   2.116   2.028
  457SOL     OW 1392   0.550   2.058   2.747
  457SOL    HW1 1393   0.545   2.053   2.847
  457SOL    HW2 1394   0.552   2.154   2.718
  458SOL     OW 1395   1.458   2.597   2.590
  458SOL    HW1 1396   1.453   2.532   2.665
  458SOL    HW2 1397   1.538   2.656   2.603
  459SOL     OW 1398   1.400   1.969   2.288
  459SOL    HW1 1399   1.376   1.932   2.198
  459SOL    HW2 1400   1.499   1.985   2.292
  460SOL     OW 1401   0.382   2.562   2.342
  460SOL    HW1 1402   0.427   2.472   2.339
  460SOL    HW2 1403   0.288   2.551   2.375
  461SOL     OW 1404   0.614   1.984   1.979
  461SOL    HW1 1405   0.712   1.962   1.986
  461SOL    HW2 1406   0.583   1.967   1.886
  462SOL     OW 1407   0.922   2.365   2.761
  462SOL    HW1 1408   0.897   2.356   2.665
  462SOL    HW2 1409   0.970   2.283   2.792
  463SOL     OW 1410   0.539   1.926   2.374
  463SOL    HW1 1411   0.458   1.927   2.432
  463SOL    HW2 1412   0.542   2.009   2.319
  464SOL     OW 1413   0.297   1.897   2.033
  464SOL    HW1 1414   0.346   1.981   2.012
  464SOL    HW2 1415   0.359   1.832   2.078
  465SOL     OW 1416   0.935   2.098   2.342
  465SOL    HW1 1417   0.887   2.139   2.264
  465SOL    HW2 1418   1.034   2.096   2.323
  466SOL     OW 1419   1.032   2.411   1.878
  466SOL    HW1 1420   0.991   2.493   1.839
  466SOL    HW2 1421   1.096   2.437   1.951
  467SOL     OW 1422   0.866   2.316   2.504
  467SOL    HW1 1423   0.834   2.388   2.442
  467SOL    HW2 1424   0.890   2.235   2.451
  468SOL     OW 1425   1.017   1.901   2.615
  468SOL    HW1 1426   0.945   1.906   2.546
  468SOL    HW2 1427   0.993   1.832   2.684
  469SOL     OW 1428   1.857   2.695   2.239
  469SOL    HW1 1429   1.899   2.631   2.303
  469SOL    HW2 1430   1.819   2.644   2.161
  470SOL     OW 1431   1.390   2.437   1.940
  470SOL    HW1 1432   1.336   2.416   2.021
  470SOL    HW2 1433   1.481   2.396   1.949
  471SOL     OW 1434   0.527   2.118   2.190
  471SOL    HW1 1435   0.554   2.059   2.115
  471SOL    HW2 1436   0.527   2.213   2.159
  472SOL     OW 1437   1.111   3.057   2.962
  472SOL    HW1 1438   1.071   3.101   3.043
  472SOL    HW2 1439   1.070   3.094   2.879
  473SOL     OW 1440   1.638   2.961   2.941
  473SOL    HW1 1441   1.643   3.042   3.000
  473SOL    HW2 1442   1.552   2.963   2.890
  474SOL     OW 1443   0.566   2.399   2.727
  474SOL    HW1 1444   0.578   2.465   2.653
  474SOL    HW2 1445   0.612   2.433   2.810
  475SOL     OW 1446   1.582   2.501   2.334
  475SOL    HW1 1447   1.551   2.562   2.407
  475SOL    HW2 1448   1.632   2.553   2.265
  476SOL     OW 1449   0.573   2.732   2.891
  476SOL    HW1 1450   0.617   2.821   2.882
  476SOL    HW2 1451   0.510   2.732   2.968
  477SOL     OW 1452   1.209   2.387   2.137
  477SOL    HW1 1453   1.222   2.303   2.191
  477SOL    HW2 1454   1.180   2.461   2.197
  478SOL     OW 1455   0.307   2.075   3.093
  478SOL    HW1 1456   0.284   2.112   3.183
  478SOL    HW2 1457   0.277   1.980   3.087
  479SOL     OW 1458   0.732   2.496   2.926
  479SOL    HW1 1459   0.791   2.470   2.850
  479SOL    HW2 1460   0.704   2.592   2.915
  480SOL     OW 1461   0.307   1.925   2.480
  480SOL    HW1 1462   0.296   2.019   2.513
  480SOL    HW2 1463   0.302   1.862   2.557
  481SOL     OW 1464   1.622   2.229   2.236
  481SOL    HW1 1465   1.624   2.153   2.300
  481SOL    HW2 1466   1.574   2.306   2.276
  482SOL     OW 1467   1.540   2.136   1.987
  482SOL    HW1 1468   1.479   2.061   2.010
  482SOL    HW2 1469   1.562   2.188   2.070
  483SOL     OW 1470   1.303   2.700   1.904
  483SOL    HW1 1471   1.337   2.607   1.919
  483SOL    HW2 1472   1.321   2.727   1.809
  484SOL     OW 1473   0.319   2.672   2.811
  484SOL    HW1 1474   0.412   2.708   2.816
  484SOL    HW2 1475   0.313   2.587   2.863
  485SOL     OW 1476   0.815   2.434   2.187
  485SOL    HW1 1477   0.822   2.345   2.141
  485SOL    HW2 1478   0.721   2.468   2.179
  486SOL     OW 1479   0.671   2.326   3.131
  486SOL    HW1 1480   0.637   2.237   3.101
  486SOL    HW2 1481   0.697   2.380   3.051
  487SOL     OW 1482   0.473   2.362   2.053
  487SOL    HW1 1483   0.534   2.442   2.057
  487SOL    HW2 1484   0.378   2.393   2.060
  488SOL     OW 1485   1.302   2.717   2.171
  488SOL    HW1 1486   1.216   2.686   2.213
  488SOL    HW2 1487   1.298   2.703   2.072
  489SOL     OW 1488   1.726   1.997   2.385
  489SOL    HW1 1489   1.799   1.980   2.318
  489SOL    HW2 1490   1.695   1.910   2.423
  490SOL     OW 1491   1.280   2.789   2.534
  490SOL    HW1 1492   1.340   2.708   2.536
  490SOL    HW2 1493   1.320   2.858   2.474
  491SOL     OW 1494   1.841   2.037   2.825
  491SOL    HW1 1495   1.880   1.952   2.789
  491SOL    HW2 1496   1.743   2.039   2.806
  492SOL     OW 1497   0.263   2.188   2.582
  492SOL    HW1 1498   0.184   2.239   2.548
  492SOL    HW2 1499   0.254   2.173   2.680
  493SOL     OW 1500   0.916   2.772   2.153
  493SOL    HW1 1501   0.979   2.810   2.085
  493SOL    HW2 1502   0.956   2.689   2.192
  494SOL     OW 1503   0.075   2.207   1.895
  494SOL    HW1 1504  -0.017   2.179   1.866
  494SOL    HW2 1505   0.106   2.284   1.839
  495SOL     OW 1506   0.072   2.028   2.180
  495SOL    HW1 1507   0.055   2.111   2.126
  495SOL    HW2 1508   0.162   1.991   2.158
  496SOL     OW 1509   1.674   2.745   3.116
  496SOL    HW1 1510   1.647   2.656   3.079
  496SOL    HW2 1511   1.675   2.813   3.043
  497SOL     OW 1512   1.225   2.187   2.311
  497SOL    HW1 1513   1.290   2.113   2.300
  497SOL    HW2 1514   1.245   2.237   2.395
  498SOL     OW 1515   0.594   2.607   2.514
  498SOL    HW1 1516   0.644   2.692   2.495
  498SOL    HW2 1517   0.506   2.609   2.466
  499SOL     OW 1518   0.859   2.818   2.723
  499SOL    HW1 1519   0.913   2.749   2.771
  499SOL    HW2 1520   0.827   2.887   2.789
  500SOL     OW 1521   1.083   2.846   1.949
  500SOL    HW1 1522   1.060   2.899   1.867
  500SOL    HW2 1523   1.164   2.790   1.930
  501SOL     OW 1524   0.079   3.102   2.515
  501SOL    HW1 1525   0.078   3.055   2.603
  501SOL    HW2 1526   0.161   3.074   2.464
  502SOL     OW 1527   1.824   2.054   3.089
  502SOL    HW1 1528   1.820   1.964   3.133
  502SOL    HW2 1529   1.827   2.043   2.990
  503SOL     OW 1530   0.428   2.286   2.382
  503SOL    HW1 1531   0.458   2.214   2.320
  503SOL    HW2 1532   0.389   2.246   2.465
  504SOL     OW 1533   1.352   1.914   2.030
  504SOL    HW1 1534   1.387   1.873   1.946
  504SOL    HW2 1535   1.262   1.876   2.050
  505SOL     OW 1536   1.300   2.315   2.553
  505SOL    HW1 1537   1.241   2.395   2.557
  505SOL    HW2 1538   1.315   2.280   2.646
  506SOL     OW 1539   1.593   2.083   2.744
  506SOL    HW1 1540   1.509   2.082   2.798
  506SOL    HW2 1541   1.595   2.166   2.688
  507SOL     OW 1542   2.092   0.628   0.113
  507SOL    HW1 1543   1.999   0.626   0.150
  507SOL    HW2 1544   2.093   0.589   0.021
  508SOL     OW 1545   2.087   0.275   0.996
  508SOL    HW1 1546   2.122   0.258   1.088
  508SOL    HW2 1547   1.999   0.230   0.984
  509SOL     OW 1548   1.881   0.368   0.647
  509SOL    HW1 1549   1.799   0.411   0.686
  509SOL    HW2 1550   1.853   0.295   0.584
  510SOL     OW 1551   2.431   1.275   1.165
  510SOL    HW1 1552   2.338   1.268   1.128
  510SOL    HW2 1553   2.442   1.364   1.209
  511SOL     OW 1554   2.630   1.144   1.023
  511SOL    HW1 1555   2.552   1.161   1.083
  511SOL    HW2 1556   2.664   1.231   0.987
  512SOL     OW 1557   2.712   0.798   1.823
  512SOL    HW1 1558   2.708   0.874   1.888
  512SOL    HW2 1559   2.734   0.834   1.732
  513SOL     OW 1560   2.547   1.012   0.665
  513SOL    HW1 1561   2.616   0.996   0.735
  513SOL    HW2 1562   2.474   1.069   0.703
  514SOL     OW 1563   2.548   1.161   1.803
  514SOL    HW1 1564   2.608   1.240   1.817
  514SOL    HW2 1565   2.462   1.192   1.762
  515SOL     OW 1566   2.197   1.435   1.061
  515SOL    HW1 1567   2.119   1.404   1.008
  515SOL    HW2 1568   2.255   1.493   1.004
  516SOL     OW 1569   2.300   0.392   1.499
  516SOL    HW1 1570   2.382   0.336   1.508
  516SOL    HW2 1571   2.219   0.334   1.503
  517SOL     OW 1572   2.093   1.713   0.483
  517SOL    HW1 1573   2.127   1.790   0.537
  517SOL    HW2 1574   2.137   1.713   0.393
  518SOL     OW 1575   2.092   1.434   0.538
  518SOL    HW1 1576   2.066   1.530   0.538
  518SOL    HW2 1577   2.021   1.380   0.583
  519SOL     OW 1578   2.102   1.091   0.886
  519SOL    HW1 1579   2.116   1.007   0.938
  519SOL    HW2 1580   2.047   1.155   0.941
  520SOL     OW 1581   2.482   1.786   1.439
  520SOL    HW1 1582   2.390   1.769   1.474
  520SOL    HW2 1583   2.510   1.878   1.465
  521SOL     OW 1584   2.468   0.964   0.123
  521SOL    HW1 1585   2.475   1.048   0.069
  521SOL    HW2 1586   2.514   0.977   0.211
  522SOL     OW 1587   1.984   0.643   0.563
  522SOL    HW1 1588   1.939   0.555   0.580
  522SOL    HW2 1589   1.983   0.697   0.647
  523SOL     OW 1590   1.889   1.596   0.117
  523SOL    HW1 1591   1.870   1.500   0.138
  523SOL    HW2 1592   1.856   1.654   0.192
  524SOL     OW 1593   1.975   0.737   1.597
  524SOL    HW1 1594   2.063   0.724   1.642
  524SOL    HW2 1595   1.962   0.834   1.575
  525SOL     OW 1596   2.475   1.365   0.726
  525SOL    HW1 1597   2.426   1.278   0.735
  525SOL    HW2 1598   2.452   1.408   0.639
  526SOL     OW 1599   2.671   0.004   0.502
  526SOL    HW1 1600   2.711   0.095   0.493
  526SOL    HW2 1601   2.571   0.012   0.508
  527SOL     OW 1602   2.059   0.976   1.264
  527SOL    HW1 1603   2.148   0.931   1.250
  527SOL    HW2 1604   1.986   0.911   1.245
  528SOL     OW 1605   2.179   0.251   1.801
  528SOL    HW1 1606   2.250   0.322   1.807
  528SOL    HW2 1607   2.091   0.290   1.829
  529SOL     OW 1608   2.460   0.729   0.270
  529SOL    HW1 1609   2.484   0.798   0.202
  529SOL    HW2 1610   2.382   0.762   0.324
  530SOL     OW 1611   2.669   0.605   1.465
  530SOL    HW1 1612   2.622   0.602   1.554
  530SOL    HW2 1613   2.618   0.550   1.399
  531SOL     OW 1614   2.835   0.890   1.572
  531SOL    HW1 1615   2.881   0.806   1.543
  531SOL    HW2 1616   2.779   0.924   1.497
  532SOL     OW 1617   1.938   0.811   0.789
  532SOL    HW1 1618   2.037   0.799   0.798
  532SOL    HW2 1619   1.914   0.906   0.810
  533SOL     OW 1620   2.727   0.348   0.195
  533SOL    HW1 1621   2.786   0.411   0.146
  533SOL    HW2 1622   2.746   0.254   0.166
  534SOL     OW 1623   2.412   0.196   0.885
  534SOL    HW1 1624   2.407   0.191   0.985
  534SOL    HW2 1625   2.414   0.292   0.856
  535SOL     OW 1626   2.870   1.456   0.477
  535SOL    HW1 1627   2.824   1.528   0.425
  535SOL    HW2 1628   2.866   1.476   0.575
  536SOL     OW 1629   2.213   1.801   0.853
  536SOL    HW1 1630   2.263   1.715   0.859
  536SOL    HW2 1631   2.278   1.878   0.850
  537SOL     OW 1632   2.183   0.943   0.242
  537SOL    HW1 1633   2.265   0.982   0.200
  537SOL    HW2 1634   2.156   0.861   0.193
  538SOL     OW 1635   2.323   1.266   1.727
  538SOL    HW1 1636   2.273   1.267   1.641
  538SOL    HW2 1637   2.260   1.248   1.803
  539SOL     OW 1638   2.064   0.285   1.498
  539SOL    HW1 1639   1.984   0.345   1.485
  539SOL    HW2 1640   2.054   0.236   1.584
  540SOL     OW 1641   2.326   1.743   0.323
  540SOL    HW1 1642   2.359   1.782   0.409
  540SOL    HW2 1643   2.402   1.736   0.258
  541SOL     OW 1644   2.111   1.785   1.241
  541SOL    HW1 1645   2.168   1.720   1.291
  541SOL    HW2 1646   2.095   1.752   1.148
  542SOL     OW 1647   2.244   0.700   0.480
  542SOL    HW1 1648   2.289   0.610   0.477
  542SOL    HW2 1649   2.150   0.689   0.513
  543SOL     OW 1650   2.476   0.122   0.117
  543SOL    HW1 1651   2.574   0.100   0.124
  543SOL    HW2 1652   2.445   0.105   0.024
  544SOL     OW 1653   2.643   0.264   1.749
  544SOL    HW1 1654   2.710   0.203   1.792
  544SOL    HW2 1655   2.570   0.283   1.814
  545SOL     OW 1656   2.750   1.514   1.195
  545SOL    HW1 1657   2.727   1.489   1.101
  545SOL    HW2 1658   2.811   1.445   1.234
  546SOL     OW 1659   2.665   1.402   0.924
  546SOL    HW1 1660   2.755   1.416   0.882
  546SOL    HW2 1661   2.594   1.404   0.853
  547SOL     OW 1662   2.784   0.503   0.899
  547SOL    HW1 1663   2.759   0.494   0.803
  547SOL    HW2 1664   2.832   0.421   0.930
  548SOL     OW 1665   2.401   0.064   0.512
  548SOL    HW1 1666   2.320   0.065   0.570
  548SOL    HW2 1667   2.404   0.147   0.457
  549SOL     OW 1668   2.159   0.035   0.171
  549SOL    HW1 1669   2.208   0.119   0.150
  549SOL    HW2 1670   2.221  -0.030   0.216
  550SOL     OW 1671   2.797   0.236   0.480
  550SOL    HW1 1672   2.749   0.277   0.402
  550SOL    HW2 1673   2.896   0.234   0.461
  551SOL     OW 1674   3.089   1.570   0.793
  551SOL    HW1 1675   3.110   1.644   0.728
  551SOL    HW2 1676   3.157   1.570   0.866
  552SOL     OW 1677   2.321   1.152   0.741
  552SOL    HW1 1678   2.250   1.125   0.806
  552SOL    HW2 1679   2.295   1.124   0.648
  553SOL     OW 1680   1.940   0.556   1.386
  553SOL    HW1 1681   2.032   0.555   1.345
  553SOL    HW2 1682   1.934   0.630   1.453
  554SOL     OW 1683   2.423   0.222   1.147
  554SOL    HW1 1684   2.461   0.138   1.184
  554SOL    HW2 1685   2.335   0.241   1.191
  555SOL     OW 1686   2.350   1.385   0.174
  555SOL    HW1 1687   2.263   1.370   0.221
  555SOL    HW2 1688   2.333   1.411   0.079
  556SOL     OW 1689   2.389   0.256   0.328
  556SOL    HW1 1690   2.416   0.197   0.253
  556SOL    HW2 1691   2.389   0.351   0.297
  557SOL     OW 1692   2.777   0.089   1.402
  557SOL    HW1 1693   2.802   0.069   1.307
  557SOL    HW2 1694   2.849   0.145   1.444
  558SOL     OW 1695   2.842   1.116   1.719
  558SOL    HW1 1696   2.743   1.122   1.729
  558SOL    HW2 1697   2.865   1.036   1.663
  559SOL     OW 1698   2.567   1.050   0.368
  559SOL    HW1 1699   2.553   1.057   0.467
  559SOL    HW2 1700   2.651   0.999   0.350
  560SOL     OW 1701   2.272   0.813   1.251
  560SOL    HW1 1702   2.358   0.825   1.301
  560SOL    HW2 1703   2.230   0.726   1.278
  561SOL     OW 1704   1.926   1.564   1.331
  561SOL    HW1 1705   1.880   1.646   1.297
  561SOL    HW2 1706   2.024   1.583   1.340
  562SOL     OW 1707   2.229   1.100   0.501
  562SOL    HW1 1708   2.222   1.183   0.445
  562SOL    HW2 1709   2.233   1.020   0.441
  563SOL     OW 1710   2.428   0.537   0.865
  563SOL    HW1 1711   2.440   0.603   0.791
  563SOL    HW2 1712   2.474   0.571   0.948
  564SOL     OW 1713   2.216   1.510   1.329
  564SOL    HW1 1714   2.195   1.466   1.242
  564SOL    HW2 1715   2.313   1.536   1.332
  565SOL     OW 1716   2.264   0.751   1.598
  565SOL    HW1 1717   2.332   0.806   1.551
  565SOL    HW2 1718   2.304   0.663   1.625
  566SOL     OW 1719   2.366   0.050   1.740
  566SOL    HW1 1720   2.324  -0.007   1.670
  566SOL    HW2 1721   2.300   0.119   1.772
  567SOL     OW 1722   2.435   0.870   1.029
  567SOL    HW1 1723   2.479   0.959   1.020
  567SOL    HW2 1724   2.372   0.870   1.106
  568SOL     OW 1725   3.071   0.525   0.275
  568SOL    HW1 1726   3.084   0.441   0.329
  568SOL    HW2 1727   3.042   0.599   0.335
  569SOL     OW 1728   2.169   0.213   1.231
  569SOL    HW1 1729   2.146   0.250   1.321
  569SOL    HW2 1730   2.139   0.118   1.225
  570SOL     OW 1731   1.899   1.310   1.282
  570SOL    HW1 1732   1.952   1.261   1.350
  570SOL    HW2 1733   1.921   1.408   1.287
  571SOL     OW 1734   2.594   0.634   1.064
  571SOL    HW1 1735   2.653   0.608   0.988
  571SOL    HW2 1736   2.566   0.730   1.053
  572SOL     OW 1737   2.169   0.063   0.618
  572SOL    HW1 1738   2.158   0.157   0.651
  572SOL    HW2 1739   2.164   0.000   0.695
  573SOL     OW 1740   2.885   0.766   0.966
  573SOL    HW1 1741   2.900   0.787   1.062
  573SOL    HW2 1742   2.855   0.671   0.957
  574SOL     OW 1743   2.842   1.573   1.700
  574SOL    HW1 1744   2.822   1.617   1.612
  574SOL    HW2 1745   2.881   1.482   1.684
  575SOL     OW 1746   2.212   0.898   1.804
  575SOL    HW1 1747   2.288   0.942   1.852
  575SOL    HW2 1748   2.247   0.851   1.722
  576SOL     OW 1749   2.181   0.810   0.949
  576SOL    HW1 1750   2.274   0.846   0.954
  576SOL    HW2 1751   2.175   0.725   1.001
  577SOL     OW 1752   2.201   0.509   1.006
  577SOL    HW1 1753   2.149   0.426   0.989
  577SOL    HW2 1754   2.278   0.514   0.942
  578SOL     OW 1755   1.870   1.326   0.200
  578SOL    HW1 1756   1.777   1.347   0.169
  578SOL    HW2 1757   1.880   1.227   0.213
  579SOL     OW 1758   1.950   1.801   0.927
  579SOL    HW1 1759   1.908   1.715   0.900
  579SOL    HW2 1760   2.044   1.804   0.893
  580SOL     OW 1761   2.366   1.568   0.910
  580SOL    HW1 1762   2.432   1.642   0.919
  580SOL    HW2 1763   2.410   1.489   0.868
  581SOL     OW 1764   2.864   0.796   1.238
  581SOL    HW1 1765   2.905   0.764   1.324
  581SOL    HW2 1766   2.768   0.769   1.235
  582SOL     OW 1767   1.902   0.544   1.114
  582SOL    HW1 1768   1.987   0.511   1.073
  582SOL    HW2 1769   1.915   0.559   1.212
  583SOL     OW 1770   2.051   0.520   1.722
  583SOL    HW1 1771   2.110   0.480   1.652
  583SOL    HW2 1772   1.993   0.591   1.681
  584SOL     OW 1773   2.677   0.572   0.325
  584SOL    HW1 1774   2.684   0.483   0.279
  584SOL    HW2 1775   2.583   0.606   0.317
  585SOL     OW 1776   2.114   1.564   1.744
  585SOL    HW1 1777   2.084   1.621   1.820
  585SOL    HW2 1778   2.107   1.467   1.770
  586SOL     OW 1779   2.533   0.464   1.269
  586SOL    HW1 1780   2.499   0.375   1.239
  586SOL    HW2 1781   2.559   0.518   1.189
  587SOL     OW 1782   2.792   1.678   1.465
  587SOL    HW1 1783   2.768   1.660   1.370
  587SOL    HW2 1784   2.822   1.772   1.475
  588SOL     OW 1785   2.335   0.500   0.191
  588SOL    HW1 1786   2.396   0.580   0.195
  588SOL    HW2 1787   2.240   0.531   0.198
  589SOL     OW 1788   2.021   1.137   1.466
  589SOL    HW1 1789   2.043   1.076   1.542
  589SOL    HW2 1790   2.031   1.088   1.380
  590SOL     OW 1791   1.945   1.258   1.022
  590SOL    HW1 1792   1.940   1.257   1.122
  590SOL    HW2 1793   1.862   1.217   0.984
  591SOL     OW 1794   2.550   1.662   1.716
  591SOL    HW1 1795   2.494   1.743   1.725
  591SOL    HW2 1796   2.602   1.666   1.630
  592SOL     OW 1797   2.765   0.086   0.133
  592SOL    HW1 1798   2.816   0.087   0.047
  592SOL    HW2 1799   2.821   0.044   0.204
  593SOL     OW 1800   1.992   1.794   1.851
  593SOL    HW1 1801   1.951   1.720   1.904
  593SOL    HW2 1802   2.056   1.845   1.909
  594SOL     OW 1803   3.142   0.927   0.672
  594SOL    HW1 1804   3.202   0.846   0.674
  594SOL    HW2 1805   3.182   0.996   0.612
  595SOL     OW 1806   2.692   1.273   1.422
  595SOL    HW1 1807   2.687   1.306   1.517
  595SOL    HW2 1808   2.606   1.292   1.376
  596SOL     OW 1809   2.534   1.616   0.154
  596SOL    HW1 1810   2.543   1.626   0.055
  596SOL    HW2 1811   2.494   1.527   0.175
  597SOL     OW 1812   2.125   0.326   0.720
  597SOL    HW1 1813   2.046   0.377   0.686
  597SOL    HW2 1814   2.116   0.311   0.818
  598SOL     OW 1815   2.684   1.002   1.372
  598SOL    HW1 1816   2.724   1.001   1.280
  598SOL    HW2 1817   2.694   1.094   1.412
  599SOL     OW 1818   2.778   0.910   0.291
  599SOL    HW1 1819   2.841   0.948   0.223
  599SOL    HW2 1820   2.818   0.827   0.330
  600SOL     OW 1821   2.234   1.288   1.490
  600SOL    HW1 1822   2.221   1.381   1.456
  600SOL    HW2 1823   2.150   1.236   1.477
  601SOL     OW 1824   2.876   0.236   0.971
  601SOL    HW1 1825   2.868   0.200   0.878
  601SOL    HW2 1826   2.874   0.160   1.036
  602SOL     OW 1827   2.452   1.487   0.491
  602SOL    HW1 1828   2.494   1.429   0.421
  602SOL    HW2 1829   2.408   1.566   0.447
  603SOL     OW 1830   2.117   1.348   0.290
  603SOL    HW1 1831   2.021   1.349   0.263
  603SOL    HW2 1832   2.129   1.401   0.374
  604SOL     OW 1833   1.967   1.013   1.726
  604SOL    HW1 1834   1.890   0.980   1.780
  604SOL    HW2 1835   2.052   0.983   1.768
  605SOL     OW 1836   2.534   0.203   1.489
  605SOL    HW1 1837   2.624   0.187   1.449
  605SOL    HW2 1838   2.542   0.208   1.588
  606SOL     OW 1839   1.937   0.345   0.033
  606SOL    HW1 1840   1.845   0.317   0.004
  606SOL    HW2 1841   1.968   0.422  -0.023
  607SOL     OW 1842   2.475   0.842   1.431
  607SOL    HW1 1843   2.531   0.923   1.414
  607SOL    HW2 1844   2.534   0.762   1.434
  608SOL     OW 1845   2.578   0.565   1.708
  608SOL    HW1 1846   2.597   0.630   1.782
  608SOL    HW2 1847   2.638   0.485   1.717
  609SOL     OW 1848   2.252   1.741   1.560
  609SOL    HW1 1849   2.161   1.782   1.558
  609SOL    HW2 1850   2.245   1.647   1.592
  610SOL     OW 1851   3.087   0.325   0.449
  610SOL    HW1 1852   3.152   0.251   0.438
  610SOL    HW2 1853   3.107   0.375   0.533
  611SOL     OW 1854   2.456   0.745   0.652
  611SOL    HW1 1855   2.506   0.830   0.633
  611SOL    HW2 1856   2.368   0.747   0.604
  612SOL     OW 1857   2.721   1.374   0.016
  612SOL    HW1 1858   2.675   1.389   0.104
  612SOL    HW2 1859   2.765   1.459  -0.014
  613SOL     OW 1860   2.523   1.790   0.953
  613SOL    HW1 1861   2.477   1.878   0.940
  613SOL    HW2 1862   2.622   1.802   0.946
  614SOL     OW 1863   2.721   0.956   0.861
  614SOL    HW1 1864   2.775   0.887   0.909
  614SOL    HW2 1865   2.689   1.025   0.927
  615SOL     OW 1866   2.945   0.984   0.087
  615SOL    HW1 1867   2.922   1.037   0.005
  615SOL    HW2 1868   3.026   0.928   0.068
  616SOL     OW 1869   2.083   1.314   1.844
  616SOL    HW1 1870   2.018   1.241   1.823
  616SOL    HW2 1871   2.087   1.328   1.942
  617SOL     OW 1872   1.941   1.240   0.653
  617SOL    HW1 1873   1.940   1.193   0.741
  617SOL    HW2 1874   2.023   1.212   0.602
  618SOL     OW 1875   2.534   1.391   1.624
  618SOL    HW1 1876   2.456   1.341   1.662
  618SOL    HW2 1877   2.531   1.486   1.655
  619SOL     OW 1878   2.290   0.424   0.520
  619SOL    HW1 1879   2.320   0.352   0.458
  619SOL    HW2 1880   2.251   0.384   0.603
  620SOL     OW 1881   2.179   0.547   1.280
  620SOL    HW1 1882   2.217   0.488   1.352
  620SOL    HW2 1883   2.219   0.521   1.192
  621SOL     OW 1884   2.674   1.586   0.687
  621SOL    HW1 1885   2.706   1.596   0.593
  621SOL    HW2 1886   2.595   1.524   0.689
  622SOL     OW 1887   2.863   0.034   1.154
  622SOL    HW1 1888   2.800  -0.038   1.123
  622SOL    HW2 1889   2.956  -0.002   1.154
  623SOL     OW 1890   2.632   1.330   0.301
  623SOL    HW1 1891   2.586   1.243   0.318
  623SOL    HW2 1892   2.723   1.327   0.342
  624SOL     OW 1893   2.480   1.567   1.284
  624SOL    HW1 1894   2.475   1.649   1.341
  624SOL    HW2 1895   2.569   1.564   1.239
  625SOL     OW 1896   1.901   1.077   0.300
  625SOL    HW1 1897   2.000   1.066   0.291
  625SOL    HW2 1898   1.861   0.991   0.332
  626SOL     OW 1899   2.737   1.646   0.337
  626SOL    HW1 1900   2.660   1.611   0.283
  626SOL    HW2 1901   2.705   1.717   0.399
  627SOL     OW 1902   2.092   0.628   1.975
  627SOL    HW1 1903   1.999   0.626   2.012
  627SOL    HW2 1904   2.093   0.589   1.883
  628SOL     OW 1905   2.087   0.275   2.858
  628SOL    HW1 1906   2.122   0.258   2.950
  628SOL    HW2 1907   1.999   0.230   2.846
  629SOL     OW 1908   1.881   0.368   2.509
  629SOL    HW1 1909   1.799   0.411   2.548
  629SOL    HW2 1910   1.853   0.295   2.446
  630SOL     OW 1911   2.630   1.144   2.885
  630SOL    HW1 1912   2.552   1.161   2.945
  630SOL    HW2 1913   2.664   1.231   2.849
  631SOL     OW 1914   2.547   1.012   2.527
  631SOL    HW1 1915   2.616   0.996   2.597
  631SOL    HW2 1916   2.474   1.069   2.565
  632SOL     OW 1917   2.197   1.435   2.923
  632SOL    HW1 1918   2.119   1.404   2.870
  632SOL    HW2 1919   2.255   1.493   2.866
  633SOL     OW 1920   2.093   1.713   2.345
  633SOL    HW1 1921   2.127   1.790   2.399
  633SOL    HW2 1922   2.137   1.713   2.255
  634SOL     OW 1923   2.092   1.434   2.400
  634SOL    HW1 1924   2.066   1.530   2.400
  634SOL    HW2 1925   2.021   1.380   2.445
  635SOL     OW 1926   2.102   1.091   2.748
  635SOL    HW1 1927   2.116   1.007   2.800
  635SOL    HW2 1928   2.047   1.155   2.803
  636SOL     OW 1929   2.468   0.964   1.985
  636SOL    HW1 1930   2.475   1.048   1.931
  636SOL    HW2 1931   2.514   0.977   2.073
  637SOL     OW 1932   1.984   0.643   2.425
  637SOL    HW1 1933   1.939   0.555   2.442
  637SOL    HW2 1934   1.983   0.697   2.509
  638SOL     OW 1935   1.889   1.596   1.979
  638SOL    HW1 1936   1.870   1.500   2.000
  638SOL    HW2 1937   1.856   1.654   2.054
  639SOL     OW 1938   2.475   1.365   2.588
  639SOL    HW1 1939   2.426   1.278   2.597
  639SOL    HW2 1940   2.452   1.408   2.501
  640SOL     OW 1941   2.671   0.004   2.364
  640SOL    HW1 1942   2.711   0.095   2.355
  640SOL    HW2 1943   2.571   0.012   2.370
  641SOL     OW 1944   2.460   0.729   2.132
  641SOL    HW1 1945   2.484   0.798   2.064
  641SOL    HW2 1946   2.382   0.762   2.186
  642SOL     OW 1947   1.938   0.811   2.651
  642SOL    HW1 1948   2.037   0.799   2.660
  642SOL    HW2 1949   1.914   0.906   2.672
  643SOL     OW 1950   2.727   0.348   2.057
  643SOL    HW1 1951   2.786   0.411   2.008
  643SOL    HW2 1952   2.746   0.254   2.028
  644SOL     OW 1953   2.412   0.196   2.747
  644SOL    HW1 1954   2.407   0.191   2.847
  644SOL    HW2 1955   2.414   0.292   2.718
  645SOL     OW 1956   2.870   1.456   2.339
  645SOL    HW1 1957   2.824   1.528   2.287
  645SOL    HW2 1958   2.866   1.476   2.437
  646SOL     OW 1959   2.213   1.801   2.715
  646SOL    HW1 1960   2.263   1.715   2.721
  646SOL    HW2 1961   2.278   1.878   2.712
  647SOL     OW 1962   2.183   0.943   2.104
  647SOL    HW1 1963   2.265   0.982   2.062
  647SOL    HW2 1964   2.156   0.861   2.055
  648SOL     OW 1965   2.326   1.743   2.185
  648SOL    HW1 1966   2.359   1.782   2.271
  648SOL    HW2 1967   2.402   1.736   2.120
  649SOL     OW 1968   2.111   1.785   3.103
  649SOL    HW1 1969   2.168   1.720   3.153
  649SOL    HW2 1970   2.095   1.752   3.010
  650SOL     OW 1971   2.244   0.700   2.342
  650SOL    HW1 1972   2.289   0.610   2.339
  650SOL    HW2 1973   2.150   0.689   2.375
  651SOL     OW 1974   2.476   0.122   1.979
  651SOL    HW1 1975   2.574   0.100   1.986
  651SOL    HW2 1976   2.445   0.105   1.886
  652SOL     OW 1977   2.784   0.503   2.761
  652SOL    HW1 1978   2.759   0.494   2.665
  652SOL    HW2 1979   2.832   0.421   2.792
  653SOL     OW 1980   2.401   0.064   2.374
  653SOL    HW1 1981   2.320   0.065   2.432
  653SOL    HW2 1982   2.404   0.147   2.319
  654SOL     OW 1983   2.159   0.035   2.033
  654SOL    HW1 1984   2.208   0.119   2.012
  654SOL    HW2 1985   2.221  -0.030   2.078
  655SOL     OW 1986   2.797   0.236   2.342
  655SOL    HW1 1987   2.749   0.277   2.264
  655SOL    HW2 1988   2.896   0.234   2.323
  656SOL     OW 1989   3.089   1.570   2.655
  656SOL    HW1 1990   3.110   1.644   2.590
  656SOL    HW2 1991   3.157   1.570   2.728
  657SOL     OW 1992   2.321   1.152   2.603
  657SOL    HW1 1993   2.250   1.125   2.668
  657SOL    HW2 1994   2.295   1.124   2.510
  658SOL     OW 1995   2.350   1.385   2.036
  658SOL    HW1 1996   2.263   1.370   2.083
  658SOL    HW2 1997   2.333   1.411   1.941
  659SOL     OW 1998   2.389   0.256   2.190
  659SOL    HW1 1999   2.416   0.197   2.115
  659SOL    HW2 2000   2.389   0.351   2.159
  660SOL     OW 2001   2.567   1.050   2.230
  660SOL    HW1 2002   2.553   1.057   2.329
  660SOL    HW2 2003   2.651   0.999   2.212
  661SOL     OW 2004   2.229   1.100   2.363
  661SOL    HW1 2005   2.222   1.183   2.307
  661SOL    HW2 2006   2.233   1.020   2.303
  662SOL     OW 2007   2.428   0.537   2.727
  662SOL    HW1 2008   2.440   0.603   2.653
  662SOL    HW2 2009   2.474   0.571   2.810
  663SOL     OW 2010   2.435   0.870   2.891
  663SOL    HW1 2011   2.479   0.959   2.882
  663SOL    HW2 2012   2.372   0.870   2.968
  664SOL     OW 2013   3.071   0.525   2.137
  664SOL    HW1 2014   3.084   0.441   2.191
  664SOL    HW2 2015   3.042   0.599   2.197
  665SOL     OW 2016   2.594   0.634   2.926
  665SOL    HW1 2017   2.653   0.608   2.850
  665SOL    HW2 2018   2.566   0.730   2.915
  666SOL     OW 2019   2.169   0.063   2.480
  666SOL    HW1 2020   2.158   0.157   2.513
  666SOL    HW2 2021   2.164   0.000   2.557
  667SOL     OW 2022   2.885   0.766   2.828
  667SOL    HW1 2023   2.900   0.787   2.924
  667SOL    HW2 2024   2.855   0.671   2.819
  668SOL     OW 2025   2.181   0.810   2.811
  668SOL    HW1 2026   2.274   0.846   2.816
  668SOL    HW2 2027   2.175   0.725   2.863
  669SOL     OW 2028   1.870   1.326   2.062
  669SOL    HW1 2029   1.777   1.347   2.031
  669SOL    HW2 2030   1.880   1.227   2.075
  670SOL     OW 2031   1.950   1.801   2.789
  670SOL    HW1 2032   1.908   1.715   2.762
  670SOL    HW2 2033   2.044   1.804   2.755
  671SOL     OW 2034   2.366   1.568   2.772
  671SOL    HW1 2035   2.432   1.642   2.781
  671SOL    HW2 2036   2.410   1.489   2.730
  672SOL     OW 2037   2.677   0.572   2.187
  672SOL    HW1 2038   2.684   0.483   2.141
  672SOL    HW2 2039   2.583   0.606   2.179
  673SOL     OW 2040   2.533   0.464   3.131
  673SOL    HW1 2041   2.499   0.375   3.101
  673SOL    HW2 2042   2.559   0.518   3.051
  674SOL     OW 2043   2.335   0.500   2.053
  674SOL    HW1 2044   2.396   0.580   2.057
  674SOL    HW2 2045   2.240   0.531   2.060
  675SOL     OW 2046   1.945   1.258   2.884
  675SOL    HW1 2047   1.940   1.257   2.984
  675SOL    HW2 2048   1.862   1.217   2.846
  676SOL     OW 2049   2.765   0.086   1.995
  676SOL    HW1 2050   2.816   0.087   1.909
  676SOL    HW2 2051   2.821   0.044   2.066
  677SOL     OW 2052   3.142   0.927   2.534
  677SOL    HW1 2053   3.202   0.846   2.536
  677SOL    HW2 2054   3.182   0.996   2.474
  678SOL     OW 2055   2.534   1.616   2.016
  678SOL    HW1 2056   2.543   1.626   1.917
  678SOL    HW2 2057   2.494   1.527   2.037
  679SOL     OW 2058   2.125   0.326   2.582
  679SOL    HW1 2059   2.046   0.377   2.548
  679SOL    HW2 2060   2.116   0.311   2.680
  680SOL     OW 2061   2.778   0.910   2.153
  680SOL    HW1 2062   2.841   0.948   2.085
  680SOL    HW2 2063   2.818   0.827   2.192
  681SOL     OW 2064   2.452   1.487   2.353
  681SOL    HW1 2065   2.494   1.429   2.283
  681SOL    HW2 2066   2.408   1.566   2.309
  682SOL     OW 2067   2.117   1.348   2.152
  682SOL    HW1 2068   2.021   1.349   2.125
  682SOL    HW2 2069   2.129   1.401   2.236
  683SOL     OW 2070   1.937   0.345   1.895
  683SOL    HW1 2071   1.845   0.317   1.866
  683SOL    HW2 2072   1.968   0.422   1.839
  684SOL     OW 2073   1.934   0.166   2.180
  684SOL    HW1 2074   1.917   0.249   2.126
  684SOL    HW2 2075   2.024   0.129   2.158
  685SOL     OW 2076   3.087   0.325   2.311
  685SOL    HW1 2077   3.152   0.251   2.300
  685SOL    HW2 2078   3.107   0.375   2.395
  686SOL     OW 2079   2.456   0.745   2.514
  686SOL    HW1 2080   2.506   0.830   2.495
  686SOL    HW2 2081   2.368   0.747   2.466
  687SOL     OW 2082   2.721   1.374   1.878
  687SOL    HW1 2083   2.675   1.389   1.966
  687SOL    HW2 2084   2.765   1.459   1.848
  688SOL     OW 2085   2.523   1.790   2.815
  688SOL    HW1 2086   2.477   1.878   2.802
  688SOL    HW2 2087   2.622   1.802   2.808
  689SOL     OW 2088   2.721   0.956   2.723
  689SOL    HW1 2089   2.775   0.887   2.771
  689SOL    HW2 2090   2.689   1.025   2.789
  690SOL     OW 2091   1.941   1.240   2.515
  690SOL    HW1 2092   1.940   1.193   2.603
  690SOL    HW2 2093   2.023   1.212   2.464
  691SOL     OW 2094   2.290   0.424   2.382
  691SOL    HW1 2095   2.320   0.352   2.320
  691SOL    HW2 2096   2.251   0.384   2.465
  692SOL     OW 2097   2.674   1.586   2.549
  692SOL    HW1 2098   2.706   1.596   2.455
  692SOL    HW2 2099   2.595   1.524   2.551
  693SOL     OW 2100   2.632   1.330   2.163
  693SOL    HW1 2101   2.586   1.243   2.180
  693SOL    HW2 2102   2.723   1.327   2.204
  694SOL     OW 2103   1.901   1.077   2.162
  694SOL    HW1 2104   2.000   1.066   2.153
  694SOL    HW2 2105   1.861   0.991   2.194
  695SOL     OW 2106   2.737   1.646   2.199
  695SOL    HW1 2107   2.660   1.611   2.145
  695SOL    HW2 2108   2.705   1.717   2.261
  696SOL     OW 2109   2.092   2.490   0.113
  696SOL    HW1 2110   1.999   2.488   0.150
  696SOL    HW2 2111   2.093   2.451   0.021
  697SOL     OW 2112   2.087   2.137   0.996
  697SOL    HW1 2113   2.122   2.120   1.088
  697SOL    HW2 2114   1.999   2.092   0.984
  698SOL     OW 2115   1.881   2.230   0.647
  698SOL    HW1 2116   1.799   2.273   0.686
  698SOL    HW2 2117   1.853   2.157   0.584
  699SOL     OW 2118   2.630   3.006   1.023
  699SOL    HW1 2119   2.552   3.023   1.083
  699SOL    HW2 2120   2.664   3.093   0.987
  700SOL     OW 2121   2.712   2.660   1.823
  700SOL    HW1 2122   2.708   2.736   1.888
  700SOL    HW2 2123   2.734   2.696   1.732
  701SOL     OW 2124   2.547   2.874   0.665
  701SOL    HW1 2125   2.616   2.858   0.735
  701SOL    HW2 2126   2.474   2.931   0.703
  702SOL     OW 2127   2.300   2.254   1.499
  702SOL    HW1 2128   2.382   2.198   1.508
  702SOL    HW2 2129   2.219   2.196   1.503
  703SOL     OW 2130   2.102   2.953   0.886
  703SOL    HW1 2131   2.116   2.869   0.938
  703SOL    HW2 2132   2.047   3.017   0.941
  704SOL     OW 2133   1.984   2.505   0.563
  704SOL    HW1 2134   1.939   2.417   0.580
  704SOL    HW2 2135   1.983   2.559   0.647
  705SOL     OW 2136   1.975   2.599   1.597
  705SOL    HW1 2137   2.063   2.586   1.642
  705SOL    HW2 2138   1.962   2.696   1.575
  706SOL     OW 2139   2.671   1.866   0.502
  706SOL    HW1 2140   2.711   1.957   0.493
  706SOL    HW2 2141   2.571   1.874   0.508
  707SOL     OW 2142   2.059   2.838   1.264
  707SOL    HW1 2143   2.148   2.793   1.250
  707SOL    HW2 2144   1.986   2.773   1.245
  708SOL     OW 2145   2.179   2.113   1.801
  708SOL    HW1 2146   2.250   2.184   1.807
  708SOL    HW2 2147   2.091   2.152   1.829
  709SOL     OW 2148   2.460   2.591   0.270
  709SOL    HW1 2149   2.484   2.660   0.202
  709SOL    HW2 2150   2.382   2.624   0.324
  710SOL     OW 2151   2.669   2.467   1.465
  710SOL    HW1 2152   2.622   2.464   1.554
  710SOL    HW2 2153   2.618   2.412   1.399
  711SOL     OW 2154   2.835   2.752   1.572
  711SOL    HW1 2155   2.881   2.668   1.543
  711SOL    HW2 2156   2.779   2.786   1.497
  712SOL     OW 2157   2.853   2.272   1.242
  712SOL    HW1 2158   2.776   2.306   1.296
  712SOL    HW2 2159   2.819   2.221   1.163
  713SOL     OW 2160   1.938   2.673   0.789
  713SOL    HW1 2161   2.037   2.661   0.798
  713SOL    HW2 2162   1.914   2.768   0.810
  714SOL     OW 2163   2.727   2.210   0.195
  714SOL    HW1 2164   2.786   2.273   0.146
  714SOL    HW2 2165   2.746   2.116   0.166
  715SOL     OW 2166   2.412   2.058   0.885
  715SOL    HW1 2167   2.407   2.053   0.985
  715SOL    HW2 2168   2.414   2.154   0.856
  716SOL     OW 2169   2.064   2.147   1.498
  716SOL    HW1 2170   1.984   2.207   1.485
  716SOL    HW2 2171   2.054   2.098   1.584
  717SOL     OW 2172   2.244   2.562   0.480
  717SOL    HW1 2173   2.289   2.472   0.477
  717SOL    HW2 2174   2.150   2.551   0.513
  718SOL     OW 2175   2.476   1.984   0.117
  718SOL    HW1 2176   2.574   1.962   0.124
  718SOL    HW2 2177   2.445   1.967   0.024
  719SOL     OW 2178   2.643   2.126   1.749
  719SOL    HW1 2179   2.710   2.065   1.792
  719SOL    HW2 2180   2.570   2.145   1.814
  720SOL     OW 2181   2.784   2.365   0.899
  720SOL    HW1 2182   2.759   2.356   0.803
  720SOL    HW2 2183   2.832   2.283   0.930
  721SOL     OW 2184   2.401   1.926   0.512
  721SOL    HW1 2185   2.320   1.927   0.570
  721SOL    HW2 2186   2.404   2.009   0.457
  722SOL     OW 2187   2.797   2.098   0.480
  722SOL    HW1 2188   2.749   2.139   0.402
  722SOL    HW2 2189   2.896   2.096   0.461
  723SOL     OW 2190   1.940   2.418   1.386
  723SOL    HW1 2191   2.032   2.417   1.345
  723SOL    HW2 2192   1.934   2.492   1.453
  724SOL     OW 2193   2.423   2.084   1.147
  724SOL    HW1 2194   2.461   2.000   1.184
  724SOL    HW2 2195   2.335   2.103   1.191
  725SOL     OW 2196   2.879   1.901   0.753
  725SOL    HW1 2197   2.807   1.906   0.684
  725SOL    HW2 2198   2.855   1.832   0.822
  726SOL     OW 2199   2.389   2.118   0.328
  726SOL    HW1 2200   2.416   2.059   0.253
  726SOL    HW2 2201   2.389   2.213   0.297
  727SOL     OW 2202   2.777   1.951   1.402
  727SOL    HW1 2203   2.802   1.931   1.307
  727SOL    HW2 2204   2.849   2.007   1.444
  728SOL     OW 2205   2.842   2.978   1.719
  728SOL    HW1 2206   2.743   2.984   1.729
  728SOL    HW2 2207   2.865   2.898   1.663
  729SOL     OW 2208   2.272   2.675   1.251
  729SOL    HW1 2209   2.358   2.687   1.301
  729SOL    HW2 2210   2.230   2.588   1.278
  730SOL     OW 2211   2.428   2.399   0.865
  730SOL    HW1 2212   2.440   2.465   0.791
  730SOL    HW2 2213   2.474   2.433   0.948
  731SOL     OW 2214   2.264   2.613   1.598
  731SOL    HW1 2215   2.332   2.668   1.551
  731SOL    HW2 2216   2.304   2.525   1.625
  732SOL     OW 2217   2.875   1.967   1.770
  732SOL    HW1 2218   2.881   2.052   1.718
  732SOL    HW2 2219   2.907   1.891   1.713
  733SOL     OW 2220   2.366   1.912   1.740
  733SOL    HW1 2221   2.324   1.855   1.670
  733SOL    HW2 2222   2.300   1.981   1.772
  734SOL     OW 2223   2.435   2.732   1.029
  734SOL    HW1 2224   2.479   2.821   1.020
  734SOL    HW2 2225   2.372   2.732   1.106
  735SOL     OW 2226   3.071   2.387   0.275
  735SOL    HW1 2227   3.084   2.303   0.329
  735SOL    HW2 2228   3.042   2.461   0.335
  736SOL     OW 2229   2.169   2.075   1.231
  736SOL    HW1 2230   2.146   2.112   1.321
  736SOL    HW2 2231   2.139   1.980   1.225
  737SOL     OW 2232   2.594   2.496   1.064
  737SOL    HW1 2233   2.653   2.470   0.988
  737SOL    HW2 2234   2.566   2.592   1.053
  738SOL     OW 2235   2.169   1.925   0.618
  738SOL    HW1 2236   2.158   2.019   0.651
  738SOL    HW2 2237   2.164   1.862   0.695
  739SOL     OW 2238   2.885   2.628   0.966
  739SOL    HW1 2239   2.900   2.649   1.062
  739SOL    HW2 2240   2.855   2.533   0.957
  740SOL     OW 2241   2.212   2.760   1.804
  740SOL    HW1 2242   2.288   2.804   1.852
  740SOL    HW2 2243   2.247   2.713   1.722
  741SOL     OW 2244   2.181   2.672   0.949
  741SOL    HW1 2245   2.274   2.708   0.954
  741SOL    HW2 2246   2.175   2.587   1.001
  742SOL     OW 2247   2.201   2.371   1.006
  742SOL    HW1 2248   2.149   2.288   0.989
  742SOL    HW2 2249   2.278   2.376   0.942
  743SOL     OW 2250   2.864   2.658   1.238
  743SOL    HW1 2251   2.905   2.626   1.324
  743SOL    HW2 2252   2.768   2.631   1.235
  744SOL     OW 2253   1.902   2.406   1.114
  744SOL    HW1 2254   1.987   2.373   1.073
  744SOL    HW2 2255   1.915   2.421   1.212
  745SOL     OW 2256   2.051   2.382   1.722
  745SOL    HW1 2257   2.110   2.342   1.652
  745SOL    HW2 2258   1.993   2.453   1.681
  746SOL     OW 2259   2.677   2.434   0.325
  746SOL    HW1 2260   2.684   2.345   0.279
  746SOL    HW2 2261   2.583   2.468   0.317
  747SOL     OW 2262   2.533   2.326   1.269
  747SOL    HW1 2263   2.499   2.237   1.239
  747SOL    HW2 2264   2.559   2.380   1.189
  748SOL     OW 2265   2.335   2.362   0.191
  748SOL    HW1 2266   2.396   2.442   0.195
  748SOL    HW2 2267   2.240   2.393   0.198
  749SOL     OW 2268   2.021   2.999   1.466
  749SOL    HW1 2269   2.043   2.938   1.542
  749SOL    HW2 2270   2.031   2.950   1.380
  750SOL     OW 2271   3.164   2.717   0.309
  750SOL    HW1 2272   3.078   2.686   0.351
  750SOL    HW2 2273   3.160   2.703   0.210
  751SOL     OW 2274   2.765   1.948   0.133
  751SOL    HW1 2275   2.816   1.949   0.047
  751SOL    HW2 2276   2.821   1.906   0.204
  752SOL     OW 2277   2.125   2.188   0.720
  752SOL    HW1 2278   2.046   2.239   0.686
  752SOL    HW2 2279   2.116   2.173   0.818
  753SOL     OW 2280   2.778   2.772   0.291
  753SOL    HW1 2281   2.841   2.810   0.223
  753SOL    HW2 2282   2.818   2.689   0.330
  754SOL     OW 2283   2.876   2.098   0.971
  754SOL    HW1 2284   2.868   2.062   0.878
  754SOL    HW2 2285   2.874   2.022   1.036
  755SOL     OW 2286   1.967   2.875   1.726
  755SOL    HW1 2287   1.890   2.842   1.780
  755SOL    HW2 2288   2.052   2.845   1.768
  756SOL     OW 2289   2.534   2.065   1.489
  756SOL    HW1 2290   2.624   2.049   1.449
  756SOL    HW2 2291   2.542   2.070   1.588
  757SOL     OW 2292   1.937   2.207   0.033
  757SOL    HW1 2293   1.845   2.179   0.004
  757SOL    HW2 2294   1.968   2.284  -0.023
  758SOL     OW 2295   2.475   2.704   1.431
  758SOL    HW1 2296   2.531   2.785   1.414
  758SOL    HW2 2297   2.534   2.624   1.434
  759SOL     OW 2298   2.578   2.427   1.708
  759SOL    HW1 2299   2.597   2.492   1.782
  759SOL    HW2 2300   2.638   2.347   1.717
  760SOL     OW 2301   3.087   2.187   0.449
  760SOL    HW1 2302   3.152   2.113   0.438
  760SOL    HW2 2303   3.107   2.237   0.533
  761SOL     OW 2304   2.456   2.607   0.652
  761SOL    HW1 2305   2.506   2.692   0.633
  761SOL    HW2 2306   2.368   2.609   0.604
  762SOL     OW 2307   2.721   2.818   0.861
  762SOL    HW1 2308   2.775   2.749   0.909
  762SOL    HW2 2309   2.689   2.887   0.927
  763SOL     OW 2310   2.945   2.846   0.087
  763SOL    HW1 2311   2.922   2.899   0.005
  763SOL    HW2 2312   3.026   2.790   0.068
  764SOL     OW 2313   1.941   3.102   0.653
  764SOL    HW1 2314   1.940   3.055   0.741
  764SOL    HW2 2315   2.023   3.074   0.602
  765SOL     OW 2316   2.290   2.286   0.520
  765SOL    HW1 2317   2.320   2.214   0.458
  765SOL    HW2 2318   2.251   2.246   0.603
  766SOL     OW 2319   2.179   2.409   1.280
  766SOL    HW1 2320   2.217   2.350   1.352
  766SOL    HW2 2321   2.219   2.383   1.192
  767SOL     OW 2322   2.863   1.896   1.154
  767SOL    HW1 2323   2.800   1.824   1.123
  767SOL    HW2 2324   2.956   1.860   1.154
  768SOL     OW 2325   2.092   2.490   1.975
  768SOL    HW1 2326   1.999   2.488   2.012
  768SOL    HW2 2327   2.093   2.451   1.883
  769SOL     OW 2328   2.087   2.137   2.858
  769SOL    HW1 2329   2.122   2.120   2.950
  769SOL    HW2 2330   1.999   2.092   2.846
  770SOL     OW 2331   1.881   2.230   2.509
  770SOL    HW1 2332   1.799   2.273   2.548
  770SOL    HW2 2333   1.853   2.157   2.446
  771SOL     OW 2334   2.547   2.874   2.527
  771SOL    HW1 2335   2.616   2.858   2.597
  771SOL    HW2 2336   2.474   2.931   2.565
  772SOL     OW 2337   2.102   2.953   2.748
  772SOL    HW1 2338   2.116   2.869   2.800
  772SOL    HW2 2339   2.047   3.017   2.803
  773SOL     OW 2340   1.984   2.505   2.425
  773SOL    HW1 2341   1.939   2.417   2.442
  773SOL    HW2 2342   1.983   2.559   2.509
  774SOL     OW 2343   2.671   1.866   2.364
  774SOL    HW1 2344   2.711   1.957   2.355
  774SOL    HW2 2345   2.571   1.874   2.370
  775SOL     OW 2346   2.460   2.591   2.132
  775SOL    HW1 2347   2.484   2.660   2.064
  775SOL    HW2 2348   2.382   2.624   2.186
  776SOL     OW 2349   1.938   2.673   2.651
  776SOL    HW1 2350   2.037   2.661   2.660
  776SOL    HW2 2351   1.914   2.768   2.672
  777SOL     OW 2352   2.727   2.210   2.057
  777SOL    HW1 2353   2.786   2.273   2.008
  777SOL    HW2 2354   2.746   2.116   2.028
  778SOL     OW 2355   2.412   2.058   2.747
  778SOL    HW1 2356   2.407   2.053   2.847
  778SOL    HW2 2357   2.414   2.154   2.718
  779SOL     OW 2358   2.244   2.562   2.342
  779SOL    HW1 2359   2.289   2.472   2.339
  779SOL    HW2 2360   2.150   2.551   2.375
  780SOL     OW 2361   2.476   1.984   1.979
  780SOL    HW1 2362   2.574   1.962   1.986
  780SOL    HW2 2363   2.445   1.967   1.886
  781SOL     OW 2364   2.784   2.365   2.761
  781SOL    HW1 2365   2.759   2.356   2.665
  781SOL    HW2 2366   2.832   2.283   2.792
  782SOL     OW 2367   2.401   1.926   2.374
  782SOL    HW1 2368   2.320   1.927   2.432
  782SOL    HW2 2369   2.404   2.009   2.319
  783SOL     OW 2370   2.159   1.897   2.033
  783SOL    HW1 2371   2.208   1.981   2.012
  783SOL    HW2 2372   2.221   1.832   2.078
  784SOL     OW 2373   2.797   2.098   2.342
  784SOL    HW1 2374   2.749   2.139   2.264
  784SOL    HW2 2375   2.896   2.096   2.323
  785SOL     OW 2376   2.879   1.901   2.615
  785SOL    HW1 2377   2.807   1.906   2.546
  785SOL    HW2 2378   2.855   1.832   2.684
  786SOL     OW 2379   2.389   2.118   2.190
  786SOL    HW1 2380   2.416   2.059   2.115
  786SOL    HW2 2381   2.389   2.213   2.159
  787SOL     OW 2382   2.973   3.057   2.962
  787SOL    HW1 2383   2.933   3.101   3.043
  787SOL    HW2 2384   2.932   3.094   2.879
  788SOL     OW 2385   2.428   2.399   2.727
  788SOL    HW1 2386   2.440   2.465   2.653
  788SOL    HW2 2387   2.474   2.433   2.810
  789SOL     OW 2388   2.435   2.732   2.891
  789SOL    HW1 2389   2.479   2.821   2.882
  789SOL    HW2 2390   2.372   2.732   2.968
  790SOL     OW 2391   3.071   2.387   2.137
  790SOL    HW1 2392   3.084   2.303   2.191
  790SOL    HW2 2393   3.042   2.461   2.197
  791SOL     OW 2394   2.169   2.075   3.093
  791SOL    HW1 2395   2.146   2.112   3.183
  791SOL    HW2 2396   2.139   1.980   3.087
  792SOL     OW 2397   2.594   2.496   2.926
  792SOL    HW1 2398   2.653   2.470   2.850
  792SOL    HW2 2399   2.566   2.592   2.915
  793SOL     OW 2400   2.169   1.925   2.480
  793SOL    HW1 2401   2.158   2.019   2.513
  793SOL    HW2 2402   2.164   1.862   2.557
  794SOL     OW 2403   2.885   2.628   2.828
  794SOL    HW1 2404   2.900   2.649   2.924
  794SOL    HW2 2405   2.855   2.533   2.819
  795SOL     OW 2406   2.181   2.672   2.811
  795SOL    HW1 2407   2.274   2.708   2.816
  795SOL    HW2 2408   2.175   2.587   2.863
  796SOL     OW 2409   2.677   2.434   2.187
  796SOL    HW1 2410   2.684   2.345   2.141
  796SOL    HW2 2411   2.583   2.468   2.179
  797SOL     OW 2412   2.533   2.326   3.131
  797SOL    HW1 2413   2.499   2.237   3.101
  797SOL    HW2 2414   2.559   2.380   3.051
  798SOL     OW 2415   2.335   2.362   2.053
  798SOL    HW1 2416   2.396   2.442   2.057
  798SOL    HW2 2417   2.240   2.393   2.060
  799SOL     OW 2418   3.164   2.717   2.171
  799SOL    HW1 2419   3.078   2.686   2.213
  799SOL    HW2 2420   3.160   2.703   2.072
  800SOL     OW 2421   2.125   2.188   2.582
  800SOL    HW1 2422   2.046   2.239   2.548
  800SOL    HW2 2423   2.116   2.173   2.680
  801SOL     OW 2424   2.778   2.772   2.153
  801SOL    HW1 2425   2.841   2.810   2.085
  801SOL    HW2 2426   2.818   2.689   2.192
  802SOL     OW 2427   1.937   2.207   1.895
  802SOL    HW1 2428   1.845   2.179   1.866
  802SOL    HW2 2429   1.968   2.284   1.839
  803SOL     OW 2430   1.934   2.028   2.180
  803SOL    HW1 2431   1.917   2.111   2.126
  803SOL    HW2 2432   2.024   1.991   2.158
  804SOL     OW 2433   3.087   2.187   2.311
  804SOL    HW1 2434   3.152   2.113   2.300
  804SOL    HW2 2435   3.107   2.237   2.395
  805SOL     OW 2436   2.456   2.607   2.514
  805SOL    HW1 2437   2.506   2.692   2.495
  805SOL    HW2 2438   2.368   2.609   2.466
  806SOL     OW 2439   2.721   2.818   2.723
  806SOL    HW1 2440   2.775   2.749   2.771
  806SOL    HW2 2441   2.689   2.887   2.789
  807SOL     OW 2442   1.941   3.102   2.515
  807SOL    HW1 2443   1.940   3.055   2.603
  807SOL    HW2 2444   2.023   3.074   2.464
  808SOL     OW 2445   2.290   2.286   2.382
  808SOL    HW1 2446   2.320   2.214   2.320
  808SOL    HW2 2447   2.251   2.246   2.465
   2.92283   2.92283   2.92283
