mobley_6620221_GMX.gro created by acpype (v: 2023.10.27) on Thu May 14 13:45:16 2026
 2464
    1MOL     C1    1   1.177   1.458   1.647
    1MOL     C2    2   1.247   1.337   1.649
    1MOL     C3    3   1.211   1.560   1.557
    1MOL     C4    4   1.352   1.321   1.559
    1MOL     C5    5   1.386   1.421   1.470
    1MOL     C6    6   1.318   1.542   1.469
    1MOL     C7    7   1.462   1.714   1.416
    1MOL     C8    8   1.439   1.203   1.537
    1MOL     C9    9   1.544   1.265   1.442
    1MOL    C10   10   1.674   1.300   1.516
    1MOL    C11   11   1.575   1.172   1.324
    1MOL    C12   12   1.599   1.899   1.329
    1MOL     N1   13   1.494   1.802   1.315
    1MOL     O1   14   1.522   1.706   1.522
    1MOL     O2   15   1.490   1.389   1.387
    1MOL     O3   16   1.350   1.642   1.378
    1MOL     H1   17   1.094   1.473   1.716
    1MOL     H2   18   1.220   1.258   1.718
    1MOL     H3   19   1.156   1.654   1.557
    1MOL     H4   20   1.483   1.164   1.629
    1MOL     H5   21   1.381   1.124   1.488
    1MOL     H6   22   1.745   1.350   1.449
    1MOL     H7   23   1.655   1.370   1.598
    1MOL     H8   24   1.722   1.210   1.557
    1MOL     H9   25   1.646   1.218   1.256
    1MOL    H10   26   1.616   1.077   1.359
    1MOL    H11   27   1.484   1.152   1.266
    1MOL    H12   28   1.558   1.987   1.379
    1MOL    H13   29   1.634   1.926   1.229
    1MOL    H14   30   1.681   1.858   1.387
    1MOL    H15   31   1.430   1.805   1.237
    2SOL     OW   32   0.230   0.628   0.113
    2SOL    HW1   33   0.137   0.626   0.150
    2SOL    HW2   34   0.231   0.589   0.021
    3SOL     OW   35   0.225   0.275   0.996
    3SOL    HW1   36   0.260   0.258   1.088
    3SOL    HW2   37   0.137   0.230   0.984
    4SOL     OW   38   0.019   0.368   0.647
    4SOL    HW1   39  -0.063   0.411   0.686
    4SOL    HW2   40  -0.009   0.295   0.584
    5SOL     OW   41   0.569   1.275   1.165
    5SOL    HW1   42   0.476   1.268   1.128
    5SOL    HW2   43   0.580   1.364   1.209
    6SOL     OW   44   1.555   1.511   0.703
    6SOL    HW1   45   1.498   1.495   0.784
    6SOL    HW2   46   1.496   1.521   0.623
    7SOL     OW   47   1.135   0.703   0.717
    7SOL    HW1   48   1.192   0.781   0.692
    7SOL    HW2   49   1.075   0.729   0.793
    8SOL     OW   50   1.755   0.607   0.231
    8SOL    HW1   51   1.743   0.594   0.132
    8SOL    HW2   52   1.725   0.526   0.280
    9SOL     OW   53   0.768   1.144   1.023
    9SOL    HW1   54   0.690   1.161   1.083
    9SOL    HW2   55   0.802   1.231   0.987
   10SOL     OW   56   0.850   0.798   1.823
   10SOL    HW1   57   0.846   0.874   1.888
   10SOL    HW2   58   0.872   0.834   1.732
   11SOL     OW   59   0.685   1.012   0.665
   11SOL    HW1   60   0.754   0.996   0.735
   11SOL    HW2   61   0.612   1.069   0.703
   12SOL     OW   62   0.686   1.161   1.803
   12SOL    HW1   63   0.746   1.240   1.817
   12SOL    HW2   64   0.600   1.192   1.762
   13SOL     OW   65   0.335   1.435   1.061
   13SOL    HW1   66   0.257   1.404   1.008
   13SOL    HW2   67   0.393   1.493   1.004
   14SOL     OW   68   0.438   0.392   1.499
   14SOL    HW1   69   0.520   0.336   1.508
   14SOL    HW2   70   0.357   0.334   1.503
   15SOL     OW   71   1.603   0.447   0.737
   15SOL    HW1   72   1.529   0.493   0.687
   15SOL    HW2   73   1.654   0.515   0.790
   16SOL     OW   74   0.231   1.713   0.483
   16SOL    HW1   75   0.265   1.790   0.537
   16SOL    HW2   76   0.275   1.713   0.393
   17SOL     OW   77   0.230   1.434   0.538
   17SOL    HW1   78   0.204   1.530   0.538
   17SOL    HW2   79   0.159   1.380   0.583
   18SOL     OW   80   0.240   1.091   0.886
   18SOL    HW1   81   0.254   1.007   0.938
   18SOL    HW2   82   0.185   1.155   0.941
   19SOL     OW   83   0.620   1.786   1.439
   19SOL    HW1   84   0.528   1.769   1.474
   19SOL    HW2   85   0.648   1.878   1.465
   20SOL     OW   86   0.606   0.964   0.123
   20SOL    HW1   87   0.613   1.048   0.069
   20SOL    HW2   88   0.652   0.977   0.211
   21SOL     OW   89   1.594   0.114   1.480
   21SOL    HW1   90   1.576   0.181   1.408
   21SOL    HW2   91   1.591   0.160   1.569
   22SOL     OW   92   0.122   0.643   0.563
   22SOL    HW1   93   0.077   0.555   0.580
   22SOL    HW2   94   0.121   0.697   0.647
   23SOL     OW   95   1.842   1.767   0.359
   23SOL    HW1   96   1.896   1.738   0.439
   23SOL    HW2   97   1.872   1.857   0.330
   24SOL     OW   98   0.027   1.596   0.117
   24SOL    HW1   99   0.008   1.500   0.138
   24SOL    HW2  100  -0.006   1.654   0.192
   25SOL     OW  101   1.689   0.922   0.612
   25SOL    HW1  102   1.784   0.893   0.620
   25SOL    HW2  103   1.681   0.987   0.537
   26SOL     OW  104   1.641   1.108   0.432
   26SOL    HW1  105   1.727   1.110   0.380
   26SOL    HW2  106   1.655   1.155   0.520
   27SOL     OW  107   0.113   0.737   1.597
   27SOL    HW1  108   0.201   0.724   1.642
   27SOL    HW2  109   0.100   0.834   1.575
   28SOL     OW  110   0.613   1.365   0.726
   28SOL    HW1  111   0.564   1.278   0.735
   28SOL    HW2  112   0.590   1.408   0.639
   29SOL     OW  113   0.809   0.004   0.502
   29SOL    HW1  114   0.849   0.095   0.493
   29SOL    HW2  115   0.709   0.012   0.508
   30SOL     OW  116   0.197   0.976   1.264
   30SOL    HW1  117   0.286   0.931   1.250
   30SOL    HW2  118   0.124   0.911   1.245
   31SOL     OW  119   1.525   0.999   0.190
   31SOL    HW1  120   1.462   0.923   0.203
   31SOL    HW2  121   1.573   1.017   0.276
   32SOL     OW  122   0.317   0.251   1.801
   32SOL    HW1  123   0.388   0.322   1.807
   32SOL    HW2  124   0.229   0.290   1.829
   33SOL     OW  125   1.466   1.417   0.953
   33SOL    HW1  126   1.407   1.423   1.033
   33SOL    HW2  127   1.451   1.329   0.907
   34SOL     OW  128   1.667   1.714   0.572
   34SOL    HW1  129   1.626   1.691   0.484
   34SOL    HW2  130   1.649   1.640   0.637
   35SOL     OW  131   0.598   0.729   0.270
   35SOL    HW1  132   0.622   0.798   0.202
   35SOL    HW2  133   0.520   0.762   0.324
   36SOL     OW  134   1.281   0.345   0.944
   36SOL    HW1  135   1.195   0.295   0.931
   36SOL    HW2  136   1.343   0.291   1.000
   37SOL     OW  137   1.576   1.662   0.307
   37SOL    HW1  138   1.665   1.708   0.310
   37SOL    HW2  139   1.555   1.638   0.212
   38SOL     OW  140   0.807   0.605   1.465
   38SOL    HW1  141   0.760   0.602   1.554
   38SOL    HW2  142   0.756   0.550   1.399
   39SOL     OW  143   1.394   0.469   1.674
   39SOL    HW1  144   1.374   0.512   1.762
   39SOL    HW2  145   1.472   0.407   1.683
   40SOL     OW  146   0.973   0.890   1.572
   40SOL    HW1  147   1.019   0.806   1.543
   40SOL    HW2  148   0.917   0.924   1.497
   41SOL     OW  149   0.991   0.410   1.242
   41SOL    HW1  150   0.914   0.444   1.296
   41SOL    HW2  151   0.957   0.359   1.163
   42SOL     OW  152   1.041   0.701   0.429
   42SOL    HW1  153   1.067   0.697   0.525
   42SOL    HW2  154   0.956   0.650   0.415
   43SOL     OW  155   0.076   0.811   0.789
   43SOL    HW1  156   0.175   0.799   0.798
   43SOL    HW2  157   0.052   0.906   0.810
   44SOL     OW  158   0.130   1.821   1.571
   44SOL    HW1  159   0.120   1.806   1.670
   44SOL    HW2  160   0.044   1.857   1.535
   45SOL     OW  161   0.865   0.348   0.195
   45SOL    HW1  162   0.924   0.411   0.146
   45SOL    HW2  163   0.884   0.254   0.166
   46SOL     OW  164   1.719   0.585   1.831
   46SOL    HW1  165   1.693   0.674   1.795
   46SOL    HW2  166   1.717   0.517   1.758
   47SOL     OW  167   1.362   1.144   0.545
   47SOL    HW1  168   1.445   1.115   0.497
   47SOL    HW2  169   1.313   1.211   0.489
   48SOL     OW  170   0.550   0.196   0.885
   48SOL    HW1  171   0.545   0.191   0.985
   48SOL    HW2  172   0.552   0.292   0.856
   49SOL     OW  173   1.008   1.456   0.477
   49SOL    HW1  174   0.962   1.528   0.425
   49SOL    HW2  175   1.004   1.476   0.575
   50SOL     OW  176   0.351   1.801   0.853
   50SOL    HW1  177   0.401   1.715   0.859
   50SOL    HW2  178   0.416   1.878   0.850
   51SOL     OW  179   1.795   1.066   0.873
   51SOL    HW1  180   1.733   1.051   0.797
   51SOL    HW2  181   1.743   1.077   0.958
   52SOL     OW  182   0.321   0.943   0.242
   52SOL    HW1  183   0.403   0.982   0.200
   52SOL    HW2  184   0.294   0.861   0.193
   53SOL     OW  185   1.458   0.735   0.728
   53SOL    HW1  186   1.453   0.670   0.803
   53SOL    HW2  187   1.538   0.794   0.741
   54SOL     OW  188   0.461   1.266   1.727
   54SOL    HW1  189   0.411   1.267   1.641
   54SOL    HW2  190   0.398   1.248   1.803
   55SOL     OW  191   1.111   1.776   0.237
   55SOL    HW1  192   1.051   1.714   0.287
   55SOL    HW2  193   1.142   1.732   0.152
   56SOL     OW  194   0.202   0.285   1.498
   56SOL    HW1  195   0.122   0.345   1.485
   56SOL    HW2  196   0.192   0.236   1.584
   57SOL     OW  197   1.632   1.377   0.081
   57SOL    HW1  198   1.600   1.471   0.071
   57SOL    HW2  199   1.556   1.314   0.069
   58SOL     OW  200   0.464   1.743   0.323
   58SOL    HW1  201   0.497   1.782   0.409
   58SOL    HW2  202   0.540   1.736   0.258
   59SOL     OW  203   1.400   0.107   0.426
   59SOL    HW1  204   1.376   0.070   0.336
   59SOL    HW2  205   1.499   0.123   0.430
   60SOL     OW  206   0.249   1.785   1.241
   60SOL    HW1  207   0.306   1.720   1.291
   60SOL    HW2  208   0.233   1.752   1.148
   61SOL     OW  209   0.940   1.698   0.904
   61SOL    HW1  210   1.020   1.641   0.925
   61SOL    HW2  211   0.891   1.658   0.827
   62SOL     OW  212   0.382   0.700   0.480
   62SOL    HW1  213   0.427   0.610   0.477
   62SOL    HW2  214   0.288   0.689   0.513
   63SOL     OW  215   1.547   0.222   1.729
   63SOL    HW1  216   1.542   0.259   1.821
   63SOL    HW2  217   1.475   0.153   1.717
   64SOL     OW  218   0.614   0.122   0.117
   64SOL    HW1  219   0.712   0.100   0.124
   64SOL    HW2  220   0.583   0.105   0.024
   65SOL     OW  221   0.781   0.264   1.749
   65SOL    HW1  222   0.848   0.203   1.792
   65SOL    HW2  223   0.708   0.283   1.814
   66SOL     OW  224   0.888   1.514   1.195
   66SOL    HW1  225   0.865   1.489   1.101
   66SOL    HW2  226   0.949   1.445   1.234
   67SOL     OW  227   1.351   0.590   1.433
   67SOL    HW1  228   1.379   0.547   1.518
   67SOL    HW2  229   1.376   0.686   1.434
   68SOL     OW  230   0.803   1.402   0.924
   68SOL    HW1  231   0.893   1.416   0.882
   68SOL    HW2  232   0.732   1.404   0.853
   69SOL     OW  233   0.922   0.503   0.899
   69SOL    HW1  234   0.897   0.494   0.803
   69SOL    HW2  235   0.970   0.421   0.930
   70SOL     OW  236   0.539   0.064   0.512
   70SOL    HW1  237   0.458   0.065   0.570
   70SOL    HW2  238   0.542   0.147   0.457
   71SOL     OW  239   1.434   1.188   0.041
   71SOL    HW1  240   1.466   1.112   0.098
   71SOL    HW2  241   1.342   1.215   0.071
   72SOL     OW  242   0.297   0.035   0.171
   72SOL    HW1  243   0.346   0.119   0.150
   72SOL    HW2  244   0.359  -0.030   0.216
   73SOL     OW  245   0.935   0.236   0.480
   73SOL    HW1  246   0.887   0.277   0.402
   73SOL    HW2  247   1.034   0.234   0.461
   74SOL     OW  248   1.076   0.683   1.464
   74SOL    HW1  249   0.996   0.622   1.467
   74SOL    HW2  250   1.157   0.630   1.440
   75SOL     OW  251   1.227   1.570   0.793
   75SOL    HW1  252   1.248   1.644   0.728
   75SOL    HW2  253   1.295   1.570   0.866
   76SOL     OW  254   0.459   1.152   0.741
   76SOL    HW1  255   0.388   1.125   0.806
   76SOL    HW2  256   0.433   1.124   0.648
   77SOL     OW  257   1.271   1.797   0.591
   77SOL    HW1  258   1.315   1.861   0.527
   77SOL    HW2  259   1.221   1.849   0.661
   78SOL     OW  260   1.032   0.549   0.016
   78SOL    HW1  261   0.991   0.631  -0.023
   78SOL    HW2  262   1.096   0.575   0.089
   79SOL     OW  263   0.078   0.556   1.386
   79SOL    HW1  264   0.170   0.555   1.345
   79SOL    HW2  265   0.072   0.630   1.453
   80SOL     OW  266   0.561   0.222   1.147
   80SOL    HW1  267   0.599   0.138   1.184
   80SOL    HW2  268   0.473   0.241   1.191
   81SOL     OW  269   0.866   0.454   0.642
   81SOL    HW1  270   0.834   0.526   0.580
   81SOL    HW2  271   0.890   0.373   0.589
   82SOL     OW  272   1.017   0.039   0.753
   82SOL    HW1  273   0.945   0.044   0.684
   82SOL    HW2  274   0.993  -0.030   0.822
   83SOL     OW  275   1.429   1.173   0.867
   83SOL    HW1  276   1.374   1.089   0.860
   83SOL    HW2  277   1.455   1.202   0.775
   84SOL     OW  278   1.466   0.590   0.992
   84SOL    HW1  279   1.436   0.495   0.999
   84SOL    HW2  280   1.539   0.606   1.058
   85SOL     OW  281   1.857   0.833   0.377
   85SOL    HW1  282   1.899   0.769   0.441
   85SOL    HW2  283   1.819   0.782   0.299
   86SOL     OW  284   0.488   1.385   0.174
   86SOL    HW1  285   0.401   1.370   0.221
   86SOL    HW2  286   0.471   1.411   0.079
   87SOL     OW  287   1.664   1.280   0.657
   87SOL    HW1  288   1.763   1.288   0.671
   87SOL    HW2  289   1.619   1.364   0.688
   88SOL     OW  290   1.390   0.575   0.078
   88SOL    HW1  291   1.336   0.554   0.159
   88SOL    HW2  292   1.481   0.534   0.087
   89SOL     OW  293   0.527   0.256   0.328
   89SOL    HW1  294   0.554   0.197   0.253
   89SOL    HW2  295   0.527   0.351   0.297
   90SOL     OW  296   1.064   1.347   1.340
   90SOL    HW1  297   0.984   1.324   1.395
   90SOL    HW2  298   1.147   1.321   1.389
   91SOL     OW  299   1.111   1.195   1.100
   91SOL    HW1  300   1.071   1.239   1.181
   91SOL    HW2  301   1.070   1.232   1.017
   92SOL     OW  302   0.915   0.089   1.402
   92SOL    HW1  303   0.940   0.069   1.307
   92SOL    HW2  304   0.987   0.145   1.444
   93SOL     OW  305   0.980   1.116   1.719
   93SOL    HW1  306   0.881   1.122   1.729
   93SOL    HW2  307   1.003   1.036   1.663
   94SOL     OW  308   0.705   1.050   0.368
   94SOL    HW1  309   0.691   1.057   0.467
   94SOL    HW2  310   0.789   0.999   0.350
   95SOL     OW  311   0.410   0.813   1.251
   95SOL    HW1  312   0.496   0.825   1.301
   95SOL    HW2  313   0.368   0.726   1.278
   96SOL     OW  314   1.274   0.386   1.262
   96SOL    HW1  315   1.295   0.460   1.326
   96SOL    HW2  316   1.185   0.403   1.219
   97SOL     OW  317   0.064   1.564   1.331
   97SOL    HW1  318   0.018   1.646   1.297
   97SOL    HW2  319   0.162   1.583   1.340
   98SOL     OW  320   0.367   1.100   0.501
   98SOL    HW1  321   0.360   1.183   0.445
   98SOL    HW2  322   0.371   1.020   0.441
   99SOL     OW  323   0.566   0.537   0.865
   99SOL    HW1  324   0.578   0.603   0.791
   99SOL    HW2  325   0.612   0.571   0.948
  100SOL     OW  326   1.252   1.348   0.388
  100SOL    HW1  327   1.302   1.425   0.428
  100SOL    HW2  328   1.157   1.350   0.420
  101SOL     OW  329   1.272   1.445   1.142
  101SOL    HW1  330   1.319   1.458   1.229
  101SOL    HW2  331   1.206   1.371   1.151
  102SOL     OW  332   1.582   0.639   0.472
  102SOL    HW1  333   1.551   0.700   0.545
  102SOL    HW2  334   1.632   0.691   0.403
  103SOL     OW  335   0.354   1.510   1.329
  103SOL    HW1  336   0.333   1.466   1.242
  103SOL    HW2  337   0.451   1.536   1.332
  104SOL     OW  338   0.402   0.751   1.598
  104SOL    HW1  339   0.470   0.806   1.551
  104SOL    HW2  340   0.442   0.663   1.625
  105SOL     OW  341   1.587   0.779   1.670
  105SOL    HW1  342   1.495   0.817   1.665
  105SOL    HW2  343   1.647   0.826   1.605
  106SOL     OW  344   1.013   0.105   1.770
  106SOL    HW1  345   1.019   0.190   1.718
  106SOL    HW2  346   1.045   0.029   1.713
  107SOL     OW  347   0.504   0.050   1.740
  107SOL    HW1  348   0.462  -0.007   1.670
  107SOL    HW2  349   0.438   0.119   1.772
  108SOL     OW  350   0.573   0.870   1.029
  108SOL    HW1  351   0.617   0.959   1.020
  108SOL    HW2  352   0.510   0.870   1.106
  109SOL     OW  353   1.360   0.862   1.045
  109SOL    HW1  354   1.285   0.862   0.979
  109SOL    HW2  355   1.397   0.770   1.054
  110SOL     OW  356   1.209   0.525   0.275
  110SOL    HW1  357   1.222   0.441   0.329
  110SOL    HW2  358   1.180   0.599   0.335
  111SOL     OW  359   0.307   0.213   1.231
  111SOL    HW1  360   0.284   0.250   1.321
  111SOL    HW2  361   0.277   0.118   1.225
  112SOL     OW  362   0.037   1.310   1.282
  112SOL    HW1  363   0.090   1.261   1.350
  112SOL    HW2  364   0.059   1.408   1.287
  113SOL     OW  365   0.732   0.634   1.064
  113SOL    HW1  366   0.791   0.608   0.988
  113SOL    HW2  367   0.704   0.730   1.053
  114SOL     OW  368   1.728   0.935   1.854
  114SOL    HW1  369   1.682   0.928   1.765
  114SOL    HW2  370   1.666   0.979   1.920
  115SOL     OW  371   0.307   0.063   0.618
  115SOL    HW1  372   0.296   0.157   0.651
  115SOL    HW2  373   0.302   0.000   0.695
  116SOL     OW  374   1.622   0.367   0.374
  116SOL    HW1  375   1.624   0.291   0.438
  116SOL    HW2  376   1.574   0.444   0.414
  117SOL     OW  377   1.023   0.766   0.966
  117SOL    HW1  378   1.038   0.787   1.062
  117SOL    HW2  379   0.993   0.671   0.957
  118SOL     OW  380   1.859   1.518   1.605
  118SOL    HW1  381   1.873   1.545   1.510
  118SOL    HW2  382   1.942   1.540   1.658
  119SOL     OW  383   0.350   0.898   1.804
  119SOL    HW1  384   0.426   0.942   1.852
  119SOL    HW2  385   0.385   0.851   1.722
  120SOL     OW  386   1.540   0.274   0.125
  120SOL    HW1  387   1.479   0.199   0.148
  120SOL    HW2  388   1.562   0.326   0.208
  121SOL     OW  389   1.303   0.838   0.042
  121SOL    HW1  390   1.337   0.745   0.057
  121SOL    HW2  391   1.321   0.865  -0.053
  122SOL     OW  392   1.068   1.333   0.849
  122SOL    HW1  393   1.075   1.249   0.794
  122SOL    HW2  394   1.130   1.402   0.813
  123SOL     OW  395   0.319   0.810   0.949
  123SOL    HW1  396   0.412   0.846   0.954
  123SOL    HW2  397   0.313   0.725   1.001
  124SOL     OW  398   0.339   0.509   1.006
  124SOL    HW1  399   0.287   0.426   0.989
  124SOL    HW2  400   0.416   0.514   0.942
  125SOL     OW  401   1.138   0.380   1.678
  125SOL    HW1  402   1.093   0.443   1.742
  125SOL    HW2  403   1.231   0.411   1.661
  126SOL     OW  404   1.160   0.207   1.477
  126SOL    HW1  405   1.160   0.271   1.554
  126SOL    HW2  406   1.188   0.255   1.394
  127SOL     OW  407   0.008   1.326   0.200
  127SOL    HW1  408  -0.085   1.347   0.169
  127SOL    HW2  409   0.018   1.227   0.213
  128SOL     OW  410   0.088   1.801   0.927
  128SOL    HW1  411   0.046   1.715   0.900
  128SOL    HW2  412   0.182   1.804   0.893
  129SOL     OW  413   0.504   1.568   0.910
  129SOL    HW1  414   0.570   1.642   0.919
  129SOL    HW2  415   0.548   1.489   0.868
  130SOL     OW  416   1.002   0.796   1.238
  130SOL    HW1  417   1.043   0.764   1.324
  130SOL    HW2  418   0.906   0.769   1.235
  131SOL     OW  419   0.040   0.544   1.114
  131SOL    HW1  420   0.125   0.511   1.073
  131SOL    HW2  421   0.053   0.559   1.212
  132SOL     OW  422   0.189   0.520   1.722
  132SOL    HW1  423   0.248   0.480   1.652
  132SOL    HW2  424   0.131   0.591   1.681
  133SOL     OW  425   1.369   0.950   1.660
  133SOL    HW1  426   1.408   1.039   1.680
  133SOL    HW2  427   1.379   0.930   1.563
  134SOL     OW  428   0.815   0.572   0.325
  134SOL    HW1  429   0.822   0.483   0.279
  134SOL    HW2  430   0.721   0.606   0.317
  135SOL     OW  431   1.657   0.604   1.206
  135SOL    HW1  432   1.619   0.535   1.268
  135SOL    HW2  433   1.739   0.568   1.162
  136SOL     OW  434   0.252   1.564   1.744
  136SOL    HW1  435   0.222   1.621   1.820
  136SOL    HW2  436   0.245   1.467   1.770
  137SOL     OW  437   0.671   0.464   1.269
  137SOL    HW1  438   0.637   0.375   1.239
  137SOL    HW2  439   0.697   0.518   1.189
  138SOL     OW  440   0.930   1.678   1.465
  138SOL    HW1  441   0.906   1.660   1.370
  138SOL    HW2  442   0.960   1.772   1.475
  139SOL     OW  443   0.473   0.500   0.191
  139SOL    HW1  444   0.534   0.580   0.195
  139SOL    HW2  445   0.378   0.531   0.198
  140SOL     OW  446   0.159   1.137   1.466
  140SOL    HW1  447   0.181   1.076   1.542
  140SOL    HW2  448   0.169   1.088   1.380
  141SOL     OW  449   1.347   1.059   1.234
  141SOL    HW1  450   1.371   0.996   1.160
  141SOL    HW2  451   1.257   1.099   1.216
  142SOL     OW  452   1.302   0.855   0.309
  142SOL    HW1  453   1.216   0.824   0.351
  142SOL    HW2  454   1.298   0.841   0.210
  143SOL     OW  455   1.759   1.747   1.154
  143SOL    HW1  456   1.820   1.777   1.081
  143SOL    HW2  457   1.721   1.658   1.132
  144SOL     OW  458   1.252   1.731   1.128
  144SOL    HW1  459   1.336   1.736   1.074
  144SOL    HW2  460   1.229   1.635   1.146
  145SOL     OW  461   0.083   1.258   1.022
  145SOL    HW1  462   0.078   1.257   1.122
  145SOL    HW2  463   0.000   1.217   0.984
  146SOL     OW  464   0.688   1.662   1.716
  146SOL    HW1  465   0.632   1.743   1.725
  146SOL    HW2  466   0.740   1.666   1.630
  147SOL     OW  467   0.903   0.086   0.133
  147SOL    HW1  468   0.954   0.087   0.047
  147SOL    HW2  469   0.959   0.044   0.204
  148SOL     OW  470   1.726   0.135   0.523
  148SOL    HW1  471   1.799   0.118   0.456
  148SOL    HW2  472   1.695   0.048   0.561
  149SOL     OW  473   1.388   1.573   0.477
  149SOL    HW1  474   1.455   1.585   0.403
  149SOL    HW2  475   1.348   1.662   0.500
  150SOL     OW  476   0.130   1.794   1.851
  150SOL    HW1  477   0.089   1.720   1.904
  150SOL    HW2  478   0.194   1.845   1.909
  151SOL     OW  479   1.280   0.927   0.672
  151SOL    HW1  480   1.340   0.846   0.674
  151SOL    HW2  481   1.320   0.996   0.612
  152SOL     OW  482   0.830   1.273   1.422
  152SOL    HW1  483   0.825   1.306   1.517
  152SOL    HW2  484   0.744   1.292   1.376
  153SOL     OW  485   0.672   1.616   0.154
  153SOL    HW1  486   0.681   1.626   0.055
  153SOL    HW2  487   0.632   1.527   0.175
  154SOL     OW  488   1.841   0.175   0.963
  154SOL    HW1  489   1.880   0.090   0.927
  154SOL    HW2  490   1.743   0.177   0.944
  155SOL     OW  491   0.263   0.326   0.720
  155SOL    HW1  492   0.184   0.377   0.686
  155SOL    HW2  493   0.254   0.311   0.818
  156SOL     OW  494   1.194   1.612   0.031
  156SOL    HW1  495   1.200   1.519   0.068
  156SOL    HW2  496   1.135   1.612  -0.049
  157SOL     OW  497   0.822   1.002   1.372
  157SOL    HW1  498   0.862   1.001   1.280
  157SOL    HW2  499   0.832   1.094   1.412
  158SOL     OW  500   0.916   0.910   0.291
  158SOL    HW1  501   0.979   0.948   0.223
  158SOL    HW2  502   0.956   0.827   0.330
  159SOL     OW  503   1.504   1.607   0.044
  159SOL    HW1  504   1.412   1.644   0.051
  159SOL    HW2  505   1.542   1.627  -0.046
  160SOL     OW  506   0.372   1.288   1.490
  160SOL    HW1  507   0.359   1.381   1.456
  160SOL    HW2  508   0.288   1.236   1.477
  161SOL     OW  509   1.039   1.098   0.696
  161SOL    HW1  510   0.969   1.051   0.750
  161SOL    HW2  511   1.098   1.030   0.653
  162SOL     OW  512   1.014   0.236   0.971
  162SOL    HW1  513   1.006   0.200   0.878
  162SOL    HW2  514   1.012   0.160   1.036
  163SOL     OW  515   0.590   1.487   0.491
  163SOL    HW1  516   0.632   1.429   0.421
  163SOL    HW2  517   0.546   1.566   0.447
  164SOL     OW  518   1.709   0.385   1.381
  164SOL    HW1  519   1.782   0.454   1.385
  164SOL    HW2  520   1.737   0.310   1.322
  165SOL     OW  521   0.255   1.348   0.290
  165SOL    HW1  522   0.159   1.349   0.263
  165SOL    HW2  523   0.267   1.401   0.374
  166SOL     OW  524   0.105   1.013   1.726
  166SOL    HW1  525   0.028   0.980   1.780
  166SOL    HW2  526   0.190   0.983   1.768
  167SOL     OW  527   0.672   0.203   1.489
  167SOL    HW1  528   0.762   0.187   1.449
  167SOL    HW2  529   0.680   0.208   1.588
  168SOL     OW  530   0.075   0.345   0.033
  168SOL    HW1  531  -0.017   0.317   0.004
  168SOL    HW2  532   0.106   0.422  -0.023
  169SOL     OW  533   1.440   0.856   1.398
  169SOL    HW1  534   1.383   0.908   1.335
  169SOL    HW2  535   1.536   0.868   1.374
  170SOL     OW  536   0.072   0.166   0.318
  170SOL    HW1  537   0.055   0.249   0.264
  170SOL    HW2  538   0.162   0.129   0.296
  171SOL     OW  539   1.183   1.335   0.119
  171SOL    HW1  540   1.084   1.324   0.121
  171SOL    HW2  541   1.217   1.350   0.212
  172SOL     OW  542   0.613   0.842   1.431
  172SOL    HW1  543   0.669   0.923   1.414
  172SOL    HW2  544   0.672   0.762   1.434
  173SOL     OW  545   1.493   1.767   0.959
  173SOL    HW1  546   1.526   1.831   0.890
  173SOL    HW2  547   1.559   1.761   1.034
  174SOL     OW  548   0.716   0.565   1.708
  174SOL    HW1  549   0.735   0.630   1.782
  174SOL    HW2  550   0.776   0.485   1.717
  175SOL     OW  551   0.390   1.741   1.560
  175SOL    HW1  552   0.299   1.782   1.558
  175SOL    HW2  553   0.383   1.647   1.592
  176SOL     OW  554   1.674   0.883   1.254
  176SOL    HW1  555   1.647   0.794   1.217
  176SOL    HW2  556   1.675   0.951   1.181
  177SOL     OW  557   1.225   0.325   0.449
  177SOL    HW1  558   1.290   0.251   0.438
  177SOL    HW2  559   1.245   0.375   0.533
  178SOL     OW  560   0.594   0.745   0.652
  178SOL    HW1  561   0.644   0.830   0.633
  178SOL    HW2  562   0.506   0.747   0.604
  179SOL     OW  563   1.777   0.342   1.642
  179SOL    HW1  564   1.760   0.373   1.548
  179SOL    HW2  565   1.693   0.305   1.680
  180SOL     OW  566   1.730   0.934   1.517
  180SOL    HW1  567   1.768   1.025   1.532
  180SOL    HW2  568   1.722   0.917   1.418
  181SOL     OW  569   0.859   1.374   0.016
  181SOL    HW1  570   0.813   1.389   0.104
  181SOL    HW2  571   0.903   1.459  -0.014
  182SOL     OW  572   0.661   1.790   0.953
  182SOL    HW1  573   0.615   1.878   0.940
  182SOL    HW2  574   0.760   1.802   0.946
  183SOL     OW  575   0.859   0.956   0.861
  183SOL    HW1  576   0.913   0.887   0.909
  183SOL    HW2  577   0.827   1.025   0.927
  184SOL     OW  578   1.083   0.984   0.087
  184SOL    HW1  579   1.060   1.037   0.005
  184SOL    HW2  580   1.164   0.928   0.068
  185SOL     OW  581   1.861   1.569   0.851
  185SOL    HW1  582   1.790   1.557   0.781
  185SOL    HW2  583   1.862   1.490   0.911
  186SOL     OW  584   0.221   1.314   1.844
  186SOL    HW1  585   0.156   1.241   1.823
  186SOL    HW2  586   0.225   1.328   1.942
  187SOL     OW  587   0.079   1.240   0.653
  187SOL    HW1  588   0.078   1.193   0.741
  187SOL    HW2  589   0.161   1.212   0.602
  188SOL     OW  590   0.672   1.391   1.624
  188SOL    HW1  591   0.594   1.341   1.662
  188SOL    HW2  592   0.669   1.486   1.655
  189SOL     OW  593   1.824   0.192   1.227
  189SOL    HW1  594   1.820   0.102   1.271
  189SOL    HW2  595   1.827   0.181   1.128
  190SOL     OW  596   0.428   0.424   0.520
  190SOL    HW1  597   0.458   0.352   0.458
  190SOL    HW2  598   0.389   0.384   0.603
  191SOL     OW  599   1.705   1.487   1.104
  191SOL    HW1  600   1.612   1.462   1.077
  191SOL    HW2  601   1.731   1.437   1.186
  192SOL     OW  602   0.317   0.547   1.280
  192SOL    HW1  603   0.355   0.488   1.352
  192SOL    HW2  604   0.357   0.521   1.192
  193SOL     OW  605   0.812   1.586   0.687
  193SOL    HW1  606   0.844   1.596   0.593
  193SOL    HW2  607   0.733   1.524   0.689
  194SOL     OW  608   1.424   0.214   1.112
  194SOL    HW1  609   1.476   0.149   1.167
  194SOL    HW2  610   1.375   0.277   1.173
  195SOL     OW  611   1.001   0.034   1.154
  195SOL    HW1  612   0.938  -0.038   1.123
  195SOL    HW2  613   1.094  -0.002   1.154
  196SOL     OW  614   0.770   1.330   0.301
  196SOL    HW1  615   0.724   1.243   0.318
  196SOL    HW2  616   0.861   1.327   0.342
  197SOL     OW  617   0.618   1.567   1.284
  197SOL    HW1  618   0.613   1.649   1.341
  197SOL    HW2  619   0.707   1.564   1.239
  198SOL     OW  620   1.352   0.052   0.168
  198SOL    HW1  621   1.387   0.011   0.084
  198SOL    HW2  622   1.262   0.014   0.188
  199SOL     OW  623   1.300   0.453   0.691
  199SOL    HW1  624   1.241   0.533   0.695
  199SOL    HW2  625   1.315   0.418   0.784
  200SOL     OW  626   1.593   0.221   0.882
  200SOL    HW1  627   1.509   0.220   0.936
  200SOL    HW2  628   1.595   0.304   0.826
  201SOL     OW  629   0.039   1.077   0.300
  201SOL    HW1  630   0.138   1.066   0.291
  201SOL    HW2  631  -0.001   0.991   0.332
  202SOL     OW  632   0.875   1.646   0.337
  202SOL    HW1  633   0.798   1.611   0.283
  202SOL    HW2  634   0.843   1.717   0.399
  203SOL     OW  635   0.230   0.628   1.975
  203SOL    HW1  636   0.137   0.626   2.012
  203SOL    HW2  637   0.231   0.589   1.883
  204SOL     OW  638   0.225   0.275   2.858
  204SOL    HW1  639   0.260   0.258   2.950
  204SOL    HW2  640   0.137   0.230   2.846
  205SOL     OW  641   0.019   0.368   2.509
  205SOL    HW1  642  -0.063   0.411   2.548
  205SOL    HW2  643  -0.009   0.295   2.446
  206SOL     OW  644   1.555   1.511   2.565
  206SOL    HW1  645   1.498   1.495   2.646
  206SOL    HW2  646   1.496   1.521   2.485
  207SOL     OW  647   1.135   0.703   2.579
  207SOL    HW1  648   1.192   0.781   2.554
  207SOL    HW2  649   1.075   0.729   2.655
  208SOL     OW  650   1.755   0.607   2.093
  208SOL    HW1  651   1.743   0.594   1.994
  208SOL    HW2  652   1.725   0.526   2.142
  209SOL     OW  653   0.768   1.144   2.885
  209SOL    HW1  654   0.690   1.161   2.945
  209SOL    HW2  655   0.802   1.231   2.849
  210SOL     OW  656   0.685   1.012   2.527
  210SOL    HW1  657   0.754   0.996   2.597
  210SOL    HW2  658   0.612   1.069   2.565
  211SOL     OW  659   0.335   1.435   2.923
  211SOL    HW1  660   0.257   1.404   2.870
  211SOL    HW2  661   0.393   1.493   2.866
  212SOL     OW  662   1.603   0.447   2.599
  212SOL    HW1  663   1.529   0.493   2.549
  212SOL    HW2  664   1.654   0.515   2.652
  213SOL     OW  665   0.231   1.713   2.345
  213SOL    HW1  666   0.265   1.790   2.399
  213SOL    HW2  667   0.275   1.713   2.255
  214SOL     OW  668   0.230   1.434   2.400
  214SOL    HW1  669   0.204   1.530   2.400
  214SOL    HW2  670   0.159   1.380   2.445
  215SOL     OW  671   0.240   1.091   2.748
  215SOL    HW1  672   0.254   1.007   2.800
  215SOL    HW2  673   0.185   1.155   2.803
  216SOL     OW  674   0.606   0.964   1.985
  216SOL    HW1  675   0.613   1.048   1.931
  216SOL    HW2  676   0.652   0.977   2.073
  217SOL     OW  677   0.122   0.643   2.425
  217SOL    HW1  678   0.077   0.555   2.442
  217SOL    HW2  679   0.121   0.697   2.509
  218SOL     OW  680   1.842   1.767   2.221
  218SOL    HW1  681   1.896   1.738   2.301
  218SOL    HW2  682   1.872   1.857   2.192
  219SOL     OW  683   0.027   1.596   1.979
  219SOL    HW1  684   0.008   1.500   2.000
  219SOL    HW2  685  -0.006   1.654   2.054
  220SOL     OW  686   1.689   0.922   2.474
  220SOL    HW1  687   1.784   0.893   2.482
  220SOL    HW2  688   1.681   0.987   2.399
  221SOL     OW  689   1.641   1.108   2.294
  221SOL    HW1  690   1.727   1.110   2.242
  221SOL    HW2  691   1.655   1.155   2.382
  222SOL     OW  692   0.613   1.365   2.588
  222SOL    HW1  693   0.564   1.278   2.597
  222SOL    HW2  694   0.590   1.408   2.501
  223SOL     OW  695   0.809   0.004   2.364
  223SOL    HW1  696   0.849   0.095   2.355
  223SOL    HW2  697   0.709   0.012   2.370
  224SOL     OW  698   1.525   0.999   2.052
  224SOL    HW1  699   1.462   0.923   2.065
  224SOL    HW2  700   1.573   1.017   2.138
  225SOL     OW  701   1.466   1.417   2.815
  225SOL    HW1  702   1.407   1.423   2.895
  225SOL    HW2  703   1.451   1.329   2.769
  226SOL     OW  704   1.667   1.714   2.434
  226SOL    HW1  705   1.626   1.691   2.346
  226SOL    HW2  706   1.649   1.640   2.499
  227SOL     OW  707   0.598   0.729   2.132
  227SOL    HW1  708   0.622   0.798   2.064
  227SOL    HW2  709   0.520   0.762   2.186
  228SOL     OW  710   1.281   0.345   2.806
  228SOL    HW1  711   1.195   0.295   2.793
  228SOL    HW2  712   1.343   0.291   2.862
  229SOL     OW  713   1.576   1.662   2.169
  229SOL    HW1  714   1.665   1.708   2.172
  229SOL    HW2  715   1.555   1.638   2.074
  230SOL     OW  716   1.041   0.701   2.291
  230SOL    HW1  717   1.067   0.697   2.387
  230SOL    HW2  718   0.956   0.650   2.277
  231SOL     OW  719   0.076   0.811   2.651
  231SOL    HW1  720   0.175   0.799   2.660
  231SOL    HW2  721   0.052   0.906   2.672
  232SOL     OW  722   0.865   0.348   2.057
  232SOL    HW1  723   0.924   0.411   2.008
  232SOL    HW2  724   0.884   0.254   2.028
  233SOL     OW  725   1.362   1.144   2.407
  233SOL    HW1  726   1.445   1.115   2.359
  233SOL    HW2  727   1.313   1.211   2.351
  234SOL     OW  728   0.550   0.196   2.747
  234SOL    HW1  729   0.545   0.191   2.847
  234SOL    HW2  730   0.552   0.292   2.718
  235SOL     OW  731   1.008   1.456   2.339
  235SOL    HW1  732   0.962   1.528   2.287
  235SOL    HW2  733   1.004   1.476   2.437
  236SOL     OW  734   0.351   1.801   2.715
  236SOL    HW1  735   0.401   1.715   2.721
  236SOL    HW2  736   0.416   1.878   2.712
  237SOL     OW  737   1.795   1.066   2.735
  237SOL    HW1  738   1.733   1.051   2.659
  237SOL    HW2  739   1.743   1.077   2.820
  238SOL     OW  740   0.321   0.943   2.104
  238SOL    HW1  741   0.403   0.982   2.062
  238SOL    HW2  742   0.294   0.861   2.055
  239SOL     OW  743   1.458   0.735   2.590
  239SOL    HW1  744   1.453   0.670   2.665
  239SOL    HW2  745   1.538   0.794   2.603
  240SOL     OW  746   1.111   1.776   2.099
  240SOL    HW1  747   1.051   1.714   2.149
  240SOL    HW2  748   1.142   1.732   2.014
  241SOL     OW  749   1.632   1.377   1.943
  241SOL    HW1  750   1.600   1.471   1.933
  241SOL    HW2  751   1.556   1.314   1.931
  242SOL     OW  752   0.464   1.743   2.185
  242SOL    HW1  753   0.497   1.782   2.271
  242SOL    HW2  754   0.540   1.736   2.120
  243SOL     OW  755   1.400   0.107   2.288
  243SOL    HW1  756   1.376   0.070   2.198
  243SOL    HW2  757   1.499   0.123   2.292
  244SOL     OW  758   0.249   1.785   3.103
  244SOL    HW1  759   0.306   1.720   3.153
  244SOL    HW2  760   0.233   1.752   3.010
  245SOL     OW  761   0.940   1.698   2.766
  245SOL    HW1  762   1.020   1.641   2.787
  245SOL    HW2  763   0.891   1.658   2.689
  246SOL     OW  764   0.382   0.700   2.342
  246SOL    HW1  765   0.427   0.610   2.339
  246SOL    HW2  766   0.288   0.689   2.375
  247SOL     OW  767   0.614   0.122   1.979
  247SOL    HW1  768   0.712   0.100   1.986
  247SOL    HW2  769   0.583   0.105   1.886
  248SOL     OW  770   0.922   0.503   2.761
  248SOL    HW1  771   0.897   0.494   2.665
  248SOL    HW2  772   0.970   0.421   2.792
  249SOL     OW  773   0.539   0.064   2.374
  249SOL    HW1  774   0.458   0.065   2.432
  249SOL    HW2  775   0.542   0.147   2.319
  250SOL     OW  776   1.434   1.188   1.903
  250SOL    HW1  777   1.466   1.112   1.960
  250SOL    HW2  778   1.342   1.215   1.933
  251SOL     OW  779   0.297   0.035   2.033
  251SOL    HW1  780   0.346   0.119   2.012
  251SOL    HW2  781   0.359  -0.030   2.078
  252SOL     OW  782   0.935   0.236   2.342
  252SOL    HW1  783   0.887   0.277   2.264
  252SOL    HW2  784   1.034   0.234   2.323
  253SOL     OW  785   1.227   1.570   2.655
  253SOL    HW1  786   1.248   1.644   2.590
  253SOL    HW2  787   1.295   1.570   2.728
  254SOL     OW  788   0.459   1.152   2.603
  254SOL    HW1  789   0.388   1.125   2.668
  254SOL    HW2  790   0.433   1.124   2.510
  255SOL     OW  791   1.271   1.797   2.453
  255SOL    HW1  792   1.315   1.861   2.389
  255SOL    HW2  793   1.221   1.849   2.523
  256SOL     OW  794   1.032   0.549   1.878
  256SOL    HW1  795   0.991   0.631   1.839
  256SOL    HW2  796   1.096   0.575   1.951
  257SOL     OW  797   0.866   0.454   2.504
  257SOL    HW1  798   0.834   0.526   2.442
  257SOL    HW2  799   0.890   0.373   2.451
  258SOL     OW  800   1.017   0.039   2.615
  258SOL    HW1  801   0.945   0.044   2.546
  258SOL    HW2  802   0.993  -0.030   2.684
  259SOL     OW  803   1.429   1.173   2.729
  259SOL    HW1  804   1.374   1.089   2.722
  259SOL    HW2  805   1.455   1.202   2.637
  260SOL     OW  806   1.857   0.833   2.239
  260SOL    HW1  807   1.899   0.769   2.303
  260SOL    HW2  808   1.819   0.782   2.161
  261SOL     OW  809   0.488   1.385   2.036
  261SOL    HW1  810   0.401   1.370   2.083
  261SOL    HW2  811   0.471   1.411   1.941
  262SOL     OW  812   1.664   1.280   2.519
  262SOL    HW1  813   1.763   1.288   2.533
  262SOL    HW2  814   1.619   1.364   2.550
  263SOL     OW  815   1.390   0.575   1.940
  263SOL    HW1  816   1.336   0.554   2.021
  263SOL    HW2  817   1.481   0.534   1.949
  264SOL     OW  818   0.527   0.256   2.190
  264SOL    HW1  819   0.554   0.197   2.115
  264SOL    HW2  820   0.527   0.351   2.159
  265SOL     OW  821   1.638   1.099   2.941
  265SOL    HW1  822   1.643   1.180   3.000
  265SOL    HW2  823   1.552   1.101   2.890
  266SOL     OW  824   0.705   1.050   2.230
  266SOL    HW1  825   0.691   1.057   2.329
  266SOL    HW2  826   0.789   0.999   2.212
  267SOL     OW  827   0.367   1.100   2.363
  267SOL    HW1  828   0.360   1.183   2.307
  267SOL    HW2  829   0.371   1.020   2.303
  268SOL     OW  830   0.566   0.537   2.727
  268SOL    HW1  831   0.578   0.603   2.653
  268SOL    HW2  832   0.612   0.571   2.810
  269SOL     OW  833   1.252   1.348   2.250
  269SOL    HW1  834   1.302   1.425   2.290
  269SOL    HW2  835   1.157   1.350   2.282
  270SOL     OW  836   1.582   0.639   2.334
  270SOL    HW1  837   1.551   0.700   2.407
  270SOL    HW2  838   1.632   0.691   2.265
  271SOL     OW  839   0.573   0.870   2.891
  271SOL    HW1  840   0.617   0.959   2.882
  271SOL    HW2  841   0.510   0.870   2.968
  272SOL     OW  842   1.209   0.525   2.137
  272SOL    HW1  843   1.222   0.441   2.191
  272SOL    HW2  844   1.180   0.599   2.197
  273SOL     OW  845   0.732   0.634   2.926
  273SOL    HW1  846   0.791   0.608   2.850
  273SOL    HW2  847   0.704   0.730   2.915
  274SOL     OW  848   0.307   0.063   2.480
  274SOL    HW1  849   0.296   0.157   2.513
  274SOL    HW2  850   0.302   0.000   2.557
  275SOL     OW  851   1.622   0.367   2.236
  275SOL    HW1  852   1.624   0.291   2.300
  275SOL    HW2  853   1.574   0.444   2.276
  276SOL     OW  854   1.540   0.274   1.987
  276SOL    HW1  855   1.479   0.199   2.010
  276SOL    HW2  856   1.562   0.326   2.070
  277SOL     OW  857   1.303   0.838   1.904
  277SOL    HW1  858   1.337   0.745   1.919
  277SOL    HW2  859   1.321   0.865   1.809
  278SOL     OW  860   1.068   1.333   2.711
  278SOL    HW1  861   1.075   1.249   2.656
  278SOL    HW2  862   1.130   1.402   2.675
  279SOL     OW  863   0.319   0.810   2.811
  279SOL    HW1  864   0.412   0.846   2.816
  279SOL    HW2  865   0.313   0.725   2.863
  280SOL     OW  866   0.339   0.509   2.868
  280SOL    HW1  867   0.287   0.426   2.851
  280SOL    HW2  868   0.416   0.514   2.804
  281SOL     OW  869   0.008   1.326   2.062
  281SOL    HW1  870  -0.085   1.347   2.031
  281SOL    HW2  871   0.018   1.227   2.075
  282SOL     OW  872   0.088   1.801   2.789
  282SOL    HW1  873   0.046   1.715   2.762
  282SOL    HW2  874   0.182   1.804   2.755
  283SOL     OW  875   0.504   1.568   2.772
  283SOL    HW1  876   0.570   1.642   2.781
  283SOL    HW2  877   0.548   1.489   2.730
  284SOL     OW  878   0.815   0.572   2.187
  284SOL    HW1  879   0.822   0.483   2.141
  284SOL    HW2  880   0.721   0.606   2.179
  285SOL     OW  881   0.671   0.464   3.131
  285SOL    HW1  882   0.637   0.375   3.101
  285SOL    HW2  883   0.697   0.518   3.051
  286SOL     OW  884   0.473   0.500   2.053
  286SOL    HW1  885   0.534   0.580   2.057
  286SOL    HW2  886   0.378   0.531   2.060
  287SOL     OW  887   1.302   0.855   2.171
  287SOL    HW1  888   1.216   0.824   2.213
  287SOL    HW2  889   1.298   0.841   2.072
  288SOL     OW  890   1.759   1.747   3.016
  288SOL    HW1  891   1.820   1.777   2.943
  288SOL    HW2  892   1.721   1.658   2.994
  289SOL     OW  893   0.083   1.258   2.884
  289SOL    HW1  894   0.078   1.257   2.984
  289SOL    HW2  895   0.000   1.217   2.846
  290SOL     OW  896   1.726   0.135   2.385
  290SOL    HW1  897   1.799   0.118   2.318
  290SOL    HW2  898   1.695   0.048   2.423
  291SOL     OW  899   1.388   1.573   2.339
  291SOL    HW1  900   1.455   1.585   2.265
  291SOL    HW2  901   1.348   1.662   2.362
  292SOL     OW  902   1.280   0.927   2.534
  292SOL    HW1  903   1.340   0.846   2.536
  292SOL    HW2  904   1.320   0.996   2.474
  293SOL     OW  905   0.672   1.616   2.016
  293SOL    HW1  906   0.681   1.626   1.917
  293SOL    HW2  907   0.632   1.527   2.037
  294SOL     OW  908   1.841   0.175   2.825
  294SOL    HW1  909   1.880   0.090   2.789
  294SOL    HW2  910   1.743   0.177   2.806
  295SOL     OW  911   0.263   0.326   2.582
  295SOL    HW1  912   0.184   0.377   2.548
  295SOL    HW2  913   0.254   0.311   2.680
  296SOL     OW  914   1.194   1.612   1.893
  296SOL    HW1  915   1.200   1.519   1.930
  296SOL    HW2  916   1.135   1.612   1.813
  297SOL     OW  917   0.916   0.910   2.153
  297SOL    HW1  918   0.979   0.948   2.085
  297SOL    HW2  919   0.956   0.827   2.192
  298SOL     OW  920   1.504   1.607   1.906
  298SOL    HW1  921   1.412   1.644   1.913
  298SOL    HW2  922   1.542   1.627   1.816
  299SOL     OW  923   1.039   1.098   2.558
  299SOL    HW1  924   0.969   1.051   2.612
  299SOL    HW2  925   1.098   1.030   2.515
  300SOL     OW  926   0.590   1.487   2.353
  300SOL    HW1  927   0.632   1.429   2.283
  300SOL    HW2  928   0.546   1.566   2.309
  301SOL     OW  929   0.255   1.348   2.152
  301SOL    HW1  930   0.159   1.349   2.125
  301SOL    HW2  931   0.267   1.401   2.236
  302SOL     OW  932   0.075   0.345   1.895
  302SOL    HW1  933  -0.017   0.317   1.866
  302SOL    HW2  934   0.106   0.422   1.839
  303SOL     OW  935   0.072   0.166   2.180
  303SOL    HW1  936   0.055   0.249   2.126
  303SOL    HW2  937   0.162   0.129   2.158
  304SOL     OW  938   1.183   1.335   1.981
  304SOL    HW1  939   1.084   1.324   1.983
  304SOL    HW2  940   1.217   1.350   2.074
  305SOL     OW  941   1.674   0.883   3.116
  305SOL    HW1  942   1.647   0.794   3.079
  305SOL    HW2  943   1.675   0.951   3.043
  306SOL     OW  944   1.225   0.325   2.311
  306SOL    HW1  945   1.290   0.251   2.300
  306SOL    HW2  946   1.245   0.375   2.395
  307SOL     OW  947   0.594   0.745   2.514
  307SOL    HW1  948   0.644   0.830   2.495
  307SOL    HW2  949   0.506   0.747   2.466
  308SOL     OW  950   0.859   1.374   1.878
  308SOL    HW1  951   0.813   1.389   1.966
  308SOL    HW2  952   0.903   1.459   1.848
  309SOL     OW  953   0.661   1.790   2.815
  309SOL    HW1  954   0.615   1.878   2.802
  309SOL    HW2  955   0.760   1.802   2.808
  310SOL     OW  956   0.859   0.956   2.723
  310SOL    HW1  957   0.913   0.887   2.771
  310SOL    HW2  958   0.827   1.025   2.789
  311SOL     OW  959   1.083   0.984   1.949
  311SOL    HW1  960   1.060   1.037   1.867
  311SOL    HW2  961   1.164   0.928   1.930
  312SOL     OW  962   1.861   1.569   2.713
  312SOL    HW1  963   1.790   1.557   2.643
  312SOL    HW2  964   1.862   1.490   2.773
  313SOL     OW  965   0.079   1.240   2.515
  313SOL    HW1  966   0.078   1.193   2.603
  313SOL    HW2  967   0.161   1.212   2.464
  314SOL     OW  968   1.824   0.192   3.089
  314SOL    HW1  969   1.820   0.102   3.133
  314SOL    HW2  970   1.827   0.181   2.990
  315SOL     OW  971   0.428   0.424   2.382
  315SOL    HW1  972   0.458   0.352   2.320
  315SOL    HW2  973   0.389   0.384   2.465
  316SOL     OW  974   0.812   1.586   2.549
  316SOL    HW1  975   0.844   1.596   2.455
  316SOL    HW2  976   0.733   1.524   2.551
  317SOL     OW  977   0.770   1.330   2.163
  317SOL    HW1  978   0.724   1.243   2.180
  317SOL    HW2  979   0.861   1.327   2.204
  318SOL     OW  980   1.352   0.052   2.030
  318SOL    HW1  981   1.387   0.011   1.946
  318SOL    HW2  982   1.262   0.014   2.050
  319SOL     OW  983   1.300   0.453   2.553
  319SOL    HW1  984   1.241   0.533   2.557
  319SOL    HW2  985   1.315   0.418   2.646
  320SOL     OW  986   1.593   0.221   2.744
  320SOL    HW1  987   1.509   0.220   2.798
  320SOL    HW2  988   1.595   0.304   2.688
  321SOL     OW  989   0.039   1.077   2.162
  321SOL    HW1  990   0.138   1.066   2.153
  321SOL    HW2  991  -0.001   0.991   2.194
  322SOL     OW  992   0.875   1.646   2.199
  322SOL    HW1  993   0.798   1.611   2.145
  322SOL    HW2  994   0.843   1.717   2.261
  323SOL     OW  995   0.230   2.490   0.113
  323SOL    HW1  996   0.137   2.488   0.150
  323SOL    HW2  997   0.231   2.451   0.021
  324SOL     OW  998   0.225   2.137   0.996
  324SOL    HW1  999   0.260   2.120   1.088
  324SOL    HW2 1000   0.137   2.092   0.984
  325SOL     OW 1001   0.019   2.230   0.647
  325SOL    HW1 1002  -0.063   2.273   0.686
  325SOL    HW2 1003  -0.009   2.157   0.584
  326SOL     OW 1004   1.135   2.565   0.717
  326SOL    HW1 1005   1.192   2.643   0.692
  326SOL    HW2 1006   1.075   2.591   0.793
  327SOL     OW 1007   1.755   2.469   0.231
  327SOL    HW1 1008   1.743   2.456   0.132
  327SOL    HW2 1009   1.725   2.388   0.280
  328SOL     OW 1010   0.768   3.006   1.023
  328SOL    HW1 1011   0.690   3.023   1.083
  328SOL    HW2 1012   0.802   3.093   0.987
  329SOL     OW 1013   0.850   2.660   1.823
  329SOL    HW1 1014   0.846   2.736   1.888
  329SOL    HW2 1015   0.872   2.696   1.732
  330SOL     OW 1016   0.685   2.874   0.665
  330SOL    HW1 1017   0.754   2.858   0.735
  330SOL    HW2 1018   0.612   2.931   0.703
  331SOL     OW 1019   0.438   2.254   1.499
  331SOL    HW1 1020   0.520   2.198   1.508
  331SOL    HW2 1021   0.357   2.196   1.503
  332SOL     OW 1022   1.603   2.309   0.737
  332SOL    HW1 1023   1.529   2.355   0.687
  332SOL    HW2 1024   1.654   2.377   0.790
  333SOL     OW 1025   0.240   2.953   0.886
  333SOL    HW1 1026   0.254   2.869   0.938
  333SOL    HW2 1027   0.185   3.017   0.941
  334SOL     OW 1028   0.122   2.505   0.563
  334SOL    HW1 1029   0.077   2.417   0.580
  334SOL    HW2 1030   0.121   2.559   0.647
  335SOL     OW 1031   0.113   2.599   1.597
  335SOL    HW1 1032   0.201   2.586   1.642
  335SOL    HW2 1033   0.100   2.696   1.575
  336SOL     OW 1034   0.809   1.866   0.502
  336SOL    HW1 1035   0.849   1.957   0.493
  336SOL    HW2 1036   0.709   1.874   0.508
  337SOL     OW 1037   0.197   2.838   1.264
  337SOL    HW1 1038   0.286   2.793   1.250
  337SOL    HW2 1039   0.124   2.773   1.245
  338SOL     OW 1040   1.525   2.861   0.190
  338SOL    HW1 1041   1.462   2.785   0.203
  338SOL    HW2 1042   1.573   2.879   0.276
  339SOL     OW 1043   0.317   2.113   1.801
  339SOL    HW1 1044   0.388   2.184   1.807
  339SOL    HW2 1045   0.229   2.152   1.829
  340SOL     OW 1046   0.598   2.591   0.270
  340SOL    HW1 1047   0.622   2.660   0.202
  340SOL    HW2 1048   0.520   2.624   0.324
  341SOL     OW 1049   1.281   2.207   0.944
  341SOL    HW1 1050   1.195   2.157   0.931
  341SOL    HW2 1051   1.343   2.153   1.000
  342SOL     OW 1052   0.807   2.467   1.465
  342SOL    HW1 1053   0.760   2.464   1.554
  342SOL    HW2 1054   0.756   2.412   1.399
  343SOL     OW 1055   1.394   2.331   1.674
  343SOL    HW1 1056   1.374   2.374   1.762
  343SOL    HW2 1057   1.472   2.269   1.683
  344SOL     OW 1058   0.973   2.752   1.572
  344SOL    HW1 1059   1.019   2.668   1.543
  344SOL    HW2 1060   0.917   2.786   1.497
  345SOL     OW 1061   0.991   2.272   1.242
  345SOL    HW1 1062   0.914   2.306   1.296
  345SOL    HW2 1063   0.957   2.221   1.163
  346SOL     OW 1064   1.041   2.563   0.429
  346SOL    HW1 1065   1.067   2.559   0.525
  346SOL    HW2 1066   0.956   2.512   0.415
  347SOL     OW 1067   0.076   2.673   0.789
  347SOL    HW1 1068   0.175   2.661   0.798
  347SOL    HW2 1069   0.052   2.768   0.810
  348SOL     OW 1070   0.865   2.210   0.195
  348SOL    HW1 1071   0.924   2.273   0.146
  348SOL    HW2 1072   0.884   2.116   0.166
  349SOL     OW 1073   1.719   2.447   1.831
  349SOL    HW1 1074   1.693   2.536   1.795
  349SOL    HW2 1075   1.717   2.379   1.758
  350SOL     OW 1076   0.550   2.058   0.885
  350SOL    HW1 1077   0.545   2.053   0.985
  350SOL    HW2 1078   0.552   2.154   0.856
  351SOL     OW 1079   1.458   2.597   0.728
  351SOL    HW1 1080   1.453   2.532   0.803
  351SOL    HW2 1081   1.538   2.656   0.741
  352SOL     OW 1082   0.202   2.147   1.498
  352SOL    HW1 1083   0.122   2.207   1.485
  352SOL    HW2 1084   0.192   2.098   1.584
  353SOL     OW 1085   1.400   1.969   0.426
  353SOL    HW1 1086   1.376   1.932   0.336
  353SOL    HW2 1087   1.499   1.985   0.430
  354SOL     OW 1088   0.382   2.562   0.480
  354SOL    HW1 1089   0.427   2.472   0.477
  354SOL    HW2 1090   0.288   2.551   0.513
  355SOL     OW 1091   1.547   2.084   1.729
  355SOL    HW1 1092   1.542   2.121   1.821
  355SOL    HW2 1093   1.475   2.015   1.717
  356SOL     OW 1094   0.614   1.984   0.117
  356SOL    HW1 1095   0.712   1.962   0.124
  356SOL    HW2 1096   0.583   1.967   0.024
  357SOL     OW 1097   0.781   2.126   1.749
  357SOL    HW1 1098   0.848   2.065   1.792
  357SOL    HW2 1099   0.708   2.145   1.814
  358SOL     OW 1100   1.351   2.452   1.433
  358SOL    HW1 1101   1.379   2.409   1.518
  358SOL    HW2 1102   1.376   2.548   1.434
  359SOL     OW 1103   0.922   2.365   0.899
  359SOL    HW1 1104   0.897   2.356   0.803
  359SOL    HW2 1105   0.970   2.283   0.930
  360SOL     OW 1106   0.539   1.926   0.512
  360SOL    HW1 1107   0.458   1.927   0.570
  360SOL    HW2 1108   0.542   2.009   0.457
  361SOL     OW 1109   0.935   2.098   0.480
  361SOL    HW1 1110   0.887   2.139   0.402
  361SOL    HW2 1111   1.034   2.096   0.461
  362SOL     OW 1112   1.076   2.545   1.464
  362SOL    HW1 1113   0.996   2.484   1.467
  362SOL    HW2 1114   1.157   2.492   1.440
  363SOL     OW 1115   1.032   2.411   0.016
  363SOL    HW1 1116   0.991   2.493  -0.023
  363SOL    HW2 1117   1.096   2.437   0.089
  364SOL     OW 1118   0.078   2.418   1.386
  364SOL    HW1 1119   0.170   2.417   1.345
  364SOL    HW2 1120   0.072   2.492   1.453
  365SOL     OW 1121   0.561   2.084   1.147
  365SOL    HW1 1122   0.599   2.000   1.184
  365SOL    HW2 1123   0.473   2.103   1.191
  366SOL     OW 1124   0.866   2.316   0.642
  366SOL    HW1 1125   0.834   2.388   0.580
  366SOL    HW2 1126   0.890   2.235   0.589
  367SOL     OW 1127   1.017   1.901   0.753
  367SOL    HW1 1128   0.945   1.906   0.684
  367SOL    HW2 1129   0.993   1.832   0.822
  368SOL     OW 1130   1.466   2.452   0.992
  368SOL    HW1 1131   1.436   2.357   0.999
  368SOL    HW2 1132   1.539   2.468   1.058
  369SOL     OW 1133   1.857   2.695   0.377
  369SOL    HW1 1134   1.899   2.631   0.441
  369SOL    HW2 1135   1.819   2.644   0.299
  370SOL     OW 1136   1.390   2.437   0.078
  370SOL    HW1 1137   1.336   2.416   0.159
  370SOL    HW2 1138   1.481   2.396   0.087
  371SOL     OW 1139   0.527   2.118   0.328
  371SOL    HW1 1140   0.554   2.059   0.253
  371SOL    HW2 1141   0.527   2.213   0.297
  372SOL     OW 1142   1.638   2.961   1.079
  372SOL    HW1 1143   1.643   3.042   1.138
  372SOL    HW2 1144   1.552   2.963   1.028
  373SOL     OW 1145   0.915   1.951   1.402
  373SOL    HW1 1146   0.940   1.931   1.307
  373SOL    HW2 1147   0.987   2.007   1.444
  374SOL     OW 1148   0.410   2.675   1.251
  374SOL    HW1 1149   0.496   2.687   1.301
  374SOL    HW2 1150   0.368   2.588   1.278
  375SOL     OW 1151   1.274   2.248   1.262
  375SOL    HW1 1152   1.295   2.322   1.326
  375SOL    HW2 1153   1.185   2.265   1.219
  376SOL     OW 1154   0.566   2.399   0.865
  376SOL    HW1 1155   0.578   2.465   0.791
  376SOL    HW2 1156   0.612   2.433   0.948
  377SOL     OW 1157   1.582   2.501   0.472
  377SOL    HW1 1158   1.551   2.562   0.545
  377SOL    HW2 1159   1.632   2.553   0.403
  378SOL     OW 1160   0.402   2.613   1.598
  378SOL    HW1 1161   0.470   2.668   1.551
  378SOL    HW2 1162   0.442   2.525   1.625
  379SOL     OW 1163   1.587   2.641   1.670
  379SOL    HW1 1164   1.495   2.679   1.665
  379SOL    HW2 1165   1.647   2.688   1.605
  380SOL     OW 1166   1.013   1.967   1.770
  380SOL    HW1 1167   1.019   2.052   1.718
  380SOL    HW2 1168   1.045   1.891   1.713
  381SOL     OW 1169   0.504   1.912   1.740
  381SOL    HW1 1170   0.462   1.855   1.670
  381SOL    HW2 1171   0.438   1.981   1.772
  382SOL     OW 1172   0.573   2.732   1.029
  382SOL    HW1 1173   0.617   2.821   1.020
  382SOL    HW2 1174   0.510   2.732   1.106
  383SOL     OW 1175   1.360   2.724   1.045
  383SOL    HW1 1176   1.285   2.724   0.979
  383SOL    HW2 1177   1.397   2.632   1.054
  384SOL     OW 1178   1.209   2.387   0.275
  384SOL    HW1 1179   1.222   2.303   0.329
  384SOL    HW2 1180   1.180   2.461   0.335
  385SOL     OW 1181   0.307   2.075   1.231
  385SOL    HW1 1182   0.284   2.112   1.321
  385SOL    HW2 1183   0.277   1.980   1.225
  386SOL     OW 1184   0.037   3.172   1.282
  386SOL    HW1 1185   0.090   3.123   1.350
  386SOL    HW2 1186   0.059   3.270   1.287
  387SOL     OW 1187   0.732   2.496   1.064
  387SOL    HW1 1188   0.791   2.470   0.988
  387SOL    HW2 1189   0.704   2.592   1.053
  388SOL     OW 1190   1.728   2.797   1.854
  388SOL    HW1 1191   1.682   2.790   1.765
  388SOL    HW2 1192   1.666   2.841   1.920
  389SOL     OW 1193   0.307   1.925   0.618
  389SOL    HW1 1194   0.296   2.019   0.651
  389SOL    HW2 1195   0.302   1.862   0.695
  390SOL     OW 1196   1.622   2.229   0.374
  390SOL    HW1 1197   1.624   2.153   0.438
  390SOL    HW2 1198   1.574   2.306   0.414
  391SOL     OW 1199   1.023   2.628   0.966
  391SOL    HW1 1200   1.038   2.649   1.062
  391SOL    HW2 1201   0.993   2.533   0.957
  392SOL     OW 1202   0.350   2.760   1.804
  392SOL    HW1 1203   0.426   2.804   1.852
  392SOL    HW2 1204   0.385   2.713   1.722
  393SOL     OW 1205   1.540   2.136   0.125
  393SOL    HW1 1206   1.479   2.061   0.148
  393SOL    HW2 1207   1.562   2.188   0.208
  394SOL     OW 1208   1.303   2.700   0.042
  394SOL    HW1 1209   1.337   2.607   0.057
  394SOL    HW2 1210   1.321   2.727  -0.053
  395SOL     OW 1211   0.319   2.672   0.949
  395SOL    HW1 1212   0.412   2.708   0.954
  395SOL    HW2 1213   0.313   2.587   1.001
  396SOL     OW 1214   0.339   2.371   1.006
  396SOL    HW1 1215   0.287   2.288   0.989
  396SOL    HW2 1216   0.416   2.376   0.942
  397SOL     OW 1217   1.138   2.242   1.678
  397SOL    HW1 1218   1.093   2.305   1.742
  397SOL    HW2 1219   1.231   2.273   1.661
  398SOL     OW 1220   1.160   2.069   1.477
  398SOL    HW1 1221   1.160   2.133   1.554
  398SOL    HW2 1222   1.188   2.117   1.394
  399SOL     OW 1223   1.002   2.658   1.238
  399SOL    HW1 1224   1.043   2.626   1.324
  399SOL    HW2 1225   0.906   2.631   1.235
  400SOL     OW 1226   0.040   2.406   1.114
  400SOL    HW1 1227   0.125   2.373   1.073
  400SOL    HW2 1228   0.053   2.421   1.212
  401SOL     OW 1229   0.189   2.382   1.722
  401SOL    HW1 1230   0.248   2.342   1.652
  401SOL    HW2 1231   0.131   2.453   1.681
  402SOL     OW 1232   1.369   2.812   1.660
  402SOL    HW1 1233   1.408   2.901   1.680
  402SOL    HW2 1234   1.379   2.792   1.563
  403SOL     OW 1235   0.815   2.434   0.325
  403SOL    HW1 1236   0.822   2.345   0.279
  403SOL    HW2 1237   0.721   2.468   0.317
  404SOL     OW 1238   1.657   2.466   1.206
  404SOL    HW1 1239   1.619   2.397   1.268
  404SOL    HW2 1240   1.739   2.430   1.162
  405SOL     OW 1241   0.671   2.326   1.269
  405SOL    HW1 1242   0.637   2.237   1.239
  405SOL    HW2 1243   0.697   2.380   1.189
  406SOL     OW 1244   0.473   2.362   0.191
  406SOL    HW1 1245   0.534   2.442   0.195
  406SOL    HW2 1246   0.378   2.393   0.198
  407SOL     OW 1247   0.159   2.999   1.466
  407SOL    HW1 1248   0.181   2.938   1.542
  407SOL    HW2 1249   0.169   2.950   1.380
  408SOL     OW 1250   1.347   2.921   1.234
  408SOL    HW1 1251   1.371   2.858   1.160
  408SOL    HW2 1252   1.257   2.961   1.216
  409SOL     OW 1253   1.302   2.717   0.309
  409SOL    HW1 1254   1.216   2.686   0.351
  409SOL    HW2 1255   1.298   2.703   0.210
  410SOL     OW 1256   0.903   1.948   0.133
  410SOL    HW1 1257   0.954   1.949   0.047
  410SOL    HW2 1258   0.959   1.906   0.204
  411SOL     OW 1259   1.726   1.997   0.523
  411SOL    HW1 1260   1.799   1.980   0.456
  411SOL    HW2 1261   1.695   1.910   0.561
  412SOL     OW 1262   1.280   2.789   0.672
  412SOL    HW1 1263   1.340   2.708   0.674
  412SOL    HW2 1264   1.320   2.858   0.612
  413SOL     OW 1265   1.841   2.037   0.963
  413SOL    HW1 1266   1.880   1.952   0.927
  413SOL    HW2 1267   1.743   2.039   0.944
  414SOL     OW 1268   0.263   2.188   0.720
  414SOL    HW1 1269   0.184   2.239   0.686
  414SOL    HW2 1270   0.254   2.173   0.818
  415SOL     OW 1271   0.916   2.772   0.291
  415SOL    HW1 1272   0.979   2.810   0.223
  415SOL    HW2 1273   0.956   2.689   0.330
  416SOL     OW 1274   1.014   2.098   0.971
  416SOL    HW1 1275   1.006   2.062   0.878
  416SOL    HW2 1276   1.012   2.022   1.036
  417SOL     OW 1277   1.709   2.247   1.381
  417SOL    HW1 1278   1.782   2.316   1.385
  417SOL    HW2 1279   1.737   2.172   1.322
  418SOL     OW 1280   0.105   2.875   1.726
  418SOL    HW1 1281   0.028   2.842   1.780
  418SOL    HW2 1282   0.190   2.845   1.768
  419SOL     OW 1283   0.672   2.065   1.489
  419SOL    HW1 1284   0.762   2.049   1.449
  419SOL    HW2 1285   0.680   2.070   1.588
  420SOL     OW 1286   0.075   2.207   0.033
  420SOL    HW1 1287  -0.017   2.179   0.004
  420SOL    HW2 1288   0.106   2.284  -0.023
  421SOL     OW 1289   1.440   2.718   1.398
  421SOL    HW1 1290   1.383   2.770   1.335
  421SOL    HW2 1291   1.536   2.730   1.374
  422SOL     OW 1292   0.072   2.028   0.318
  422SOL    HW1 1293   0.055   2.111   0.264
  422SOL    HW2 1294   0.162   1.991   0.296
  423SOL     OW 1295   0.613   2.704   1.431
  423SOL    HW1 1296   0.669   2.785   1.414
  423SOL    HW2 1297   0.672   2.624   1.434
  424SOL     OW 1298   0.716   2.427   1.708
  424SOL    HW1 1299   0.735   2.492   1.782
  424SOL    HW2 1300   0.776   2.347   1.717
  425SOL     OW 1301   1.674   2.745   1.254
  425SOL    HW1 1302   1.647   2.656   1.217
  425SOL    HW2 1303   1.675   2.813   1.181
  426SOL     OW 1304   1.225   2.187   0.449
  426SOL    HW1 1305   1.290   2.113   0.438
  426SOL    HW2 1306   1.245   2.237   0.533
  427SOL     OW 1307   0.594   2.607   0.652
  427SOL    HW1 1308   0.644   2.692   0.633
  427SOL    HW2 1309   0.506   2.609   0.604
  428SOL     OW 1310   1.777   2.204   1.642
  428SOL    HW1 1311   1.760   2.235   1.548
  428SOL    HW2 1312   1.693   2.167   1.680
  429SOL     OW 1313   1.730   2.796   1.517
  429SOL    HW1 1314   1.768   2.887   1.532
  429SOL    HW2 1315   1.722   2.779   1.418
  430SOL     OW 1316   0.859   2.818   0.861
  430SOL    HW1 1317   0.913   2.749   0.909
  430SOL    HW2 1318   0.827   2.887   0.927
  431SOL     OW 1319   1.083   2.846   0.087
  431SOL    HW1 1320   1.060   2.899   0.005
  431SOL    HW2 1321   1.164   2.790   0.068
  432SOL     OW 1322   0.079   3.102   0.653
  432SOL    HW1 1323   0.078   3.055   0.741
  432SOL    HW2 1324   0.161   3.074   0.602
  433SOL     OW 1325   1.824   2.054   1.227
  433SOL    HW1 1326   1.820   1.964   1.271
  433SOL    HW2 1327   1.827   2.043   1.128
  434SOL     OW 1328   0.428   2.286   0.520
  434SOL    HW1 1329   0.458   2.214   0.458
  434SOL    HW2 1330   0.389   2.246   0.603
  435SOL     OW 1331   0.317   2.409   1.280
  435SOL    HW1 1332   0.355   2.350   1.352
  435SOL    HW2 1333   0.357   2.383   1.192
  436SOL     OW 1334   1.424   2.076   1.112
  436SOL    HW1 1335   1.476   2.011   1.167
  436SOL    HW2 1336   1.375   2.139   1.173
  437SOL     OW 1337   1.001   1.896   1.154
  437SOL    HW1 1338   0.938   1.824   1.123
  437SOL    HW2 1339   1.094   1.860   1.154
  438SOL     OW 1340   1.352   1.914   0.168
  438SOL    HW1 1341   1.387   1.873   0.084
  438SOL    HW2 1342   1.262   1.876   0.188
  439SOL     OW 1343   1.300   2.315   0.691
  439SOL    HW1 1344   1.241   2.395   0.695
  439SOL    HW2 1345   1.315   2.280   0.784
  440SOL     OW 1346   1.593   2.083   0.882
  440SOL    HW1 1347   1.509   2.082   0.936
  440SOL    HW2 1348   1.595   2.166   0.826
  441SOL     OW 1349   0.230   2.490   1.975
  441SOL    HW1 1350   0.137   2.488   2.012
  441SOL    HW2 1351   0.231   2.451   1.883
  442SOL     OW 1352   0.225   2.137   2.858
  442SOL    HW1 1353   0.260   2.120   2.950
  442SOL    HW2 1354   0.137   2.092   2.846
  443SOL     OW 1355   0.019   2.230   2.509
  443SOL    HW1 1356  -0.063   2.273   2.548
  443SOL    HW2 1357  -0.009   2.157   2.446
  444SOL     OW 1358   1.135   2.565   2.579
  444SOL    HW1 1359   1.192   2.643   2.554
  444SOL    HW2 1360   1.075   2.591   2.655
  445SOL     OW 1361   1.755   2.469   2.093
  445SOL    HW1 1362   1.743   2.456   1.994
  445SOL    HW2 1363   1.725   2.388   2.142
  446SOL     OW 1364   0.685   2.874   2.527
  446SOL    HW1 1365   0.754   2.858   2.597
  446SOL    HW2 1366   0.612   2.931   2.565
  447SOL     OW 1367   1.603   2.309   2.599
  447SOL    HW1 1368   1.529   2.355   2.549
  447SOL    HW2 1369   1.654   2.377   2.652
  448SOL     OW 1370   0.240   2.953   2.748
  448SOL    HW1 1371   0.254   2.869   2.800
  448SOL    HW2 1372   0.185   3.017   2.803
  449SOL     OW 1373   0.122   2.505   2.425
  449SOL    HW1 1374   0.077   2.417   2.442
  449SOL    HW2 1375   0.121   2.559   2.509
  450SOL     OW 1376   0.809   1.866   2.364
  450SOL    HW1 1377   0.849   1.957   2.355
  450SOL    HW2 1378   0.709   1.874   2.370
  451SOL     OW 1379   1.525   2.861   2.052
  451SOL    HW1 1380   1.462   2.785   2.065
  451SOL    HW2 1381   1.573   2.879   2.138
  452SOL     OW 1382   0.598   2.591   2.132
  452SOL    HW1 1383   0.622   2.660   2.064
  452SOL    HW2 1384   0.520   2.624   2.186
  453SOL     OW 1385   1.281   2.207   2.806
  453SOL    HW1 1386   1.195   2.157   2.793
  453SOL    HW2 1387   1.343   2.153   2.862
  454SOL     OW 1388   1.041   2.563   2.291
  454SOL    HW1 1389   1.067   2.559   2.387
  454SOL    HW2 1390   0.956   2.512   2.277
  455SOL     OW 1391   0.076   2.673   2.651
  455SOL    HW1 1392   0.175   2.661   2.660
  455SOL    HW2 1393   0.052   2.768   2.672
  456SOL     OW 1394   0.865   2.210   2.057
  456SOL    HW1 1395   0.924   2.273   2.008
  456SOL    HW2 1396   0.884   2.116   2.028
  457SOL     OW 1397   0.550   2.058   2.747
  457SOL    HW1 1398   0.545   2.053   2.847
  457SOL    HW2 1399   0.552   2.154   2.718
  458SOL     OW 1400   1.458   2.597   2.590
  458SOL    HW1 1401   1.453   2.532   2.665
  458SOL    HW2 1402   1.538   2.656   2.603
  459SOL     OW 1403   1.400   1.969   2.288
  459SOL    HW1 1404   1.376   1.932   2.198
  459SOL    HW2 1405   1.499   1.985   2.292
  460SOL     OW 1406   0.382   2.562   2.342
  460SOL    HW1 1407   0.427   2.472   2.339
  460SOL    HW2 1408   0.288   2.551   2.375
  461SOL     OW 1409   0.614   1.984   1.979
  461SOL    HW1 1410   0.712   1.962   1.986
  461SOL    HW2 1411   0.583   1.967   1.886
  462SOL     OW 1412   0.922   2.365   2.761
  462SOL    HW1 1413   0.897   2.356   2.665
  462SOL    HW2 1414   0.970   2.283   2.792
  463SOL     OW 1415   0.539   1.926   2.374
  463SOL    HW1 1416   0.458   1.927   2.432
  463SOL    HW2 1417   0.542   2.009   2.319
  464SOL     OW 1418   0.297   1.897   2.033
  464SOL    HW1 1419   0.346   1.981   2.012
  464SOL    HW2 1420   0.359   1.832   2.078
  465SOL     OW 1421   0.935   2.098   2.342
  465SOL    HW1 1422   0.887   2.139   2.264
  465SOL    HW2 1423   1.034   2.096   2.323
  466SOL     OW 1424   1.032   2.411   1.878
  466SOL    HW1 1425   0.991   2.493   1.839
  466SOL    HW2 1426   1.096   2.437   1.951
  467SOL     OW 1427   0.866   2.316   2.504
  467SOL    HW1 1428   0.834   2.388   2.442
  467SOL    HW2 1429   0.890   2.235   2.451
  468SOL     OW 1430   1.017   1.901   2.615
  468SOL    HW1 1431   0.945   1.906   2.546
  468SOL    HW2 1432   0.993   1.832   2.684
  469SOL     OW 1433   1.857   2.695   2.239
  469SOL    HW1 1434   1.899   2.631   2.303
  469SOL    HW2 1435   1.819   2.644   2.161
  470SOL     OW 1436   1.390   2.437   1.940
  470SOL    HW1 1437   1.336   2.416   2.021
  470SOL    HW2 1438   1.481   2.396   1.949
  471SOL     OW 1439   0.527   2.118   2.190
  471SOL    HW1 1440   0.554   2.059   2.115
  471SOL    HW2 1441   0.527   2.213   2.159
  472SOL     OW 1442   1.111   3.057   2.962
  472SOL    HW1 1443   1.071   3.101   3.043
  472SOL    HW2 1444   1.070   3.094   2.879
  473SOL     OW 1445   1.638   2.961   2.941
  473SOL    HW1 1446   1.643   3.042   3.000
  473SOL    HW2 1447   1.552   2.963   2.890
  474SOL     OW 1448   0.566   2.399   2.727
  474SOL    HW1 1449   0.578   2.465   2.653
  474SOL    HW2 1450   0.612   2.433   2.810
  475SOL     OW 1451   1.582   2.501   2.334
  475SOL    HW1 1452   1.551   2.562   2.407
  475SOL    HW2 1453   1.632   2.553   2.265
  476SOL     OW 1454   0.573   2.732   2.891
  476SOL    HW1 1455   0.617   2.821   2.882
  476SOL    HW2 1456   0.510   2.732   2.968
  477SOL     OW 1457   1.209   2.387   2.137
  477SOL    HW1 1458   1.222   2.303   2.191
  477SOL    HW2 1459   1.180   2.461   2.197
  478SOL     OW 1460   0.307   2.075   3.093
  478SOL    HW1 1461   0.284   2.112   3.183
  478SOL    HW2 1462   0.277   1.980   3.087
  479SOL     OW 1463   0.732   2.496   2.926
  479SOL    HW1 1464   0.791   2.470   2.850
  479SOL    HW2 1465   0.704   2.592   2.915
  480SOL     OW 1466   0.307   1.925   2.480
  480SOL    HW1 1467   0.296   2.019   2.513
  480SOL    HW2 1468   0.302   1.862   2.557
  481SOL     OW 1469   1.622   2.229   2.236
  481SOL    HW1 1470   1.624   2.153   2.300
  481SOL    HW2 1471   1.574   2.306   2.276
  482SOL     OW 1472   1.540   2.136   1.987
  482SOL    HW1 1473   1.479   2.061   2.010
  482SOL    HW2 1474   1.562   2.188   2.070
  483SOL     OW 1475   1.303   2.700   1.904
  483SOL    HW1 1476   1.337   2.607   1.919
  483SOL    HW2 1477   1.321   2.727   1.809
  484SOL     OW 1478   0.319   2.672   2.811
  484SOL    HW1 1479   0.412   2.708   2.816
  484SOL    HW2 1480   0.313   2.587   2.863
  485SOL     OW 1481   0.339   2.371   2.868
  485SOL    HW1 1482   0.287   2.288   2.851
  485SOL    HW2 1483   0.416   2.376   2.804
  486SOL     OW 1484   0.815   2.434   2.187
  486SOL    HW1 1485   0.822   2.345   2.141
  486SOL    HW2 1486   0.721   2.468   2.179
  487SOL     OW 1487   0.671   2.326   3.131
  487SOL    HW1 1488   0.637   2.237   3.101
  487SOL    HW2 1489   0.697   2.380   3.051
  488SOL     OW 1490   0.473   2.362   2.053
  488SOL    HW1 1491   0.534   2.442   2.057
  488SOL    HW2 1492   0.378   2.393   2.060
  489SOL     OW 1493   1.302   2.717   2.171
  489SOL    HW1 1494   1.216   2.686   2.213
  489SOL    HW2 1495   1.298   2.703   2.072
  490SOL     OW 1496   1.726   1.997   2.385
  490SOL    HW1 1497   1.799   1.980   2.318
  490SOL    HW2 1498   1.695   1.910   2.423
  491SOL     OW 1499   1.280   2.789   2.534
  491SOL    HW1 1500   1.340   2.708   2.536
  491SOL    HW2 1501   1.320   2.858   2.474
  492SOL     OW 1502   1.841   2.037   2.825
  492SOL    HW1 1503   1.880   1.952   2.789
  492SOL    HW2 1504   1.743   2.039   2.806
  493SOL     OW 1505   0.263   2.188   2.582
  493SOL    HW1 1506   0.184   2.239   2.548
  493SOL    HW2 1507   0.254   2.173   2.680
  494SOL     OW 1508   0.916   2.772   2.153
  494SOL    HW1 1509   0.979   2.810   2.085
  494SOL    HW2 1510   0.956   2.689   2.192
  495SOL     OW 1511   0.075   2.207   1.895
  495SOL    HW1 1512  -0.017   2.179   1.866
  495SOL    HW2 1513   0.106   2.284   1.839
  496SOL     OW 1514   0.072   2.028   2.180
  496SOL    HW1 1515   0.055   2.111   2.126
  496SOL    HW2 1516   0.162   1.991   2.158
  497SOL     OW 1517   1.674   2.745   3.116
  497SOL    HW1 1518   1.647   2.656   3.079
  497SOL    HW2 1519   1.675   2.813   3.043
  498SOL     OW 1520   1.225   2.187   2.311
  498SOL    HW1 1521   1.290   2.113   2.300
  498SOL    HW2 1522   1.245   2.237   2.395
  499SOL     OW 1523   0.594   2.607   2.514
  499SOL    HW1 1524   0.644   2.692   2.495
  499SOL    HW2 1525   0.506   2.609   2.466
  500SOL     OW 1526   0.859   2.818   2.723
  500SOL    HW1 1527   0.913   2.749   2.771
  500SOL    HW2 1528   0.827   2.887   2.789
  501SOL     OW 1529   1.083   2.846   1.949
  501SOL    HW1 1530   1.060   2.899   1.867
  501SOL    HW2 1531   1.164   2.790   1.930
  502SOL     OW 1532   0.079   3.102   2.515
  502SOL    HW1 1533   0.078   3.055   2.603
  502SOL    HW2 1534   0.161   3.074   2.464
  503SOL     OW 1535   1.824   2.054   3.089
  503SOL    HW1 1536   1.820   1.964   3.133
  503SOL    HW2 1537   1.827   2.043   2.990
  504SOL     OW 1538   0.428   2.286   2.382
  504SOL    HW1 1539   0.458   2.214   2.320
  504SOL    HW2 1540   0.389   2.246   2.465
  505SOL     OW 1541   1.352   1.914   2.030
  505SOL    HW1 1542   1.387   1.873   1.946
  505SOL    HW2 1543   1.262   1.876   2.050
  506SOL     OW 1544   1.300   2.315   2.553
  506SOL    HW1 1545   1.241   2.395   2.557
  506SOL    HW2 1546   1.315   2.280   2.646
  507SOL     OW 1547   1.593   2.083   2.744
  507SOL    HW1 1548   1.509   2.082   2.798
  507SOL    HW2 1549   1.595   2.166   2.688
  508SOL     OW 1550   2.092   0.628   0.113
  508SOL    HW1 1551   1.999   0.626   0.150
  508SOL    HW2 1552   2.093   0.589   0.021
  509SOL     OW 1553   2.087   0.275   0.996
  509SOL    HW1 1554   2.122   0.258   1.088
  509SOL    HW2 1555   1.999   0.230   0.984
  510SOL     OW 1556   1.881   0.368   0.647
  510SOL    HW1 1557   1.799   0.411   0.686
  510SOL    HW2 1558   1.853   0.295   0.584
  511SOL     OW 1559   2.431   1.275   1.165
  511SOL    HW1 1560   2.338   1.268   1.128
  511SOL    HW2 1561   2.442   1.364   1.209
  512SOL     OW 1562   2.630   1.144   1.023
  512SOL    HW1 1563   2.552   1.161   1.083
  512SOL    HW2 1564   2.664   1.231   0.987
  513SOL     OW 1565   2.712   0.798   1.823
  513SOL    HW1 1566   2.708   0.874   1.888
  513SOL    HW2 1567   2.734   0.834   1.732
  514SOL     OW 1568   2.547   1.012   0.665
  514SOL    HW1 1569   2.616   0.996   0.735
  514SOL    HW2 1570   2.474   1.069   0.703
  515SOL     OW 1571   2.548   1.161   1.803
  515SOL    HW1 1572   2.608   1.240   1.817
  515SOL    HW2 1573   2.462   1.192   1.762
  516SOL     OW 1574   2.197   1.435   1.061
  516SOL    HW1 1575   2.119   1.404   1.008
  516SOL    HW2 1576   2.255   1.493   1.004
  517SOL     OW 1577   2.300   0.392   1.499
  517SOL    HW1 1578   2.382   0.336   1.508
  517SOL    HW2 1579   2.219   0.334   1.503
  518SOL     OW 1580   2.093   1.713   0.483
  518SOL    HW1 1581   2.127   1.790   0.537
  518SOL    HW2 1582   2.137   1.713   0.393
  519SOL     OW 1583   2.092   1.434   0.538
  519SOL    HW1 1584   2.066   1.530   0.538
  519SOL    HW2 1585   2.021   1.380   0.583
  520SOL     OW 1586   2.102   1.091   0.886
  520SOL    HW1 1587   2.116   1.007   0.938
  520SOL    HW2 1588   2.047   1.155   0.941
  521SOL     OW 1589   2.482   1.786   1.439
  521SOL    HW1 1590   2.390   1.769   1.474
  521SOL    HW2 1591   2.510   1.878   1.465
  522SOL     OW 1592   2.468   0.964   0.123
  522SOL    HW1 1593   2.475   1.048   0.069
  522SOL    HW2 1594   2.514   0.977   0.211
  523SOL     OW 1595   1.984   0.643   0.563
  523SOL    HW1 1596   1.939   0.555   0.580
  523SOL    HW2 1597   1.983   0.697   0.647
  524SOL     OW 1598   1.889   1.596   0.117
  524SOL    HW1 1599   1.870   1.500   0.138
  524SOL    HW2 1600   1.856   1.654   0.192
  525SOL     OW 1601   1.975   0.737   1.597
  525SOL    HW1 1602   2.063   0.724   1.642
  525SOL    HW2 1603   1.962   0.834   1.575
  526SOL     OW 1604   2.475   1.365   0.726
  526SOL    HW1 1605   2.426   1.278   0.735
  526SOL    HW2 1606   2.452   1.408   0.639
  527SOL     OW 1607   2.671   0.004   0.502
  527SOL    HW1 1608   2.711   0.095   0.493
  527SOL    HW2 1609   2.571   0.012   0.508
  528SOL     OW 1610   2.059   0.976   1.264
  528SOL    HW1 1611   2.148   0.931   1.250
  528SOL    HW2 1612   1.986   0.911   1.245
  529SOL     OW 1613   2.179   0.251   1.801
  529SOL    HW1 1614   2.250   0.322   1.807
  529SOL    HW2 1615   2.091   0.290   1.829
  530SOL     OW 1616   2.460   0.729   0.270
  530SOL    HW1 1617   2.484   0.798   0.202
  530SOL    HW2 1618   2.382   0.762   0.324
  531SOL     OW 1619   2.669   0.605   1.465
  531SOL    HW1 1620   2.622   0.602   1.554
  531SOL    HW2 1621   2.618   0.550   1.399
  532SOL     OW 1622   2.835   0.890   1.572
  532SOL    HW1 1623   2.881   0.806   1.543
  532SOL    HW2 1624   2.779   0.924   1.497
  533SOL     OW 1625   1.938   0.811   0.789
  533SOL    HW1 1626   2.037   0.799   0.798
  533SOL    HW2 1627   1.914   0.906   0.810
  534SOL     OW 1628   1.992   1.821   1.571
  534SOL    HW1 1629   1.982   1.806   1.670
  534SOL    HW2 1630   1.906   1.857   1.535
  535SOL     OW 1631   2.727   0.348   0.195
  535SOL    HW1 1632   2.786   0.411   0.146
  535SOL    HW2 1633   2.746   0.254   0.166
  536SOL     OW 1634   2.412   0.196   0.885
  536SOL    HW1 1635   2.407   0.191   0.985
  536SOL    HW2 1636   2.414   0.292   0.856
  537SOL     OW 1637   2.870   1.456   0.477
  537SOL    HW1 1638   2.824   1.528   0.425
  537SOL    HW2 1639   2.866   1.476   0.575
  538SOL     OW 1640   2.213   1.801   0.853
  538SOL    HW1 1641   2.263   1.715   0.859
  538SOL    HW2 1642   2.278   1.878   0.850
  539SOL     OW 1643   2.183   0.943   0.242
  539SOL    HW1 1644   2.265   0.982   0.200
  539SOL    HW2 1645   2.156   0.861   0.193
  540SOL     OW 1646   2.323   1.266   1.727
  540SOL    HW1 1647   2.273   1.267   1.641
  540SOL    HW2 1648   2.260   1.248   1.803
  541SOL     OW 1649   2.064   0.285   1.498
  541SOL    HW1 1650   1.984   0.345   1.485
  541SOL    HW2 1651   2.054   0.236   1.584
  542SOL     OW 1652   2.326   1.743   0.323
  542SOL    HW1 1653   2.359   1.782   0.409
  542SOL    HW2 1654   2.402   1.736   0.258
  543SOL     OW 1655   2.111   1.785   1.241
  543SOL    HW1 1656   2.168   1.720   1.291
  543SOL    HW2 1657   2.095   1.752   1.148
  544SOL     OW 1658   2.244   0.700   0.480
  544SOL    HW1 1659   2.289   0.610   0.477
  544SOL    HW2 1660   2.150   0.689   0.513
  545SOL     OW 1661   2.476   0.122   0.117
  545SOL    HW1 1662   2.574   0.100   0.124
  545SOL    HW2 1663   2.445   0.105   0.024
  546SOL     OW 1664   2.643   0.264   1.749
  546SOL    HW1 1665   2.710   0.203   1.792
  546SOL    HW2 1666   2.570   0.283   1.814
  547SOL     OW 1667   2.750   1.514   1.195
  547SOL    HW1 1668   2.727   1.489   1.101
  547SOL    HW2 1669   2.811   1.445   1.234
  548SOL     OW 1670   2.665   1.402   0.924
  548SOL    HW1 1671   2.755   1.416   0.882
  548SOL    HW2 1672   2.594   1.404   0.853
  549SOL     OW 1673   2.784   0.503   0.899
  549SOL    HW1 1674   2.759   0.494   0.803
  549SOL    HW2 1675   2.832   0.421   0.930
  550SOL     OW 1676   2.401   0.064   0.512
  550SOL    HW1 1677   2.320   0.065   0.570
  550SOL    HW2 1678   2.404   0.147   0.457
  551SOL     OW 1679   2.159   0.035   0.171
  551SOL    HW1 1680   2.208   0.119   0.150
  551SOL    HW2 1681   2.221  -0.030   0.216
  552SOL     OW 1682   2.797   0.236   0.480
  552SOL    HW1 1683   2.749   0.277   0.402
  552SOL    HW2 1684   2.896   0.234   0.461
  553SOL     OW 1685   3.089   1.570   0.793
  553SOL    HW1 1686   3.110   1.644   0.728
  553SOL    HW2 1687   3.157   1.570   0.866
  554SOL     OW 1688   2.321   1.152   0.741
  554SOL    HW1 1689   2.250   1.125   0.806
  554SOL    HW2 1690   2.295   1.124   0.648
  555SOL     OW 1691   1.940   0.556   1.386
  555SOL    HW1 1692   2.032   0.555   1.345
  555SOL    HW2 1693   1.934   0.630   1.453
  556SOL     OW 1694   2.423   0.222   1.147
  556SOL    HW1 1695   2.461   0.138   1.184
  556SOL    HW2 1696   2.335   0.241   1.191
  557SOL     OW 1697   2.350   1.385   0.174
  557SOL    HW1 1698   2.263   1.370   0.221
  557SOL    HW2 1699   2.333   1.411   0.079
  558SOL     OW 1700   2.389   0.256   0.328
  558SOL    HW1 1701   2.416   0.197   0.253
  558SOL    HW2 1702   2.389   0.351   0.297
  559SOL     OW 1703   2.777   0.089   1.402
  559SOL    HW1 1704   2.802   0.069   1.307
  559SOL    HW2 1705   2.849   0.145   1.444
  560SOL     OW 1706   2.842   1.116   1.719
  560SOL    HW1 1707   2.743   1.122   1.729
  560SOL    HW2 1708   2.865   1.036   1.663
  561SOL     OW 1709   2.567   1.050   0.368
  561SOL    HW1 1710   2.553   1.057   0.467
  561SOL    HW2 1711   2.651   0.999   0.350
  562SOL     OW 1712   2.272   0.813   1.251
  562SOL    HW1 1713   2.358   0.825   1.301
  562SOL    HW2 1714   2.230   0.726   1.278
  563SOL     OW 1715   1.926   1.564   1.331
  563SOL    HW1 1716   1.880   1.646   1.297
  563SOL    HW2 1717   2.024   1.583   1.340
  564SOL     OW 1718   2.229   1.100   0.501
  564SOL    HW1 1719   2.222   1.183   0.445
  564SOL    HW2 1720   2.233   1.020   0.441
  565SOL     OW 1721   2.428   0.537   0.865
  565SOL    HW1 1722   2.440   0.603   0.791
  565SOL    HW2 1723   2.474   0.571   0.948
  566SOL     OW 1724   2.216   1.510   1.329
  566SOL    HW1 1725   2.195   1.466   1.242
  566SOL    HW2 1726   2.313   1.536   1.332
  567SOL     OW 1727   2.264   0.751   1.598
  567SOL    HW1 1728   2.332   0.806   1.551
  567SOL    HW2 1729   2.304   0.663   1.625
  568SOL     OW 1730   2.366   0.050   1.740
  568SOL    HW1 1731   2.324  -0.007   1.670
  568SOL    HW2 1732   2.300   0.119   1.772
  569SOL     OW 1733   2.435   0.870   1.029
  569SOL    HW1 1734   2.479   0.959   1.020
  569SOL    HW2 1735   2.372   0.870   1.106
  570SOL     OW 1736   3.071   0.525   0.275
  570SOL    HW1 1737   3.084   0.441   0.329
  570SOL    HW2 1738   3.042   0.599   0.335
  571SOL     OW 1739   2.169   0.213   1.231
  571SOL    HW1 1740   2.146   0.250   1.321
  571SOL    HW2 1741   2.139   0.118   1.225
  572SOL     OW 1742   1.899   1.310   1.282
  572SOL    HW1 1743   1.952   1.261   1.350
  572SOL    HW2 1744   1.921   1.408   1.287
  573SOL     OW 1745   2.594   0.634   1.064
  573SOL    HW1 1746   2.653   0.608   0.988
  573SOL    HW2 1747   2.566   0.730   1.053
  574SOL     OW 1748   2.169   0.063   0.618
  574SOL    HW1 1749   2.158   0.157   0.651
  574SOL    HW2 1750   2.164   0.000   0.695
  575SOL     OW 1751   2.885   0.766   0.966
  575SOL    HW1 1752   2.900   0.787   1.062
  575SOL    HW2 1753   2.855   0.671   0.957
  576SOL     OW 1754   2.842   1.573   1.700
  576SOL    HW1 1755   2.822   1.617   1.612
  576SOL    HW2 1756   2.881   1.482   1.684
  577SOL     OW 1757   2.212   0.898   1.804
  577SOL    HW1 1758   2.288   0.942   1.852
  577SOL    HW2 1759   2.247   0.851   1.722
  578SOL     OW 1760   2.181   0.810   0.949
  578SOL    HW1 1761   2.274   0.846   0.954
  578SOL    HW2 1762   2.175   0.725   1.001
  579SOL     OW 1763   2.201   0.509   1.006
  579SOL    HW1 1764   2.149   0.426   0.989
  579SOL    HW2 1765   2.278   0.514   0.942
  580SOL     OW 1766   1.870   1.326   0.200
  580SOL    HW1 1767   1.777   1.347   0.169
  580SOL    HW2 1768   1.880   1.227   0.213
  581SOL     OW 1769   1.950   1.801   0.927
  581SOL    HW1 1770   1.908   1.715   0.900
  581SOL    HW2 1771   2.044   1.804   0.893
  582SOL     OW 1772   2.366   1.568   0.910
  582SOL    HW1 1773   2.432   1.642   0.919
  582SOL    HW2 1774   2.410   1.489   0.868
  583SOL     OW 1775   2.864   0.796   1.238
  583SOL    HW1 1776   2.905   0.764   1.324
  583SOL    HW2 1777   2.768   0.769   1.235
  584SOL     OW 1778   1.902   0.544   1.114
  584SOL    HW1 1779   1.987   0.511   1.073
  584SOL    HW2 1780   1.915   0.559   1.212
  585SOL     OW 1781   2.051   0.520   1.722
  585SOL    HW1 1782   2.110   0.480   1.652
  585SOL    HW2 1783   1.993   0.591   1.681
  586SOL     OW 1784   2.677   0.572   0.325
  586SOL    HW1 1785   2.684   0.483   0.279
  586SOL    HW2 1786   2.583   0.606   0.317
  587SOL     OW 1787   2.114   1.564   1.744
  587SOL    HW1 1788   2.084   1.621   1.820
  587SOL    HW2 1789   2.107   1.467   1.770
  588SOL     OW 1790   2.533   0.464   1.269
  588SOL    HW1 1791   2.499   0.375   1.239
  588SOL    HW2 1792   2.559   0.518   1.189
  589SOL     OW 1793   2.792   1.678   1.465
  589SOL    HW1 1794   2.768   1.660   1.370
  589SOL    HW2 1795   2.822   1.772   1.475
  590SOL     OW 1796   2.335   0.500   0.191
  590SOL    HW1 1797   2.396   0.580   0.195
  590SOL    HW2 1798   2.240   0.531   0.198
  591SOL     OW 1799   2.021   1.137   1.466
  591SOL    HW1 1800   2.043   1.076   1.542
  591SOL    HW2 1801   2.031   1.088   1.380
  592SOL     OW 1802   1.945   1.258   1.022
  592SOL    HW1 1803   1.940   1.257   1.122
  592SOL    HW2 1804   1.862   1.217   0.984
  593SOL     OW 1805   2.550   1.662   1.716
  593SOL    HW1 1806   2.494   1.743   1.725
  593SOL    HW2 1807   2.602   1.666   1.630
  594SOL     OW 1808   2.765   0.086   0.133
  594SOL    HW1 1809   2.816   0.087   0.047
  594SOL    HW2 1810   2.821   0.044   0.204
  595SOL     OW 1811   1.992   1.794   1.851
  595SOL    HW1 1812   1.951   1.720   1.904
  595SOL    HW2 1813   2.056   1.845   1.909
  596SOL     OW 1814   3.142   0.927   0.672
  596SOL    HW1 1815   3.202   0.846   0.674
  596SOL    HW2 1816   3.182   0.996   0.612
  597SOL     OW 1817   2.692   1.273   1.422
  597SOL    HW1 1818   2.687   1.306   1.517
  597SOL    HW2 1819   2.606   1.292   1.376
  598SOL     OW 1820   2.534   1.616   0.154
  598SOL    HW1 1821   2.543   1.626   0.055
  598SOL    HW2 1822   2.494   1.527   0.175
  599SOL     OW 1823   2.125   0.326   0.720
  599SOL    HW1 1824   2.046   0.377   0.686
  599SOL    HW2 1825   2.116   0.311   0.818
  600SOL     OW 1826   2.684   1.002   1.372
  600SOL    HW1 1827   2.724   1.001   1.280
  600SOL    HW2 1828   2.694   1.094   1.412
  601SOL     OW 1829   2.778   0.910   0.291
  601SOL    HW1 1830   2.841   0.948   0.223
  601SOL    HW2 1831   2.818   0.827   0.330
  602SOL     OW 1832   2.234   1.288   1.490
  602SOL    HW1 1833   2.221   1.381   1.456
  602SOL    HW2 1834   2.150   1.236   1.477
  603SOL     OW 1835   2.876   0.236   0.971
  603SOL    HW1 1836   2.868   0.200   0.878
  603SOL    HW2 1837   2.874   0.160   1.036
  604SOL     OW 1838   2.452   1.487   0.491
  604SOL    HW1 1839   2.494   1.429   0.421
  604SOL    HW2 1840   2.408   1.566   0.447
  605SOL     OW 1841   2.117   1.348   0.290
  605SOL    HW1 1842   2.021   1.349   0.263
  605SOL    HW2 1843   2.129   1.401   0.374
  606SOL     OW 1844   1.967   1.013   1.726
  606SOL    HW1 1845   1.890   0.980   1.780
  606SOL    HW2 1846   2.052   0.983   1.768
  607SOL     OW 1847   2.534   0.203   1.489
  607SOL    HW1 1848   2.624   0.187   1.449
  607SOL    HW2 1849   2.542   0.208   1.588
  608SOL     OW 1850   1.937   0.345   0.033
  608SOL    HW1 1851   1.845   0.317   0.004
  608SOL    HW2 1852   1.968   0.422  -0.023
  609SOL     OW 1853   2.475   0.842   1.431
  609SOL    HW1 1854   2.531   0.923   1.414
  609SOL    HW2 1855   2.534   0.762   1.434
  610SOL     OW 1856   2.578   0.565   1.708
  610SOL    HW1 1857   2.597   0.630   1.782
  610SOL    HW2 1858   2.638   0.485   1.717
  611SOL     OW 1859   2.252   1.741   1.560
  611SOL    HW1 1860   2.161   1.782   1.558
  611SOL    HW2 1861   2.245   1.647   1.592
  612SOL     OW 1862   3.087   0.325   0.449
  612SOL    HW1 1863   3.152   0.251   0.438
  612SOL    HW2 1864   3.107   0.375   0.533
  613SOL     OW 1865   2.456   0.745   0.652
  613SOL    HW1 1866   2.506   0.830   0.633
  613SOL    HW2 1867   2.368   0.747   0.604
  614SOL     OW 1868   2.721   1.374   0.016
  614SOL    HW1 1869   2.675   1.389   0.104
  614SOL    HW2 1870   2.765   1.459  -0.014
  615SOL     OW 1871   2.523   1.790   0.953
  615SOL    HW1 1872   2.477   1.878   0.940
  615SOL    HW2 1873   2.622   1.802   0.946
  616SOL     OW 1874   2.721   0.956   0.861
  616SOL    HW1 1875   2.775   0.887   0.909
  616SOL    HW2 1876   2.689   1.025   0.927
  617SOL     OW 1877   2.945   0.984   0.087
  617SOL    HW1 1878   2.922   1.037   0.005
  617SOL    HW2 1879   3.026   0.928   0.068
  618SOL     OW 1880   2.083   1.314   1.844
  618SOL    HW1 1881   2.018   1.241   1.823
  618SOL    HW2 1882   2.087   1.328   1.942
  619SOL     OW 1883   1.941   1.240   0.653
  619SOL    HW1 1884   1.940   1.193   0.741
  619SOL    HW2 1885   2.023   1.212   0.602
  620SOL     OW 1886   2.534   1.391   1.624
  620SOL    HW1 1887   2.456   1.341   1.662
  620SOL    HW2 1888   2.531   1.486   1.655
  621SOL     OW 1889   2.290   0.424   0.520
  621SOL    HW1 1890   2.320   0.352   0.458
  621SOL    HW2 1891   2.251   0.384   0.603
  622SOL     OW 1892   2.179   0.547   1.280
  622SOL    HW1 1893   2.217   0.488   1.352
  622SOL    HW2 1894   2.219   0.521   1.192
  623SOL     OW 1895   2.674   1.586   0.687
  623SOL    HW1 1896   2.706   1.596   0.593
  623SOL    HW2 1897   2.595   1.524   0.689
  624SOL     OW 1898   2.863   0.034   1.154
  624SOL    HW1 1899   2.800  -0.038   1.123
  624SOL    HW2 1900   2.956  -0.002   1.154
  625SOL     OW 1901   2.632   1.330   0.301
  625SOL    HW1 1902   2.586   1.243   0.318
  625SOL    HW2 1903   2.723   1.327   0.342
  626SOL     OW 1904   2.480   1.567   1.284
  626SOL    HW1 1905   2.475   1.649   1.341
  626SOL    HW2 1906   2.569   1.564   1.239
  627SOL     OW 1907   1.901   1.077   0.300
  627SOL    HW1 1908   2.000   1.066   0.291
  627SOL    HW2 1909   1.861   0.991   0.332
  628SOL     OW 1910   2.737   1.646   0.337
  628SOL    HW1 1911   2.660   1.611   0.283
  628SOL    HW2 1912   2.705   1.717   0.399
  629SOL     OW 1913   2.092   0.628   1.975
  629SOL    HW1 1914   1.999   0.626   2.012
  629SOL    HW2 1915   2.093   0.589   1.883
  630SOL     OW 1916   2.087   0.275   2.858
  630SOL    HW1 1917   2.122   0.258   2.950
  630SOL    HW2 1918   1.999   0.230   2.846
  631SOL     OW 1919   1.881   0.368   2.509
  631SOL    HW1 1920   1.799   0.411   2.548
  631SOL    HW2 1921   1.853   0.295   2.446
  632SOL     OW 1922   2.630   1.144   2.885
  632SOL    HW1 1923   2.552   1.161   2.945
  632SOL    HW2 1924   2.664   1.231   2.849
  633SOL     OW 1925   2.547   1.012   2.527
  633SOL    HW1 1926   2.616   0.996   2.597
  633SOL    HW2 1927   2.474   1.069   2.565
  634SOL     OW 1928   2.197   1.435   2.923
  634SOL    HW1 1929   2.119   1.404   2.870
  634SOL    HW2 1930   2.255   1.493   2.866
  635SOL     OW 1931   2.093   1.713   2.345
  635SOL    HW1 1932   2.127   1.790   2.399
  635SOL    HW2 1933   2.137   1.713   2.255
  636SOL     OW 1934   2.092   1.434   2.400
  636SOL    HW1 1935   2.066   1.530   2.400
  636SOL    HW2 1936   2.021   1.380   2.445
  637SOL     OW 1937   2.102   1.091   2.748
  637SOL    HW1 1938   2.116   1.007   2.800
  637SOL    HW2 1939   2.047   1.155   2.803
  638SOL     OW 1940   2.468   0.964   1.985
  638SOL    HW1 1941   2.475   1.048   1.931
  638SOL    HW2 1942   2.514   0.977   2.073
  639SOL     OW 1943   1.984   0.643   2.425
  639SOL    HW1 1944   1.939   0.555   2.442
  639SOL    HW2 1945   1.983   0.697   2.509
  640SOL     OW 1946   1.889   1.596   1.979
  640SOL    HW1 1947   1.870   1.500   2.000
  640SOL    HW2 1948   1.856   1.654   2.054
  641SOL     OW 1949   2.475   1.365   2.588
  641SOL    HW1 1950   2.426   1.278   2.597
  641SOL    HW2 1951   2.452   1.408   2.501
  642SOL     OW 1952   2.671   0.004   2.364
  642SOL    HW1 1953   2.711   0.095   2.355
  642SOL    HW2 1954   2.571   0.012   2.370
  643SOL     OW 1955   2.460   0.729   2.132
  643SOL    HW1 1956   2.484   0.798   2.064
  643SOL    HW2 1957   2.382   0.762   2.186
  644SOL     OW 1958   1.938   0.811   2.651
  644SOL    HW1 1959   2.037   0.799   2.660
  644SOL    HW2 1960   1.914   0.906   2.672
  645SOL     OW 1961   2.727   0.348   2.057
  645SOL    HW1 1962   2.786   0.411   2.008
  645SOL    HW2 1963   2.746   0.254   2.028
  646SOL     OW 1964   2.412   0.196   2.747
  646SOL    HW1 1965   2.407   0.191   2.847
  646SOL    HW2 1966   2.414   0.292   2.718
  647SOL     OW 1967   2.870   1.456   2.339
  647SOL    HW1 1968   2.824   1.528   2.287
  647SOL    HW2 1969   2.866   1.476   2.437
  648SOL     OW 1970   2.213   1.801   2.715
  648SOL    HW1 1971   2.263   1.715   2.721
  648SOL    HW2 1972   2.278   1.878   2.712
  649SOL     OW 1973   2.183   0.943   2.104
  649SOL    HW1 1974   2.265   0.982   2.062
  649SOL    HW2 1975   2.156   0.861   2.055
  650SOL     OW 1976   2.326   1.743   2.185
  650SOL    HW1 1977   2.359   1.782   2.271
  650SOL    HW2 1978   2.402   1.736   2.120
  651SOL     OW 1979   2.111   1.785   3.103
  651SOL    HW1 1980   2.168   1.720   3.153
  651SOL    HW2 1981   2.095   1.752   3.010
  652SOL     OW 1982   2.244   0.700   2.342
  652SOL    HW1 1983   2.289   0.610   2.339
  652SOL    HW2 1984   2.150   0.689   2.375
  653SOL     OW 1985   2.476   0.122   1.979
  653SOL    HW1 1986   2.574   0.100   1.986
  653SOL    HW2 1987   2.445   0.105   1.886
  654SOL     OW 1988   2.784   0.503   2.761
  654SOL    HW1 1989   2.759   0.494   2.665
  654SOL    HW2 1990   2.832   0.421   2.792
  655SOL     OW 1991   2.401   0.064   2.374
  655SOL    HW1 1992   2.320   0.065   2.432
  655SOL    HW2 1993   2.404   0.147   2.319
  656SOL     OW 1994   2.159   0.035   2.033
  656SOL    HW1 1995   2.208   0.119   2.012
  656SOL    HW2 1996   2.221  -0.030   2.078
  657SOL     OW 1997   2.797   0.236   2.342
  657SOL    HW1 1998   2.749   0.277   2.264
  657SOL    HW2 1999   2.896   0.234   2.323
  658SOL     OW 2000   3.089   1.570   2.655
  658SOL    HW1 2001   3.110   1.644   2.590
  658SOL    HW2 2002   3.157   1.570   2.728
  659SOL     OW 2003   2.321   1.152   2.603
  659SOL    HW1 2004   2.250   1.125   2.668
  659SOL    HW2 2005   2.295   1.124   2.510
  660SOL     OW 2006   2.350   1.385   2.036
  660SOL    HW1 2007   2.263   1.370   2.083
  660SOL    HW2 2008   2.333   1.411   1.941
  661SOL     OW 2009   2.389   0.256   2.190
  661SOL    HW1 2010   2.416   0.197   2.115
  661SOL    HW2 2011   2.389   0.351   2.159
  662SOL     OW 2012   2.567   1.050   2.230
  662SOL    HW1 2013   2.553   1.057   2.329
  662SOL    HW2 2014   2.651   0.999   2.212
  663SOL     OW 2015   2.229   1.100   2.363
  663SOL    HW1 2016   2.222   1.183   2.307
  663SOL    HW2 2017   2.233   1.020   2.303
  664SOL     OW 2018   2.428   0.537   2.727
  664SOL    HW1 2019   2.440   0.603   2.653
  664SOL    HW2 2020   2.474   0.571   2.810
  665SOL     OW 2021   2.435   0.870   2.891
  665SOL    HW1 2022   2.479   0.959   2.882
  665SOL    HW2 2023   2.372   0.870   2.968
  666SOL     OW 2024   3.071   0.525   2.137
  666SOL    HW1 2025   3.084   0.441   2.191
  666SOL    HW2 2026   3.042   0.599   2.197
  667SOL     OW 2027   2.594   0.634   2.926
  667SOL    HW1 2028   2.653   0.608   2.850
  667SOL    HW2 2029   2.566   0.730   2.915
  668SOL     OW 2030   2.169   0.063   2.480
  668SOL    HW1 2031   2.158   0.157   2.513
  668SOL    HW2 2032   2.164   0.000   2.557
  669SOL     OW 2033   2.885   0.766   2.828
  669SOL    HW1 2034   2.900   0.787   2.924
  669SOL    HW2 2035   2.855   0.671   2.819
  670SOL     OW 2036   2.181   0.810   2.811
  670SOL    HW1 2037   2.274   0.846   2.816
  670SOL    HW2 2038   2.175   0.725   2.863
  671SOL     OW 2039   2.201   0.509   2.868
  671SOL    HW1 2040   2.149   0.426   2.851
  671SOL    HW2 2041   2.278   0.514   2.804
  672SOL     OW 2042   1.870   1.326   2.062
  672SOL    HW1 2043   1.777   1.347   2.031
  672SOL    HW2 2044   1.880   1.227   2.075
  673SOL     OW 2045   1.950   1.801   2.789
  673SOL    HW1 2046   1.908   1.715   2.762
  673SOL    HW2 2047   2.044   1.804   2.755
  674SOL     OW 2048   2.366   1.568   2.772
  674SOL    HW1 2049   2.432   1.642   2.781
  674SOL    HW2 2050   2.410   1.489   2.730
  675SOL     OW 2051   2.677   0.572   2.187
  675SOL    HW1 2052   2.684   0.483   2.141
  675SOL    HW2 2053   2.583   0.606   2.179
  676SOL     OW 2054   2.533   0.464   3.131
  676SOL    HW1 2055   2.499   0.375   3.101
  676SOL    HW2 2056   2.559   0.518   3.051
  677SOL     OW 2057   2.335   0.500   2.053
  677SOL    HW1 2058   2.396   0.580   2.057
  677SOL    HW2 2059   2.240   0.531   2.060
  678SOL     OW 2060   1.945   1.258   2.884
  678SOL    HW1 2061   1.940   1.257   2.984
  678SOL    HW2 2062   1.862   1.217   2.846
  679SOL     OW 2063   2.765   0.086   1.995
  679SOL    HW1 2064   2.816   0.087   1.909
  679SOL    HW2 2065   2.821   0.044   2.066
  680SOL     OW 2066   3.142   0.927   2.534
  680SOL    HW1 2067   3.202   0.846   2.536
  680SOL    HW2 2068   3.182   0.996   2.474
  681SOL     OW 2069   2.534   1.616   2.016
  681SOL    HW1 2070   2.543   1.626   1.917
  681SOL    HW2 2071   2.494   1.527   2.037
  682SOL     OW 2072   2.125   0.326   2.582
  682SOL    HW1 2073   2.046   0.377   2.548
  682SOL    HW2 2074   2.116   0.311   2.680
  683SOL     OW 2075   2.778   0.910   2.153
  683SOL    HW1 2076   2.841   0.948   2.085
  683SOL    HW2 2077   2.818   0.827   2.192
  684SOL     OW 2078   2.452   1.487   2.353
  684SOL    HW1 2079   2.494   1.429   2.283
  684SOL    HW2 2080   2.408   1.566   2.309
  685SOL     OW 2081   2.117   1.348   2.152
  685SOL    HW1 2082   2.021   1.349   2.125
  685SOL    HW2 2083   2.129   1.401   2.236
  686SOL     OW 2084   1.937   0.345   1.895
  686SOL    HW1 2085   1.845   0.317   1.866
  686SOL    HW2 2086   1.968   0.422   1.839
  687SOL     OW 2087   1.934   0.166   2.180
  687SOL    HW1 2088   1.917   0.249   2.126
  687SOL    HW2 2089   2.024   0.129   2.158
  688SOL     OW 2090   3.087   0.325   2.311
  688SOL    HW1 2091   3.152   0.251   2.300
  688SOL    HW2 2092   3.107   0.375   2.395
  689SOL     OW 2093   2.456   0.745   2.514
  689SOL    HW1 2094   2.506   0.830   2.495
  689SOL    HW2 2095   2.368   0.747   2.466
  690SOL     OW 2096   2.721   1.374   1.878
  690SOL    HW1 2097   2.675   1.389   1.966
  690SOL    HW2 2098   2.765   1.459   1.848
  691SOL     OW 2099   2.523   1.790   2.815
  691SOL    HW1 2100   2.477   1.878   2.802
  691SOL    HW2 2101   2.622   1.802   2.808
  692SOL     OW 2102   2.721   0.956   2.723
  692SOL    HW1 2103   2.775   0.887   2.771
  692SOL    HW2 2104   2.689   1.025   2.789
  693SOL     OW 2105   1.941   1.240   2.515
  693SOL    HW1 2106   1.940   1.193   2.603
  693SOL    HW2 2107   2.023   1.212   2.464
  694SOL     OW 2108   2.290   0.424   2.382
  694SOL    HW1 2109   2.320   0.352   2.320
  694SOL    HW2 2110   2.251   0.384   2.465
  695SOL     OW 2111   2.674   1.586   2.549
  695SOL    HW1 2112   2.706   1.596   2.455
  695SOL    HW2 2113   2.595   1.524   2.551
  696SOL     OW 2114   2.632   1.330   2.163
  696SOL    HW1 2115   2.586   1.243   2.180
  696SOL    HW2 2116   2.723   1.327   2.204
  697SOL     OW 2117   1.901   1.077   2.162
  697SOL    HW1 2118   2.000   1.066   2.153
  697SOL    HW2 2119   1.861   0.991   2.194
  698SOL     OW 2120   2.737   1.646   2.199
  698SOL    HW1 2121   2.660   1.611   2.145
  698SOL    HW2 2122   2.705   1.717   2.261
  699SOL     OW 2123   2.092   2.490   0.113
  699SOL    HW1 2124   1.999   2.488   0.150
  699SOL    HW2 2125   2.093   2.451   0.021
  700SOL     OW 2126   2.087   2.137   0.996
  700SOL    HW1 2127   2.122   2.120   1.088
  700SOL    HW2 2128   1.999   2.092   0.984
  701SOL     OW 2129   1.881   2.230   0.647
  701SOL    HW1 2130   1.799   2.273   0.686
  701SOL    HW2 2131   1.853   2.157   0.584
  702SOL     OW 2132   2.630   3.006   1.023
  702SOL    HW1 2133   2.552   3.023   1.083
  702SOL    HW2 2134   2.664   3.093   0.987
  703SOL     OW 2135   2.712   2.660   1.823
  703SOL    HW1 2136   2.708   2.736   1.888
  703SOL    HW2 2137   2.734   2.696   1.732
  704SOL     OW 2138   2.547   2.874   0.665
  704SOL    HW1 2139   2.616   2.858   0.735
  704SOL    HW2 2140   2.474   2.931   0.703
  705SOL     OW 2141   2.300   2.254   1.499
  705SOL    HW1 2142   2.382   2.198   1.508
  705SOL    HW2 2143   2.219   2.196   1.503
  706SOL     OW 2144   2.102   2.953   0.886
  706SOL    HW1 2145   2.116   2.869   0.938
  706SOL    HW2 2146   2.047   3.017   0.941
  707SOL     OW 2147   1.984   2.505   0.563
  707SOL    HW1 2148   1.939   2.417   0.580
  707SOL    HW2 2149   1.983   2.559   0.647
  708SOL     OW 2150   1.975   2.599   1.597
  708SOL    HW1 2151   2.063   2.586   1.642
  708SOL    HW2 2152   1.962   2.696   1.575
  709SOL     OW 2153   2.671   1.866   0.502
  709SOL    HW1 2154   2.711   1.957   0.493
  709SOL    HW2 2155   2.571   1.874   0.508
  710SOL     OW 2156   2.059   2.838   1.264
  710SOL    HW1 2157   2.148   2.793   1.250
  710SOL    HW2 2158   1.986   2.773   1.245
  711SOL     OW 2159   2.179   2.113   1.801
  711SOL    HW1 2160   2.250   2.184   1.807
  711SOL    HW2 2161   2.091   2.152   1.829
  712SOL     OW 2162   2.460   2.591   0.270
  712SOL    HW1 2163   2.484   2.660   0.202
  712SOL    HW2 2164   2.382   2.624   0.324
  713SOL     OW 2165   2.669   2.467   1.465
  713SOL    HW1 2166   2.622   2.464   1.554
  713SOL    HW2 2167   2.618   2.412   1.399
  714SOL     OW 2168   2.835   2.752   1.572
  714SOL    HW1 2169   2.881   2.668   1.543
  714SOL    HW2 2170   2.779   2.786   1.497
  715SOL     OW 2171   2.853   2.272   1.242
  715SOL    HW1 2172   2.776   2.306   1.296
  715SOL    HW2 2173   2.819   2.221   1.163
  716SOL     OW 2174   1.938   2.673   0.789
  716SOL    HW1 2175   2.037   2.661   0.798
  716SOL    HW2 2176   1.914   2.768   0.810
  717SOL     OW 2177   2.727   2.210   0.195
  717SOL    HW1 2178   2.786   2.273   0.146
  717SOL    HW2 2179   2.746   2.116   0.166
  718SOL     OW 2180   2.412   2.058   0.885
  718SOL    HW1 2181   2.407   2.053   0.985
  718SOL    HW2 2182   2.414   2.154   0.856
  719SOL     OW 2183   2.064   2.147   1.498
  719SOL    HW1 2184   1.984   2.207   1.485
  719SOL    HW2 2185   2.054   2.098   1.584
  720SOL     OW 2186   2.244   2.562   0.480
  720SOL    HW1 2187   2.289   2.472   0.477
  720SOL    HW2 2188   2.150   2.551   0.513
  721SOL     OW 2189   2.476   1.984   0.117
  721SOL    HW1 2190   2.574   1.962   0.124
  721SOL    HW2 2191   2.445   1.967   0.024
  722SOL     OW 2192   2.643   2.126   1.749
  722SOL    HW1 2193   2.710   2.065   1.792
  722SOL    HW2 2194   2.570   2.145   1.814
  723SOL     OW 2195   2.784   2.365   0.899
  723SOL    HW1 2196   2.759   2.356   0.803
  723SOL    HW2 2197   2.832   2.283   0.930
  724SOL     OW 2198   2.401   1.926   0.512
  724SOL    HW1 2199   2.320   1.927   0.570
  724SOL    HW2 2200   2.404   2.009   0.457
  725SOL     OW 2201   2.797   2.098   0.480
  725SOL    HW1 2202   2.749   2.139   0.402
  725SOL    HW2 2203   2.896   2.096   0.461
  726SOL     OW 2204   1.940   2.418   1.386
  726SOL    HW1 2205   2.032   2.417   1.345
  726SOL    HW2 2206   1.934   2.492   1.453
  727SOL     OW 2207   2.423   2.084   1.147
  727SOL    HW1 2208   2.461   2.000   1.184
  727SOL    HW2 2209   2.335   2.103   1.191
  728SOL     OW 2210   2.879   1.901   0.753
  728SOL    HW1 2211   2.807   1.906   0.684
  728SOL    HW2 2212   2.855   1.832   0.822
  729SOL     OW 2213   2.389   2.118   0.328
  729SOL    HW1 2214   2.416   2.059   0.253
  729SOL    HW2 2215   2.389   2.213   0.297
  730SOL     OW 2216   2.777   1.951   1.402
  730SOL    HW1 2217   2.802   1.931   1.307
  730SOL    HW2 2218   2.849   2.007   1.444
  731SOL     OW 2219   2.842   2.978   1.719
  731SOL    HW1 2220   2.743   2.984   1.729
  731SOL    HW2 2221   2.865   2.898   1.663
  732SOL     OW 2222   2.272   2.675   1.251
  732SOL    HW1 2223   2.358   2.687   1.301
  732SOL    HW2 2224   2.230   2.588   1.278
  733SOL     OW 2225   2.428   2.399   0.865
  733SOL    HW1 2226   2.440   2.465   0.791
  733SOL    HW2 2227   2.474   2.433   0.948
  734SOL     OW 2228   2.264   2.613   1.598
  734SOL    HW1 2229   2.332   2.668   1.551
  734SOL    HW2 2230   2.304   2.525   1.625
  735SOL     OW 2231   2.875   1.967   1.770
  735SOL    HW1 2232   2.881   2.052   1.718
  735SOL    HW2 2233   2.907   1.891   1.713
  736SOL     OW 2234   2.366   1.912   1.740
  736SOL    HW1 2235   2.324   1.855   1.670
  736SOL    HW2 2236   2.300   1.981   1.772
  737SOL     OW 2237   2.435   2.732   1.029
  737SOL    HW1 2238   2.479   2.821   1.020
  737SOL    HW2 2239   2.372   2.732   1.106
  738SOL     OW 2240   3.071   2.387   0.275
  738SOL    HW1 2241   3.084   2.303   0.329
  738SOL    HW2 2242   3.042   2.461   0.335
  739SOL     OW 2243   2.169   2.075   1.231
  739SOL    HW1 2244   2.146   2.112   1.321
  739SOL    HW2 2245   2.139   1.980   1.225
  740SOL     OW 2246   2.594   2.496   1.064
  740SOL    HW1 2247   2.653   2.470   0.988
  740SOL    HW2 2248   2.566   2.592   1.053
  741SOL     OW 2249   2.169   1.925   0.618
  741SOL    HW1 2250   2.158   2.019   0.651
  741SOL    HW2 2251   2.164   1.862   0.695
  742SOL     OW 2252   2.885   2.628   0.966
  742SOL    HW1 2253   2.900   2.649   1.062
  742SOL    HW2 2254   2.855   2.533   0.957
  743SOL     OW 2255   2.212   2.760   1.804
  743SOL    HW1 2256   2.288   2.804   1.852
  743SOL    HW2 2257   2.247   2.713   1.722
  744SOL     OW 2258   2.181   2.672   0.949
  744SOL    HW1 2259   2.274   2.708   0.954
  744SOL    HW2 2260   2.175   2.587   1.001
  745SOL     OW 2261   2.201   2.371   1.006
  745SOL    HW1 2262   2.149   2.288   0.989
  745SOL    HW2 2263   2.278   2.376   0.942
  746SOL     OW 2264   2.864   2.658   1.238
  746SOL    HW1 2265   2.905   2.626   1.324
  746SOL    HW2 2266   2.768   2.631   1.235
  747SOL     OW 2267   1.902   2.406   1.114
  747SOL    HW1 2268   1.987   2.373   1.073
  747SOL    HW2 2269   1.915   2.421   1.212
  748SOL     OW 2270   2.051   2.382   1.722
  748SOL    HW1 2271   2.110   2.342   1.652
  748SOL    HW2 2272   1.993   2.453   1.681
  749SOL     OW 2273   2.677   2.434   0.325
  749SOL    HW1 2274   2.684   2.345   0.279
  749SOL    HW2 2275   2.583   2.468   0.317
  750SOL     OW 2276   2.533   2.326   1.269
  750SOL    HW1 2277   2.499   2.237   1.239
  750SOL    HW2 2278   2.559   2.380   1.189
  751SOL     OW 2279   2.335   2.362   0.191
  751SOL    HW1 2280   2.396   2.442   0.195
  751SOL    HW2 2281   2.240   2.393   0.198
  752SOL     OW 2282   2.021   2.999   1.466
  752SOL    HW1 2283   2.043   2.938   1.542
  752SOL    HW2 2284   2.031   2.950   1.380
  753SOL     OW 2285   3.164   2.717   0.309
  753SOL    HW1 2286   3.078   2.686   0.351
  753SOL    HW2 2287   3.160   2.703   0.210
  754SOL     OW 2288   2.765   1.948   0.133
  754SOL    HW1 2289   2.816   1.949   0.047
  754SOL    HW2 2290   2.821   1.906   0.204
  755SOL     OW 2291   2.125   2.188   0.720
  755SOL    HW1 2292   2.046   2.239   0.686
  755SOL    HW2 2293   2.116   2.173   0.818
  756SOL     OW 2294   2.778   2.772   0.291
  756SOL    HW1 2295   2.841   2.810   0.223
  756SOL    HW2 2296   2.818   2.689   0.330
  757SOL     OW 2297   2.876   2.098   0.971
  757SOL    HW1 2298   2.868   2.062   0.878
  757SOL    HW2 2299   2.874   2.022   1.036
  758SOL     OW 2300   1.967   2.875   1.726
  758SOL    HW1 2301   1.890   2.842   1.780
  758SOL    HW2 2302   2.052   2.845   1.768
  759SOL     OW 2303   2.534   2.065   1.489
  759SOL    HW1 2304   2.624   2.049   1.449
  759SOL    HW2 2305   2.542   2.070   1.588
  760SOL     OW 2306   1.937   2.207   0.033
  760SOL    HW1 2307   1.845   2.179   0.004
  760SOL    HW2 2308   1.968   2.284  -0.023
  761SOL     OW 2309   2.475   2.704   1.431
  761SOL    HW1 2310   2.531   2.785   1.414
  761SOL    HW2 2311   2.534   2.624   1.434
  762SOL     OW 2312   2.578   2.427   1.708
  762SOL    HW1 2313   2.597   2.492   1.782
  762SOL    HW2 2314   2.638   2.347   1.717
  763SOL     OW 2315   3.087   2.187   0.449
  763SOL    HW1 2316   3.152   2.113   0.438
  763SOL    HW2 2317   3.107   2.237   0.533
  764SOL     OW 2318   2.456   2.607   0.652
  764SOL    HW1 2319   2.506   2.692   0.633
  764SOL    HW2 2320   2.368   2.609   0.604
  765SOL     OW 2321   2.721   2.818   0.861
  765SOL    HW1 2322   2.775   2.749   0.909
  765SOL    HW2 2323   2.689   2.887   0.927
  766SOL     OW 2324   2.945   2.846   0.087
  766SOL    HW1 2325   2.922   2.899   0.005
  766SOL    HW2 2326   3.026   2.790   0.068
  767SOL     OW 2327   1.941   3.102   0.653
  767SOL    HW1 2328   1.940   3.055   0.741
  767SOL    HW2 2329   2.023   3.074   0.602
  768SOL     OW 2330   2.290   2.286   0.520
  768SOL    HW1 2331   2.320   2.214   0.458
  768SOL    HW2 2332   2.251   2.246   0.603
  769SOL     OW 2333   2.179   2.409   1.280
  769SOL    HW1 2334   2.217   2.350   1.352
  769SOL    HW2 2335   2.219   2.383   1.192
  770SOL     OW 2336   2.863   1.896   1.154
  770SOL    HW1 2337   2.800   1.824   1.123
  770SOL    HW2 2338   2.956   1.860   1.154
  771SOL     OW 2339   2.092   2.490   1.975
  771SOL    HW1 2340   1.999   2.488   2.012
  771SOL    HW2 2341   2.093   2.451   1.883
  772SOL     OW 2342   2.087   2.137   2.858
  772SOL    HW1 2343   2.122   2.120   2.950
  772SOL    HW2 2344   1.999   2.092   2.846
  773SOL     OW 2345   1.881   2.230   2.509
  773SOL    HW1 2346   1.799   2.273   2.548
  773SOL    HW2 2347   1.853   2.157   2.446
  774SOL     OW 2348   2.547   2.874   2.527
  774SOL    HW1 2349   2.616   2.858   2.597
  774SOL    HW2 2350   2.474   2.931   2.565
  775SOL     OW 2351   2.102   2.953   2.748
  775SOL    HW1 2352   2.116   2.869   2.800
  775SOL    HW2 2353   2.047   3.017   2.803
  776SOL     OW 2354   1.984   2.505   2.425
  776SOL    HW1 2355   1.939   2.417   2.442
  776SOL    HW2 2356   1.983   2.559   2.509
  777SOL     OW 2357   2.671   1.866   2.364
  777SOL    HW1 2358   2.711   1.957   2.355
  777SOL    HW2 2359   2.571   1.874   2.370
  778SOL     OW 2360   2.460   2.591   2.132
  778SOL    HW1 2361   2.484   2.660   2.064
  778SOL    HW2 2362   2.382   2.624   2.186
  779SOL     OW 2363   1.938   2.673   2.651
  779SOL    HW1 2364   2.037   2.661   2.660
  779SOL    HW2 2365   1.914   2.768   2.672
  780SOL     OW 2366   2.727   2.210   2.057
  780SOL    HW1 2367   2.786   2.273   2.008
  780SOL    HW2 2368   2.746   2.116   2.028
  781SOL     OW 2369   2.412   2.058   2.747
  781SOL    HW1 2370   2.407   2.053   2.847
  781SOL    HW2 2371   2.414   2.154   2.718
  782SOL     OW 2372   2.244   2.562   2.342
  782SOL    HW1 2373   2.289   2.472   2.339
  782SOL    HW2 2374   2.150   2.551   2.375
  783SOL     OW 2375   2.476   1.984   1.979
  783SOL    HW1 2376   2.574   1.962   1.986
  783SOL    HW2 2377   2.445   1.967   1.886
  784SOL     OW 2378   2.784   2.365   2.761
  784SOL    HW1 2379   2.759   2.356   2.665
  784SOL    HW2 2380   2.832   2.283   2.792
  785SOL     OW 2381   2.401   1.926   2.374
  785SOL    HW1 2382   2.320   1.927   2.432
  785SOL    HW2 2383   2.404   2.009   2.319
  786SOL     OW 2384   2.159   1.897   2.033
  786SOL    HW1 2385   2.208   1.981   2.012
  786SOL    HW2 2386   2.221   1.832   2.078
  787SOL     OW 2387   2.797   2.098   2.342
  787SOL    HW1 2388   2.749   2.139   2.264
  787SOL    HW2 2389   2.896   2.096   2.323
  788SOL     OW 2390   2.879   1.901   2.615
  788SOL    HW1 2391   2.807   1.906   2.546
  788SOL    HW2 2392   2.855   1.832   2.684
  789SOL     OW 2393   2.389   2.118   2.190
  789SOL    HW1 2394   2.416   2.059   2.115
  789SOL    HW2 2395   2.389   2.213   2.159
  790SOL     OW 2396   2.973   3.057   2.962
  790SOL    HW1 2397   2.933   3.101   3.043
  790SOL    HW2 2398   2.932   3.094   2.879
  791SOL     OW 2399   2.428   2.399   2.727
  791SOL    HW1 2400   2.440   2.465   2.653
  791SOL    HW2 2401   2.474   2.433   2.810
  792SOL     OW 2402   2.435   2.732   2.891
  792SOL    HW1 2403   2.479   2.821   2.882
  792SOL    HW2 2404   2.372   2.732   2.968
  793SOL     OW 2405   3.071   2.387   2.137
  793SOL    HW1 2406   3.084   2.303   2.191
  793SOL    HW2 2407   3.042   2.461   2.197
  794SOL     OW 2408   2.169   2.075   3.093
  794SOL    HW1 2409   2.146   2.112   3.183
  794SOL    HW2 2410   2.139   1.980   3.087
  795SOL     OW 2411   2.594   2.496   2.926
  795SOL    HW1 2412   2.653   2.470   2.850
  795SOL    HW2 2413   2.566   2.592   2.915
  796SOL     OW 2414   2.169   1.925   2.480
  796SOL    HW1 2415   2.158   2.019   2.513
  796SOL    HW2 2416   2.164   1.862   2.557
  797SOL     OW 2417   2.885   2.628   2.828
  797SOL    HW1 2418   2.900   2.649   2.924
  797SOL    HW2 2419   2.855   2.533   2.819
  798SOL     OW 2420   2.181   2.672   2.811
  798SOL    HW1 2421   2.274   2.708   2.816
  798SOL    HW2 2422   2.175   2.587   2.863
  799SOL     OW 2423   2.201   2.371   2.868
  799SOL    HW1 2424   2.149   2.288   2.851
  799SOL    HW2 2425   2.278   2.376   2.804
  800SOL     OW 2426   2.677   2.434   2.187
  800SOL    HW1 2427   2.684   2.345   2.141
  800SOL    HW2 2428   2.583   2.468   2.179
  801SOL     OW 2429   2.533   2.326   3.131
  801SOL    HW1 2430   2.499   2.237   3.101
  801SOL    HW2 2431   2.559   2.380   3.051
  802SOL     OW 2432   2.335   2.362   2.053
  802SOL    HW1 2433   2.396   2.442   2.057
  802SOL    HW2 2434   2.240   2.393   2.060
  803SOL     OW 2435   3.164   2.717   2.171
  803SOL    HW1 2436   3.078   2.686   2.213
  803SOL    HW2 2437   3.160   2.703   2.072
  804SOL     OW 2438   2.125   2.188   2.582
  804SOL    HW1 2439   2.046   2.239   2.548
  804SOL    HW2 2440   2.116   2.173   2.680
  805SOL     OW 2441   2.778   2.772   2.153
  805SOL    HW1 2442   2.841   2.810   2.085
  805SOL    HW2 2443   2.818   2.689   2.192
  806SOL     OW 2444   1.937   2.207   1.895
  806SOL    HW1 2445   1.845   2.179   1.866
  806SOL    HW2 2446   1.968   2.284   1.839
  807SOL     OW 2447   1.934   2.028   2.180
  807SOL    HW1 2448   1.917   2.111   2.126
  807SOL    HW2 2449   2.024   1.991   2.158
  808SOL     OW 2450   3.087   2.187   2.311
  808SOL    HW1 2451   3.152   2.113   2.300
  808SOL    HW2 2452   3.107   2.237   2.395
  809SOL     OW 2453   2.456   2.607   2.514
  809SOL    HW1 2454   2.506   2.692   2.495
  809SOL    HW2 2455   2.368   2.609   2.466
  810SOL     OW 2456   2.721   2.818   2.723
  810SOL    HW1 2457   2.775   2.749   2.771
  810SOL    HW2 2458   2.689   2.887   2.789
  811SOL     OW 2459   1.941   3.102   2.515
  811SOL    HW1 2460   1.940   3.055   2.603
  811SOL    HW2 2461   2.023   3.074   2.464
  812SOL     OW 2462   2.290   2.286   2.382
  812SOL    HW1 2463   2.320   2.214   2.320
  812SOL    HW2 2464   2.251   2.246   2.465
   2.92560   2.92560   2.92560
