; mobley_6239320_GMX.itp created by acpype (v: 2023.10.27) on Thu May 14 13:16:22 2026

[ atomtypes ]
;name   bond_type     mass     charge   ptype   sigma         epsilon       Amb
 c        c           0.00000  0.00000   A     3.31521e-01   4.13379e-01 ; 1.86  0.0988
 ns       ns          0.00000  0.00000   A     3.26995e-01   4.91202e-01 ; 1.84  0.1174
 o        o           0.00000  0.00000   A     3.04812e-01   6.12119e-01 ; 1.71  0.1463
 hn       hn          0.00000  0.00000   A     1.10650e-01   4.18400e-02 ; 0.62  0.0100

[ moleculetype ]
;name            nrexcl
 mobley_6239320   3

[ atoms ]
;   nr  type  resi  res  atom  cgnr     charge      mass       ; qtot   bond_type
     1    c     1   MOL    C1    1     0.821500     12.01000 ; qtot 0.822
     2    c     1   MOL    C2    2     0.821500     12.01000 ; qtot 1.643
     3    c     1   MOL    C3    3     0.821500     12.01000 ; qtot 2.465
     4   ns     1   MOL    N1    4    -0.591500     14.01000 ; qtot 1.873
     5   ns     1   MOL    N2    5    -0.591500     14.01000 ; qtot 1.282
     6   ns     1   MOL    N3    6    -0.591500     14.01000 ; qtot 0.690
     7    o     1   MOL    O1    7    -0.605500     16.00000 ; qtot 0.085
     8    o     1   MOL    O2    8    -0.605500     16.00000 ; qtot -0.521
     9    o     1   MOL    O3    9    -0.605500     16.00000 ; qtot -1.127
    10   hn     1   MOL    H1   10     0.375500      1.00800 ; qtot -0.751
    11   hn     1   MOL    H2   11     0.375500      1.00800 ; qtot -0.376
    12   hn     1   MOL    H3   12     0.375500      1.00800 ; qtot -0.000

[ bonds ]
;   ai     aj funct   r             k
     1      4   1    1.3798e-01    2.8122e+05 ;     C1 - N1    
     1      5   1    1.3798e-01    2.8122e+05 ;     C1 - N2    
     1      7   1    1.2190e-01    4.9421e+05 ;     C1 - O1    
     2      4   1    1.3798e-01    2.8122e+05 ;     C2 - N1    
     2      6   1    1.3798e-01    2.8122e+05 ;     C2 - N3    
     2      8   1    1.2190e-01    4.9421e+05 ;     C2 - O2    
     3      5   1    1.3798e-01    2.8122e+05 ;     C3 - N2    
     3      6   1    1.3798e-01    2.8122e+05 ;     C3 - N3    
     3      9   1    1.2190e-01    4.9421e+05 ;     C3 - O3    
     4     10   1    1.0132e-01    3.9630e+05 ;     N1 - H1    
     5     11   1    1.0132e-01    3.9630e+05 ;     N2 - H2    
     6     12   1    1.0132e-01    3.9630e+05 ;     N3 - H3    

[ pairs ]
;   ai     aj    funct
     1      6      1 ;     C1 - N3    
     1      8      1 ;     C1 - O2    
     1      9      1 ;     C1 - O3    
     2      9      1 ;     C2 - O3    
     3      8      1 ;     C3 - O2    
     4      3      1 ;     N1 - C3    
     4     11      1 ;     N1 - H2    
     4     12      1 ;     N1 - H3    
     5      2      1 ;     N2 - C2    
     5     10      1 ;     N2 - H1    
     5     12      1 ;     N2 - H3    
     6     10      1 ;     N3 - H1    
     6     11      1 ;     N3 - H2    
     7      2      1 ;     O1 - C2    
     7      3      1 ;     O1 - C3    
     7     10      1 ;     O1 - H1    
     7     11      1 ;     O1 - H2    
     8     10      1 ;     O2 - H1    
     8     12      1 ;     O2 - H3    
     9     11      1 ;     O3 - H2    
     9     12      1 ;     O3 - H3    

[ angles ]
;   ai     aj     ak    funct   theta         cth
     1      4      2      1    1.2805e+02    6.4618e+02 ;     C1 - N1     - C2    
     1      4     10      1    1.1726e+02    4.8007e+02 ;     C1 - N1     - H1    
     1      5      3      1    1.2805e+02    6.4618e+02 ;     C1 - N2     - C3    
     1      5     11      1    1.1726e+02    4.8007e+02 ;     C1 - N2     - H2    
     2      4     10      1    1.1726e+02    4.8007e+02 ;     C2 - N1     - H1    
     2      6      3      1    1.2805e+02    6.4618e+02 ;     C2 - N3     - C3    
     2      6     12      1    1.1726e+02    4.8007e+02 ;     C2 - N3     - H3    
     3      5     11      1    1.1726e+02    4.8007e+02 ;     C3 - N2     - H2    
     3      6     12      1    1.1726e+02    4.8007e+02 ;     C3 - N3     - H3    
     4      1      5      1    1.1289e+02    6.2752e+02 ;     N1 - C1     - N2    
     4      1      7      1    1.2305e+02    7.2977e+02 ;     N1 - C1     - O1    
     4      2      6      1    1.1289e+02    6.2752e+02 ;     N1 - C2     - N3    
     4      2      8      1    1.2305e+02    7.2977e+02 ;     N1 - C2     - O2    
     5      1      7      1    1.2305e+02    7.2977e+02 ;     N2 - C1     - O1    
     5      3      6      1    1.1289e+02    6.2752e+02 ;     N2 - C3     - N3    
     5      3      9      1    1.2305e+02    7.2977e+02 ;     N2 - C3     - O3    
     6      2      8      1    1.2305e+02    7.2977e+02 ;     N3 - C2     - O2    
     6      3      9      1    1.2305e+02    7.2977e+02 ;     N3 - C3     - O3    

[ dihedrals ] ; propers
; for gromacs 4.5 or higher, using funct 9
;    i      j      k      l   func   phase     kd      pn
     1      4      2      6      9   180.00  10.46000   2 ;     C1-    N1-    C2-    N3
     1      4      2      8      9   180.00  10.46000   2 ;     C1-    N1-    C2-    O2
     1      5      3      6      9   180.00  10.46000   2 ;     C1-    N2-    C3-    N3
     1      5      3      9      9   180.00  10.46000   2 ;     C1-    N2-    C3-    O3
     2      6      3      5      9   180.00  10.46000   2 ;     C2-    N3-    C3-    N2
     2      6      3      9      9   180.00  10.46000   2 ;     C2-    N3-    C3-    O3
     3      6      2      4      9   180.00  10.46000   2 ;     C3-    N3-    C2-    N1
     3      6      2      8      9   180.00  10.46000   2 ;     C3-    N3-    C2-    O2
     4      1      5      3      9   180.00  10.46000   2 ;     N1-    C1-    N2-    C3
     4      1      5     11      9   180.00  10.46000   2 ;     N1-    C1-    N2-    H2
     4      2      6     12      9   180.00  10.46000   2 ;     N1-    C2-    N3-    H3
     5      1      4      2      9   180.00  10.46000   2 ;     N2-    C1-    N1-    C2
     5      1      4     10      9   180.00  10.46000   2 ;     N2-    C1-    N1-    H1
     5      3      6     12      9   180.00  10.46000   2 ;     N2-    C3-    N3-    H3
     6      2      4     10      9   180.00  10.46000   2 ;     N3-    C2-    N1-    H1
     6      3      5     11      9   180.00  10.46000   2 ;     N3-    C3-    N2-    H2
     7      1      4      2      9   180.00  10.46000   2 ;     O1-    C1-    N1-    C2
     7      1      4     10      9     0.00   8.36800   1 ;     O1-    C1-    N1-    H1
     7      1      4     10      9   180.00  10.46000   2 ;     O1-    C1-    N1-    H1
     7      1      5      3      9   180.00  10.46000   2 ;     O1-    C1-    N2-    C3
     7      1      5     11      9     0.00   8.36800   1 ;     O1-    C1-    N2-    H2
     7      1      5     11      9   180.00  10.46000   2 ;     O1-    C1-    N2-    H2
     8      2      4     10      9     0.00   8.36800   1 ;     O2-    C2-    N1-    H1
     8      2      4     10      9   180.00  10.46000   2 ;     O2-    C2-    N1-    H1
     8      2      6     12      9     0.00   8.36800   1 ;     O2-    C2-    N3-    H3
     8      2      6     12      9   180.00  10.46000   2 ;     O2-    C2-    N3-    H3
     9      3      5     11      9     0.00   8.36800   1 ;     O3-    C3-    N2-    H2
     9      3      5     11      9   180.00  10.46000   2 ;     O3-    C3-    N2-    H2
     9      3      6     12      9     0.00   8.36800   1 ;     O3-    C3-    N3-    H3
     9      3      6     12      9   180.00  10.46000   2 ;     O3-    C3-    N3-    H3

[ dihedrals ] ; impropers
; treated as propers in GROMACS to use correct AMBER analytical function
;    i      j      k      l   func   phase     kd      pn
     1      2      4     10      4   180.00   4.60240   2 ;     C1-    C2-    N1-    H1
     1      3      5     11      4   180.00   4.60240   2 ;     C1-    C3-    N2-    H2
     2      3      6     12      4   180.00   4.60240   2 ;     C2-    C3-    N3-    H3
     4      6      2      8      4   180.00  43.93200   2 ;     N1-    N3-    C2-    O2
     5      6      3      9      4   180.00  43.93200   2 ;     N2-    N3-    C3-    O3
     7      1      5      4      4   180.00  43.93200   2 ;     O1-    C1-    N2-    N1
