; mobley_1922649_GMX.itp created by acpype (v: 2023.10.27) on Thu May 14 13:43:07 2026

[ atomtypes ]
;name   bond_type     mass     charge   ptype   sigma         epsilon       Amb
 ca       ca          0.00000  0.00000   A     3.31521e-01   4.13379e-01 ; 1.86  0.0988
 c3       c3          0.00000  0.00000   A     3.39771e-01   4.51035e-01 ; 1.91  0.1078
 no       no          0.00000  0.00000   A     3.36510e-01   3.58987e-01 ; 1.89  0.0858
 o        o           0.00000  0.00000   A     3.04812e-01   6.12119e-01 ; 1.71  0.1463
 os       os          0.00000  0.00000   A     3.15610e-01   3.03758e-01 ; 1.77  0.0726
 p5       p5          0.00000  0.00000   A     3.69402e-01   9.60228e-01 ; 2.07  0.2295
 s        s           0.00000  0.00000   A     3.53241e-01   1.18156e+00 ; 1.98  0.2824
 ha       ha          0.00000  0.00000   A     2.62548e-01   6.73624e-02 ; 1.47  0.0161
 h1       h1          0.00000  0.00000   A     2.42200e-01   8.70272e-02 ; 1.36  0.0208

[ moleculetype ]
;name            nrexcl
 mobley_1922649   3

[ atoms ]
;   nr  type  resi  res  atom  cgnr     charge      mass       ; qtot   bond_type
     1   ca     1   MOL    C1    1    -0.055000     12.01000 ; qtot -0.055
     2   ca     1   MOL    C2    2    -0.055000     12.01000 ; qtot -0.110
     3   ca     1   MOL    C3    3    -0.141500     12.01000 ; qtot -0.251
     4   ca     1   MOL    C4    4    -0.141500     12.01000 ; qtot -0.393
     5   ca     1   MOL    C5    5    -0.177200     12.01000 ; qtot -0.570
     6   ca     1   MOL    C6    6     0.162100     12.01000 ; qtot -0.408
     7   c3     1   MOL    C7    7     0.129200     12.01000 ; qtot -0.279
     8   c3     1   MOL    C8    8     0.129200     12.01000 ; qtot -0.150
     9   no     1   MOL    N1    9     0.314200     14.01000 ; qtot 0.165
    10    o     1   MOL    O1   10    -0.203000     16.00000 ; qtot -0.038
    11    o     1   MOL    O2   11    -0.203000     16.00000 ; qtot -0.241
    12   os     1   MOL    O3   12    -0.449500     16.00000 ; qtot -0.691
    13   os     1   MOL    O4   13    -0.525700     16.00000 ; qtot -1.217
    14   os     1   MOL    O5   14    -0.525700     16.00000 ; qtot -1.742
    15   p5     1   MOL    P1   15     1.221198     30.97000 ; qtot -0.521
    16    s     1   MOL    S1   16    -0.588000     32.06000 ; qtot -1.109
    17   ha     1   MOL    H1   17     0.179500      1.00800 ; qtot -0.930
    18   ha     1   MOL    H2   18     0.179500      1.00800 ; qtot -0.750
    19   ha     1   MOL    H3   19     0.173000      1.00800 ; qtot -0.577
    20   ha     1   MOL    H4   20     0.173000      1.00800 ; qtot -0.404
    21   h1     1   MOL    H5   21     0.067367      1.00800 ; qtot -0.337
    22   h1     1   MOL    H6   22     0.067367      1.00800 ; qtot -0.269
    23   h1     1   MOL    H7   23     0.067367      1.00800 ; qtot -0.202
    24   h1     1   MOL    H8   24     0.067367      1.00800 ; qtot -0.135
    25   h1     1   MOL    H9   25     0.067367      1.00800 ; qtot -0.067
    26   h1     1   MOL   H10   26     0.067367      1.00800 ; qtot 0.000

[ bonds ]
;   ai     aj funct   r             k
     1      3   1    1.3986e-01    2.9644e+05 ;     C1 - C3    
     1      5   1    1.3986e-01    2.9644e+05 ;     C1 - C5    
     1     17   1    1.0860e-01    3.0183e+05 ;     C1 - H1    
     2      4   1    1.3986e-01    2.9644e+05 ;     C2 - C4    
     2      5   1    1.3986e-01    2.9644e+05 ;     C2 - C5    
     2     18   1    1.0860e-01    3.0183e+05 ;     C2 - H2    
     3      6   1    1.3986e-01    2.9644e+05 ;     C3 - C6    
     3     19   1    1.0860e-01    3.0183e+05 ;     C3 - H3    
     4      6   1    1.3986e-01    2.9644e+05 ;     C4 - C6    
     4     20   1    1.0860e-01    3.0183e+05 ;     C4 - H4    
     5      9   1    1.4696e-01    2.0937e+05 ;     C5 - N1    
     6     12   1    1.3688e-01    2.8731e+05 ;     C6 - O3    
     7     13   1    1.4273e-01    2.3620e+05 ;     C7 - O4    
     7     21   1    1.0969e-01    2.8804e+05 ;     C7 - H5    
     7     22   1    1.0969e-01    2.8804e+05 ;     C7 - H6    
     7     23   1    1.0969e-01    2.8804e+05 ;     C7 - H7    
     8     14   1    1.4273e-01    2.3620e+05 ;     C8 - O5    
     8     24   1    1.0969e-01    2.8804e+05 ;     C8 - H8    
     8     25   1    1.0969e-01    2.8804e+05 ;     C8 - H9    
     8     26   1    1.0969e-01    2.8804e+05 ;     C8 - H10   
     9     10   1    1.2311e-01    3.0270e+05 ;     N1 - O1    
     9     11   1    1.2311e-01    3.0270e+05 ;     N1 - O2    
    12     15   1    1.6182e-01    3.2434e+05 ;     O3 - P1    
    13     15   1    1.6182e-01    3.2434e+05 ;     O4 - P1    
    14     15   1    1.6182e-01    3.2434e+05 ;     O5 - P1    
    15     16   1    1.9473e-01    2.2085e+05 ;     P1 - S1    

[ pairs ]
;   ai     aj    funct
     1      4      1 ;     C1 - C4    
     1     10      1 ;     C1 - O1    
     1     11      1 ;     C1 - O2    
     1     12      1 ;     C1 - O3    
     1     18      1 ;     C1 - H2    
     2      3      1 ;     C2 - C3    
     2     10      1 ;     C2 - O1    
     2     11      1 ;     C2 - O2    
     2     12      1 ;     C2 - O3    
     3      9      1 ;     C3 - N1    
     3     15      1 ;     C3 - P1    
     3     20      1 ;     C3 - H4    
     4      9      1 ;     C4 - N1    
     4     15      1 ;     C4 - P1    
     4     19      1 ;     C4 - H3    
     5      6      1 ;     C5 - C6    
     5     19      1 ;     C5 - H3    
     5     20      1 ;     C5 - H4    
     6     13      1 ;     C6 - O4    
     6     14      1 ;     C6 - O5    
     6     16      1 ;     C6 - S1    
     6     18      1 ;     C6 - H2    
     7     12      1 ;     C7 - O3    
     7     14      1 ;     C7 - O5    
     7     16      1 ;     C7 - S1    
     8     12      1 ;     C8 - O3    
     8     13      1 ;     C8 - O4    
     8     16      1 ;     C8 - S1    
     9     18      1 ;     N1 - H2    
    12     19      1 ;     O3 - H3    
    12     20      1 ;     O3 - H4    
    15     21      1 ;     P1 - H5    
    15     22      1 ;     P1 - H6    
    15     23      1 ;     P1 - H7    
    15     24      1 ;     P1 - H8    
    15     25      1 ;     P1 - H9    
    15     26      1 ;     P1 - H10   
    17      2      1 ;     H1 - C2    
    17      6      1 ;     H1 - C6    
    17      9      1 ;     H1 - N1    
    17     19      1 ;     H1 - H3    
    18     20      1 ;     H2 - H4    

[ angles ]
;   ai     aj     ak    funct   theta         cth
     1      3      6      1    1.2002e+02    5.3279e+02 ;     C1 - C3     - C6    
     1      3     19      1    1.1988e+02    3.7572e+02 ;     C1 - C3     - H3    
     1      5      2      1    1.2002e+02    5.3279e+02 ;     C1 - C5     - C2    
     1      5      9      1    1.1900e+02    5.5329e+02 ;     C1 - C5     - N1    
     2      4      6      1    1.2002e+02    5.3279e+02 ;     C2 - C4     - C6    
     2      4     20      1    1.1988e+02    3.7572e+02 ;     C2 - C4     - H4    
     2      5      9      1    1.1900e+02    5.5329e+02 ;     C2 - C5     - N1    
     3      1      5      1    1.2002e+02    5.3279e+02 ;     C3 - C1     - C5    
     3      1     17      1    1.1988e+02    3.7572e+02 ;     C3 - C1     - H1    
     3      6      4      1    1.2002e+02    5.3279e+02 ;     C3 - C6     - C4    
     3      6     12      1    1.1911e+02    6.6107e+02 ;     C3 - C6     - O3    
     4      2      5      1    1.2002e+02    5.3279e+02 ;     C4 - C2     - C5    
     4      2     18      1    1.1988e+02    3.7572e+02 ;     C4 - C2     - H2    
     4      6     12      1    1.1911e+02    6.6107e+02 ;     C4 - C6     - O3    
     5      1     17      1    1.1988e+02    3.7572e+02 ;     C5 - C1     - H1    
     5      2     18      1    1.1988e+02    3.7572e+02 ;     C5 - C2     - H2    
     5      9     10      1    1.1776e+02    8.2910e+02 ;     C5 - N1     - O1    
     5      9     11      1    1.1776e+02    8.2910e+02 ;     C5 - N1     - O2    
     6      3     19      1    1.1988e+02    3.7572e+02 ;     C6 - C3     - H3    
     6      4     20      1    1.1988e+02    3.7572e+02 ;     C6 - C4     - H4    
     6     12     15      1    1.2302e+02    4.7371e+02 ;     C6 - O3     - P1    
     7     13     15      1    1.1970e+02    4.7396e+02 ;     C7 - O4     - P1    
     8     14     15      1    1.1970e+02    4.7396e+02 ;     C8 - O5     - P1    
    10      9     11      1    1.2505e+02    1.0964e+03 ;     O1 - N1     - O2    
    12     15     13      1    1.0172e+02    8.6123e+02 ;     O3 - P1     - O4    
    12     15     14      1    1.0172e+02    8.6123e+02 ;     O3 - P1     - O5    
    12     15     16      1    1.1704e+02    6.8040e+02 ;     O3 - P1     - S1    
    13      7     21      1    1.1034e+02    4.7028e+02 ;     O4 - C7     - H5    
    13      7     22      1    1.1034e+02    4.7028e+02 ;     O4 - C7     - H6    
    13      7     23      1    1.1034e+02    4.7028e+02 ;     O4 - C7     - H7    
    13     15     14      1    1.0172e+02    8.6123e+02 ;     O4 - P1     - O5    
    13     15     16      1    1.1704e+02    6.8040e+02 ;     O4 - P1     - S1    
    14      8     24      1    1.1034e+02    4.7028e+02 ;     O5 - C8     - H8    
    14      8     25      1    1.1034e+02    4.7028e+02 ;     O5 - C8     - H9    
    14      8     26      1    1.1034e+02    4.7028e+02 ;     O5 - C8     - H10   
    14     15     16      1    1.1704e+02    6.8040e+02 ;     O5 - P1     - S1    
    21      7     22      1    1.0855e+02    2.9824e+02 ;     H5 - C7     - H6    
    21      7     23      1    1.0855e+02    2.9824e+02 ;     H5 - C7     - H7    
    22      7     23      1    1.0855e+02    2.9824e+02 ;     H6 - C7     - H7    
    24      8     25      1    1.0855e+02    2.9824e+02 ;     H8 - C8     - H9    
    24      8     26      1    1.0855e+02    2.9824e+02 ;     H8 - C8     - H10   
    25      8     26      1    1.0855e+02    2.9824e+02 ;     H9 - C8     - H10   

[ dihedrals ] ; propers
; for gromacs 4.5 or higher, using funct 9
;    i      j      k      l   func   phase     kd      pn
     1      3      6      4      9   180.00  15.16700   2 ;     C1-    C3-    C6-    C4
     1      3      6     12      9   180.00  15.16700   2 ;     C1-    C3-    C6-    O3
     1      5      2      4      9   180.00  15.16700   2 ;     C1-    C5-    C2-    C4
     1      5      2     18      9   180.00  15.16700   2 ;     C1-    C5-    C2-    H2
     1      5      9     10      9   180.00   3.01248   2 ;     C1-    C5-    N1-    O1
     1      5      9     11      9   180.00   3.01248   2 ;     C1-    C5-    N1-    O2
     2      4      6      3      9   180.00  15.16700   2 ;     C2-    C4-    C6-    C3
     2      4      6     12      9   180.00  15.16700   2 ;     C2-    C4-    C6-    O3
     2      5      9     10      9   180.00   3.01248   2 ;     C2-    C5-    N1-    O1
     2      5      9     11      9   180.00   3.01248   2 ;     C2-    C5-    N1-    O2
     3      1      5      2      9   180.00  15.16700   2 ;     C3-    C1-    C5-    C2
     3      1      5      9      9   180.00  15.16700   2 ;     C3-    C1-    C5-    N1
     3      6      4     20      9   180.00  15.16700   2 ;     C3-    C6-    C4-    H4
     3      6     12     15      9   180.00   7.32200   2 ;     C3-    C6-    O3-    P1
     4      2      5      9      9   180.00  15.16700   2 ;     C4-    C2-    C5-    N1
     4      6      3     19      9   180.00  15.16700   2 ;     C4-    C6-    C3-    H3
     4      6     12     15      9   180.00   7.32200   2 ;     C4-    C6-    O3-    P1
     5      1      3      6      9   180.00  15.16700   2 ;     C5-    C1-    C3-    C6
     5      1      3     19      9   180.00  15.16700   2 ;     C5-    C1-    C3-    H3
     5      2      4      6      9   180.00  15.16700   2 ;     C5-    C2-    C4-    C6
     5      2      4     20      9   180.00  15.16700   2 ;     C5-    C2-    C4-    H4
     6      4      2     18      9   180.00  15.16700   2 ;     C6-    C4-    C2-    H2
     6     12     15     13      9     0.00   3.34720   2 ;     C6-    O3-    P1-    O4
     6     12     15     14      9     0.00   3.34720   2 ;     C6-    O3-    P1-    O5
     6     12     15     16      9     0.00   3.34720   2 ;     C6-    O3-    P1-    S1
     7     13     15     12      9     0.00  14.72768   2 ;     C7-    O4-    P1-    O3
     7     13     15     14      9     0.00  14.72768   2 ;     C7-    O4-    P1-    O5
     7     13     15     16      9     0.00   3.34720   2 ;     C7-    O4-    P1-    S1
     8     14     15     12      9     0.00  14.72768   2 ;     C8-    O5-    P1-    O3
     8     14     15     13      9     0.00  14.72768   2 ;     C8-    O5-    P1-    O4
     8     14     15     16      9     0.00   3.34720   2 ;     C8-    O5-    P1-    S1
     9      5      2     18      9   180.00  15.16700   2 ;     N1-    C5-    C2-    H2
    12      6      3     19      9   180.00  15.16700   2 ;     O3-    C6-    C3-    H3
    12      6      4     20      9   180.00  15.16700   2 ;     O3-    C6-    C4-    H4
    15     13      7     21      9     0.00   0.00000   0 ;     P1-    O4-    C7-    H5
    15     13      7     22      9     0.00   0.00000   0 ;     P1-    O4-    C7-    H6
    15     13      7     23      9     0.00   0.00000   0 ;     P1-    O4-    C7-    H7
    15     14      8     24      9     0.00   0.00000   0 ;     P1-    O5-    C8-    H8
    15     14      8     25      9     0.00   0.00000   0 ;     P1-    O5-    C8-    H9
    15     14      8     26      9     0.00   0.00000   0 ;     P1-    O5-    C8-   H10
    17      1      3      6      9   180.00  15.16700   2 ;     H1-    C1-    C3-    C6
    17      1      3     19      9   180.00  15.16700   2 ;     H1-    C1-    C3-    H3
    17      1      5      2      9   180.00  15.16700   2 ;     H1-    C1-    C5-    C2
    17      1      5      9      9   180.00  15.16700   2 ;     H1-    C1-    C5-    N1
    18      2      4     20      9   180.00  15.16700   2 ;     H2-    C2-    C4-    H4

[ dihedrals ] ; impropers
; treated as propers in GROMACS to use correct AMBER analytical function
;    i      j      k      l   func   phase     kd      pn
     1      2      5      9      4   180.00   4.60240   2 ;     C1-    C2-    C5-    N1
     1      6      3     19      4   180.00   4.60240   2 ;     C1-    C6-    C3-    H3
     2      6      4     20      4   180.00   4.60240   2 ;     C2-    C6-    C4-    H4
     3      4      6     12      4   180.00   4.60240   2 ;     C3-    C4-    C6-    O3
     4      5      2     18      4   180.00   4.60240   2 ;     C4-    C5-    C2-    H2
     5     10      9     11      4   180.00   4.60240   2 ;     C5-    O1-    N1-    O2
    17      1      5      3      4   180.00   4.60240   2 ;     H1-    C1-    C5-    C3
