mobley_172879_GMX.gro created by acpype (v: 2023.10.27) on Thu May 14 13:53:23 2026
 2539
    1MOL     C1    1   1.681   1.762   1.438
    1MOL     C2    2   1.767   1.662   1.391
    1MOL     C3    3   1.171   1.273   1.546
    1MOL     C4    4   1.256   1.174   1.498
    1MOL     C5    5   1.552   1.730   1.480
    1MOL     C6    6   1.723   1.530   1.385
    1MOL     C7    7   1.214   1.406   1.551
    1MOL     C8    8   1.385   1.206   1.456
    1MOL     C9    9   1.509   1.597   1.474
    1MOL    C10   10   1.594   1.497   1.427
    1MOL    C11   11   1.343   1.438   1.509
    1MOL    C12   12   1.428   1.339   1.462
    1MOL     O1   13   1.381   1.570   1.517
    1MOL     O2   14   1.556   1.366   1.420
    1MOL     H1   15   1.715   1.865   1.442
    1MOL     H2   16   1.867   1.688   1.358
    1MOL     H3   17   1.070   1.248   1.578
    1MOL     H4   18   1.222   1.071   1.494
    1MOL     H5   19   1.486   1.808   1.517
    1MOL     H6   20   1.790   1.453   1.348
    1MOL     H7   21   1.147   1.483   1.588
    1MOL     H8   22   1.451   1.128   1.419
    2SOL     OW   23   0.230   0.628   0.113
    2SOL    HW1   24   0.137   0.626   0.150
    2SOL    HW2   25   0.231   0.589   0.021
    3SOL     OW   26   0.225   0.275   0.996
    3SOL    HW1   27   0.260   0.258   1.088
    3SOL    HW2   28   0.137   0.230   0.984
    4SOL     OW   29   0.019   0.368   0.647
    4SOL    HW1   30  -0.063   0.411   0.686
    4SOL    HW2   31  -0.009   0.295   0.584
    5SOL     OW   32   0.569   1.275   1.165
    5SOL    HW1   33   0.476   1.268   1.128
    5SOL    HW2   34   0.580   1.364   1.209
    6SOL     OW   35   1.555   1.511   0.703
    6SOL    HW1   36   1.498   1.495   0.784
    6SOL    HW2   37   1.496   1.521   0.623
    7SOL     OW   38   1.135   0.703   0.717
    7SOL    HW1   39   1.192   0.781   0.692
    7SOL    HW2   40   1.075   0.729   0.793
    8SOL     OW   41   1.755   0.607   0.231
    8SOL    HW1   42   1.743   0.594   0.132
    8SOL    HW2   43   1.725   0.526   0.280
    9SOL     OW   44   0.768   1.144   1.023
    9SOL    HW1   45   0.690   1.161   1.083
    9SOL    HW2   46   0.802   1.231   0.987
   10SOL     OW   47   0.850   0.798   1.823
   10SOL    HW1   48   0.846   0.874   1.888
   10SOL    HW2   49   0.872   0.834   1.732
   11SOL     OW   50   0.685   1.012   0.665
   11SOL    HW1   51   0.754   0.996   0.735
   11SOL    HW2   52   0.612   1.069   0.703
   12SOL     OW   53   0.686   1.161   1.803
   12SOL    HW1   54   0.746   1.240   1.817
   12SOL    HW2   55   0.600   1.192   1.762
   13SOL     OW   56   0.335   1.435   1.061
   13SOL    HW1   57   0.257   1.404   1.008
   13SOL    HW2   58   0.393   1.493   1.004
   14SOL     OW   59   0.438   0.392   1.499
   14SOL    HW1   60   0.520   0.336   1.508
   14SOL    HW2   61   0.357   0.334   1.503
   15SOL     OW   62   1.603   0.447   0.737
   15SOL    HW1   63   1.529   0.493   0.687
   15SOL    HW2   64   1.654   0.515   0.790
   16SOL     OW   65   0.231   1.713   0.483
   16SOL    HW1   66   0.265   1.790   0.537
   16SOL    HW2   67   0.275   1.713   0.393
   17SOL     OW   68   0.230   1.434   0.538
   17SOL    HW1   69   0.204   1.530   0.538
   17SOL    HW2   70   0.159   1.380   0.583
   18SOL     OW   71   0.240   1.091   0.886
   18SOL    HW1   72   0.254   1.007   0.938
   18SOL    HW2   73   0.185   1.155   0.941
   19SOL     OW   74   0.620   1.786   1.439
   19SOL    HW1   75   0.528   1.769   1.474
   19SOL    HW2   76   0.648   1.878   1.465
   20SOL     OW   77   0.606   0.964   0.123
   20SOL    HW1   78   0.613   1.048   0.069
   20SOL    HW2   79   0.652   0.977   0.211
   21SOL     OW   80   1.594   0.114   1.480
   21SOL    HW1   81   1.576   0.181   1.408
   21SOL    HW2   82   1.591   0.160   1.569
   22SOL     OW   83   0.122   0.643   0.563
   22SOL    HW1   84   0.077   0.555   0.580
   22SOL    HW2   85   0.121   0.697   0.647
   23SOL     OW   86   1.842   1.767   0.359
   23SOL    HW1   87   1.896   1.738   0.439
   23SOL    HW2   88   1.872   1.857   0.330
   24SOL     OW   89   0.027   1.596   0.117
   24SOL    HW1   90   0.008   1.500   0.138
   24SOL    HW2   91  -0.006   1.654   0.192
   25SOL     OW   92   1.689   0.922   0.612
   25SOL    HW1   93   1.784   0.893   0.620
   25SOL    HW2   94   1.681   0.987   0.537
   26SOL     OW   95   1.641   1.108   0.432
   26SOL    HW1   96   1.727   1.110   0.380
   26SOL    HW2   97   1.655   1.155   0.520
   27SOL     OW   98   0.113   0.737   1.597
   27SOL    HW1   99   0.201   0.724   1.642
   27SOL    HW2  100   0.100   0.834   1.575
   28SOL     OW  101   0.613   1.365   0.726
   28SOL    HW1  102   0.564   1.278   0.735
   28SOL    HW2  103   0.590   1.408   0.639
   29SOL     OW  104   0.809   0.004   0.502
   29SOL    HW1  105   0.849   0.095   0.493
   29SOL    HW2  106   0.709   0.012   0.508
   30SOL     OW  107   0.197   0.976   1.264
   30SOL    HW1  108   0.286   0.931   1.250
   30SOL    HW2  109   0.124   0.911   1.245
   31SOL     OW  110   1.525   0.999   0.190
   31SOL    HW1  111   1.462   0.923   0.203
   31SOL    HW2  112   1.573   1.017   0.276
   32SOL     OW  113   1.187   1.792   1.616
   32SOL    HW1  114   1.211   1.852   1.540
   32SOL    HW2  115   1.194   1.697   1.586
   33SOL     OW  116   0.317   0.251   1.801
   33SOL    HW1  117   0.388   0.322   1.807
   33SOL    HW2  118   0.229   0.290   1.829
   34SOL     OW  119   1.466   1.417   0.953
   34SOL    HW1  120   1.407   1.423   1.033
   34SOL    HW2  121   1.451   1.329   0.907
   35SOL     OW  122   1.667   1.714   0.572
   35SOL    HW1  123   1.626   1.691   0.484
   35SOL    HW2  124   1.649   1.640   0.637
   36SOL     OW  125   0.598   0.729   0.270
   36SOL    HW1  126   0.622   0.798   0.202
   36SOL    HW2  127   0.520   0.762   0.324
   37SOL     OW  128   1.281   0.345   0.944
   37SOL    HW1  129   1.195   0.295   0.931
   37SOL    HW2  130   1.343   0.291   1.000
   38SOL     OW  131   1.576   1.662   0.307
   38SOL    HW1  132   1.665   1.708   0.310
   38SOL    HW2  133   1.555   1.638   0.212
   39SOL     OW  134   0.807   0.605   1.465
   39SOL    HW1  135   0.760   0.602   1.554
   39SOL    HW2  136   0.756   0.550   1.399
   40SOL     OW  137   1.394   0.469   1.674
   40SOL    HW1  138   1.374   0.512   1.762
   40SOL    HW2  139   1.472   0.407   1.683
   41SOL     OW  140   0.973   0.890   1.572
   41SOL    HW1  141   1.019   0.806   1.543
   41SOL    HW2  142   0.917   0.924   1.497
   42SOL     OW  143   0.991   0.410   1.242
   42SOL    HW1  144   0.914   0.444   1.296
   42SOL    HW2  145   0.957   0.359   1.163
   43SOL     OW  146   1.041   0.701   0.429
   43SOL    HW1  147   1.067   0.697   0.525
   43SOL    HW2  148   0.956   0.650   0.415
   44SOL     OW  149   0.076   0.811   0.789
   44SOL    HW1  150   0.175   0.799   0.798
   44SOL    HW2  151   0.052   0.906   0.810
   45SOL     OW  152   0.130   1.821   1.571
   45SOL    HW1  153   0.120   1.806   1.670
   45SOL    HW2  154   0.044   1.857   1.535
   46SOL     OW  155   0.865   0.348   0.195
   46SOL    HW1  156   0.924   0.411   0.146
   46SOL    HW2  157   0.884   0.254   0.166
   47SOL     OW  158   1.719   0.585   1.831
   47SOL    HW1  159   1.693   0.674   1.795
   47SOL    HW2  160   1.717   0.517   1.758
   48SOL     OW  161   1.362   1.144   0.545
   48SOL    HW1  162   1.445   1.115   0.497
   48SOL    HW2  163   1.313   1.211   0.489
   49SOL     OW  164   0.550   0.196   0.885
   49SOL    HW1  165   0.545   0.191   0.985
   49SOL    HW2  166   0.552   0.292   0.856
   50SOL     OW  167   1.008   1.456   0.477
   50SOL    HW1  168   0.962   1.528   0.425
   50SOL    HW2  169   1.004   1.476   0.575
   51SOL     OW  170   0.351   1.801   0.853
   51SOL    HW1  171   0.401   1.715   0.859
   51SOL    HW2  172   0.416   1.878   0.850
   52SOL     OW  173   1.795   1.066   0.873
   52SOL    HW1  174   1.733   1.051   0.797
   52SOL    HW2  175   1.743   1.077   0.958
   53SOL     OW  176   0.321   0.943   0.242
   53SOL    HW1  177   0.403   0.982   0.200
   53SOL    HW2  178   0.294   0.861   0.193
   54SOL     OW  179   1.458   0.735   0.728
   54SOL    HW1  180   1.453   0.670   0.803
   54SOL    HW2  181   1.538   0.794   0.741
   55SOL     OW  182   0.461   1.266   1.727
   55SOL    HW1  183   0.411   1.267   1.641
   55SOL    HW2  184   0.398   1.248   1.803
   56SOL     OW  185   1.111   1.776   0.237
   56SOL    HW1  186   1.051   1.714   0.287
   56SOL    HW2  187   1.142   1.732   0.152
   57SOL     OW  188   0.202   0.285   1.498
   57SOL    HW1  189   0.122   0.345   1.485
   57SOL    HW2  190   0.192   0.236   1.584
   58SOL     OW  191   1.632   1.377   0.081
   58SOL    HW1  192   1.600   1.471   0.071
   58SOL    HW2  193   1.556   1.314   0.069
   59SOL     OW  194   0.464   1.743   0.323
   59SOL    HW1  195   0.497   1.782   0.409
   59SOL    HW2  196   0.540   1.736   0.258
   60SOL     OW  197   1.400   0.107   0.426
   60SOL    HW1  198   1.376   0.070   0.336
   60SOL    HW2  199   1.499   0.123   0.430
   61SOL     OW  200   0.249   1.785   1.241
   61SOL    HW1  201   0.306   1.720   1.291
   61SOL    HW2  202   0.233   1.752   1.148
   62SOL     OW  203   0.940   1.698   0.904
   62SOL    HW1  204   1.020   1.641   0.925
   62SOL    HW2  205   0.891   1.658   0.827
   63SOL     OW  206   0.382   0.700   0.480
   63SOL    HW1  207   0.427   0.610   0.477
   63SOL    HW2  208   0.288   0.689   0.513
   64SOL     OW  209   1.547   0.222   1.729
   64SOL    HW1  210   1.542   0.259   1.821
   64SOL    HW2  211   1.475   0.153   1.717
   65SOL     OW  212   0.614   0.122   0.117
   65SOL    HW1  213   0.712   0.100   0.124
   65SOL    HW2  214   0.583   0.105   0.024
   66SOL     OW  215   0.781   0.264   1.749
   66SOL    HW1  216   0.848   0.203   1.792
   66SOL    HW2  217   0.708   0.283   1.814
   67SOL     OW  218   0.888   1.514   1.195
   67SOL    HW1  219   0.865   1.489   1.101
   67SOL    HW2  220   0.949   1.445   1.234
   68SOL     OW  221   1.351   0.590   1.433
   68SOL    HW1  222   1.379   0.547   1.518
   68SOL    HW2  223   1.376   0.686   1.434
   69SOL     OW  224   0.803   1.402   0.924
   69SOL    HW1  225   0.893   1.416   0.882
   69SOL    HW2  226   0.732   1.404   0.853
   70SOL     OW  227   0.922   0.503   0.899
   70SOL    HW1  228   0.897   0.494   0.803
   70SOL    HW2  229   0.970   0.421   0.930
   71SOL     OW  230   0.539   0.064   0.512
   71SOL    HW1  231   0.458   0.065   0.570
   71SOL    HW2  232   0.542   0.147   0.457
   72SOL     OW  233   1.434   1.188   0.041
   72SOL    HW1  234   1.466   1.112   0.098
   72SOL    HW2  235   1.342   1.215   0.071
   73SOL     OW  236   0.297   0.035   0.171
   73SOL    HW1  237   0.346   0.119   0.150
   73SOL    HW2  238   0.359  -0.030   0.216
   74SOL     OW  239   0.935   0.236   0.480
   74SOL    HW1  240   0.887   0.277   0.402
   74SOL    HW2  241   1.034   0.234   0.461
   75SOL     OW  242   1.076   0.683   1.464
   75SOL    HW1  243   0.996   0.622   1.467
   75SOL    HW2  244   1.157   0.630   1.440
   76SOL     OW  245   1.227   1.570   0.793
   76SOL    HW1  246   1.248   1.644   0.728
   76SOL    HW2  247   1.295   1.570   0.866
   77SOL     OW  248   0.459   1.152   0.741
   77SOL    HW1  249   0.388   1.125   0.806
   77SOL    HW2  250   0.433   1.124   0.648
   78SOL     OW  251   1.271   1.797   0.591
   78SOL    HW1  252   1.315   1.861   0.527
   78SOL    HW2  253   1.221   1.849   0.661
   79SOL     OW  254   1.032   0.549   0.016
   79SOL    HW1  255   0.991   0.631  -0.023
   79SOL    HW2  256   1.096   0.575   0.089
   80SOL     OW  257   0.078   0.556   1.386
   80SOL    HW1  258   0.170   0.555   1.345
   80SOL    HW2  259   0.072   0.630   1.453
   81SOL     OW  260   0.561   0.222   1.147
   81SOL    HW1  261   0.599   0.138   1.184
   81SOL    HW2  262   0.473   0.241   1.191
   82SOL     OW  263   0.866   0.454   0.642
   82SOL    HW1  264   0.834   0.526   0.580
   82SOL    HW2  265   0.890   0.373   0.589
   83SOL     OW  266   1.017   0.039   0.753
   83SOL    HW1  267   0.945   0.044   0.684
   83SOL    HW2  268   0.993  -0.030   0.822
   84SOL     OW  269   1.429   1.173   0.867
   84SOL    HW1  270   1.374   1.089   0.860
   84SOL    HW2  271   1.455   1.202   0.775
   85SOL     OW  272   1.466   0.590   0.992
   85SOL    HW1  273   1.436   0.495   0.999
   85SOL    HW2  274   1.539   0.606   1.058
   86SOL     OW  275   1.857   0.833   0.377
   86SOL    HW1  276   1.899   0.769   0.441
   86SOL    HW2  277   1.819   0.782   0.299
   87SOL     OW  278   0.488   1.385   0.174
   87SOL    HW1  279   0.401   1.370   0.221
   87SOL    HW2  280   0.471   1.411   0.079
   88SOL     OW  281   1.664   1.280   0.657
   88SOL    HW1  282   1.763   1.288   0.671
   88SOL    HW2  283   1.619   1.364   0.688
   89SOL     OW  284   1.390   0.575   0.078
   89SOL    HW1  285   1.336   0.554   0.159
   89SOL    HW2  286   1.481   0.534   0.087
   90SOL     OW  287   0.527   0.256   0.328
   90SOL    HW1  288   0.554   0.197   0.253
   90SOL    HW2  289   0.527   0.351   0.297
   91SOL     OW  290   1.754   1.223   1.588
   91SOL    HW1  291   1.845   1.184   1.575
   91SOL    HW2  292   1.762   1.319   1.612
   92SOL     OW  293   1.064   1.347   1.340
   92SOL    HW1  294   0.984   1.324   1.395
   92SOL    HW2  295   1.147   1.321   1.389
   93SOL     OW  296   1.111   1.195   1.100
   93SOL    HW1  297   1.071   1.239   1.181
   93SOL    HW2  298   1.070   1.232   1.017
   94SOL     OW  299   1.638   1.099   1.079
   94SOL    HW1  300   1.643   1.180   1.138
   94SOL    HW2  301   1.552   1.101   1.028
   95SOL     OW  302   0.915   0.089   1.402
   95SOL    HW1  303   0.940   0.069   1.307
   95SOL    HW2  304   0.987   0.145   1.444
   96SOL     OW  305   0.980   1.116   1.719
   96SOL    HW1  306   0.881   1.122   1.729
   96SOL    HW2  307   1.003   1.036   1.663
   97SOL     OW  308   0.705   1.050   0.368
   97SOL    HW1  309   0.691   1.057   0.467
   97SOL    HW2  310   0.789   0.999   0.350
   98SOL     OW  311   0.410   0.813   1.251
   98SOL    HW1  312   0.496   0.825   1.301
   98SOL    HW2  313   0.368   0.726   1.278
   99SOL     OW  314   1.274   0.386   1.262
   99SOL    HW1  315   1.295   0.460   1.326
   99SOL    HW2  316   1.185   0.403   1.219
  100SOL     OW  317   0.064   1.564   1.331
  100SOL    HW1  318   0.018   1.646   1.297
  100SOL    HW2  319   0.162   1.583   1.340
  101SOL     OW  320   0.367   1.100   0.501
  101SOL    HW1  321   0.360   1.183   0.445
  101SOL    HW2  322   0.371   1.020   0.441
  102SOL     OW  323   0.566   0.537   0.865
  102SOL    HW1  324   0.578   0.603   0.791
  102SOL    HW2  325   0.612   0.571   0.948
  103SOL     OW  326   1.252   1.348   0.388
  103SOL    HW1  327   1.302   1.425   0.428
  103SOL    HW2  328   1.157   1.350   0.420
  104SOL     OW  329   1.272   1.445   1.142
  104SOL    HW1  330   1.319   1.458   1.229
  104SOL    HW2  331   1.206   1.371   1.151
  105SOL     OW  332   1.582   0.639   0.472
  105SOL    HW1  333   1.551   0.700   0.545
  105SOL    HW2  334   1.632   0.691   0.403
  106SOL     OW  335   0.354   1.510   1.329
  106SOL    HW1  336   0.333   1.466   1.242
  106SOL    HW2  337   0.451   1.536   1.332
  107SOL     OW  338   0.402   0.751   1.598
  107SOL    HW1  339   0.470   0.806   1.551
  107SOL    HW2  340   0.442   0.663   1.625
  108SOL     OW  341   1.587   0.779   1.670
  108SOL    HW1  342   1.495   0.817   1.665
  108SOL    HW2  343   1.647   0.826   1.605
  109SOL     OW  344   1.013   0.105   1.770
  109SOL    HW1  345   1.019   0.190   1.718
  109SOL    HW2  346   1.045   0.029   1.713
  110SOL     OW  347   0.504   0.050   1.740
  110SOL    HW1  348   0.462  -0.007   1.670
  110SOL    HW2  349   0.438   0.119   1.772
  111SOL     OW  350   0.573   0.870   1.029
  111SOL    HW1  351   0.617   0.959   1.020
  111SOL    HW2  352   0.510   0.870   1.106
  112SOL     OW  353   1.360   0.862   1.045
  112SOL    HW1  354   1.285   0.862   0.979
  112SOL    HW2  355   1.397   0.770   1.054
  113SOL     OW  356   1.209   0.525   0.275
  113SOL    HW1  357   1.222   0.441   0.329
  113SOL    HW2  358   1.180   0.599   0.335
  114SOL     OW  359   0.307   0.213   1.231
  114SOL    HW1  360   0.284   0.250   1.321
  114SOL    HW2  361   0.277   0.118   1.225
  115SOL     OW  362   0.037   1.310   1.282
  115SOL    HW1  363   0.090   1.261   1.350
  115SOL    HW2  364   0.059   1.408   1.287
  116SOL     OW  365   0.732   0.634   1.064
  116SOL    HW1  366   0.791   0.608   0.988
  116SOL    HW2  367   0.704   0.730   1.053
  117SOL     OW  368   1.728   0.935   1.854
  117SOL    HW1  369   1.682   0.928   1.765
  117SOL    HW2  370   1.666   0.979   1.920
  118SOL     OW  371   0.307   0.063   0.618
  118SOL    HW1  372   0.296   0.157   0.651
  118SOL    HW2  373   0.302   0.000   0.695
  119SOL     OW  374   1.622   0.367   0.374
  119SOL    HW1  375   1.624   0.291   0.438
  119SOL    HW2  376   1.574   0.444   0.414
  120SOL     OW  377   1.023   0.766   0.966
  120SOL    HW1  378   1.038   0.787   1.062
  120SOL    HW2  379   0.993   0.671   0.957
  121SOL     OW  380   0.980   1.573   1.700
  121SOL    HW1  381   0.960   1.617   1.612
  121SOL    HW2  382   1.019   1.482   1.684
  122SOL     OW  383   1.859   1.518   1.605
  122SOL    HW1  384   1.873   1.545   1.510
  122SOL    HW2  385   1.942   1.540   1.658
  123SOL     OW  386   0.350   0.898   1.804
  123SOL    HW1  387   0.426   0.942   1.852
  123SOL    HW2  388   0.385   0.851   1.722
  124SOL     OW  389   1.540   0.274   0.125
  124SOL    HW1  390   1.479   0.199   0.148
  124SOL    HW2  391   1.562   0.326   0.208
  125SOL     OW  392   1.303   0.838   0.042
  125SOL    HW1  393   1.337   0.745   0.057
  125SOL    HW2  394   1.321   0.865  -0.053
  126SOL     OW  395   1.068   1.333   0.849
  126SOL    HW1  396   1.075   1.249   0.794
  126SOL    HW2  397   1.130   1.402   0.813
  127SOL     OW  398   0.319   0.810   0.949
  127SOL    HW1  399   0.412   0.846   0.954
  127SOL    HW2  400   0.313   0.725   1.001
  128SOL     OW  401   0.339   0.509   1.006
  128SOL    HW1  402   0.287   0.426   0.989
  128SOL    HW2  403   0.416   0.514   0.942
  129SOL     OW  404   1.138   0.380   1.678
  129SOL    HW1  405   1.093   0.443   1.742
  129SOL    HW2  406   1.231   0.411   1.661
  130SOL     OW  407   1.160   0.207   1.477
  130SOL    HW1  408   1.160   0.271   1.554
  130SOL    HW2  409   1.188   0.255   1.394
  131SOL     OW  410   0.008   1.326   0.200
  131SOL    HW1  411  -0.085   1.347   0.169
  131SOL    HW2  412   0.018   1.227   0.213
  132SOL     OW  413   0.088   1.801   0.927
  132SOL    HW1  414   0.046   1.715   0.900
  132SOL    HW2  415   0.182   1.804   0.893
  133SOL     OW  416   0.504   1.568   0.910
  133SOL    HW1  417   0.570   1.642   0.919
  133SOL    HW2  418   0.548   1.489   0.868
  134SOL     OW  419   1.002   0.796   1.238
  134SOL    HW1  420   1.043   0.764   1.324
  134SOL    HW2  421   0.906   0.769   1.235
  135SOL     OW  422   0.040   0.544   1.114
  135SOL    HW1  423   0.125   0.511   1.073
  135SOL    HW2  424   0.053   0.559   1.212
  136SOL     OW  425   0.189   0.520   1.722
  136SOL    HW1  426   0.248   0.480   1.652
  136SOL    HW2  427   0.131   0.591   1.681
  137SOL     OW  428   1.369   0.950   1.660
  137SOL    HW1  429   1.408   1.039   1.680
  137SOL    HW2  430   1.379   0.930   1.563
  138SOL     OW  431   0.815   0.572   0.325
  138SOL    HW1  432   0.822   0.483   0.279
  138SOL    HW2  433   0.721   0.606   0.317
  139SOL     OW  434   1.657   0.604   1.206
  139SOL    HW1  435   1.619   0.535   1.268
  139SOL    HW2  436   1.739   0.568   1.162
  140SOL     OW  437   0.252   1.564   1.744
  140SOL    HW1  438   0.222   1.621   1.820
  140SOL    HW2  439   0.245   1.467   1.770
  141SOL     OW  440   0.671   0.464   1.269
  141SOL    HW1  441   0.637   0.375   1.239
  141SOL    HW2  442   0.697   0.518   1.189
  142SOL     OW  443   0.930   1.678   1.465
  142SOL    HW1  444   0.906   1.660   1.370
  142SOL    HW2  445   0.960   1.772   1.475
  143SOL     OW  446   0.473   0.500   0.191
  143SOL    HW1  447   0.534   0.580   0.195
  143SOL    HW2  448   0.378   0.531   0.198
  144SOL     OW  449   0.159   1.137   1.466
  144SOL    HW1  450   0.181   1.076   1.542
  144SOL    HW2  451   0.169   1.088   1.380
  145SOL     OW  452   1.347   1.059   1.234
  145SOL    HW1  453   1.371   0.996   1.160
  145SOL    HW2  454   1.257   1.099   1.216
  146SOL     OW  455   1.302   0.855   0.309
  146SOL    HW1  456   1.216   0.824   0.351
  146SOL    HW2  457   1.298   0.841   0.210
  147SOL     OW  458   1.759   1.747   1.154
  147SOL    HW1  459   1.820   1.777   1.081
  147SOL    HW2  460   1.721   1.658   1.132
  148SOL     OW  461   1.252   1.731   1.128
  148SOL    HW1  462   1.336   1.736   1.074
  148SOL    HW2  463   1.229   1.635   1.146
  149SOL     OW  464   0.083   1.258   1.022
  149SOL    HW1  465   0.078   1.257   1.122
  149SOL    HW2  466   0.000   1.217   0.984
  150SOL     OW  467   0.688   1.662   1.716
  150SOL    HW1  468   0.632   1.743   1.725
  150SOL    HW2  469   0.740   1.666   1.630
  151SOL     OW  470   0.903   0.086   0.133
  151SOL    HW1  471   0.954   0.087   0.047
  151SOL    HW2  472   0.959   0.044   0.204
  152SOL     OW  473   1.726   0.135   0.523
  152SOL    HW1  474   1.799   0.118   0.456
  152SOL    HW2  475   1.695   0.048   0.561
  153SOL     OW  476   1.388   1.573   0.477
  153SOL    HW1  477   1.455   1.585   0.403
  153SOL    HW2  478   1.348   1.662   0.500
  154SOL     OW  479   0.130   1.794   1.851
  154SOL    HW1  480   0.089   1.720   1.904
  154SOL    HW2  481   0.194   1.845   1.909
  155SOL     OW  482   1.280   0.927   0.672
  155SOL    HW1  483   1.340   0.846   0.674
  155SOL    HW2  484   1.320   0.996   0.612
  156SOL     OW  485   0.830   1.273   1.422
  156SOL    HW1  486   0.825   1.306   1.517
  156SOL    HW2  487   0.744   1.292   1.376
  157SOL     OW  488   0.672   1.616   0.154
  157SOL    HW1  489   0.681   1.626   0.055
  157SOL    HW2  490   0.632   1.527   0.175
  158SOL     OW  491   1.841   0.175   0.963
  158SOL    HW1  492   1.880   0.090   0.927
  158SOL    HW2  493   1.743   0.177   0.944
  159SOL     OW  494   0.263   0.326   0.720
  159SOL    HW1  495   0.184   0.377   0.686
  159SOL    HW2  496   0.254   0.311   0.818
  160SOL     OW  497   1.194   1.612   0.031
  160SOL    HW1  498   1.200   1.519   0.068
  160SOL    HW2  499   1.135   1.612  -0.049
  161SOL     OW  500   0.822   1.002   1.372
  161SOL    HW1  501   0.862   1.001   1.280
  161SOL    HW2  502   0.832   1.094   1.412
  162SOL     OW  503   0.916   0.910   0.291
  162SOL    HW1  504   0.979   0.948   0.223
  162SOL    HW2  505   0.956   0.827   0.330
  163SOL     OW  506   1.504   1.607   0.044
  163SOL    HW1  507   1.412   1.644   0.051
  163SOL    HW2  508   1.542   1.627  -0.046
  164SOL     OW  509   0.372   1.288   1.490
  164SOL    HW1  510   0.359   1.381   1.456
  164SOL    HW2  511   0.288   1.236   1.477
  165SOL     OW  512   1.039   1.098   0.696
  165SOL    HW1  513   0.969   1.051   0.750
  165SOL    HW2  514   1.098   1.030   0.653
  166SOL     OW  515   1.014   0.236   0.971
  166SOL    HW1  516   1.006   0.200   0.878
  166SOL    HW2  517   1.012   0.160   1.036
  167SOL     OW  518   0.590   1.487   0.491
  167SOL    HW1  519   0.632   1.429   0.421
  167SOL    HW2  520   0.546   1.566   0.447
  168SOL     OW  521   1.709   0.385   1.381
  168SOL    HW1  522   1.782   0.454   1.385
  168SOL    HW2  523   1.737   0.310   1.322
  169SOL     OW  524   0.255   1.348   0.290
  169SOL    HW1  525   0.159   1.349   0.263
  169SOL    HW2  526   0.267   1.401   0.374
  170SOL     OW  527   0.105   1.013   1.726
  170SOL    HW1  528   0.028   0.980   1.780
  170SOL    HW2  529   0.190   0.983   1.768
  171SOL     OW  530   0.672   0.203   1.489
  171SOL    HW1  531   0.762   0.187   1.449
  171SOL    HW2  532   0.680   0.208   1.588
  172SOL     OW  533   0.075   0.345   0.033
  172SOL    HW1  534  -0.017   0.317   0.004
  172SOL    HW2  535   0.106   0.422  -0.023
  173SOL     OW  536   1.440   0.856   1.398
  173SOL    HW1  537   1.383   0.908   1.335
  173SOL    HW2  538   1.536   0.868   1.374
  174SOL     OW  539   0.072   0.166   0.318
  174SOL    HW1  540   0.055   0.249   0.264
  174SOL    HW2  541   0.162   0.129   0.296
  175SOL     OW  542   1.183   1.335   0.119
  175SOL    HW1  543   1.084   1.324   0.121
  175SOL    HW2  544   1.217   1.350   0.212
  176SOL     OW  545   0.613   0.842   1.431
  176SOL    HW1  546   0.669   0.923   1.414
  176SOL    HW2  547   0.672   0.762   1.434
  177SOL     OW  548   1.493   1.767   0.959
  177SOL    HW1  549   1.526   1.831   0.890
  177SOL    HW2  550   1.559   1.761   1.034
  178SOL     OW  551   0.716   0.565   1.708
  178SOL    HW1  552   0.735   0.630   1.782
  178SOL    HW2  553   0.776   0.485   1.717
  179SOL     OW  554   1.450   1.220   1.633
  179SOL    HW1  555   1.441   1.210   1.732
  179SOL    HW2  556   1.546   1.213   1.607
  180SOL     OW  557   0.390   1.741   1.560
  180SOL    HW1  558   0.299   1.782   1.558
  180SOL    HW2  559   0.383   1.647   1.592
  181SOL     OW  560   1.674   0.883   1.254
  181SOL    HW1  561   1.647   0.794   1.217
  181SOL    HW2  562   1.675   0.951   1.181
  182SOL     OW  563   1.225   0.325   0.449
  182SOL    HW1  564   1.290   0.251   0.438
  182SOL    HW2  565   1.245   0.375   0.533
  183SOL     OW  566   0.594   0.745   0.652
  183SOL    HW1  567   0.644   0.830   0.633
  183SOL    HW2  568   0.506   0.747   0.604
  184SOL     OW  569   1.777   0.342   1.642
  184SOL    HW1  570   1.760   0.373   1.548
  184SOL    HW2  571   1.693   0.305   1.680
  185SOL     OW  572   1.730   0.934   1.517
  185SOL    HW1  573   1.768   1.025   1.532
  185SOL    HW2  574   1.722   0.917   1.418
  186SOL     OW  575   0.859   1.374   0.016
  186SOL    HW1  576   0.813   1.389   0.104
  186SOL    HW2  577   0.903   1.459  -0.014
  187SOL     OW  578   0.661   1.790   0.953
  187SOL    HW1  579   0.615   1.878   0.940
  187SOL    HW2  580   0.760   1.802   0.946
  188SOL     OW  581   0.859   0.956   0.861
  188SOL    HW1  582   0.913   0.887   0.909
  188SOL    HW2  583   0.827   1.025   0.927
  189SOL     OW  584   1.083   0.984   0.087
  189SOL    HW1  585   1.060   1.037   0.005
  189SOL    HW2  586   1.164   0.928   0.068
  190SOL     OW  587   1.861   1.569   0.851
  190SOL    HW1  588   1.790   1.557   0.781
  190SOL    HW2  589   1.862   1.490   0.911
  191SOL     OW  590   0.221   1.314   1.844
  191SOL    HW1  591   0.156   1.241   1.823
  191SOL    HW2  592   0.225   1.328   1.942
  192SOL     OW  593   0.079   1.240   0.653
  192SOL    HW1  594   0.078   1.193   0.741
  192SOL    HW2  595   0.161   1.212   0.602
  193SOL     OW  596   0.672   1.391   1.624
  193SOL    HW1  597   0.594   1.341   1.662
  193SOL    HW2  598   0.669   1.486   1.655
  194SOL     OW  599   1.824   0.192   1.227
  194SOL    HW1  600   1.820   0.102   1.271
  194SOL    HW2  601   1.827   0.181   1.128
  195SOL     OW  602   0.428   0.424   0.520
  195SOL    HW1  603   0.458   0.352   0.458
  195SOL    HW2  604   0.389   0.384   0.603
  196SOL     OW  605   1.705   1.487   1.104
  196SOL    HW1  606   1.612   1.462   1.077
  196SOL    HW2  607   1.731   1.437   1.186
  197SOL     OW  608   0.317   0.547   1.280
  197SOL    HW1  609   0.355   0.488   1.352
  197SOL    HW2  610   0.357   0.521   1.192
  198SOL     OW  611   0.812   1.586   0.687
  198SOL    HW1  612   0.844   1.596   0.593
  198SOL    HW2  613   0.733   1.524   0.689
  199SOL     OW  614   1.424   0.214   1.112
  199SOL    HW1  615   1.476   0.149   1.167
  199SOL    HW2  616   1.375   0.277   1.173
  200SOL     OW  617   1.001   0.034   1.154
  200SOL    HW1  618   0.938  -0.038   1.123
  200SOL    HW2  619   1.094  -0.002   1.154
  201SOL     OW  620   0.770   1.330   0.301
  201SOL    HW1  621   0.724   1.243   0.318
  201SOL    HW2  622   0.861   1.327   0.342
  202SOL     OW  623   0.618   1.567   1.284
  202SOL    HW1  624   0.613   1.649   1.341
  202SOL    HW2  625   0.707   1.564   1.239
  203SOL     OW  626   1.352   0.052   0.168
  203SOL    HW1  627   1.387   0.011   0.084
  203SOL    HW2  628   1.262   0.014   0.188
  204SOL     OW  629   1.300   0.453   0.691
  204SOL    HW1  630   1.241   0.533   0.695
  204SOL    HW2  631   1.315   0.418   0.784
  205SOL     OW  632   1.593   0.221   0.882
  205SOL    HW1  633   1.509   0.220   0.936
  205SOL    HW2  634   1.595   0.304   0.826
  206SOL     OW  635   0.039   1.077   0.300
  206SOL    HW1  636   0.138   1.066   0.291
  206SOL    HW2  637  -0.001   0.991   0.332
  207SOL     OW  638   0.875   1.646   0.337
  207SOL    HW1  639   0.798   1.611   0.283
  207SOL    HW2  640   0.843   1.717   0.399
  208SOL     OW  641   0.230   0.628   1.975
  208SOL    HW1  642   0.137   0.626   2.012
  208SOL    HW2  643   0.231   0.589   1.883
  209SOL     OW  644   0.225   0.275   2.858
  209SOL    HW1  645   0.260   0.258   2.950
  209SOL    HW2  646   0.137   0.230   2.846
  210SOL     OW  647   0.019   0.368   2.509
  210SOL    HW1  648  -0.063   0.411   2.548
  210SOL    HW2  649  -0.009   0.295   2.446
  211SOL     OW  650   1.555   1.511   2.565
  211SOL    HW1  651   1.498   1.495   2.646
  211SOL    HW2  652   1.496   1.521   2.485
  212SOL     OW  653   1.135   0.703   2.579
  212SOL    HW1  654   1.192   0.781   2.554
  212SOL    HW2  655   1.075   0.729   2.655
  213SOL     OW  656   1.755   0.607   2.093
  213SOL    HW1  657   1.743   0.594   1.994
  213SOL    HW2  658   1.725   0.526   2.142
  214SOL     OW  659   0.768   1.144   2.885
  214SOL    HW1  660   0.690   1.161   2.945
  214SOL    HW2  661   0.802   1.231   2.849
  215SOL     OW  662   0.685   1.012   2.527
  215SOL    HW1  663   0.754   0.996   2.597
  215SOL    HW2  664   0.612   1.069   2.565
  216SOL     OW  665   0.335   1.435   2.923
  216SOL    HW1  666   0.257   1.404   2.870
  216SOL    HW2  667   0.393   1.493   2.866
  217SOL     OW  668   1.603   0.447   2.599
  217SOL    HW1  669   1.529   0.493   2.549
  217SOL    HW2  670   1.654   0.515   2.652
  218SOL     OW  671   0.231   1.713   2.345
  218SOL    HW1  672   0.265   1.790   2.399
  218SOL    HW2  673   0.275   1.713   2.255
  219SOL     OW  674   0.230   1.434   2.400
  219SOL    HW1  675   0.204   1.530   2.400
  219SOL    HW2  676   0.159   1.380   2.445
  220SOL     OW  677   0.240   1.091   2.748
  220SOL    HW1  678   0.254   1.007   2.800
  220SOL    HW2  679   0.185   1.155   2.803
  221SOL     OW  680   0.606   0.964   1.985
  221SOL    HW1  681   0.613   1.048   1.931
  221SOL    HW2  682   0.652   0.977   2.073
  222SOL     OW  683   0.122   0.643   2.425
  222SOL    HW1  684   0.077   0.555   2.442
  222SOL    HW2  685   0.121   0.697   2.509
  223SOL     OW  686   1.842   1.767   2.221
  223SOL    HW1  687   1.896   1.738   2.301
  223SOL    HW2  688   1.872   1.857   2.192
  224SOL     OW  689   0.027   1.596   1.979
  224SOL    HW1  690   0.008   1.500   2.000
  224SOL    HW2  691  -0.006   1.654   2.054
  225SOL     OW  692   1.689   0.922   2.474
  225SOL    HW1  693   1.784   0.893   2.482
  225SOL    HW2  694   1.681   0.987   2.399
  226SOL     OW  695   1.641   1.108   2.294
  226SOL    HW1  696   1.727   1.110   2.242
  226SOL    HW2  697   1.655   1.155   2.382
  227SOL     OW  698   0.613   1.365   2.588
  227SOL    HW1  699   0.564   1.278   2.597
  227SOL    HW2  700   0.590   1.408   2.501
  228SOL     OW  701   0.809   0.004   2.364
  228SOL    HW1  702   0.849   0.095   2.355
  228SOL    HW2  703   0.709   0.012   2.370
  229SOL     OW  704   1.525   0.999   2.052
  229SOL    HW1  705   1.462   0.923   2.065
  229SOL    HW2  706   1.573   1.017   2.138
  230SOL     OW  707   1.466   1.417   2.815
  230SOL    HW1  708   1.407   1.423   2.895
  230SOL    HW2  709   1.451   1.329   2.769
  231SOL     OW  710   1.667   1.714   2.434
  231SOL    HW1  711   1.626   1.691   2.346
  231SOL    HW2  712   1.649   1.640   2.499
  232SOL     OW  713   0.598   0.729   2.132
  232SOL    HW1  714   0.622   0.798   2.064
  232SOL    HW2  715   0.520   0.762   2.186
  233SOL     OW  716   1.281   0.345   2.806
  233SOL    HW1  717   1.195   0.295   2.793
  233SOL    HW2  718   1.343   0.291   2.862
  234SOL     OW  719   1.576   1.662   2.169
  234SOL    HW1  720   1.665   1.708   2.172
  234SOL    HW2  721   1.555   1.638   2.074
  235SOL     OW  722   1.041   0.701   2.291
  235SOL    HW1  723   1.067   0.697   2.387
  235SOL    HW2  724   0.956   0.650   2.277
  236SOL     OW  725   0.076   0.811   2.651
  236SOL    HW1  726   0.175   0.799   2.660
  236SOL    HW2  727   0.052   0.906   2.672
  237SOL     OW  728   0.865   0.348   2.057
  237SOL    HW1  729   0.924   0.411   2.008
  237SOL    HW2  730   0.884   0.254   2.028
  238SOL     OW  731   1.362   1.144   2.407
  238SOL    HW1  732   1.445   1.115   2.359
  238SOL    HW2  733   1.313   1.211   2.351
  239SOL     OW  734   0.550   0.196   2.747
  239SOL    HW1  735   0.545   0.191   2.847
  239SOL    HW2  736   0.552   0.292   2.718
  240SOL     OW  737   1.008   1.456   2.339
  240SOL    HW1  738   0.962   1.528   2.287
  240SOL    HW2  739   1.004   1.476   2.437
  241SOL     OW  740   0.351   1.801   2.715
  241SOL    HW1  741   0.401   1.715   2.721
  241SOL    HW2  742   0.416   1.878   2.712
  242SOL     OW  743   1.795   1.066   2.735
  242SOL    HW1  744   1.733   1.051   2.659
  242SOL    HW2  745   1.743   1.077   2.820
  243SOL     OW  746   0.321   0.943   2.104
  243SOL    HW1  747   0.403   0.982   2.062
  243SOL    HW2  748   0.294   0.861   2.055
  244SOL     OW  749   1.458   0.735   2.590
  244SOL    HW1  750   1.453   0.670   2.665
  244SOL    HW2  751   1.538   0.794   2.603
  245SOL     OW  752   1.111   1.776   2.099
  245SOL    HW1  753   1.051   1.714   2.149
  245SOL    HW2  754   1.142   1.732   2.014
  246SOL     OW  755   1.632   1.377   1.943
  246SOL    HW1  756   1.600   1.471   1.933
  246SOL    HW2  757   1.556   1.314   1.931
  247SOL     OW  758   0.464   1.743   2.185
  247SOL    HW1  759   0.497   1.782   2.271
  247SOL    HW2  760   0.540   1.736   2.120
  248SOL     OW  761   1.400   0.107   2.288
  248SOL    HW1  762   1.376   0.070   2.198
  248SOL    HW2  763   1.499   0.123   2.292
  249SOL     OW  764   0.249   1.785   3.103
  249SOL    HW1  765   0.306   1.720   3.153
  249SOL    HW2  766   0.233   1.752   3.010
  250SOL     OW  767   0.940   1.698   2.766
  250SOL    HW1  768   1.020   1.641   2.787
  250SOL    HW2  769   0.891   1.658   2.689
  251SOL     OW  770   0.382   0.700   2.342
  251SOL    HW1  771   0.427   0.610   2.339
  251SOL    HW2  772   0.288   0.689   2.375
  252SOL     OW  773   0.614   0.122   1.979
  252SOL    HW1  774   0.712   0.100   1.986
  252SOL    HW2  775   0.583   0.105   1.886
  253SOL     OW  776   0.803   1.402   2.786
  253SOL    HW1  777   0.893   1.416   2.744
  253SOL    HW2  778   0.732   1.404   2.715
  254SOL     OW  779   0.922   0.503   2.761
  254SOL    HW1  780   0.897   0.494   2.665
  254SOL    HW2  781   0.970   0.421   2.792
  255SOL     OW  782   0.539   0.064   2.374
  255SOL    HW1  783   0.458   0.065   2.432
  255SOL    HW2  784   0.542   0.147   2.319
  256SOL     OW  785   1.434   1.188   1.903
  256SOL    HW1  786   1.466   1.112   1.960
  256SOL    HW2  787   1.342   1.215   1.933
  257SOL     OW  788   0.297   0.035   2.033
  257SOL    HW1  789   0.346   0.119   2.012
  257SOL    HW2  790   0.359  -0.030   2.078
  258SOL     OW  791   0.935   0.236   2.342
  258SOL    HW1  792   0.887   0.277   2.264
  258SOL    HW2  793   1.034   0.234   2.323
  259SOL     OW  794   1.227   1.570   2.655
  259SOL    HW1  795   1.248   1.644   2.590
  259SOL    HW2  796   1.295   1.570   2.728
  260SOL     OW  797   0.459   1.152   2.603
  260SOL    HW1  798   0.388   1.125   2.668
  260SOL    HW2  799   0.433   1.124   2.510
  261SOL     OW  800   1.271   1.797   2.453
  261SOL    HW1  801   1.315   1.861   2.389
  261SOL    HW2  802   1.221   1.849   2.523
  262SOL     OW  803   1.032   0.549   1.878
  262SOL    HW1  804   0.991   0.631   1.839
  262SOL    HW2  805   1.096   0.575   1.951
  263SOL     OW  806   0.866   0.454   2.504
  263SOL    HW1  807   0.834   0.526   2.442
  263SOL    HW2  808   0.890   0.373   2.451
  264SOL     OW  809   1.017   0.039   2.615
  264SOL    HW1  810   0.945   0.044   2.546
  264SOL    HW2  811   0.993  -0.030   2.684
  265SOL     OW  812   1.429   1.173   2.729
  265SOL    HW1  813   1.374   1.089   2.722
  265SOL    HW2  814   1.455   1.202   2.637
  266SOL     OW  815   1.466   0.590   2.854
  266SOL    HW1  816   1.436   0.495   2.861
  266SOL    HW2  817   1.539   0.606   2.920
  267SOL     OW  818   1.857   0.833   2.239
  267SOL    HW1  819   1.899   0.769   2.303
  267SOL    HW2  820   1.819   0.782   2.161
  268SOL     OW  821   0.488   1.385   2.036
  268SOL    HW1  822   0.401   1.370   2.083
  268SOL    HW2  823   0.471   1.411   1.941
  269SOL     OW  824   1.664   1.280   2.519
  269SOL    HW1  825   1.763   1.288   2.533
  269SOL    HW2  826   1.619   1.364   2.550
  270SOL     OW  827   1.390   0.575   1.940
  270SOL    HW1  828   1.336   0.554   2.021
  270SOL    HW2  829   1.481   0.534   1.949
  271SOL     OW  830   0.527   0.256   2.190
  271SOL    HW1  831   0.554   0.197   2.115
  271SOL    HW2  832   0.527   0.351   2.159
  272SOL     OW  833   1.638   1.099   2.941
  272SOL    HW1  834   1.643   1.180   3.000
  272SOL    HW2  835   1.552   1.101   2.890
  273SOL     OW  836   0.705   1.050   2.230
  273SOL    HW1  837   0.691   1.057   2.329
  273SOL    HW2  838   0.789   0.999   2.212
  274SOL     OW  839   0.367   1.100   2.363
  274SOL    HW1  840   0.360   1.183   2.307
  274SOL    HW2  841   0.371   1.020   2.303
  275SOL     OW  842   0.566   0.537   2.727
  275SOL    HW1  843   0.578   0.603   2.653
  275SOL    HW2  844   0.612   0.571   2.810
  276SOL     OW  845   1.252   1.348   2.250
  276SOL    HW1  846   1.302   1.425   2.290
  276SOL    HW2  847   1.157   1.350   2.282
  277SOL     OW  848   1.582   0.639   2.334
  277SOL    HW1  849   1.551   0.700   2.407
  277SOL    HW2  850   1.632   0.691   2.265
  278SOL     OW  851   0.573   0.870   2.891
  278SOL    HW1  852   0.617   0.959   2.882
  278SOL    HW2  853   0.510   0.870   2.968
  279SOL     OW  854   1.209   0.525   2.137
  279SOL    HW1  855   1.222   0.441   2.191
  279SOL    HW2  856   1.180   0.599   2.197
  280SOL     OW  857   0.732   0.634   2.926
  280SOL    HW1  858   0.791   0.608   2.850
  280SOL    HW2  859   0.704   0.730   2.915
  281SOL     OW  860   0.307   0.063   2.480
  281SOL    HW1  861   0.296   0.157   2.513
  281SOL    HW2  862   0.302   0.000   2.557
  282SOL     OW  863   1.622   0.367   2.236
  282SOL    HW1  864   1.624   0.291   2.300
  282SOL    HW2  865   1.574   0.444   2.276
  283SOL     OW  866   1.540   0.274   1.987
  283SOL    HW1  867   1.479   0.199   2.010
  283SOL    HW2  868   1.562   0.326   2.070
  284SOL     OW  869   1.303   0.838   1.904
  284SOL    HW1  870   1.337   0.745   1.919
  284SOL    HW2  871   1.321   0.865   1.809
  285SOL     OW  872   1.068   1.333   2.711
  285SOL    HW1  873   1.075   1.249   2.656
  285SOL    HW2  874   1.130   1.402   2.675
  286SOL     OW  875   0.319   0.810   2.811
  286SOL    HW1  876   0.412   0.846   2.816
  286SOL    HW2  877   0.313   0.725   2.863
  287SOL     OW  878   0.339   0.509   2.868
  287SOL    HW1  879   0.287   0.426   2.851
  287SOL    HW2  880   0.416   0.514   2.804
  288SOL     OW  881   0.008   1.326   2.062
  288SOL    HW1  882  -0.085   1.347   2.031
  288SOL    HW2  883   0.018   1.227   2.075
  289SOL     OW  884   0.088   1.801   2.789
  289SOL    HW1  885   0.046   1.715   2.762
  289SOL    HW2  886   0.182   1.804   2.755
  290SOL     OW  887   0.504   1.568   2.772
  290SOL    HW1  888   0.570   1.642   2.781
  290SOL    HW2  889   0.548   1.489   2.730
  291SOL     OW  890   0.815   0.572   2.187
  291SOL    HW1  891   0.822   0.483   2.141
  291SOL    HW2  892   0.721   0.606   2.179
  292SOL     OW  893   0.671   0.464   3.131
  292SOL    HW1  894   0.637   0.375   3.101
  292SOL    HW2  895   0.697   0.518   3.051
  293SOL     OW  896   0.473   0.500   2.053
  293SOL    HW1  897   0.534   0.580   2.057
  293SOL    HW2  898   0.378   0.531   2.060
  294SOL     OW  899   1.302   0.855   2.171
  294SOL    HW1  900   1.216   0.824   2.213
  294SOL    HW2  901   1.298   0.841   2.072
  295SOL     OW  902   1.759   1.747   3.016
  295SOL    HW1  903   1.820   1.777   2.943
  295SOL    HW2  904   1.721   1.658   2.994
  296SOL     OW  905   0.083   1.258   2.884
  296SOL    HW1  906   0.078   1.257   2.984
  296SOL    HW2  907   0.000   1.217   2.846
  297SOL     OW  908   1.726   0.135   2.385
  297SOL    HW1  909   1.799   0.118   2.318
  297SOL    HW2  910   1.695   0.048   2.423
  298SOL     OW  911   1.388   1.573   2.339
  298SOL    HW1  912   1.455   1.585   2.265
  298SOL    HW2  913   1.348   1.662   2.362
  299SOL     OW  914   1.280   0.927   2.534
  299SOL    HW1  915   1.340   0.846   2.536
  299SOL    HW2  916   1.320   0.996   2.474
  300SOL     OW  917   0.672   1.616   2.016
  300SOL    HW1  918   0.681   1.626   1.917
  300SOL    HW2  919   0.632   1.527   2.037
  301SOL     OW  920   1.841   0.175   2.825
  301SOL    HW1  921   1.880   0.090   2.789
  301SOL    HW2  922   1.743   0.177   2.806
  302SOL     OW  923   0.263   0.326   2.582
  302SOL    HW1  924   0.184   0.377   2.548
  302SOL    HW2  925   0.254   0.311   2.680
  303SOL     OW  926   1.194   1.612   1.893
  303SOL    HW1  927   1.200   1.519   1.930
  303SOL    HW2  928   1.135   1.612   1.813
  304SOL     OW  929   0.916   0.910   2.153
  304SOL    HW1  930   0.979   0.948   2.085
  304SOL    HW2  931   0.956   0.827   2.192
  305SOL     OW  932   1.504   1.607   1.906
  305SOL    HW1  933   1.412   1.644   1.913
  305SOL    HW2  934   1.542   1.627   1.816
  306SOL     OW  935   1.039   1.098   2.558
  306SOL    HW1  936   0.969   1.051   2.612
  306SOL    HW2  937   1.098   1.030   2.515
  307SOL     OW  938   0.590   1.487   2.353
  307SOL    HW1  939   0.632   1.429   2.283
  307SOL    HW2  940   0.546   1.566   2.309
  308SOL     OW  941   0.255   1.348   2.152
  308SOL    HW1  942   0.159   1.349   2.125
  308SOL    HW2  943   0.267   1.401   2.236
  309SOL     OW  944   0.075   0.345   1.895
  309SOL    HW1  945  -0.017   0.317   1.866
  309SOL    HW2  946   0.106   0.422   1.839
  310SOL     OW  947   0.072   0.166   2.180
  310SOL    HW1  948   0.055   0.249   2.126
  310SOL    HW2  949   0.162   0.129   2.158
  311SOL     OW  950   1.183   1.335   1.981
  311SOL    HW1  951   1.084   1.324   1.983
  311SOL    HW2  952   1.217   1.350   2.074
  312SOL     OW  953   1.674   0.883   3.116
  312SOL    HW1  954   1.647   0.794   3.079
  312SOL    HW2  955   1.675   0.951   3.043
  313SOL     OW  956   1.225   0.325   2.311
  313SOL    HW1  957   1.290   0.251   2.300
  313SOL    HW2  958   1.245   0.375   2.395
  314SOL     OW  959   0.594   0.745   2.514
  314SOL    HW1  960   0.644   0.830   2.495
  314SOL    HW2  961   0.506   0.747   2.466
  315SOL     OW  962   0.859   1.374   1.878
  315SOL    HW1  963   0.813   1.389   1.966
  315SOL    HW2  964   0.903   1.459   1.848
  316SOL     OW  965   0.661   1.790   2.815
  316SOL    HW1  966   0.615   1.878   2.802
  316SOL    HW2  967   0.760   1.802   2.808
  317SOL     OW  968   0.859   0.956   2.723
  317SOL    HW1  969   0.913   0.887   2.771
  317SOL    HW2  970   0.827   1.025   2.789
  318SOL     OW  971   1.083   0.984   1.949
  318SOL    HW1  972   1.060   1.037   1.867
  318SOL    HW2  973   1.164   0.928   1.930
  319SOL     OW  974   1.861   1.569   2.713
  319SOL    HW1  975   1.790   1.557   2.643
  319SOL    HW2  976   1.862   1.490   2.773
  320SOL     OW  977   0.079   1.240   2.515
  320SOL    HW1  978   0.078   1.193   2.603
  320SOL    HW2  979   0.161   1.212   2.464
  321SOL     OW  980   1.824   0.192   3.089
  321SOL    HW1  981   1.820   0.102   3.133
  321SOL    HW2  982   1.827   0.181   2.990
  322SOL     OW  983   0.428   0.424   2.382
  322SOL    HW1  984   0.458   0.352   2.320
  322SOL    HW2  985   0.389   0.384   2.465
  323SOL     OW  986   0.812   1.586   2.549
  323SOL    HW1  987   0.844   1.596   2.455
  323SOL    HW2  988   0.733   1.524   2.551
  324SOL     OW  989   0.770   1.330   2.163
  324SOL    HW1  990   0.724   1.243   2.180
  324SOL    HW2  991   0.861   1.327   2.204
  325SOL     OW  992   1.352   0.052   2.030
  325SOL    HW1  993   1.387   0.011   1.946
  325SOL    HW2  994   1.262   0.014   2.050
  326SOL     OW  995   1.300   0.453   2.553
  326SOL    HW1  996   1.241   0.533   2.557
  326SOL    HW2  997   1.315   0.418   2.646
  327SOL     OW  998   1.593   0.221   2.744
  327SOL    HW1  999   1.509   0.220   2.798
  327SOL    HW2 1000   1.595   0.304   2.688
  328SOL     OW 1001   0.039   1.077   2.162
  328SOL    HW1 1002   0.138   1.066   2.153
  328SOL    HW2 1003  -0.001   0.991   2.194
  329SOL     OW 1004   0.875   1.646   2.199
  329SOL    HW1 1005   0.798   1.611   2.145
  329SOL    HW2 1006   0.843   1.717   2.261
  330SOL     OW 1007   0.230   2.490   0.113
  330SOL    HW1 1008   0.137   2.488   0.150
  330SOL    HW2 1009   0.231   2.451   0.021
  331SOL     OW 1010   0.225   2.137   0.996
  331SOL    HW1 1011   0.260   2.120   1.088
  331SOL    HW2 1012   0.137   2.092   0.984
  332SOL     OW 1013   0.019   2.230   0.647
  332SOL    HW1 1014  -0.063   2.273   0.686
  332SOL    HW2 1015  -0.009   2.157   0.584
  333SOL     OW 1016   1.135   2.565   0.717
  333SOL    HW1 1017   1.192   2.643   0.692
  333SOL    HW2 1018   1.075   2.591   0.793
  334SOL     OW 1019   1.755   2.469   0.231
  334SOL    HW1 1020   1.743   2.456   0.132
  334SOL    HW2 1021   1.725   2.388   0.280
  335SOL     OW 1022   0.768   3.006   1.023
  335SOL    HW1 1023   0.690   3.023   1.083
  335SOL    HW2 1024   0.802   3.093   0.987
  336SOL     OW 1025   0.850   2.660   1.823
  336SOL    HW1 1026   0.846   2.736   1.888
  336SOL    HW2 1027   0.872   2.696   1.732
  337SOL     OW 1028   0.685   2.874   0.665
  337SOL    HW1 1029   0.754   2.858   0.735
  337SOL    HW2 1030   0.612   2.931   0.703
  338SOL     OW 1031   0.438   2.254   1.499
  338SOL    HW1 1032   0.520   2.198   1.508
  338SOL    HW2 1033   0.357   2.196   1.503
  339SOL     OW 1034   1.603   2.309   0.737
  339SOL    HW1 1035   1.529   2.355   0.687
  339SOL    HW2 1036   1.654   2.377   0.790
  340SOL     OW 1037   0.240   2.953   0.886
  340SOL    HW1 1038   0.254   2.869   0.938
  340SOL    HW2 1039   0.185   3.017   0.941
  341SOL     OW 1040   0.606   2.826   0.123
  341SOL    HW1 1041   0.613   2.910   0.069
  341SOL    HW2 1042   0.652   2.839   0.211
  342SOL     OW 1043   1.594   1.976   1.480
  342SOL    HW1 1044   1.576   2.043   1.408
  342SOL    HW2 1045   1.591   2.022   1.569
  343SOL     OW 1046   0.122   2.505   0.563
  343SOL    HW1 1047   0.077   2.417   0.580
  343SOL    HW2 1048   0.121   2.559   0.647
  344SOL     OW 1049   1.689   2.784   0.612
  344SOL    HW1 1050   1.784   2.755   0.620
  344SOL    HW2 1051   1.681   2.849   0.537
  345SOL     OW 1052   0.113   2.599   1.597
  345SOL    HW1 1053   0.201   2.586   1.642
  345SOL    HW2 1054   0.100   2.696   1.575
  346SOL     OW 1055   0.809   1.866   0.502
  346SOL    HW1 1056   0.849   1.957   0.493
  346SOL    HW2 1057   0.709   1.874   0.508
  347SOL     OW 1058   0.197   2.838   1.264
  347SOL    HW1 1059   0.286   2.793   1.250
  347SOL    HW2 1060   0.124   2.773   1.245
  348SOL     OW 1061   1.525   2.861   0.190
  348SOL    HW1 1062   1.462   2.785   0.203
  348SOL    HW2 1063   1.573   2.879   0.276
  349SOL     OW 1064   0.317   2.113   1.801
  349SOL    HW1 1065   0.388   2.184   1.807
  349SOL    HW2 1066   0.229   2.152   1.829
  350SOL     OW 1067   0.598   2.591   0.270
  350SOL    HW1 1068   0.622   2.660   0.202
  350SOL    HW2 1069   0.520   2.624   0.324
  351SOL     OW 1070   1.281   2.207   0.944
  351SOL    HW1 1071   1.195   2.157   0.931
  351SOL    HW2 1072   1.343   2.153   1.000
  352SOL     OW 1073   0.807   2.467   1.465
  352SOL    HW1 1074   0.760   2.464   1.554
  352SOL    HW2 1075   0.756   2.412   1.399
  353SOL     OW 1076   1.394   2.331   1.674
  353SOL    HW1 1077   1.374   2.374   1.762
  353SOL    HW2 1078   1.472   2.269   1.683
  354SOL     OW 1079   0.973   2.752   1.572
  354SOL    HW1 1080   1.019   2.668   1.543
  354SOL    HW2 1081   0.917   2.786   1.497
  355SOL     OW 1082   0.991   2.272   1.242
  355SOL    HW1 1083   0.914   2.306   1.296
  355SOL    HW2 1084   0.957   2.221   1.163
  356SOL     OW 1085   1.041   2.563   0.429
  356SOL    HW1 1086   1.067   2.559   0.525
  356SOL    HW2 1087   0.956   2.512   0.415
  357SOL     OW 1088   0.076   2.673   0.789
  357SOL    HW1 1089   0.175   2.661   0.798
  357SOL    HW2 1090   0.052   2.768   0.810
  358SOL     OW 1091   0.865   2.210   0.195
  358SOL    HW1 1092   0.924   2.273   0.146
  358SOL    HW2 1093   0.884   2.116   0.166
  359SOL     OW 1094   1.719   2.447   1.831
  359SOL    HW1 1095   1.693   2.536   1.795
  359SOL    HW2 1096   1.717   2.379   1.758
  360SOL     OW 1097   0.550   2.058   0.885
  360SOL    HW1 1098   0.545   2.053   0.985
  360SOL    HW2 1099   0.552   2.154   0.856
  361SOL     OW 1100   1.458   2.597   0.728
  361SOL    HW1 1101   1.453   2.532   0.803
  361SOL    HW2 1102   1.538   2.656   0.741
  362SOL     OW 1103   0.202   2.147   1.498
  362SOL    HW1 1104   0.122   2.207   1.485
  362SOL    HW2 1105   0.192   2.098   1.584
  363SOL     OW 1106   1.400   1.969   0.426
  363SOL    HW1 1107   1.376   1.932   0.336
  363SOL    HW2 1108   1.499   1.985   0.430
  364SOL     OW 1109   0.382   2.562   0.480
  364SOL    HW1 1110   0.427   2.472   0.477
  364SOL    HW2 1111   0.288   2.551   0.513
  365SOL     OW 1112   1.547   2.084   1.729
  365SOL    HW1 1113   1.542   2.121   1.821
  365SOL    HW2 1114   1.475   2.015   1.717
  366SOL     OW 1115   0.614   1.984   0.117
  366SOL    HW1 1116   0.712   1.962   0.124
  366SOL    HW2 1117   0.583   1.967   0.024
  367SOL     OW 1118   0.781   2.126   1.749
  367SOL    HW1 1119   0.848   2.065   1.792
  367SOL    HW2 1120   0.708   2.145   1.814
  368SOL     OW 1121   1.351   2.452   1.433
  368SOL    HW1 1122   1.379   2.409   1.518
  368SOL    HW2 1123   1.376   2.548   1.434
  369SOL     OW 1124   0.922   2.365   0.899
  369SOL    HW1 1125   0.897   2.356   0.803
  369SOL    HW2 1126   0.970   2.283   0.930
  370SOL     OW 1127   0.539   1.926   0.512
  370SOL    HW1 1128   0.458   1.927   0.570
  370SOL    HW2 1129   0.542   2.009   0.457
  371SOL     OW 1130   0.935   2.098   0.480
  371SOL    HW1 1131   0.887   2.139   0.402
  371SOL    HW2 1132   1.034   2.096   0.461
  372SOL     OW 1133   1.076   2.545   1.464
  372SOL    HW1 1134   0.996   2.484   1.467
  372SOL    HW2 1135   1.157   2.492   1.440
  373SOL     OW 1136   1.032   2.411   0.016
  373SOL    HW1 1137   0.991   2.493  -0.023
  373SOL    HW2 1138   1.096   2.437   0.089
  374SOL     OW 1139   0.078   2.418   1.386
  374SOL    HW1 1140   0.170   2.417   1.345
  374SOL    HW2 1141   0.072   2.492   1.453
  375SOL     OW 1142   0.561   2.084   1.147
  375SOL    HW1 1143   0.599   2.000   1.184
  375SOL    HW2 1144   0.473   2.103   1.191
  376SOL     OW 1145   0.866   2.316   0.642
  376SOL    HW1 1146   0.834   2.388   0.580
  376SOL    HW2 1147   0.890   2.235   0.589
  377SOL     OW 1148   1.017   1.901   0.753
  377SOL    HW1 1149   0.945   1.906   0.684
  377SOL    HW2 1150   0.993   1.832   0.822
  378SOL     OW 1151   1.429   3.035   0.867
  378SOL    HW1 1152   1.374   2.951   0.860
  378SOL    HW2 1153   1.455   3.064   0.775
  379SOL     OW 1154   1.466   2.452   0.992
  379SOL    HW1 1155   1.436   2.357   0.999
  379SOL    HW2 1156   1.539   2.468   1.058
  380SOL     OW 1157   1.857   2.695   0.377
  380SOL    HW1 1158   1.899   2.631   0.441
  380SOL    HW2 1159   1.819   2.644   0.299
  381SOL     OW 1160   1.390   2.437   0.078
  381SOL    HW1 1161   1.336   2.416   0.159
  381SOL    HW2 1162   1.481   2.396   0.087
  382SOL     OW 1163   0.527   2.118   0.328
  382SOL    HW1 1164   0.554   2.059   0.253
  382SOL    HW2 1165   0.527   2.213   0.297
  383SOL     OW 1166   1.638   2.961   1.079
  383SOL    HW1 1167   1.643   3.042   1.138
  383SOL    HW2 1168   1.552   2.963   1.028
  384SOL     OW 1169   0.915   1.951   1.402
  384SOL    HW1 1170   0.940   1.931   1.307
  384SOL    HW2 1171   0.987   2.007   1.444
  385SOL     OW 1172   0.410   2.675   1.251
  385SOL    HW1 1173   0.496   2.687   1.301
  385SOL    HW2 1174   0.368   2.588   1.278
  386SOL     OW 1175   1.274   2.248   1.262
  386SOL    HW1 1176   1.295   2.322   1.326
  386SOL    HW2 1177   1.185   2.265   1.219
  387SOL     OW 1178   0.566   2.399   0.865
  387SOL    HW1 1179   0.578   2.465   0.791
  387SOL    HW2 1180   0.612   2.433   0.948
  388SOL     OW 1181   1.582   2.501   0.472
  388SOL    HW1 1182   1.551   2.562   0.545
  388SOL    HW2 1183   1.632   2.553   0.403
  389SOL     OW 1184   0.402   2.613   1.598
  389SOL    HW1 1185   0.470   2.668   1.551
  389SOL    HW2 1186   0.442   2.525   1.625
  390SOL     OW 1187   1.587   2.641   1.670
  390SOL    HW1 1188   1.495   2.679   1.665
  390SOL    HW2 1189   1.647   2.688   1.605
  391SOL     OW 1190   1.013   1.967   1.770
  391SOL    HW1 1191   1.019   2.052   1.718
  391SOL    HW2 1192   1.045   1.891   1.713
  392SOL     OW 1193   0.504   1.912   1.740
  392SOL    HW1 1194   0.462   1.855   1.670
  392SOL    HW2 1195   0.438   1.981   1.772
  393SOL     OW 1196   0.573   2.732   1.029
  393SOL    HW1 1197   0.617   2.821   1.020
  393SOL    HW2 1198   0.510   2.732   1.106
  394SOL     OW 1199   1.360   2.724   1.045
  394SOL    HW1 1200   1.285   2.724   0.979
  394SOL    HW2 1201   1.397   2.632   1.054
  395SOL     OW 1202   1.209   2.387   0.275
  395SOL    HW1 1203   1.222   2.303   0.329
  395SOL    HW2 1204   1.180   2.461   0.335
  396SOL     OW 1205   0.307   2.075   1.231
  396SOL    HW1 1206   0.284   2.112   1.321
  396SOL    HW2 1207   0.277   1.980   1.225
  397SOL     OW 1208   0.037   3.172   1.282
  397SOL    HW1 1209   0.090   3.123   1.350
  397SOL    HW2 1210   0.059   3.270   1.287
  398SOL     OW 1211   0.732   2.496   1.064
  398SOL    HW1 1212   0.791   2.470   0.988
  398SOL    HW2 1213   0.704   2.592   1.053
  399SOL     OW 1214   1.728   2.797   1.854
  399SOL    HW1 1215   1.682   2.790   1.765
  399SOL    HW2 1216   1.666   2.841   1.920
  400SOL     OW 1217   0.307   1.925   0.618
  400SOL    HW1 1218   0.296   2.019   0.651
  400SOL    HW2 1219   0.302   1.862   0.695
  401SOL     OW 1220   1.622   2.229   0.374
  401SOL    HW1 1221   1.624   2.153   0.438
  401SOL    HW2 1222   1.574   2.306   0.414
  402SOL     OW 1223   1.023   2.628   0.966
  402SOL    HW1 1224   1.038   2.649   1.062
  402SOL    HW2 1225   0.993   2.533   0.957
  403SOL     OW 1226   0.350   2.760   1.804
  403SOL    HW1 1227   0.426   2.804   1.852
  403SOL    HW2 1228   0.385   2.713   1.722
  404SOL     OW 1229   1.540   2.136   0.125
  404SOL    HW1 1230   1.479   2.061   0.148
  404SOL    HW2 1231   1.562   2.188   0.208
  405SOL     OW 1232   1.303   2.700   0.042
  405SOL    HW1 1233   1.337   2.607   0.057
  405SOL    HW2 1234   1.321   2.727  -0.053
  406SOL     OW 1235   0.319   2.672   0.949
  406SOL    HW1 1236   0.412   2.708   0.954
  406SOL    HW2 1237   0.313   2.587   1.001
  407SOL     OW 1238   0.339   2.371   1.006
  407SOL    HW1 1239   0.287   2.288   0.989
  407SOL    HW2 1240   0.416   2.376   0.942
  408SOL     OW 1241   1.138   2.242   1.678
  408SOL    HW1 1242   1.093   2.305   1.742
  408SOL    HW2 1243   1.231   2.273   1.661
  409SOL     OW 1244   1.160   2.069   1.477
  409SOL    HW1 1245   1.160   2.133   1.554
  409SOL    HW2 1246   1.188   2.117   1.394
  410SOL     OW 1247   1.002   2.658   1.238
  410SOL    HW1 1248   1.043   2.626   1.324
  410SOL    HW2 1249   0.906   2.631   1.235
  411SOL     OW 1250   0.040   2.406   1.114
  411SOL    HW1 1251   0.125   2.373   1.073
  411SOL    HW2 1252   0.053   2.421   1.212
  412SOL     OW 1253   0.189   2.382   1.722
  412SOL    HW1 1254   0.248   2.342   1.652
  412SOL    HW2 1255   0.131   2.453   1.681
  413SOL     OW 1256   1.369   2.812   1.660
  413SOL    HW1 1257   1.408   2.901   1.680
  413SOL    HW2 1258   1.379   2.792   1.563
  414SOL     OW 1259   0.815   2.434   0.325
  414SOL    HW1 1260   0.822   2.345   0.279
  414SOL    HW2 1261   0.721   2.468   0.317
  415SOL     OW 1262   1.657   2.466   1.206
  415SOL    HW1 1263   1.619   2.397   1.268
  415SOL    HW2 1264   1.739   2.430   1.162
  416SOL     OW 1265   0.671   2.326   1.269
  416SOL    HW1 1266   0.637   2.237   1.239
  416SOL    HW2 1267   0.697   2.380   1.189
  417SOL     OW 1268   0.473   2.362   0.191
  417SOL    HW1 1269   0.534   2.442   0.195
  417SOL    HW2 1270   0.378   2.393   0.198
  418SOL     OW 1271   0.159   2.999   1.466
  418SOL    HW1 1272   0.181   2.938   1.542
  418SOL    HW2 1273   0.169   2.950   1.380
  419SOL     OW 1274   1.347   2.921   1.234
  419SOL    HW1 1275   1.371   2.858   1.160
  419SOL    HW2 1276   1.257   2.961   1.216
  420SOL     OW 1277   1.302   2.717   0.309
  420SOL    HW1 1278   1.216   2.686   0.351
  420SOL    HW2 1279   1.298   2.703   0.210
  421SOL     OW 1280   0.903   1.948   0.133
  421SOL    HW1 1281   0.954   1.949   0.047
  421SOL    HW2 1282   0.959   1.906   0.204
  422SOL     OW 1283   1.726   1.997   0.523
  422SOL    HW1 1284   1.799   1.980   0.456
  422SOL    HW2 1285   1.695   1.910   0.561
  423SOL     OW 1286   1.280   2.789   0.672
  423SOL    HW1 1287   1.340   2.708   0.674
  423SOL    HW2 1288   1.320   2.858   0.612
  424SOL     OW 1289   1.841   2.037   0.963
  424SOL    HW1 1290   1.880   1.952   0.927
  424SOL    HW2 1291   1.743   2.039   0.944
  425SOL     OW 1292   0.263   2.188   0.720
  425SOL    HW1 1293   0.184   2.239   0.686
  425SOL    HW2 1294   0.254   2.173   0.818
  426SOL     OW 1295   0.916   2.772   0.291
  426SOL    HW1 1296   0.979   2.810   0.223
  426SOL    HW2 1297   0.956   2.689   0.330
  427SOL     OW 1298   1.014   2.098   0.971
  427SOL    HW1 1299   1.006   2.062   0.878
  427SOL    HW2 1300   1.012   2.022   1.036
  428SOL     OW 1301   1.709   2.247   1.381
  428SOL    HW1 1302   1.782   2.316   1.385
  428SOL    HW2 1303   1.737   2.172   1.322
  429SOL     OW 1304   0.105   2.875   1.726
  429SOL    HW1 1305   0.028   2.842   1.780
  429SOL    HW2 1306   0.190   2.845   1.768
  430SOL     OW 1307   0.672   2.065   1.489
  430SOL    HW1 1308   0.762   2.049   1.449
  430SOL    HW2 1309   0.680   2.070   1.588
  431SOL     OW 1310   0.075   2.207   0.033
  431SOL    HW1 1311  -0.017   2.179   0.004
  431SOL    HW2 1312   0.106   2.284  -0.023
  432SOL     OW 1313   1.440   2.718   1.398
  432SOL    HW1 1314   1.383   2.770   1.335
  432SOL    HW2 1315   1.536   2.730   1.374
  433SOL     OW 1316   0.072   2.028   0.318
  433SOL    HW1 1317   0.055   2.111   0.264
  433SOL    HW2 1318   0.162   1.991   0.296
  434SOL     OW 1319   1.183   3.197   0.119
  434SOL    HW1 1320   1.084   3.186   0.121
  434SOL    HW2 1321   1.217   3.212   0.212
  435SOL     OW 1322   0.613   2.704   1.431
  435SOL    HW1 1323   0.669   2.785   1.414
  435SOL    HW2 1324   0.672   2.624   1.434
  436SOL     OW 1325   0.716   2.427   1.708
  436SOL    HW1 1326   0.735   2.492   1.782
  436SOL    HW2 1327   0.776   2.347   1.717
  437SOL     OW 1328   1.674   2.745   1.254
  437SOL    HW1 1329   1.647   2.656   1.217
  437SOL    HW2 1330   1.675   2.813   1.181
  438SOL     OW 1331   1.225   2.187   0.449
  438SOL    HW1 1332   1.290   2.113   0.438
  438SOL    HW2 1333   1.245   2.237   0.533
  439SOL     OW 1334   0.594   2.607   0.652
  439SOL    HW1 1335   0.644   2.692   0.633
  439SOL    HW2 1336   0.506   2.609   0.604
  440SOL     OW 1337   1.777   2.204   1.642
  440SOL    HW1 1338   1.760   2.235   1.548
  440SOL    HW2 1339   1.693   2.167   1.680
  441SOL     OW 1340   1.730   2.796   1.517
  441SOL    HW1 1341   1.768   2.887   1.532
  441SOL    HW2 1342   1.722   2.779   1.418
  442SOL     OW 1343   0.859   2.818   0.861
  442SOL    HW1 1344   0.913   2.749   0.909
  442SOL    HW2 1345   0.827   2.887   0.927
  443SOL     OW 1346   1.083   2.846   0.087
  443SOL    HW1 1347   1.060   2.899   0.005
  443SOL    HW2 1348   1.164   2.790   0.068
  444SOL     OW 1349   0.079   3.102   0.653
  444SOL    HW1 1350   0.078   3.055   0.741
  444SOL    HW2 1351   0.161   3.074   0.602
  445SOL     OW 1352   1.824   2.054   1.227
  445SOL    HW1 1353   1.820   1.964   1.271
  445SOL    HW2 1354   1.827   2.043   1.128
  446SOL     OW 1355   0.428   2.286   0.520
  446SOL    HW1 1356   0.458   2.214   0.458
  446SOL    HW2 1357   0.389   2.246   0.603
  447SOL     OW 1358   0.317   2.409   1.280
  447SOL    HW1 1359   0.355   2.350   1.352
  447SOL    HW2 1360   0.357   2.383   1.192
  448SOL     OW 1361   1.424   2.076   1.112
  448SOL    HW1 1362   1.476   2.011   1.167
  448SOL    HW2 1363   1.375   2.139   1.173
  449SOL     OW 1364   1.001   1.896   1.154
  449SOL    HW1 1365   0.938   1.824   1.123
  449SOL    HW2 1366   1.094   1.860   1.154
  450SOL     OW 1367   1.352   1.914   0.168
  450SOL    HW1 1368   1.387   1.873   0.084
  450SOL    HW2 1369   1.262   1.876   0.188
  451SOL     OW 1370   1.300   2.315   0.691
  451SOL    HW1 1371   1.241   2.395   0.695
  451SOL    HW2 1372   1.315   2.280   0.784
  452SOL     OW 1373   1.593   2.083   0.882
  452SOL    HW1 1374   1.509   2.082   0.936
  452SOL    HW2 1375   1.595   2.166   0.826
  453SOL     OW 1376   0.230   2.490   1.975
  453SOL    HW1 1377   0.137   2.488   2.012
  453SOL    HW2 1378   0.231   2.451   1.883
  454SOL     OW 1379   0.225   2.137   2.858
  454SOL    HW1 1380   0.260   2.120   2.950
  454SOL    HW2 1381   0.137   2.092   2.846
  455SOL     OW 1382   0.019   2.230   2.509
  455SOL    HW1 1383  -0.063   2.273   2.548
  455SOL    HW2 1384  -0.009   2.157   2.446
  456SOL     OW 1385   1.135   2.565   2.579
  456SOL    HW1 1386   1.192   2.643   2.554
  456SOL    HW2 1387   1.075   2.591   2.655
  457SOL     OW 1388   1.755   2.469   2.093
  457SOL    HW1 1389   1.743   2.456   1.994
  457SOL    HW2 1390   1.725   2.388   2.142
  458SOL     OW 1391   0.685   2.874   2.527
  458SOL    HW1 1392   0.754   2.858   2.597
  458SOL    HW2 1393   0.612   2.931   2.565
  459SOL     OW 1394   1.603   2.309   2.599
  459SOL    HW1 1395   1.529   2.355   2.549
  459SOL    HW2 1396   1.654   2.377   2.652
  460SOL     OW 1397   0.240   2.953   2.748
  460SOL    HW1 1398   0.254   2.869   2.800
  460SOL    HW2 1399   0.185   3.017   2.803
  461SOL     OW 1400   0.606   2.826   1.985
  461SOL    HW1 1401   0.613   2.910   1.931
  461SOL    HW2 1402   0.652   2.839   2.073
  462SOL     OW 1403   0.122   2.505   2.425
  462SOL    HW1 1404   0.077   2.417   2.442
  462SOL    HW2 1405   0.121   2.559   2.509
  463SOL     OW 1406   1.689   2.784   2.474
  463SOL    HW1 1407   1.784   2.755   2.482
  463SOL    HW2 1408   1.681   2.849   2.399
  464SOL     OW 1409   0.809   1.866   2.364
  464SOL    HW1 1410   0.849   1.957   2.355
  464SOL    HW2 1411   0.709   1.874   2.370
  465SOL     OW 1412   1.525   2.861   2.052
  465SOL    HW1 1413   1.462   2.785   2.065
  465SOL    HW2 1414   1.573   2.879   2.138
  466SOL     OW 1415   0.598   2.591   2.132
  466SOL    HW1 1416   0.622   2.660   2.064
  466SOL    HW2 1417   0.520   2.624   2.186
  467SOL     OW 1418   1.281   2.207   2.806
  467SOL    HW1 1419   1.195   2.157   2.793
  467SOL    HW2 1420   1.343   2.153   2.862
  468SOL     OW 1421   1.041   2.563   2.291
  468SOL    HW1 1422   1.067   2.559   2.387
  468SOL    HW2 1423   0.956   2.512   2.277
  469SOL     OW 1424   0.076   2.673   2.651
  469SOL    HW1 1425   0.175   2.661   2.660
  469SOL    HW2 1426   0.052   2.768   2.672
  470SOL     OW 1427   0.865   2.210   2.057
  470SOL    HW1 1428   0.924   2.273   2.008
  470SOL    HW2 1429   0.884   2.116   2.028
  471SOL     OW 1430   0.550   2.058   2.747
  471SOL    HW1 1431   0.545   2.053   2.847
  471SOL    HW2 1432   0.552   2.154   2.718
  472SOL     OW 1433   1.458   2.597   2.590
  472SOL    HW1 1434   1.453   2.532   2.665
  472SOL    HW2 1435   1.538   2.656   2.603
  473SOL     OW 1436   1.400   1.969   2.288
  473SOL    HW1 1437   1.376   1.932   2.198
  473SOL    HW2 1438   1.499   1.985   2.292
  474SOL     OW 1439   0.382   2.562   2.342
  474SOL    HW1 1440   0.427   2.472   2.339
  474SOL    HW2 1441   0.288   2.551   2.375
  475SOL     OW 1442   0.614   1.984   1.979
  475SOL    HW1 1443   0.712   1.962   1.986
  475SOL    HW2 1444   0.583   1.967   1.886
  476SOL     OW 1445   0.922   2.365   2.761
  476SOL    HW1 1446   0.897   2.356   2.665
  476SOL    HW2 1447   0.970   2.283   2.792
  477SOL     OW 1448   0.539   1.926   2.374
  477SOL    HW1 1449   0.458   1.927   2.432
  477SOL    HW2 1450   0.542   2.009   2.319
  478SOL     OW 1451   0.297   1.897   2.033
  478SOL    HW1 1452   0.346   1.981   2.012
  478SOL    HW2 1453   0.359   1.832   2.078
  479SOL     OW 1454   0.935   2.098   2.342
  479SOL    HW1 1455   0.887   2.139   2.264
  479SOL    HW2 1456   1.034   2.096   2.323
  480SOL     OW 1457   1.032   2.411   1.878
  480SOL    HW1 1458   0.991   2.493   1.839
  480SOL    HW2 1459   1.096   2.437   1.951
  481SOL     OW 1460   0.866   2.316   2.504
  481SOL    HW1 1461   0.834   2.388   2.442
  481SOL    HW2 1462   0.890   2.235   2.451
  482SOL     OW 1463   1.017   1.901   2.615
  482SOL    HW1 1464   0.945   1.906   2.546
  482SOL    HW2 1465   0.993   1.832   2.684
  483SOL     OW 1466   1.429   3.035   2.729
  483SOL    HW1 1467   1.374   2.951   2.722
  483SOL    HW2 1468   1.455   3.064   2.637
  484SOL     OW 1469   1.466   2.452   2.854
  484SOL    HW1 1470   1.436   2.357   2.861
  484SOL    HW2 1471   1.539   2.468   2.920
  485SOL     OW 1472   1.857   2.695   2.239
  485SOL    HW1 1473   1.899   2.631   2.303
  485SOL    HW2 1474   1.819   2.644   2.161
  486SOL     OW 1475   1.390   2.437   1.940
  486SOL    HW1 1476   1.336   2.416   2.021
  486SOL    HW2 1477   1.481   2.396   1.949
  487SOL     OW 1478   0.527   2.118   2.190
  487SOL    HW1 1479   0.554   2.059   2.115
  487SOL    HW2 1480   0.527   2.213   2.159
  488SOL     OW 1481   1.638   2.961   2.941
  488SOL    HW1 1482   1.643   3.042   3.000
  488SOL    HW2 1483   1.552   2.963   2.890
  489SOL     OW 1484   0.566   2.399   2.727
  489SOL    HW1 1485   0.578   2.465   2.653
  489SOL    HW2 1486   0.612   2.433   2.810
  490SOL     OW 1487   1.582   2.501   2.334
  490SOL    HW1 1488   1.551   2.562   2.407
  490SOL    HW2 1489   1.632   2.553   2.265
  491SOL     OW 1490   0.573   2.732   2.891
  491SOL    HW1 1491   0.617   2.821   2.882
  491SOL    HW2 1492   0.510   2.732   2.968
  492SOL     OW 1493   1.209   2.387   2.137
  492SOL    HW1 1494   1.222   2.303   2.191
  492SOL    HW2 1495   1.180   2.461   2.197
  493SOL     OW 1496   0.307   2.075   3.093
  493SOL    HW1 1497   0.284   2.112   3.183
  493SOL    HW2 1498   0.277   1.980   3.087
  494SOL     OW 1499   0.732   2.496   2.926
  494SOL    HW1 1500   0.791   2.470   2.850
  494SOL    HW2 1501   0.704   2.592   2.915
  495SOL     OW 1502   0.307   1.925   2.480
  495SOL    HW1 1503   0.296   2.019   2.513
  495SOL    HW2 1504   0.302   1.862   2.557
  496SOL     OW 1505   1.622   2.229   2.236
  496SOL    HW1 1506   1.624   2.153   2.300
  496SOL    HW2 1507   1.574   2.306   2.276
  497SOL     OW 1508   1.540   2.136   1.987
  497SOL    HW1 1509   1.479   2.061   2.010
  497SOL    HW2 1510   1.562   2.188   2.070
  498SOL     OW 1511   1.303   2.700   1.904
  498SOL    HW1 1512   1.337   2.607   1.919
  498SOL    HW2 1513   1.321   2.727   1.809
  499SOL     OW 1514   0.319   2.672   2.811
  499SOL    HW1 1515   0.412   2.708   2.816
  499SOL    HW2 1516   0.313   2.587   2.863
  500SOL     OW 1517   0.339   2.371   2.868
  500SOL    HW1 1518   0.287   2.288   2.851
  500SOL    HW2 1519   0.416   2.376   2.804
  501SOL     OW 1520   0.815   2.434   2.187
  501SOL    HW1 1521   0.822   2.345   2.141
  501SOL    HW2 1522   0.721   2.468   2.179
  502SOL     OW 1523   0.671   2.326   3.131
  502SOL    HW1 1524   0.637   2.237   3.101
  502SOL    HW2 1525   0.697   2.380   3.051
  503SOL     OW 1526   0.473   2.362   2.053
  503SOL    HW1 1527   0.534   2.442   2.057
  503SOL    HW2 1528   0.378   2.393   2.060
  504SOL     OW 1529   1.302   2.717   2.171
  504SOL    HW1 1530   1.216   2.686   2.213
  504SOL    HW2 1531   1.298   2.703   2.072
  505SOL     OW 1532   1.726   1.997   2.385
  505SOL    HW1 1533   1.799   1.980   2.318
  505SOL    HW2 1534   1.695   1.910   2.423
  506SOL     OW 1535   1.280   2.789   2.534
  506SOL    HW1 1536   1.340   2.708   2.536
  506SOL    HW2 1537   1.320   2.858   2.474
  507SOL     OW 1538   1.841   2.037   2.825
  507SOL    HW1 1539   1.880   1.952   2.789
  507SOL    HW2 1540   1.743   2.039   2.806
  508SOL     OW 1541   0.263   2.188   2.582
  508SOL    HW1 1542   0.184   2.239   2.548
  508SOL    HW2 1543   0.254   2.173   2.680
  509SOL     OW 1544   0.916   2.772   2.153
  509SOL    HW1 1545   0.979   2.810   2.085
  509SOL    HW2 1546   0.956   2.689   2.192
  510SOL     OW 1547   0.075   2.207   1.895
  510SOL    HW1 1548  -0.017   2.179   1.866
  510SOL    HW2 1549   0.106   2.284   1.839
  511SOL     OW 1550   0.072   2.028   2.180
  511SOL    HW1 1551   0.055   2.111   2.126
  511SOL    HW2 1552   0.162   1.991   2.158
  512SOL     OW 1553   1.183   3.197   1.981
  512SOL    HW1 1554   1.084   3.186   1.983
  512SOL    HW2 1555   1.217   3.212   2.074
  513SOL     OW 1556   1.674   2.745   3.116
  513SOL    HW1 1557   1.647   2.656   3.079
  513SOL    HW2 1558   1.675   2.813   3.043
  514SOL     OW 1559   1.225   2.187   2.311
  514SOL    HW1 1560   1.290   2.113   2.300
  514SOL    HW2 1561   1.245   2.237   2.395
  515SOL     OW 1562   0.594   2.607   2.514
  515SOL    HW1 1563   0.644   2.692   2.495
  515SOL    HW2 1564   0.506   2.609   2.466
  516SOL     OW 1565   0.859   2.818   2.723
  516SOL    HW1 1566   0.913   2.749   2.771
  516SOL    HW2 1567   0.827   2.887   2.789
  517SOL     OW 1568   1.083   2.846   1.949
  517SOL    HW1 1569   1.060   2.899   1.867
  517SOL    HW2 1570   1.164   2.790   1.930
  518SOL     OW 1571   0.079   3.102   2.515
  518SOL    HW1 1572   0.078   3.055   2.603
  518SOL    HW2 1573   0.161   3.074   2.464
  519SOL     OW 1574   1.824   2.054   3.089
  519SOL    HW1 1575   1.820   1.964   3.133
  519SOL    HW2 1576   1.827   2.043   2.990
  520SOL     OW 1577   0.428   2.286   2.382
  520SOL    HW1 1578   0.458   2.214   2.320
  520SOL    HW2 1579   0.389   2.246   2.465
  521SOL     OW 1580   1.352   1.914   2.030
  521SOL    HW1 1581   1.387   1.873   1.946
  521SOL    HW2 1582   1.262   1.876   2.050
  522SOL     OW 1583   1.300   2.315   2.553
  522SOL    HW1 1584   1.241   2.395   2.557
  522SOL    HW2 1585   1.315   2.280   2.646
  523SOL     OW 1586   1.593   2.083   2.744
  523SOL    HW1 1587   1.509   2.082   2.798
  523SOL    HW2 1588   1.595   2.166   2.688
  524SOL     OW 1589   2.092   0.628   0.113
  524SOL    HW1 1590   1.999   0.626   0.150
  524SOL    HW2 1591   2.093   0.589   0.021
  525SOL     OW 1592   2.087   0.275   0.996
  525SOL    HW1 1593   2.122   0.258   1.088
  525SOL    HW2 1594   1.999   0.230   0.984
  526SOL     OW 1595   1.881   0.368   0.647
  526SOL    HW1 1596   1.799   0.411   0.686
  526SOL    HW2 1597   1.853   0.295   0.584
  527SOL     OW 1598   2.431   1.275   1.165
  527SOL    HW1 1599   2.338   1.268   1.128
  527SOL    HW2 1600   2.442   1.364   1.209
  528SOL     OW 1601   2.630   1.144   1.023
  528SOL    HW1 1602   2.552   1.161   1.083
  528SOL    HW2 1603   2.664   1.231   0.987
  529SOL     OW 1604   2.712   0.798   1.823
  529SOL    HW1 1605   2.708   0.874   1.888
  529SOL    HW2 1606   2.734   0.834   1.732
  530SOL     OW 1607   2.547   1.012   0.665
  530SOL    HW1 1608   2.616   0.996   0.735
  530SOL    HW2 1609   2.474   1.069   0.703
  531SOL     OW 1610   2.548   1.161   1.803
  531SOL    HW1 1611   2.608   1.240   1.817
  531SOL    HW2 1612   2.462   1.192   1.762
  532SOL     OW 1613   2.197   1.435   1.061
  532SOL    HW1 1614   2.119   1.404   1.008
  532SOL    HW2 1615   2.255   1.493   1.004
  533SOL     OW 1616   2.300   0.392   1.499
  533SOL    HW1 1617   2.382   0.336   1.508
  533SOL    HW2 1618   2.219   0.334   1.503
  534SOL     OW 1619   2.093   1.713   0.483
  534SOL    HW1 1620   2.127   1.790   0.537
  534SOL    HW2 1621   2.137   1.713   0.393
  535SOL     OW 1622   2.092   1.434   0.538
  535SOL    HW1 1623   2.066   1.530   0.538
  535SOL    HW2 1624   2.021   1.380   0.583
  536SOL     OW 1625   2.102   1.091   0.886
  536SOL    HW1 1626   2.116   1.007   0.938
  536SOL    HW2 1627   2.047   1.155   0.941
  537SOL     OW 1628   2.482   1.786   1.439
  537SOL    HW1 1629   2.390   1.769   1.474
  537SOL    HW2 1630   2.510   1.878   1.465
  538SOL     OW 1631   2.468   0.964   0.123
  538SOL    HW1 1632   2.475   1.048   0.069
  538SOL    HW2 1633   2.514   0.977   0.211
  539SOL     OW 1634   1.984   0.643   0.563
  539SOL    HW1 1635   1.939   0.555   0.580
  539SOL    HW2 1636   1.983   0.697   0.647
  540SOL     OW 1637   1.889   1.596   0.117
  540SOL    HW1 1638   1.870   1.500   0.138
  540SOL    HW2 1639   1.856   1.654   0.192
  541SOL     OW 1640   1.975   0.737   1.597
  541SOL    HW1 1641   2.063   0.724   1.642
  541SOL    HW2 1642   1.962   0.834   1.575
  542SOL     OW 1643   2.475   1.365   0.726
  542SOL    HW1 1644   2.426   1.278   0.735
  542SOL    HW2 1645   2.452   1.408   0.639
  543SOL     OW 1646   2.671   0.004   0.502
  543SOL    HW1 1647   2.711   0.095   0.493
  543SOL    HW2 1648   2.571   0.012   0.508
  544SOL     OW 1649   2.059   0.976   1.264
  544SOL    HW1 1650   2.148   0.931   1.250
  544SOL    HW2 1651   1.986   0.911   1.245
  545SOL     OW 1652   2.179   0.251   1.801
  545SOL    HW1 1653   2.250   0.322   1.807
  545SOL    HW2 1654   2.091   0.290   1.829
  546SOL     OW 1655   2.460   0.729   0.270
  546SOL    HW1 1656   2.484   0.798   0.202
  546SOL    HW2 1657   2.382   0.762   0.324
  547SOL     OW 1658   2.669   0.605   1.465
  547SOL    HW1 1659   2.622   0.602   1.554
  547SOL    HW2 1660   2.618   0.550   1.399
  548SOL     OW 1661   2.835   0.890   1.572
  548SOL    HW1 1662   2.881   0.806   1.543
  548SOL    HW2 1663   2.779   0.924   1.497
  549SOL     OW 1664   2.853   0.410   1.242
  549SOL    HW1 1665   2.776   0.444   1.296
  549SOL    HW2 1666   2.819   0.359   1.163
  550SOL     OW 1667   1.938   0.811   0.789
  550SOL    HW1 1668   2.037   0.799   0.798
  550SOL    HW2 1669   1.914   0.906   0.810
  551SOL     OW 1670   1.992   1.821   1.571
  551SOL    HW1 1671   1.982   1.806   1.670
  551SOL    HW2 1672   1.906   1.857   1.535
  552SOL     OW 1673   2.727   0.348   0.195
  552SOL    HW1 1674   2.786   0.411   0.146
  552SOL    HW2 1675   2.746   0.254   0.166
  553SOL     OW 1676   2.412   0.196   0.885
  553SOL    HW1 1677   2.407   0.191   0.985
  553SOL    HW2 1678   2.414   0.292   0.856
  554SOL     OW 1679   2.870   1.456   0.477
  554SOL    HW1 1680   2.824   1.528   0.425
  554SOL    HW2 1681   2.866   1.476   0.575
  555SOL     OW 1682   2.213   1.801   0.853
  555SOL    HW1 1683   2.263   1.715   0.859
  555SOL    HW2 1684   2.278   1.878   0.850
  556SOL     OW 1685   2.183   0.943   0.242
  556SOL    HW1 1686   2.265   0.982   0.200
  556SOL    HW2 1687   2.156   0.861   0.193
  557SOL     OW 1688   2.323   1.266   1.727
  557SOL    HW1 1689   2.273   1.267   1.641
  557SOL    HW2 1690   2.260   1.248   1.803
  558SOL     OW 1691   2.064   0.285   1.498
  558SOL    HW1 1692   1.984   0.345   1.485
  558SOL    HW2 1693   2.054   0.236   1.584
  559SOL     OW 1694   2.326   1.743   0.323
  559SOL    HW1 1695   2.359   1.782   0.409
  559SOL    HW2 1696   2.402   1.736   0.258
  560SOL     OW 1697   2.111   1.785   1.241
  560SOL    HW1 1698   2.168   1.720   1.291
  560SOL    HW2 1699   2.095   1.752   1.148
  561SOL     OW 1700   2.244   0.700   0.480
  561SOL    HW1 1701   2.289   0.610   0.477
  561SOL    HW2 1702   2.150   0.689   0.513
  562SOL     OW 1703   2.476   0.122   0.117
  562SOL    HW1 1704   2.574   0.100   0.124
  562SOL    HW2 1705   2.445   0.105   0.024
  563SOL     OW 1706   2.643   0.264   1.749
  563SOL    HW1 1707   2.710   0.203   1.792
  563SOL    HW2 1708   2.570   0.283   1.814
  564SOL     OW 1709   2.750   1.514   1.195
  564SOL    HW1 1710   2.727   1.489   1.101
  564SOL    HW2 1711   2.811   1.445   1.234
  565SOL     OW 1712   2.665   1.402   0.924
  565SOL    HW1 1713   2.755   1.416   0.882
  565SOL    HW2 1714   2.594   1.404   0.853
  566SOL     OW 1715   2.784   0.503   0.899
  566SOL    HW1 1716   2.759   0.494   0.803
  566SOL    HW2 1717   2.832   0.421   0.930
  567SOL     OW 1718   2.401   0.064   0.512
  567SOL    HW1 1719   2.320   0.065   0.570
  567SOL    HW2 1720   2.404   0.147   0.457
  568SOL     OW 1721   2.159   0.035   0.171
  568SOL    HW1 1722   2.208   0.119   0.150
  568SOL    HW2 1723   2.221  -0.030   0.216
  569SOL     OW 1724   2.797   0.236   0.480
  569SOL    HW1 1725   2.749   0.277   0.402
  569SOL    HW2 1726   2.896   0.234   0.461
  570SOL     OW 1727   3.089   1.570   0.793
  570SOL    HW1 1728   3.110   1.644   0.728
  570SOL    HW2 1729   3.157   1.570   0.866
  571SOL     OW 1730   2.321   1.152   0.741
  571SOL    HW1 1731   2.250   1.125   0.806
  571SOL    HW2 1732   2.295   1.124   0.648
  572SOL     OW 1733   2.894   0.549   0.016
  572SOL    HW1 1734   2.853   0.631  -0.023
  572SOL    HW2 1735   2.958   0.575   0.089
  573SOL     OW 1736   1.940   0.556   1.386
  573SOL    HW1 1737   2.032   0.555   1.345
  573SOL    HW2 1738   1.934   0.630   1.453
  574SOL     OW 1739   2.423   0.222   1.147
  574SOL    HW1 1740   2.461   0.138   1.184
  574SOL    HW2 1741   2.335   0.241   1.191
  575SOL     OW 1742   2.728   0.454   0.642
  575SOL    HW1 1743   2.696   0.526   0.580
  575SOL    HW2 1744   2.752   0.373   0.589
  576SOL     OW 1745   2.879   0.039   0.753
  576SOL    HW1 1746   2.807   0.044   0.684
  576SOL    HW2 1747   2.855  -0.030   0.822
  577SOL     OW 1748   2.350   1.385   0.174
  577SOL    HW1 1749   2.263   1.370   0.221
  577SOL    HW2 1750   2.333   1.411   0.079
  578SOL     OW 1751   2.389   0.256   0.328
  578SOL    HW1 1752   2.416   0.197   0.253
  578SOL    HW2 1753   2.389   0.351   0.297
  579SOL     OW 1754   2.777   0.089   1.402
  579SOL    HW1 1755   2.802   0.069   1.307
  579SOL    HW2 1756   2.849   0.145   1.444
  580SOL     OW 1757   2.842   1.116   1.719
  580SOL    HW1 1758   2.743   1.122   1.729
  580SOL    HW2 1759   2.865   1.036   1.663
  581SOL     OW 1760   2.567   1.050   0.368
  581SOL    HW1 1761   2.553   1.057   0.467
  581SOL    HW2 1762   2.651   0.999   0.350
  582SOL     OW 1763   2.272   0.813   1.251
  582SOL    HW1 1764   2.358   0.825   1.301
  582SOL    HW2 1765   2.230   0.726   1.278
  583SOL     OW 1766   2.229   1.100   0.501
  583SOL    HW1 1767   2.222   1.183   0.445
  583SOL    HW2 1768   2.233   1.020   0.441
  584SOL     OW 1769   2.428   0.537   0.865
  584SOL    HW1 1770   2.440   0.603   0.791
  584SOL    HW2 1771   2.474   0.571   0.948
  585SOL     OW 1772   2.216   1.510   1.329
  585SOL    HW1 1773   2.195   1.466   1.242
  585SOL    HW2 1774   2.313   1.536   1.332
  586SOL     OW 1775   2.264   0.751   1.598
  586SOL    HW1 1776   2.332   0.806   1.551
  586SOL    HW2 1777   2.304   0.663   1.625
  587SOL     OW 1778   2.875   0.105   1.770
  587SOL    HW1 1779   2.881   0.190   1.718
  587SOL    HW2 1780   2.907   0.029   1.713
  588SOL     OW 1781   2.366   0.050   1.740
  588SOL    HW1 1782   2.324  -0.007   1.670
  588SOL    HW2 1783   2.300   0.119   1.772
  589SOL     OW 1784   2.435   0.870   1.029
  589SOL    HW1 1785   2.479   0.959   1.020
  589SOL    HW2 1786   2.372   0.870   1.106
  590SOL     OW 1787   3.071   0.525   0.275
  590SOL    HW1 1788   3.084   0.441   0.329
  590SOL    HW2 1789   3.042   0.599   0.335
  591SOL     OW 1790   2.169   0.213   1.231
  591SOL    HW1 1791   2.146   0.250   1.321
  591SOL    HW2 1792   2.139   0.118   1.225
  592SOL     OW 1793   1.899   1.310   1.282
  592SOL    HW1 1794   1.952   1.261   1.350
  592SOL    HW2 1795   1.921   1.408   1.287
  593SOL     OW 1796   2.594   0.634   1.064
  593SOL    HW1 1797   2.653   0.608   0.988
  593SOL    HW2 1798   2.566   0.730   1.053
  594SOL     OW 1799   2.169   0.063   0.618
  594SOL    HW1 1800   2.158   0.157   0.651
  594SOL    HW2 1801   2.164   0.000   0.695
  595SOL     OW 1802   2.885   0.766   0.966
  595SOL    HW1 1803   2.900   0.787   1.062
  595SOL    HW2 1804   2.855   0.671   0.957
  596SOL     OW 1805   2.842   1.573   1.700
  596SOL    HW1 1806   2.822   1.617   1.612
  596SOL    HW2 1807   2.881   1.482   1.684
  597SOL     OW 1808   2.212   0.898   1.804
  597SOL    HW1 1809   2.288   0.942   1.852
  597SOL    HW2 1810   2.247   0.851   1.722
  598SOL     OW 1811   2.181   0.810   0.949
  598SOL    HW1 1812   2.274   0.846   0.954
  598SOL    HW2 1813   2.175   0.725   1.001
  599SOL     OW 1814   2.201   0.509   1.006
  599SOL    HW1 1815   2.149   0.426   0.989
  599SOL    HW2 1816   2.278   0.514   0.942
  600SOL     OW 1817   1.870   1.326   0.200
  600SOL    HW1 1818   1.777   1.347   0.169
  600SOL    HW2 1819   1.880   1.227   0.213
  601SOL     OW 1820   1.950   1.801   0.927
  601SOL    HW1 1821   1.908   1.715   0.900
  601SOL    HW2 1822   2.044   1.804   0.893
  602SOL     OW 1823   2.366   1.568   0.910
  602SOL    HW1 1824   2.432   1.642   0.919
  602SOL    HW2 1825   2.410   1.489   0.868
  603SOL     OW 1826   2.864   0.796   1.238
  603SOL    HW1 1827   2.905   0.764   1.324
  603SOL    HW2 1828   2.768   0.769   1.235
  604SOL     OW 1829   1.902   0.544   1.114
  604SOL    HW1 1830   1.987   0.511   1.073
  604SOL    HW2 1831   1.915   0.559   1.212
  605SOL     OW 1832   2.051   0.520   1.722
  605SOL    HW1 1833   2.110   0.480   1.652
  605SOL    HW2 1834   1.993   0.591   1.681
  606SOL     OW 1835   2.677   0.572   0.325
  606SOL    HW1 1836   2.684   0.483   0.279
  606SOL    HW2 1837   2.583   0.606   0.317
  607SOL     OW 1838   2.114   1.564   1.744
  607SOL    HW1 1839   2.084   1.621   1.820
  607SOL    HW2 1840   2.107   1.467   1.770
  608SOL     OW 1841   2.533   0.464   1.269
  608SOL    HW1 1842   2.499   0.375   1.239
  608SOL    HW2 1843   2.559   0.518   1.189
  609SOL     OW 1844   2.792   1.678   1.465
  609SOL    HW1 1845   2.768   1.660   1.370
  609SOL    HW2 1846   2.822   1.772   1.475
  610SOL     OW 1847   2.335   0.500   0.191
  610SOL    HW1 1848   2.396   0.580   0.195
  610SOL    HW2 1849   2.240   0.531   0.198
  611SOL     OW 1850   2.021   1.137   1.466
  611SOL    HW1 1851   2.043   1.076   1.542
  611SOL    HW2 1852   2.031   1.088   1.380
  612SOL     OW 1853   1.945   1.258   1.022
  612SOL    HW1 1854   1.940   1.257   1.122
  612SOL    HW2 1855   1.862   1.217   0.984
  613SOL     OW 1856   2.550   1.662   1.716
  613SOL    HW1 1857   2.494   1.743   1.725
  613SOL    HW2 1858   2.602   1.666   1.630
  614SOL     OW 1859   2.765   0.086   0.133
  614SOL    HW1 1860   2.816   0.087   0.047
  614SOL    HW2 1861   2.821   0.044   0.204
  615SOL     OW 1862   1.992   1.794   1.851
  615SOL    HW1 1863   1.951   1.720   1.904
  615SOL    HW2 1864   2.056   1.845   1.909
  616SOL     OW 1865   3.142   0.927   0.672
  616SOL    HW1 1866   3.202   0.846   0.674
  616SOL    HW2 1867   3.182   0.996   0.612
  617SOL     OW 1868   2.692   1.273   1.422
  617SOL    HW1 1869   2.687   1.306   1.517
  617SOL    HW2 1870   2.606   1.292   1.376
  618SOL     OW 1871   2.534   1.616   0.154
  618SOL    HW1 1872   2.543   1.626   0.055
  618SOL    HW2 1873   2.494   1.527   0.175
  619SOL     OW 1874   2.125   0.326   0.720
  619SOL    HW1 1875   2.046   0.377   0.686
  619SOL    HW2 1876   2.116   0.311   0.818
  620SOL     OW 1877   2.684   1.002   1.372
  620SOL    HW1 1878   2.724   1.001   1.280
  620SOL    HW2 1879   2.694   1.094   1.412
  621SOL     OW 1880   2.778   0.910   0.291
  621SOL    HW1 1881   2.841   0.948   0.223
  621SOL    HW2 1882   2.818   0.827   0.330
  622SOL     OW 1883   2.234   1.288   1.490
  622SOL    HW1 1884   2.221   1.381   1.456
  622SOL    HW2 1885   2.150   1.236   1.477
  623SOL     OW 1886   2.876   0.236   0.971
  623SOL    HW1 1887   2.868   0.200   0.878
  623SOL    HW2 1888   2.874   0.160   1.036
  624SOL     OW 1889   2.452   1.487   0.491
  624SOL    HW1 1890   2.494   1.429   0.421
  624SOL    HW2 1891   2.408   1.566   0.447
  625SOL     OW 1892   2.117   1.348   0.290
  625SOL    HW1 1893   2.021   1.349   0.263
  625SOL    HW2 1894   2.129   1.401   0.374
  626SOL     OW 1895   1.967   1.013   1.726
  626SOL    HW1 1896   1.890   0.980   1.780
  626SOL    HW2 1897   2.052   0.983   1.768
  627SOL     OW 1898   2.534   0.203   1.489
  627SOL    HW1 1899   2.624   0.187   1.449
  627SOL    HW2 1900   2.542   0.208   1.588
  628SOL     OW 1901   1.937   0.345   0.033
  628SOL    HW1 1902   1.845   0.317   0.004
  628SOL    HW2 1903   1.968   0.422  -0.023
  629SOL     OW 1904   1.934   0.166   0.318
  629SOL    HW1 1905   1.917   0.249   0.264
  629SOL    HW2 1906   2.024   0.129   0.296
  630SOL     OW 1907   2.475   0.842   1.431
  630SOL    HW1 1908   2.531   0.923   1.414
  630SOL    HW2 1909   2.534   0.762   1.434
  631SOL     OW 1910   2.578   0.565   1.708
  631SOL    HW1 1911   2.597   0.630   1.782
  631SOL    HW2 1912   2.638   0.485   1.717
  632SOL     OW 1913   2.252   1.741   1.560
  632SOL    HW1 1914   2.161   1.782   1.558
  632SOL    HW2 1915   2.245   1.647   1.592
  633SOL     OW 1916   3.087   0.325   0.449
  633SOL    HW1 1917   3.152   0.251   0.438
  633SOL    HW2 1918   3.107   0.375   0.533
  634SOL     OW 1919   2.456   0.745   0.652
  634SOL    HW1 1920   2.506   0.830   0.633
  634SOL    HW2 1921   2.368   0.747   0.604
  635SOL     OW 1922   2.721   1.374   0.016
  635SOL    HW1 1923   2.675   1.389   0.104
  635SOL    HW2 1924   2.765   1.459  -0.014
  636SOL     OW 1925   2.523   1.790   0.953
  636SOL    HW1 1926   2.477   1.878   0.940
  636SOL    HW2 1927   2.622   1.802   0.946
  637SOL     OW 1928   2.721   0.956   0.861
  637SOL    HW1 1929   2.775   0.887   0.909
  637SOL    HW2 1930   2.689   1.025   0.927
  638SOL     OW 1931   2.945   0.984   0.087
  638SOL    HW1 1932   2.922   1.037   0.005
  638SOL    HW2 1933   3.026   0.928   0.068
  639SOL     OW 1934   2.083   1.314   1.844
  639SOL    HW1 1935   2.018   1.241   1.823
  639SOL    HW2 1936   2.087   1.328   1.942
  640SOL     OW 1937   1.941   1.240   0.653
  640SOL    HW1 1938   1.940   1.193   0.741
  640SOL    HW2 1939   2.023   1.212   0.602
  641SOL     OW 1940   2.534   1.391   1.624
  641SOL    HW1 1941   2.456   1.341   1.662
  641SOL    HW2 1942   2.531   1.486   1.655
  642SOL     OW 1943   2.290   0.424   0.520
  642SOL    HW1 1944   2.320   0.352   0.458
  642SOL    HW2 1945   2.251   0.384   0.603
  643SOL     OW 1946   2.179   0.547   1.280
  643SOL    HW1 1947   2.217   0.488   1.352
  643SOL    HW2 1948   2.219   0.521   1.192
  644SOL     OW 1949   2.674   1.586   0.687
  644SOL    HW1 1950   2.706   1.596   0.593
  644SOL    HW2 1951   2.595   1.524   0.689
  645SOL     OW 1952   2.863   0.034   1.154
  645SOL    HW1 1953   2.800  -0.038   1.123
  645SOL    HW2 1954   2.956  -0.002   1.154
  646SOL     OW 1955   2.632   1.330   0.301
  646SOL    HW1 1956   2.586   1.243   0.318
  646SOL    HW2 1957   2.723   1.327   0.342
  647SOL     OW 1958   2.480   1.567   1.284
  647SOL    HW1 1959   2.475   1.649   1.341
  647SOL    HW2 1960   2.569   1.564   1.239
  648SOL     OW 1961   1.901   1.077   0.300
  648SOL    HW1 1962   2.000   1.066   0.291
  648SOL    HW2 1963   1.861   0.991   0.332
  649SOL     OW 1964   2.737   1.646   0.337
  649SOL    HW1 1965   2.660   1.611   0.283
  649SOL    HW2 1966   2.705   1.717   0.399
  650SOL     OW 1967   2.092   0.628   1.975
  650SOL    HW1 1968   1.999   0.626   2.012
  650SOL    HW2 1969   2.093   0.589   1.883
  651SOL     OW 1970   2.087   0.275   2.858
  651SOL    HW1 1971   2.122   0.258   2.950
  651SOL    HW2 1972   1.999   0.230   2.846
  652SOL     OW 1973   1.881   0.368   2.509
  652SOL    HW1 1974   1.799   0.411   2.548
  652SOL    HW2 1975   1.853   0.295   2.446
  653SOL     OW 1976   2.630   1.144   2.885
  653SOL    HW1 1977   2.552   1.161   2.945
  653SOL    HW2 1978   2.664   1.231   2.849
  654SOL     OW 1979   2.547   1.012   2.527
  654SOL    HW1 1980   2.616   0.996   2.597
  654SOL    HW2 1981   2.474   1.069   2.565
  655SOL     OW 1982   2.197   1.435   2.923
  655SOL    HW1 1983   2.119   1.404   2.870
  655SOL    HW2 1984   2.255   1.493   2.866
  656SOL     OW 1985   2.093   1.713   2.345
  656SOL    HW1 1986   2.127   1.790   2.399
  656SOL    HW2 1987   2.137   1.713   2.255
  657SOL     OW 1988   2.092   1.434   2.400
  657SOL    HW1 1989   2.066   1.530   2.400
  657SOL    HW2 1990   2.021   1.380   2.445
  658SOL     OW 1991   2.102   1.091   2.748
  658SOL    HW1 1992   2.116   1.007   2.800
  658SOL    HW2 1993   2.047   1.155   2.803
  659SOL     OW 1994   2.468   0.964   1.985
  659SOL    HW1 1995   2.475   1.048   1.931
  659SOL    HW2 1996   2.514   0.977   2.073
  660SOL     OW 1997   1.984   0.643   2.425
  660SOL    HW1 1998   1.939   0.555   2.442
  660SOL    HW2 1999   1.983   0.697   2.509
  661SOL     OW 2000   1.889   1.596   1.979
  661SOL    HW1 2001   1.870   1.500   2.000
  661SOL    HW2 2002   1.856   1.654   2.054
  662SOL     OW 2003   2.475   1.365   2.588
  662SOL    HW1 2004   2.426   1.278   2.597
  662SOL    HW2 2005   2.452   1.408   2.501
  663SOL     OW 2006   2.671   0.004   2.364
  663SOL    HW1 2007   2.711   0.095   2.355
  663SOL    HW2 2008   2.571   0.012   2.370
  664SOL     OW 2009   2.460   0.729   2.132
  664SOL    HW1 2010   2.484   0.798   2.064
  664SOL    HW2 2011   2.382   0.762   2.186
  665SOL     OW 2012   1.938   0.811   2.651
  665SOL    HW1 2013   2.037   0.799   2.660
  665SOL    HW2 2014   1.914   0.906   2.672
  666SOL     OW 2015   2.727   0.348   2.057
  666SOL    HW1 2016   2.786   0.411   2.008
  666SOL    HW2 2017   2.746   0.254   2.028
  667SOL     OW 2018   2.412   0.196   2.747
  667SOL    HW1 2019   2.407   0.191   2.847
  667SOL    HW2 2020   2.414   0.292   2.718
  668SOL     OW 2021   2.870   1.456   2.339
  668SOL    HW1 2022   2.824   1.528   2.287
  668SOL    HW2 2023   2.866   1.476   2.437
  669SOL     OW 2024   2.213   1.801   2.715
  669SOL    HW1 2025   2.263   1.715   2.721
  669SOL    HW2 2026   2.278   1.878   2.712
  670SOL     OW 2027   2.183   0.943   2.104
  670SOL    HW1 2028   2.265   0.982   2.062
  670SOL    HW2 2029   2.156   0.861   2.055
  671SOL     OW 2030   2.326   1.743   2.185
  671SOL    HW1 2031   2.359   1.782   2.271
  671SOL    HW2 2032   2.402   1.736   2.120
  672SOL     OW 2033   2.111   1.785   3.103
  672SOL    HW1 2034   2.168   1.720   3.153
  672SOL    HW2 2035   2.095   1.752   3.010
  673SOL     OW 2036   2.244   0.700   2.342
  673SOL    HW1 2037   2.289   0.610   2.339
  673SOL    HW2 2038   2.150   0.689   2.375
  674SOL     OW 2039   2.476   0.122   1.979
  674SOL    HW1 2040   2.574   0.100   1.986
  674SOL    HW2 2041   2.445   0.105   1.886
  675SOL     OW 2042   2.665   1.402   2.786
  675SOL    HW1 2043   2.755   1.416   2.744
  675SOL    HW2 2044   2.594   1.404   2.715
  676SOL     OW 2045   2.784   0.503   2.761
  676SOL    HW1 2046   2.759   0.494   2.665
  676SOL    HW2 2047   2.832   0.421   2.792
  677SOL     OW 2048   2.401   0.064   2.374
  677SOL    HW1 2049   2.320   0.065   2.432
  677SOL    HW2 2050   2.404   0.147   2.319
  678SOL     OW 2051   2.159   0.035   2.033
  678SOL    HW1 2052   2.208   0.119   2.012
  678SOL    HW2 2053   2.221  -0.030   2.078
  679SOL     OW 2054   2.797   0.236   2.342
  679SOL    HW1 2055   2.749   0.277   2.264
  679SOL    HW2 2056   2.896   0.234   2.323
  680SOL     OW 2057   3.089   1.570   2.655
  680SOL    HW1 2058   3.110   1.644   2.590
  680SOL    HW2 2059   3.157   1.570   2.728
  681SOL     OW 2060   2.321   1.152   2.603
  681SOL    HW1 2061   2.250   1.125   2.668
  681SOL    HW2 2062   2.295   1.124   2.510
  682SOL     OW 2063   2.894   0.549   1.878
  682SOL    HW1 2064   2.853   0.631   1.839
  682SOL    HW2 2065   2.958   0.575   1.951
  683SOL     OW 2066   2.728   0.454   2.504
  683SOL    HW1 2067   2.696   0.526   2.442
  683SOL    HW2 2068   2.752   0.373   2.451
  684SOL     OW 2069   2.879   0.039   2.615
  684SOL    HW1 2070   2.807   0.044   2.546
  684SOL    HW2 2071   2.855  -0.030   2.684
  685SOL     OW 2072   2.350   1.385   2.036
  685SOL    HW1 2073   2.263   1.370   2.083
  685SOL    HW2 2074   2.333   1.411   1.941
  686SOL     OW 2075   2.389   0.256   2.190
  686SOL    HW1 2076   2.416   0.197   2.115
  686SOL    HW2 2077   2.389   0.351   2.159
  687SOL     OW 2078   2.567   1.050   2.230
  687SOL    HW1 2079   2.553   1.057   2.329
  687SOL    HW2 2080   2.651   0.999   2.212
  688SOL     OW 2081   2.229   1.100   2.363
  688SOL    HW1 2082   2.222   1.183   2.307
  688SOL    HW2 2083   2.233   1.020   2.303
  689SOL     OW 2084   2.428   0.537   2.727
  689SOL    HW1 2085   2.440   0.603   2.653
  689SOL    HW2 2086   2.474   0.571   2.810
  690SOL     OW 2087   2.435   0.870   2.891
  690SOL    HW1 2088   2.479   0.959   2.882
  690SOL    HW2 2089   2.372   0.870   2.968
  691SOL     OW 2090   3.071   0.525   2.137
  691SOL    HW1 2091   3.084   0.441   2.191
  691SOL    HW2 2092   3.042   0.599   2.197
  692SOL     OW 2093   2.594   0.634   2.926
  692SOL    HW1 2094   2.653   0.608   2.850
  692SOL    HW2 2095   2.566   0.730   2.915
  693SOL     OW 2096   2.169   0.063   2.480
  693SOL    HW1 2097   2.158   0.157   2.513
  693SOL    HW2 2098   2.164   0.000   2.557
  694SOL     OW 2099   2.181   0.810   2.811
  694SOL    HW1 2100   2.274   0.846   2.816
  694SOL    HW2 2101   2.175   0.725   2.863
  695SOL     OW 2102   2.201   0.509   2.868
  695SOL    HW1 2103   2.149   0.426   2.851
  695SOL    HW2 2104   2.278   0.514   2.804
  696SOL     OW 2105   1.870   1.326   2.062
  696SOL    HW1 2106   1.777   1.347   2.031
  696SOL    HW2 2107   1.880   1.227   2.075
  697SOL     OW 2108   1.950   1.801   2.789
  697SOL    HW1 2109   1.908   1.715   2.762
  697SOL    HW2 2110   2.044   1.804   2.755
  698SOL     OW 2111   2.366   1.568   2.772
  698SOL    HW1 2112   2.432   1.642   2.781
  698SOL    HW2 2113   2.410   1.489   2.730
  699SOL     OW 2114   2.677   0.572   2.187
  699SOL    HW1 2115   2.684   0.483   2.141
  699SOL    HW2 2116   2.583   0.606   2.179
  700SOL     OW 2117   2.533   0.464   3.131
  700SOL    HW1 2118   2.499   0.375   3.101
  700SOL    HW2 2119   2.559   0.518   3.051
  701SOL     OW 2120   2.335   0.500   2.053
  701SOL    HW1 2121   2.396   0.580   2.057
  701SOL    HW2 2122   2.240   0.531   2.060
  702SOL     OW 2123   1.945   1.258   2.884
  702SOL    HW1 2124   1.940   1.257   2.984
  702SOL    HW2 2125   1.862   1.217   2.846
  703SOL     OW 2126   3.142   0.927   2.534
  703SOL    HW1 2127   3.202   0.846   2.536
  703SOL    HW2 2128   3.182   0.996   2.474
  704SOL     OW 2129   2.534   1.616   2.016
  704SOL    HW1 2130   2.543   1.626   1.917
  704SOL    HW2 2131   2.494   1.527   2.037
  705SOL     OW 2132   2.125   0.326   2.582
  705SOL    HW1 2133   2.046   0.377   2.548
  705SOL    HW2 2134   2.116   0.311   2.680
  706SOL     OW 2135   2.778   0.910   2.153
  706SOL    HW1 2136   2.841   0.948   2.085
  706SOL    HW2 2137   2.818   0.827   2.192
  707SOL     OW 2138   2.452   1.487   2.353
  707SOL    HW1 2139   2.494   1.429   2.283
  707SOL    HW2 2140   2.408   1.566   2.309
  708SOL     OW 2141   2.117   1.348   2.152
  708SOL    HW1 2142   2.021   1.349   2.125
  708SOL    HW2 2143   2.129   1.401   2.236
  709SOL     OW 2144   1.937   0.345   1.895
  709SOL    HW1 2145   1.845   0.317   1.866
  709SOL    HW2 2146   1.968   0.422   1.839
  710SOL     OW 2147   1.934   0.166   2.180
  710SOL    HW1 2148   1.917   0.249   2.126
  710SOL    HW2 2149   2.024   0.129   2.158
  711SOL     OW 2150   3.087   0.325   2.311
  711SOL    HW1 2151   3.152   0.251   2.300
  711SOL    HW2 2152   3.107   0.375   2.395
  712SOL     OW 2153   2.456   0.745   2.514
  712SOL    HW1 2154   2.506   0.830   2.495
  712SOL    HW2 2155   2.368   0.747   2.466
  713SOL     OW 2156   2.721   1.374   1.878
  713SOL    HW1 2157   2.675   1.389   1.966
  713SOL    HW2 2158   2.765   1.459   1.848
  714SOL     OW 2159   2.523   1.790   2.815
  714SOL    HW1 2160   2.477   1.878   2.802
  714SOL    HW2 2161   2.622   1.802   2.808
  715SOL     OW 2162   2.721   0.956   2.723
  715SOL    HW1 2163   2.775   0.887   2.771
  715SOL    HW2 2164   2.689   1.025   2.789
  716SOL     OW 2165   1.941   1.240   2.515
  716SOL    HW1 2166   1.940   1.193   2.603
  716SOL    HW2 2167   2.023   1.212   2.464
  717SOL     OW 2168   2.290   0.424   2.382
  717SOL    HW1 2169   2.320   0.352   2.320
  717SOL    HW2 2170   2.251   0.384   2.465
  718SOL     OW 2171   2.674   1.586   2.549
  718SOL    HW1 2172   2.706   1.596   2.455
  718SOL    HW2 2173   2.595   1.524   2.551
  719SOL     OW 2174   2.632   1.330   2.163
  719SOL    HW1 2175   2.586   1.243   2.180
  719SOL    HW2 2176   2.723   1.327   2.204
  720SOL     OW 2177   1.901   1.077   2.162
  720SOL    HW1 2178   2.000   1.066   2.153
  720SOL    HW2 2179   1.861   0.991   2.194
  721SOL     OW 2180   2.737   1.646   2.199
  721SOL    HW1 2181   2.660   1.611   2.145
  721SOL    HW2 2182   2.705   1.717   2.261
  722SOL     OW 2183   2.092   2.490   0.113
  722SOL    HW1 2184   1.999   2.488   0.150
  722SOL    HW2 2185   2.093   2.451   0.021
  723SOL     OW 2186   2.087   2.137   0.996
  723SOL    HW1 2187   2.122   2.120   1.088
  723SOL    HW2 2188   1.999   2.092   0.984
  724SOL     OW 2189   1.881   2.230   0.647
  724SOL    HW1 2190   1.799   2.273   0.686
  724SOL    HW2 2191   1.853   2.157   0.584
  725SOL     OW 2192   2.630   3.006   1.023
  725SOL    HW1 2193   2.552   3.023   1.083
  725SOL    HW2 2194   2.664   3.093   0.987
  726SOL     OW 2195   2.712   2.660   1.823
  726SOL    HW1 2196   2.708   2.736   1.888
  726SOL    HW2 2197   2.734   2.696   1.732
  727SOL     OW 2198   2.547   2.874   0.665
  727SOL    HW1 2199   2.616   2.858   0.735
  727SOL    HW2 2200   2.474   2.931   0.703
  728SOL     OW 2201   2.300   2.254   1.499
  728SOL    HW1 2202   2.382   2.198   1.508
  728SOL    HW2 2203   2.219   2.196   1.503
  729SOL     OW 2204   2.102   2.953   0.886
  729SOL    HW1 2205   2.116   2.869   0.938
  729SOL    HW2 2206   2.047   3.017   0.941
  730SOL     OW 2207   2.468   2.826   0.123
  730SOL    HW1 2208   2.475   2.910   0.069
  730SOL    HW2 2209   2.514   2.839   0.211
  731SOL     OW 2210   1.984   2.505   0.563
  731SOL    HW1 2211   1.939   2.417   0.580
  731SOL    HW2 2212   1.983   2.559   0.647
  732SOL     OW 2213   1.975   2.599   1.597
  732SOL    HW1 2214   2.063   2.586   1.642
  732SOL    HW2 2215   1.962   2.696   1.575
  733SOL     OW 2216   2.671   1.866   0.502
  733SOL    HW1 2217   2.711   1.957   0.493
  733SOL    HW2 2218   2.571   1.874   0.508
  734SOL     OW 2219   2.059   2.838   1.264
  734SOL    HW1 2220   2.148   2.793   1.250
  734SOL    HW2 2221   1.986   2.773   1.245
  735SOL     OW 2222   2.179   2.113   1.801
  735SOL    HW1 2223   2.250   2.184   1.807
  735SOL    HW2 2224   2.091   2.152   1.829
  736SOL     OW 2225   2.460   2.591   0.270
  736SOL    HW1 2226   2.484   2.660   0.202
  736SOL    HW2 2227   2.382   2.624   0.324
  737SOL     OW 2228   2.669   2.467   1.465
  737SOL    HW1 2229   2.622   2.464   1.554
  737SOL    HW2 2230   2.618   2.412   1.399
  738SOL     OW 2231   2.835   2.752   1.572
  738SOL    HW1 2232   2.881   2.668   1.543
  738SOL    HW2 2233   2.779   2.786   1.497
  739SOL     OW 2234   2.853   2.272   1.242
  739SOL    HW1 2235   2.776   2.306   1.296
  739SOL    HW2 2236   2.819   2.221   1.163
  740SOL     OW 2237   1.938   2.673   0.789
  740SOL    HW1 2238   2.037   2.661   0.798
  740SOL    HW2 2239   1.914   2.768   0.810
  741SOL     OW 2240   2.727   2.210   0.195
  741SOL    HW1 2241   2.786   2.273   0.146
  741SOL    HW2 2242   2.746   2.116   0.166
  742SOL     OW 2243   2.412   2.058   0.885
  742SOL    HW1 2244   2.407   2.053   0.985
  742SOL    HW2 2245   2.414   2.154   0.856
  743SOL     OW 2246   2.064   2.147   1.498
  743SOL    HW1 2247   1.984   2.207   1.485
  743SOL    HW2 2248   2.054   2.098   1.584
  744SOL     OW 2249   2.244   2.562   0.480
  744SOL    HW1 2250   2.289   2.472   0.477
  744SOL    HW2 2251   2.150   2.551   0.513
  745SOL     OW 2252   2.476   1.984   0.117
  745SOL    HW1 2253   2.574   1.962   0.124
  745SOL    HW2 2254   2.445   1.967   0.024
  746SOL     OW 2255   2.643   2.126   1.749
  746SOL    HW1 2256   2.710   2.065   1.792
  746SOL    HW2 2257   2.570   2.145   1.814
  747SOL     OW 2258   2.784   2.365   0.899
  747SOL    HW1 2259   2.759   2.356   0.803
  747SOL    HW2 2260   2.832   2.283   0.930
  748SOL     OW 2261   2.401   1.926   0.512
  748SOL    HW1 2262   2.320   1.927   0.570
  748SOL    HW2 2263   2.404   2.009   0.457
  749SOL     OW 2264   2.797   2.098   0.480
  749SOL    HW1 2265   2.749   2.139   0.402
  749SOL    HW2 2266   2.896   2.096   0.461
  750SOL     OW 2267   2.894   2.411   0.016
  750SOL    HW1 2268   2.853   2.493  -0.023
  750SOL    HW2 2269   2.958   2.437   0.089
  751SOL     OW 2270   1.940   2.418   1.386
  751SOL    HW1 2271   2.032   2.417   1.345
  751SOL    HW2 2272   1.934   2.492   1.453
  752SOL     OW 2273   2.423   2.084   1.147
  752SOL    HW1 2274   2.461   2.000   1.184
  752SOL    HW2 2275   2.335   2.103   1.191
  753SOL     OW 2276   2.728   2.316   0.642
  753SOL    HW1 2277   2.696   2.388   0.580
  753SOL    HW2 2278   2.752   2.235   0.589
  754SOL     OW 2279   2.879   1.901   0.753
  754SOL    HW1 2280   2.807   1.906   0.684
  754SOL    HW2 2281   2.855   1.832   0.822
  755SOL     OW 2282   2.389   2.118   0.328
  755SOL    HW1 2283   2.416   2.059   0.253
  755SOL    HW2 2284   2.389   2.213   0.297
  756SOL     OW 2285   2.777   1.951   1.402
  756SOL    HW1 2286   2.802   1.931   1.307
  756SOL    HW2 2287   2.849   2.007   1.444
  757SOL     OW 2288   2.272   2.675   1.251
  757SOL    HW1 2289   2.358   2.687   1.301
  757SOL    HW2 2290   2.230   2.588   1.278
  758SOL     OW 2291   2.428   2.399   0.865
  758SOL    HW1 2292   2.440   2.465   0.791
  758SOL    HW2 2293   2.474   2.433   0.948
  759SOL     OW 2294   2.264   2.613   1.598
  759SOL    HW1 2295   2.332   2.668   1.551
  759SOL    HW2 2296   2.304   2.525   1.625
  760SOL     OW 2297   2.875   1.967   1.770
  760SOL    HW1 2298   2.881   2.052   1.718
  760SOL    HW2 2299   2.907   1.891   1.713
  761SOL     OW 2300   2.366   1.912   1.740
  761SOL    HW1 2301   2.324   1.855   1.670
  761SOL    HW2 2302   2.300   1.981   1.772
  762SOL     OW 2303   2.435   2.732   1.029
  762SOL    HW1 2304   2.479   2.821   1.020
  762SOL    HW2 2305   2.372   2.732   1.106
  763SOL     OW 2306   3.071   2.387   0.275
  763SOL    HW1 2307   3.084   2.303   0.329
  763SOL    HW2 2308   3.042   2.461   0.335
  764SOL     OW 2309   2.169   2.075   1.231
  764SOL    HW1 2310   2.146   2.112   1.321
  764SOL    HW2 2311   2.139   1.980   1.225
  765SOL     OW 2312   2.594   2.496   1.064
  765SOL    HW1 2313   2.653   2.470   0.988
  765SOL    HW2 2314   2.566   2.592   1.053
  766SOL     OW 2315   2.169   1.925   0.618
  766SOL    HW1 2316   2.158   2.019   0.651
  766SOL    HW2 2317   2.164   1.862   0.695
  767SOL     OW 2318   2.885   2.628   0.966
  767SOL    HW1 2319   2.900   2.649   1.062
  767SOL    HW2 2320   2.855   2.533   0.957
  768SOL     OW 2321   2.212   2.760   1.804
  768SOL    HW1 2322   2.288   2.804   1.852
  768SOL    HW2 2323   2.247   2.713   1.722
  769SOL     OW 2324   2.181   2.672   0.949
  769SOL    HW1 2325   2.274   2.708   0.954
  769SOL    HW2 2326   2.175   2.587   1.001
  770SOL     OW 2327   2.201   2.371   1.006
  770SOL    HW1 2328   2.149   2.288   0.989
  770SOL    HW2 2329   2.278   2.376   0.942
  771SOL     OW 2330   2.864   2.658   1.238
  771SOL    HW1 2331   2.905   2.626   1.324
  771SOL    HW2 2332   2.768   2.631   1.235
  772SOL     OW 2333   1.902   2.406   1.114
  772SOL    HW1 2334   1.987   2.373   1.073
  772SOL    HW2 2335   1.915   2.421   1.212
  773SOL     OW 2336   2.051   2.382   1.722
  773SOL    HW1 2337   2.110   2.342   1.652
  773SOL    HW2 2338   1.993   2.453   1.681
  774SOL     OW 2339   2.677   2.434   0.325
  774SOL    HW1 2340   2.684   2.345   0.279
  774SOL    HW2 2341   2.583   2.468   0.317
  775SOL     OW 2342   2.533   2.326   1.269
  775SOL    HW1 2343   2.499   2.237   1.239
  775SOL    HW2 2344   2.559   2.380   1.189
  776SOL     OW 2345   2.335   2.362   0.191
  776SOL    HW1 2346   2.396   2.442   0.195
  776SOL    HW2 2347   2.240   2.393   0.198
  777SOL     OW 2348   2.021   2.999   1.466
  777SOL    HW1 2349   2.043   2.938   1.542
  777SOL    HW2 2350   2.031   2.950   1.380
  778SOL     OW 2351   3.164   2.717   0.309
  778SOL    HW1 2352   3.078   2.686   0.351
  778SOL    HW2 2353   3.160   2.703   0.210
  779SOL     OW 2354   2.765   1.948   0.133
  779SOL    HW1 2355   2.816   1.949   0.047
  779SOL    HW2 2356   2.821   1.906   0.204
  780SOL     OW 2357   2.125   2.188   0.720
  780SOL    HW1 2358   2.046   2.239   0.686
  780SOL    HW2 2359   2.116   2.173   0.818
  781SOL     OW 2360   2.778   2.772   0.291
  781SOL    HW1 2361   2.841   2.810   0.223
  781SOL    HW2 2362   2.818   2.689   0.330
  782SOL     OW 2363   2.876   2.098   0.971
  782SOL    HW1 2364   2.868   2.062   0.878
  782SOL    HW2 2365   2.874   2.022   1.036
  783SOL     OW 2366   1.967   2.875   1.726
  783SOL    HW1 2367   1.890   2.842   1.780
  783SOL    HW2 2368   2.052   2.845   1.768
  784SOL     OW 2369   2.534   2.065   1.489
  784SOL    HW1 2370   2.624   2.049   1.449
  784SOL    HW2 2371   2.542   2.070   1.588
  785SOL     OW 2372   1.937   2.207   0.033
  785SOL    HW1 2373   1.845   2.179   0.004
  785SOL    HW2 2374   1.968   2.284  -0.023
  786SOL     OW 2375   1.934   2.028   0.318
  786SOL    HW1 2376   1.917   2.111   0.264
  786SOL    HW2 2377   2.024   1.991   0.296
  787SOL     OW 2378   2.475   2.704   1.431
  787SOL    HW1 2379   2.531   2.785   1.414
  787SOL    HW2 2380   2.534   2.624   1.434
  788SOL     OW 2381   2.578   2.427   1.708
  788SOL    HW1 2382   2.597   2.492   1.782
  788SOL    HW2 2383   2.638   2.347   1.717
  789SOL     OW 2384   3.087   2.187   0.449
  789SOL    HW1 2385   3.152   2.113   0.438
  789SOL    HW2 2386   3.107   2.237   0.533
  790SOL     OW 2387   2.456   2.607   0.652
  790SOL    HW1 2388   2.506   2.692   0.633
  790SOL    HW2 2389   2.368   2.609   0.604
  791SOL     OW 2390   2.721   2.818   0.861
  791SOL    HW1 2391   2.775   2.749   0.909
  791SOL    HW2 2392   2.689   2.887   0.927
  792SOL     OW 2393   2.945   2.846   0.087
  792SOL    HW1 2394   2.922   2.899   0.005
  792SOL    HW2 2395   3.026   2.790   0.068
  793SOL     OW 2396   1.941   3.102   0.653
  793SOL    HW1 2397   1.940   3.055   0.741
  793SOL    HW2 2398   2.023   3.074   0.602
  794SOL     OW 2399   2.290   2.286   0.520
  794SOL    HW1 2400   2.320   2.214   0.458
  794SOL    HW2 2401   2.251   2.246   0.603
  795SOL     OW 2402   2.179   2.409   1.280
  795SOL    HW1 2403   2.217   2.350   1.352
  795SOL    HW2 2404   2.219   2.383   1.192
  796SOL     OW 2405   2.863   1.896   1.154
  796SOL    HW1 2406   2.800   1.824   1.123
  796SOL    HW2 2407   2.956   1.860   1.154
  797SOL     OW 2408   2.092   2.490   1.975
  797SOL    HW1 2409   1.999   2.488   2.012
  797SOL    HW2 2410   2.093   2.451   1.883
  798SOL     OW 2411   2.087   2.137   2.858
  798SOL    HW1 2412   2.122   2.120   2.950
  798SOL    HW2 2413   1.999   2.092   2.846
  799SOL     OW 2414   1.881   2.230   2.509
  799SOL    HW1 2415   1.799   2.273   2.548
  799SOL    HW2 2416   1.853   2.157   2.446
  800SOL     OW 2417   2.547   2.874   2.527
  800SOL    HW1 2418   2.616   2.858   2.597
  800SOL    HW2 2419   2.474   2.931   2.565
  801SOL     OW 2420   2.102   2.953   2.748
  801SOL    HW1 2421   2.116   2.869   2.800
  801SOL    HW2 2422   2.047   3.017   2.803
  802SOL     OW 2423   2.468   2.826   1.985
  802SOL    HW1 2424   2.475   2.910   1.931
  802SOL    HW2 2425   2.514   2.839   2.073
  803SOL     OW 2426   1.984   2.505   2.425
  803SOL    HW1 2427   1.939   2.417   2.442
  803SOL    HW2 2428   1.983   2.559   2.509
  804SOL     OW 2429   2.671   1.866   2.364
  804SOL    HW1 2430   2.711   1.957   2.355
  804SOL    HW2 2431   2.571   1.874   2.370
  805SOL     OW 2432   2.460   2.591   2.132
  805SOL    HW1 2433   2.484   2.660   2.064
  805SOL    HW2 2434   2.382   2.624   2.186
  806SOL     OW 2435   1.938   2.673   2.651
  806SOL    HW1 2436   2.037   2.661   2.660
  806SOL    HW2 2437   1.914   2.768   2.672
  807SOL     OW 2438   2.727   2.210   2.057
  807SOL    HW1 2439   2.786   2.273   2.008
  807SOL    HW2 2440   2.746   2.116   2.028
  808SOL     OW 2441   2.412   2.058   2.747
  808SOL    HW1 2442   2.407   2.053   2.847
  808SOL    HW2 2443   2.414   2.154   2.718
  809SOL     OW 2444   2.244   2.562   2.342
  809SOL    HW1 2445   2.289   2.472   2.339
  809SOL    HW2 2446   2.150   2.551   2.375
  810SOL     OW 2447   2.476   1.984   1.979
  810SOL    HW1 2448   2.574   1.962   1.986
  810SOL    HW2 2449   2.445   1.967   1.886
  811SOL     OW 2450   2.784   2.365   2.761
  811SOL    HW1 2451   2.759   2.356   2.665
  811SOL    HW2 2452   2.832   2.283   2.792
  812SOL     OW 2453   2.401   1.926   2.374
  812SOL    HW1 2454   2.320   1.927   2.432
  812SOL    HW2 2455   2.404   2.009   2.319
  813SOL     OW 2456   2.159   1.897   2.033
  813SOL    HW1 2457   2.208   1.981   2.012
  813SOL    HW2 2458   2.221   1.832   2.078
  814SOL     OW 2459   2.797   2.098   2.342
  814SOL    HW1 2460   2.749   2.139   2.264
  814SOL    HW2 2461   2.896   2.096   2.323
  815SOL     OW 2462   2.894   2.411   1.878
  815SOL    HW1 2463   2.853   2.493   1.839
  815SOL    HW2 2464   2.958   2.437   1.951
  816SOL     OW 2465   2.728   2.316   2.504
  816SOL    HW1 2466   2.696   2.388   2.442
  816SOL    HW2 2467   2.752   2.235   2.451
  817SOL     OW 2468   2.879   1.901   2.615
  817SOL    HW1 2469   2.807   1.906   2.546
  817SOL    HW2 2470   2.855   1.832   2.684
  818SOL     OW 2471   2.389   2.118   2.190
  818SOL    HW1 2472   2.416   2.059   2.115
  818SOL    HW2 2473   2.389   2.213   2.159
  819SOL     OW 2474   2.973   3.057   2.962
  819SOL    HW1 2475   2.933   3.101   3.043
  819SOL    HW2 2476   2.932   3.094   2.879
  820SOL     OW 2477   2.428   2.399   2.727
  820SOL    HW1 2478   2.440   2.465   2.653
  820SOL    HW2 2479   2.474   2.433   2.810
  821SOL     OW 2480   2.435   2.732   2.891
  821SOL    HW1 2481   2.479   2.821   2.882
  821SOL    HW2 2482   2.372   2.732   2.968
  822SOL     OW 2483   3.071   2.387   2.137
  822SOL    HW1 2484   3.084   2.303   2.191
  822SOL    HW2 2485   3.042   2.461   2.197
  823SOL     OW 2486   2.169   2.075   3.093
  823SOL    HW1 2487   2.146   2.112   3.183
  823SOL    HW2 2488   2.139   1.980   3.087
  824SOL     OW 2489   2.594   2.496   2.926
  824SOL    HW1 2490   2.653   2.470   2.850
  824SOL    HW2 2491   2.566   2.592   2.915
  825SOL     OW 2492   2.169   1.925   2.480
  825SOL    HW1 2493   2.158   2.019   2.513
  825SOL    HW2 2494   2.164   1.862   2.557
  826SOL     OW 2495   2.181   2.672   2.811
  826SOL    HW1 2496   2.274   2.708   2.816
  826SOL    HW2 2497   2.175   2.587   2.863
  827SOL     OW 2498   2.201   2.371   2.868
  827SOL    HW1 2499   2.149   2.288   2.851
  827SOL    HW2 2500   2.278   2.376   2.804
  828SOL     OW 2501   2.677   2.434   2.187
  828SOL    HW1 2502   2.684   2.345   2.141
  828SOL    HW2 2503   2.583   2.468   2.179
  829SOL     OW 2504   2.533   2.326   3.131
  829SOL    HW1 2505   2.499   2.237   3.101
  829SOL    HW2 2506   2.559   2.380   3.051
  830SOL     OW 2507   2.335   2.362   2.053
  830SOL    HW1 2508   2.396   2.442   2.057
  830SOL    HW2 2509   2.240   2.393   2.060
  831SOL     OW 2510   3.164   2.717   2.171
  831SOL    HW1 2511   3.078   2.686   2.213
  831SOL    HW2 2512   3.160   2.703   2.072
  832SOL     OW 2513   2.125   2.188   2.582
  832SOL    HW1 2514   2.046   2.239   2.548
  832SOL    HW2 2515   2.116   2.173   2.680
  833SOL     OW 2516   2.778   2.772   2.153
  833SOL    HW1 2517   2.841   2.810   2.085
  833SOL    HW2 2518   2.818   2.689   2.192
  834SOL     OW 2519   1.937   2.207   1.895
  834SOL    HW1 2520   1.845   2.179   1.866
  834SOL    HW2 2521   1.968   2.284   1.839
  835SOL     OW 2522   1.934   2.028   2.180
  835SOL    HW1 2523   1.917   2.111   2.126
  835SOL    HW2 2524   2.024   1.991   2.158
  836SOL     OW 2525   3.087   2.187   2.311
  836SOL    HW1 2526   3.152   2.113   2.300
  836SOL    HW2 2527   3.107   2.237   2.395
  837SOL     OW 2528   2.456   2.607   2.514
  837SOL    HW1 2529   2.506   2.692   2.495
  837SOL    HW2 2530   2.368   2.609   2.466
  838SOL     OW 2531   2.721   2.818   2.723
  838SOL    HW1 2532   2.775   2.749   2.771
  838SOL    HW2 2533   2.689   2.887   2.789
  839SOL     OW 2534   1.941   3.102   2.515
  839SOL    HW1 2535   1.940   3.055   2.603
  839SOL    HW2 2536   2.023   3.074   2.464
  840SOL     OW 2537   2.290   2.286   2.382
  840SOL    HW1 2538   2.320   2.214   2.320
  840SOL    HW2 2539   2.251   2.246   2.465
   2.93659   2.93659   2.93659
