; mobley_4690963_GMX.itp created by acpype (v: 2023.10.27) on Thu May 14 13:19:59 2026

[ atomtypes ]
;name   bond_type     mass     charge   ptype   sigma         epsilon       Amb
 c3       c3          0.00000  0.00000   A     3.39771e-01   4.51035e-01 ; 1.91  0.1078
 os       os          0.00000  0.00000   A     3.15610e-01   3.03758e-01 ; 1.77  0.0726
 hc       hc          0.00000  0.00000   A     2.60018e-01   8.70272e-02 ; 1.46  0.0208
 h1       h1          0.00000  0.00000   A     2.42200e-01   8.70272e-02 ; 1.36  0.0208

[ moleculetype ]
;name            nrexcl
 mobley_4690963   3

[ atoms ]
;   nr  type  resi  res  atom  cgnr     charge      mass       ; qtot   bond_type
     1   c3     1   MOL    C1    1    -0.097100     12.01000 ; qtot -0.097
     2   c3     1   MOL    C2    2    -0.097100     12.01000 ; qtot -0.194
     3   c3     1   MOL    C3    3     0.132400     12.01000 ; qtot -0.062
     4   c3     1   MOL    C4    4     0.132400     12.01000 ; qtot 0.071
     5   c3     1   MOL    C5    5     0.128400     12.01000 ; qtot 0.199
     6   c3     1   MOL    C6    6     0.128400     12.01000 ; qtot 0.327
     7   os     1   MOL    O1    7    -0.427599     16.00000 ; qtot -0.100
     8   os     1   MOL    O2    8    -0.427599     16.00000 ; qtot -0.528
     9   hc     1   MOL    H1    9     0.045033      1.00800 ; qtot -0.483
    10   hc     1   MOL    H2   10     0.045033      1.00800 ; qtot -0.438
    11   hc     1   MOL    H3   11     0.045033      1.00800 ; qtot -0.393
    12   hc     1   MOL    H4   12     0.045033      1.00800 ; qtot -0.348
    13   hc     1   MOL    H5   13     0.045033      1.00800 ; qtot -0.303
    14   hc     1   MOL    H6   14     0.045033      1.00800 ; qtot -0.258
    15   h1     1   MOL    H7   15     0.025700      1.00800 ; qtot -0.232
    16   h1     1   MOL    H8   16     0.025700      1.00800 ; qtot -0.206
    17   h1     1   MOL    H9   17     0.025700      1.00800 ; qtot -0.181
    18   h1     1   MOL   H10   18     0.025700      1.00800 ; qtot -0.155
    19   h1     1   MOL   H11   19     0.038700      1.00800 ; qtot -0.116
    20   h1     1   MOL   H12   20     0.038700      1.00800 ; qtot -0.077
    21   h1     1   MOL   H13   21     0.038700      1.00800 ; qtot -0.039
    22   h1     1   MOL   H14   22     0.038700      1.00800 ; qtot -0.000

[ bonds ]
;   ai     aj funct   r             k
     1      3   1    1.5354e-01    1.9154e+05 ;     C1 - C3    
     1      9   1    1.0962e-01    2.8891e+05 ;     C1 - H1    
     1     10   1    1.0962e-01    2.8891e+05 ;     C1 - H2    
     1     11   1    1.0962e-01    2.8891e+05 ;     C1 - H3    
     2      4   1    1.5354e-01    1.9154e+05 ;     C2 - C4    
     2     12   1    1.0962e-01    2.8891e+05 ;     C2 - H4    
     2     13   1    1.0962e-01    2.8891e+05 ;     C2 - H5    
     2     14   1    1.0962e-01    2.8891e+05 ;     C2 - H6    
     3      7   1    1.4273e-01    2.3620e+05 ;     C3 - O1    
     3     15   1    1.0969e-01    2.8804e+05 ;     C3 - H7    
     3     16   1    1.0969e-01    2.8804e+05 ;     C3 - H8    
     4      8   1    1.4273e-01    2.3620e+05 ;     C4 - O2    
     4     17   1    1.0969e-01    2.8804e+05 ;     C4 - H9    
     4     18   1    1.0969e-01    2.8804e+05 ;     C4 - H10   
     5      6   1    1.5354e-01    1.9154e+05 ;     C5 - C6    
     5      7   1    1.4273e-01    2.3620e+05 ;     C5 - O1    
     5     19   1    1.0969e-01    2.8804e+05 ;     C5 - H11   
     5     20   1    1.0969e-01    2.8804e+05 ;     C5 - H12   
     6      8   1    1.4273e-01    2.3620e+05 ;     C6 - O2    
     6     21   1    1.0969e-01    2.8804e+05 ;     C6 - H13   
     6     22   1    1.0969e-01    2.8804e+05 ;     C6 - H14   

[ pairs ]
;   ai     aj    funct
     1      5      1 ;     C1 - C5    
     2      6      1 ;     C2 - C6    
     3      6      1 ;     C3 - C6    
     3     19      1 ;     C3 - H11   
     3     20      1 ;     C3 - H12   
     4      5      1 ;     C4 - C5    
     4     21      1 ;     C4 - H13   
     4     22      1 ;     C4 - H14   
     5     15      1 ;     C5 - H7    
     5     16      1 ;     C5 - H8    
     6     17      1 ;     C6 - H9    
     6     18      1 ;     C6 - H10   
     7      8      1 ;     O1 - O2    
     7     21      1 ;     O1 - H13   
     7     22      1 ;     O1 - H14   
     8     12      1 ;     O2 - H4    
     8     13      1 ;     O2 - H5    
     8     14      1 ;     O2 - H6    
     8     19      1 ;     O2 - H11   
     8     20      1 ;     O2 - H12   
     9      7      1 ;     H1 - O1    
     9     15      1 ;     H1 - H7    
     9     16      1 ;     H1 - H8    
    10      7      1 ;     H2 - O1    
    10     15      1 ;     H2 - H7    
    10     16      1 ;     H2 - H8    
    11      7      1 ;     H3 - O1    
    11     15      1 ;     H3 - H7    
    11     16      1 ;     H3 - H8    
    12     17      1 ;     H4 - H9    
    12     18      1 ;     H4 - H10   
    13     17      1 ;     H5 - H9    
    13     18      1 ;     H5 - H10   
    14     17      1 ;     H6 - H9    
    14     18      1 ;     H6 - H10   
    19     21      1 ;    H11 - H13   
    19     22      1 ;    H11 - H14   
    20     21      1 ;    H12 - H13   
    20     22      1 ;    H12 - H14   

[ angles ]
;   ai     aj     ak    funct   theta         cth
     1      3      7      1    1.0762e+02    6.4802e+02 ;     C1 - C3     - O1    
     1      3     15      1    1.0959e+02    3.6217e+02 ;     C1 - C3     - H7    
     1      3     16      1    1.0959e+02    3.6217e+02 ;     C1 - C3     - H8    
     2      4      8      1    1.0762e+02    6.4802e+02 ;     C2 - C4     - O2    
     2      4     17      1    1.0959e+02    3.6217e+02 ;     C2 - C4     - H9    
     2      4     18      1    1.0959e+02    3.6217e+02 ;     C2 - C4     - H10   
     3      1      9      1    1.0968e+02    3.6208e+02 ;     C3 - C1     - H1    
     3      1     10      1    1.0968e+02    3.6208e+02 ;     C3 - C1     - H2    
     3      1     11      1    1.0968e+02    3.6208e+02 ;     C3 - C1     - H3    
     3      7      5      1    1.1360e+02    7.3915e+02 ;     C3 - O1     - C5    
     4      2     12      1    1.0968e+02    3.6208e+02 ;     C4 - C2     - H4    
     4      2     13      1    1.0968e+02    3.6208e+02 ;     C4 - C2     - H5    
     4      2     14      1    1.0968e+02    3.6208e+02 ;     C4 - C2     - H6    
     4      8      6      1    1.1360e+02    7.3915e+02 ;     C4 - O2     - C6    
     5      6      8      1    1.0762e+02    6.4802e+02 ;     C5 - C6     - O2    
     5      6     21      1    1.0959e+02    3.6217e+02 ;     C5 - C6     - H13   
     5      6     22      1    1.0959e+02    3.6217e+02 ;     C5 - C6     - H14   
     6      5      7      1    1.0762e+02    6.4802e+02 ;     C6 - C5     - O1    
     6      5     19      1    1.0959e+02    3.6217e+02 ;     C6 - C5     - H11   
     6      5     20      1    1.0959e+02    3.6217e+02 ;     C6 - C5     - H12   
     7      3     15      1    1.1034e+02    4.7028e+02 ;     O1 - C3     - H7    
     7      3     16      1    1.1034e+02    4.7028e+02 ;     O1 - C3     - H8    
     7      5     19      1    1.1034e+02    4.7028e+02 ;     O1 - C5     - H11   
     7      5     20      1    1.1034e+02    4.7028e+02 ;     O1 - C5     - H12   
     8      4     17      1    1.1034e+02    4.7028e+02 ;     O2 - C4     - H9    
     8      4     18      1    1.1034e+02    4.7028e+02 ;     O2 - C4     - H10   
     8      6     21      1    1.1034e+02    4.7028e+02 ;     O2 - C6     - H13   
     8      6     22      1    1.1034e+02    4.7028e+02 ;     O2 - C6     - H14   
     9      1     10      1    1.0773e+02    2.9957e+02 ;     H1 - C1     - H2    
     9      1     11      1    1.0773e+02    2.9957e+02 ;     H1 - C1     - H3    
    10      1     11      1    1.0773e+02    2.9957e+02 ;     H2 - C1     - H3    
    12      2     13      1    1.0773e+02    2.9957e+02 ;     H4 - C2     - H5    
    12      2     14      1    1.0773e+02    2.9957e+02 ;     H4 - C2     - H6    
    13      2     14      1    1.0773e+02    2.9957e+02 ;     H5 - C2     - H6    
    15      3     16      1    1.0855e+02    2.9824e+02 ;     H7 - C3     - H8    
    17      4     18      1    1.0855e+02    2.9824e+02 ;     H9 - C4     - H10   
    19      5     20      1    1.0855e+02    2.9824e+02 ;    H11 - C5     - H12   
    21      6     22      1    1.0855e+02    2.9824e+02 ;    H13 - C6     - H14   

[ dihedrals ] ; propers
; for gromacs 4.5 or higher, using funct 9
;    i      j      k      l   func   phase     kd      pn
     1      3      7      5      9     0.00   0.33472   2 ;     C1-    C3-    O1-    C5
     1      3      7      5      9     0.00   3.13800   3 ;     C1-    C3-    O1-    C5
     1      3      7      5      9   180.00   3.68192   1 ;     C1-    C3-    O1-    C5
     2      4      8      6      9     0.00   0.33472   2 ;     C2-    C4-    O2-    C6
     2      4      8      6      9     0.00   3.13800   3 ;     C2-    C4-    O2-    C6
     2      4      8      6      9   180.00   3.68192   1 ;     C2-    C4-    O2-    C6
     3      7      5      6      9     0.00   0.33472   2 ;     C3-    O1-    C5-    C6
     3      7      5      6      9     0.00   3.13800   3 ;     C3-    O1-    C5-    C6
     3      7      5      6      9   180.00   3.68192   1 ;     C3-    O1-    C5-    C6
     3      7      5     19      9     0.00   1.41001   3 ;     C3-    O1-    C5-   H11
     3      7      5     20      9     0.00   1.41001   3 ;     C3-    O1-    C5-   H12
     4      8      6      5      9     0.00   0.33472   2 ;     C4-    O2-    C6-    C5
     4      8      6      5      9     0.00   3.13800   3 ;     C4-    O2-    C6-    C5
     4      8      6      5      9   180.00   3.68192   1 ;     C4-    O2-    C6-    C5
     4      8      6     21      9     0.00   1.41001   3 ;     C4-    O2-    C6-   H13
     4      8      6     22      9     0.00   1.41001   3 ;     C4-    O2-    C6-   H14
     5      7      3     15      9     0.00   1.41001   3 ;     C5-    O1-    C3-    H7
     5      7      3     16      9     0.00   1.41001   3 ;     C5-    O1-    C3-    H8
     6      8      4     17      9     0.00   1.41001   3 ;     C6-    O2-    C4-    H9
     6      8      4     18      9     0.00   1.41001   3 ;     C6-    O2-    C4-   H10
     7      5      6      8      9     0.00   0.75312   1 ;     O1-    C5-    C6-    O2
     7      5      6      8      9     0.00   2.09200   3 ;     O1-    C5-    C6-    O2
     7      5      6      8      9     0.00   3.76560   2 ;     O1-    C5-    C6-    O2
     7      5      6     21      9     0.00   0.00000   0 ;     O1-    C5-    C6-   H13
     7      5      6     21      9     0.00   1.04600   1 ;     O1-    C5-    C6-   H13
     7      5      6     22      9     0.00   0.00000   0 ;     O1-    C5-    C6-   H14
     7      5      6     22      9     0.00   1.04600   1 ;     O1-    C5-    C6-   H14
     8      4      2     12      9     0.00   0.00000   0 ;     O2-    C4-    C2-    H4
     8      4      2     12      9     0.00   1.04600   1 ;     O2-    C4-    C2-    H4
     8      4      2     13      9     0.00   0.00000   0 ;     O2-    C4-    C2-    H5
     8      4      2     13      9     0.00   1.04600   1 ;     O2-    C4-    C2-    H5
     8      4      2     14      9     0.00   0.00000   0 ;     O2-    C4-    C2-    H6
     8      4      2     14      9     0.00   1.04600   1 ;     O2-    C4-    C2-    H6
     8      6      5     19      9     0.00   0.00000   0 ;     O2-    C6-    C5-   H11
     8      6      5     19      9     0.00   1.04600   1 ;     O2-    C6-    C5-   H11
     8      6      5     20      9     0.00   0.00000   0 ;     O2-    C6-    C5-   H12
     8      6      5     20      9     0.00   1.04600   1 ;     O2-    C6-    C5-   H12
     9      1      3      7      9     0.00   0.00000   0 ;     H1-    C1-    C3-    O1
     9      1      3      7      9     0.00   1.04600   1 ;     H1-    C1-    C3-    O1
     9      1      3     15      9     0.00   0.65084   3 ;     H1-    C1-    C3-    H7
     9      1      3     16      9     0.00   0.65084   3 ;     H1-    C1-    C3-    H8
    10      1      3      7      9     0.00   0.00000   0 ;     H2-    C1-    C3-    O1
    10      1      3      7      9     0.00   1.04600   1 ;     H2-    C1-    C3-    O1
    10      1      3     15      9     0.00   0.65084   3 ;     H2-    C1-    C3-    H7
    10      1      3     16      9     0.00   0.65084   3 ;     H2-    C1-    C3-    H8
    11      1      3      7      9     0.00   0.00000   0 ;     H3-    C1-    C3-    O1
    11      1      3      7      9     0.00   1.04600   1 ;     H3-    C1-    C3-    O1
    11      1      3     15      9     0.00   0.65084   3 ;     H3-    C1-    C3-    H7
    11      1      3     16      9     0.00   0.65084   3 ;     H3-    C1-    C3-    H8
    12      2      4     17      9     0.00   0.65084   3 ;     H4-    C2-    C4-    H9
    12      2      4     18      9     0.00   0.65084   3 ;     H4-    C2-    C4-   H10
    13      2      4     17      9     0.00   0.65084   3 ;     H5-    C2-    C4-    H9
    13      2      4     18      9     0.00   0.65084   3 ;     H5-    C2-    C4-   H10
    14      2      4     17      9     0.00   0.65084   3 ;     H6-    C2-    C4-    H9
    14      2      4     18      9     0.00   0.65084   3 ;     H6-    C2-    C4-   H10
    19      5      6     21      9     0.00   0.65084   3 ;    H11-    C5-    C6-   H13
    19      5      6     22      9     0.00   0.65084   3 ;    H11-    C5-    C6-   H14
    20      5      6     21      9     0.00   0.65084   3 ;    H12-    C5-    C6-   H13
    20      5      6     22      9     0.00   0.65084   3 ;    H12-    C5-    C6-   H14
