mobley_9741965_GMX.gro created by acpype (v: 2023.10.27) on Thu May 14 13:45:59 2026
 2138
    1MOL     C1    1   1.419   1.268   1.615
    1MOL     C2    2   1.361   1.462   1.464
    1MOL     C3    3   1.359   1.516   1.322
    1MOL     C4    4   1.413   1.318   1.471
    1MOL     N1    5   1.305   1.711   1.196
    1MOL     N2    6   1.578   1.180   1.371
    1MOL     O1    7   1.342   1.636   1.106
    1MOL     O2    8   1.489   1.098   1.390
    1MOL     O3    9   1.264   1.827   1.190
    1MOL     O4   10   1.689   1.165   1.320
    1MOL     O5   11   1.311   1.650   1.324
    1MOL     O6   12   1.543   1.311   1.414
    1MOL     H1   13   1.483   1.332   1.676
    1MOL     H2   14   1.457   1.165   1.619
    1MOL     H3   15   1.319   1.266   1.659
    1MOL     H4   16   1.260   1.468   1.507
    1MOL     H5   17   1.424   1.528   1.525
    1MOL     H6   18   1.459   1.516   1.278
    1MOL     H7   19   1.292   1.457   1.259
    1MOL     H8   20   1.348   1.252   1.413
    2SOL     OW   21   0.230   0.628   0.113
    2SOL    HW1   22   0.137   0.626   0.150
    2SOL    HW2   23   0.231   0.589   0.021
    3SOL     OW   24   0.225   0.275   0.996
    3SOL    HW1   25   0.260   0.258   1.088
    3SOL    HW2   26   0.137   0.230   0.984
    4SOL     OW   27   0.019   0.368   0.647
    4SOL    HW1   28  -0.063   0.411   0.686
    4SOL    HW2   29  -0.009   0.295   0.584
    5SOL     OW   30   0.569   1.275   1.165
    5SOL    HW1   31   0.476   1.268   1.128
    5SOL    HW2   32   0.580   1.364   1.209
    6SOL     OW   33   1.555   1.511   0.703
    6SOL    HW1   34   1.498   1.495   0.784
    6SOL    HW2   35   1.496   1.521   0.623
    7SOL     OW   36   1.135   0.703   0.717
    7SOL    HW1   37   1.192   0.781   0.692
    7SOL    HW2   38   1.075   0.729   0.793
    8SOL     OW   39   1.755   0.607   0.231
    8SOL    HW1   40   1.743   0.594   0.132
    8SOL    HW2   41   1.725   0.526   0.280
    9SOL     OW   42   0.768   1.144   1.023
    9SOL    HW1   43   0.690   1.161   1.083
    9SOL    HW2   44   0.802   1.231   0.987
   10SOL     OW   45   0.850   0.798   1.823
   10SOL    HW1   46   0.846   0.874   1.888
   10SOL    HW2   47   0.872   0.834   1.732
   11SOL     OW   48   0.685   1.012   0.665
   11SOL    HW1   49   0.754   0.996   0.735
   11SOL    HW2   50   0.612   1.069   0.703
   12SOL     OW   51   0.686   1.161   1.803
   12SOL    HW1   52   0.746   1.240   1.817
   12SOL    HW2   53   0.600   1.192   1.762
   13SOL     OW   54   0.335   1.435   1.061
   13SOL    HW1   55   0.257   1.404   1.008
   13SOL    HW2   56   0.393   1.493   1.004
   14SOL     OW   57   0.438   0.392   1.499
   14SOL    HW1   58   0.520   0.336   1.508
   14SOL    HW2   59   0.357   0.334   1.503
   15SOL     OW   60   1.603   0.447   0.737
   15SOL    HW1   61   1.529   0.493   0.687
   15SOL    HW2   62   1.654   0.515   0.790
   16SOL     OW   63   0.231   1.713   0.483
   16SOL    HW1   64   0.265   1.790   0.537
   16SOL    HW2   65   0.275   1.713   0.393
   17SOL     OW   66   1.127   1.341   1.690
   17SOL    HW1   67   1.174   1.341   1.778
   17SOL    HW2   68   1.079   1.254   1.679
   18SOL     OW   69   0.230   1.434   0.538
   18SOL    HW1   70   0.204   1.530   0.538
   18SOL    HW2   71   0.159   1.380   0.583
   19SOL     OW   72   0.240   1.091   0.886
   19SOL    HW1   73   0.254   1.007   0.938
   19SOL    HW2   74   0.185   1.155   0.941
   20SOL     OW   75   0.620   1.786   1.439
   20SOL    HW1   76   0.528   1.769   1.474
   20SOL    HW2   77   0.648   1.878   1.465
   21SOL     OW   78   0.606   0.964   0.123
   21SOL    HW1   79   0.613   1.048   0.069
   21SOL    HW2   80   0.652   0.977   0.211
   22SOL     OW   81   1.594   0.114   1.480
   22SOL    HW1   82   1.576   0.181   1.408
   22SOL    HW2   83   1.591   0.160   1.569
   23SOL     OW   84   0.122   0.643   0.563
   23SOL    HW1   85   0.077   0.555   0.580
   23SOL    HW2   86   0.121   0.697   0.647
   24SOL     OW   87   1.842   1.767   0.359
   24SOL    HW1   88   1.896   1.738   0.439
   24SOL    HW2   89   1.872   1.857   0.330
   25SOL     OW   90   0.027   1.596   0.117
   25SOL    HW1   91   0.008   1.500   0.138
   25SOL    HW2   92  -0.006   1.654   0.192
   26SOL     OW   93   1.689   0.922   0.612
   26SOL    HW1   94   1.784   0.893   0.620
   26SOL    HW2   95   1.681   0.987   0.537
   27SOL     OW   96   1.641   1.108   0.432
   27SOL    HW1   97   1.727   1.110   0.380
   27SOL    HW2   98   1.655   1.155   0.520
   28SOL     OW   99   0.113   0.737   1.597
   28SOL    HW1  100   0.201   0.724   1.642
   28SOL    HW2  101   0.100   0.834   1.575
   29SOL     OW  102   0.613   1.365   0.726
   29SOL    HW1  103   0.564   1.278   0.735
   29SOL    HW2  104   0.590   1.408   0.639
   30SOL     OW  105   0.809   0.004   0.502
   30SOL    HW1  106   0.849   0.095   0.493
   30SOL    HW2  107   0.709   0.012   0.508
   31SOL     OW  108   0.197   0.976   1.264
   31SOL    HW1  109   0.286   0.931   1.250
   31SOL    HW2  110   0.124   0.911   1.245
   32SOL     OW  111   1.525   0.999   0.190
   32SOL    HW1  112   1.462   0.923   0.203
   32SOL    HW2  113   1.573   1.017   0.276
   33SOL     OW  114   1.187   1.792   1.616
   33SOL    HW1  115   1.211   1.852   1.540
   33SOL    HW2  116   1.194   1.697   1.586
   34SOL     OW  117   0.317   0.251   1.801
   34SOL    HW1  118   0.388   0.322   1.807
   34SOL    HW2  119   0.229   0.290   1.829
   35SOL     OW  120   1.466   1.417   0.953
   35SOL    HW1  121   1.407   1.423   1.033
   35SOL    HW2  122   1.451   1.329   0.907
   36SOL     OW  123   1.667   1.714   0.572
   36SOL    HW1  124   1.626   1.691   0.484
   36SOL    HW2  125   1.649   1.640   0.637
   37SOL     OW  126   0.598   0.729   0.270
   37SOL    HW1  127   0.622   0.798   0.202
   37SOL    HW2  128   0.520   0.762   0.324
   38SOL     OW  129   1.281   0.345   0.944
   38SOL    HW1  130   1.195   0.295   0.931
   38SOL    HW2  131   1.343   0.291   1.000
   39SOL     OW  132   1.576   1.662   0.307
   39SOL    HW1  133   1.665   1.708   0.310
   39SOL    HW2  134   1.555   1.638   0.212
   40SOL     OW  135   0.807   0.605   1.465
   40SOL    HW1  136   0.760   0.602   1.554
   40SOL    HW2  137   0.756   0.550   1.399
   41SOL     OW  138   1.394   0.469   1.674
   41SOL    HW1  139   1.374   0.512   1.762
   41SOL    HW2  140   1.472   0.407   1.683
   42SOL     OW  141   0.973   0.890   1.572
   42SOL    HW1  142   1.019   0.806   1.543
   42SOL    HW2  143   0.917   0.924   1.497
   43SOL     OW  144   0.991   0.410   1.242
   43SOL    HW1  145   0.914   0.444   1.296
   43SOL    HW2  146   0.957   0.359   1.163
   44SOL     OW  147   1.041   0.701   0.429
   44SOL    HW1  148   1.067   0.697   0.525
   44SOL    HW2  149   0.956   0.650   0.415
   45SOL     OW  150   0.076   0.811   0.789
   45SOL    HW1  151   0.175   0.799   0.798
   45SOL    HW2  152   0.052   0.906   0.810
   46SOL     OW  153   0.130   1.821   1.571
   46SOL    HW1  154   0.120   1.806   1.670
   46SOL    HW2  155   0.044   1.857   1.535
   47SOL     OW  156   0.865   0.348   0.195
   47SOL    HW1  157   0.924   0.411   0.146
   47SOL    HW2  158   0.884   0.254   0.166
   48SOL     OW  159   1.719   0.585   1.831
   48SOL    HW1  160   1.693   0.674   1.795
   48SOL    HW2  161   1.717   0.517   1.758
   49SOL     OW  162   1.362   1.144   0.545
   49SOL    HW1  163   1.445   1.115   0.497
   49SOL    HW2  164   1.313   1.211   0.489
   50SOL     OW  165   0.550   0.196   0.885
   50SOL    HW1  166   0.545   0.191   0.985
   50SOL    HW2  167   0.552   0.292   0.856
   51SOL     OW  168   1.008   1.456   0.477
   51SOL    HW1  169   0.962   1.528   0.425
   51SOL    HW2  170   1.004   1.476   0.575
   52SOL     OW  171   0.351   1.801   0.853
   52SOL    HW1  172   0.401   1.715   0.859
   52SOL    HW2  173   0.416   1.878   0.850
   53SOL     OW  174   1.795   1.066   0.873
   53SOL    HW1  175   1.733   1.051   0.797
   53SOL    HW2  176   1.743   1.077   0.958
   54SOL     OW  177   0.321   0.943   0.242
   54SOL    HW1  178   0.403   0.982   0.200
   54SOL    HW2  179   0.294   0.861   0.193
   55SOL     OW  180   1.458   0.735   0.728
   55SOL    HW1  181   1.453   0.670   0.803
   55SOL    HW2  182   1.538   0.794   0.741
   56SOL     OW  183   0.461   1.266   1.727
   56SOL    HW1  184   0.411   1.267   1.641
   56SOL    HW2  185   0.398   1.248   1.803
   57SOL     OW  186   1.111   1.776   0.237
   57SOL    HW1  187   1.051   1.714   0.287
   57SOL    HW2  188   1.142   1.732   0.152
   58SOL     OW  189   0.202   0.285   1.498
   58SOL    HW1  190   0.122   0.345   1.485
   58SOL    HW2  191   0.192   0.236   1.584
   59SOL     OW  192   1.632   1.377   0.081
   59SOL    HW1  193   1.600   1.471   0.071
   59SOL    HW2  194   1.556   1.314   0.069
   60SOL     OW  195   0.464   1.743   0.323
   60SOL    HW1  196   0.497   1.782   0.409
   60SOL    HW2  197   0.540   1.736   0.258
   61SOL     OW  198   1.400   0.107   0.426
   61SOL    HW1  199   1.376   0.070   0.336
   61SOL    HW2  200   1.499   0.123   0.430
   62SOL     OW  201   0.249   1.785   1.241
   62SOL    HW1  202   0.306   1.720   1.291
   62SOL    HW2  203   0.233   1.752   1.148
   63SOL     OW  204   0.940   1.698   0.904
   63SOL    HW1  205   1.020   1.641   0.925
   63SOL    HW2  206   0.891   1.658   0.827
   64SOL     OW  207   0.382   0.700   0.480
   64SOL    HW1  208   0.427   0.610   0.477
   64SOL    HW2  209   0.288   0.689   0.513
   65SOL     OW  210   1.547   0.222   1.729
   65SOL    HW1  211   1.542   0.259   1.821
   65SOL    HW2  212   1.475   0.153   1.717
   66SOL     OW  213   0.614   0.122   0.117
   66SOL    HW1  214   0.712   0.100   0.124
   66SOL    HW2  215   0.583   0.105   0.024
   67SOL     OW  216   0.781   0.264   1.749
   67SOL    HW1  217   0.848   0.203   1.792
   67SOL    HW2  218   0.708   0.283   1.814
   68SOL     OW  219   0.888   1.514   1.195
   68SOL    HW1  220   0.865   1.489   1.101
   68SOL    HW2  221   0.949   1.445   1.234
   69SOL     OW  222   1.351   0.590   1.433
   69SOL    HW1  223   1.379   0.547   1.518
   69SOL    HW2  224   1.376   0.686   1.434
   70SOL     OW  225   0.803   1.402   0.924
   70SOL    HW1  226   0.893   1.416   0.882
   70SOL    HW2  227   0.732   1.404   0.853
   71SOL     OW  228   0.922   0.503   0.899
   71SOL    HW1  229   0.897   0.494   0.803
   71SOL    HW2  230   0.970   0.421   0.930
   72SOL     OW  231   0.539   0.064   0.512
   72SOL    HW1  232   0.458   0.065   0.570
   72SOL    HW2  233   0.542   0.147   0.457
   73SOL     OW  234   1.434   1.188   0.041
   73SOL    HW1  235   1.466   1.112   0.098
   73SOL    HW2  236   1.342   1.215   0.071
   74SOL     OW  237   0.297   0.035   0.171
   74SOL    HW1  238   0.346   0.119   0.150
   74SOL    HW2  239   0.359  -0.030   0.216
   75SOL     OW  240   0.935   0.236   0.480
   75SOL    HW1  241   0.887   0.277   0.402
   75SOL    HW2  242   1.034   0.234   0.461
   76SOL     OW  243   1.076   0.683   1.464
   76SOL    HW1  244   0.996   0.622   1.467
   76SOL    HW2  245   1.157   0.630   1.440
   77SOL     OW  246   1.227   1.570   0.793
   77SOL    HW1  247   1.248   1.644   0.728
   77SOL    HW2  248   1.295   1.570   0.866
   78SOL     OW  249   0.459   1.152   0.741
   78SOL    HW1  250   0.388   1.125   0.806
   78SOL    HW2  251   0.433   1.124   0.648
   79SOL     OW  252   1.271   1.797   0.591
   79SOL    HW1  253   1.315   1.861   0.527
   79SOL    HW2  254   1.221   1.849   0.661
   80SOL     OW  255   1.032   0.549   0.016
   80SOL    HW1  256   0.991   0.631  -0.023
   80SOL    HW2  257   1.096   0.575   0.089
   81SOL     OW  258   0.078   0.556   1.386
   81SOL    HW1  259   0.170   0.555   1.345
   81SOL    HW2  260   0.072   0.630   1.453
   82SOL     OW  261   0.561   0.222   1.147
   82SOL    HW1  262   0.599   0.138   1.184
   82SOL    HW2  263   0.473   0.241   1.191
   83SOL     OW  264   0.866   0.454   0.642
   83SOL    HW1  265   0.834   0.526   0.580
   83SOL    HW2  266   0.890   0.373   0.589
   84SOL     OW  267   1.017   0.039   0.753
   84SOL    HW1  268   0.945   0.044   0.684
   84SOL    HW2  269   0.993  -0.030   0.822
   85SOL     OW  270   1.429   1.173   0.867
   85SOL    HW1  271   1.374   1.089   0.860
   85SOL    HW2  272   1.455   1.202   0.775
   86SOL     OW  273   1.466   0.590   0.992
   86SOL    HW1  274   1.436   0.495   0.999
   86SOL    HW2  275   1.539   0.606   1.058
   87SOL     OW  276   1.857   0.833   0.377
   87SOL    HW1  277   1.899   0.769   0.441
   87SOL    HW2  278   1.819   0.782   0.299
   88SOL     OW  279   0.488   1.385   0.174
   88SOL    HW1  280   0.401   1.370   0.221
   88SOL    HW2  281   0.471   1.411   0.079
   89SOL     OW  282   1.664   1.280   0.657
   89SOL    HW1  283   1.763   1.288   0.671
   89SOL    HW2  284   1.619   1.364   0.688
   90SOL     OW  285   1.390   0.575   0.078
   90SOL    HW1  286   1.336   0.554   0.159
   90SOL    HW2  287   1.481   0.534   0.087
   91SOL     OW  288   0.527   0.256   0.328
   91SOL    HW1  289   0.554   0.197   0.253
   91SOL    HW2  290   0.527   0.351   0.297
   92SOL     OW  291   1.754   1.223   1.588
   92SOL    HW1  292   1.845   1.184   1.575
   92SOL    HW2  293   1.762   1.319   1.612
   93SOL     OW  294   1.064   1.347   1.340
   93SOL    HW1  295   0.984   1.324   1.395
   93SOL    HW2  296   1.147   1.321   1.389
   94SOL     OW  297   1.592   1.629   1.625
   94SOL    HW1  298   1.619   1.663   1.535
   94SOL    HW2  299   1.671   1.591   1.671
   95SOL     OW  300   1.111   1.195   1.100
   95SOL    HW1  301   1.071   1.239   1.181
   95SOL    HW2  302   1.070   1.232   1.017
   96SOL     OW  303   1.638   1.099   1.079
   96SOL    HW1  304   1.643   1.180   1.138
   96SOL    HW2  305   1.552   1.101   1.028
   97SOL     OW  306   0.915   0.089   1.402
   97SOL    HW1  307   0.940   0.069   1.307
   97SOL    HW2  308   0.987   0.145   1.444
   98SOL     OW  309   0.980   1.116   1.719
   98SOL    HW1  310   0.881   1.122   1.729
   98SOL    HW2  311   1.003   1.036   1.663
   99SOL     OW  312   0.705   1.050   0.368
   99SOL    HW1  313   0.691   1.057   0.467
   99SOL    HW2  314   0.789   0.999   0.350
  100SOL     OW  315   0.410   0.813   1.251
  100SOL    HW1  316   0.496   0.825   1.301
  100SOL    HW2  317   0.368   0.726   1.278
  101SOL     OW  318   1.274   0.386   1.262
  101SOL    HW1  319   1.295   0.460   1.326
  101SOL    HW2  320   1.185   0.403   1.219
  102SOL     OW  321   0.064   1.564   1.331
  102SOL    HW1  322   0.018   1.646   1.297
  102SOL    HW2  323   0.162   1.583   1.340
  103SOL     OW  324   0.367   1.100   0.501
  103SOL    HW1  325   0.360   1.183   0.445
  103SOL    HW2  326   0.371   1.020   0.441
  104SOL     OW  327   0.566   0.537   0.865
  104SOL    HW1  328   0.578   0.603   0.791
  104SOL    HW2  329   0.612   0.571   0.948
  105SOL     OW  330   1.252   1.348   0.388
  105SOL    HW1  331   1.302   1.425   0.428
  105SOL    HW2  332   1.157   1.350   0.420
  106SOL     OW  333   1.582   0.639   0.472
  106SOL    HW1  334   1.551   0.700   0.545
  106SOL    HW2  335   1.632   0.691   0.403
  107SOL     OW  336   0.354   1.510   1.329
  107SOL    HW1  337   0.333   1.466   1.242
  107SOL    HW2  338   0.451   1.536   1.332
  108SOL     OW  339   0.402   0.751   1.598
  108SOL    HW1  340   0.470   0.806   1.551
  108SOL    HW2  341   0.442   0.663   1.625
  109SOL     OW  342   1.587   0.779   1.670
  109SOL    HW1  343   1.495   0.817   1.665
  109SOL    HW2  344   1.647   0.826   1.605
  110SOL     OW  345   1.013   0.105   1.770
  110SOL    HW1  346   1.019   0.190   1.718
  110SOL    HW2  347   1.045   0.029   1.713
  111SOL     OW  348   0.504   0.050   1.740
  111SOL    HW1  349   0.462  -0.007   1.670
  111SOL    HW2  350   0.438   0.119   1.772
  112SOL     OW  351   0.573   0.870   1.029
  112SOL    HW1  352   0.617   0.959   1.020
  112SOL    HW2  353   0.510   0.870   1.106
  113SOL     OW  354   1.360   0.862   1.045
  113SOL    HW1  355   1.285   0.862   0.979
  113SOL    HW2  356   1.397   0.770   1.054
  114SOL     OW  357   1.209   0.525   0.275
  114SOL    HW1  358   1.222   0.441   0.329
  114SOL    HW2  359   1.180   0.599   0.335
  115SOL     OW  360   0.307   0.213   1.231
  115SOL    HW1  361   0.284   0.250   1.321
  115SOL    HW2  362   0.277   0.118   1.225
  116SOL     OW  363   0.037   1.310   1.282
  116SOL    HW1  364   0.090   1.261   1.350
  116SOL    HW2  365   0.059   1.408   1.287
  117SOL     OW  366   0.732   0.634   1.064
  117SOL    HW1  367   0.791   0.608   0.988
  117SOL    HW2  368   0.704   0.730   1.053
  118SOL     OW  369   1.728   0.935   1.854
  118SOL    HW1  370   1.682   0.928   1.765
  118SOL    HW2  371   1.666   0.979   1.920
  119SOL     OW  372   0.307   0.063   0.618
  119SOL    HW1  373   0.296   0.157   0.651
  119SOL    HW2  374   0.302   0.000   0.695
  120SOL     OW  375   1.622   0.367   0.374
  120SOL    HW1  376   1.624   0.291   0.438
  120SOL    HW2  377   1.574   0.444   0.414
  121SOL     OW  378   1.023   0.766   0.966
  121SOL    HW1  379   1.038   0.787   1.062
  121SOL    HW2  380   0.993   0.671   0.957
  122SOL     OW  381   0.980   1.573   1.700
  122SOL    HW1  382   0.960   1.617   1.612
  122SOL    HW2  383   1.019   1.482   1.684
  123SOL     OW  384   1.859   1.518   1.605
  123SOL    HW1  385   1.873   1.545   1.510
  123SOL    HW2  386   1.942   1.540   1.658
  124SOL     OW  387   0.350   0.898   1.804
  124SOL    HW1  388   0.426   0.942   1.852
  124SOL    HW2  389   0.385   0.851   1.722
  125SOL     OW  390   1.540   0.274   0.125
  125SOL    HW1  391   1.479   0.199   0.148
  125SOL    HW2  392   1.562   0.326   0.208
  126SOL     OW  393   1.303   0.838   0.042
  126SOL    HW1  394   1.337   0.745   0.057
  126SOL    HW2  395   1.321   0.865  -0.053
  127SOL     OW  396   1.068   1.333   0.849
  127SOL    HW1  397   1.075   1.249   0.794
  127SOL    HW2  398   1.130   1.402   0.813
  128SOL     OW  399   0.319   0.810   0.949
  128SOL    HW1  400   0.412   0.846   0.954
  128SOL    HW2  401   0.313   0.725   1.001
  129SOL     OW  402   0.339   0.509   1.006
  129SOL    HW1  403   0.287   0.426   0.989
  129SOL    HW2  404   0.416   0.514   0.942
  130SOL     OW  405   1.138   0.380   1.678
  130SOL    HW1  406   1.093   0.443   1.742
  130SOL    HW2  407   1.231   0.411   1.661
  131SOL     OW  408   1.160   0.207   1.477
  131SOL    HW1  409   1.160   0.271   1.554
  131SOL    HW2  410   1.188   0.255   1.394
  132SOL     OW  411   0.008   1.326   0.200
  132SOL    HW1  412  -0.085   1.347   0.169
  132SOL    HW2  413   0.018   1.227   0.213
  133SOL     OW  414   0.088   1.801   0.927
  133SOL    HW1  415   0.046   1.715   0.900
  133SOL    HW2  416   0.182   1.804   0.893
  134SOL     OW  417   0.504   1.568   0.910
  134SOL    HW1  418   0.570   1.642   0.919
  134SOL    HW2  419   0.548   1.489   0.868
  135SOL     OW  420   1.002   0.796   1.238
  135SOL    HW1  421   1.043   0.764   1.324
  135SOL    HW2  422   0.906   0.769   1.235
  136SOL     OW  423   0.040   0.544   1.114
  136SOL    HW1  424   0.125   0.511   1.073
  136SOL    HW2  425   0.053   0.559   1.212
  137SOL     OW  426   0.189   0.520   1.722
  137SOL    HW1  427   0.248   0.480   1.652
  137SOL    HW2  428   0.131   0.591   1.681
  138SOL     OW  429   1.369   0.950   1.660
  138SOL    HW1  430   1.408   1.039   1.680
  138SOL    HW2  431   1.379   0.930   1.563
  139SOL     OW  432   0.815   0.572   0.325
  139SOL    HW1  433   0.822   0.483   0.279
  139SOL    HW2  434   0.721   0.606   0.317
  140SOL     OW  435   1.657   0.604   1.206
  140SOL    HW1  436   1.619   0.535   1.268
  140SOL    HW2  437   1.739   0.568   1.162
  141SOL     OW  438   0.252   1.564   1.744
  141SOL    HW1  439   0.222   1.621   1.820
  141SOL    HW2  440   0.245   1.467   1.770
  142SOL     OW  441   0.671   0.464   1.269
  142SOL    HW1  442   0.637   0.375   1.239
  142SOL    HW2  443   0.697   0.518   1.189
  143SOL     OW  444   0.930   1.678   1.465
  143SOL    HW1  445   0.906   1.660   1.370
  143SOL    HW2  446   0.960   1.772   1.475
  144SOL     OW  447   0.473   0.500   0.191
  144SOL    HW1  448   0.534   0.580   0.195
  144SOL    HW2  449   0.378   0.531   0.198
  145SOL     OW  450   0.159   1.137   1.466
  145SOL    HW1  451   0.181   1.076   1.542
  145SOL    HW2  452   0.169   1.088   1.380
  146SOL     OW  453   1.347   1.059   1.234
  146SOL    HW1  454   1.371   0.996   1.160
  146SOL    HW2  455   1.257   1.099   1.216
  147SOL     OW  456   1.302   0.855   0.309
  147SOL    HW1  457   1.216   0.824   0.351
  147SOL    HW2  458   1.298   0.841   0.210
  148SOL     OW  459   1.759   1.747   1.154
  148SOL    HW1  460   1.820   1.777   1.081
  148SOL    HW2  461   1.721   1.658   1.132
  149SOL     OW  462   0.083   1.258   1.022
  149SOL    HW1  463   0.078   1.257   1.122
  149SOL    HW2  464   0.000   1.217   0.984
  150SOL     OW  465   0.688   1.662   1.716
  150SOL    HW1  466   0.632   1.743   1.725
  150SOL    HW2  467   0.740   1.666   1.630
  151SOL     OW  468   0.903   0.086   0.133
  151SOL    HW1  469   0.954   0.087   0.047
  151SOL    HW2  470   0.959   0.044   0.204
  152SOL     OW  471   1.726   0.135   0.523
  152SOL    HW1  472   1.799   0.118   0.456
  152SOL    HW2  473   1.695   0.048   0.561
  153SOL     OW  474   1.388   1.573   0.477
  153SOL    HW1  475   1.455   1.585   0.403
  153SOL    HW2  476   1.348   1.662   0.500
  154SOL     OW  477   0.130   1.794   1.851
  154SOL    HW1  478   0.089   1.720   1.904
  154SOL    HW2  479   0.194   1.845   1.909
  155SOL     OW  480   1.280   0.927   0.672
  155SOL    HW1  481   1.340   0.846   0.674
  155SOL    HW2  482   1.320   0.996   0.612
  156SOL     OW  483   0.830   1.273   1.422
  156SOL    HW1  484   0.825   1.306   1.517
  156SOL    HW2  485   0.744   1.292   1.376
  157SOL     OW  486   0.672   1.616   0.154
  157SOL    HW1  487   0.681   1.626   0.055
  157SOL    HW2  488   0.632   1.527   0.175
  158SOL     OW  489   1.650   1.720   1.394
  158SOL    HW1  490   1.703   1.730   1.310
  158SOL    HW2  491   1.623   1.810   1.428
  159SOL     OW  492   1.841   0.175   0.963
  159SOL    HW1  493   1.880   0.090   0.927
  159SOL    HW2  494   1.743   0.177   0.944
  160SOL     OW  495   0.263   0.326   0.720
  160SOL    HW1  496   0.184   0.377   0.686
  160SOL    HW2  497   0.254   0.311   0.818
  161SOL     OW  498   1.194   1.612   0.031
  161SOL    HW1  499   1.200   1.519   0.068
  161SOL    HW2  500   1.135   1.612  -0.049
  162SOL     OW  501   0.822   1.002   1.372
  162SOL    HW1  502   0.862   1.001   1.280
  162SOL    HW2  503   0.832   1.094   1.412
  163SOL     OW  504   0.916   0.910   0.291
  163SOL    HW1  505   0.979   0.948   0.223
  163SOL    HW2  506   0.956   0.827   0.330
  164SOL     OW  507   1.504   1.607   0.044
  164SOL    HW1  508   1.412   1.644   0.051
  164SOL    HW2  509   1.542   1.627  -0.046
  165SOL     OW  510   0.372   1.288   1.490
  165SOL    HW1  511   0.359   1.381   1.456
  165SOL    HW2  512   0.288   1.236   1.477
  166SOL     OW  513   1.039   1.098   0.696
  166SOL    HW1  514   0.969   1.051   0.750
  166SOL    HW2  515   1.098   1.030   0.653
  167SOL     OW  516   1.014   0.236   0.971
  167SOL    HW1  517   1.006   0.200   0.878
  167SOL    HW2  518   1.012   0.160   1.036
  168SOL     OW  519   0.590   1.487   0.491
  168SOL    HW1  520   0.632   1.429   0.421
  168SOL    HW2  521   0.546   1.566   0.447
  169SOL     OW  522   1.709   0.385   1.381
  169SOL    HW1  523   1.782   0.454   1.385
  169SOL    HW2  524   1.737   0.310   1.322
  170SOL     OW  525   0.255   1.348   0.290
  170SOL    HW1  526   0.159   1.349   0.263
  170SOL    HW2  527   0.267   1.401   0.374
  171SOL     OW  528   0.105   1.013   1.726
  171SOL    HW1  529   0.028   0.980   1.780
  171SOL    HW2  530   0.190   0.983   1.768
  172SOL     OW  531   0.672   0.203   1.489
  172SOL    HW1  532   0.762   0.187   1.449
  172SOL    HW2  533   0.680   0.208   1.588
  173SOL     OW  534   0.075   0.345   0.033
  173SOL    HW1  535  -0.017   0.317   0.004
  173SOL    HW2  536   0.106   0.422  -0.023
  174SOL     OW  537   1.440   0.856   1.398
  174SOL    HW1  538   1.383   0.908   1.335
  174SOL    HW2  539   1.536   0.868   1.374
  175SOL     OW  540   0.072   0.166   0.318
  175SOL    HW1  541   0.055   0.249   0.264
  175SOL    HW2  542   0.162   0.129   0.296
  176SOL     OW  543   1.183   1.335   0.119
  176SOL    HW1  544   1.084   1.324   0.121
  176SOL    HW2  545   1.217   1.350   0.212
  177SOL     OW  546   0.613   0.842   1.431
  177SOL    HW1  547   0.669   0.923   1.414
  177SOL    HW2  548   0.672   0.762   1.434
  178SOL     OW  549   1.493   1.767   0.959
  178SOL    HW1  550   1.526   1.831   0.890
  178SOL    HW2  551   1.559   1.761   1.034
  179SOL     OW  552   0.716   0.565   1.708
  179SOL    HW1  553   0.735   0.630   1.782
  179SOL    HW2  554   0.776   0.485   1.717
  180SOL     OW  555   0.390   1.741   1.560
  180SOL    HW1  556   0.299   1.782   1.558
  180SOL    HW2  557   0.383   1.647   1.592
  181SOL     OW  558   1.674   0.883   1.254
  181SOL    HW1  559   1.647   0.794   1.217
  181SOL    HW2  560   1.675   0.951   1.181
  182SOL     OW  561   1.225   0.325   0.449
  182SOL    HW1  562   1.290   0.251   0.438
  182SOL    HW2  563   1.245   0.375   0.533
  183SOL     OW  564   0.594   0.745   0.652
  183SOL    HW1  565   0.644   0.830   0.633
  183SOL    HW2  566   0.506   0.747   0.604
  184SOL     OW  567   1.777   0.342   1.642
  184SOL    HW1  568   1.760   0.373   1.548
  184SOL    HW2  569   1.693   0.305   1.680
  185SOL     OW  570   1.730   0.934   1.517
  185SOL    HW1  571   1.768   1.025   1.532
  185SOL    HW2  572   1.722   0.917   1.418
  186SOL     OW  573   0.859   1.374   0.016
  186SOL    HW1  574   0.813   1.389   0.104
  186SOL    HW2  575   0.903   1.459  -0.014
  187SOL     OW  576   0.661   1.790   0.953
  187SOL    HW1  577   0.615   1.878   0.940
  187SOL    HW2  578   0.760   1.802   0.946
  188SOL     OW  579   0.859   0.956   0.861
  188SOL    HW1  580   0.913   0.887   0.909
  188SOL    HW2  581   0.827   1.025   0.927
  189SOL     OW  582   1.083   0.984   0.087
  189SOL    HW1  583   1.060   1.037   0.005
  189SOL    HW2  584   1.164   0.928   0.068
  190SOL     OW  585   1.861   1.569   0.851
  190SOL    HW1  586   1.790   1.557   0.781
  190SOL    HW2  587   1.862   1.490   0.911
  191SOL     OW  588   0.221   1.314   1.844
  191SOL    HW1  589   0.156   1.241   1.823
  191SOL    HW2  590   0.225   1.328   1.942
  192SOL     OW  591   0.079   1.240   0.653
  192SOL    HW1  592   0.078   1.193   0.741
  192SOL    HW2  593   0.161   1.212   0.602
  193SOL     OW  594   0.672   1.391   1.624
  193SOL    HW1  595   0.594   1.341   1.662
  193SOL    HW2  596   0.669   1.486   1.655
  194SOL     OW  597   1.824   0.192   1.227
  194SOL    HW1  598   1.820   0.102   1.271
  194SOL    HW2  599   1.827   0.181   1.128
  195SOL     OW  600   0.428   0.424   0.520
  195SOL    HW1  601   0.458   0.352   0.458
  195SOL    HW2  602   0.389   0.384   0.603
  196SOL     OW  603   1.705   1.487   1.104
  196SOL    HW1  604   1.612   1.462   1.077
  196SOL    HW2  605   1.731   1.437   1.186
  197SOL     OW  606   0.317   0.547   1.280
  197SOL    HW1  607   0.355   0.488   1.352
  197SOL    HW2  608   0.357   0.521   1.192
  198SOL     OW  609   0.812   1.586   0.687
  198SOL    HW1  610   0.844   1.596   0.593
  198SOL    HW2  611   0.733   1.524   0.689
  199SOL     OW  612   1.424   0.214   1.112
  199SOL    HW1  613   1.476   0.149   1.167
  199SOL    HW2  614   1.375   0.277   1.173
  200SOL     OW  615   1.001   0.034   1.154
  200SOL    HW1  616   0.938  -0.038   1.123
  200SOL    HW2  617   1.094  -0.002   1.154
  201SOL     OW  618   0.770   1.330   0.301
  201SOL    HW1  619   0.724   1.243   0.318
  201SOL    HW2  620   0.861   1.327   0.342
  202SOL     OW  621   0.618   1.567   1.284
  202SOL    HW1  622   0.613   1.649   1.341
  202SOL    HW2  623   0.707   1.564   1.239
  203SOL     OW  624   1.352   0.052   0.168
  203SOL    HW1  625   1.387   0.011   0.084
  203SOL    HW2  626   1.262   0.014   0.188
  204SOL     OW  627   1.300   0.453   0.691
  204SOL    HW1  628   1.241   0.533   0.695
  204SOL    HW2  629   1.315   0.418   0.784
  205SOL     OW  630   1.593   0.221   0.882
  205SOL    HW1  631   1.509   0.220   0.936
  205SOL    HW2  632   1.595   0.304   0.826
  206SOL     OW  633   0.039   1.077   0.300
  206SOL    HW1  634   0.138   1.066   0.291
  206SOL    HW2  635  -0.001   0.991   0.332
  207SOL     OW  636   0.875   1.646   0.337
  207SOL    HW1  637   0.798   1.611   0.283
  207SOL    HW2  638   0.843   1.717   0.399
  208SOL     OW  639   0.230   0.628   1.975
  208SOL    HW1  640   0.137   0.626   2.012
  208SOL    HW2  641   0.231   0.589   1.883
  209SOL     OW  642   0.019   0.368   2.509
  209SOL    HW1  643  -0.063   0.411   2.548
  209SOL    HW2  644  -0.009   0.295   2.446
  210SOL     OW  645   1.555   1.511   2.565
  210SOL    HW1  646   1.498   1.495   2.646
  210SOL    HW2  647   1.496   1.521   2.485
  211SOL     OW  648   1.135   0.703   2.579
  211SOL    HW1  649   1.192   0.781   2.554
  211SOL    HW2  650   1.075   0.729   2.655
  212SOL     OW  651   1.755   0.607   2.093
  212SOL    HW1  652   1.743   0.594   1.994
  212SOL    HW2  653   1.725   0.526   2.142
  213SOL     OW  654   0.768   1.144   2.885
  213SOL    HW1  655   0.690   1.161   2.945
  213SOL    HW2  656   0.802   1.231   2.849
  214SOL     OW  657   0.685   1.012   2.527
  214SOL    HW1  658   0.754   0.996   2.597
  214SOL    HW2  659   0.612   1.069   2.565
  215SOL     OW  660   1.603   0.447   2.599
  215SOL    HW1  661   1.529   0.493   2.549
  215SOL    HW2  662   1.654   0.515   2.652
  216SOL     OW  663   0.231   1.713   2.345
  216SOL    HW1  664   0.265   1.790   2.399
  216SOL    HW2  665   0.275   1.713   2.255
  217SOL     OW  666   0.230   1.434   2.400
  217SOL    HW1  667   0.204   1.530   2.400
  217SOL    HW2  668   0.159   1.380   2.445
  218SOL     OW  669   0.240   1.091   2.748
  218SOL    HW1  670   0.254   1.007   2.800
  218SOL    HW2  671   0.185   1.155   2.803
  219SOL     OW  672   0.606   0.964   1.985
  219SOL    HW1  673   0.613   1.048   1.931
  219SOL    HW2  674   0.652   0.977   2.073
  220SOL     OW  675   0.122   0.643   2.425
  220SOL    HW1  676   0.077   0.555   2.442
  220SOL    HW2  677   0.121   0.697   2.509
  221SOL     OW  678   1.842   1.767   2.221
  221SOL    HW1  679   1.896   1.738   2.301
  221SOL    HW2  680   1.872   1.857   2.192
  222SOL     OW  681   0.027   1.596   1.979
  222SOL    HW1  682   0.008   1.500   2.000
  222SOL    HW2  683  -0.006   1.654   2.054
  223SOL     OW  684   1.689   0.922   2.474
  223SOL    HW1  685   1.784   0.893   2.482
  223SOL    HW2  686   1.681   0.987   2.399
  224SOL     OW  687   1.641   1.108   2.294
  224SOL    HW1  688   1.727   1.110   2.242
  224SOL    HW2  689   1.655   1.155   2.382
  225SOL     OW  690   0.613   1.365   2.588
  225SOL    HW1  691   0.564   1.278   2.597
  225SOL    HW2  692   0.590   1.408   2.501
  226SOL     OW  693   0.809   0.004   2.364
  226SOL    HW1  694   0.849   0.095   2.355
  226SOL    HW2  695   0.709   0.012   2.370
  227SOL     OW  696   1.525   0.999   2.052
  227SOL    HW1  697   1.462   0.923   2.065
  227SOL    HW2  698   1.573   1.017   2.138
  228SOL     OW  699   1.667   1.714   2.434
  228SOL    HW1  700   1.626   1.691   2.346
  228SOL    HW2  701   1.649   1.640   2.499
  229SOL     OW  702   0.598   0.729   2.132
  229SOL    HW1  703   0.622   0.798   2.064
  229SOL    HW2  704   0.520   0.762   2.186
  230SOL     OW  705   1.281   0.345   2.806
  230SOL    HW1  706   1.195   0.295   2.793
  230SOL    HW2  707   1.343   0.291   2.862
  231SOL     OW  708   1.576   1.662   2.169
  231SOL    HW1  709   1.665   1.708   2.172
  231SOL    HW2  710   1.555   1.638   2.074
  232SOL     OW  711   1.041   0.701   2.291
  232SOL    HW1  712   1.067   0.697   2.387
  232SOL    HW2  713   0.956   0.650   2.277
  233SOL     OW  714   0.076   0.811   2.651
  233SOL    HW1  715   0.175   0.799   2.660
  233SOL    HW2  716   0.052   0.906   2.672
  234SOL     OW  717   0.865   0.348   2.057
  234SOL    HW1  718   0.924   0.411   2.008
  234SOL    HW2  719   0.884   0.254   2.028
  235SOL     OW  720   1.362   1.144   2.407
  235SOL    HW1  721   1.445   1.115   2.359
  235SOL    HW2  722   1.313   1.211   2.351
  236SOL     OW  723   1.008   1.456   2.339
  236SOL    HW1  724   0.962   1.528   2.287
  236SOL    HW2  725   1.004   1.476   2.437
  237SOL     OW  726   0.351   1.801   2.715
  237SOL    HW1  727   0.401   1.715   2.721
  237SOL    HW2  728   0.416   1.878   2.712
  238SOL     OW  729   1.795   1.066   2.735
  238SOL    HW1  730   1.733   1.051   2.659
  238SOL    HW2  731   1.743   1.077   2.820
  239SOL     OW  732   0.321   0.943   2.104
  239SOL    HW1  733   0.403   0.982   2.062
  239SOL    HW2  734   0.294   0.861   2.055
  240SOL     OW  735   1.458   0.735   2.590
  240SOL    HW1  736   1.453   0.670   2.665
  240SOL    HW2  737   1.538   0.794   2.603
  241SOL     OW  738   1.111   1.776   2.099
  241SOL    HW1  739   1.051   1.714   2.149
  241SOL    HW2  740   1.142   1.732   2.014
  242SOL     OW  741   1.632   1.377   1.943
  242SOL    HW1  742   1.600   1.471   1.933
  242SOL    HW2  743   1.556   1.314   1.931
  243SOL     OW  744   0.464   1.743   2.185
  243SOL    HW1  745   0.497   1.782   2.271
  243SOL    HW2  746   0.540   1.736   2.120
  244SOL     OW  747   1.400   0.107   2.288
  244SOL    HW1  748   1.376   0.070   2.198
  244SOL    HW2  749   1.499   0.123   2.292
  245SOL     OW  750   0.382   0.700   2.342
  245SOL    HW1  751   0.427   0.610   2.339
  245SOL    HW2  752   0.288   0.689   2.375
  246SOL     OW  753   0.614   0.122   1.979
  246SOL    HW1  754   0.712   0.100   1.986
  246SOL    HW2  755   0.583   0.105   1.886
  247SOL     OW  756   0.539   0.064   2.374
  247SOL    HW1  757   0.458   0.065   2.432
  247SOL    HW2  758   0.542   0.147   2.319
  248SOL     OW  759   1.434   1.188   1.903
  248SOL    HW1  760   1.466   1.112   1.960
  248SOL    HW2  761   1.342   1.215   1.933
  249SOL     OW  762   0.297   0.035   2.033
  249SOL    HW1  763   0.346   0.119   2.012
  249SOL    HW2  764   0.359  -0.030   2.078
  250SOL     OW  765   0.935   0.236   2.342
  250SOL    HW1  766   0.887   0.277   2.264
  250SOL    HW2  767   1.034   0.234   2.323
  251SOL     OW  768   0.459   1.152   2.603
  251SOL    HW1  769   0.388   1.125   2.668
  251SOL    HW2  770   0.433   1.124   2.510
  252SOL     OW  771   1.271   1.797   2.453
  252SOL    HW1  772   1.315   1.861   2.389
  252SOL    HW2  773   1.221   1.849   2.523
  253SOL     OW  774   1.032   0.549   1.878
  253SOL    HW1  775   0.991   0.631   1.839
  253SOL    HW2  776   1.096   0.575   1.951
  254SOL     OW  777   0.866   0.454   2.504
  254SOL    HW1  778   0.834   0.526   2.442
  254SOL    HW2  779   0.890   0.373   2.451
  255SOL     OW  780   1.017   0.039   2.615
  255SOL    HW1  781   0.945   0.044   2.546
  255SOL    HW2  782   0.993  -0.030   2.684
  256SOL     OW  783   1.857   0.833   2.239
  256SOL    HW1  784   1.899   0.769   2.303
  256SOL    HW2  785   1.819   0.782   2.161
  257SOL     OW  786   0.488   1.385   2.036
  257SOL    HW1  787   0.401   1.370   2.083
  257SOL    HW2  788   0.471   1.411   1.941
  258SOL     OW  789   1.664   1.280   2.519
  258SOL    HW1  790   1.763   1.288   2.533
  258SOL    HW2  791   1.619   1.364   2.550
  259SOL     OW  792   1.390   0.575   1.940
  259SOL    HW1  793   1.336   0.554   2.021
  259SOL    HW2  794   1.481   0.534   1.949
  260SOL     OW  795   0.527   0.256   2.190
  260SOL    HW1  796   0.554   0.197   2.115
  260SOL    HW2  797   0.527   0.351   2.159
  261SOL     OW  798   0.705   1.050   2.230
  261SOL    HW1  799   0.691   1.057   2.329
  261SOL    HW2  800   0.789   0.999   2.212
  262SOL     OW  801   0.367   1.100   2.363
  262SOL    HW1  802   0.360   1.183   2.307
  262SOL    HW2  803   0.371   1.020   2.303
  263SOL     OW  804   0.566   0.537   2.727
  263SOL    HW1  805   0.578   0.603   2.653
  263SOL    HW2  806   0.612   0.571   2.810
  264SOL     OW  807   1.252   1.348   2.250
  264SOL    HW1  808   1.302   1.425   2.290
  264SOL    HW2  809   1.157   1.350   2.282
  265SOL     OW  810   1.582   0.639   2.334
  265SOL    HW1  811   1.551   0.700   2.407
  265SOL    HW2  812   1.632   0.691   2.265
  266SOL     OW  813   1.209   0.525   2.137
  266SOL    HW1  814   1.222   0.441   2.191
  266SOL    HW2  815   1.180   0.599   2.197
  267SOL     OW  816   0.732   0.634   2.926
  267SOL    HW1  817   0.791   0.608   2.850
  267SOL    HW2  818   0.704   0.730   2.915
  268SOL     OW  819   0.307   0.063   2.480
  268SOL    HW1  820   0.296   0.157   2.513
  268SOL    HW2  821   0.302   0.000   2.557
  269SOL     OW  822   1.622   0.367   2.236
  269SOL    HW1  823   1.624   0.291   2.300
  269SOL    HW2  824   1.574   0.444   2.276
  270SOL     OW  825   1.540   0.274   1.987
  270SOL    HW1  826   1.479   0.199   2.010
  270SOL    HW2  827   1.562   0.326   2.070
  271SOL     OW  828   1.303   0.838   1.904
  271SOL    HW1  829   1.337   0.745   1.919
  271SOL    HW2  830   1.321   0.865   1.809
  272SOL     OW  831   1.068   1.333   2.711
  272SOL    HW1  832   1.075   1.249   2.656
  272SOL    HW2  833   1.130   1.402   2.675
  273SOL     OW  834   0.008   1.326   2.062
  273SOL    HW1  835  -0.085   1.347   2.031
  273SOL    HW2  836   0.018   1.227   2.075
  274SOL     OW  837   0.088   1.801   2.789
  274SOL    HW1  838   0.046   1.715   2.762
  274SOL    HW2  839   0.182   1.804   2.755
  275SOL     OW  840   0.504   1.568   2.772
  275SOL    HW1  841   0.570   1.642   2.781
  275SOL    HW2  842   0.548   1.489   2.730
  276SOL     OW  843   0.815   0.572   2.187
  276SOL    HW1  844   0.822   0.483   2.141
  276SOL    HW2  845   0.721   0.606   2.179
  277SOL     OW  846   0.473   0.500   2.053
  277SOL    HW1  847   0.534   0.580   2.057
  277SOL    HW2  848   0.378   0.531   2.060
  278SOL     OW  849   1.302   0.855   2.171
  278SOL    HW1  850   1.216   0.824   2.213
  278SOL    HW2  851   1.298   0.841   2.072
  279SOL     OW  852   1.726   0.135   2.385
  279SOL    HW1  853   1.799   0.118   2.318
  279SOL    HW2  854   1.695   0.048   2.423
  280SOL     OW  855   1.388   1.573   2.339
  280SOL    HW1  856   1.455   1.585   2.265
  280SOL    HW2  857   1.348   1.662   2.362
  281SOL     OW  858   1.280   0.927   2.534
  281SOL    HW1  859   1.340   0.846   2.536
  281SOL    HW2  860   1.320   0.996   2.474
  282SOL     OW  861   0.672   1.616   2.016
  282SOL    HW1  862   0.681   1.626   1.917
  282SOL    HW2  863   0.632   1.527   2.037
  283SOL     OW  864   1.841   0.175   2.825
  283SOL    HW1  865   1.880   0.090   2.789
  283SOL    HW2  866   1.743   0.177   2.806
  284SOL     OW  867   0.263   0.326   2.582
  284SOL    HW1  868   0.184   0.377   2.548
  284SOL    HW2  869   0.254   0.311   2.680
  285SOL     OW  870   1.194   1.612   1.893
  285SOL    HW1  871   1.200   1.519   1.930
  285SOL    HW2  872   1.135   1.612   1.813
  286SOL     OW  873   0.916   0.910   2.153
  286SOL    HW1  874   0.979   0.948   2.085
  286SOL    HW2  875   0.956   0.827   2.192
  287SOL     OW  876   1.504   1.607   1.906
  287SOL    HW1  877   1.412   1.644   1.913
  287SOL    HW2  878   1.542   1.627   1.816
  288SOL     OW  879   1.039   1.098   2.558
  288SOL    HW1  880   0.969   1.051   2.612
  288SOL    HW2  881   1.098   1.030   2.515
  289SOL     OW  882   0.590   1.487   2.353
  289SOL    HW1  883   0.632   1.429   2.283
  289SOL    HW2  884   0.546   1.566   2.309
  290SOL     OW  885   0.255   1.348   2.152
  290SOL    HW1  886   0.159   1.349   2.125
  290SOL    HW2  887   0.267   1.401   2.236
  291SOL     OW  888   0.075   0.345   1.895
  291SOL    HW1  889  -0.017   0.317   1.866
  291SOL    HW2  890   0.106   0.422   1.839
  292SOL     OW  891   0.072   0.166   2.180
  292SOL    HW1  892   0.055   0.249   2.126
  292SOL    HW2  893   0.162   0.129   2.158
  293SOL     OW  894   1.183   1.335   1.981
  293SOL    HW1  895   1.084   1.324   1.983
  293SOL    HW2  896   1.217   1.350   2.074
  294SOL     OW  897   1.225   0.325   2.311
  294SOL    HW1  898   1.290   0.251   2.300
  294SOL    HW2  899   1.245   0.375   2.395
  295SOL     OW  900   0.594   0.745   2.514
  295SOL    HW1  901   0.644   0.830   2.495
  295SOL    HW2  902   0.506   0.747   2.466
  296SOL     OW  903   0.859   1.374   1.878
  296SOL    HW1  904   0.813   1.389   1.966
  296SOL    HW2  905   0.903   1.459   1.848
  297SOL     OW  906   0.661   1.790   2.815
  297SOL    HW1  907   0.615   1.878   2.802
  297SOL    HW2  908   0.760   1.802   2.808
  298SOL     OW  909   0.859   0.956   2.723
  298SOL    HW1  910   0.913   0.887   2.771
  298SOL    HW2  911   0.827   1.025   2.789
  299SOL     OW  912   1.083   0.984   1.949
  299SOL    HW1  913   1.060   1.037   1.867
  299SOL    HW2  914   1.164   0.928   1.930
  300SOL     OW  915   1.861   1.569   2.713
  300SOL    HW1  916   1.790   1.557   2.643
  300SOL    HW2  917   1.862   1.490   2.773
  301SOL     OW  918   0.079   1.240   2.515
  301SOL    HW1  919   0.078   1.193   2.603
  301SOL    HW2  920   0.161   1.212   2.464
  302SOL     OW  921   1.824   0.192   3.089
  302SOL    HW1  922   1.820   0.102   3.133
  302SOL    HW2  923   1.827   0.181   2.990
  303SOL     OW  924   0.428   0.424   2.382
  303SOL    HW1  925   0.458   0.352   2.320
  303SOL    HW2  926   0.389   0.384   2.465
  304SOL     OW  927   0.812   1.586   2.549
  304SOL    HW1  928   0.844   1.596   2.455
  304SOL    HW2  929   0.733   1.524   2.551
  305SOL     OW  930   0.770   1.330   2.163
  305SOL    HW1  931   0.724   1.243   2.180
  305SOL    HW2  932   0.861   1.327   2.204
  306SOL     OW  933   1.352   0.052   2.030
  306SOL    HW1  934   1.387   0.011   1.946
  306SOL    HW2  935   1.262   0.014   2.050
  307SOL     OW  936   1.300   0.453   2.553
  307SOL    HW1  937   1.241   0.533   2.557
  307SOL    HW2  938   1.315   0.418   2.646
  308SOL     OW  939   0.039   1.077   2.162
  308SOL    HW1  940   0.138   1.066   2.153
  308SOL    HW2  941  -0.001   0.991   2.194
  309SOL     OW  942   0.875   1.646   2.199
  309SOL    HW1  943   0.798   1.611   2.145
  309SOL    HW2  944   0.843   1.717   2.261
  310SOL     OW  945   0.230   2.490   0.113
  310SOL    HW1  946   0.137   2.488   0.150
  310SOL    HW2  947   0.231   2.451   0.021
  311SOL     OW  948   0.225   2.137   0.996
  311SOL    HW1  949   0.260   2.120   1.088
  311SOL    HW2  950   0.137   2.092   0.984
  312SOL     OW  951   0.019   2.230   0.647
  312SOL    HW1  952  -0.063   2.273   0.686
  312SOL    HW2  953  -0.009   2.157   0.584
  313SOL     OW  954   1.135   2.565   0.717
  313SOL    HW1  955   1.192   2.643   0.692
  313SOL    HW2  956   1.075   2.591   0.793
  314SOL     OW  957   1.755   2.469   0.231
  314SOL    HW1  958   1.743   2.456   0.132
  314SOL    HW2  959   1.725   2.388   0.280
  315SOL     OW  960   0.850   2.660   1.823
  315SOL    HW1  961   0.846   2.736   1.888
  315SOL    HW2  962   0.872   2.696   1.732
  316SOL     OW  963   0.685   2.874   0.665
  316SOL    HW1  964   0.754   2.858   0.735
  316SOL    HW2  965   0.612   2.931   0.703
  317SOL     OW  966   0.438   2.254   1.499
  317SOL    HW1  967   0.520   2.198   1.508
  317SOL    HW2  968   0.357   2.196   1.503
  318SOL     OW  969   1.603   2.309   0.737
  318SOL    HW1  970   1.529   2.355   0.687
  318SOL    HW2  971   1.654   2.377   0.790
  319SOL     OW  972   1.594   1.976   1.480
  319SOL    HW1  973   1.576   2.043   1.408
  319SOL    HW2  974   1.591   2.022   1.569
  320SOL     OW  975   0.122   2.505   0.563
  320SOL    HW1  976   0.077   2.417   0.580
  320SOL    HW2  977   0.121   2.559   0.647
  321SOL     OW  978   0.113   2.599   1.597
  321SOL    HW1  979   0.201   2.586   1.642
  321SOL    HW2  980   0.100   2.696   1.575
  322SOL     OW  981   0.809   1.866   0.502
  322SOL    HW1  982   0.849   1.957   0.493
  322SOL    HW2  983   0.709   1.874   0.508
  323SOL     OW  984   0.317   2.113   1.801
  323SOL    HW1  985   0.388   2.184   1.807
  323SOL    HW2  986   0.229   2.152   1.829
  324SOL     OW  987   0.598   2.591   0.270
  324SOL    HW1  988   0.622   2.660   0.202
  324SOL    HW2  989   0.520   2.624   0.324
  325SOL     OW  990   1.281   2.207   0.944
  325SOL    HW1  991   1.195   2.157   0.931
  325SOL    HW2  992   1.343   2.153   1.000
  326SOL     OW  993   0.807   2.467   1.465
  326SOL    HW1  994   0.760   2.464   1.554
  326SOL    HW2  995   0.756   2.412   1.399
  327SOL     OW  996   1.394   2.331   1.674
  327SOL    HW1  997   1.374   2.374   1.762
  327SOL    HW2  998   1.472   2.269   1.683
  328SOL     OW  999   0.991   2.272   1.242
  328SOL    HW1 1000   0.914   2.306   1.296
  328SOL    HW2 1001   0.957   2.221   1.163
  329SOL     OW 1002   1.041   2.563   0.429
  329SOL    HW1 1003   1.067   2.559   0.525
  329SOL    HW2 1004   0.956   2.512   0.415
  330SOL     OW 1005   0.076   2.673   0.789
  330SOL    HW1 1006   0.175   2.661   0.798
  330SOL    HW2 1007   0.052   2.768   0.810
  331SOL     OW 1008   0.865   2.210   0.195
  331SOL    HW1 1009   0.924   2.273   0.146
  331SOL    HW2 1010   0.884   2.116   0.166
  332SOL     OW 1011   1.719   2.447   1.831
  332SOL    HW1 1012   1.693   2.536   1.795
  332SOL    HW2 1013   1.717   2.379   1.758
  333SOL     OW 1014   0.550   2.058   0.885
  333SOL    HW1 1015   0.545   2.053   0.985
  333SOL    HW2 1016   0.552   2.154   0.856
  334SOL     OW 1017   1.458   2.597   0.728
  334SOL    HW1 1018   1.453   2.532   0.803
  334SOL    HW2 1019   1.538   2.656   0.741
  335SOL     OW 1020   0.202   2.147   1.498
  335SOL    HW1 1021   0.122   2.207   1.485
  335SOL    HW2 1022   0.192   2.098   1.584
  336SOL     OW 1023   1.400   1.969   0.426
  336SOL    HW1 1024   1.376   1.932   0.336
  336SOL    HW2 1025   1.499   1.985   0.430
  337SOL     OW 1026   0.382   2.562   0.480
  337SOL    HW1 1027   0.427   2.472   0.477
  337SOL    HW2 1028   0.288   2.551   0.513
  338SOL     OW 1029   1.547   2.084   1.729
  338SOL    HW1 1030   1.542   2.121   1.821
  338SOL    HW2 1031   1.475   2.015   1.717
  339SOL     OW 1032   0.781   2.126   1.749
  339SOL    HW1 1033   0.848   2.065   1.792
  339SOL    HW2 1034   0.708   2.145   1.814
  340SOL     OW 1035   1.351   2.452   1.433
  340SOL    HW1 1036   1.379   2.409   1.518
  340SOL    HW2 1037   1.376   2.548   1.434
  341SOL     OW 1038   0.922   2.365   0.899
  341SOL    HW1 1039   0.897   2.356   0.803
  341SOL    HW2 1040   0.970   2.283   0.930
  342SOL     OW 1041   0.539   1.926   0.512
  342SOL    HW1 1042   0.458   1.927   0.570
  342SOL    HW2 1043   0.542   2.009   0.457
  343SOL     OW 1044   0.297   1.897   0.171
  343SOL    HW1 1045   0.346   1.981   0.150
  343SOL    HW2 1046   0.359   1.832   0.216
  344SOL     OW 1047   0.935   2.098   0.480
  344SOL    HW1 1048   0.887   2.139   0.402
  344SOL    HW2 1049   1.034   2.096   0.461
  345SOL     OW 1050   1.076   2.545   1.464
  345SOL    HW1 1051   0.996   2.484   1.467
  345SOL    HW2 1052   1.157   2.492   1.440
  346SOL     OW 1053   1.032   2.411   0.016
  346SOL    HW1 1054   0.991   2.493  -0.023
  346SOL    HW2 1055   1.096   2.437   0.089
  347SOL     OW 1056   0.078   2.418   1.386
  347SOL    HW1 1057   0.170   2.417   1.345
  347SOL    HW2 1058   0.072   2.492   1.453
  348SOL     OW 1059   0.561   2.084   1.147
  348SOL    HW1 1060   0.599   2.000   1.184
  348SOL    HW2 1061   0.473   2.103   1.191
  349SOL     OW 1062   0.866   2.316   0.642
  349SOL    HW1 1063   0.834   2.388   0.580
  349SOL    HW2 1064   0.890   2.235   0.589
  350SOL     OW 1065   1.017   1.901   0.753
  350SOL    HW1 1066   0.945   1.906   0.684
  350SOL    HW2 1067   0.993   1.832   0.822
  351SOL     OW 1068   1.466   2.452   0.992
  351SOL    HW1 1069   1.436   2.357   0.999
  351SOL    HW2 1070   1.539   2.468   1.058
  352SOL     OW 1071   1.857   2.695   0.377
  352SOL    HW1 1072   1.899   2.631   0.441
  352SOL    HW2 1073   1.819   2.644   0.299
  353SOL     OW 1074   1.390   2.437   0.078
  353SOL    HW1 1075   1.336   2.416   0.159
  353SOL    HW2 1076   1.481   2.396   0.087
  354SOL     OW 1077   0.527   2.118   0.328
  354SOL    HW1 1078   0.554   2.059   0.253
  354SOL    HW2 1079   0.527   2.213   0.297
  355SOL     OW 1080   0.915   1.951   1.402
  355SOL    HW1 1081   0.940   1.931   1.307
  355SOL    HW2 1082   0.987   2.007   1.444
  356SOL     OW 1083   0.410   2.675   1.251
  356SOL    HW1 1084   0.496   2.687   1.301
  356SOL    HW2 1085   0.368   2.588   1.278
  357SOL     OW 1086   1.274   2.248   1.262
  357SOL    HW1 1087   1.295   2.322   1.326
  357SOL    HW2 1088   1.185   2.265   1.219
  358SOL     OW 1089   0.566   2.399   0.865
  358SOL    HW1 1090   0.578   2.465   0.791
  358SOL    HW2 1091   0.612   2.433   0.948
  359SOL     OW 1092   1.582   2.501   0.472
  359SOL    HW1 1093   1.551   2.562   0.545
  359SOL    HW2 1094   1.632   2.553   0.403
  360SOL     OW 1095   0.402   2.613   1.598
  360SOL    HW1 1096   0.470   2.668   1.551
  360SOL    HW2 1097   0.442   2.525   1.625
  361SOL     OW 1098   1.587   2.641   1.670
  361SOL    HW1 1099   1.495   2.679   1.665
  361SOL    HW2 1100   1.647   2.688   1.605
  362SOL     OW 1101   1.013   1.967   1.770
  362SOL    HW1 1102   1.019   2.052   1.718
  362SOL    HW2 1103   1.045   1.891   1.713
  363SOL     OW 1104   0.504   1.912   1.740
  363SOL    HW1 1105   0.462   1.855   1.670
  363SOL    HW2 1106   0.438   1.981   1.772
  364SOL     OW 1107   0.573   2.732   1.029
  364SOL    HW1 1108   0.617   2.821   1.020
  364SOL    HW2 1109   0.510   2.732   1.106
  365SOL     OW 1110   1.360   2.724   1.045
  365SOL    HW1 1111   1.285   2.724   0.979
  365SOL    HW2 1112   1.397   2.632   1.054
  366SOL     OW 1113   1.209   2.387   0.275
  366SOL    HW1 1114   1.222   2.303   0.329
  366SOL    HW2 1115   1.180   2.461   0.335
  367SOL     OW 1116   0.307   2.075   1.231
  367SOL    HW1 1117   0.284   2.112   1.321
  367SOL    HW2 1118   0.277   1.980   1.225
  368SOL     OW 1119   0.732   2.496   1.064
  368SOL    HW1 1120   0.791   2.470   0.988
  368SOL    HW2 1121   0.704   2.592   1.053
  369SOL     OW 1122   1.728   2.797   1.854
  369SOL    HW1 1123   1.682   2.790   1.765
  369SOL    HW2 1124   1.666   2.841   1.920
  370SOL     OW 1125   0.307   1.925   0.618
  370SOL    HW1 1126   0.296   2.019   0.651
  370SOL    HW2 1127   0.302   1.862   0.695
  371SOL     OW 1128   1.622   2.229   0.374
  371SOL    HW1 1129   1.624   2.153   0.438
  371SOL    HW2 1130   1.574   2.306   0.414
  372SOL     OW 1131   1.023   2.628   0.966
  372SOL    HW1 1132   1.038   2.649   1.062
  372SOL    HW2 1133   0.993   2.533   0.957
  373SOL     OW 1134   1.540   2.136   0.125
  373SOL    HW1 1135   1.479   2.061   0.148
  373SOL    HW2 1136   1.562   2.188   0.208
  374SOL     OW 1137   0.319   2.672   0.949
  374SOL    HW1 1138   0.412   2.708   0.954
  374SOL    HW2 1139   0.313   2.587   1.001
  375SOL     OW 1140   0.339   2.371   1.006
  375SOL    HW1 1141   0.287   2.288   0.989
  375SOL    HW2 1142   0.416   2.376   0.942
  376SOL     OW 1143   1.138   2.242   1.678
  376SOL    HW1 1144   1.093   2.305   1.742
  376SOL    HW2 1145   1.231   2.273   1.661
  377SOL     OW 1146   1.160   2.069   1.477
  377SOL    HW1 1147   1.160   2.133   1.554
  377SOL    HW2 1148   1.188   2.117   1.394
  378SOL     OW 1149   1.002   2.658   1.238
  378SOL    HW1 1150   1.043   2.626   1.324
  378SOL    HW2 1151   0.906   2.631   1.235
  379SOL     OW 1152   0.040   2.406   1.114
  379SOL    HW1 1153   0.125   2.373   1.073
  379SOL    HW2 1154   0.053   2.421   1.212
  380SOL     OW 1155   0.189   2.382   1.722
  380SOL    HW1 1156   0.248   2.342   1.652
  380SOL    HW2 1157   0.131   2.453   1.681
  381SOL     OW 1158   0.815   2.434   0.325
  381SOL    HW1 1159   0.822   2.345   0.279
  381SOL    HW2 1160   0.721   2.468   0.317
  382SOL     OW 1161   1.657   2.466   1.206
  382SOL    HW1 1162   1.619   2.397   1.268
  382SOL    HW2 1163   1.739   2.430   1.162
  383SOL     OW 1164   0.671   2.326   1.269
  383SOL    HW1 1165   0.637   2.237   1.239
  383SOL    HW2 1166   0.697   2.380   1.189
  384SOL     OW 1167   0.473   2.362   0.191
  384SOL    HW1 1168   0.534   2.442   0.195
  384SOL    HW2 1169   0.378   2.393   0.198
  385SOL     OW 1170   0.903   1.948   0.133
  385SOL    HW1 1171   0.954   1.949   0.047
  385SOL    HW2 1172   0.959   1.906   0.204
  386SOL     OW 1173   1.726   1.997   0.523
  386SOL    HW1 1174   1.799   1.980   0.456
  386SOL    HW2 1175   1.695   1.910   0.561
  387SOL     OW 1176   1.280   2.789   0.672
  387SOL    HW1 1177   1.340   2.708   0.674
  387SOL    HW2 1178   1.320   2.858   0.612
  388SOL     OW 1179   1.841   2.037   0.963
  388SOL    HW1 1180   1.880   1.952   0.927
  388SOL    HW2 1181   1.743   2.039   0.944
  389SOL     OW 1182   0.263   2.188   0.720
  389SOL    HW1 1183   0.184   2.239   0.686
  389SOL    HW2 1184   0.254   2.173   0.818
  390SOL     OW 1185   1.014   2.098   0.971
  390SOL    HW1 1186   1.006   2.062   0.878
  390SOL    HW2 1187   1.012   2.022   1.036
  391SOL     OW 1188   1.709   2.247   1.381
  391SOL    HW1 1189   1.782   2.316   1.385
  391SOL    HW2 1190   1.737   2.172   1.322
  392SOL     OW 1191   0.105   2.875   1.726
  392SOL    HW1 1192   0.028   2.842   1.780
  392SOL    HW2 1193   0.190   2.845   1.768
  393SOL     OW 1194   0.672   2.065   1.489
  393SOL    HW1 1195   0.762   2.049   1.449
  393SOL    HW2 1196   0.680   2.070   1.588
  394SOL     OW 1197   0.075   2.207   0.033
  394SOL    HW1 1198  -0.017   2.179   0.004
  394SOL    HW2 1199   0.106   2.284  -0.023
  395SOL     OW 1200   1.440   2.718   1.398
  395SOL    HW1 1201   1.383   2.770   1.335
  395SOL    HW2 1202   1.536   2.730   1.374
  396SOL     OW 1203   0.072   2.028   0.318
  396SOL    HW1 1204   0.055   2.111   0.264
  396SOL    HW2 1205   0.162   1.991   0.296
  397SOL     OW 1206   0.613   2.704   1.431
  397SOL    HW1 1207   0.669   2.785   1.414
  397SOL    HW2 1208   0.672   2.624   1.434
  398SOL     OW 1209   0.716   2.427   1.708
  398SOL    HW1 1210   0.735   2.492   1.782
  398SOL    HW2 1211   0.776   2.347   1.717
  399SOL     OW 1212   1.674   2.745   1.254
  399SOL    HW1 1213   1.647   2.656   1.217
  399SOL    HW2 1214   1.675   2.813   1.181
  400SOL     OW 1215   1.225   2.187   0.449
  400SOL    HW1 1216   1.290   2.113   0.438
  400SOL    HW2 1217   1.245   2.237   0.533
  401SOL     OW 1218   0.594   2.607   0.652
  401SOL    HW1 1219   0.644   2.692   0.633
  401SOL    HW2 1220   0.506   2.609   0.604
  402SOL     OW 1221   1.777   2.204   1.642
  402SOL    HW1 1222   1.760   2.235   1.548
  402SOL    HW2 1223   1.693   2.167   1.680
  403SOL     OW 1224   1.730   2.796   1.517
  403SOL    HW1 1225   1.768   2.887   1.532
  403SOL    HW2 1226   1.722   2.779   1.418
  404SOL     OW 1227   1.824   2.054   1.227
  404SOL    HW1 1228   1.820   1.964   1.271
  404SOL    HW2 1229   1.827   2.043   1.128
  405SOL     OW 1230   0.428   2.286   0.520
  405SOL    HW1 1231   0.458   2.214   0.458
  405SOL    HW2 1232   0.389   2.246   0.603
  406SOL     OW 1233   0.317   2.409   1.280
  406SOL    HW1 1234   0.355   2.350   1.352
  406SOL    HW2 1235   0.357   2.383   1.192
  407SOL     OW 1236   1.424   2.076   1.112
  407SOL    HW1 1237   1.476   2.011   1.167
  407SOL    HW2 1238   1.375   2.139   1.173
  408SOL     OW 1239   1.001   1.896   1.154
  408SOL    HW1 1240   0.938   1.824   1.123
  408SOL    HW2 1241   1.094   1.860   1.154
  409SOL     OW 1242   1.352   1.914   0.168
  409SOL    HW1 1243   1.387   1.873   0.084
  409SOL    HW2 1244   1.262   1.876   0.188
  410SOL     OW 1245   1.300   2.315   0.691
  410SOL    HW1 1246   1.241   2.395   0.695
  410SOL    HW2 1247   1.315   2.280   0.784
  411SOL     OW 1248   1.593   2.083   0.882
  411SOL    HW1 1249   1.509   2.082   0.936
  411SOL    HW2 1250   1.595   2.166   0.826
  412SOL     OW 1251   0.230   2.490   1.975
  412SOL    HW1 1252   0.137   2.488   2.012
  412SOL    HW2 1253   0.231   2.451   1.883
  413SOL     OW 1254   0.019   2.230   2.509
  413SOL    HW1 1255  -0.063   2.273   2.548
  413SOL    HW2 1256  -0.009   2.157   2.446
  414SOL     OW 1257   1.135   2.565   2.579
  414SOL    HW1 1258   1.192   2.643   2.554
  414SOL    HW2 1259   1.075   2.591   2.655
  415SOL     OW 1260   1.755   2.469   2.093
  415SOL    HW1 1261   1.743   2.456   1.994
  415SOL    HW2 1262   1.725   2.388   2.142
  416SOL     OW 1263   0.685   2.874   2.527
  416SOL    HW1 1264   0.754   2.858   2.597
  416SOL    HW2 1265   0.612   2.931   2.565
  417SOL     OW 1266   1.603   2.309   2.599
  417SOL    HW1 1267   1.529   2.355   2.549
  417SOL    HW2 1268   1.654   2.377   2.652
  418SOL     OW 1269   0.240   2.953   2.748
  418SOL    HW1 1270   0.254   2.869   2.800
  418SOL    HW2 1271   0.185   3.017   2.803
  419SOL     OW 1272   0.122   2.505   2.425
  419SOL    HW1 1273   0.077   2.417   2.442
  419SOL    HW2 1274   0.121   2.559   2.509
  420SOL     OW 1275   0.809   1.866   2.364
  420SOL    HW1 1276   0.849   1.957   2.355
  420SOL    HW2 1277   0.709   1.874   2.370
  421SOL     OW 1278   0.598   2.591   2.132
  421SOL    HW1 1279   0.622   2.660   2.064
  421SOL    HW2 1280   0.520   2.624   2.186
  422SOL     OW 1281   1.281   2.207   2.806
  422SOL    HW1 1282   1.195   2.157   2.793
  422SOL    HW2 1283   1.343   2.153   2.862
  423SOL     OW 1284   1.041   2.563   2.291
  423SOL    HW1 1285   1.067   2.559   2.387
  423SOL    HW2 1286   0.956   2.512   2.277
  424SOL     OW 1287   0.076   2.673   2.651
  424SOL    HW1 1288   0.175   2.661   2.660
  424SOL    HW2 1289   0.052   2.768   2.672
  425SOL     OW 1290   0.865   2.210   2.057
  425SOL    HW1 1291   0.924   2.273   2.008
  425SOL    HW2 1292   0.884   2.116   2.028
  426SOL     OW 1293   0.550   2.058   2.747
  426SOL    HW1 1294   0.545   2.053   2.847
  426SOL    HW2 1295   0.552   2.154   2.718
  427SOL     OW 1296   1.458   2.597   2.590
  427SOL    HW1 1297   1.453   2.532   2.665
  427SOL    HW2 1298   1.538   2.656   2.603
  428SOL     OW 1299   1.400   1.969   2.288
  428SOL    HW1 1300   1.376   1.932   2.198
  428SOL    HW2 1301   1.499   1.985   2.292
  429SOL     OW 1302   0.382   2.562   2.342
  429SOL    HW1 1303   0.427   2.472   2.339
  429SOL    HW2 1304   0.288   2.551   2.375
  430SOL     OW 1305   0.614   1.984   1.979
  430SOL    HW1 1306   0.712   1.962   1.986
  430SOL    HW2 1307   0.583   1.967   1.886
  431SOL     OW 1308   0.539   1.926   2.374
  431SOL    HW1 1309   0.458   1.927   2.432
  431SOL    HW2 1310   0.542   2.009   2.319
  432SOL     OW 1311   0.297   1.897   2.033
  432SOL    HW1 1312   0.346   1.981   2.012
  432SOL    HW2 1313   0.359   1.832   2.078
  433SOL     OW 1314   0.935   2.098   2.342
  433SOL    HW1 1315   0.887   2.139   2.264
  433SOL    HW2 1316   1.034   2.096   2.323
  434SOL     OW 1317   1.032   2.411   1.878
  434SOL    HW1 1318   0.991   2.493   1.839
  434SOL    HW2 1319   1.096   2.437   1.951
  435SOL     OW 1320   0.866   2.316   2.504
  435SOL    HW1 1321   0.834   2.388   2.442
  435SOL    HW2 1322   0.890   2.235   2.451
  436SOL     OW 1323   1.017   1.901   2.615
  436SOL    HW1 1324   0.945   1.906   2.546
  436SOL    HW2 1325   0.993   1.832   2.684
  437SOL     OW 1326   1.429   3.035   2.729
  437SOL    HW1 1327   1.374   2.951   2.722
  437SOL    HW2 1328   1.455   3.064   2.637
  438SOL     OW 1329   1.857   2.695   2.239
  438SOL    HW1 1330   1.899   2.631   2.303
  438SOL    HW2 1331   1.819   2.644   2.161
  439SOL     OW 1332   1.390   2.437   1.940
  439SOL    HW1 1333   1.336   2.416   2.021
  439SOL    HW2 1334   1.481   2.396   1.949
  440SOL     OW 1335   0.527   2.118   2.190
  440SOL    HW1 1336   0.554   2.059   2.115
  440SOL    HW2 1337   0.527   2.213   2.159
  441SOL     OW 1338   1.111   3.057   2.962
  441SOL    HW1 1339   1.071   3.101   3.043
  441SOL    HW2 1340   1.070   3.094   2.879
  442SOL     OW 1341   0.566   2.399   2.727
  442SOL    HW1 1342   0.578   2.465   2.653
  442SOL    HW2 1343   0.612   2.433   2.810
  443SOL     OW 1344   1.582   2.501   2.334
  443SOL    HW1 1345   1.551   2.562   2.407
  443SOL    HW2 1346   1.632   2.553   2.265
  444SOL     OW 1347   1.209   2.387   2.137
  444SOL    HW1 1348   1.222   2.303   2.191
  444SOL    HW2 1349   1.180   2.461   2.197
  445SOL     OW 1350   0.732   2.496   2.926
  445SOL    HW1 1351   0.791   2.470   2.850
  445SOL    HW2 1352   0.704   2.592   2.915
  446SOL     OW 1353   0.307   1.925   2.480
  446SOL    HW1 1354   0.296   2.019   2.513
  446SOL    HW2 1355   0.302   1.862   2.557
  447SOL     OW 1356   1.622   2.229   2.236
  447SOL    HW1 1357   1.624   2.153   2.300
  447SOL    HW2 1358   1.574   2.306   2.276
  448SOL     OW 1359   1.540   2.136   1.987
  448SOL    HW1 1360   1.479   2.061   2.010
  448SOL    HW2 1361   1.562   2.188   2.070
  449SOL     OW 1362   0.815   2.434   2.187
  449SOL    HW1 1363   0.822   2.345   2.141
  449SOL    HW2 1364   0.721   2.468   2.179
  450SOL     OW 1365   0.473   2.362   2.053
  450SOL    HW1 1366   0.534   2.442   2.057
  450SOL    HW2 1367   0.378   2.393   2.060
  451SOL     OW 1368   1.726   1.997   2.385
  451SOL    HW1 1369   1.799   1.980   2.318
  451SOL    HW2 1370   1.695   1.910   2.423
  452SOL     OW 1371   1.280   2.789   2.534
  452SOL    HW1 1372   1.340   2.708   2.536
  452SOL    HW2 1373   1.320   2.858   2.474
  453SOL     OW 1374   1.841   2.037   2.825
  453SOL    HW1 1375   1.880   1.952   2.789
  453SOL    HW2 1376   1.743   2.039   2.806
  454SOL     OW 1377   0.263   2.188   2.582
  454SOL    HW1 1378   0.184   2.239   2.548
  454SOL    HW2 1379   0.254   2.173   2.680
  455SOL     OW 1380   0.916   2.772   2.153
  455SOL    HW1 1381   0.979   2.810   2.085
  455SOL    HW2 1382   0.956   2.689   2.192
  456SOL     OW 1383   0.075   2.207   1.895
  456SOL    HW1 1384  -0.017   2.179   1.866
  456SOL    HW2 1385   0.106   2.284   1.839
  457SOL     OW 1386   0.072   2.028   2.180
  457SOL    HW1 1387   0.055   2.111   2.126
  457SOL    HW2 1388   0.162   1.991   2.158
  458SOL     OW 1389   1.674   2.745   3.116
  458SOL    HW1 1390   1.647   2.656   3.079
  458SOL    HW2 1391   1.675   2.813   3.043
  459SOL     OW 1392   1.225   2.187   2.311
  459SOL    HW1 1393   1.290   2.113   2.300
  459SOL    HW2 1394   1.245   2.237   2.395
  460SOL     OW 1395   0.594   2.607   2.514
  460SOL    HW1 1396   0.644   2.692   2.495
  460SOL    HW2 1397   0.506   2.609   2.466
  461SOL     OW 1398   0.428   2.286   2.382
  461SOL    HW1 1399   0.458   2.214   2.320
  461SOL    HW2 1400   0.389   2.246   2.465
  462SOL     OW 1401   1.352   1.914   2.030
  462SOL    HW1 1402   1.387   1.873   1.946
  462SOL    HW2 1403   1.262   1.876   2.050
  463SOL     OW 1404   1.300   2.315   2.553
  463SOL    HW1 1405   1.241   2.395   2.557
  463SOL    HW2 1406   1.315   2.280   2.646
  464SOL     OW 1407   2.092   0.628   0.113
  464SOL    HW1 1408   1.999   0.626   0.150
  464SOL    HW2 1409   2.093   0.589   0.021
  465SOL     OW 1410   2.087   0.275   0.996
  465SOL    HW1 1411   2.122   0.258   1.088
  465SOL    HW2 1412   1.999   0.230   0.984
  466SOL     OW 1413   1.881   0.368   0.647
  466SOL    HW1 1414   1.799   0.411   0.686
  466SOL    HW2 1415   1.853   0.295   0.584
  467SOL     OW 1416   2.431   1.275   1.165
  467SOL    HW1 1417   2.338   1.268   1.128
  467SOL    HW2 1418   2.442   1.364   1.209
  468SOL     OW 1419   2.630   1.144   1.023
  468SOL    HW1 1420   2.552   1.161   1.083
  468SOL    HW2 1421   2.664   1.231   0.987
  469SOL     OW 1422   2.712   0.798   1.823
  469SOL    HW1 1423   2.708   0.874   1.888
  469SOL    HW2 1424   2.734   0.834   1.732
  470SOL     OW 1425   2.547   1.012   0.665
  470SOL    HW1 1426   2.616   0.996   0.735
  470SOL    HW2 1427   2.474   1.069   0.703
  471SOL     OW 1428   2.548   1.161   1.803
  471SOL    HW1 1429   2.608   1.240   1.817
  471SOL    HW2 1430   2.462   1.192   1.762
  472SOL     OW 1431   2.197   1.435   1.061
  472SOL    HW1 1432   2.119   1.404   1.008
  472SOL    HW2 1433   2.255   1.493   1.004
  473SOL     OW 1434   2.300   0.392   1.499
  473SOL    HW1 1435   2.382   0.336   1.508
  473SOL    HW2 1436   2.219   0.334   1.503
  474SOL     OW 1437   2.093   1.713   0.483
  474SOL    HW1 1438   2.127   1.790   0.537
  474SOL    HW2 1439   2.137   1.713   0.393
  475SOL     OW 1440   2.092   1.434   0.538
  475SOL    HW1 1441   2.066   1.530   0.538
  475SOL    HW2 1442   2.021   1.380   0.583
  476SOL     OW 1443   2.102   1.091   0.886
  476SOL    HW1 1444   2.116   1.007   0.938
  476SOL    HW2 1445   2.047   1.155   0.941
  477SOL     OW 1446   2.482   1.786   1.439
  477SOL    HW1 1447   2.390   1.769   1.474
  477SOL    HW2 1448   2.510   1.878   1.465
  478SOL     OW 1449   2.468   0.964   0.123
  478SOL    HW1 1450   2.475   1.048   0.069
  478SOL    HW2 1451   2.514   0.977   0.211
  479SOL     OW 1452   1.984   0.643   0.563
  479SOL    HW1 1453   1.939   0.555   0.580
  479SOL    HW2 1454   1.983   0.697   0.647
  480SOL     OW 1455   1.889   1.596   0.117
  480SOL    HW1 1456   1.870   1.500   0.138
  480SOL    HW2 1457   1.856   1.654   0.192
  481SOL     OW 1458   1.975   0.737   1.597
  481SOL    HW1 1459   2.063   0.724   1.642
  481SOL    HW2 1460   1.962   0.834   1.575
  482SOL     OW 1461   2.475   1.365   0.726
  482SOL    HW1 1462   2.426   1.278   0.735
  482SOL    HW2 1463   2.452   1.408   0.639
  483SOL     OW 1464   2.671   0.004   0.502
  483SOL    HW1 1465   2.711   0.095   0.493
  483SOL    HW2 1466   2.571   0.012   0.508
  484SOL     OW 1467   2.059   0.976   1.264
  484SOL    HW1 1468   2.148   0.931   1.250
  484SOL    HW2 1469   1.986   0.911   1.245
  485SOL     OW 1470   2.179   0.251   1.801
  485SOL    HW1 1471   2.250   0.322   1.807
  485SOL    HW2 1472   2.091   0.290   1.829
  486SOL     OW 1473   2.460   0.729   0.270
  486SOL    HW1 1474   2.484   0.798   0.202
  486SOL    HW2 1475   2.382   0.762   0.324
  487SOL     OW 1476   2.669   0.605   1.465
  487SOL    HW1 1477   2.622   0.602   1.554
  487SOL    HW2 1478   2.618   0.550   1.399
  488SOL     OW 1479   1.938   0.811   0.789
  488SOL    HW1 1480   2.037   0.799   0.798
  488SOL    HW2 1481   1.914   0.906   0.810
  489SOL     OW 1482   1.992   1.821   1.571
  489SOL    HW1 1483   1.982   1.806   1.670
  489SOL    HW2 1484   1.906   1.857   1.535
  490SOL     OW 1485   2.727   0.348   0.195
  490SOL    HW1 1486   2.786   0.411   0.146
  490SOL    HW2 1487   2.746   0.254   0.166
  491SOL     OW 1488   2.412   0.196   0.885
  491SOL    HW1 1489   2.407   0.191   0.985
  491SOL    HW2 1490   2.414   0.292   0.856
  492SOL     OW 1491   2.870   1.456   0.477
  492SOL    HW1 1492   2.824   1.528   0.425
  492SOL    HW2 1493   2.866   1.476   0.575
  493SOL     OW 1494   2.213   1.801   0.853
  493SOL    HW1 1495   2.263   1.715   0.859
  493SOL    HW2 1496   2.278   1.878   0.850
  494SOL     OW 1497   2.183   0.943   0.242
  494SOL    HW1 1498   2.265   0.982   0.200
  494SOL    HW2 1499   2.156   0.861   0.193
  495SOL     OW 1500   2.323   1.266   1.727
  495SOL    HW1 1501   2.273   1.267   1.641
  495SOL    HW2 1502   2.260   1.248   1.803
  496SOL     OW 1503   2.973   1.776   0.237
  496SOL    HW1 1504   2.913   1.714   0.287
  496SOL    HW2 1505   3.004   1.732   0.152
  497SOL     OW 1506   2.064   0.285   1.498
  497SOL    HW1 1507   1.984   0.345   1.485
  497SOL    HW2 1508   2.054   0.236   1.584
  498SOL     OW 1509   2.326   1.743   0.323
  498SOL    HW1 1510   2.359   1.782   0.409
  498SOL    HW2 1511   2.402   1.736   0.258
  499SOL     OW 1512   2.111   1.785   1.241
  499SOL    HW1 1513   2.168   1.720   1.291
  499SOL    HW2 1514   2.095   1.752   1.148
  500SOL     OW 1515   2.244   0.700   0.480
  500SOL    HW1 1516   2.289   0.610   0.477
  500SOL    HW2 1517   2.150   0.689   0.513
  501SOL     OW 1518   2.476   0.122   0.117
  501SOL    HW1 1519   2.574   0.100   0.124
  501SOL    HW2 1520   2.445   0.105   0.024
  502SOL     OW 1521   2.643   0.264   1.749
  502SOL    HW1 1522   2.710   0.203   1.792
  502SOL    HW2 1523   2.570   0.283   1.814
  503SOL     OW 1524   2.665   1.402   0.924
  503SOL    HW1 1525   2.755   1.416   0.882
  503SOL    HW2 1526   2.594   1.404   0.853
  504SOL     OW 1527   2.784   0.503   0.899
  504SOL    HW1 1528   2.759   0.494   0.803
  504SOL    HW2 1529   2.832   0.421   0.930
  505SOL     OW 1530   2.401   0.064   0.512
  505SOL    HW1 1531   2.320   0.065   0.570
  505SOL    HW2 1532   2.404   0.147   0.457
  506SOL     OW 1533   2.159   0.035   0.171
  506SOL    HW1 1534   2.208   0.119   0.150
  506SOL    HW2 1535   2.221  -0.030   0.216
  507SOL     OW 1536   2.321   1.152   0.741
  507SOL    HW1 1537   2.250   1.125   0.806
  507SOL    HW2 1538   2.295   1.124   0.648
  508SOL     OW 1539   1.940   0.556   1.386
  508SOL    HW1 1540   2.032   0.555   1.345
  508SOL    HW2 1541   1.934   0.630   1.453
  509SOL     OW 1542   2.423   0.222   1.147
  509SOL    HW1 1543   2.461   0.138   1.184
  509SOL    HW2 1544   2.335   0.241   1.191
  510SOL     OW 1545   2.350   1.385   0.174
  510SOL    HW1 1546   2.263   1.370   0.221
  510SOL    HW2 1547   2.333   1.411   0.079
  511SOL     OW 1548   2.389   0.256   0.328
  511SOL    HW1 1549   2.416   0.197   0.253
  511SOL    HW2 1550   2.389   0.351   0.297
  512SOL     OW 1551   2.777   0.089   1.402
  512SOL    HW1 1552   2.802   0.069   1.307
  512SOL    HW2 1553   2.849   0.145   1.444
  513SOL     OW 1554   2.567   1.050   0.368
  513SOL    HW1 1555   2.553   1.057   0.467
  513SOL    HW2 1556   2.651   0.999   0.350
  514SOL     OW 1557   2.272   0.813   1.251
  514SOL    HW1 1558   2.358   0.825   1.301
  514SOL    HW2 1559   2.230   0.726   1.278
  515SOL     OW 1560   1.926   1.564   1.331
  515SOL    HW1 1561   1.880   1.646   1.297
  515SOL    HW2 1562   2.024   1.583   1.340
  516SOL     OW 1563   2.229   1.100   0.501
  516SOL    HW1 1564   2.222   1.183   0.445
  516SOL    HW2 1565   2.233   1.020   0.441
  517SOL     OW 1566   2.428   0.537   0.865
  517SOL    HW1 1567   2.440   0.603   0.791
  517SOL    HW2 1568   2.474   0.571   0.948
  518SOL     OW 1569   2.216   1.510   1.329
  518SOL    HW1 1570   2.195   1.466   1.242
  518SOL    HW2 1571   2.313   1.536   1.332
  519SOL     OW 1572   2.264   0.751   1.598
  519SOL    HW1 1573   2.332   0.806   1.551
  519SOL    HW2 1574   2.304   0.663   1.625
  520SOL     OW 1575   2.366   0.050   1.740
  520SOL    HW1 1576   2.324  -0.007   1.670
  520SOL    HW2 1577   2.300   0.119   1.772
  521SOL     OW 1578   2.435   0.870   1.029
  521SOL    HW1 1579   2.479   0.959   1.020
  521SOL    HW2 1580   2.372   0.870   1.106
  522SOL     OW 1581   2.169   0.213   1.231
  522SOL    HW1 1582   2.146   0.250   1.321
  522SOL    HW2 1583   2.139   0.118   1.225
  523SOL     OW 1584   1.899   1.310   1.282
  523SOL    HW1 1585   1.952   1.261   1.350
  523SOL    HW2 1586   1.921   1.408   1.287
  524SOL     OW 1587   2.594   0.634   1.064
  524SOL    HW1 1588   2.653   0.608   0.988
  524SOL    HW2 1589   2.566   0.730   1.053
  525SOL     OW 1590   2.169   0.063   0.618
  525SOL    HW1 1591   2.158   0.157   0.651
  525SOL    HW2 1592   2.164   0.000   0.695
  526SOL     OW 1593   2.885   0.766   0.966
  526SOL    HW1 1594   2.900   0.787   1.062
  526SOL    HW2 1595   2.855   0.671   0.957
  527SOL     OW 1596   2.842   1.573   1.700
  527SOL    HW1 1597   2.822   1.617   1.612
  527SOL    HW2 1598   2.881   1.482   1.684
  528SOL     OW 1599   2.212   0.898   1.804
  528SOL    HW1 1600   2.288   0.942   1.852
  528SOL    HW2 1601   2.247   0.851   1.722
  529SOL     OW 1602   2.181   0.810   0.949
  529SOL    HW1 1603   2.274   0.846   0.954
  529SOL    HW2 1604   2.175   0.725   1.001
  530SOL     OW 1605   2.201   0.509   1.006
  530SOL    HW1 1606   2.149   0.426   0.989
  530SOL    HW2 1607   2.278   0.514   0.942
  531SOL     OW 1608   1.870   1.326   0.200
  531SOL    HW1 1609   1.777   1.347   0.169
  531SOL    HW2 1610   1.880   1.227   0.213
  532SOL     OW 1611   1.950   1.801   0.927
  532SOL    HW1 1612   1.908   1.715   0.900
  532SOL    HW2 1613   2.044   1.804   0.893
  533SOL     OW 1614   2.366   1.568   0.910
  533SOL    HW1 1615   2.432   1.642   0.919
  533SOL    HW2 1616   2.410   1.489   0.868
  534SOL     OW 1617   1.902   0.544   1.114
  534SOL    HW1 1618   1.987   0.511   1.073
  534SOL    HW2 1619   1.915   0.559   1.212
  535SOL     OW 1620   2.051   0.520   1.722
  535SOL    HW1 1621   2.110   0.480   1.652
  535SOL    HW2 1622   1.993   0.591   1.681
  536SOL     OW 1623   2.677   0.572   0.325
  536SOL    HW1 1624   2.684   0.483   0.279
  536SOL    HW2 1625   2.583   0.606   0.317
  537SOL     OW 1626   2.114   1.564   1.744
  537SOL    HW1 1627   2.084   1.621   1.820
  537SOL    HW2 1628   2.107   1.467   1.770
  538SOL     OW 1629   2.533   0.464   1.269
  538SOL    HW1 1630   2.499   0.375   1.239
  538SOL    HW2 1631   2.559   0.518   1.189
  539SOL     OW 1632   2.335   0.500   0.191
  539SOL    HW1 1633   2.396   0.580   0.195
  539SOL    HW2 1634   2.240   0.531   0.198
  540SOL     OW 1635   2.021   1.137   1.466
  540SOL    HW1 1636   2.043   1.076   1.542
  540SOL    HW2 1637   2.031   1.088   1.380
  541SOL     OW 1638   1.945   1.258   1.022
  541SOL    HW1 1639   1.940   1.257   1.122
  541SOL    HW2 1640   1.862   1.217   0.984
  542SOL     OW 1641   2.550   1.662   1.716
  542SOL    HW1 1642   2.494   1.743   1.725
  542SOL    HW2 1643   2.602   1.666   1.630
  543SOL     OW 1644   2.765   0.086   0.133
  543SOL    HW1 1645   2.816   0.087   0.047
  543SOL    HW2 1646   2.821   0.044   0.204
  544SOL     OW 1647   1.992   1.794   1.851
  544SOL    HW1 1648   1.951   1.720   1.904
  544SOL    HW2 1649   2.056   1.845   1.909
  545SOL     OW 1650   2.692   1.273   1.422
  545SOL    HW1 1651   2.687   1.306   1.517
  545SOL    HW2 1652   2.606   1.292   1.376
  546SOL     OW 1653   2.534   1.616   0.154
  546SOL    HW1 1654   2.543   1.626   0.055
  546SOL    HW2 1655   2.494   1.527   0.175
  547SOL     OW 1656   2.125   0.326   0.720
  547SOL    HW1 1657   2.046   0.377   0.686
  547SOL    HW2 1658   2.116   0.311   0.818
  548SOL     OW 1659   3.056   1.612   0.031
  548SOL    HW1 1660   3.062   1.519   0.068
  548SOL    HW2 1661   2.997   1.612  -0.049
  549SOL     OW 1662   2.684   1.002   1.372
  549SOL    HW1 1663   2.724   1.001   1.280
  549SOL    HW2 1664   2.694   1.094   1.412
  550SOL     OW 1665   2.234   1.288   1.490
  550SOL    HW1 1666   2.221   1.381   1.456
  550SOL    HW2 1667   2.150   1.236   1.477
  551SOL     OW 1668   2.452   1.487   0.491
  551SOL    HW1 1669   2.494   1.429   0.421
  551SOL    HW2 1670   2.408   1.566   0.447
  552SOL     OW 1671   2.117   1.348   0.290
  552SOL    HW1 1672   2.021   1.349   0.263
  552SOL    HW2 1673   2.129   1.401   0.374
  553SOL     OW 1674   1.967   1.013   1.726
  553SOL    HW1 1675   1.890   0.980   1.780
  553SOL    HW2 1676   2.052   0.983   1.768
  554SOL     OW 1677   2.534   0.203   1.489
  554SOL    HW1 1678   2.624   0.187   1.449
  554SOL    HW2 1679   2.542   0.208   1.588
  555SOL     OW 1680   2.475   0.842   1.431
  555SOL    HW1 1681   2.531   0.923   1.414
  555SOL    HW2 1682   2.534   0.762   1.434
  556SOL     OW 1683   2.578   0.565   1.708
  556SOL    HW1 1684   2.597   0.630   1.782
  556SOL    HW2 1685   2.638   0.485   1.717
  557SOL     OW 1686   2.252   1.741   1.560
  557SOL    HW1 1687   2.161   1.782   1.558
  557SOL    HW2 1688   2.245   1.647   1.592
  558SOL     OW 1689   2.456   0.745   0.652
  558SOL    HW1 1690   2.506   0.830   0.633
  558SOL    HW2 1691   2.368   0.747   0.604
  559SOL     OW 1692   2.523   1.790   0.953
  559SOL    HW1 1693   2.477   1.878   0.940
  559SOL    HW2 1694   2.622   1.802   0.946
  560SOL     OW 1695   2.083   1.314   1.844
  560SOL    HW1 1696   2.018   1.241   1.823
  560SOL    HW2 1697   2.087   1.328   1.942
  561SOL     OW 1698   1.941   1.240   0.653
  561SOL    HW1 1699   1.940   1.193   0.741
  561SOL    HW2 1700   2.023   1.212   0.602
  562SOL     OW 1701   2.534   1.391   1.624
  562SOL    HW1 1702   2.456   1.341   1.662
  562SOL    HW2 1703   2.531   1.486   1.655
  563SOL     OW 1704   2.290   0.424   0.520
  563SOL    HW1 1705   2.320   0.352   0.458
  563SOL    HW2 1706   2.251   0.384   0.603
  564SOL     OW 1707   2.179   0.547   1.280
  564SOL    HW1 1708   2.217   0.488   1.352
  564SOL    HW2 1709   2.219   0.521   1.192
  565SOL     OW 1710   2.674   1.586   0.687
  565SOL    HW1 1711   2.706   1.596   0.593
  565SOL    HW2 1712   2.595   1.524   0.689
  566SOL     OW 1713   2.863   0.034   1.154
  566SOL    HW1 1714   2.800  -0.038   1.123
  566SOL    HW2 1715   2.956  -0.002   1.154
  567SOL     OW 1716   2.632   1.330   0.301
  567SOL    HW1 1717   2.586   1.243   0.318
  567SOL    HW2 1718   2.723   1.327   0.342
  568SOL     OW 1719   2.480   1.567   1.284
  568SOL    HW1 1720   2.475   1.649   1.341
  568SOL    HW2 1721   2.569   1.564   1.239
  569SOL     OW 1722   1.901   1.077   0.300
  569SOL    HW1 1723   2.000   1.066   0.291
  569SOL    HW2 1724   1.861   0.991   0.332
  570SOL     OW 1725   2.737   1.646   0.337
  570SOL    HW1 1726   2.660   1.611   0.283
  570SOL    HW2 1727   2.705   1.717   0.399
  571SOL     OW 1728   2.092   0.628   1.975
  571SOL    HW1 1729   1.999   0.626   2.012
  571SOL    HW2 1730   2.093   0.589   1.883
  572SOL     OW 1731   2.087   0.275   2.858
  572SOL    HW1 1732   2.122   0.258   2.950
  572SOL    HW2 1733   1.999   0.230   2.846
  573SOL     OW 1734   1.881   0.368   2.509
  573SOL    HW1 1735   1.799   0.411   2.548
  573SOL    HW2 1736   1.853   0.295   2.446
  574SOL     OW 1737   2.630   1.144   2.885
  574SOL    HW1 1738   2.552   1.161   2.945
  574SOL    HW2 1739   2.664   1.231   2.849
  575SOL     OW 1740   2.547   1.012   2.527
  575SOL    HW1 1741   2.616   0.996   2.597
  575SOL    HW2 1742   2.474   1.069   2.565
  576SOL     OW 1743   2.093   1.713   2.345
  576SOL    HW1 1744   2.127   1.790   2.399
  576SOL    HW2 1745   2.137   1.713   2.255
  577SOL     OW 1746   2.092   1.434   2.400
  577SOL    HW1 1747   2.066   1.530   2.400
  577SOL    HW2 1748   2.021   1.380   2.445
  578SOL     OW 1749   2.102   1.091   2.748
  578SOL    HW1 1750   2.116   1.007   2.800
  578SOL    HW2 1751   2.047   1.155   2.803
  579SOL     OW 1752   2.468   0.964   1.985
  579SOL    HW1 1753   2.475   1.048   1.931
  579SOL    HW2 1754   2.514   0.977   2.073
  580SOL     OW 1755   1.984   0.643   2.425
  580SOL    HW1 1756   1.939   0.555   2.442
  580SOL    HW2 1757   1.983   0.697   2.509
  581SOL     OW 1758   1.889   1.596   1.979
  581SOL    HW1 1759   1.870   1.500   2.000
  581SOL    HW2 1760   1.856   1.654   2.054
  582SOL     OW 1761   2.475   1.365   2.588
  582SOL    HW1 1762   2.426   1.278   2.597
  582SOL    HW2 1763   2.452   1.408   2.501
  583SOL     OW 1764   2.671   0.004   2.364
  583SOL    HW1 1765   2.711   0.095   2.355
  583SOL    HW2 1766   2.571   0.012   2.370
  584SOL     OW 1767   2.460   0.729   2.132
  584SOL    HW1 1768   2.484   0.798   2.064
  584SOL    HW2 1769   2.382   0.762   2.186
  585SOL     OW 1770   1.938   0.811   2.651
  585SOL    HW1 1771   2.037   0.799   2.660
  585SOL    HW2 1772   1.914   0.906   2.672
  586SOL     OW 1773   2.727   0.348   2.057
  586SOL    HW1 1774   2.786   0.411   2.008
  586SOL    HW2 1775   2.746   0.254   2.028
  587SOL     OW 1776   2.870   1.456   2.339
  587SOL    HW1 1777   2.824   1.528   2.287
  587SOL    HW2 1778   2.866   1.476   2.437
  588SOL     OW 1779   2.213   1.801   2.715
  588SOL    HW1 1780   2.263   1.715   2.721
  588SOL    HW2 1781   2.278   1.878   2.712
  589SOL     OW 1782   2.183   0.943   2.104
  589SOL    HW1 1783   2.265   0.982   2.062
  589SOL    HW2 1784   2.156   0.861   2.055
  590SOL     OW 1785   2.973   1.776   2.099
  590SOL    HW1 1786   2.913   1.714   2.149
  590SOL    HW2 1787   3.004   1.732   2.014
  591SOL     OW 1788   2.326   1.743   2.185
  591SOL    HW1 1789   2.359   1.782   2.271
  591SOL    HW2 1790   2.402   1.736   2.120
  592SOL     OW 1791   2.244   0.700   2.342
  592SOL    HW1 1792   2.289   0.610   2.339
  592SOL    HW2 1793   2.150   0.689   2.375
  593SOL     OW 1794   2.476   0.122   1.979
  593SOL    HW1 1795   2.574   0.100   1.986
  593SOL    HW2 1796   2.445   0.105   1.886
  594SOL     OW 1797   2.665   1.402   2.786
  594SOL    HW1 1798   2.755   1.416   2.744
  594SOL    HW2 1799   2.594   1.404   2.715
  595SOL     OW 1800   2.401   0.064   2.374
  595SOL    HW1 1801   2.320   0.065   2.432
  595SOL    HW2 1802   2.404   0.147   2.319
  596SOL     OW 1803   2.159   0.035   2.033
  596SOL    HW1 1804   2.208   0.119   2.012
  596SOL    HW2 1805   2.221  -0.030   2.078
  597SOL     OW 1806   2.321   1.152   2.603
  597SOL    HW1 1807   2.250   1.125   2.668
  597SOL    HW2 1808   2.295   1.124   2.510
  598SOL     OW 1809   2.350   1.385   2.036
  598SOL    HW1 1810   2.263   1.370   2.083
  598SOL    HW2 1811   2.333   1.411   1.941
  599SOL     OW 1812   2.389   0.256   2.190
  599SOL    HW1 1813   2.416   0.197   2.115
  599SOL    HW2 1814   2.389   0.351   2.159
  600SOL     OW 1815   2.567   1.050   2.230
  600SOL    HW1 1816   2.553   1.057   2.329
  600SOL    HW2 1817   2.651   0.999   2.212
  601SOL     OW 1818   2.229   1.100   2.363
  601SOL    HW1 1819   2.222   1.183   2.307
  601SOL    HW2 1820   2.233   1.020   2.303
  602SOL     OW 1821   2.428   0.537   2.727
  602SOL    HW1 1822   2.440   0.603   2.653
  602SOL    HW2 1823   2.474   0.571   2.810
  603SOL     OW 1824   2.594   0.634   2.926
  603SOL    HW1 1825   2.653   0.608   2.850
  603SOL    HW2 1826   2.566   0.730   2.915
  604SOL     OW 1827   2.169   0.063   2.480
  604SOL    HW1 1828   2.158   0.157   2.513
  604SOL    HW2 1829   2.164   0.000   2.557
  605SOL     OW 1830   2.885   0.766   2.828
  605SOL    HW1 1831   2.900   0.787   2.924
  605SOL    HW2 1832   2.855   0.671   2.819
  606SOL     OW 1833   1.870   1.326   2.062
  606SOL    HW1 1834   1.777   1.347   2.031
  606SOL    HW2 1835   1.880   1.227   2.075
  607SOL     OW 1836   1.950   1.801   2.789
  607SOL    HW1 1837   1.908   1.715   2.762
  607SOL    HW2 1838   2.044   1.804   2.755
  608SOL     OW 1839   2.366   1.568   2.772
  608SOL    HW1 1840   2.432   1.642   2.781
  608SOL    HW2 1841   2.410   1.489   2.730
  609SOL     OW 1842   2.677   0.572   2.187
  609SOL    HW1 1843   2.684   0.483   2.141
  609SOL    HW2 1844   2.583   0.606   2.179
  610SOL     OW 1845   2.335   0.500   2.053
  610SOL    HW1 1846   2.396   0.580   2.057
  610SOL    HW2 1847   2.240   0.531   2.060
  611SOL     OW 1848   2.765   0.086   1.995
  611SOL    HW1 1849   2.816   0.087   1.909
  611SOL    HW2 1850   2.821   0.044   2.066
  612SOL     OW 1851   2.534   1.616   2.016
  612SOL    HW1 1852   2.543   1.626   1.917
  612SOL    HW2 1853   2.494   1.527   2.037
  613SOL     OW 1854   2.125   0.326   2.582
  613SOL    HW1 1855   2.046   0.377   2.548
  613SOL    HW2 1856   2.116   0.311   2.680
  614SOL     OW 1857   2.452   1.487   2.353
  614SOL    HW1 1858   2.494   1.429   2.283
  614SOL    HW2 1859   2.408   1.566   2.309
  615SOL     OW 1860   2.117   1.348   2.152
  615SOL    HW1 1861   2.021   1.349   2.125
  615SOL    HW2 1862   2.129   1.401   2.236
  616SOL     OW 1863   1.937   0.345   1.895
  616SOL    HW1 1864   1.845   0.317   1.866
  616SOL    HW2 1865   1.968   0.422   1.839
  617SOL     OW 1866   1.934   0.166   2.180
  617SOL    HW1 1867   1.917   0.249   2.126
  617SOL    HW2 1868   2.024   0.129   2.158
  618SOL     OW 1869   2.456   0.745   2.514
  618SOL    HW1 1870   2.506   0.830   2.495
  618SOL    HW2 1871   2.368   0.747   2.466
  619SOL     OW 1872   2.523   1.790   2.815
  619SOL    HW1 1873   2.477   1.878   2.802
  619SOL    HW2 1874   2.622   1.802   2.808
  620SOL     OW 1875   1.941   1.240   2.515
  620SOL    HW1 1876   1.940   1.193   2.603
  620SOL    HW2 1877   2.023   1.212   2.464
  621SOL     OW 1878   2.290   0.424   2.382
  621SOL    HW1 1879   2.320   0.352   2.320
  621SOL    HW2 1880   2.251   0.384   2.465
  622SOL     OW 1881   2.674   1.586   2.549
  622SOL    HW1 1882   2.706   1.596   2.455
  622SOL    HW2 1883   2.595   1.524   2.551
  623SOL     OW 1884   2.632   1.330   2.163
  623SOL    HW1 1885   2.586   1.243   2.180
  623SOL    HW2 1886   2.723   1.327   2.204
  624SOL     OW 1887   1.901   1.077   2.162
  624SOL    HW1 1888   2.000   1.066   2.153
  624SOL    HW2 1889   1.861   0.991   2.194
  625SOL     OW 1890   2.737   1.646   2.199
  625SOL    HW1 1891   2.660   1.611   2.145
  625SOL    HW2 1892   2.705   1.717   2.261
  626SOL     OW 1893   2.092   2.490   0.113
  626SOL    HW1 1894   1.999   2.488   0.150
  626SOL    HW2 1895   2.093   2.451   0.021
  627SOL     OW 1896   2.087   2.137   0.996
  627SOL    HW1 1897   2.122   2.120   1.088
  627SOL    HW2 1898   1.999   2.092   0.984
  628SOL     OW 1899   1.881   2.230   0.647
  628SOL    HW1 1900   1.799   2.273   0.686
  628SOL    HW2 1901   1.853   2.157   0.584
  629SOL     OW 1902   2.712   2.660   1.823
  629SOL    HW1 1903   2.708   2.736   1.888
  629SOL    HW2 1904   2.734   2.696   1.732
  630SOL     OW 1905   2.547   2.874   0.665
  630SOL    HW1 1906   2.616   2.858   0.735
  630SOL    HW2 1907   2.474   2.931   0.703
  631SOL     OW 1908   2.300   2.254   1.499
  631SOL    HW1 1909   2.382   2.198   1.508
  631SOL    HW2 1910   2.219   2.196   1.503
  632SOL     OW 1911   1.984   2.505   0.563
  632SOL    HW1 1912   1.939   2.417   0.580
  632SOL    HW2 1913   1.983   2.559   0.647
  633SOL     OW 1914   1.975   2.599   1.597
  633SOL    HW1 1915   2.063   2.586   1.642
  633SOL    HW2 1916   1.962   2.696   1.575
  634SOL     OW 1917   2.671   1.866   0.502
  634SOL    HW1 1918   2.711   1.957   0.493
  634SOL    HW2 1919   2.571   1.874   0.508
  635SOL     OW 1920   2.179   2.113   1.801
  635SOL    HW1 1921   2.250   2.184   1.807
  635SOL    HW2 1922   2.091   2.152   1.829
  636SOL     OW 1923   2.460   2.591   0.270
  636SOL    HW1 1924   2.484   2.660   0.202
  636SOL    HW2 1925   2.382   2.624   0.324
  637SOL     OW 1926   2.669   2.467   1.465
  637SOL    HW1 1927   2.622   2.464   1.554
  637SOL    HW2 1928   2.618   2.412   1.399
  638SOL     OW 1929   1.938   2.673   0.789
  638SOL    HW1 1930   2.037   2.661   0.798
  638SOL    HW2 1931   1.914   2.768   0.810
  639SOL     OW 1932   2.727   2.210   0.195
  639SOL    HW1 1933   2.786   2.273   0.146
  639SOL    HW2 1934   2.746   2.116   0.166
  640SOL     OW 1935   2.412   2.058   0.885
  640SOL    HW1 1936   2.407   2.053   0.985
  640SOL    HW2 1937   2.414   2.154   0.856
  641SOL     OW 1938   2.064   2.147   1.498
  641SOL    HW1 1939   1.984   2.207   1.485
  641SOL    HW2 1940   2.054   2.098   1.584
  642SOL     OW 1941   2.244   2.562   0.480
  642SOL    HW1 1942   2.289   2.472   0.477
  642SOL    HW2 1943   2.150   2.551   0.513
  643SOL     OW 1944   2.643   2.126   1.749
  643SOL    HW1 1945   2.710   2.065   1.792
  643SOL    HW2 1946   2.570   2.145   1.814
  644SOL     OW 1947   2.784   2.365   0.899
  644SOL    HW1 1948   2.759   2.356   0.803
  644SOL    HW2 1949   2.832   2.283   0.930
  645SOL     OW 1950   2.401   1.926   0.512
  645SOL    HW1 1951   2.320   1.927   0.570
  645SOL    HW2 1952   2.404   2.009   0.457
  646SOL     OW 1953   2.159   1.897   0.171
  646SOL    HW1 1954   2.208   1.981   0.150
  646SOL    HW2 1955   2.221   1.832   0.216
  647SOL     OW 1956   1.940   2.418   1.386
  647SOL    HW1 1957   2.032   2.417   1.345
  647SOL    HW2 1958   1.934   2.492   1.453
  648SOL     OW 1959   2.423   2.084   1.147
  648SOL    HW1 1960   2.461   2.000   1.184
  648SOL    HW2 1961   2.335   2.103   1.191
  649SOL     OW 1962   2.389   2.118   0.328
  649SOL    HW1 1963   2.416   2.059   0.253
  649SOL    HW2 1964   2.389   2.213   0.297
  650SOL     OW 1965   2.777   1.951   1.402
  650SOL    HW1 1966   2.802   1.931   1.307
  650SOL    HW2 1967   2.849   2.007   1.444
  651SOL     OW 1968   2.272   2.675   1.251
  651SOL    HW1 1969   2.358   2.687   1.301
  651SOL    HW2 1970   2.230   2.588   1.278
  652SOL     OW 1971   2.428   2.399   0.865
  652SOL    HW1 1972   2.440   2.465   0.791
  652SOL    HW2 1973   2.474   2.433   0.948
  653SOL     OW 1974   2.264   2.613   1.598
  653SOL    HW1 1975   2.332   2.668   1.551
  653SOL    HW2 1976   2.304   2.525   1.625
  654SOL     OW 1977   2.366   1.912   1.740
  654SOL    HW1 1978   2.324   1.855   1.670
  654SOL    HW2 1979   2.300   1.981   1.772
  655SOL     OW 1980   2.435   2.732   1.029
  655SOL    HW1 1981   2.479   2.821   1.020
  655SOL    HW2 1982   2.372   2.732   1.106
  656SOL     OW 1983   2.169   2.075   1.231
  656SOL    HW1 1984   2.146   2.112   1.321
  656SOL    HW2 1985   2.139   1.980   1.225
  657SOL     OW 1986   2.594   2.496   1.064
  657SOL    HW1 1987   2.653   2.470   0.988
  657SOL    HW2 1988   2.566   2.592   1.053
  658SOL     OW 1989   2.169   1.925   0.618
  658SOL    HW1 1990   2.158   2.019   0.651
  658SOL    HW2 1991   2.164   1.862   0.695
  659SOL     OW 1992   2.885   2.628   0.966
  659SOL    HW1 1993   2.900   2.649   1.062
  659SOL    HW2 1994   2.855   2.533   0.957
  660SOL     OW 1995   2.181   2.672   0.949
  660SOL    HW1 1996   2.274   2.708   0.954
  660SOL    HW2 1997   2.175   2.587   1.001
  661SOL     OW 1998   2.201   2.371   1.006
  661SOL    HW1 1999   2.149   2.288   0.989
  661SOL    HW2 2000   2.278   2.376   0.942
  662SOL     OW 2001   2.864   2.658   1.238
  662SOL    HW1 2002   2.905   2.626   1.324
  662SOL    HW2 2003   2.768   2.631   1.235
  663SOL     OW 2004   1.902   2.406   1.114
  663SOL    HW1 2005   1.987   2.373   1.073
  663SOL    HW2 2006   1.915   2.421   1.212
  664SOL     OW 2007   2.051   2.382   1.722
  664SOL    HW1 2008   2.110   2.342   1.652
  664SOL    HW2 2009   1.993   2.453   1.681
  665SOL     OW 2010   2.677   2.434   0.325
  665SOL    HW1 2011   2.684   2.345   0.279
  665SOL    HW2 2012   2.583   2.468   0.317
  666SOL     OW 2013   2.533   2.326   1.269
  666SOL    HW1 2014   2.499   2.237   1.239
  666SOL    HW2 2015   2.559   2.380   1.189
  667SOL     OW 2016   2.335   2.362   0.191
  667SOL    HW1 2017   2.396   2.442   0.195
  667SOL    HW2 2018   2.240   2.393   0.198
  668SOL     OW 2019   2.765   1.948   0.133
  668SOL    HW1 2020   2.816   1.949   0.047
  668SOL    HW2 2021   2.821   1.906   0.204
  669SOL     OW 2022   2.125   2.188   0.720
  669SOL    HW1 2023   2.046   2.239   0.686
  669SOL    HW2 2024   2.116   2.173   0.818
  670SOL     OW 2025   2.901   2.960   0.696
  670SOL    HW1 2026   2.831   2.913   0.750
  670SOL    HW2 2027   2.960   2.892   0.653
  671SOL     OW 2028   1.967   2.875   1.726
  671SOL    HW1 2029   1.890   2.842   1.780
  671SOL    HW2 2030   2.052   2.845   1.768
  672SOL     OW 2031   2.534   2.065   1.489
  672SOL    HW1 2032   2.624   2.049   1.449
  672SOL    HW2 2033   2.542   2.070   1.588
  673SOL     OW 2034   1.934   2.028   0.318
  673SOL    HW1 2035   1.917   2.111   0.264
  673SOL    HW2 2036   2.024   1.991   0.296
  674SOL     OW 2037   2.475   2.704   1.431
  674SOL    HW1 2038   2.531   2.785   1.414
  674SOL    HW2 2039   2.534   2.624   1.434
  675SOL     OW 2040   2.578   2.427   1.708
  675SOL    HW1 2041   2.597   2.492   1.782
  675SOL    HW2 2042   2.638   2.347   1.717
  676SOL     OW 2043   2.456   2.607   0.652
  676SOL    HW1 2044   2.506   2.692   0.633
  676SOL    HW2 2045   2.368   2.609   0.604
  677SOL     OW 2046   2.290   2.286   0.520
  677SOL    HW1 2047   2.320   2.214   0.458
  677SOL    HW2 2048   2.251   2.246   0.603
  678SOL     OW 2049   2.179   2.409   1.280
  678SOL    HW1 2050   2.217   2.350   1.352
  678SOL    HW2 2051   2.219   2.383   1.192
  679SOL     OW 2052   2.863   1.896   1.154
  679SOL    HW1 2053   2.800   1.824   1.123
  679SOL    HW2 2054   2.956   1.860   1.154
  680SOL     OW 2055   2.092   2.490   1.975
  680SOL    HW1 2056   1.999   2.488   2.012
  680SOL    HW2 2057   2.093   2.451   1.883
  681SOL     OW 2058   2.087   2.137   2.858
  681SOL    HW1 2059   2.122   2.120   2.950
  681SOL    HW2 2060   1.999   2.092   2.846
  682SOL     OW 2061   1.881   2.230   2.509
  682SOL    HW1 2062   1.799   2.273   2.548
  682SOL    HW2 2063   1.853   2.157   2.446
  683SOL     OW 2064   2.547   2.874   2.527
  683SOL    HW1 2065   2.616   2.858   2.597
  683SOL    HW2 2066   2.474   2.931   2.565
  684SOL     OW 2067   1.984   2.505   2.425
  684SOL    HW1 2068   1.939   2.417   2.442
  684SOL    HW2 2069   1.983   2.559   2.509
  685SOL     OW 2070   2.671   1.866   2.364
  685SOL    HW1 2071   2.711   1.957   2.355
  685SOL    HW2 2072   2.571   1.874   2.370
  686SOL     OW 2073   2.460   2.591   2.132
  686SOL    HW1 2074   2.484   2.660   2.064
  686SOL    HW2 2075   2.382   2.624   2.186
  687SOL     OW 2076   1.938   2.673   2.651
  687SOL    HW1 2077   2.037   2.661   2.660
  687SOL    HW2 2078   1.914   2.768   2.672
  688SOL     OW 2079   2.727   2.210   2.057
  688SOL    HW1 2080   2.786   2.273   2.008
  688SOL    HW2 2081   2.746   2.116   2.028
  689SOL     OW 2082   2.412   2.058   2.747
  689SOL    HW1 2083   2.407   2.053   2.847
  689SOL    HW2 2084   2.414   2.154   2.718
  690SOL     OW 2085   2.244   2.562   2.342
  690SOL    HW1 2086   2.289   2.472   2.339
  690SOL    HW2 2087   2.150   2.551   2.375
  691SOL     OW 2088   2.476   1.984   1.979
  691SOL    HW1 2089   2.574   1.962   1.986
  691SOL    HW2 2090   2.445   1.967   1.886
  692SOL     OW 2091   2.401   1.926   2.374
  692SOL    HW1 2092   2.320   1.927   2.432
  692SOL    HW2 2093   2.404   2.009   2.319
  693SOL     OW 2094   2.159   1.897   2.033
  693SOL    HW1 2095   2.208   1.981   2.012
  693SOL    HW2 2096   2.221   1.832   2.078
  694SOL     OW 2097   2.389   2.118   2.190
  694SOL    HW1 2098   2.416   2.059   2.115
  694SOL    HW2 2099   2.389   2.213   2.159
  695SOL     OW 2100   2.428   2.399   2.727
  695SOL    HW1 2101   2.440   2.465   2.653
  695SOL    HW2 2102   2.474   2.433   2.810
  696SOL     OW 2103   2.594   2.496   2.926
  696SOL    HW1 2104   2.653   2.470   2.850
  696SOL    HW2 2105   2.566   2.592   2.915
  697SOL     OW 2106   2.169   1.925   2.480
  697SOL    HW1 2107   2.158   2.019   2.513
  697SOL    HW2 2108   2.164   1.862   2.557
  698SOL     OW 2109   2.885   2.628   2.828
  698SOL    HW1 2110   2.900   2.649   2.924
  698SOL    HW2 2111   2.855   2.533   2.819
  699SOL     OW 2112   2.677   2.434   2.187
  699SOL    HW1 2113   2.684   2.345   2.141
  699SOL    HW2 2114   2.583   2.468   2.179
  700SOL     OW 2115   2.335   2.362   2.053
  700SOL    HW1 2116   2.396   2.442   2.057
  700SOL    HW2 2117   2.240   2.393   2.060
  701SOL     OW 2118   2.765   1.948   1.995
  701SOL    HW1 2119   2.816   1.949   1.909
  701SOL    HW2 2120   2.821   1.906   2.066
  702SOL     OW 2121   2.125   2.188   2.582
  702SOL    HW1 2122   2.046   2.239   2.548
  702SOL    HW2 2123   2.116   2.173   2.680
  703SOL     OW 2124   2.901   2.960   2.558
  703SOL    HW1 2125   2.831   2.913   2.612
  703SOL    HW2 2126   2.960   2.892   2.515
  704SOL     OW 2127   1.937   2.207   1.895
  704SOL    HW1 2128   1.845   2.179   1.866
  704SOL    HW2 2129   1.968   2.284   1.839
  705SOL     OW 2130   1.934   2.028   2.180
  705SOL    HW1 2131   1.917   2.111   2.126
  705SOL    HW2 2132   2.024   1.991   2.158
  706SOL     OW 2133   2.456   2.607   2.514
  706SOL    HW1 2134   2.506   2.692   2.495
  706SOL    HW2 2135   2.368   2.609   2.466
  707SOL     OW 2136   2.290   2.286   2.382
  707SOL    HW1 2137   2.320   2.214   2.320
  707SOL    HW2 2138   2.251   2.246   2.465
   2.81212   2.81212   2.81212
