mobley_5393242_GMX.gro created by acpype (v: 2023.10.27) on Thu May 14 13:27:56 2026
 2875
    1MOL     C1    1   1.643   1.570   1.297
    1MOL     C2    2   1.550   1.555   1.196
    1MOL     C3    3   1.601   1.534   1.422
    1MOL     C4    4   1.394   1.477   1.347
    1MOL     C5    5   1.584   1.590   1.055
    1MOL     C6    6   1.396   1.738   1.862
    1MOL     C7    7   2.007   1.627   1.789
    1MOL     C8    8   1.182   1.512   1.476
    1MOL     C9    9   1.259   1.279   1.419
    1MOL    C10   10   1.486   1.616   1.846
    1MOL    C11   11   1.906   1.525   1.739
    1MOL    C12   12   1.255   1.425   1.373
    1MOL     N1   13   1.425   1.509   1.220
    1MOL     N2   14   1.478   1.488   1.450
    1MOL     O1   15   1.690   1.548   1.525
    1MOL     O2   16   1.534   1.613   1.713
    1MOL     O3   17   1.776   1.577   1.757
    1MOL     P1   18   1.652   1.508   1.677
    1MOL     S1   19   1.625   1.321   1.719
    1MOL     H1   20   1.742   1.607   1.278
    1MOL     H2   21   1.669   1.529   1.020
    1MOL     H3   22   1.500   1.572   0.988
    1MOL     H4   23   1.611   1.696   1.048
    1MOL     H5   24   1.452   1.830   1.841
    1MOL     H6   25   1.313   1.734   1.791
    1MOL     H7   26   1.356   1.744   1.964
    1MOL     H8   27   1.997   1.721   1.734
    1MOL     H9   28   1.989   1.650   1.894
    1MOL    H10   29   2.109   1.590   1.777
    1MOL    H11   30   1.232   1.510   1.574
    1MOL    H12   31   1.079   1.477   1.490
    1MOL    H13   32   1.178   1.616   1.443
    1MOL    H14   33   1.312   1.268   1.514
    1MOL    H15   34   1.310   1.216   1.345
    1MOL    H16   35   1.158   1.239   1.432
    1MOL    H17   36   1.428   1.525   1.866
    1MOL    H18   37   1.569   1.622   1.917
    1MOL    H19   38   1.916   1.432   1.796
    1MOL    H20   39   1.924   1.503   1.633
    1MOL    H21   40   1.198   1.429   1.280
    2SOL     OW   41   0.230   0.628   0.113
    2SOL    HW1   42   0.137   0.626   0.150
    2SOL    HW2   43   0.231   0.589   0.021
    3SOL     OW   44   0.225   0.275   0.996
    3SOL    HW1   45   0.260   0.258   1.088
    3SOL    HW2   46   0.137   0.230   0.984
    4SOL     OW   47   0.019   0.368   0.647
    4SOL    HW1   48  -0.063   0.411   0.686
    4SOL    HW2   49  -0.009   0.295   0.584
    5SOL     OW   50   0.569   1.275   1.165
    5SOL    HW1   51   0.476   1.268   1.128
    5SOL    HW2   52   0.580   1.364   1.209
    6SOL     OW   53   1.555   1.511   0.703
    6SOL    HW1   54   1.498   1.495   0.784
    6SOL    HW2   55   1.496   1.521   0.623
    7SOL     OW   56   1.135   0.703   0.717
    7SOL    HW1   57   1.192   0.781   0.692
    7SOL    HW2   58   1.075   0.729   0.793
    8SOL     OW   59   1.755   0.607   0.231
    8SOL    HW1   60   1.743   0.594   0.132
    8SOL    HW2   61   1.725   0.526   0.280
    9SOL     OW   62   0.768   1.144   1.023
    9SOL    HW1   63   0.690   1.161   1.083
    9SOL    HW2   64   0.802   1.231   0.987
   10SOL     OW   65   0.850   0.798   1.823
   10SOL    HW1   66   0.846   0.874   1.888
   10SOL    HW2   67   0.872   0.834   1.732
   11SOL     OW   68   0.685   1.012   0.665
   11SOL    HW1   69   0.754   0.996   0.735
   11SOL    HW2   70   0.612   1.069   0.703
   12SOL     OW   71   0.686   1.161   1.803
   12SOL    HW1   72   0.746   1.240   1.817
   12SOL    HW2   73   0.600   1.192   1.762
   13SOL     OW   74   0.335   1.435   1.061
   13SOL    HW1   75   0.257   1.404   1.008
   13SOL    HW2   76   0.393   1.493   1.004
   14SOL     OW   77   0.438   0.392   1.499
   14SOL    HW1   78   0.520   0.336   1.508
   14SOL    HW2   79   0.357   0.334   1.503
   15SOL     OW   80   1.603   0.447   0.737
   15SOL    HW1   81   1.529   0.493   0.687
   15SOL    HW2   82   1.654   0.515   0.790
   16SOL     OW   83   0.231   1.713   0.483
   16SOL    HW1   84   0.265   1.790   0.537
   16SOL    HW2   85   0.275   1.713   0.393
   17SOL     OW   86   1.127   1.341   1.690
   17SOL    HW1   87   1.174   1.341   1.778
   17SOL    HW2   88   1.079   1.254   1.679
   18SOL     OW   89   0.230   1.434   0.538
   18SOL    HW1   90   0.204   1.530   0.538
   18SOL    HW2   91   0.159   1.380   0.583
   19SOL     OW   92   0.240   1.091   0.886
   19SOL    HW1   93   0.254   1.007   0.938
   19SOL    HW2   94   0.185   1.155   0.941
   20SOL     OW   95   0.620   1.786   1.439
   20SOL    HW1   96   0.528   1.769   1.474
   20SOL    HW2   97   0.648   1.878   1.465
   21SOL     OW   98   0.606   0.964   0.123
   21SOL    HW1   99   0.613   1.048   0.069
   21SOL    HW2  100   0.652   0.977   0.211
   22SOL     OW  101   1.594   0.114   1.480
   22SOL    HW1  102   1.576   0.181   1.408
   22SOL    HW2  103   1.591   0.160   1.569
   23SOL     OW  104   0.122   0.643   0.563
   23SOL    HW1  105   0.077   0.555   0.580
   23SOL    HW2  106   0.121   0.697   0.647
   24SOL     OW  107   1.842   1.767   0.359
   24SOL    HW1  108   1.896   1.738   0.439
   24SOL    HW2  109   1.872   1.857   0.330
   25SOL     OW  110   0.027   1.596   0.117
   25SOL    HW1  111   0.008   1.500   0.138
   25SOL    HW2  112  -0.006   1.654   0.192
   26SOL     OW  113   1.689   0.922   0.612
   26SOL    HW1  114   1.784   0.893   0.620
   26SOL    HW2  115   1.681   0.987   0.537
   27SOL     OW  116   1.641   1.108   0.432
   27SOL    HW1  117   1.727   1.110   0.380
   27SOL    HW2  118   1.655   1.155   0.520
   28SOL     OW  119   0.113   0.737   1.597
   28SOL    HW1  120   0.201   0.724   1.642
   28SOL    HW2  121   0.100   0.834   1.575
   29SOL     OW  122   0.613   1.365   0.726
   29SOL    HW1  123   0.564   1.278   0.735
   29SOL    HW2  124   0.590   1.408   0.639
   30SOL     OW  125   0.809   0.004   0.502
   30SOL    HW1  126   0.849   0.095   0.493
   30SOL    HW2  127   0.709   0.012   0.508
   31SOL     OW  128   0.197   0.976   1.264
   31SOL    HW1  129   0.286   0.931   1.250
   31SOL    HW2  130   0.124   0.911   1.245
   32SOL     OW  131   1.525   0.999   0.190
   32SOL    HW1  132   1.462   0.923   0.203
   32SOL    HW2  133   1.573   1.017   0.276
   33SOL     OW  134   1.187   1.792   1.616
   33SOL    HW1  135   1.211   1.852   1.540
   33SOL    HW2  136   1.194   1.697   1.586
   34SOL     OW  137   0.317   0.251   1.801
   34SOL    HW1  138   0.388   0.322   1.807
   34SOL    HW2  139   0.229   0.290   1.829
   35SOL     OW  140   1.466   1.417   0.953
   35SOL    HW1  141   1.407   1.423   1.033
   35SOL    HW2  142   1.451   1.329   0.907
   36SOL     OW  143   1.667   1.714   0.572
   36SOL    HW1  144   1.626   1.691   0.484
   36SOL    HW2  145   1.649   1.640   0.637
   37SOL     OW  146   0.598   0.729   0.270
   37SOL    HW1  147   0.622   0.798   0.202
   37SOL    HW2  148   0.520   0.762   0.324
   38SOL     OW  149   1.281   0.345   0.944
   38SOL    HW1  150   1.195   0.295   0.931
   38SOL    HW2  151   1.343   0.291   1.000
   39SOL     OW  152   1.576   1.662   0.307
   39SOL    HW1  153   1.665   1.708   0.310
   39SOL    HW2  154   1.555   1.638   0.212
   40SOL     OW  155   0.807   0.605   1.465
   40SOL    HW1  156   0.760   0.602   1.554
   40SOL    HW2  157   0.756   0.550   1.399
   41SOL     OW  158   1.394   0.469   1.674
   41SOL    HW1  159   1.374   0.512   1.762
   41SOL    HW2  160   1.472   0.407   1.683
   42SOL     OW  161   0.973   0.890   1.572
   42SOL    HW1  162   1.019   0.806   1.543
   42SOL    HW2  163   0.917   0.924   1.497
   43SOL     OW  164   0.991   0.410   1.242
   43SOL    HW1  165   0.914   0.444   1.296
   43SOL    HW2  166   0.957   0.359   1.163
   44SOL     OW  167   1.041   0.701   0.429
   44SOL    HW1  168   1.067   0.697   0.525
   44SOL    HW2  169   0.956   0.650   0.415
   45SOL     OW  170   0.076   0.811   0.789
   45SOL    HW1  171   0.175   0.799   0.798
   45SOL    HW2  172   0.052   0.906   0.810
   46SOL     OW  173   0.130   1.821   1.571
   46SOL    HW1  174   0.120   1.806   1.670
   46SOL    HW2  175   0.044   1.857   1.535
   47SOL     OW  176   0.865   0.348   0.195
   47SOL    HW1  177   0.924   0.411   0.146
   47SOL    HW2  178   0.884   0.254   0.166
   48SOL     OW  179   1.719   0.585   1.831
   48SOL    HW1  180   1.693   0.674   1.795
   48SOL    HW2  181   1.717   0.517   1.758
   49SOL     OW  182   1.362   1.144   0.545
   49SOL    HW1  183   1.445   1.115   0.497
   49SOL    HW2  184   1.313   1.211   0.489
   50SOL     OW  185   0.550   0.196   0.885
   50SOL    HW1  186   0.545   0.191   0.985
   50SOL    HW2  187   0.552   0.292   0.856
   51SOL     OW  188   1.008   1.456   0.477
   51SOL    HW1  189   0.962   1.528   0.425
   51SOL    HW2  190   1.004   1.476   0.575
   52SOL     OW  191   0.351   1.801   0.853
   52SOL    HW1  192   0.401   1.715   0.859
   52SOL    HW2  193   0.416   1.878   0.850
   53SOL     OW  194   1.795   1.066   0.873
   53SOL    HW1  195   1.733   1.051   0.797
   53SOL    HW2  196   1.743   1.077   0.958
   54SOL     OW  197   0.321   0.943   0.242
   54SOL    HW1  198   0.403   0.982   0.200
   54SOL    HW2  199   0.294   0.861   0.193
   55SOL     OW  200   1.458   0.735   0.728
   55SOL    HW1  201   1.453   0.670   0.803
   55SOL    HW2  202   1.538   0.794   0.741
   56SOL     OW  203   0.461   1.266   1.727
   56SOL    HW1  204   0.411   1.267   1.641
   56SOL    HW2  205   0.398   1.248   1.803
   57SOL     OW  206   1.111   1.776   0.237
   57SOL    HW1  207   1.051   1.714   0.287
   57SOL    HW2  208   1.142   1.732   0.152
   58SOL     OW  209   0.202   0.285   1.498
   58SOL    HW1  210   0.122   0.345   1.485
   58SOL    HW2  211   0.192   0.236   1.584
   59SOL     OW  212   1.632   1.377   0.081
   59SOL    HW1  213   1.600   1.471   0.071
   59SOL    HW2  214   1.556   1.314   0.069
   60SOL     OW  215   0.464   1.743   0.323
   60SOL    HW1  216   0.497   1.782   0.409
   60SOL    HW2  217   0.540   1.736   0.258
   61SOL     OW  218   1.400   0.107   0.426
   61SOL    HW1  219   1.376   0.070   0.336
   61SOL    HW2  220   1.499   0.123   0.430
   62SOL     OW  221   0.249   1.785   1.241
   62SOL    HW1  222   0.306   1.720   1.291
   62SOL    HW2  223   0.233   1.752   1.148
   63SOL     OW  224   0.940   1.698   0.904
   63SOL    HW1  225   1.020   1.641   0.925
   63SOL    HW2  226   0.891   1.658   0.827
   64SOL     OW  227   0.382   0.700   0.480
   64SOL    HW1  228   0.427   0.610   0.477
   64SOL    HW2  229   0.288   0.689   0.513
   65SOL     OW  230   1.547   0.222   1.729
   65SOL    HW1  231   1.542   0.259   1.821
   65SOL    HW2  232   1.475   0.153   1.717
   66SOL     OW  233   0.614   0.122   0.117
   66SOL    HW1  234   0.712   0.100   0.124
   66SOL    HW2  235   0.583   0.105   0.024
   67SOL     OW  236   0.781   0.264   1.749
   67SOL    HW1  237   0.848   0.203   1.792
   67SOL    HW2  238   0.708   0.283   1.814
   68SOL     OW  239   0.888   1.514   1.195
   68SOL    HW1  240   0.865   1.489   1.101
   68SOL    HW2  241   0.949   1.445   1.234
   69SOL     OW  242   1.351   0.590   1.433
   69SOL    HW1  243   1.379   0.547   1.518
   69SOL    HW2  244   1.376   0.686   1.434
   70SOL     OW  245   0.803   1.402   0.924
   70SOL    HW1  246   0.893   1.416   0.882
   70SOL    HW2  247   0.732   1.404   0.853
   71SOL     OW  248   0.922   0.503   0.899
   71SOL    HW1  249   0.897   0.494   0.803
   71SOL    HW2  250   0.970   0.421   0.930
   72SOL     OW  251   0.539   0.064   0.512
   72SOL    HW1  252   0.458   0.065   0.570
   72SOL    HW2  253   0.542   0.147   0.457
   73SOL     OW  254   1.434   1.188   0.041
   73SOL    HW1  255   1.466   1.112   0.098
   73SOL    HW2  256   1.342   1.215   0.071
   74SOL     OW  257   0.297   0.035   0.171
   74SOL    HW1  258   0.346   0.119   0.150
   74SOL    HW2  259   0.359  -0.030   0.216
   75SOL     OW  260   0.935   0.236   0.480
   75SOL    HW1  261   0.887   0.277   0.402
   75SOL    HW2  262   1.034   0.234   0.461
   76SOL     OW  263   1.076   0.683   1.464
   76SOL    HW1  264   0.996   0.622   1.467
   76SOL    HW2  265   1.157   0.630   1.440
   77SOL     OW  266   1.227   1.570   0.793
   77SOL    HW1  267   1.248   1.644   0.728
   77SOL    HW2  268   1.295   1.570   0.866
   78SOL     OW  269   0.459   1.152   0.741
   78SOL    HW1  270   0.388   1.125   0.806
   78SOL    HW2  271   0.433   1.124   0.648
   79SOL     OW  272   1.271   1.797   0.591
   79SOL    HW1  273   1.315   1.861   0.527
   79SOL    HW2  274   1.221   1.849   0.661
   80SOL     OW  275   1.032   0.549   0.016
   80SOL    HW1  276   0.991   0.631  -0.023
   80SOL    HW2  277   1.096   0.575   0.089
   81SOL     OW  278   0.078   0.556   1.386
   81SOL    HW1  279   0.170   0.555   1.345
   81SOL    HW2  280   0.072   0.630   1.453
   82SOL     OW  281   0.561   0.222   1.147
   82SOL    HW1  282   0.599   0.138   1.184
   82SOL    HW2  283   0.473   0.241   1.191
   83SOL     OW  284   0.866   0.454   0.642
   83SOL    HW1  285   0.834   0.526   0.580
   83SOL    HW2  286   0.890   0.373   0.589
   84SOL     OW  287   1.017   0.039   0.753
   84SOL    HW1  288   0.945   0.044   0.684
   84SOL    HW2  289   0.993  -0.030   0.822
   85SOL     OW  290   1.429   1.173   0.867
   85SOL    HW1  291   1.374   1.089   0.860
   85SOL    HW2  292   1.455   1.202   0.775
   86SOL     OW  293   1.466   0.590   0.992
   86SOL    HW1  294   1.436   0.495   0.999
   86SOL    HW2  295   1.539   0.606   1.058
   87SOL     OW  296   1.857   0.833   0.377
   87SOL    HW1  297   1.899   0.769   0.441
   87SOL    HW2  298   1.819   0.782   0.299
   88SOL     OW  299   0.488   1.385   0.174
   88SOL    HW1  300   0.401   1.370   0.221
   88SOL    HW2  301   0.471   1.411   0.079
   89SOL     OW  302   1.664   1.280   0.657
   89SOL    HW1  303   1.763   1.288   0.671
   89SOL    HW2  304   1.619   1.364   0.688
   90SOL     OW  305   1.390   0.575   0.078
   90SOL    HW1  306   1.336   0.554   0.159
   90SOL    HW2  307   1.481   0.534   0.087
   91SOL     OW  308   0.527   0.256   0.328
   91SOL    HW1  309   0.554   0.197   0.253
   91SOL    HW2  310   0.527   0.351   0.297
   92SOL     OW  311   1.754   1.223   1.588
   92SOL    HW1  312   1.845   1.184   1.575
   92SOL    HW2  313   1.762   1.319   1.612
   93SOL     OW  314   1.111   1.195   1.100
   93SOL    HW1  315   1.071   1.239   1.181
   93SOL    HW2  316   1.070   1.232   1.017
   94SOL     OW  317   1.638   1.099   1.079
   94SOL    HW1  318   1.643   1.180   1.138
   94SOL    HW2  319   1.552   1.101   1.028
   95SOL     OW  320   0.915   0.089   1.402
   95SOL    HW1  321   0.940   0.069   1.307
   95SOL    HW2  322   0.987   0.145   1.444
   96SOL     OW  323   0.980   1.116   1.719
   96SOL    HW1  324   0.881   1.122   1.729
   96SOL    HW2  325   1.003   1.036   1.663
   97SOL     OW  326   0.705   1.050   0.368
   97SOL    HW1  327   0.691   1.057   0.467
   97SOL    HW2  328   0.789   0.999   0.350
   98SOL     OW  329   0.410   0.813   1.251
   98SOL    HW1  330   0.496   0.825   1.301
   98SOL    HW2  331   0.368   0.726   1.278
   99SOL     OW  332   1.274   0.386   1.262
   99SOL    HW1  333   1.295   0.460   1.326
   99SOL    HW2  334   1.185   0.403   1.219
  100SOL     OW  335   0.064   1.564   1.331
  100SOL    HW1  336   0.018   1.646   1.297
  100SOL    HW2  337   0.162   1.583   1.340
  101SOL     OW  338   0.367   1.100   0.501
  101SOL    HW1  339   0.360   1.183   0.445
  101SOL    HW2  340   0.371   1.020   0.441
  102SOL     OW  341   0.566   0.537   0.865
  102SOL    HW1  342   0.578   0.603   0.791
  102SOL    HW2  343   0.612   0.571   0.948
  103SOL     OW  344   1.252   1.348   0.388
  103SOL    HW1  345   1.302   1.425   0.428
  103SOL    HW2  346   1.157   1.350   0.420
  104SOL     OW  347   1.582   0.639   0.472
  104SOL    HW1  348   1.551   0.700   0.545
  104SOL    HW2  349   1.632   0.691   0.403
  105SOL     OW  350   0.354   1.510   1.329
  105SOL    HW1  351   0.333   1.466   1.242
  105SOL    HW2  352   0.451   1.536   1.332
  106SOL     OW  353   0.402   0.751   1.598
  106SOL    HW1  354   0.470   0.806   1.551
  106SOL    HW2  355   0.442   0.663   1.625
  107SOL     OW  356   1.587   0.779   1.670
  107SOL    HW1  357   1.495   0.817   1.665
  107SOL    HW2  358   1.647   0.826   1.605
  108SOL     OW  359   1.013   0.105   1.770
  108SOL    HW1  360   1.019   0.190   1.718
  108SOL    HW2  361   1.045   0.029   1.713
  109SOL     OW  362   0.504   0.050   1.740
  109SOL    HW1  363   0.462  -0.007   1.670
  109SOL    HW2  364   0.438   0.119   1.772
  110SOL     OW  365   0.573   0.870   1.029
  110SOL    HW1  366   0.617   0.959   1.020
  110SOL    HW2  367   0.510   0.870   1.106
  111SOL     OW  368   1.360   0.862   1.045
  111SOL    HW1  369   1.285   0.862   0.979
  111SOL    HW2  370   1.397   0.770   1.054
  112SOL     OW  371   1.209   0.525   0.275
  112SOL    HW1  372   1.222   0.441   0.329
  112SOL    HW2  373   1.180   0.599   0.335
  113SOL     OW  374   0.307   0.213   1.231
  113SOL    HW1  375   0.284   0.250   1.321
  113SOL    HW2  376   0.277   0.118   1.225
  114SOL     OW  377   0.037   1.310   1.282
  114SOL    HW1  378   0.090   1.261   1.350
  114SOL    HW2  379   0.059   1.408   1.287
  115SOL     OW  380   0.732   0.634   1.064
  115SOL    HW1  381   0.791   0.608   0.988
  115SOL    HW2  382   0.704   0.730   1.053
  116SOL     OW  383   1.728   0.935   1.854
  116SOL    HW1  384   1.682   0.928   1.765
  116SOL    HW2  385   1.666   0.979   1.920
  117SOL     OW  386   0.307   0.063   0.618
  117SOL    HW1  387   0.296   0.157   0.651
  117SOL    HW2  388   0.302   0.000   0.695
  118SOL     OW  389   1.622   0.367   0.374
  118SOL    HW1  390   1.624   0.291   0.438
  118SOL    HW2  391   1.574   0.444   0.414
  119SOL     OW  392   1.023   0.766   0.966
  119SOL    HW1  393   1.038   0.787   1.062
  119SOL    HW2  394   0.993   0.671   0.957
  120SOL     OW  395   0.980   1.573   1.700
  120SOL    HW1  396   0.960   1.617   1.612
  120SOL    HW2  397   1.019   1.482   1.684
  121SOL     OW  398   0.350   0.898   1.804
  121SOL    HW1  399   0.426   0.942   1.852
  121SOL    HW2  400   0.385   0.851   1.722
  122SOL     OW  401   1.540   0.274   0.125
  122SOL    HW1  402   1.479   0.199   0.148
  122SOL    HW2  403   1.562   0.326   0.208
  123SOL     OW  404   1.303   0.838   0.042
  123SOL    HW1  405   1.337   0.745   0.057
  123SOL    HW2  406   1.321   0.865  -0.053
  124SOL     OW  407   1.068   1.333   0.849
  124SOL    HW1  408   1.075   1.249   0.794
  124SOL    HW2  409   1.130   1.402   0.813
  125SOL     OW  410   0.319   0.810   0.949
  125SOL    HW1  411   0.412   0.846   0.954
  125SOL    HW2  412   0.313   0.725   1.001
  126SOL     OW  413   0.339   0.509   1.006
  126SOL    HW1  414   0.287   0.426   0.989
  126SOL    HW2  415   0.416   0.514   0.942
  127SOL     OW  416   1.138   0.380   1.678
  127SOL    HW1  417   1.093   0.443   1.742
  127SOL    HW2  418   1.231   0.411   1.661
  128SOL     OW  419   1.160   0.207   1.477
  128SOL    HW1  420   1.160   0.271   1.554
  128SOL    HW2  421   1.188   0.255   1.394
  129SOL     OW  422   0.008   1.326   0.200
  129SOL    HW1  423  -0.085   1.347   0.169
  129SOL    HW2  424   0.018   1.227   0.213
  130SOL     OW  425   0.088   1.801   0.927
  130SOL    HW1  426   0.046   1.715   0.900
  130SOL    HW2  427   0.182   1.804   0.893
  131SOL     OW  428   0.504   1.568   0.910
  131SOL    HW1  429   0.570   1.642   0.919
  131SOL    HW2  430   0.548   1.489   0.868
  132SOL     OW  431   1.002   0.796   1.238
  132SOL    HW1  432   1.043   0.764   1.324
  132SOL    HW2  433   0.906   0.769   1.235
  133SOL     OW  434   0.040   0.544   1.114
  133SOL    HW1  435   0.125   0.511   1.073
  133SOL    HW2  436   0.053   0.559   1.212
  134SOL     OW  437   0.189   0.520   1.722
  134SOL    HW1  438   0.248   0.480   1.652
  134SOL    HW2  439   0.131   0.591   1.681
  135SOL     OW  440   1.369   0.950   1.660
  135SOL    HW1  441   1.408   1.039   1.680
  135SOL    HW2  442   1.379   0.930   1.563
  136SOL     OW  443   0.815   0.572   0.325
  136SOL    HW1  444   0.822   0.483   0.279
  136SOL    HW2  445   0.721   0.606   0.317
  137SOL     OW  446   1.657   0.604   1.206
  137SOL    HW1  447   1.619   0.535   1.268
  137SOL    HW2  448   1.739   0.568   1.162
  138SOL     OW  449   0.252   1.564   1.744
  138SOL    HW1  450   0.222   1.621   1.820
  138SOL    HW2  451   0.245   1.467   1.770
  139SOL     OW  452   0.671   0.464   1.269
  139SOL    HW1  453   0.637   0.375   1.239
  139SOL    HW2  454   0.697   0.518   1.189
  140SOL     OW  455   0.930   1.678   1.465
  140SOL    HW1  456   0.906   1.660   1.370
  140SOL    HW2  457   0.960   1.772   1.475
  141SOL     OW  458   0.473   0.500   0.191
  141SOL    HW1  459   0.534   0.580   0.195
  141SOL    HW2  460   0.378   0.531   0.198
  142SOL     OW  461   0.159   1.137   1.466
  142SOL    HW1  462   0.181   1.076   1.542
  142SOL    HW2  463   0.169   1.088   1.380
  143SOL     OW  464   1.347   1.059   1.234
  143SOL    HW1  465   1.371   0.996   1.160
  143SOL    HW2  466   1.257   1.099   1.216
  144SOL     OW  467   1.302   0.855   0.309
  144SOL    HW1  468   1.216   0.824   0.351
  144SOL    HW2  469   1.298   0.841   0.210
  145SOL     OW  470   1.759   1.747   1.154
  145SOL    HW1  471   1.820   1.777   1.081
  145SOL    HW2  472   1.721   1.658   1.132
  146SOL     OW  473   1.252   1.731   1.128
  146SOL    HW1  474   1.336   1.736   1.074
  146SOL    HW2  475   1.229   1.635   1.146
  147SOL     OW  476   0.083   1.258   1.022
  147SOL    HW1  477   0.078   1.257   1.122
  147SOL    HW2  478   0.000   1.217   0.984
  148SOL     OW  479   0.688   1.662   1.716
  148SOL    HW1  480   0.632   1.743   1.725
  148SOL    HW2  481   0.740   1.666   1.630
  149SOL     OW  482   0.903   0.086   0.133
  149SOL    HW1  483   0.954   0.087   0.047
  149SOL    HW2  484   0.959   0.044   0.204
  150SOL     OW  485   1.726   0.135   0.523
  150SOL    HW1  486   1.799   0.118   0.456
  150SOL    HW2  487   1.695   0.048   0.561
  151SOL     OW  488   1.388   1.573   0.477
  151SOL    HW1  489   1.455   1.585   0.403
  151SOL    HW2  490   1.348   1.662   0.500
  152SOL     OW  491   0.130   1.794   1.851
  152SOL    HW1  492   0.089   1.720   1.904
  152SOL    HW2  493   0.194   1.845   1.909
  153SOL     OW  494   1.280   0.927   0.672
  153SOL    HW1  495   1.340   0.846   0.674
  153SOL    HW2  496   1.320   0.996   0.612
  154SOL     OW  497   0.830   1.273   1.422
  154SOL    HW1  498   0.825   1.306   1.517
  154SOL    HW2  499   0.744   1.292   1.376
  155SOL     OW  500   0.672   1.616   0.154
  155SOL    HW1  501   0.681   1.626   0.055
  155SOL    HW2  502   0.632   1.527   0.175
  156SOL     OW  503   1.841   0.175   0.963
  156SOL    HW1  504   1.880   0.090   0.927
  156SOL    HW2  505   1.743   0.177   0.944
  157SOL     OW  506   0.263   0.326   0.720
  157SOL    HW1  507   0.184   0.377   0.686
  157SOL    HW2  508   0.254   0.311   0.818
  158SOL     OW  509   1.194   1.612   0.031
  158SOL    HW1  510   1.200   1.519   0.068
  158SOL    HW2  511   1.135   1.612  -0.049
  159SOL     OW  512   0.822   1.002   1.372
  159SOL    HW1  513   0.862   1.001   1.280
  159SOL    HW2  514   0.832   1.094   1.412
  160SOL     OW  515   0.916   0.910   0.291
  160SOL    HW1  516   0.979   0.948   0.223
  160SOL    HW2  517   0.956   0.827   0.330
  161SOL     OW  518   1.504   1.607   0.044
  161SOL    HW1  519   1.412   1.644   0.051
  161SOL    HW2  520   1.542   1.627  -0.046
  162SOL     OW  521   0.372   1.288   1.490
  162SOL    HW1  522   0.359   1.381   1.456
  162SOL    HW2  523   0.288   1.236   1.477
  163SOL     OW  524   1.614   1.292   1.289
  163SOL    HW1  525   1.674   1.295   1.369
  163SOL    HW2  526   1.539   1.356   1.302
  164SOL     OW  527   1.039   1.098   0.696
  164SOL    HW1  528   0.969   1.051   0.750
  164SOL    HW2  529   1.098   1.030   0.653
  165SOL     OW  530   1.014   0.236   0.971
  165SOL    HW1  531   1.006   0.200   0.878
  165SOL    HW2  532   1.012   0.160   1.036
  166SOL     OW  533   0.590   1.487   0.491
  166SOL    HW1  534   0.632   1.429   0.421
  166SOL    HW2  535   0.546   1.566   0.447
  167SOL     OW  536   1.709   0.385   1.381
  167SOL    HW1  537   1.782   0.454   1.385
  167SOL    HW2  538   1.737   0.310   1.322
  168SOL     OW  539   0.255   1.348   0.290
  168SOL    HW1  540   0.159   1.349   0.263
  168SOL    HW2  541   0.267   1.401   0.374
  169SOL     OW  542   0.105   1.013   1.726
  169SOL    HW1  543   0.028   0.980   1.780
  169SOL    HW2  544   0.190   0.983   1.768
  170SOL     OW  545   0.672   0.203   1.489
  170SOL    HW1  546   0.762   0.187   1.449
  170SOL    HW2  547   0.680   0.208   1.588
  171SOL     OW  548   0.075   0.345   0.033
  171SOL    HW1  549  -0.017   0.317   0.004
  171SOL    HW2  550   0.106   0.422  -0.023
  172SOL     OW  551   1.440   0.856   1.398
  172SOL    HW1  552   1.383   0.908   1.335
  172SOL    HW2  553   1.536   0.868   1.374
  173SOL     OW  554   0.072   0.166   0.318
  173SOL    HW1  555   0.055   0.249   0.264
  173SOL    HW2  556   0.162   0.129   0.296
  174SOL     OW  557   1.183   1.335   0.119
  174SOL    HW1  558   1.084   1.324   0.121
  174SOL    HW2  559   1.217   1.350   0.212
  175SOL     OW  560   0.613   0.842   1.431
  175SOL    HW1  561   0.669   0.923   1.414
  175SOL    HW2  562   0.672   0.762   1.434
  176SOL     OW  563   0.716   0.565   1.708
  176SOL    HW1  564   0.735   0.630   1.782
  176SOL    HW2  565   0.776   0.485   1.717
  177SOL     OW  566   1.450   1.220   1.633
  177SOL    HW1  567   1.441   1.210   1.732
  177SOL    HW2  568   1.546   1.213   1.607
  178SOL     OW  569   0.390   1.741   1.560
  178SOL    HW1  570   0.299   1.782   1.558
  178SOL    HW2  571   0.383   1.647   1.592
  179SOL     OW  572   1.674   0.883   1.254
  179SOL    HW1  573   1.647   0.794   1.217
  179SOL    HW2  574   1.675   0.951   1.181
  180SOL     OW  575   1.225   0.325   0.449
  180SOL    HW1  576   1.290   0.251   0.438
  180SOL    HW2  577   1.245   0.375   0.533
  181SOL     OW  578   0.594   0.745   0.652
  181SOL    HW1  579   0.644   0.830   0.633
  181SOL    HW2  580   0.506   0.747   0.604
  182SOL     OW  581   1.777   0.342   1.642
  182SOL    HW1  582   1.760   0.373   1.548
  182SOL    HW2  583   1.693   0.305   1.680
  183SOL     OW  584   1.730   0.934   1.517
  183SOL    HW1  585   1.768   1.025   1.532
  183SOL    HW2  586   1.722   0.917   1.418
  184SOL     OW  587   0.859   1.374   0.016
  184SOL    HW1  588   0.813   1.389   0.104
  184SOL    HW2  589   0.903   1.459  -0.014
  185SOL     OW  590   0.661   1.790   0.953
  185SOL    HW1  591   0.615   1.878   0.940
  185SOL    HW2  592   0.760   1.802   0.946
  186SOL     OW  593   0.859   0.956   0.861
  186SOL    HW1  594   0.913   0.887   0.909
  186SOL    HW2  595   0.827   1.025   0.927
  187SOL     OW  596   1.083   0.984   0.087
  187SOL    HW1  597   1.060   1.037   0.005
  187SOL    HW2  598   1.164   0.928   0.068
  188SOL     OW  599   1.861   1.569   0.851
  188SOL    HW1  600   1.790   1.557   0.781
  188SOL    HW2  601   1.862   1.490   0.911
  189SOL     OW  602   0.221   1.314   1.844
  189SOL    HW1  603   0.156   1.241   1.823
  189SOL    HW2  604   0.225   1.328   1.942
  190SOL     OW  605   0.079   1.240   0.653
  190SOL    HW1  606   0.078   1.193   0.741
  190SOL    HW2  607   0.161   1.212   0.602
  191SOL     OW  608   0.672   1.391   1.624
  191SOL    HW1  609   0.594   1.341   1.662
  191SOL    HW2  610   0.669   1.486   1.655
  192SOL     OW  611   1.824   0.192   1.227
  192SOL    HW1  612   1.820   0.102   1.271
  192SOL    HW2  613   1.827   0.181   1.128
  193SOL     OW  614   0.428   0.424   0.520
  193SOL    HW1  615   0.458   0.352   0.458
  193SOL    HW2  616   0.389   0.384   0.603
  194SOL     OW  617   0.317   0.547   1.280
  194SOL    HW1  618   0.355   0.488   1.352
  194SOL    HW2  619   0.357   0.521   1.192
  195SOL     OW  620   0.812   1.586   0.687
  195SOL    HW1  621   0.844   1.596   0.593
  195SOL    HW2  622   0.733   1.524   0.689
  196SOL     OW  623   1.424   0.214   1.112
  196SOL    HW1  624   1.476   0.149   1.167
  196SOL    HW2  625   1.375   0.277   1.173
  197SOL     OW  626   1.001   0.034   1.154
  197SOL    HW1  627   0.938  -0.038   1.123
  197SOL    HW2  628   1.094  -0.002   1.154
  198SOL     OW  629   0.770   1.330   0.301
  198SOL    HW1  630   0.724   1.243   0.318
  198SOL    HW2  631   0.861   1.327   0.342
  199SOL     OW  632   0.618   1.567   1.284
  199SOL    HW1  633   0.613   1.649   1.341
  199SOL    HW2  634   0.707   1.564   1.239
  200SOL     OW  635   1.352   0.052   0.168
  200SOL    HW1  636   1.387   0.011   0.084
  200SOL    HW2  637   1.262   0.014   0.188
  201SOL     OW  638   1.300   0.453   0.691
  201SOL    HW1  639   1.241   0.533   0.695
  201SOL    HW2  640   1.315   0.418   0.784
  202SOL     OW  641   1.593   0.221   0.882
  202SOL    HW1  642   1.509   0.220   0.936
  202SOL    HW2  643   1.595   0.304   0.826
  203SOL     OW  644   0.039   1.077   0.300
  203SOL    HW1  645   0.138   1.066   0.291
  203SOL    HW2  646  -0.001   0.991   0.332
  204SOL     OW  647   0.875   1.646   0.337
  204SOL    HW1  648   0.798   1.611   0.283
  204SOL    HW2  649   0.843   1.717   0.399
  205SOL     OW  650   0.230   0.628   1.975
  205SOL    HW1  651   0.137   0.626   2.012
  205SOL    HW2  652   0.231   0.589   1.883
  206SOL     OW  653   0.225   0.275   2.858
  206SOL    HW1  654   0.260   0.258   2.950
  206SOL    HW2  655   0.137   0.230   2.846
  207SOL     OW  656   0.019   0.368   2.509
  207SOL    HW1  657  -0.063   0.411   2.548
  207SOL    HW2  658  -0.009   0.295   2.446
  208SOL     OW  659   0.569   1.275   3.027
  208SOL    HW1  660   0.476   1.268   2.990
  208SOL    HW2  661   0.580   1.364   3.071
  209SOL     OW  662   1.555   1.511   2.565
  209SOL    HW1  663   1.498   1.495   2.646
  209SOL    HW2  664   1.496   1.521   2.485
  210SOL     OW  665   1.135   0.703   2.579
  210SOL    HW1  666   1.192   0.781   2.554
  210SOL    HW2  667   1.075   0.729   2.655
  211SOL     OW  668   1.755   0.607   2.093
  211SOL    HW1  669   1.743   0.594   1.994
  211SOL    HW2  670   1.725   0.526   2.142
  212SOL     OW  671   0.768   1.144   2.885
  212SOL    HW1  672   0.690   1.161   2.945
  212SOL    HW2  673   0.802   1.231   2.849
  213SOL     OW  674   0.685   1.012   2.527
  213SOL    HW1  675   0.754   0.996   2.597
  213SOL    HW2  676   0.612   1.069   2.565
  214SOL     OW  677   0.335   1.435   2.923
  214SOL    HW1  678   0.257   1.404   2.870
  214SOL    HW2  679   0.393   1.493   2.866
  215SOL     OW  680   1.603   0.447   2.599
  215SOL    HW1  681   1.529   0.493   2.549
  215SOL    HW2  682   1.654   0.515   2.652
  216SOL     OW  683   0.231   1.713   2.345
  216SOL    HW1  684   0.265   1.790   2.399
  216SOL    HW2  685   0.275   1.713   2.255
  217SOL     OW  686   0.230   1.434   2.400
  217SOL    HW1  687   0.204   1.530   2.400
  217SOL    HW2  688   0.159   1.380   2.445
  218SOL     OW  689   0.240   1.091   2.748
  218SOL    HW1  690   0.254   1.007   2.800
  218SOL    HW2  691   0.185   1.155   2.803
  219SOL     OW  692   0.606   0.964   1.985
  219SOL    HW1  693   0.613   1.048   1.931
  219SOL    HW2  694   0.652   0.977   2.073
  220SOL     OW  695   0.122   0.643   2.425
  220SOL    HW1  696   0.077   0.555   2.442
  220SOL    HW2  697   0.121   0.697   2.509
  221SOL     OW  698   1.842   1.767   2.221
  221SOL    HW1  699   1.896   1.738   2.301
  221SOL    HW2  700   1.872   1.857   2.192
  222SOL     OW  701   0.027   1.596   1.979
  222SOL    HW1  702   0.008   1.500   2.000
  222SOL    HW2  703  -0.006   1.654   2.054
  223SOL     OW  704   1.689   0.922   2.474
  223SOL    HW1  705   1.784   0.893   2.482
  223SOL    HW2  706   1.681   0.987   2.399
  224SOL     OW  707   1.641   1.108   2.294
  224SOL    HW1  708   1.727   1.110   2.242
  224SOL    HW2  709   1.655   1.155   2.382
  225SOL     OW  710   0.613   1.365   2.588
  225SOL    HW1  711   0.564   1.278   2.597
  225SOL    HW2  712   0.590   1.408   2.501
  226SOL     OW  713   0.809   0.004   2.364
  226SOL    HW1  714   0.849   0.095   2.355
  226SOL    HW2  715   0.709   0.012   2.370
  227SOL     OW  716   0.197   0.976   3.126
  227SOL    HW1  717   0.286   0.931   3.112
  227SOL    HW2  718   0.124   0.911   3.107
  228SOL     OW  719   1.525   0.999   2.052
  228SOL    HW1  720   1.462   0.923   2.065
  228SOL    HW2  721   1.573   1.017   2.138
  229SOL     OW  722   1.466   1.417   2.815
  229SOL    HW1  723   1.407   1.423   2.895
  229SOL    HW2  724   1.451   1.329   2.769
  230SOL     OW  725   1.667   1.714   2.434
  230SOL    HW1  726   1.626   1.691   2.346
  230SOL    HW2  727   1.649   1.640   2.499
  231SOL     OW  728   0.598   0.729   2.132
  231SOL    HW1  729   0.622   0.798   2.064
  231SOL    HW2  730   0.520   0.762   2.186
  232SOL     OW  731   1.281   0.345   2.806
  232SOL    HW1  732   1.195   0.295   2.793
  232SOL    HW2  733   1.343   0.291   2.862
  233SOL     OW  734   1.576   1.662   2.169
  233SOL    HW1  735   1.665   1.708   2.172
  233SOL    HW2  736   1.555   1.638   2.074
  234SOL     OW  737   1.041   0.701   2.291
  234SOL    HW1  738   1.067   0.697   2.387
  234SOL    HW2  739   0.956   0.650   2.277
  235SOL     OW  740   0.076   0.811   2.651
  235SOL    HW1  741   0.175   0.799   2.660
  235SOL    HW2  742   0.052   0.906   2.672
  236SOL     OW  743   0.865   0.348   2.057
  236SOL    HW1  744   0.924   0.411   2.008
  236SOL    HW2  745   0.884   0.254   2.028
  237SOL     OW  746   1.362   1.144   2.407
  237SOL    HW1  747   1.445   1.115   2.359
  237SOL    HW2  748   1.313   1.211   2.351
  238SOL     OW  749   0.550   0.196   2.747
  238SOL    HW1  750   0.545   0.191   2.847
  238SOL    HW2  751   0.552   0.292   2.718
  239SOL     OW  752   1.008   1.456   2.339
  239SOL    HW1  753   0.962   1.528   2.287
  239SOL    HW2  754   1.004   1.476   2.437
  240SOL     OW  755   0.351   1.801   2.715
  240SOL    HW1  756   0.401   1.715   2.721
  240SOL    HW2  757   0.416   1.878   2.712
  241SOL     OW  758   1.795   1.066   2.735
  241SOL    HW1  759   1.733   1.051   2.659
  241SOL    HW2  760   1.743   1.077   2.820
  242SOL     OW  761   0.321   0.943   2.104
  242SOL    HW1  762   0.403   0.982   2.062
  242SOL    HW2  763   0.294   0.861   2.055
  243SOL     OW  764   1.458   0.735   2.590
  243SOL    HW1  765   1.453   0.670   2.665
  243SOL    HW2  766   1.538   0.794   2.603
  244SOL     OW  767   1.111   1.776   2.099
  244SOL    HW1  768   1.051   1.714   2.149
  244SOL    HW2  769   1.142   1.732   2.014
  245SOL     OW  770   1.632   1.377   1.943
  245SOL    HW1  771   1.600   1.471   1.933
  245SOL    HW2  772   1.556   1.314   1.931
  246SOL     OW  773   0.464   1.743   2.185
  246SOL    HW1  774   0.497   1.782   2.271
  246SOL    HW2  775   0.540   1.736   2.120
  247SOL     OW  776   1.400   0.107   2.288
  247SOL    HW1  777   1.376   0.070   2.198
  247SOL    HW2  778   1.499   0.123   2.292
  248SOL     OW  779   0.249   1.785   3.103
  248SOL    HW1  780   0.306   1.720   3.153
  248SOL    HW2  781   0.233   1.752   3.010
  249SOL     OW  782   0.940   1.698   2.766
  249SOL    HW1  783   1.020   1.641   2.787
  249SOL    HW2  784   0.891   1.658   2.689
  250SOL     OW  785   0.382   0.700   2.342
  250SOL    HW1  786   0.427   0.610   2.339
  250SOL    HW2  787   0.288   0.689   2.375
  251SOL     OW  788   0.614   0.122   1.979
  251SOL    HW1  789   0.712   0.100   1.986
  251SOL    HW2  790   0.583   0.105   1.886
  252SOL     OW  791   0.803   1.402   2.786
  252SOL    HW1  792   0.893   1.416   2.744
  252SOL    HW2  793   0.732   1.404   2.715
  253SOL     OW  794   0.922   0.503   2.761
  253SOL    HW1  795   0.897   0.494   2.665
  253SOL    HW2  796   0.970   0.421   2.792
  254SOL     OW  797   0.539   0.064   2.374
  254SOL    HW1  798   0.458   0.065   2.432
  254SOL    HW2  799   0.542   0.147   2.319
  255SOL     OW  800   1.434   1.188   1.903
  255SOL    HW1  801   1.466   1.112   1.960
  255SOL    HW2  802   1.342   1.215   1.933
  256SOL     OW  803   0.297   0.035   2.033
  256SOL    HW1  804   0.346   0.119   2.012
  256SOL    HW2  805   0.359  -0.030   2.078
  257SOL     OW  806   0.935   0.236   2.342
  257SOL    HW1  807   0.887   0.277   2.264
  257SOL    HW2  808   1.034   0.234   2.323
  258SOL     OW  809   1.227   1.570   2.655
  258SOL    HW1  810   1.248   1.644   2.590
  258SOL    HW2  811   1.295   1.570   2.728
  259SOL     OW  812   0.459   1.152   2.603
  259SOL    HW1  813   0.388   1.125   2.668
  259SOL    HW2  814   0.433   1.124   2.510
  260SOL     OW  815   1.271   1.797   2.453
  260SOL    HW1  816   1.315   1.861   2.389
  260SOL    HW2  817   1.221   1.849   2.523
  261SOL     OW  818   1.032   0.549   1.878
  261SOL    HW1  819   0.991   0.631   1.839
  261SOL    HW2  820   1.096   0.575   1.951
  262SOL     OW  821   0.866   0.454   2.504
  262SOL    HW1  822   0.834   0.526   2.442
  262SOL    HW2  823   0.890   0.373   2.451
  263SOL     OW  824   1.017   0.039   2.615
  263SOL    HW1  825   0.945   0.044   2.546
  263SOL    HW2  826   0.993  -0.030   2.684
  264SOL     OW  827   1.429   1.173   2.729
  264SOL    HW1  828   1.374   1.089   2.722
  264SOL    HW2  829   1.455   1.202   2.637
  265SOL     OW  830   1.466   0.590   2.854
  265SOL    HW1  831   1.436   0.495   2.861
  265SOL    HW2  832   1.539   0.606   2.920
  266SOL     OW  833   1.857   0.833   2.239
  266SOL    HW1  834   1.899   0.769   2.303
  266SOL    HW2  835   1.819   0.782   2.161
  267SOL     OW  836   0.488   1.385   2.036
  267SOL    HW1  837   0.401   1.370   2.083
  267SOL    HW2  838   0.471   1.411   1.941
  268SOL     OW  839   1.664   1.280   2.519
  268SOL    HW1  840   1.763   1.288   2.533
  268SOL    HW2  841   1.619   1.364   2.550
  269SOL     OW  842   1.390   0.575   1.940
  269SOL    HW1  843   1.336   0.554   2.021
  269SOL    HW2  844   1.481   0.534   1.949
  270SOL     OW  845   0.527   0.256   2.190
  270SOL    HW1  846   0.554   0.197   2.115
  270SOL    HW2  847   0.527   0.351   2.159
  271SOL     OW  848   1.111   1.195   2.962
  271SOL    HW1  849   1.071   1.239   3.043
  271SOL    HW2  850   1.070   1.232   2.879
  272SOL     OW  851   1.638   1.099   2.941
  272SOL    HW1  852   1.643   1.180   3.000
  272SOL    HW2  853   1.552   1.101   2.890
  273SOL     OW  854   0.705   1.050   2.230
  273SOL    HW1  855   0.691   1.057   2.329
  273SOL    HW2  856   0.789   0.999   2.212
  274SOL     OW  857   0.410   0.813   3.113
  274SOL    HW1  858   0.496   0.825   3.163
  274SOL    HW2  859   0.368   0.726   3.140
  275SOL     OW  860   0.367   1.100   2.363
  275SOL    HW1  861   0.360   1.183   2.307
  275SOL    HW2  862   0.371   1.020   2.303
  276SOL     OW  863   0.566   0.537   2.727
  276SOL    HW1  864   0.578   0.603   2.653
  276SOL    HW2  865   0.612   0.571   2.810
  277SOL     OW  866   1.252   1.348   2.250
  277SOL    HW1  867   1.302   1.425   2.290
  277SOL    HW2  868   1.157   1.350   2.282
  278SOL     OW  869   1.272   1.445   3.004
  278SOL    HW1  870   1.319   1.458   3.091
  278SOL    HW2  871   1.206   1.371   3.013
  279SOL     OW  872   1.582   0.639   2.334
  279SOL    HW1  873   1.551   0.700   2.407
  279SOL    HW2  874   1.632   0.691   2.265
  280SOL     OW  875   0.573   0.870   2.891
  280SOL    HW1  876   0.617   0.959   2.882
  280SOL    HW2  877   0.510   0.870   2.968
  281SOL     OW  878   1.209   0.525   2.137
  281SOL    HW1  879   1.222   0.441   2.191
  281SOL    HW2  880   1.180   0.599   2.197
  282SOL     OW  881   0.307   0.213   3.093
  282SOL    HW1  882   0.284   0.250   3.183
  282SOL    HW2  883   0.277   0.118   3.087
  283SOL     OW  884   0.732   0.634   2.926
  283SOL    HW1  885   0.791   0.608   2.850
  283SOL    HW2  886   0.704   0.730   2.915
  284SOL     OW  887   0.307   0.063   2.480
  284SOL    HW1  888   0.296   0.157   2.513
  284SOL    HW2  889   0.302   0.000   2.557
  285SOL     OW  890   1.622   0.367   2.236
  285SOL    HW1  891   1.624   0.291   2.300
  285SOL    HW2  892   1.574   0.444   2.276
  286SOL     OW  893   1.023   0.766   2.828
  286SOL    HW1  894   1.038   0.787   2.924
  286SOL    HW2  895   0.993   0.671   2.819
  287SOL     OW  896   1.540   0.274   1.987
  287SOL    HW1  897   1.479   0.199   2.010
  287SOL    HW2  898   1.562   0.326   2.070
  288SOL     OW  899   1.303   0.838   1.904
  288SOL    HW1  900   1.337   0.745   1.919
  288SOL    HW2  901   1.321   0.865   1.809
  289SOL     OW  902   1.068   1.333   2.711
  289SOL    HW1  903   1.075   1.249   2.656
  289SOL    HW2  904   1.130   1.402   2.675
  290SOL     OW  905   0.319   0.810   2.811
  290SOL    HW1  906   0.412   0.846   2.816
  290SOL    HW2  907   0.313   0.725   2.863
  291SOL     OW  908   0.339   0.509   2.868
  291SOL    HW1  909   0.287   0.426   2.851
  291SOL    HW2  910   0.416   0.514   2.804
  292SOL     OW  911   0.008   1.326   2.062
  292SOL    HW1  912  -0.085   1.347   2.031
  292SOL    HW2  913   0.018   1.227   2.075
  293SOL     OW  914   0.088   1.801   2.789
  293SOL    HW1  915   0.046   1.715   2.762
  293SOL    HW2  916   0.182   1.804   2.755
  294SOL     OW  917   0.504   1.568   2.772
  294SOL    HW1  918   0.570   1.642   2.781
  294SOL    HW2  919   0.548   1.489   2.730
  295SOL     OW  920   1.002   0.796   3.100
  295SOL    HW1  921   1.043   0.764   3.186
  295SOL    HW2  922   0.906   0.769   3.097
  296SOL     OW  923   0.040   0.544   2.976
  296SOL    HW1  924   0.125   0.511   2.935
  296SOL    HW2  925   0.053   0.559   3.074
  297SOL     OW  926   0.815   0.572   2.187
  297SOL    HW1  927   0.822   0.483   2.141
  297SOL    HW2  928   0.721   0.606   2.179
  298SOL     OW  929   1.657   0.604   3.068
  298SOL    HW1  930   1.619   0.535   3.130
  298SOL    HW2  931   1.739   0.568   3.024
  299SOL     OW  932   0.671   0.464   3.131
  299SOL    HW1  933   0.637   0.375   3.101
  299SOL    HW2  934   0.697   0.518   3.051
  300SOL     OW  935   0.473   0.500   2.053
  300SOL    HW1  936   0.534   0.580   2.057
  300SOL    HW2  937   0.378   0.531   2.060
  301SOL     OW  938   1.302   0.855   2.171
  301SOL    HW1  939   1.216   0.824   2.213
  301SOL    HW2  940   1.298   0.841   2.072
  302SOL     OW  941   1.759   1.747   3.016
  302SOL    HW1  942   1.820   1.777   2.943
  302SOL    HW2  943   1.721   1.658   2.994
  303SOL     OW  944   0.083   1.258   2.884
  303SOL    HW1  945   0.078   1.257   2.984
  303SOL    HW2  946   0.000   1.217   2.846
  304SOL     OW  947   1.726   0.135   2.385
  304SOL    HW1  948   1.799   0.118   2.318
  304SOL    HW2  949   1.695   0.048   2.423
  305SOL     OW  950   1.388   1.573   2.339
  305SOL    HW1  951   1.455   1.585   2.265
  305SOL    HW2  952   1.348   1.662   2.362
  306SOL     OW  953   1.280   0.927   2.534
  306SOL    HW1  954   1.340   0.846   2.536
  306SOL    HW2  955   1.320   0.996   2.474
  307SOL     OW  956   0.672   1.616   2.016
  307SOL    HW1  957   0.681   1.626   1.917
  307SOL    HW2  958   0.632   1.527   2.037
  308SOL     OW  959   1.841   0.175   2.825
  308SOL    HW1  960   1.880   0.090   2.789
  308SOL    HW2  961   1.743   0.177   2.806
  309SOL     OW  962   0.263   0.326   2.582
  309SOL    HW1  963   0.184   0.377   2.548
  309SOL    HW2  964   0.254   0.311   2.680
  310SOL     OW  965   1.194   1.612   1.893
  310SOL    HW1  966   1.200   1.519   1.930
  310SOL    HW2  967   1.135   1.612   1.813
  311SOL     OW  968   0.822   1.002   3.234
  311SOL    HW1  969   0.862   1.001   3.142
  311SOL    HW2  970   0.832   1.094   3.274
  312SOL     OW  971   0.916   0.910   2.153
  312SOL    HW1  972   0.979   0.948   2.085
  312SOL    HW2  973   0.956   0.827   2.192
  313SOL     OW  974   1.039   1.098   2.558
  313SOL    HW1  975   0.969   1.051   2.612
  313SOL    HW2  976   1.098   1.030   2.515
  314SOL     OW  977   1.014   0.236   2.833
  314SOL    HW1  978   1.006   0.200   2.740
  314SOL    HW2  979   1.012   0.160   2.898
  315SOL     OW  980   0.590   1.487   2.353
  315SOL    HW1  981   0.632   1.429   2.283
  315SOL    HW2  982   0.546   1.566   2.309
  316SOL     OW  983   1.709   0.385   3.243
  316SOL    HW1  984   1.782   0.454   3.247
  316SOL    HW2  985   1.737   0.310   3.184
  317SOL     OW  986   0.255   1.348   2.152
  317SOL    HW1  987   0.159   1.349   2.125
  317SOL    HW2  988   0.267   1.401   2.236
  318SOL     OW  989   0.075   0.345   1.895
  318SOL    HW1  990  -0.017   0.317   1.866
  318SOL    HW2  991   0.106   0.422   1.839
  319SOL     OW  992   0.072   0.166   2.180
  319SOL    HW1  993   0.055   0.249   2.126
  319SOL    HW2  994   0.162   0.129   2.158
  320SOL     OW  995   1.183   1.335   1.981
  320SOL    HW1  996   1.084   1.324   1.983
  320SOL    HW2  997   1.217   1.350   2.074
  321SOL     OW  998   1.493   1.767   2.821
  321SOL    HW1  999   1.526   1.831   2.752
  321SOL    HW2 1000   1.559   1.761   2.896
  322SOL     OW 1001   1.674   0.883   3.116
  322SOL    HW1 1002   1.647   0.794   3.079
  322SOL    HW2 1003   1.675   0.951   3.043
  323SOL     OW 1004   1.225   0.325   2.311
  323SOL    HW1 1005   1.290   0.251   2.300
  323SOL    HW2 1006   1.245   0.375   2.395
  324SOL     OW 1007   0.594   0.745   2.514
  324SOL    HW1 1008   0.644   0.830   2.495
  324SOL    HW2 1009   0.506   0.747   2.466
  325SOL     OW 1010   0.859   1.374   1.878
  325SOL    HW1 1011   0.813   1.389   1.966
  325SOL    HW2 1012   0.903   1.459   1.848
  326SOL     OW 1013   0.661   1.790   2.815
  326SOL    HW1 1014   0.615   1.878   2.802
  326SOL    HW2 1015   0.760   1.802   2.808
  327SOL     OW 1016   0.859   0.956   2.723
  327SOL    HW1 1017   0.913   0.887   2.771
  327SOL    HW2 1018   0.827   1.025   2.789
  328SOL     OW 1019   1.083   0.984   1.949
  328SOL    HW1 1020   1.060   1.037   1.867
  328SOL    HW2 1021   1.164   0.928   1.930
  329SOL     OW 1022   1.861   1.569   2.713
  329SOL    HW1 1023   1.790   1.557   2.643
  329SOL    HW2 1024   1.862   1.490   2.773
  330SOL     OW 1025   0.079   1.240   2.515
  330SOL    HW1 1026   0.078   1.193   2.603
  330SOL    HW2 1027   0.161   1.212   2.464
  331SOL     OW 1028   1.824   0.192   3.089
  331SOL    HW1 1029   1.820   0.102   3.133
  331SOL    HW2 1030   1.827   0.181   2.990
  332SOL     OW 1031   0.428   0.424   2.382
  332SOL    HW1 1032   0.458   0.352   2.320
  332SOL    HW2 1033   0.389   0.384   2.465
  333SOL     OW 1034   1.705   1.487   2.966
  333SOL    HW1 1035   1.612   1.462   2.939
  333SOL    HW2 1036   1.731   1.437   3.048
  334SOL     OW 1037   0.812   1.586   2.549
  334SOL    HW1 1038   0.844   1.596   2.455
  334SOL    HW2 1039   0.733   1.524   2.551
  335SOL     OW 1040   1.424   0.214   2.974
  335SOL    HW1 1041   1.476   0.149   3.029
  335SOL    HW2 1042   1.375   0.277   3.035
  336SOL     OW 1043   0.770   1.330   2.163
  336SOL    HW1 1044   0.724   1.243   2.180
  336SOL    HW2 1045   0.861   1.327   2.204
  337SOL     OW 1046   1.352   0.052   2.030
  337SOL    HW1 1047   1.387   0.011   1.946
  337SOL    HW2 1048   1.262   0.014   2.050
  338SOL     OW 1049   1.300   0.453   2.553
  338SOL    HW1 1050   1.241   0.533   2.557
  338SOL    HW2 1051   1.315   0.418   2.646
  339SOL     OW 1052   1.593   0.221   2.744
  339SOL    HW1 1053   1.509   0.220   2.798
  339SOL    HW2 1054   1.595   0.304   2.688
  340SOL     OW 1055   0.039   1.077   2.162
  340SOL    HW1 1056   0.138   1.066   2.153
  340SOL    HW2 1057  -0.001   0.991   2.194
  341SOL     OW 1058   0.875   1.646   2.199
  341SOL    HW1 1059   0.798   1.611   2.145
  341SOL    HW2 1060   0.843   1.717   2.261
  342SOL     OW 1061   0.230   2.490   0.113
  342SOL    HW1 1062   0.137   2.488   0.150
  342SOL    HW2 1063   0.231   2.451   0.021
  343SOL     OW 1064   0.225   2.137   0.996
  343SOL    HW1 1065   0.260   2.120   1.088
  343SOL    HW2 1066   0.137   2.092   0.984
  344SOL     OW 1067   0.019   2.230   0.647
  344SOL    HW1 1068  -0.063   2.273   0.686
  344SOL    HW2 1069  -0.009   2.157   0.584
  345SOL     OW 1070   1.135   2.565   0.717
  345SOL    HW1 1071   1.192   2.643   0.692
  345SOL    HW2 1072   1.075   2.591   0.793
  346SOL     OW 1073   1.755   2.469   0.231
  346SOL    HW1 1074   1.743   2.456   0.132
  346SOL    HW2 1075   1.725   2.388   0.280
  347SOL     OW 1076   0.768   3.006   1.023
  347SOL    HW1 1077   0.690   3.023   1.083
  347SOL    HW2 1078   0.802   3.093   0.987
  348SOL     OW 1079   0.850   2.660   1.823
  348SOL    HW1 1080   0.846   2.736   1.888
  348SOL    HW2 1081   0.872   2.696   1.732
  349SOL     OW 1082   0.685   2.874   0.665
  349SOL    HW1 1083   0.754   2.858   0.735
  349SOL    HW2 1084   0.612   2.931   0.703
  350SOL     OW 1085   1.460   3.367   1.339
  350SOL    HW1 1086   1.484   3.461   1.365
  350SOL    HW2 1087   1.444   3.313   1.421
  351SOL     OW 1088   0.438   2.254   1.499
  351SOL    HW1 1089   0.520   2.198   1.508
  351SOL    HW2 1090   0.357   2.196   1.503
  352SOL     OW 1091   1.603   2.309   0.737
  352SOL    HW1 1092   1.529   2.355   0.687
  352SOL    HW2 1093   1.654   2.377   0.790
  353SOL     OW 1094   0.240   2.953   0.886
  353SOL    HW1 1095   0.254   2.869   0.938
  353SOL    HW2 1096   0.185   3.017   0.941
  354SOL     OW 1097   0.606   2.826   0.123
  354SOL    HW1 1098   0.613   2.910   0.069
  354SOL    HW2 1099   0.652   2.839   0.211
  355SOL     OW 1100   1.594   1.976   1.480
  355SOL    HW1 1101   1.576   2.043   1.408
  355SOL    HW2 1102   1.591   2.022   1.569
  356SOL     OW 1103   0.122   2.505   0.563
  356SOL    HW1 1104   0.077   2.417   0.580
  356SOL    HW2 1105   0.121   2.559   0.647
  357SOL     OW 1106   1.689   2.784   0.612
  357SOL    HW1 1107   1.784   2.755   0.620
  357SOL    HW2 1108   1.681   2.849   0.537
  358SOL     OW 1109   0.113   2.599   1.597
  358SOL    HW1 1110   0.201   2.586   1.642
  358SOL    HW2 1111   0.100   2.696   1.575
  359SOL     OW 1112   0.613   3.227   0.726
  359SOL    HW1 1113   0.564   3.140   0.735
  359SOL    HW2 1114   0.590   3.270   0.639
  360SOL     OW 1115   1.293   3.090   1.423
  360SOL    HW1 1116   1.330   3.017   1.365
  360SOL    HW2 1117   1.345   3.095   1.508
  361SOL     OW 1118   0.809   1.866   0.502
  361SOL    HW1 1119   0.849   1.957   0.493
  361SOL    HW2 1120   0.709   1.874   0.508
  362SOL     OW 1121   0.197   2.838   1.264
  362SOL    HW1 1122   0.286   2.793   1.250
  362SOL    HW2 1123   0.124   2.773   1.245
  363SOL     OW 1124   1.525   2.861   0.190
  363SOL    HW1 1125   1.462   2.785   0.203
  363SOL    HW2 1126   1.573   2.879   0.276
  364SOL     OW 1127   0.317   2.113   1.801
  364SOL    HW1 1128   0.388   2.184   1.807
  364SOL    HW2 1129   0.229   2.152   1.829
  365SOL     OW 1130   0.598   2.591   0.270
  365SOL    HW1 1131   0.622   2.660   0.202
  365SOL    HW2 1132   0.520   2.624   0.324
  366SOL     OW 1133   1.281   2.207   0.944
  366SOL    HW1 1134   1.195   2.157   0.931
  366SOL    HW2 1135   1.343   2.153   1.000
  367SOL     OW 1136   0.807   2.467   1.465
  367SOL    HW1 1137   0.760   2.464   1.554
  367SOL    HW2 1138   0.756   2.412   1.399
  368SOL     OW 1139   1.394   2.331   1.674
  368SOL    HW1 1140   1.374   2.374   1.762
  368SOL    HW2 1141   1.472   2.269   1.683
  369SOL     OW 1142   0.973   2.752   1.572
  369SOL    HW1 1143   1.019   2.668   1.543
  369SOL    HW2 1144   0.917   2.786   1.497
  370SOL     OW 1145   0.991   2.272   1.242
  370SOL    HW1 1146   0.914   2.306   1.296
  370SOL    HW2 1147   0.957   2.221   1.163
  371SOL     OW 1148   1.041   2.563   0.429
  371SOL    HW1 1149   1.067   2.559   0.525
  371SOL    HW2 1150   0.956   2.512   0.415
  372SOL     OW 1151   0.076   2.673   0.789
  372SOL    HW1 1152   0.175   2.661   0.798
  372SOL    HW2 1153   0.052   2.768   0.810
  373SOL     OW 1154   0.865   2.210   0.195
  373SOL    HW1 1155   0.924   2.273   0.146
  373SOL    HW2 1156   0.884   2.116   0.166
  374SOL     OW 1157   1.719   2.447   1.831
  374SOL    HW1 1158   1.693   2.536   1.795
  374SOL    HW2 1159   1.717   2.379   1.758
  375SOL     OW 1160   0.550   2.058   0.885
  375SOL    HW1 1161   0.545   2.053   0.985
  375SOL    HW2 1162   0.552   2.154   0.856
  376SOL     OW 1163   1.795   2.928   0.873
  376SOL    HW1 1164   1.733   2.913   0.797
  376SOL    HW2 1165   1.743   2.939   0.958
  377SOL     OW 1166   0.321   2.805   0.242
  377SOL    HW1 1167   0.403   2.844   0.200
  377SOL    HW2 1168   0.294   2.723   0.193
  378SOL     OW 1169   1.458   2.597   0.728
  378SOL    HW1 1170   1.453   2.532   0.803
  378SOL    HW2 1171   1.538   2.656   0.741
  379SOL     OW 1172   0.202   2.147   1.498
  379SOL    HW1 1173   0.122   2.207   1.485
  379SOL    HW2 1174   0.192   2.098   1.584
  380SOL     OW 1175   1.400   1.969   0.426
  380SOL    HW1 1176   1.376   1.932   0.336
  380SOL    HW2 1177   1.499   1.985   0.430
  381SOL     OW 1178   0.382   2.562   0.480
  381SOL    HW1 1179   0.427   2.472   0.477
  381SOL    HW2 1180   0.288   2.551   0.513
  382SOL     OW 1181   1.547   2.084   1.729
  382SOL    HW1 1182   1.542   2.121   1.821
  382SOL    HW2 1183   1.475   2.015   1.717
  383SOL     OW 1184   0.614   1.984   0.117
  383SOL    HW1 1185   0.712   1.962   0.124
  383SOL    HW2 1186   0.583   1.967   0.024
  384SOL     OW 1187   0.781   2.126   1.749
  384SOL    HW1 1188   0.848   2.065   1.792
  384SOL    HW2 1189   0.708   2.145   1.814
  385SOL     OW 1190   1.351   2.452   1.433
  385SOL    HW1 1191   1.379   2.409   1.518
  385SOL    HW2 1192   1.376   2.548   1.434
  386SOL     OW 1193   0.922   2.365   0.899
  386SOL    HW1 1194   0.897   2.356   0.803
  386SOL    HW2 1195   0.970   2.283   0.930
  387SOL     OW 1196   0.539   1.926   0.512
  387SOL    HW1 1197   0.458   1.927   0.570
  387SOL    HW2 1198   0.542   2.009   0.457
  388SOL     OW 1199   0.297   1.897   0.171
  388SOL    HW1 1200   0.346   1.981   0.150
  388SOL    HW2 1201   0.359   1.832   0.216
  389SOL     OW 1202   0.935   2.098   0.480
  389SOL    HW1 1203   0.887   2.139   0.402
  389SOL    HW2 1204   1.034   2.096   0.461
  390SOL     OW 1205   1.076   2.545   1.464
  390SOL    HW1 1206   0.996   2.484   1.467
  390SOL    HW2 1207   1.157   2.492   1.440
  391SOL     OW 1208   0.459   3.014   0.741
  391SOL    HW1 1209   0.388   2.987   0.806
  391SOL    HW2 1210   0.433   2.986   0.648
  392SOL     OW 1211   1.032   2.411   0.016
  392SOL    HW1 1212   0.991   2.493  -0.023
  392SOL    HW2 1213   1.096   2.437   0.089
  393SOL     OW 1214   0.078   2.418   1.386
  393SOL    HW1 1215   0.170   2.417   1.345
  393SOL    HW2 1216   0.072   2.492   1.453
  394SOL     OW 1217   0.561   2.084   1.147
  394SOL    HW1 1218   0.599   2.000   1.184
  394SOL    HW2 1219   0.473   2.103   1.191
  395SOL     OW 1220   0.866   2.316   0.642
  395SOL    HW1 1221   0.834   2.388   0.580
  395SOL    HW2 1222   0.890   2.235   0.589
  396SOL     OW 1223   1.017   1.901   0.753
  396SOL    HW1 1224   0.945   1.906   0.684
  396SOL    HW2 1225   0.993   1.832   0.822
  397SOL     OW 1226   1.429   3.035   0.867
  397SOL    HW1 1227   1.374   2.951   0.860
  397SOL    HW2 1228   1.455   3.064   0.775
  398SOL     OW 1229   1.466   2.452   0.992
  398SOL    HW1 1230   1.436   2.357   0.999
  398SOL    HW2 1231   1.539   2.468   1.058
  399SOL     OW 1232   1.857   2.695   0.377
  399SOL    HW1 1233   1.899   2.631   0.441
  399SOL    HW2 1234   1.819   2.644   0.299
  400SOL     OW 1235   1.390   2.437   0.078
  400SOL    HW1 1236   1.336   2.416   0.159
  400SOL    HW2 1237   1.481   2.396   0.087
  401SOL     OW 1238   0.527   2.118   0.328
  401SOL    HW1 1239   0.554   2.059   0.253
  401SOL    HW2 1240   0.527   2.213   0.297
  402SOL     OW 1241   1.754   3.085   1.588
  402SOL    HW1 1242   1.845   3.046   1.575
  402SOL    HW2 1243   1.762   3.181   1.612
  403SOL     OW 1244   1.638   2.961   1.079
  403SOL    HW1 1245   1.643   3.042   1.138
  403SOL    HW2 1246   1.552   2.963   1.028
  404SOL     OW 1247   0.915   1.951   1.402
  404SOL    HW1 1248   0.940   1.931   1.307
  404SOL    HW2 1249   0.987   2.007   1.444
  405SOL     OW 1250   0.705   2.912   0.368
  405SOL    HW1 1251   0.691   2.919   0.467
  405SOL    HW2 1252   0.789   2.861   0.350
  406SOL     OW 1253   0.410   2.675   1.251
  406SOL    HW1 1254   0.496   2.687   1.301
  406SOL    HW2 1255   0.368   2.588   1.278
  407SOL     OW 1256   1.274   2.248   1.262
  407SOL    HW1 1257   1.295   2.322   1.326
  407SOL    HW2 1258   1.185   2.265   1.219
  408SOL     OW 1259   0.367   2.962   0.501
  408SOL    HW1 1260   0.360   3.045   0.445
  408SOL    HW2 1261   0.371   2.882   0.441
  409SOL     OW 1262   0.566   2.399   0.865
  409SOL    HW1 1263   0.578   2.465   0.791
  409SOL    HW2 1264   0.612   2.433   0.948
  410SOL     OW 1265   1.582   2.501   0.472
  410SOL    HW1 1266   1.551   2.562   0.545
  410SOL    HW2 1267   1.632   2.553   0.403
  411SOL     OW 1268   0.402   2.613   1.598
  411SOL    HW1 1269   0.470   2.668   1.551
  411SOL    HW2 1270   0.442   2.525   1.625
  412SOL     OW 1271   1.587   2.641   1.670
  412SOL    HW1 1272   1.495   2.679   1.665
  412SOL    HW2 1273   1.647   2.688   1.605
  413SOL     OW 1274   1.013   1.967   1.770
  413SOL    HW1 1275   1.019   2.052   1.718
  413SOL    HW2 1276   1.045   1.891   1.713
  414SOL     OW 1277   0.504   1.912   1.740
  414SOL    HW1 1278   0.462   1.855   1.670
  414SOL    HW2 1279   0.438   1.981   1.772
  415SOL     OW 1280   0.573   2.732   1.029
  415SOL    HW1 1281   0.617   2.821   1.020
  415SOL    HW2 1282   0.510   2.732   1.106
  416SOL     OW 1283   1.360   2.724   1.045
  416SOL    HW1 1284   1.285   2.724   0.979
  416SOL    HW2 1285   1.397   2.632   1.054
  417SOL     OW 1286   1.209   2.387   0.275
  417SOL    HW1 1287   1.222   2.303   0.329
  417SOL    HW2 1288   1.180   2.461   0.335
  418SOL     OW 1289   0.307   2.075   1.231
  418SOL    HW1 1290   0.284   2.112   1.321
  418SOL    HW2 1291   0.277   1.980   1.225
  419SOL     OW 1292   0.037   3.172   1.282
  419SOL    HW1 1293   0.090   3.123   1.350
  419SOL    HW2 1294   0.059   3.270   1.287
  420SOL     OW 1295   0.732   2.496   1.064
  420SOL    HW1 1296   0.791   2.470   0.988
  420SOL    HW2 1297   0.704   2.592   1.053
  421SOL     OW 1298   1.728   2.797   1.854
  421SOL    HW1 1299   1.682   2.790   1.765
  421SOL    HW2 1300   1.666   2.841   1.920
  422SOL     OW 1301   0.307   1.925   0.618
  422SOL    HW1 1302   0.296   2.019   0.651
  422SOL    HW2 1303   0.302   1.862   0.695
  423SOL     OW 1304   1.622   2.229   0.374
  423SOL    HW1 1305   1.624   2.153   0.438
  423SOL    HW2 1306   1.574   2.306   0.414
  424SOL     OW 1307   1.023   2.628   0.966
  424SOL    HW1 1308   1.038   2.649   1.062
  424SOL    HW2 1309   0.993   2.533   0.957
  425SOL     OW 1310   0.350   2.760   1.804
  425SOL    HW1 1311   0.426   2.804   1.852
  425SOL    HW2 1312   0.385   2.713   1.722
  426SOL     OW 1313   1.540   2.136   0.125
  426SOL    HW1 1314   1.479   2.061   0.148
  426SOL    HW2 1315   1.562   2.188   0.208
  427SOL     OW 1316   1.303   2.700   0.042
  427SOL    HW1 1317   1.337   2.607   0.057
  427SOL    HW2 1318   1.321   2.727  -0.053
  428SOL     OW 1319   0.319   2.672   0.949
  428SOL    HW1 1320   0.412   2.708   0.954
  428SOL    HW2 1321   0.313   2.587   1.001
  429SOL     OW 1322   0.339   2.371   1.006
  429SOL    HW1 1323   0.287   2.288   0.989
  429SOL    HW2 1324   0.416   2.376   0.942
  430SOL     OW 1325   1.138   2.242   1.678
  430SOL    HW1 1326   1.093   2.305   1.742
  430SOL    HW2 1327   1.231   2.273   1.661
  431SOL     OW 1328   1.160   2.069   1.477
  431SOL    HW1 1329   1.160   2.133   1.554
  431SOL    HW2 1330   1.188   2.117   1.394
  432SOL     OW 1331   1.002   2.658   1.238
  432SOL    HW1 1332   1.043   2.626   1.324
  432SOL    HW2 1333   0.906   2.631   1.235
  433SOL     OW 1334   0.040   2.406   1.114
  433SOL    HW1 1335   0.125   2.373   1.073
  433SOL    HW2 1336   0.053   2.421   1.212
  434SOL     OW 1337   0.189   2.382   1.722
  434SOL    HW1 1338   0.248   2.342   1.652
  434SOL    HW2 1339   0.131   2.453   1.681
  435SOL     OW 1340   1.369   2.812   1.660
  435SOL    HW1 1341   1.408   2.901   1.680
  435SOL    HW2 1342   1.379   2.792   1.563
  436SOL     OW 1343   0.815   2.434   0.325
  436SOL    HW1 1344   0.822   2.345   0.279
  436SOL    HW2 1345   0.721   2.468   0.317
  437SOL     OW 1346   1.657   2.466   1.206
  437SOL    HW1 1347   1.619   2.397   1.268
  437SOL    HW2 1348   1.739   2.430   1.162
  438SOL     OW 1349   0.671   2.326   1.269
  438SOL    HW1 1350   0.637   2.237   1.239
  438SOL    HW2 1351   0.697   2.380   1.189
  439SOL     OW 1352   0.473   2.362   0.191
  439SOL    HW1 1353   0.534   2.442   0.195
  439SOL    HW2 1354   0.378   2.393   0.198
  440SOL     OW 1355   0.159   2.999   1.466
  440SOL    HW1 1356   0.181   2.938   1.542
  440SOL    HW2 1357   0.169   2.950   1.380
  441SOL     OW 1358   1.347   2.921   1.234
  441SOL    HW1 1359   1.371   2.858   1.160
  441SOL    HW2 1360   1.257   2.961   1.216
  442SOL     OW 1361   1.302   2.717   0.309
  442SOL    HW1 1362   1.216   2.686   0.351
  442SOL    HW2 1363   1.298   2.703   0.210
  443SOL     OW 1364   0.083   3.120   1.022
  443SOL    HW1 1365   0.078   3.119   1.122
  443SOL    HW2 1366   0.000   3.079   0.984
  444SOL     OW 1367   0.903   1.948   0.133
  444SOL    HW1 1368   0.954   1.949   0.047
  444SOL    HW2 1369   0.959   1.906   0.204
  445SOL     OW 1370   1.726   1.997   0.523
  445SOL    HW1 1371   1.799   1.980   0.456
  445SOL    HW2 1372   1.695   1.910   0.561
  446SOL     OW 1373   1.280   2.789   0.672
  446SOL    HW1 1374   1.340   2.708   0.674
  446SOL    HW2 1375   1.320   2.858   0.612
  447SOL     OW 1376   1.841   2.037   0.963
  447SOL    HW1 1377   1.880   1.952   0.927
  447SOL    HW2 1378   1.743   2.039   0.944
  448SOL     OW 1379   0.263   2.188   0.720
  448SOL    HW1 1380   0.184   2.239   0.686
  448SOL    HW2 1381   0.254   2.173   0.818
  449SOL     OW 1382   0.822   2.864   1.372
  449SOL    HW1 1383   0.862   2.863   1.280
  449SOL    HW2 1384   0.832   2.956   1.412
  450SOL     OW 1385   0.916   2.772   0.291
  450SOL    HW1 1386   0.979   2.810   0.223
  450SOL    HW2 1387   0.956   2.689   0.330
  451SOL     OW 1388   0.372   3.150   1.490
  451SOL    HW1 1389   0.359   3.243   1.456
  451SOL    HW2 1390   0.288   3.098   1.477
  452SOL     OW 1391   1.014   2.098   0.971
  452SOL    HW1 1392   1.006   2.062   0.878
  452SOL    HW2 1393   1.012   2.022   1.036
  453SOL     OW 1394   1.709   2.247   1.381
  453SOL    HW1 1395   1.782   2.316   1.385
  453SOL    HW2 1396   1.737   2.172   1.322
  454SOL     OW 1397   0.105   2.875   1.726
  454SOL    HW1 1398   0.028   2.842   1.780
  454SOL    HW2 1399   0.190   2.845   1.768
  455SOL     OW 1400   0.672   2.065   1.489
  455SOL    HW1 1401   0.762   2.049   1.449
  455SOL    HW2 1402   0.680   2.070   1.588
  456SOL     OW 1403   0.075   2.207   0.033
  456SOL    HW1 1404  -0.017   2.179   0.004
  456SOL    HW2 1405   0.106   2.284  -0.023
  457SOL     OW 1406   1.440   2.718   1.398
  457SOL    HW1 1407   1.383   2.770   1.335
  457SOL    HW2 1408   1.536   2.730   1.374
  458SOL     OW 1409   0.072   2.028   0.318
  458SOL    HW1 1410   0.055   2.111   0.264
  458SOL    HW2 1411   0.162   1.991   0.296
  459SOL     OW 1412   0.613   2.704   1.431
  459SOL    HW1 1413   0.669   2.785   1.414
  459SOL    HW2 1414   0.672   2.624   1.434
  460SOL     OW 1415   0.716   2.427   1.708
  460SOL    HW1 1416   0.735   2.492   1.782
  460SOL    HW2 1417   0.776   2.347   1.717
  461SOL     OW 1418   1.450   3.082   1.633
  461SOL    HW1 1419   1.441   3.072   1.732
  461SOL    HW2 1420   1.546   3.075   1.607
  462SOL     OW 1421   1.674   2.745   1.254
  462SOL    HW1 1422   1.647   2.656   1.217
  462SOL    HW2 1423   1.675   2.813   1.181
  463SOL     OW 1424   1.225   2.187   0.449
  463SOL    HW1 1425   1.290   2.113   0.438
  463SOL    HW2 1426   1.245   2.237   0.533
  464SOL     OW 1427   0.594   2.607   0.652
  464SOL    HW1 1428   0.644   2.692   0.633
  464SOL    HW2 1429   0.506   2.609   0.604
  465SOL     OW 1430   1.777   2.204   1.642
  465SOL    HW1 1431   1.760   2.235   1.548
  465SOL    HW2 1432   1.693   2.167   1.680
  466SOL     OW 1433   1.730   2.796   1.517
  466SOL    HW1 1434   1.768   2.887   1.532
  466SOL    HW2 1435   1.722   2.779   1.418
  467SOL     OW 1436   0.859   2.818   0.861
  467SOL    HW1 1437   0.913   2.749   0.909
  467SOL    HW2 1438   0.827   2.887   0.927
  468SOL     OW 1439   1.083   2.846   0.087
  468SOL    HW1 1440   1.060   2.899   0.005
  468SOL    HW2 1441   1.164   2.790   0.068
  469SOL     OW 1442   0.079   3.102   0.653
  469SOL    HW1 1443   0.078   3.055   0.741
  469SOL    HW2 1444   0.161   3.074   0.602
  470SOL     OW 1445   1.824   2.054   1.227
  470SOL    HW1 1446   1.820   1.964   1.271
  470SOL    HW2 1447   1.827   2.043   1.128
  471SOL     OW 1448   0.428   2.286   0.520
  471SOL    HW1 1449   0.458   2.214   0.458
  471SOL    HW2 1450   0.389   2.246   0.603
  472SOL     OW 1451   0.317   2.409   1.280
  472SOL    HW1 1452   0.355   2.350   1.352
  472SOL    HW2 1453   0.357   2.383   1.192
  473SOL     OW 1454   1.424   2.076   1.112
  473SOL    HW1 1455   1.476   2.011   1.167
  473SOL    HW2 1456   1.375   2.139   1.173
  474SOL     OW 1457   1.001   1.896   1.154
  474SOL    HW1 1458   0.938   1.824   1.123
  474SOL    HW2 1459   1.094   1.860   1.154
  475SOL     OW 1460   0.770   3.192   0.301
  475SOL    HW1 1461   0.724   3.105   0.318
  475SOL    HW2 1462   0.861   3.189   0.342
  476SOL     OW 1463   1.352   1.914   0.168
  476SOL    HW1 1464   1.387   1.873   0.084
  476SOL    HW2 1465   1.262   1.876   0.188
  477SOL     OW 1466   1.300   2.315   0.691
  477SOL    HW1 1467   1.241   2.395   0.695
  477SOL    HW2 1468   1.315   2.280   0.784
  478SOL     OW 1469   1.593   2.083   0.882
  478SOL    HW1 1470   1.509   2.082   0.936
  478SOL    HW2 1471   1.595   2.166   0.826
  479SOL     OW 1472   0.039   2.939   0.300
  479SOL    HW1 1473   0.138   2.928   0.291
  479SOL    HW2 1474  -0.001   2.853   0.332
  480SOL     OW 1475   0.230   2.490   1.975
  480SOL    HW1 1476   0.137   2.488   2.012
  480SOL    HW2 1477   0.231   2.451   1.883
  481SOL     OW 1478   0.225   2.137   2.858
  481SOL    HW1 1479   0.260   2.120   2.950
  481SOL    HW2 1480   0.137   2.092   2.846
  482SOL     OW 1481   0.019   2.230   2.509
  482SOL    HW1 1482  -0.063   2.273   2.548
  482SOL    HW2 1483  -0.009   2.157   2.446
  483SOL     OW 1484   1.135   2.565   2.579
  483SOL    HW1 1485   1.192   2.643   2.554
  483SOL    HW2 1486   1.075   2.591   2.655
  484SOL     OW 1487   1.755   2.469   2.093
  484SOL    HW1 1488   1.743   2.456   1.994
  484SOL    HW2 1489   1.725   2.388   2.142
  485SOL     OW 1490   0.768   3.006   2.885
  485SOL    HW1 1491   0.690   3.023   2.945
  485SOL    HW2 1492   0.802   3.093   2.849
  486SOL     OW 1493   0.685   2.874   2.527
  486SOL    HW1 1494   0.754   2.858   2.597
  486SOL    HW2 1495   0.612   2.931   2.565
  487SOL     OW 1496   1.603   2.309   2.599
  487SOL    HW1 1497   1.529   2.355   2.549
  487SOL    HW2 1498   1.654   2.377   2.652
  488SOL     OW 1499   0.240   2.953   2.748
  488SOL    HW1 1500   0.254   2.869   2.800
  488SOL    HW2 1501   0.185   3.017   2.803
  489SOL     OW 1502   0.606   2.826   1.985
  489SOL    HW1 1503   0.613   2.910   1.931
  489SOL    HW2 1504   0.652   2.839   2.073
  490SOL     OW 1505   0.122   2.505   2.425
  490SOL    HW1 1506   0.077   2.417   2.442
  490SOL    HW2 1507   0.121   2.559   2.509
  491SOL     OW 1508   1.689   2.784   2.474
  491SOL    HW1 1509   1.784   2.755   2.482
  491SOL    HW2 1510   1.681   2.849   2.399
  492SOL     OW 1511   0.613   3.227   2.588
  492SOL    HW1 1512   0.564   3.140   2.597
  492SOL    HW2 1513   0.590   3.270   2.501
  493SOL     OW 1514   0.809   1.866   2.364
  493SOL    HW1 1515   0.849   1.957   2.355
  493SOL    HW2 1516   0.709   1.874   2.370
  494SOL     OW 1517   0.197   2.838   3.126
  494SOL    HW1 1518   0.286   2.793   3.112
  494SOL    HW2 1519   0.124   2.773   3.107
  495SOL     OW 1520   1.525   2.861   2.052
  495SOL    HW1 1521   1.462   2.785   2.065
  495SOL    HW2 1522   1.573   2.879   2.138
  496SOL     OW 1523   0.598   2.591   2.132
  496SOL    HW1 1524   0.622   2.660   2.064
  496SOL    HW2 1525   0.520   2.624   2.186
  497SOL     OW 1526   1.281   2.207   2.806
  497SOL    HW1 1527   1.195   2.157   2.793
  497SOL    HW2 1528   1.343   2.153   2.862
  498SOL     OW 1529   1.041   2.563   2.291
  498SOL    HW1 1530   1.067   2.559   2.387
  498SOL    HW2 1531   0.956   2.512   2.277
  499SOL     OW 1532   0.076   2.673   2.651
  499SOL    HW1 1533   0.175   2.661   2.660
  499SOL    HW2 1534   0.052   2.768   2.672
  500SOL     OW 1535   0.865   2.210   2.057
  500SOL    HW1 1536   0.924   2.273   2.008
  500SOL    HW2 1537   0.884   2.116   2.028
  501SOL     OW 1538   0.550   2.058   2.747
  501SOL    HW1 1539   0.545   2.053   2.847
  501SOL    HW2 1540   0.552   2.154   2.718
  502SOL     OW 1541   1.795   2.928   2.735
  502SOL    HW1 1542   1.733   2.913   2.659
  502SOL    HW2 1543   1.743   2.939   2.820
  503SOL     OW 1544   0.321   2.805   2.104
  503SOL    HW1 1545   0.403   2.844   2.062
  503SOL    HW2 1546   0.294   2.723   2.055
  504SOL     OW 1547   1.458   2.597   2.590
  504SOL    HW1 1548   1.453   2.532   2.665
  504SOL    HW2 1549   1.538   2.656   2.603
  505SOL     OW 1550   1.400   1.969   2.288
  505SOL    HW1 1551   1.376   1.932   2.198
  505SOL    HW2 1552   1.499   1.985   2.292
  506SOL     OW 1553   0.382   2.562   2.342
  506SOL    HW1 1554   0.427   2.472   2.339
  506SOL    HW2 1555   0.288   2.551   2.375
  507SOL     OW 1556   0.614   1.984   1.979
  507SOL    HW1 1557   0.712   1.962   1.986
  507SOL    HW2 1558   0.583   1.967   1.886
  508SOL     OW 1559   0.888   3.376   3.057
  508SOL    HW1 1560   0.865   3.351   2.963
  508SOL    HW2 1561   0.949   3.307   3.096
  509SOL     OW 1562   0.922   2.365   2.761
  509SOL    HW1 1563   0.897   2.356   2.665
  509SOL    HW2 1564   0.970   2.283   2.792
  510SOL     OW 1565   0.539   1.926   2.374
  510SOL    HW1 1566   0.458   1.927   2.432
  510SOL    HW2 1567   0.542   2.009   2.319
  511SOL     OW 1568   0.297   1.897   2.033
  511SOL    HW1 1569   0.346   1.981   2.012
  511SOL    HW2 1570   0.359   1.832   2.078
  512SOL     OW 1571   0.935   2.098   2.342
  512SOL    HW1 1572   0.887   2.139   2.264
  512SOL    HW2 1573   1.034   2.096   2.323
  513SOL     OW 1574   0.459   3.014   2.603
  513SOL    HW1 1575   0.388   2.987   2.668
  513SOL    HW2 1576   0.433   2.986   2.510
  514SOL     OW 1577   1.032   2.411   1.878
  514SOL    HW1 1578   0.991   2.493   1.839
  514SOL    HW2 1579   1.096   2.437   1.951
  515SOL     OW 1580   0.866   2.316   2.504
  515SOL    HW1 1581   0.834   2.388   2.442
  515SOL    HW2 1582   0.890   2.235   2.451
  516SOL     OW 1583   1.017   1.901   2.615
  516SOL    HW1 1584   0.945   1.906   2.546
  516SOL    HW2 1585   0.993   1.832   2.684
  517SOL     OW 1586   1.429   3.035   2.729
  517SOL    HW1 1587   1.374   2.951   2.722
  517SOL    HW2 1588   1.455   3.064   2.637
  518SOL     OW 1589   1.466   2.452   2.854
  518SOL    HW1 1590   1.436   2.357   2.861
  518SOL    HW2 1591   1.539   2.468   2.920
  519SOL     OW 1592   1.857   2.695   2.239
  519SOL    HW1 1593   1.899   2.631   2.303
  519SOL    HW2 1594   1.819   2.644   2.161
  520SOL     OW 1595   1.390   2.437   1.940
  520SOL    HW1 1596   1.336   2.416   2.021
  520SOL    HW2 1597   1.481   2.396   1.949
  521SOL     OW 1598   0.527   2.118   2.190
  521SOL    HW1 1599   0.554   2.059   2.115
  521SOL    HW2 1600   0.527   2.213   2.159
  522SOL     OW 1601   1.111   3.057   2.962
  522SOL    HW1 1602   1.071   3.101   3.043
  522SOL    HW2 1603   1.070   3.094   2.879
  523SOL     OW 1604   1.638   2.961   2.941
  523SOL    HW1 1605   1.643   3.042   3.000
  523SOL    HW2 1606   1.552   2.963   2.890
  524SOL     OW 1607   0.705   2.912   2.230
  524SOL    HW1 1608   0.691   2.919   2.329
  524SOL    HW2 1609   0.789   2.861   2.212
  525SOL     OW 1610   0.410   2.675   3.113
  525SOL    HW1 1611   0.496   2.687   3.163
  525SOL    HW2 1612   0.368   2.588   3.140
  526SOL     OW 1613   0.367   2.962   2.363
  526SOL    HW1 1614   0.360   3.045   2.307
  526SOL    HW2 1615   0.371   2.882   2.303
  527SOL     OW 1616   0.566   2.399   2.727
  527SOL    HW1 1617   0.578   2.465   2.653
  527SOL    HW2 1618   0.612   2.433   2.810
  528SOL     OW 1619   1.582   2.501   2.334
  528SOL    HW1 1620   1.551   2.562   2.407
  528SOL    HW2 1621   1.632   2.553   2.265
  529SOL     OW 1622   0.573   2.732   2.891
  529SOL    HW1 1623   0.617   2.821   2.882
  529SOL    HW2 1624   0.510   2.732   2.968
  530SOL     OW 1625   1.209   2.387   2.137
  530SOL    HW1 1626   1.222   2.303   2.191
  530SOL    HW2 1627   1.180   2.461   2.197
  531SOL     OW 1628   0.307   2.075   3.093
  531SOL    HW1 1629   0.284   2.112   3.183
  531SOL    HW2 1630   0.277   1.980   3.087
  532SOL     OW 1631   0.037   3.172   3.144
  532SOL    HW1 1632   0.090   3.123   3.212
  532SOL    HW2 1633   0.059   3.270   3.149
  533SOL     OW 1634   0.732   2.496   2.926
  533SOL    HW1 1635   0.791   2.470   2.850
  533SOL    HW2 1636   0.704   2.592   2.915
  534SOL     OW 1637   0.307   1.925   2.480
  534SOL    HW1 1638   0.296   2.019   2.513
  534SOL    HW2 1639   0.302   1.862   2.557
  535SOL     OW 1640   1.622   2.229   2.236
  535SOL    HW1 1641   1.624   2.153   2.300
  535SOL    HW2 1642   1.574   2.306   2.276
  536SOL     OW 1643   1.023   2.628   2.828
  536SOL    HW1 1644   1.038   2.649   2.924
  536SOL    HW2 1645   0.993   2.533   2.819
  537SOL     OW 1646   1.540   2.136   1.987
  537SOL    HW1 1647   1.479   2.061   2.010
  537SOL    HW2 1648   1.562   2.188   2.070
  538SOL     OW 1649   1.303   2.700   1.904
  538SOL    HW1 1650   1.337   2.607   1.919
  538SOL    HW2 1651   1.321   2.727   1.809
  539SOL     OW 1652   0.319   2.672   2.811
  539SOL    HW1 1653   0.412   2.708   2.816
  539SOL    HW2 1654   0.313   2.587   2.863
  540SOL     OW 1655   0.339   2.371   2.868
  540SOL    HW1 1656   0.287   2.288   2.851
  540SOL    HW2 1657   0.416   2.376   2.804
  541SOL     OW 1658   1.002   2.658   3.100
  541SOL    HW1 1659   1.043   2.626   3.186
  541SOL    HW2 1660   0.906   2.631   3.097
  542SOL     OW 1661   0.040   2.406   2.976
  542SOL    HW1 1662   0.125   2.373   2.935
  542SOL    HW2 1663   0.053   2.421   3.074
  543SOL     OW 1664   0.815   2.434   2.187
  543SOL    HW1 1665   0.822   2.345   2.141
  543SOL    HW2 1666   0.721   2.468   2.179
  544SOL     OW 1667   1.657   2.466   3.068
  544SOL    HW1 1668   1.619   2.397   3.130
  544SOL    HW2 1669   1.739   2.430   3.024
  545SOL     OW 1670   0.671   2.326   3.131
  545SOL    HW1 1671   0.637   2.237   3.101
  545SOL    HW2 1672   0.697   2.380   3.051
  546SOL     OW 1673   0.473   2.362   2.053
  546SOL    HW1 1674   0.534   2.442   2.057
  546SOL    HW2 1675   0.378   2.393   2.060
  547SOL     OW 1676   1.347   2.921   3.096
  547SOL    HW1 1677   1.371   2.858   3.022
  547SOL    HW2 1678   1.257   2.961   3.078
  548SOL     OW 1679   1.302   2.717   2.171
  548SOL    HW1 1680   1.216   2.686   2.213
  548SOL    HW2 1681   1.298   2.703   2.072
  549SOL     OW 1682   0.083   3.120   2.884
  549SOL    HW1 1683   0.078   3.119   2.984
  549SOL    HW2 1684   0.000   3.079   2.846
  550SOL     OW 1685   1.726   1.997   2.385
  550SOL    HW1 1686   1.799   1.980   2.318
  550SOL    HW2 1687   1.695   1.910   2.423
  551SOL     OW 1688   1.280   2.789   2.534
  551SOL    HW1 1689   1.340   2.708   2.536
  551SOL    HW2 1690   1.320   2.858   2.474
  552SOL     OW 1691   1.841   2.037   2.825
  552SOL    HW1 1692   1.880   1.952   2.789
  552SOL    HW2 1693   1.743   2.039   2.806
  553SOL     OW 1694   0.263   2.188   2.582
  553SOL    HW1 1695   0.184   2.239   2.548
  553SOL    HW2 1696   0.254   2.173   2.680
  554SOL     OW 1697   0.822   2.864   3.234
  554SOL    HW1 1698   0.862   2.863   3.142
  554SOL    HW2 1699   0.832   2.956   3.274
  555SOL     OW 1700   0.916   2.772   2.153
  555SOL    HW1 1701   0.979   2.810   2.085
  555SOL    HW2 1702   0.956   2.689   2.192
  556SOL     OW 1703   1.014   2.098   2.833
  556SOL    HW1 1704   1.006   2.062   2.740
  556SOL    HW2 1705   1.012   2.022   2.898
  557SOL     OW 1706   1.709   2.247   3.243
  557SOL    HW1 1707   1.782   2.316   3.247
  557SOL    HW2 1708   1.737   2.172   3.184
  558SOL     OW 1709   0.075   2.207   1.895
  558SOL    HW1 1710  -0.017   2.179   1.866
  558SOL    HW2 1711   0.106   2.284   1.839
  559SOL     OW 1712   0.072   2.028   2.180
  559SOL    HW1 1713   0.055   2.111   2.126
  559SOL    HW2 1714   0.162   1.991   2.158
  560SOL     OW 1715   1.674   2.745   3.116
  560SOL    HW1 1716   1.647   2.656   3.079
  560SOL    HW2 1717   1.675   2.813   3.043
  561SOL     OW 1718   1.225   2.187   2.311
  561SOL    HW1 1719   1.290   2.113   2.300
  561SOL    HW2 1720   1.245   2.237   2.395
  562SOL     OW 1721   0.594   2.607   2.514
  562SOL    HW1 1722   0.644   2.692   2.495
  562SOL    HW2 1723   0.506   2.609   2.466
  563SOL     OW 1724   1.730   2.796   3.379
  563SOL    HW1 1725   1.768   2.887   3.394
  563SOL    HW2 1726   1.722   2.779   3.280
  564SOL     OW 1727   0.859   2.818   2.723
  564SOL    HW1 1728   0.913   2.749   2.771
  564SOL    HW2 1729   0.827   2.887   2.789
  565SOL     OW 1730   1.083   2.846   1.949
  565SOL    HW1 1731   1.060   2.899   1.867
  565SOL    HW2 1732   1.164   2.790   1.930
  566SOL     OW 1733   0.079   3.102   2.515
  566SOL    HW1 1734   0.078   3.055   2.603
  566SOL    HW2 1735   0.161   3.074   2.464
  567SOL     OW 1736   1.824   2.054   3.089
  567SOL    HW1 1737   1.820   1.964   3.133
  567SOL    HW2 1738   1.827   2.043   2.990
  568SOL     OW 1739   0.428   2.286   2.382
  568SOL    HW1 1740   0.458   2.214   2.320
  568SOL    HW2 1741   0.389   2.246   2.465
  569SOL     OW 1742   1.424   2.076   2.974
  569SOL    HW1 1743   1.476   2.011   3.029
  569SOL    HW2 1744   1.375   2.139   3.035
  570SOL     OW 1745   0.770   3.192   2.163
  570SOL    HW1 1746   0.724   3.105   2.180
  570SOL    HW2 1747   0.861   3.189   2.204
  571SOL     OW 1748   1.300   2.315   2.553
  571SOL    HW1 1749   1.241   2.395   2.557
  571SOL    HW2 1750   1.315   2.280   2.646
  572SOL     OW 1751   1.593   2.083   2.744
  572SOL    HW1 1752   1.509   2.082   2.798
  572SOL    HW2 1753   1.595   2.166   2.688
  573SOL     OW 1754   0.039   2.939   2.162
  573SOL    HW1 1755   0.138   2.928   2.153
  573SOL    HW2 1756  -0.001   2.853   2.194
  574SOL     OW 1757   2.092   0.628   0.113
  574SOL    HW1 1758   1.999   0.626   0.150
  574SOL    HW2 1759   2.093   0.589   0.021
  575SOL     OW 1760   2.087   0.275   0.996
  575SOL    HW1 1761   2.122   0.258   1.088
  575SOL    HW2 1762   1.999   0.230   0.984
  576SOL     OW 1763   1.881   0.368   0.647
  576SOL    HW1 1764   1.799   0.411   0.686
  576SOL    HW2 1765   1.853   0.295   0.584
  577SOL     OW 1766   2.431   1.275   1.165
  577SOL    HW1 1767   2.338   1.268   1.128
  577SOL    HW2 1768   2.442   1.364   1.209
  578SOL     OW 1769   2.630   1.144   1.023
  578SOL    HW1 1770   2.552   1.161   1.083
  578SOL    HW2 1771   2.664   1.231   0.987
  579SOL     OW 1772   2.712   0.798   1.823
  579SOL    HW1 1773   2.708   0.874   1.888
  579SOL    HW2 1774   2.734   0.834   1.732
  580SOL     OW 1775   2.547   1.012   0.665
  580SOL    HW1 1776   2.616   0.996   0.735
  580SOL    HW2 1777   2.474   1.069   0.703
  581SOL     OW 1778   2.548   1.161   1.803
  581SOL    HW1 1779   2.608   1.240   1.817
  581SOL    HW2 1780   2.462   1.192   1.762
  582SOL     OW 1781   2.197   1.435   1.061
  582SOL    HW1 1782   2.119   1.404   1.008
  582SOL    HW2 1783   2.255   1.493   1.004
  583SOL     OW 1784   2.300   0.392   1.499
  583SOL    HW1 1785   2.382   0.336   1.508
  583SOL    HW2 1786   2.219   0.334   1.503
  584SOL     OW 1787   2.093   1.713   0.483
  584SOL    HW1 1788   2.127   1.790   0.537
  584SOL    HW2 1789   2.137   1.713   0.393
  585SOL     OW 1790   2.989   1.341   1.690
  585SOL    HW1 1791   3.036   1.341   1.778
  585SOL    HW2 1792   2.941   1.254   1.679
  586SOL     OW 1793   2.092   1.434   0.538
  586SOL    HW1 1794   2.066   1.530   0.538
  586SOL    HW2 1795   2.021   1.380   0.583
  587SOL     OW 1796   2.102   1.091   0.886
  587SOL    HW1 1797   2.116   1.007   0.938
  587SOL    HW2 1798   2.047   1.155   0.941
  588SOL     OW 1799   2.482   1.786   1.439
  588SOL    HW1 1800   2.390   1.769   1.474
  588SOL    HW2 1801   2.510   1.878   1.465
  589SOL     OW 1802   2.468   0.964   0.123
  589SOL    HW1 1803   2.475   1.048   0.069
  589SOL    HW2 1804   2.514   0.977   0.211
  590SOL     OW 1805   1.984   0.643   0.563
  590SOL    HW1 1806   1.939   0.555   0.580
  590SOL    HW2 1807   1.983   0.697   0.647
  591SOL     OW 1808   1.889   1.596   0.117
  591SOL    HW1 1809   1.870   1.500   0.138
  591SOL    HW2 1810   1.856   1.654   0.192
  592SOL     OW 1811   1.975   0.737   1.597
  592SOL    HW1 1812   2.063   0.724   1.642
  592SOL    HW2 1813   1.962   0.834   1.575
  593SOL     OW 1814   2.475   1.365   0.726
  593SOL    HW1 1815   2.426   1.278   0.735
  593SOL    HW2 1816   2.452   1.408   0.639
  594SOL     OW 1817   2.671   0.004   0.502
  594SOL    HW1 1818   2.711   0.095   0.493
  594SOL    HW2 1819   2.571   0.012   0.508
  595SOL     OW 1820   2.059   0.976   1.264
  595SOL    HW1 1821   2.148   0.931   1.250
  595SOL    HW2 1822   1.986   0.911   1.245
  596SOL     OW 1823   2.179   0.251   1.801
  596SOL    HW1 1824   2.250   0.322   1.807
  596SOL    HW2 1825   2.091   0.290   1.829
  597SOL     OW 1826   2.460   0.729   0.270
  597SOL    HW1 1827   2.484   0.798   0.202
  597SOL    HW2 1828   2.382   0.762   0.324
  598SOL     OW 1829   2.669   0.605   1.465
  598SOL    HW1 1830   2.622   0.602   1.554
  598SOL    HW2 1831   2.618   0.550   1.399
  599SOL     OW 1832   2.835   0.890   1.572
  599SOL    HW1 1833   2.881   0.806   1.543
  599SOL    HW2 1834   2.779   0.924   1.497
  600SOL     OW 1835   2.853   0.410   1.242
  600SOL    HW1 1836   2.776   0.444   1.296
  600SOL    HW2 1837   2.819   0.359   1.163
  601SOL     OW 1838   2.903   0.701   0.429
  601SOL    HW1 1839   2.929   0.697   0.525
  601SOL    HW2 1840   2.818   0.650   0.415
  602SOL     OW 1841   1.938   0.811   0.789
  602SOL    HW1 1842   2.037   0.799   0.798
  602SOL    HW2 1843   1.914   0.906   0.810
  603SOL     OW 1844   2.727   0.348   0.195
  603SOL    HW1 1845   2.786   0.411   0.146
  603SOL    HW2 1846   2.746   0.254   0.166
  604SOL     OW 1847   2.412   0.196   0.885
  604SOL    HW1 1848   2.407   0.191   0.985
  604SOL    HW2 1849   2.414   0.292   0.856
  605SOL     OW 1850   2.870   1.456   0.477
  605SOL    HW1 1851   2.824   1.528   0.425
  605SOL    HW2 1852   2.866   1.476   0.575
  606SOL     OW 1853   2.213   1.801   0.853
  606SOL    HW1 1854   2.263   1.715   0.859
  606SOL    HW2 1855   2.278   1.878   0.850
  607SOL     OW 1856   2.183   0.943   0.242
  607SOL    HW1 1857   2.265   0.982   0.200
  607SOL    HW2 1858   2.156   0.861   0.193
  608SOL     OW 1859   2.323   1.266   1.727
  608SOL    HW1 1860   2.273   1.267   1.641
  608SOL    HW2 1861   2.260   1.248   1.803
  609SOL     OW 1862   2.064   0.285   1.498
  609SOL    HW1 1863   1.984   0.345   1.485
  609SOL    HW2 1864   2.054   0.236   1.584
  610SOL     OW 1865   2.326   1.743   0.323
  610SOL    HW1 1866   2.359   1.782   0.409
  610SOL    HW2 1867   2.402   1.736   0.258
  611SOL     OW 1868   2.111   1.785   1.241
  611SOL    HW1 1869   2.168   1.720   1.291
  611SOL    HW2 1870   2.095   1.752   1.148
  612SOL     OW 1871   2.802   1.698   0.904
  612SOL    HW1 1872   2.882   1.641   0.925
  612SOL    HW2 1873   2.753   1.658   0.827
  613SOL     OW 1874   2.244   0.700   0.480
  613SOL    HW1 1875   2.289   0.610   0.477
  613SOL    HW2 1876   2.150   0.689   0.513
  614SOL     OW 1877   2.476   0.122   0.117
  614SOL    HW1 1878   2.574   0.100   0.124
  614SOL    HW2 1879   2.445   0.105   0.024
  615SOL     OW 1880   2.643   0.264   1.749
  615SOL    HW1 1881   2.710   0.203   1.792
  615SOL    HW2 1882   2.570   0.283   1.814
  616SOL     OW 1883   2.750   1.514   1.195
  616SOL    HW1 1884   2.727   1.489   1.101
  616SOL    HW2 1885   2.811   1.445   1.234
  617SOL     OW 1886   2.665   1.402   0.924
  617SOL    HW1 1887   2.755   1.416   0.882
  617SOL    HW2 1888   2.594   1.404   0.853
  618SOL     OW 1889   2.784   0.503   0.899
  618SOL    HW1 1890   2.759   0.494   0.803
  618SOL    HW2 1891   2.832   0.421   0.930
  619SOL     OW 1892   2.401   0.064   0.512
  619SOL    HW1 1893   2.320   0.065   0.570
  619SOL    HW2 1894   2.404   0.147   0.457
  620SOL     OW 1895   2.159   0.035   0.171
  620SOL    HW1 1896   2.208   0.119   0.150
  620SOL    HW2 1897   2.221  -0.030   0.216
  621SOL     OW 1898   2.797   0.236   0.480
  621SOL    HW1 1899   2.749   0.277   0.402
  621SOL    HW2 1900   2.896   0.234   0.461
  622SOL     OW 1901   3.089   1.570   0.793
  622SOL    HW1 1902   3.110   1.644   0.728
  622SOL    HW2 1903   3.157   1.570   0.866
  623SOL     OW 1904   2.321   1.152   0.741
  623SOL    HW1 1905   2.250   1.125   0.806
  623SOL    HW2 1906   2.295   1.124   0.648
  624SOL     OW 1907   3.133   1.797   0.591
  624SOL    HW1 1908   3.177   1.861   0.527
  624SOL    HW2 1909   3.083   1.849   0.661
  625SOL     OW 1910   2.894   0.549   0.016
  625SOL    HW1 1911   2.853   0.631  -0.023
  625SOL    HW2 1912   2.958   0.575   0.089
  626SOL     OW 1913   1.940   0.556   1.386
  626SOL    HW1 1914   2.032   0.555   1.345
  626SOL    HW2 1915   1.934   0.630   1.453
  627SOL     OW 1916   2.423   0.222   1.147
  627SOL    HW1 1917   2.461   0.138   1.184
  627SOL    HW2 1918   2.335   0.241   1.191
  628SOL     OW 1919   2.728   0.454   0.642
  628SOL    HW1 1920   2.696   0.526   0.580
  628SOL    HW2 1921   2.752   0.373   0.589
  629SOL     OW 1922   2.879   0.039   0.753
  629SOL    HW1 1923   2.807   0.044   0.684
  629SOL    HW2 1924   2.855  -0.030   0.822
  630SOL     OW 1925   2.350   1.385   0.174
  630SOL    HW1 1926   2.263   1.370   0.221
  630SOL    HW2 1927   2.333   1.411   0.079
  631SOL     OW 1928   2.389   0.256   0.328
  631SOL    HW1 1929   2.416   0.197   0.253
  631SOL    HW2 1930   2.389   0.351   0.297
  632SOL     OW 1931   2.973   1.195   1.100
  632SOL    HW1 1932   2.933   1.239   1.181
  632SOL    HW2 1933   2.932   1.232   1.017
  633SOL     OW 1934   2.777   0.089   1.402
  633SOL    HW1 1935   2.802   0.069   1.307
  633SOL    HW2 1936   2.849   0.145   1.444
  634SOL     OW 1937   2.842   1.116   1.719
  634SOL    HW1 1938   2.743   1.122   1.729
  634SOL    HW2 1939   2.865   1.036   1.663
  635SOL     OW 1940   2.567   1.050   0.368
  635SOL    HW1 1941   2.553   1.057   0.467
  635SOL    HW2 1942   2.651   0.999   0.350
  636SOL     OW 1943   2.272   0.813   1.251
  636SOL    HW1 1944   2.358   0.825   1.301
  636SOL    HW2 1945   2.230   0.726   1.278
  637SOL     OW 1946   1.926   1.564   1.331
  637SOL    HW1 1947   1.880   1.646   1.297
  637SOL    HW2 1948   2.024   1.583   1.340
  638SOL     OW 1949   2.229   1.100   0.501
  638SOL    HW1 1950   2.222   1.183   0.445
  638SOL    HW2 1951   2.233   1.020   0.441
  639SOL     OW 1952   2.428   0.537   0.865
  639SOL    HW1 1953   2.440   0.603   0.791
  639SOL    HW2 1954   2.474   0.571   0.948
  640SOL     OW 1955   3.114   1.348   0.388
  640SOL    HW1 1956   3.164   1.425   0.428
  640SOL    HW2 1957   3.019   1.350   0.420
  641SOL     OW 1958   2.216   1.510   1.329
  641SOL    HW1 1959   2.195   1.466   1.242
  641SOL    HW2 1960   2.313   1.536   1.332
  642SOL     OW 1961   2.264   0.751   1.598
  642SOL    HW1 1962   2.332   0.806   1.551
  642SOL    HW2 1963   2.304   0.663   1.625
  643SOL     OW 1964   2.875   0.105   1.770
  643SOL    HW1 1965   2.881   0.190   1.718
  643SOL    HW2 1966   2.907   0.029   1.713
  644SOL     OW 1967   2.366   0.050   1.740
  644SOL    HW1 1968   2.324  -0.007   1.670
  644SOL    HW2 1969   2.300   0.119   1.772
  645SOL     OW 1970   2.435   0.870   1.029
  645SOL    HW1 1971   2.479   0.959   1.020
  645SOL    HW2 1972   2.372   0.870   1.106
  646SOL     OW 1973   3.222   0.862   1.045
  646SOL    HW1 1974   3.147   0.862   0.979
  646SOL    HW2 1975   3.259   0.770   1.054
  647SOL     OW 1976   3.071   0.525   0.275
  647SOL    HW1 1977   3.084   0.441   0.329
  647SOL    HW2 1978   3.042   0.599   0.335
  648SOL     OW 1979   2.169   0.213   1.231
  648SOL    HW1 1980   2.146   0.250   1.321
  648SOL    HW2 1981   2.139   0.118   1.225
  649SOL     OW 1982   1.899   1.310   1.282
  649SOL    HW1 1983   1.952   1.261   1.350
  649SOL    HW2 1984   1.921   1.408   1.287
  650SOL     OW 1985   2.594   0.634   1.064
  650SOL    HW1 1986   2.653   0.608   0.988
  650SOL    HW2 1987   2.566   0.730   1.053
  651SOL     OW 1988   2.169   0.063   0.618
  651SOL    HW1 1989   2.158   0.157   0.651
  651SOL    HW2 1990   2.164   0.000   0.695
  652SOL     OW 1991   2.885   0.766   0.966
  652SOL    HW1 1992   2.900   0.787   1.062
  652SOL    HW2 1993   2.855   0.671   0.957
  653SOL     OW 1994   2.842   1.573   1.700
  653SOL    HW1 1995   2.822   1.617   1.612
  653SOL    HW2 1996   2.881   1.482   1.684
  654SOL     OW 1997   2.212   0.898   1.804
  654SOL    HW1 1998   2.288   0.942   1.852
  654SOL    HW2 1999   2.247   0.851   1.722
  655SOL     OW 2000   2.930   1.333   0.849
  655SOL    HW1 2001   2.937   1.249   0.794
  655SOL    HW2 2002   2.992   1.402   0.813
  656SOL     OW 2003   2.181   0.810   0.949
  656SOL    HW1 2004   2.274   0.846   0.954
  656SOL    HW2 2005   2.175   0.725   1.001
  657SOL     OW 2006   2.201   0.509   1.006
  657SOL    HW1 2007   2.149   0.426   0.989
  657SOL    HW2 2008   2.278   0.514   0.942
  658SOL     OW 2009   3.000   0.380   1.678
  658SOL    HW1 2010   2.955   0.443   1.742
  658SOL    HW2 2011   3.093   0.411   1.661
  659SOL     OW 2012   3.022   0.207   1.477
  659SOL    HW1 2013   3.022   0.271   1.554
  659SOL    HW2 2014   3.050   0.255   1.394
  660SOL     OW 2015   1.870   1.326   0.200
  660SOL    HW1 2016   1.777   1.347   0.169
  660SOL    HW2 2017   1.880   1.227   0.213
  661SOL     OW 2018   1.950   1.801   0.927
  661SOL    HW1 2019   1.908   1.715   0.900
  661SOL    HW2 2020   2.044   1.804   0.893
  662SOL     OW 2021   2.366   1.568   0.910
  662SOL    HW1 2022   2.432   1.642   0.919
  662SOL    HW2 2023   2.410   1.489   0.868
  663SOL     OW 2024   2.864   0.796   1.238
  663SOL    HW1 2025   2.905   0.764   1.324
  663SOL    HW2 2026   2.768   0.769   1.235
  664SOL     OW 2027   1.902   0.544   1.114
  664SOL    HW1 2028   1.987   0.511   1.073
  664SOL    HW2 2029   1.915   0.559   1.212
  665SOL     OW 2030   2.051   0.520   1.722
  665SOL    HW1 2031   2.110   0.480   1.652
  665SOL    HW2 2032   1.993   0.591   1.681
  666SOL     OW 2033   2.677   0.572   0.325
  666SOL    HW1 2034   2.684   0.483   0.279
  666SOL    HW2 2035   2.583   0.606   0.317
  667SOL     OW 2036   2.533   0.464   1.269
  667SOL    HW1 2037   2.499   0.375   1.239
  667SOL    HW2 2038   2.559   0.518   1.189
  668SOL     OW 2039   2.792   1.678   1.465
  668SOL    HW1 2040   2.768   1.660   1.370
  668SOL    HW2 2041   2.822   1.772   1.475
  669SOL     OW 2042   2.335   0.500   0.191
  669SOL    HW1 2043   2.396   0.580   0.195
  669SOL    HW2 2044   2.240   0.531   0.198
  670SOL     OW 2045   2.021   1.137   1.466
  670SOL    HW1 2046   2.043   1.076   1.542
  670SOL    HW2 2047   2.031   1.088   1.380
  671SOL     OW 2048   3.164   0.855   0.309
  671SOL    HW1 2049   3.078   0.824   0.351
  671SOL    HW2 2050   3.160   0.841   0.210
  672SOL     OW 2051   1.945   1.258   1.022
  672SOL    HW1 2052   1.940   1.257   1.122
  672SOL    HW2 2053   1.862   1.217   0.984
  673SOL     OW 2054   2.550   1.662   1.716
  673SOL    HW1 2055   2.494   1.743   1.725
  673SOL    HW2 2056   2.602   1.666   1.630
  674SOL     OW 2057   2.765   0.086   0.133
  674SOL    HW1 2058   2.816   0.087   0.047
  674SOL    HW2 2059   2.821   0.044   0.204
  675SOL     OW 2060   2.692   1.273   1.422
  675SOL    HW1 2061   2.687   1.306   1.517
  675SOL    HW2 2062   2.606   1.292   1.376
  676SOL     OW 2063   2.534   1.616   0.154
  676SOL    HW1 2064   2.543   1.626   0.055
  676SOL    HW2 2065   2.494   1.527   0.175
  677SOL     OW 2066   2.125   0.326   0.720
  677SOL    HW1 2067   2.046   0.377   0.686
  677SOL    HW2 2068   2.116   0.311   0.818
  678SOL     OW 2069   2.684   1.002   1.372
  678SOL    HW1 2070   2.724   1.001   1.280
  678SOL    HW2 2071   2.694   1.094   1.412
  679SOL     OW 2072   2.778   0.910   0.291
  679SOL    HW1 2073   2.841   0.948   0.223
  679SOL    HW2 2074   2.818   0.827   0.330
  680SOL     OW 2075   2.234   1.288   1.490
  680SOL    HW1 2076   2.221   1.381   1.456
  680SOL    HW2 2077   2.150   1.236   1.477
  681SOL     OW 2078   2.901   1.098   0.696
  681SOL    HW1 2079   2.831   1.051   0.750
  681SOL    HW2 2080   2.960   1.030   0.653
  682SOL     OW 2081   2.876   0.236   0.971
  682SOL    HW1 2082   2.868   0.200   0.878
  682SOL    HW2 2083   2.874   0.160   1.036
  683SOL     OW 2084   2.452   1.487   0.491
  683SOL    HW1 2085   2.494   1.429   0.421
  683SOL    HW2 2086   2.408   1.566   0.447
  684SOL     OW 2087   2.117   1.348   0.290
  684SOL    HW1 2088   2.021   1.349   0.263
  684SOL    HW2 2089   2.129   1.401   0.374
  685SOL     OW 2090   1.967   1.013   1.726
  685SOL    HW1 2091   1.890   0.980   1.780
  685SOL    HW2 2092   2.052   0.983   1.768
  686SOL     OW 2093   2.534   0.203   1.489
  686SOL    HW1 2094   2.624   0.187   1.449
  686SOL    HW2 2095   2.542   0.208   1.588
  687SOL     OW 2096   1.934   0.166   0.318
  687SOL    HW1 2097   1.917   0.249   0.264
  687SOL    HW2 2098   2.024   0.129   0.296
  688SOL     OW 2099   2.475   0.842   1.431
  688SOL    HW1 2100   2.531   0.923   1.414
  688SOL    HW2 2101   2.534   0.762   1.434
  689SOL     OW 2102   2.578   0.565   1.708
  689SOL    HW1 2103   2.597   0.630   1.782
  689SOL    HW2 2104   2.638   0.485   1.717
  690SOL     OW 2105   2.252   1.741   1.560
  690SOL    HW1 2106   2.161   1.782   1.558
  690SOL    HW2 2107   2.245   1.647   1.592
  691SOL     OW 2108   2.456   0.745   0.652
  691SOL    HW1 2109   2.506   0.830   0.633
  691SOL    HW2 2110   2.368   0.747   0.604
  692SOL     OW 2111   2.721   1.374   0.016
  692SOL    HW1 2112   2.675   1.389   0.104
  692SOL    HW2 2113   2.765   1.459  -0.014
  693SOL     OW 2114   2.523   1.790   0.953
  693SOL    HW1 2115   2.477   1.878   0.940
  693SOL    HW2 2116   2.622   1.802   0.946
  694SOL     OW 2117   2.721   0.956   0.861
  694SOL    HW1 2118   2.775   0.887   0.909
  694SOL    HW2 2119   2.689   1.025   0.927
  695SOL     OW 2120   2.945   0.984   0.087
  695SOL    HW1 2121   2.922   1.037   0.005
  695SOL    HW2 2122   3.026   0.928   0.068
  696SOL     OW 2123   2.083   1.314   1.844
  696SOL    HW1 2124   2.018   1.241   1.823
  696SOL    HW2 2125   2.087   1.328   1.942
  697SOL     OW 2126   1.941   1.240   0.653
  697SOL    HW1 2127   1.940   1.193   0.741
  697SOL    HW2 2128   2.023   1.212   0.602
  698SOL     OW 2129   2.534   1.391   1.624
  698SOL    HW1 2130   2.456   1.341   1.662
  698SOL    HW2 2131   2.531   1.486   1.655
  699SOL     OW 2132   2.290   0.424   0.520
  699SOL    HW1 2133   2.320   0.352   0.458
  699SOL    HW2 2134   2.251   0.384   0.603
  700SOL     OW 2135   2.179   0.547   1.280
  700SOL    HW1 2136   2.217   0.488   1.352
  700SOL    HW2 2137   2.219   0.521   1.192
  701SOL     OW 2138   2.674   1.586   0.687
  701SOL    HW1 2139   2.706   1.596   0.593
  701SOL    HW2 2140   2.595   1.524   0.689
  702SOL     OW 2141   2.863   0.034   1.154
  702SOL    HW1 2142   2.800  -0.038   1.123
  702SOL    HW2 2143   2.956  -0.002   1.154
  703SOL     OW 2144   2.632   1.330   0.301
  703SOL    HW1 2145   2.586   1.243   0.318
  703SOL    HW2 2146   2.723   1.327   0.342
  704SOL     OW 2147   2.480   1.567   1.284
  704SOL    HW1 2148   2.475   1.649   1.341
  704SOL    HW2 2149   2.569   1.564   1.239
  705SOL     OW 2150   1.901   1.077   0.300
  705SOL    HW1 2151   2.000   1.066   0.291
  705SOL    HW2 2152   1.861   0.991   0.332
  706SOL     OW 2153   2.737   1.646   0.337
  706SOL    HW1 2154   2.660   1.611   0.283
  706SOL    HW2 2155   2.705   1.717   0.399
  707SOL     OW 2156   2.092   0.628   1.975
  707SOL    HW1 2157   1.999   0.626   2.012
  707SOL    HW2 2158   2.093   0.589   1.883
  708SOL     OW 2159   2.087   0.275   2.858
  708SOL    HW1 2160   2.122   0.258   2.950
  708SOL    HW2 2161   1.999   0.230   2.846
  709SOL     OW 2162   1.881   0.368   2.509
  709SOL    HW1 2163   1.799   0.411   2.548
  709SOL    HW2 2164   1.853   0.295   2.446
  710SOL     OW 2165   2.431   1.275   3.027
  710SOL    HW1 2166   2.338   1.268   2.990
  710SOL    HW2 2167   2.442   1.364   3.071
  711SOL     OW 2168   2.630   1.144   2.885
  711SOL    HW1 2169   2.552   1.161   2.945
  711SOL    HW2 2170   2.664   1.231   2.849
  712SOL     OW 2171   2.547   1.012   2.527
  712SOL    HW1 2172   2.616   0.996   2.597
  712SOL    HW2 2173   2.474   1.069   2.565
  713SOL     OW 2174   2.197   1.435   2.923
  713SOL    HW1 2175   2.119   1.404   2.870
  713SOL    HW2 2176   2.255   1.493   2.866
  714SOL     OW 2177   2.093   1.713   2.345
  714SOL    HW1 2178   2.127   1.790   2.399
  714SOL    HW2 2179   2.137   1.713   2.255
  715SOL     OW 2180   2.092   1.434   2.400
  715SOL    HW1 2181   2.066   1.530   2.400
  715SOL    HW2 2182   2.021   1.380   2.445
  716SOL     OW 2183   2.102   1.091   2.748
  716SOL    HW1 2184   2.116   1.007   2.800
  716SOL    HW2 2185   2.047   1.155   2.803
  717SOL     OW 2186   2.468   0.964   1.985
  717SOL    HW1 2187   2.475   1.048   1.931
  717SOL    HW2 2188   2.514   0.977   2.073
  718SOL     OW 2189   1.984   0.643   2.425
  718SOL    HW1 2190   1.939   0.555   2.442
  718SOL    HW2 2191   1.983   0.697   2.509
  719SOL     OW 2192   2.475   1.365   2.588
  719SOL    HW1 2193   2.426   1.278   2.597
  719SOL    HW2 2194   2.452   1.408   2.501
  720SOL     OW 2195   2.671   0.004   2.364
  720SOL    HW1 2196   2.711   0.095   2.355
  720SOL    HW2 2197   2.571   0.012   2.370
  721SOL     OW 2198   2.059   0.976   3.126
  721SOL    HW1 2199   2.148   0.931   3.112
  721SOL    HW2 2200   1.986   0.911   3.107
  722SOL     OW 2201   2.460   0.729   2.132
  722SOL    HW1 2202   2.484   0.798   2.064
  722SOL    HW2 2203   2.382   0.762   2.186
  723SOL     OW 2204   2.903   0.701   2.291
  723SOL    HW1 2205   2.929   0.697   2.387
  723SOL    HW2 2206   2.818   0.650   2.277
  724SOL     OW 2207   1.938   0.811   2.651
  724SOL    HW1 2208   2.037   0.799   2.660
  724SOL    HW2 2209   1.914   0.906   2.672
  725SOL     OW 2210   2.727   0.348   2.057
  725SOL    HW1 2211   2.786   0.411   2.008
  725SOL    HW2 2212   2.746   0.254   2.028
  726SOL     OW 2213   2.412   0.196   2.747
  726SOL    HW1 2214   2.407   0.191   2.847
  726SOL    HW2 2215   2.414   0.292   2.718
  727SOL     OW 2216   2.870   1.456   2.339
  727SOL    HW1 2217   2.824   1.528   2.287
  727SOL    HW2 2218   2.866   1.476   2.437
  728SOL     OW 2219   2.213   1.801   2.715
  728SOL    HW1 2220   2.263   1.715   2.721
  728SOL    HW2 2221   2.278   1.878   2.712
  729SOL     OW 2222   2.183   0.943   2.104
  729SOL    HW1 2223   2.265   0.982   2.062
  729SOL    HW2 2224   2.156   0.861   2.055
  730SOL     OW 2225   2.326   1.743   2.185
  730SOL    HW1 2226   2.359   1.782   2.271
  730SOL    HW2 2227   2.402   1.736   2.120
  731SOL     OW 2228   2.111   1.785   3.103
  731SOL    HW1 2229   2.168   1.720   3.153
  731SOL    HW2 2230   2.095   1.752   3.010
  732SOL     OW 2231   2.802   1.698   2.766
  732SOL    HW1 2232   2.882   1.641   2.787
  732SOL    HW2 2233   2.753   1.658   2.689
  733SOL     OW 2234   2.244   0.700   2.342
  733SOL    HW1 2235   2.289   0.610   2.339
  733SOL    HW2 2236   2.150   0.689   2.375
  734SOL     OW 2237   2.476   0.122   1.979
  734SOL    HW1 2238   2.574   0.100   1.986
  734SOL    HW2 2239   2.445   0.105   1.886
  735SOL     OW 2240   2.665   1.402   2.786
  735SOL    HW1 2241   2.755   1.416   2.744
  735SOL    HW2 2242   2.594   1.404   2.715
  736SOL     OW 2243   2.784   0.503   2.761
  736SOL    HW1 2244   2.759   0.494   2.665
  736SOL    HW2 2245   2.832   0.421   2.792
  737SOL     OW 2246   2.401   0.064   2.374
  737SOL    HW1 2247   2.320   0.065   2.432
  737SOL    HW2 2248   2.404   0.147   2.319
  738SOL     OW 2249   2.159   0.035   2.033
  738SOL    HW1 2250   2.208   0.119   2.012
  738SOL    HW2 2251   2.221  -0.030   2.078
  739SOL     OW 2252   2.797   0.236   2.342
  739SOL    HW1 2253   2.749   0.277   2.264
  739SOL    HW2 2254   2.896   0.234   2.323
  740SOL     OW 2255   3.089   1.570   2.655
  740SOL    HW1 2256   3.110   1.644   2.590
  740SOL    HW2 2257   3.157   1.570   2.728
  741SOL     OW 2258   2.321   1.152   2.603
  741SOL    HW1 2259   2.250   1.125   2.668
  741SOL    HW2 2260   2.295   1.124   2.510
  742SOL     OW 2261   3.133   1.797   2.453
  742SOL    HW1 2262   3.177   1.861   2.389
  742SOL    HW2 2263   3.083   1.849   2.523
  743SOL     OW 2264   2.894   0.549   1.878
  743SOL    HW1 2265   2.853   0.631   1.839
  743SOL    HW2 2266   2.958   0.575   1.951
  744SOL     OW 2267   2.728   0.454   2.504
  744SOL    HW1 2268   2.696   0.526   2.442
  744SOL    HW2 2269   2.752   0.373   2.451
  745SOL     OW 2270   2.879   0.039   2.615
  745SOL    HW1 2271   2.807   0.044   2.546
  745SOL    HW2 2272   2.855  -0.030   2.684
  746SOL     OW 2273   2.350   1.385   2.036
  746SOL    HW1 2274   2.263   1.370   2.083
  746SOL    HW2 2275   2.333   1.411   1.941
  747SOL     OW 2276   2.389   0.256   2.190
  747SOL    HW1 2277   2.416   0.197   2.115
  747SOL    HW2 2278   2.389   0.351   2.159
  748SOL     OW 2279   2.973   1.195   2.962
  748SOL    HW1 2280   2.933   1.239   3.043
  748SOL    HW2 2281   2.932   1.232   2.879
  749SOL     OW 2282   2.567   1.050   2.230
  749SOL    HW1 2283   2.553   1.057   2.329
  749SOL    HW2 2284   2.651   0.999   2.212
  750SOL     OW 2285   2.272   0.813   3.113
  750SOL    HW1 2286   2.358   0.825   3.163
  750SOL    HW2 2287   2.230   0.726   3.140
  751SOL     OW 2288   2.229   1.100   2.363
  751SOL    HW1 2289   2.222   1.183   2.307
  751SOL    HW2 2290   2.233   1.020   2.303
  752SOL     OW 2291   2.428   0.537   2.727
  752SOL    HW1 2292   2.440   0.603   2.653
  752SOL    HW2 2293   2.474   0.571   2.810
  753SOL     OW 2294   3.114   1.348   2.250
  753SOL    HW1 2295   3.164   1.425   2.290
  753SOL    HW2 2296   3.019   1.350   2.282
  754SOL     OW 2297   3.134   1.445   3.004
  754SOL    HW1 2298   3.181   1.458   3.091
  754SOL    HW2 2299   3.068   1.371   3.013
  755SOL     OW 2300   2.435   0.870   2.891
  755SOL    HW1 2301   2.479   0.959   2.882
  755SOL    HW2 2302   2.372   0.870   2.968
  756SOL     OW 2303   3.222   0.862   2.907
  756SOL    HW1 2304   3.147   0.862   2.841
  756SOL    HW2 2305   3.259   0.770   2.916
  757SOL     OW 2306   3.071   0.525   2.137
  757SOL    HW1 2307   3.084   0.441   2.191
  757SOL    HW2 2308   3.042   0.599   2.197
  758SOL     OW 2309   2.169   0.213   3.093
  758SOL    HW1 2310   2.146   0.250   3.183
  758SOL    HW2 2311   2.139   0.118   3.087
  759SOL     OW 2312   2.594   0.634   2.926
  759SOL    HW1 2313   2.653   0.608   2.850
  759SOL    HW2 2314   2.566   0.730   2.915
  760SOL     OW 2315   2.169   0.063   2.480
  760SOL    HW1 2316   2.158   0.157   2.513
  760SOL    HW2 2317   2.164   0.000   2.557
  761SOL     OW 2318   2.885   0.766   2.828
  761SOL    HW1 2319   2.900   0.787   2.924
  761SOL    HW2 2320   2.855   0.671   2.819
  762SOL     OW 2321   3.165   0.838   1.904
  762SOL    HW1 2322   3.199   0.745   1.919
  762SOL    HW2 2323   3.183   0.865   1.809
  763SOL     OW 2324   2.930   1.333   2.711
  763SOL    HW1 2325   2.937   1.249   2.656
  763SOL    HW2 2326   2.992   1.402   2.675
  764SOL     OW 2327   2.181   0.810   2.811
  764SOL    HW1 2328   2.274   0.846   2.816
  764SOL    HW2 2329   2.175   0.725   2.863
  765SOL     OW 2330   2.201   0.509   2.868
  765SOL    HW1 2331   2.149   0.426   2.851
  765SOL    HW2 2332   2.278   0.514   2.804
  766SOL     OW 2333   1.870   1.326   2.062
  766SOL    HW1 2334   1.777   1.347   2.031
  766SOL    HW2 2335   1.880   1.227   2.075
  767SOL     OW 2336   1.950   1.801   2.789
  767SOL    HW1 2337   1.908   1.715   2.762
  767SOL    HW2 2338   2.044   1.804   2.755
  768SOL     OW 2339   2.366   1.568   2.772
  768SOL    HW1 2340   2.432   1.642   2.781
  768SOL    HW2 2341   2.410   1.489   2.730
  769SOL     OW 2342   2.864   0.796   3.100
  769SOL    HW1 2343   2.905   0.764   3.186
  769SOL    HW2 2344   2.768   0.769   3.097
  770SOL     OW 2345   1.902   0.544   2.976
  770SOL    HW1 2346   1.987   0.511   2.935
  770SOL    HW2 2347   1.915   0.559   3.074
  771SOL     OW 2348   2.677   0.572   2.187
  771SOL    HW1 2349   2.684   0.483   2.141
  771SOL    HW2 2350   2.583   0.606   2.179
  772SOL     OW 2351   2.533   0.464   3.131
  772SOL    HW1 2352   2.499   0.375   3.101
  772SOL    HW2 2353   2.559   0.518   3.051
  773SOL     OW 2354   2.335   0.500   2.053
  773SOL    HW1 2355   2.396   0.580   2.057
  773SOL    HW2 2356   2.240   0.531   2.060
  774SOL     OW 2357   3.164   0.855   2.171
  774SOL    HW1 2358   3.078   0.824   2.213
  774SOL    HW2 2359   3.160   0.841   2.072
  775SOL     OW 2360   1.945   1.258   2.884
  775SOL    HW1 2361   1.940   1.257   2.984
  775SOL    HW2 2362   1.862   1.217   2.846
  776SOL     OW 2363   2.534   1.616   2.016
  776SOL    HW1 2364   2.543   1.626   1.917
  776SOL    HW2 2365   2.494   1.527   2.037
  777SOL     OW 2366   2.125   0.326   2.582
  777SOL    HW1 2367   2.046   0.377   2.548
  777SOL    HW2 2368   2.116   0.311   2.680
  778SOL     OW 2369   2.684   1.002   3.234
  778SOL    HW1 2370   2.724   1.001   3.142
  778SOL    HW2 2371   2.694   1.094   3.274
  779SOL     OW 2372   2.778   0.910   2.153
  779SOL    HW1 2373   2.841   0.948   2.085
  779SOL    HW2 2374   2.818   0.827   2.192
  780SOL     OW 2375   2.901   1.098   2.558
  780SOL    HW1 2376   2.831   1.051   2.612
  780SOL    HW2 2377   2.960   1.030   2.515
  781SOL     OW 2378   2.876   0.236   2.833
  781SOL    HW1 2379   2.868   0.200   2.740
  781SOL    HW2 2380   2.874   0.160   2.898
  782SOL     OW 2381   2.452   1.487   2.353
  782SOL    HW1 2382   2.494   1.429   2.283
  782SOL    HW2 2383   2.408   1.566   2.309
  783SOL     OW 2384   2.117   1.348   2.152
  783SOL    HW1 2385   2.021   1.349   2.125
  783SOL    HW2 2386   2.129   1.401   2.236
  784SOL     OW 2387   1.937   0.345   1.895
  784SOL    HW1 2388   1.845   0.317   1.866
  784SOL    HW2 2389   1.968   0.422   1.839
  785SOL     OW 2390   1.934   0.166   2.180
  785SOL    HW1 2391   1.917   0.249   2.126
  785SOL    HW2 2392   2.024   0.129   2.158
  786SOL     OW 2393   2.456   0.745   2.514
  786SOL    HW1 2394   2.506   0.830   2.495
  786SOL    HW2 2395   2.368   0.747   2.466
  787SOL     OW 2396   2.721   1.374   1.878
  787SOL    HW1 2397   2.675   1.389   1.966
  787SOL    HW2 2398   2.765   1.459   1.848
  788SOL     OW 2399   2.523   1.790   2.815
  788SOL    HW1 2400   2.477   1.878   2.802
  788SOL    HW2 2401   2.622   1.802   2.808
  789SOL     OW 2402   2.721   0.956   2.723
  789SOL    HW1 2403   2.775   0.887   2.771
  789SOL    HW2 2404   2.689   1.025   2.789
  790SOL     OW 2405   2.945   0.984   1.949
  790SOL    HW1 2406   2.922   1.037   1.867
  790SOL    HW2 2407   3.026   0.928   1.930
  791SOL     OW 2408   1.941   1.240   2.515
  791SOL    HW1 2409   1.940   1.193   2.603
  791SOL    HW2 2410   2.023   1.212   2.464
  792SOL     OW 2411   2.290   0.424   2.382
  792SOL    HW1 2412   2.320   0.352   2.320
  792SOL    HW2 2413   2.251   0.384   2.465
  793SOL     OW 2414   2.674   1.586   2.549
  793SOL    HW1 2415   2.706   1.596   2.455
  793SOL    HW2 2416   2.595   1.524   2.551
  794SOL     OW 2417   2.632   1.330   2.163
  794SOL    HW1 2418   2.586   1.243   2.180
  794SOL    HW2 2419   2.723   1.327   2.204
  795SOL     OW 2420   1.901   1.077   2.162
  795SOL    HW1 2421   2.000   1.066   2.153
  795SOL    HW2 2422   1.861   0.991   2.194
  796SOL     OW 2423   2.737   1.646   2.199
  796SOL    HW1 2424   2.660   1.611   2.145
  796SOL    HW2 2425   2.705   1.717   2.261
  797SOL     OW 2426   2.092   2.490   0.113
  797SOL    HW1 2427   1.999   2.488   0.150
  797SOL    HW2 2428   2.093   2.451   0.021
  798SOL     OW 2429   2.087   2.137   0.996
  798SOL    HW1 2430   2.122   2.120   1.088
  798SOL    HW2 2431   1.999   2.092   0.984
  799SOL     OW 2432   1.881   2.230   0.647
  799SOL    HW1 2433   1.799   2.273   0.686
  799SOL    HW2 2434   1.853   2.157   0.584
  800SOL     OW 2435   2.630   3.006   1.023
  800SOL    HW1 2436   2.552   3.023   1.083
  800SOL    HW2 2437   2.664   3.093   0.987
  801SOL     OW 2438   2.712   2.660   1.823
  801SOL    HW1 2439   2.708   2.736   1.888
  801SOL    HW2 2440   2.734   2.696   1.732
  802SOL     OW 2441   2.547   2.874   0.665
  802SOL    HW1 2442   2.616   2.858   0.735
  802SOL    HW2 2443   2.474   2.931   0.703
  803SOL     OW 2444   2.300   2.254   1.499
  803SOL    HW1 2445   2.382   2.198   1.508
  803SOL    HW2 2446   2.219   2.196   1.503
  804SOL     OW 2447   2.102   2.953   0.886
  804SOL    HW1 2448   2.116   2.869   0.938
  804SOL    HW2 2449   2.047   3.017   0.941
  805SOL     OW 2450   2.468   2.826   0.123
  805SOL    HW1 2451   2.475   2.910   0.069
  805SOL    HW2 2452   2.514   2.839   0.211
  806SOL     OW 2453   1.984   2.505   0.563
  806SOL    HW1 2454   1.939   2.417   0.580
  806SOL    HW2 2455   1.983   2.559   0.647
  807SOL     OW 2456   1.975   2.599   1.597
  807SOL    HW1 2457   2.063   2.586   1.642
  807SOL    HW2 2458   1.962   2.696   1.575
  808SOL     OW 2459   2.475   3.227   0.726
  808SOL    HW1 2460   2.426   3.140   0.735
  808SOL    HW2 2461   2.452   3.270   0.639
  809SOL     OW 2462   2.671   1.866   0.502
  809SOL    HW1 2463   2.711   1.957   0.493
  809SOL    HW2 2464   2.571   1.874   0.508
  810SOL     OW 2465   2.059   2.838   1.264
  810SOL    HW1 2466   2.148   2.793   1.250
  810SOL    HW2 2467   1.986   2.773   1.245
  811SOL     OW 2468   2.179   2.113   1.801
  811SOL    HW1 2469   2.250   2.184   1.807
  811SOL    HW2 2470   2.091   2.152   1.829
  812SOL     OW 2471   2.460   2.591   0.270
  812SOL    HW1 2472   2.484   2.660   0.202
  812SOL    HW2 2473   2.382   2.624   0.324
  813SOL     OW 2474   2.669   2.467   1.465
  813SOL    HW1 2475   2.622   2.464   1.554
  813SOL    HW2 2476   2.618   2.412   1.399
  814SOL     OW 2477   2.835   2.752   1.572
  814SOL    HW1 2478   2.881   2.668   1.543
  814SOL    HW2 2479   2.779   2.786   1.497
  815SOL     OW 2480   2.853   2.272   1.242
  815SOL    HW1 2481   2.776   2.306   1.296
  815SOL    HW2 2482   2.819   2.221   1.163
  816SOL     OW 2483   2.903   2.563   0.429
  816SOL    HW1 2484   2.929   2.559   0.525
  816SOL    HW2 2485   2.818   2.512   0.415
  817SOL     OW 2486   1.938   2.673   0.789
  817SOL    HW1 2487   2.037   2.661   0.798
  817SOL    HW2 2488   1.914   2.768   0.810
  818SOL     OW 2489   2.727   2.210   0.195
  818SOL    HW1 2490   2.786   2.273   0.146
  818SOL    HW2 2491   2.746   2.116   0.166
  819SOL     OW 2492   2.412   2.058   0.885
  819SOL    HW1 2493   2.407   2.053   0.985
  819SOL    HW2 2494   2.414   2.154   0.856
  820SOL     OW 2495   2.183   2.805   0.242
  820SOL    HW1 2496   2.265   2.844   0.200
  820SOL    HW2 2497   2.156   2.723   0.193
  821SOL     OW 2498   2.064   2.147   1.498
  821SOL    HW1 2499   1.984   2.207   1.485
  821SOL    HW2 2500   2.054   2.098   1.584
  822SOL     OW 2501   2.244   2.562   0.480
  822SOL    HW1 2502   2.289   2.472   0.477
  822SOL    HW2 2503   2.150   2.551   0.513
  823SOL     OW 2504   2.476   1.984   0.117
  823SOL    HW1 2505   2.574   1.962   0.124
  823SOL    HW2 2506   2.445   1.967   0.024
  824SOL     OW 2507   2.643   2.126   1.749
  824SOL    HW1 2508   2.710   2.065   1.792
  824SOL    HW2 2509   2.570   2.145   1.814
  825SOL     OW 2510   2.784   2.365   0.899
  825SOL    HW1 2511   2.759   2.356   0.803
  825SOL    HW2 2512   2.832   2.283   0.930
  826SOL     OW 2513   2.401   1.926   0.512
  826SOL    HW1 2514   2.320   1.927   0.570
  826SOL    HW2 2515   2.404   2.009   0.457
  827SOL     OW 2516   2.159   1.897   0.171
  827SOL    HW1 2517   2.208   1.981   0.150
  827SOL    HW2 2518   2.221   1.832   0.216
  828SOL     OW 2519   2.797   2.098   0.480
  828SOL    HW1 2520   2.749   2.139   0.402
  828SOL    HW2 2521   2.896   2.096   0.461
  829SOL     OW 2522   2.321   3.014   0.741
  829SOL    HW1 2523   2.250   2.987   0.806
  829SOL    HW2 2524   2.295   2.986   0.648
  830SOL     OW 2525   2.894   2.411   0.016
  830SOL    HW1 2526   2.853   2.493  -0.023
  830SOL    HW2 2527   2.958   2.437   0.089
  831SOL     OW 2528   1.940   2.418   1.386
  831SOL    HW1 2529   2.032   2.417   1.345
  831SOL    HW2 2530   1.934   2.492   1.453
  832SOL     OW 2531   2.423   2.084   1.147
  832SOL    HW1 2532   2.461   2.000   1.184
  832SOL    HW2 2533   2.335   2.103   1.191
  833SOL     OW 2534   2.728   2.316   0.642
  833SOL    HW1 2535   2.696   2.388   0.580
  833SOL    HW2 2536   2.752   2.235   0.589
  834SOL     OW 2537   2.879   1.901   0.753
  834SOL    HW1 2538   2.807   1.906   0.684
  834SOL    HW2 2539   2.855   1.832   0.822
  835SOL     OW 2540   2.389   2.118   0.328
  835SOL    HW1 2541   2.416   2.059   0.253
  835SOL    HW2 2542   2.389   2.213   0.297
  836SOL     OW 2543   2.777   1.951   1.402
  836SOL    HW1 2544   2.802   1.931   1.307
  836SOL    HW2 2545   2.849   2.007   1.444
  837SOL     OW 2546   2.567   2.912   0.368
  837SOL    HW1 2547   2.553   2.919   0.467
  837SOL    HW2 2548   2.651   2.861   0.350
  838SOL     OW 2549   2.272   2.675   1.251
  838SOL    HW1 2550   2.358   2.687   1.301
  838SOL    HW2 2551   2.230   2.588   1.278
  839SOL     OW 2552   2.229   2.962   0.501
  839SOL    HW1 2553   2.222   3.045   0.445
  839SOL    HW2 2554   2.233   2.882   0.441
  840SOL     OW 2555   2.428   2.399   0.865
  840SOL    HW1 2556   2.440   2.465   0.791
  840SOL    HW2 2557   2.474   2.433   0.948
  841SOL     OW 2558   2.264   2.613   1.598
  841SOL    HW1 2559   2.332   2.668   1.551
  841SOL    HW2 2560   2.304   2.525   1.625
  842SOL     OW 2561   2.875   1.967   1.770
  842SOL    HW1 2562   2.881   2.052   1.718
  842SOL    HW2 2563   2.907   1.891   1.713
  843SOL     OW 2564   2.366   1.912   1.740
  843SOL    HW1 2565   2.324   1.855   1.670
  843SOL    HW2 2566   2.300   1.981   1.772
  844SOL     OW 2567   2.435   2.732   1.029
  844SOL    HW1 2568   2.479   2.821   1.020
  844SOL    HW2 2569   2.372   2.732   1.106
  845SOL     OW 2570   3.222   2.724   1.045
  845SOL    HW1 2571   3.147   2.724   0.979
  845SOL    HW2 2572   3.259   2.632   1.054
  846SOL     OW 2573   3.071   2.387   0.275
  846SOL    HW1 2574   3.084   2.303   0.329
  846SOL    HW2 2575   3.042   2.461   0.335
  847SOL     OW 2576   2.169   2.075   1.231
  847SOL    HW1 2577   2.146   2.112   1.321
  847SOL    HW2 2578   2.139   1.980   1.225
  848SOL     OW 2579   2.594   2.496   1.064
  848SOL    HW1 2580   2.653   2.470   0.988
  848SOL    HW2 2581   2.566   2.592   1.053
  849SOL     OW 2582   2.169   1.925   0.618
  849SOL    HW1 2583   2.158   2.019   0.651
  849SOL    HW2 2584   2.164   1.862   0.695
  850SOL     OW 2585   2.885   2.628   0.966
  850SOL    HW1 2586   2.900   2.649   1.062
  850SOL    HW2 2587   2.855   2.533   0.957
  851SOL     OW 2588   2.212   2.760   1.804
  851SOL    HW1 2589   2.288   2.804   1.852
  851SOL    HW2 2590   2.247   2.713   1.722
  852SOL     OW 2591   2.181   2.672   0.949
  852SOL    HW1 2592   2.274   2.708   0.954
  852SOL    HW2 2593   2.175   2.587   1.001
  853SOL     OW 2594   2.201   2.371   1.006
  853SOL    HW1 2595   2.149   2.288   0.989
  853SOL    HW2 2596   2.278   2.376   0.942
  854SOL     OW 2597   3.000   2.242   1.678
  854SOL    HW1 2598   2.955   2.305   1.742
  854SOL    HW2 2599   3.093   2.273   1.661
  855SOL     OW 2600   3.022   2.069   1.477
  855SOL    HW1 2601   3.022   2.133   1.554
  855SOL    HW2 2602   3.050   2.117   1.394
  856SOL     OW 2603   2.864   2.658   1.238
  856SOL    HW1 2604   2.905   2.626   1.324
  856SOL    HW2 2605   2.768   2.631   1.235
  857SOL     OW 2606   1.902   2.406   1.114
  857SOL    HW1 2607   1.987   2.373   1.073
  857SOL    HW2 2608   1.915   2.421   1.212
  858SOL     OW 2609   2.051   2.382   1.722
  858SOL    HW1 2610   2.110   2.342   1.652
  858SOL    HW2 2611   1.993   2.453   1.681
  859SOL     OW 2612   2.677   2.434   0.325
  859SOL    HW1 2613   2.684   2.345   0.279
  859SOL    HW2 2614   2.583   2.468   0.317
  860SOL     OW 2615   2.533   2.326   1.269
  860SOL    HW1 2616   2.499   2.237   1.239
  860SOL    HW2 2617   2.559   2.380   1.189
  861SOL     OW 2618   2.335   2.362   0.191
  861SOL    HW1 2619   2.396   2.442   0.195
  861SOL    HW2 2620   2.240   2.393   0.198
  862SOL     OW 2621   2.021   2.999   1.466
  862SOL    HW1 2622   2.043   2.938   1.542
  862SOL    HW2 2623   2.031   2.950   1.380
  863SOL     OW 2624   3.164   2.717   0.309
  863SOL    HW1 2625   3.078   2.686   0.351
  863SOL    HW2 2626   3.160   2.703   0.210
  864SOL     OW 2627   2.765   1.948   0.133
  864SOL    HW1 2628   2.816   1.949   0.047
  864SOL    HW2 2629   2.821   1.906   0.204
  865SOL     OW 2630   2.125   2.188   0.720
  865SOL    HW1 2631   2.046   2.239   0.686
  865SOL    HW2 2632   2.116   2.173   0.818
  866SOL     OW 2633   2.684   2.864   1.372
  866SOL    HW1 2634   2.724   2.863   1.280
  866SOL    HW2 2635   2.694   2.956   1.412
  867SOL     OW 2636   2.778   2.772   0.291
  867SOL    HW1 2637   2.841   2.810   0.223
  867SOL    HW2 2638   2.818   2.689   0.330
  868SOL     OW 2639   2.234   3.150   1.490
  868SOL    HW1 2640   2.221   3.243   1.456
  868SOL    HW2 2641   2.150   3.098   1.477
  869SOL     OW 2642   2.876   2.098   0.971
  869SOL    HW1 2643   2.868   2.062   0.878
  869SOL    HW2 2644   2.874   2.022   1.036
  870SOL     OW 2645   1.967   2.875   1.726
  870SOL    HW1 2646   1.890   2.842   1.780
  870SOL    HW2 2647   2.052   2.845   1.768
  871SOL     OW 2648   2.534   2.065   1.489
  871SOL    HW1 2649   2.624   2.049   1.449
  871SOL    HW2 2650   2.542   2.070   1.588
  872SOL     OW 2651   1.934   2.028   0.318
  872SOL    HW1 2652   1.917   2.111   0.264
  872SOL    HW2 2653   2.024   1.991   0.296
  873SOL     OW 2654   2.475   2.704   1.431
  873SOL    HW1 2655   2.531   2.785   1.414
  873SOL    HW2 2656   2.534   2.624   1.434
  874SOL     OW 2657   2.578   2.427   1.708
  874SOL    HW1 2658   2.597   2.492   1.782
  874SOL    HW2 2659   2.638   2.347   1.717
  875SOL     OW 2660   2.456   2.607   0.652
  875SOL    HW1 2661   2.506   2.692   0.633
  875SOL    HW2 2662   2.368   2.609   0.604
  876SOL     OW 2663   2.721   2.818   0.861
  876SOL    HW1 2664   2.775   2.749   0.909
  876SOL    HW2 2665   2.689   2.887   0.927
  877SOL     OW 2666   2.945   2.846   0.087
  877SOL    HW1 2667   2.922   2.899   0.005
  877SOL    HW2 2668   3.026   2.790   0.068
  878SOL     OW 2669   1.941   3.102   0.653
  878SOL    HW1 2670   1.940   3.055   0.741
  878SOL    HW2 2671   2.023   3.074   0.602
  879SOL     OW 2672   2.290   2.286   0.520
  879SOL    HW1 2673   2.320   2.214   0.458
  879SOL    HW2 2674   2.251   2.246   0.603
  880SOL     OW 2675   2.179   2.409   1.280
  880SOL    HW1 2676   2.217   2.350   1.352
  880SOL    HW2 2677   2.219   2.383   1.192
  881SOL     OW 2678   2.863   1.896   1.154
  881SOL    HW1 2679   2.800   1.824   1.123
  881SOL    HW2 2680   2.956   1.860   1.154
  882SOL     OW 2681   2.632   3.192   0.301
  882SOL    HW1 2682   2.586   3.105   0.318
  882SOL    HW2 2683   2.723   3.189   0.342
  883SOL     OW 2684   2.092   2.490   1.975
  883SOL    HW1 2685   1.999   2.488   2.012
  883SOL    HW2 2686   2.093   2.451   1.883
  884SOL     OW 2687   2.087   2.137   2.858
  884SOL    HW1 2688   2.122   2.120   2.950
  884SOL    HW2 2689   1.999   2.092   2.846
  885SOL     OW 2690   1.881   2.230   2.509
  885SOL    HW1 2691   1.799   2.273   2.548
  885SOL    HW2 2692   1.853   2.157   2.446
  886SOL     OW 2693   2.630   3.006   2.885
  886SOL    HW1 2694   2.552   3.023   2.945
  886SOL    HW2 2695   2.664   3.093   2.849
  887SOL     OW 2696   2.547   2.874   2.527
  887SOL    HW1 2697   2.616   2.858   2.597
  887SOL    HW2 2698   2.474   2.931   2.565
  888SOL     OW 2699   2.102   2.953   2.748
  888SOL    HW1 2700   2.116   2.869   2.800
  888SOL    HW2 2701   2.047   3.017   2.803
  889SOL     OW 2702   2.468   2.826   1.985
  889SOL    HW1 2703   2.475   2.910   1.931
  889SOL    HW2 2704   2.514   2.839   2.073
  890SOL     OW 2705   1.984   2.505   2.425
  890SOL    HW1 2706   1.939   2.417   2.442
  890SOL    HW2 2707   1.983   2.559   2.509
  891SOL     OW 2708   2.475   3.227   2.588
  891SOL    HW1 2709   2.426   3.140   2.597
  891SOL    HW2 2710   2.452   3.270   2.501
  892SOL     OW 2711   2.671   1.866   2.364
  892SOL    HW1 2712   2.711   1.957   2.355
  892SOL    HW2 2713   2.571   1.874   2.370
  893SOL     OW 2714   2.059   2.838   3.126
  893SOL    HW1 2715   2.148   2.793   3.112
  893SOL    HW2 2716   1.986   2.773   3.107
  894SOL     OW 2717   2.460   2.591   2.132
  894SOL    HW1 2718   2.484   2.660   2.064
  894SOL    HW2 2719   2.382   2.624   2.186
  895SOL     OW 2720   2.903   2.563   2.291
  895SOL    HW1 2721   2.929   2.559   2.387
  895SOL    HW2 2722   2.818   2.512   2.277
  896SOL     OW 2723   1.938   2.673   2.651
  896SOL    HW1 2724   2.037   2.661   2.660
  896SOL    HW2 2725   1.914   2.768   2.672
  897SOL     OW 2726   2.727   2.210   2.057
  897SOL    HW1 2727   2.786   2.273   2.008
  897SOL    HW2 2728   2.746   2.116   2.028
  898SOL     OW 2729   2.412   2.058   2.747
  898SOL    HW1 2730   2.407   2.053   2.847
  898SOL    HW2 2731   2.414   2.154   2.718
  899SOL     OW 2732   2.183   2.805   2.104
  899SOL    HW1 2733   2.265   2.844   2.062
  899SOL    HW2 2734   2.156   2.723   2.055
  900SOL     OW 2735   2.244   2.562   2.342
  900SOL    HW1 2736   2.289   2.472   2.339
  900SOL    HW2 2737   2.150   2.551   2.375
  901SOL     OW 2738   2.476   1.984   1.979
  901SOL    HW1 2739   2.574   1.962   1.986
  901SOL    HW2 2740   2.445   1.967   1.886
  902SOL     OW 2741   2.750   3.376   3.057
  902SOL    HW1 2742   2.727   3.351   2.963
  902SOL    HW2 2743   2.811   3.307   3.096
  903SOL     OW 2744   2.784   2.365   2.761
  903SOL    HW1 2745   2.759   2.356   2.665
  903SOL    HW2 2746   2.832   2.283   2.792
  904SOL     OW 2747   2.401   1.926   2.374
  904SOL    HW1 2748   2.320   1.927   2.432
  904SOL    HW2 2749   2.404   2.009   2.319
  905SOL     OW 2750   2.159   1.897   2.033
  905SOL    HW1 2751   2.208   1.981   2.012
  905SOL    HW2 2752   2.221   1.832   2.078
  906SOL     OW 2753   2.797   2.098   2.342
  906SOL    HW1 2754   2.749   2.139   2.264
  906SOL    HW2 2755   2.896   2.096   2.323
  907SOL     OW 2756   2.321   3.014   2.603
  907SOL    HW1 2757   2.250   2.987   2.668
  907SOL    HW2 2758   2.295   2.986   2.510
  908SOL     OW 2759   2.894   2.411   1.878
  908SOL    HW1 2760   2.853   2.493   1.839
  908SOL    HW2 2761   2.958   2.437   1.951
  909SOL     OW 2762   2.728   2.316   2.504
  909SOL    HW1 2763   2.696   2.388   2.442
  909SOL    HW2 2764   2.752   2.235   2.451
  910SOL     OW 2765   2.879   1.901   2.615
  910SOL    HW1 2766   2.807   1.906   2.546
  910SOL    HW2 2767   2.855   1.832   2.684
  911SOL     OW 2768   2.389   2.118   2.190
  911SOL    HW1 2769   2.416   2.059   2.115
  911SOL    HW2 2770   2.389   2.213   2.159
  912SOL     OW 2771   2.973   3.057   2.962
  912SOL    HW1 2772   2.933   3.101   3.043
  912SOL    HW2 2773   2.932   3.094   2.879
  913SOL     OW 2774   2.567   2.912   2.230
  913SOL    HW1 2775   2.553   2.919   2.329
  913SOL    HW2 2776   2.651   2.861   2.212
  914SOL     OW 2777   2.272   2.675   3.113
  914SOL    HW1 2778   2.358   2.687   3.163
  914SOL    HW2 2779   2.230   2.588   3.140
  915SOL     OW 2780   2.229   2.962   2.363
  915SOL    HW1 2781   2.222   3.045   2.307
  915SOL    HW2 2782   2.233   2.882   2.303
  916SOL     OW 2783   2.428   2.399   2.727
  916SOL    HW1 2784   2.440   2.465   2.653
  916SOL    HW2 2785   2.474   2.433   2.810
  917SOL     OW 2786   2.435   2.732   2.891
  917SOL    HW1 2787   2.479   2.821   2.882
  917SOL    HW2 2788   2.372   2.732   2.968
  918SOL     OW 2789   3.222   2.724   2.907
  918SOL    HW1 2790   3.147   2.724   2.841
  918SOL    HW2 2791   3.259   2.632   2.916
  919SOL     OW 2792   3.071   2.387   2.137
  919SOL    HW1 2793   3.084   2.303   2.191
  919SOL    HW2 2794   3.042   2.461   2.197
  920SOL     OW 2795   2.169   2.075   3.093
  920SOL    HW1 2796   2.146   2.112   3.183
  920SOL    HW2 2797   2.139   1.980   3.087
  921SOL     OW 2798   2.594   2.496   2.926
  921SOL    HW1 2799   2.653   2.470   2.850
  921SOL    HW2 2800   2.566   2.592   2.915
  922SOL     OW 2801   2.169   1.925   2.480
  922SOL    HW1 2802   2.158   2.019   2.513
  922SOL    HW2 2803   2.164   1.862   2.557
  923SOL     OW 2804   2.885   2.628   2.828
  923SOL    HW1 2805   2.900   2.649   2.924
  923SOL    HW2 2806   2.855   2.533   2.819
  924SOL     OW 2807   3.165   2.700   1.904
  924SOL    HW1 2808   3.199   2.607   1.919
  924SOL    HW2 2809   3.183   2.727   1.809
  925SOL     OW 2810   2.181   2.672   2.811
  925SOL    HW1 2811   2.274   2.708   2.816
  925SOL    HW2 2812   2.175   2.587   2.863
  926SOL     OW 2813   2.201   2.371   2.868
  926SOL    HW1 2814   2.149   2.288   2.851
  926SOL    HW2 2815   2.278   2.376   2.804
  927SOL     OW 2816   2.864   2.658   3.100
  927SOL    HW1 2817   2.905   2.626   3.186
  927SOL    HW2 2818   2.768   2.631   3.097
  928SOL     OW 2819   1.902   2.406   2.976
  928SOL    HW1 2820   1.987   2.373   2.935
  928SOL    HW2 2821   1.915   2.421   3.074
  929SOL     OW 2822   2.677   2.434   2.187
  929SOL    HW1 2823   2.684   2.345   2.141
  929SOL    HW2 2824   2.583   2.468   2.179
  930SOL     OW 2825   2.533   2.326   3.131
  930SOL    HW1 2826   2.499   2.237   3.101
  930SOL    HW2 2827   2.559   2.380   3.051
  931SOL     OW 2828   2.335   2.362   2.053
  931SOL    HW1 2829   2.396   2.442   2.057
  931SOL    HW2 2830   2.240   2.393   2.060
  932SOL     OW 2831   2.021   2.999   3.328
  932SOL    HW1 2832   2.043   2.938   3.404
  932SOL    HW2 2833   2.031   2.950   3.242
  933SOL     OW 2834   3.164   2.717   2.171
  933SOL    HW1 2835   3.078   2.686   2.213
  933SOL    HW2 2836   3.160   2.703   2.072
  934SOL     OW 2837   2.125   2.188   2.582
  934SOL    HW1 2838   2.046   2.239   2.548
  934SOL    HW2 2839   2.116   2.173   2.680
  935SOL     OW 2840   2.684   2.864   3.234
  935SOL    HW1 2841   2.724   2.863   3.142
  935SOL    HW2 2842   2.694   2.956   3.274
  936SOL     OW 2843   2.778   2.772   2.153
  936SOL    HW1 2844   2.841   2.810   2.085
  936SOL    HW2 2845   2.818   2.689   2.192
  937SOL     OW 2846   2.876   2.098   2.833
  937SOL    HW1 2847   2.868   2.062   2.740
  937SOL    HW2 2848   2.874   2.022   2.898
  938SOL     OW 2849   1.937   2.207   1.895
  938SOL    HW1 2850   1.845   2.179   1.866
  938SOL    HW2 2851   1.968   2.284   1.839
  939SOL     OW 2852   1.934   2.028   2.180
  939SOL    HW1 2853   1.917   2.111   2.126
  939SOL    HW2 2854   2.024   1.991   2.158
  940SOL     OW 2855   2.456   2.607   2.514
  940SOL    HW1 2856   2.506   2.692   2.495
  940SOL    HW2 2857   2.368   2.609   2.466
  941SOL     OW 2858   2.721   2.818   2.723
  941SOL    HW1 2859   2.775   2.749   2.771
  941SOL    HW2 2860   2.689   2.887   2.789
  942SOL     OW 2861   2.945   2.846   1.949
  942SOL    HW1 2862   2.922   2.899   1.867
  942SOL    HW2 2863   3.026   2.790   1.930
  943SOL     OW 2864   1.941   3.102   2.515
  943SOL    HW1 2865   1.940   3.055   2.603
  943SOL    HW2 2866   2.023   3.074   2.464
  944SOL     OW 2867   2.290   2.286   2.382
  944SOL    HW1 2868   2.320   2.214   2.320
  944SOL    HW2 2869   2.251   2.246   2.465
  945SOL     OW 2870   2.632   3.192   2.163
  945SOL    HW1 2871   2.586   3.105   2.180
  945SOL    HW2 2872   2.723   3.189   2.204
  946SOL     OW 2873   1.901   2.939   2.162
  946SOL    HW1 2874   2.000   2.928   2.153
  946SOL    HW2 2875   1.861   2.853   2.194
   3.07519   3.07519   3.07519
