; mobley_2492140_GMX.itp created by acpype (v: 2023.10.27) on Thu May 14 13:42:50 2026

[ atomtypes ]
;name   bond_type     mass     charge   ptype   sigma         epsilon       Amb
 c3       c3          0.00000  0.00000   A     3.39771e-01   4.51035e-01 ; 1.91  0.1078
 cl       cl          0.00000  0.00000   A     3.46595e-01   1.10374e+00 ; 1.95  0.2638
 h2       h2          0.00000  0.00000   A     2.24382e-01   8.70272e-02 ; 1.26  0.0208

[ moleculetype ]
;name            nrexcl
 mobley_2492140   3

[ atoms ]
;   nr  type  resi  res  atom  cgnr     charge      mass       ; qtot   bond_type
     1   c3     1   MOL    C1    1     0.117100     12.01000 ; qtot 0.117
     2   c3     1   MOL    C2    2     0.228201     12.01000 ; qtot 0.345
     3   cl     1   MOL   CL1    3    -0.102400     35.45000 ; qtot 0.243
     4   cl     1   MOL   CL2    4    -0.102400     35.45000 ; qtot 0.141
     5   cl     1   MOL   CL3    5    -0.088067     35.45000 ; qtot 0.052
     6   cl     1   MOL   CL4    6    -0.088067     35.45000 ; qtot -0.036
     7   cl     1   MOL   CL5    7    -0.088067     35.45000 ; qtot -0.124
     8   h2     1   MOL    H1    8     0.123700      1.00800 ; qtot -0.000

[ bonds ]
;   ai     aj funct   r             k
     1      2   1    1.5354e-01    1.9154e+05 ;     C1 - C2    
     1      3   1    1.8092e-01    1.3724e+05 ;     C1 - CL1   
     1      4   1    1.8092e-01    1.3724e+05 ;     C1 - CL2   
     1      8   1    1.0950e-01    2.9039e+05 ;     C1 - H1    
     2      5   1    1.8092e-01    1.3724e+05 ;     C2 - CL3   
     2      6   1    1.8092e-01    1.3724e+05 ;     C2 - CL4   
     2      7   1    1.8092e-01    1.3724e+05 ;     C2 - CL5   

[ pairs ]
;   ai     aj    funct
     3      5      1 ;    CL1 - CL3   
     3      6      1 ;    CL1 - CL4   
     3      7      1 ;    CL1 - CL5   
     4      5      1 ;    CL2 - CL3   
     4      6      1 ;    CL2 - CL4   
     4      7      1 ;    CL2 - CL5   
     8      5      1 ;     H1 - CL3   
     8      6      1 ;     H1 - CL4   
     8      7      1 ;     H1 - CL5   

[ angles ]
;   ai     aj     ak    funct   theta         cth
     1      2      5      1    1.1039e+02    5.3254e+02 ;     C1 - C2     - CL3   
     1      2      6      1    1.1039e+02    5.3254e+02 ;     C1 - C2     - CL4   
     1      2      7      1    1.1039e+02    5.3254e+02 ;     C1 - C2     - CL5   
     2      1      3      1    1.1039e+02    5.3254e+02 ;     C2 - C1     - CL1   
     2      1      4      1    1.1039e+02    5.3254e+02 ;     C2 - C1     - CL2   
     2      1      8      1    1.1042e+02    3.6091e+02 ;     C2 - C1     - H1    
     3      1      4      1    1.0934e+02    5.8225e+02 ;    CL1 - C1     - CL2   
     3      1      8      1    1.0706e+02    3.6133e+02 ;    CL1 - C1     - H1    
     4      1      8      1    1.0706e+02    3.6133e+02 ;    CL2 - C1     - H1    
     5      2      6      1    1.0934e+02    5.8225e+02 ;    CL3 - C2     - CL4   
     5      2      7      1    1.0934e+02    5.8225e+02 ;    CL3 - C2     - CL5   
     6      2      7      1    1.0934e+02    5.8225e+02 ;    CL4 - C2     - CL5   

[ dihedrals ] ; propers
; for gromacs 4.5 or higher, using funct 9
;    i      j      k      l   func   phase     kd      pn
     3      1      2      5      9     0.00   5.94128   3 ;    CL1-    C1-    C2-   CL3
     3      1      2      6      9     0.00   5.94128   3 ;    CL1-    C1-    C2-   CL4
     3      1      2      7      9     0.00   5.94128   3 ;    CL1-    C1-    C2-   CL5
     4      1      2      5      9     0.00   5.94128   3 ;    CL2-    C1-    C2-   CL3
     4      1      2      6      9     0.00   5.94128   3 ;    CL2-    C1-    C2-   CL4
     4      1      2      7      9     0.00   5.94128   3 ;    CL2-    C1-    C2-   CL5
     8      1      2      5      9     0.00   0.65084   3 ;     H1-    C1-    C2-   CL3
     8      1      2      6      9     0.00   0.65084   3 ;     H1-    C1-    C2-   CL4
     8      1      2      7      9     0.00   0.65084   3 ;     H1-    C1-    C2-   CL5
