; mobley_9565165_GMX.itp created by acpype (v: 2023.10.27) on Thu May 14 13:43:32 2026

[ atomtypes ]
;name   bond_type     mass     charge   ptype   sigma         epsilon       Amb
 ca       ca          0.00000  0.00000   A     3.31521e-01   4.13379e-01 ; 1.86  0.0988
 cp       cp          0.00000  0.00000   A     3.31521e-01   4.13379e-01 ; 1.86  0.0988
 c5       c5          0.00000  0.00000   A     3.39771e-01   4.51035e-01 ; 1.91  0.1078
 ha       ha          0.00000  0.00000   A     2.62548e-01   6.73624e-02 ; 1.47  0.0161
 hc       hc          0.00000  0.00000   A     2.60018e-01   8.70272e-02 ; 1.46  0.0208

[ moleculetype ]
;name            nrexcl
 mobley_9565165   3

[ atoms ]
;   nr  type  resi  res  atom  cgnr     charge      mass       ; qtot   bond_type
     1   ca     1   MOL    C1    1    -0.133000     12.01000 ; qtot -0.133
     2   ca     1   MOL    C2    2    -0.133000     12.01000 ; qtot -0.266
     3   ca     1   MOL    C3    3    -0.126000     12.01000 ; qtot -0.392
     4   ca     1   MOL    C4    4    -0.126000     12.01000 ; qtot -0.518
     5   ca     1   MOL    C5    5    -0.104000     12.01000 ; qtot -0.622
     6   ca     1   MOL    C6    6    -0.104000     12.01000 ; qtot -0.726
     7   ca     1   MOL    C7    7    -0.118000     12.01000 ; qtot -0.844
     8   ca     1   MOL    C8    8    -0.118000     12.01000 ; qtot -0.962
     9   cp     1   MOL    C9    9    -0.041000     12.01000 ; qtot -1.003
    10   cp     1   MOL   C10   10    -0.041000     12.01000 ; qtot -1.044
    11   ca     1   MOL   C11   11    -0.084300     12.01000 ; qtot -1.128
    12   ca     1   MOL   C12   12    -0.084300     12.01000 ; qtot -1.213
    13   c5     1   MOL   C13   13     0.005200     12.01000 ; qtot -1.207
    14   ha     1   MOL    H1   14     0.131000      1.00800 ; qtot -1.076
    15   ha     1   MOL    H2   15     0.131000      1.00800 ; qtot -0.945
    16   ha     1   MOL    H3   16     0.131000      1.00800 ; qtot -0.814
    17   ha     1   MOL    H4   17     0.131000      1.00800 ; qtot -0.683
    18   ha     1   MOL    H5   18     0.135000      1.00800 ; qtot -0.548
    19   ha     1   MOL    H6   19     0.135000      1.00800 ; qtot -0.413
    20   ha     1   MOL    H7   20     0.134000      1.00800 ; qtot -0.279
    21   ha     1   MOL    H8   21     0.134000      1.00800 ; qtot -0.145
    22   hc     1   MOL    H9   22     0.072700      1.00800 ; qtot -0.073
    23   hc     1   MOL   H10   23     0.072700      1.00800 ; qtot 0.000

[ bonds ]
;   ai     aj funct   r             k
     1      3   1    1.3986e-01    2.9644e+05 ;     C1 - C3    
     1      5   1    1.3986e-01    2.9644e+05 ;     C1 - C5    
     1     14   1    1.0860e-01    3.0183e+05 ;     C1 - H1    
     2      4   1    1.3986e-01    2.9644e+05 ;     C2 - C4    
     2      6   1    1.3986e-01    2.9644e+05 ;     C2 - C6    
     2     15   1    1.0860e-01    3.0183e+05 ;     C2 - H2    
     3      7   1    1.3986e-01    2.9644e+05 ;     C3 - C7    
     3     16   1    1.0860e-01    3.0183e+05 ;     C3 - H3    
     4      8   1    1.3986e-01    2.9644e+05 ;     C4 - C8    
     4     17   1    1.0860e-01    3.0183e+05 ;     C4 - H4    
     5      9   1    1.4056e-01    2.8959e+05 ;     C5 - C9    
     5     18   1    1.0860e-01    3.0183e+05 ;     C5 - H5    
     6     10   1    1.4056e-01    2.8959e+05 ;     C6 - C10   
     6     19   1    1.0860e-01    3.0183e+05 ;     C6 - H6    
     7     11   1    1.3986e-01    2.9644e+05 ;     C7 - C11   
     7     20   1    1.0860e-01    3.0183e+05 ;     C7 - H7    
     8     12   1    1.3986e-01    2.9644e+05 ;     C8 - C12   
     8     21   1    1.0860e-01    3.0183e+05 ;     C8 - H8    
     9     10   1    1.4829e-01    2.2541e+05 ;     C9 - C10   
     9     11   1    1.4056e-01    2.8959e+05 ;     C9 - C11   
    10     12   1    1.4056e-01    2.8959e+05 ;    C10 - C12   
    11     13   1    1.5151e-01    2.0384e+05 ;    C11 - C13   
    12     13   1    1.5151e-01    2.0384e+05 ;    C12 - C13   
    13     22   1    1.0954e-01    2.8989e+05 ;    C13 - H9    
    13     23   1    1.0954e-01    2.8989e+05 ;    C13 - H10   

[ pairs ]
;   ai     aj    funct
     1     10      1 ;     C1 - C10   
     1     11      1 ;     C1 - C11   
     1     20      1 ;     C1 - H7    
     2      9      1 ;     C2 - C9    
     2     12      1 ;     C2 - C12   
     2     21      1 ;     C2 - H8    
     3      9      1 ;     C3 - C9    
     3     13      1 ;     C3 - C13   
     3     18      1 ;     C3 - H5    
     4     10      1 ;     C4 - C10   
     4     13      1 ;     C4 - C13   
     4     19      1 ;     C4 - H6    
     5      6      1 ;     C5 - C6    
     5      7      1 ;     C5 - C7    
     5     12      1 ;     C5 - C12   
     5     13      1 ;     C5 - C13   
     5     16      1 ;     C5 - H3    
     6      8      1 ;     C6 - C8    
     6     11      1 ;     C6 - C11   
     6     13      1 ;     C6 - C13   
     6     17      1 ;     C6 - H4    
     7     10      1 ;     C7 - C10   
     7     12      1 ;     C7 - C12   
     7     22      1 ;     C7 - H9    
     7     23      1 ;     C7 - H10   
     8      9      1 ;     C8 - C9    
     8     11      1 ;     C8 - C11   
     8     15      1 ;     C8 - H2    
     8     22      1 ;     C8 - H9    
     8     23      1 ;     C8 - H10   
     9     19      1 ;     C9 - H6    
     9     20      1 ;     C9 - H7    
     9     22      1 ;     C9 - H9    
     9     23      1 ;     C9 - H10   
    10     15      1 ;    C10 - H2    
    10     18      1 ;    C10 - H5    
    10     21      1 ;    C10 - H8    
    10     22      1 ;    C10 - H9    
    10     23      1 ;    C10 - H10   
    11     16      1 ;    C11 - H3    
    11     18      1 ;    C11 - H5    
    12     17      1 ;    C12 - H4    
    12     19      1 ;    C12 - H6    
    13     20      1 ;    C13 - H7    
    13     21      1 ;    C13 - H8    
    14      7      1 ;     H1 - C7    
    14      9      1 ;     H1 - C9    
    14     16      1 ;     H1 - H3    
    14     18      1 ;     H1 - H5    
    15     17      1 ;     H2 - H4    
    15     19      1 ;     H2 - H6    
    16     20      1 ;     H3 - H7    
    17     21      1 ;     H4 - H8    

[ angles ]
;   ai     aj     ak    funct   theta         cth
     1      3      7      1    1.2002e+02    5.3279e+02 ;     C1 - C3     - C7    
     1      3     16      1    1.1988e+02    3.7572e+02 ;     C1 - C3     - H3    
     1      5      9      1    1.2073e+02    5.2995e+02 ;     C1 - C5     - C9    
     1      5     18      1    1.1988e+02    3.7572e+02 ;     C1 - C5     - H5    
     2      4      8      1    1.2002e+02    5.3279e+02 ;     C2 - C4     - C8    
     2      4     17      1    1.1988e+02    3.7572e+02 ;     C2 - C4     - H4    
     2      6     10      1    1.2073e+02    5.2995e+02 ;     C2 - C6     - C10   
     2      6     19      1    1.1988e+02    3.7572e+02 ;     C2 - C6     - H6    
     3      1      5      1    1.2002e+02    5.3279e+02 ;     C3 - C1     - C5    
     3      1     14      1    1.1988e+02    3.7572e+02 ;     C3 - C1     - H1    
     3      7     11      1    1.2002e+02    5.3279e+02 ;     C3 - C7     - C11   
     3      7     20      1    1.1988e+02    3.7572e+02 ;     C3 - C7     - H7    
     4      2      6      1    1.2002e+02    5.3279e+02 ;     C4 - C2     - C6    
     4      2     15      1    1.1988e+02    3.7572e+02 ;     C4 - C2     - H2    
     4      8     12      1    1.2002e+02    5.3279e+02 ;     C4 - C8     - C12   
     4      8     21      1    1.1988e+02    3.7572e+02 ;     C4 - C8     - H8    
     5      1     14      1    1.1988e+02    3.7572e+02 ;     C5 - C1     - H1    
     5      9     10      1    1.2110e+02    5.1296e+02 ;     C5 - C9     - C10   
     5      9     11      1    1.1841e+02    5.3379e+02 ;     C5 - C9     - C11   
     6      2     15      1    1.1988e+02    3.7572e+02 ;     C6 - C2     - H2    
     6     10      9      1    1.2110e+02    5.1296e+02 ;     C6 - C10    - C9    
     6     10     12      1    1.1841e+02    5.3379e+02 ;     C6 - C10    - C12   
     7      3     16      1    1.1988e+02    3.7572e+02 ;     C7 - C3     - H3    
     7     11      9      1    1.2073e+02    5.2995e+02 ;     C7 - C11    - C9    
     7     11     13      1    1.2187e+02    5.0601e+02 ;     C7 - C11    - C13   
     8      4     17      1    1.1988e+02    3.7572e+02 ;     C8 - C4     - H4    
     8     12     10      1    1.2073e+02    5.2995e+02 ;     C8 - C12    - C10   
     8     12     13      1    1.2187e+02    5.0601e+02 ;     C8 - C12    - C13   
     9      5     18      1    1.1982e+02    3.7430e+02 ;     C9 - C5     - H5    
     9     10     12      1    1.2110e+02    5.1296e+02 ;     C9 - C10    - C12   
     9     11     13      1    1.1021e+02    5.3103e+02 ;     C9 - C11    - C13   
    10      6     19      1    1.1982e+02    3.7430e+02 ;    C10 - C6     - H6    
    10      9     11      1    1.2110e+02    5.1296e+02 ;    C10 - C9     - C11   
    10     12     13      1    1.1021e+02    5.3103e+02 ;    C10 - C12    - C13   
    11      7     20      1    1.1988e+02    3.7572e+02 ;    C11 - C7     - H7    
    11     13     12      1    1.1252e+02    5.0802e+02 ;    C11 - C13    - C12   
    11     13     22      1    1.1160e+02    3.6334e+02 ;    C11 - C13    - H9    
    11     13     23      1    1.1160e+02    3.6334e+02 ;    C11 - C13    - H10   
    12      8     21      1    1.1988e+02    3.7572e+02 ;    C12 - C8     - H8    
    12     13     22      1    1.1160e+02    3.6334e+02 ;    C12 - C13    - H9    
    12     13     23      1    1.1160e+02    3.6334e+02 ;    C12 - C13    - H10   
    22     13     23      1    1.0722e+02    3.0049e+02 ;     H9 - C13    - H10   

[ dihedrals ] ; propers
; for gromacs 4.5 or higher, using funct 9
;    i      j      k      l   func   phase     kd      pn
     1      3      7     11      9   180.00  15.16700   2 ;     C1-    C3-    C7-   C11
     1      3      7     20      9   180.00  15.16700   2 ;     C1-    C3-    C7-    H7
     1      5      9     10      9   180.00  15.16700   2 ;     C1-    C5-    C9-   C10
     1      5      9     11      9   180.00  15.16700   2 ;     C1-    C5-    C9-   C11
     2      4      8     12      9   180.00  15.16700   2 ;     C2-    C4-    C8-   C12
     2      4      8     21      9   180.00  15.16700   2 ;     C2-    C4-    C8-    H8
     2      6     10      9      9   180.00  15.16700   2 ;     C2-    C6-   C10-    C9
     2      6     10     12      9   180.00  15.16700   2 ;     C2-    C6-   C10-   C12
     3      1      5      9      9   180.00  15.16700   2 ;     C3-    C1-    C5-    C9
     3      1      5     18      9   180.00  15.16700   2 ;     C3-    C1-    C5-    H5
     3      7     11      9      9   180.00  15.16700   2 ;     C3-    C7-   C11-    C9
     3      7     11     13      9   180.00  15.16700   2 ;     C3-    C7-   C11-   C13
     4      2      6     10      9   180.00  15.16700   2 ;     C4-    C2-    C6-   C10
     4      2      6     19      9   180.00  15.16700   2 ;     C4-    C2-    C6-    H6
     4      8     12     10      9   180.00  15.16700   2 ;     C4-    C8-   C12-   C10
     4      8     12     13      9   180.00  15.16700   2 ;     C4-    C8-   C12-   C13
     5      1      3      7      9   180.00  15.16700   2 ;     C5-    C1-    C3-    C7
     5      1      3     16      9   180.00  15.16700   2 ;     C5-    C1-    C3-    H3
     5      9     10      6      9   180.00   3.20076   2 ;     C5-    C9-   C10-    C6
     5      9     10     12      9   180.00   3.20076   2 ;     C5-    C9-   C10-   C12
     5      9     11      7      9   180.00  15.16700   2 ;     C5-    C9-   C11-    C7
     5      9     11     13      9   180.00  15.16700   2 ;     C5-    C9-   C11-   C13
     6      2      4      8      9   180.00  15.16700   2 ;     C6-    C2-    C4-    C8
     6      2      4     17      9   180.00  15.16700   2 ;     C6-    C2-    C4-    H4
     6     10      9     11      9   180.00   3.20076   2 ;     C6-   C10-    C9-   C11
     6     10     12      8      9   180.00  15.16700   2 ;     C6-   C10-   C12-    C8
     6     10     12     13      9   180.00  15.16700   2 ;     C6-   C10-   C12-   C13
     7     11      9     10      9   180.00  15.16700   2 ;     C7-   C11-    C9-   C10
     7     11     13     12      9   180.00   0.00000   2 ;     C7-   C11-   C13-   C12
     7     11     13     22      9     0.00   0.00000   0 ;     C7-   C11-   C13-    H9
     7     11     13     23      9     0.00   0.00000   0 ;     C7-   C11-   C13-   H10
     8      4      2     15      9   180.00  15.16700   2 ;     C8-    C4-    C2-    H2
     8     12     10      9      9   180.00  15.16700   2 ;     C8-   C12-   C10-    C9
     8     12     13     11      9   180.00   0.00000   2 ;     C8-   C12-   C13-   C11
     8     12     13     22      9     0.00   0.00000   0 ;     C8-   C12-   C13-    H9
     8     12     13     23      9     0.00   0.00000   0 ;     C8-   C12-   C13-   H10
     9     10      6     19      9   180.00  15.16700   2 ;     C9-   C10-    C6-    H6
     9     10     12     13      9   180.00  15.16700   2 ;     C9-   C10-   C12-   C13
     9     11      7     20      9   180.00  15.16700   2 ;     C9-   C11-    C7-    H7
     9     11     13     12      9     0.00   0.00000   0 ;     C9-   C11-   C13-   C12
     9     11     13     22      9     0.00   0.00000   0 ;     C9-   C11-   C13-    H9
     9     11     13     23      9     0.00   0.00000   0 ;     C9-   C11-   C13-   H10
    10      6      2     15      9   180.00  15.16700   2 ;    C10-    C6-    C2-    H2
    10      9      5     18      9   180.00  15.16700   2 ;    C10-    C9-    C5-    H5
    10      9     11     13      9   180.00  15.16700   2 ;    C10-    C9-   C11-   C13
    10     12      8     21      9   180.00  15.16700   2 ;    C10-   C12-    C8-    H8
    10     12     13     11      9     0.00   0.00000   0 ;    C10-   C12-   C13-   C11
    10     12     13     22      9     0.00   0.00000   0 ;    C10-   C12-   C13-    H9
    10     12     13     23      9     0.00   0.00000   0 ;    C10-   C12-   C13-   H10
    11      7      3     16      9   180.00  15.16700   2 ;    C11-    C7-    C3-    H3
    11      9      5     18      9   180.00  15.16700   2 ;    C11-    C9-    C5-    H5
    11      9     10     12      9   180.00   3.20076   2 ;    C11-    C9-   C10-   C12
    12      8      4     17      9   180.00  15.16700   2 ;    C12-    C8-    C4-    H4
    12     10      6     19      9   180.00  15.16700   2 ;    C12-   C10-    C6-    H6
    13     11      7     20      9   180.00  15.16700   2 ;    C13-   C11-    C7-    H7
    13     12      8     21      9   180.00  15.16700   2 ;    C13-   C12-    C8-    H8
    14      1      3      7      9   180.00  15.16700   2 ;     H1-    C1-    C3-    C7
    14      1      3     16      9   180.00  15.16700   2 ;     H1-    C1-    C3-    H3
    14      1      5      9      9   180.00  15.16700   2 ;     H1-    C1-    C5-    C9
    14      1      5     18      9   180.00  15.16700   2 ;     H1-    C1-    C5-    H5
    15      2      4     17      9   180.00  15.16700   2 ;     H2-    C2-    C4-    H4
    15      2      6     19      9   180.00  15.16700   2 ;     H2-    C2-    C6-    H6
    16      3      7     20      9   180.00  15.16700   2 ;     H3-    C3-    C7-    H7
    17      4      8     21      9   180.00  15.16700   2 ;     H4-    C4-    C8-    H8

[ dihedrals ] ; impropers
; treated as propers in GROMACS to use correct AMBER analytical function
;    i      j      k      l   func   phase     kd      pn
     1      7      3     16      4   180.00   4.60240   2 ;     C1-    C7-    C3-    H3
     1      9      5     18      4   180.00   4.60240   2 ;     C1-    C9-    C5-    H5
     2      8      4     17      4   180.00   4.60240   2 ;     C2-    C8-    C4-    H4
     2     10      6     19      4   180.00   4.60240   2 ;     C2-   C10-    C6-    H6
     3     11      7     20      4   180.00   4.60240   2 ;     C3-   C11-    C7-    H7
     4      6      2     15      4   180.00   4.60240   2 ;     C4-    C6-    C2-    H2
     4     12      8     21      4   180.00   4.60240   2 ;     C4-   C12-    C8-    H8
     5     11      9     10      4   180.00   4.60240   2 ;     C5-   C11-    C9-   C10
     6     12     10      9      4   180.00   4.60240   2 ;     C6-   C12-   C10-    C9
    13      7     11      9      4   180.00   4.60240   2 ;    C13-    C7-   C11-    C9
    13      8     12     10      4   180.00   4.60240   2 ;    C13-    C8-   C12-   C10
    14      1      5      3      4   180.00   4.60240   2 ;     H1-    C1-    C5-    C3
