mobley_4678740_GMX.gro created by acpype (v: 2023.10.27) on Thu May 14 13:16:37 2026
 1908
    1MOL     C1    1   1.444   1.514   1.344
    1MOL     C2    2   1.513   1.393   1.344
    1MOL     C3    3   1.306   1.514   1.344
    1MOL     C4    4   1.304   1.274   1.344
    1MOL     C5    5   1.443   1.274   1.344
    1MOL     C6    6   1.236   1.394   1.344
    1MOL     C7    7   1.515   1.141   1.344
    1MOL     C8    8   1.086   1.398   1.344
    1MOL     F1    9   1.483   1.069   1.450
    1MOL     F2   10   1.646   1.156   1.344
    1MOL     F3   11   1.483   1.069   1.238
    1MOL     F4   12   1.032   1.277   1.344
    1MOL     F5   13   1.039   1.462   1.450
    1MOL     F6   14   1.039   1.462   1.238
    1MOL     H1   15   1.499   1.606   1.344
    1MOL     H2   16   1.621   1.393   1.344
    1MOL     H3   17   1.253   1.608   1.344
    1MOL     H4   18   1.250   1.181   1.344
    2SOL     OW   19   0.230   0.628   0.113
    2SOL    HW1   20   0.137   0.626   0.150
    2SOL    HW2   21   0.231   0.589   0.021
    3SOL     OW   22   0.225   0.275   0.996
    3SOL    HW1   23   0.260   0.258   1.088
    3SOL    HW2   24   0.137   0.230   0.984
    4SOL     OW   25   0.019   0.368   0.647
    4SOL    HW1   26  -0.063   0.411   0.686
    4SOL    HW2   27  -0.009   0.295   0.584
    5SOL     OW   28   0.569   1.275   1.165
    5SOL    HW1   29   0.476   1.268   1.128
    5SOL    HW2   30   0.580   1.364   1.209
    6SOL     OW   31   1.555   1.511   0.703
    6SOL    HW1   32   1.498   1.495   0.784
    6SOL    HW2   33   1.496   1.521   0.623
    7SOL     OW   34   1.135   0.703   0.717
    7SOL    HW1   35   1.192   0.781   0.692
    7SOL    HW2   36   1.075   0.729   0.793
    8SOL     OW   37   1.755   0.607   0.231
    8SOL    HW1   38   1.743   0.594   0.132
    8SOL    HW2   39   1.725   0.526   0.280
    9SOL     OW   40   0.768   1.144   1.023
    9SOL    HW1   41   0.690   1.161   1.083
    9SOL    HW2   42   0.802   1.231   0.987
   10SOL     OW   43   0.850   0.798   1.823
   10SOL    HW1   44   0.846   0.874   1.888
   10SOL    HW2   45   0.872   0.834   1.732
   11SOL     OW   46   0.685   1.012   0.665
   11SOL    HW1   47   0.754   0.996   0.735
   11SOL    HW2   48   0.612   1.069   0.703
   12SOL     OW   49   0.686   1.161   1.803
   12SOL    HW1   50   0.746   1.240   1.817
   12SOL    HW2   51   0.600   1.192   1.762
   13SOL     OW   52   0.335   1.435   1.061
   13SOL    HW1   53   0.257   1.404   1.008
   13SOL    HW2   54   0.393   1.493   1.004
   14SOL     OW   55   0.438   0.392   1.499
   14SOL    HW1   56   0.520   0.336   1.508
   14SOL    HW2   57   0.357   0.334   1.503
   15SOL     OW   58   1.603   0.447   0.737
   15SOL    HW1   59   1.529   0.493   0.687
   15SOL    HW2   60   1.654   0.515   0.790
   16SOL     OW   61   0.231   1.713   0.483
   16SOL    HW1   62   0.265   1.790   0.537
   16SOL    HW2   63   0.275   1.713   0.393
   17SOL     OW   64   1.127   1.341   1.690
   17SOL    HW1   65   1.174   1.341   1.778
   17SOL    HW2   66   1.079   1.254   1.679
   18SOL     OW   67   0.230   1.434   0.538
   18SOL    HW1   68   0.204   1.530   0.538
   18SOL    HW2   69   0.159   1.380   0.583
   19SOL     OW   70   0.240   1.091   0.886
   19SOL    HW1   71   0.254   1.007   0.938
   19SOL    HW2   72   0.185   1.155   0.941
   20SOL     OW   73   0.620   1.786   1.439
   20SOL    HW1   74   0.528   1.769   1.474
   20SOL    HW2   75   0.648   1.878   1.465
   21SOL     OW   76   0.606   0.964   0.123
   21SOL    HW1   77   0.613   1.048   0.069
   21SOL    HW2   78   0.652   0.977   0.211
   22SOL     OW   79   1.594   0.114   1.480
   22SOL    HW1   80   1.576   0.181   1.408
   22SOL    HW2   81   1.591   0.160   1.569
   23SOL     OW   82   0.122   0.643   0.563
   23SOL    HW1   83   0.077   0.555   0.580
   23SOL    HW2   84   0.121   0.697   0.647
   24SOL     OW   85   1.842   1.767   0.359
   24SOL    HW1   86   1.896   1.738   0.439
   24SOL    HW2   87   1.872   1.857   0.330
   25SOL     OW   88   0.027   1.596   0.117
   25SOL    HW1   89   0.008   1.500   0.138
   25SOL    HW2   90  -0.006   1.654   0.192
   26SOL     OW   91   1.689   0.922   0.612
   26SOL    HW1   92   1.784   0.893   0.620
   26SOL    HW2   93   1.681   0.987   0.537
   27SOL     OW   94   1.641   1.108   0.432
   27SOL    HW1   95   1.727   1.110   0.380
   27SOL    HW2   96   1.655   1.155   0.520
   28SOL     OW   97   0.113   0.737   1.597
   28SOL    HW1   98   0.201   0.724   1.642
   28SOL    HW2   99   0.100   0.834   1.575
   29SOL     OW  100   0.613   1.365   0.726
   29SOL    HW1  101   0.564   1.278   0.735
   29SOL    HW2  102   0.590   1.408   0.639
   30SOL     OW  103   0.809   0.004   0.502
   30SOL    HW1  104   0.849   0.095   0.493
   30SOL    HW2  105   0.709   0.012   0.508
   31SOL     OW  106   0.197   0.976   1.264
   31SOL    HW1  107   0.286   0.931   1.250
   31SOL    HW2  108   0.124   0.911   1.245
   32SOL     OW  109   1.525   0.999   0.190
   32SOL    HW1  110   1.462   0.923   0.203
   32SOL    HW2  111   1.573   1.017   0.276
   33SOL     OW  112   1.187   1.792   1.616
   33SOL    HW1  113   1.211   1.852   1.540
   33SOL    HW2  114   1.194   1.697   1.586
   34SOL     OW  115   0.317   0.251   1.801
   34SOL    HW1  116   0.388   0.322   1.807
   34SOL    HW2  117   0.229   0.290   1.829
   35SOL     OW  118   1.466   1.417   0.953
   35SOL    HW1  119   1.407   1.423   1.033
   35SOL    HW2  120   1.451   1.329   0.907
   36SOL     OW  121   1.667   1.714   0.572
   36SOL    HW1  122   1.626   1.691   0.484
   36SOL    HW2  123   1.649   1.640   0.637
   37SOL     OW  124   0.598   0.729   0.270
   37SOL    HW1  125   0.622   0.798   0.202
   37SOL    HW2  126   0.520   0.762   0.324
   38SOL     OW  127   1.281   0.345   0.944
   38SOL    HW1  128   1.195   0.295   0.931
   38SOL    HW2  129   1.343   0.291   1.000
   39SOL     OW  130   1.576   1.662   0.307
   39SOL    HW1  131   1.665   1.708   0.310
   39SOL    HW2  132   1.555   1.638   0.212
   40SOL     OW  133   0.807   0.605   1.465
   40SOL    HW1  134   0.760   0.602   1.554
   40SOL    HW2  135   0.756   0.550   1.399
   41SOL     OW  136   1.394   0.469   1.674
   41SOL    HW1  137   1.374   0.512   1.762
   41SOL    HW2  138   1.472   0.407   1.683
   42SOL     OW  139   0.973   0.890   1.572
   42SOL    HW1  140   1.019   0.806   1.543
   42SOL    HW2  141   0.917   0.924   1.497
   43SOL     OW  142   0.991   0.410   1.242
   43SOL    HW1  143   0.914   0.444   1.296
   43SOL    HW2  144   0.957   0.359   1.163
   44SOL     OW  145   1.041   0.701   0.429
   44SOL    HW1  146   1.067   0.697   0.525
   44SOL    HW2  147   0.956   0.650   0.415
   45SOL     OW  148   0.076   0.811   0.789
   45SOL    HW1  149   0.175   0.799   0.798
   45SOL    HW2  150   0.052   0.906   0.810
   46SOL     OW  151   0.130   1.821   1.571
   46SOL    HW1  152   0.120   1.806   1.670
   46SOL    HW2  153   0.044   1.857   1.535
   47SOL     OW  154   0.865   0.348   0.195
   47SOL    HW1  155   0.924   0.411   0.146
   47SOL    HW2  156   0.884   0.254   0.166
   48SOL     OW  157   1.719   0.585   1.831
   48SOL    HW1  158   1.693   0.674   1.795
   48SOL    HW2  159   1.717   0.517   1.758
   49SOL     OW  160   1.362   1.144   0.545
   49SOL    HW1  161   1.445   1.115   0.497
   49SOL    HW2  162   1.313   1.211   0.489
   50SOL     OW  163   0.550   0.196   0.885
   50SOL    HW1  164   0.545   0.191   0.985
   50SOL    HW2  165   0.552   0.292   0.856
   51SOL     OW  166   1.008   1.456   0.477
   51SOL    HW1  167   0.962   1.528   0.425
   51SOL    HW2  168   1.004   1.476   0.575
   52SOL     OW  169   0.351   1.801   0.853
   52SOL    HW1  170   0.401   1.715   0.859
   52SOL    HW2  171   0.416   1.878   0.850
   53SOL     OW  172   1.795   1.066   0.873
   53SOL    HW1  173   1.733   1.051   0.797
   53SOL    HW2  174   1.743   1.077   0.958
   54SOL     OW  175   0.321   0.943   0.242
   54SOL    HW1  176   0.403   0.982   0.200
   54SOL    HW2  177   0.294   0.861   0.193
   55SOL     OW  178   1.458   0.735   0.728
   55SOL    HW1  179   1.453   0.670   0.803
   55SOL    HW2  180   1.538   0.794   0.741
   56SOL     OW  181   0.461   1.266   1.727
   56SOL    HW1  182   0.411   1.267   1.641
   56SOL    HW2  183   0.398   1.248   1.803
   57SOL     OW  184   1.111   1.776   0.237
   57SOL    HW1  185   1.051   1.714   0.287
   57SOL    HW2  186   1.142   1.732   0.152
   58SOL     OW  187   0.202   0.285   1.498
   58SOL    HW1  188   0.122   0.345   1.485
   58SOL    HW2  189   0.192   0.236   1.584
   59SOL     OW  190   1.632   1.377   0.081
   59SOL    HW1  191   1.600   1.471   0.071
   59SOL    HW2  192   1.556   1.314   0.069
   60SOL     OW  193   0.464   1.743   0.323
   60SOL    HW1  194   0.497   1.782   0.409
   60SOL    HW2  195   0.540   1.736   0.258
   61SOL     OW  196   1.400   0.107   0.426
   61SOL    HW1  197   1.376   0.070   0.336
   61SOL    HW2  198   1.499   0.123   0.430
   62SOL     OW  199   0.249   1.785   1.241
   62SOL    HW1  200   0.306   1.720   1.291
   62SOL    HW2  201   0.233   1.752   1.148
   63SOL     OW  202   0.940   1.698   0.904
   63SOL    HW1  203   1.020   1.641   0.925
   63SOL    HW2  204   0.891   1.658   0.827
   64SOL     OW  205   0.382   0.700   0.480
   64SOL    HW1  206   0.427   0.610   0.477
   64SOL    HW2  207   0.288   0.689   0.513
   65SOL     OW  208   1.547   0.222   1.729
   65SOL    HW1  209   1.542   0.259   1.821
   65SOL    HW2  210   1.475   0.153   1.717
   66SOL     OW  211   0.614   0.122   0.117
   66SOL    HW1  212   0.712   0.100   0.124
   66SOL    HW2  213   0.583   0.105   0.024
   67SOL     OW  214   0.781   0.264   1.749
   67SOL    HW1  215   0.848   0.203   1.792
   67SOL    HW2  216   0.708   0.283   1.814
   68SOL     OW  217   1.351   0.590   1.433
   68SOL    HW1  218   1.379   0.547   1.518
   68SOL    HW2  219   1.376   0.686   1.434
   69SOL     OW  220   0.803   1.402   0.924
   69SOL    HW1  221   0.893   1.416   0.882
   69SOL    HW2  222   0.732   1.404   0.853
   70SOL     OW  223   0.922   0.503   0.899
   70SOL    HW1  224   0.897   0.494   0.803
   70SOL    HW2  225   0.970   0.421   0.930
   71SOL     OW  226   0.539   0.064   0.512
   71SOL    HW1  227   0.458   0.065   0.570
   71SOL    HW2  228   0.542   0.147   0.457
   72SOL     OW  229   1.434   1.188   0.041
   72SOL    HW1  230   1.466   1.112   0.098
   72SOL    HW2  231   1.342   1.215   0.071
   73SOL     OW  232   0.297   0.035   0.171
   73SOL    HW1  233   0.346   0.119   0.150
   73SOL    HW2  234   0.359  -0.030   0.216
   74SOL     OW  235   0.935   0.236   0.480
   74SOL    HW1  236   0.887   0.277   0.402
   74SOL    HW2  237   1.034   0.234   0.461
   75SOL     OW  238   1.076   0.683   1.464
   75SOL    HW1  239   0.996   0.622   1.467
   75SOL    HW2  240   1.157   0.630   1.440
   76SOL     OW  241   1.227   1.570   0.793
   76SOL    HW1  242   1.248   1.644   0.728
   76SOL    HW2  243   1.295   1.570   0.866
   77SOL     OW  244   0.459   1.152   0.741
   77SOL    HW1  245   0.388   1.125   0.806
   77SOL    HW2  246   0.433   1.124   0.648
   78SOL     OW  247   1.271   1.797   0.591
   78SOL    HW1  248   1.315   1.861   0.527
   78SOL    HW2  249   1.221   1.849   0.661
   79SOL     OW  250   1.032   0.549   0.016
   79SOL    HW1  251   0.991   0.631  -0.023
   79SOL    HW2  252   1.096   0.575   0.089
   80SOL     OW  253   0.078   0.556   1.386
   80SOL    HW1  254   0.170   0.555   1.345
   80SOL    HW2  255   0.072   0.630   1.453
   81SOL     OW  256   0.561   0.222   1.147
   81SOL    HW1  257   0.599   0.138   1.184
   81SOL    HW2  258   0.473   0.241   1.191
   82SOL     OW  259   0.866   0.454   0.642
   82SOL    HW1  260   0.834   0.526   0.580
   82SOL    HW2  261   0.890   0.373   0.589
   83SOL     OW  262   1.017   0.039   0.753
   83SOL    HW1  263   0.945   0.044   0.684
   83SOL    HW2  264   0.993  -0.030   0.822
   84SOL     OW  265   1.429   1.173   0.867
   84SOL    HW1  266   1.374   1.089   0.860
   84SOL    HW2  267   1.455   1.202   0.775
   85SOL     OW  268   1.466   0.590   0.992
   85SOL    HW1  269   1.436   0.495   0.999
   85SOL    HW2  270   1.539   0.606   1.058
   86SOL     OW  271   1.857   0.833   0.377
   86SOL    HW1  272   1.899   0.769   0.441
   86SOL    HW2  273   1.819   0.782   0.299
   87SOL     OW  274   0.488   1.385   0.174
   87SOL    HW1  275   0.401   1.370   0.221
   87SOL    HW2  276   0.471   1.411   0.079
   88SOL     OW  277   1.664   1.280   0.657
   88SOL    HW1  278   1.763   1.288   0.671
   88SOL    HW2  279   1.619   1.364   0.688
   89SOL     OW  280   1.390   0.575   0.078
   89SOL    HW1  281   1.336   0.554   0.159
   89SOL    HW2  282   1.481   0.534   0.087
   90SOL     OW  283   0.527   0.256   0.328
   90SOL    HW1  284   0.554   0.197   0.253
   90SOL    HW2  285   0.527   0.351   0.297
   91SOL     OW  286   1.754   1.223   1.588
   91SOL    HW1  287   1.845   1.184   1.575
   91SOL    HW2  288   1.762   1.319   1.612
   92SOL     OW  289   1.592   1.629   1.625
   92SOL    HW1  290   1.619   1.663   1.535
   92SOL    HW2  291   1.671   1.591   1.671
   93SOL     OW  292   1.111   1.195   1.100
   93SOL    HW1  293   1.071   1.239   1.181
   93SOL    HW2  294   1.070   1.232   1.017
   94SOL     OW  295   1.638   1.099   1.079
   94SOL    HW1  296   1.643   1.180   1.138
   94SOL    HW2  297   1.552   1.101   1.028
   95SOL     OW  298   0.915   0.089   1.402
   95SOL    HW1  299   0.940   0.069   1.307
   95SOL    HW2  300   0.987   0.145   1.444
   96SOL     OW  301   0.980   1.116   1.719
   96SOL    HW1  302   0.881   1.122   1.729
   96SOL    HW2  303   1.003   1.036   1.663
   97SOL     OW  304   0.705   1.050   0.368
   97SOL    HW1  305   0.691   1.057   0.467
   97SOL    HW2  306   0.789   0.999   0.350
   98SOL     OW  307   0.410   0.813   1.251
   98SOL    HW1  308   0.496   0.825   1.301
   98SOL    HW2  309   0.368   0.726   1.278
   99SOL     OW  310   1.274   0.386   1.262
   99SOL    HW1  311   1.295   0.460   1.326
   99SOL    HW2  312   1.185   0.403   1.219
  100SOL     OW  313   0.064   1.564   1.331
  100SOL    HW1  314   0.018   1.646   1.297
  100SOL    HW2  315   0.162   1.583   1.340
  101SOL     OW  316   0.367   1.100   0.501
  101SOL    HW1  317   0.360   1.183   0.445
  101SOL    HW2  318   0.371   1.020   0.441
  102SOL     OW  319   0.566   0.537   0.865
  102SOL    HW1  320   0.578   0.603   0.791
  102SOL    HW2  321   0.612   0.571   0.948
  103SOL     OW  322   1.252   1.348   0.388
  103SOL    HW1  323   1.302   1.425   0.428
  103SOL    HW2  324   1.157   1.350   0.420
  104SOL     OW  325   1.582   0.639   0.472
  104SOL    HW1  326   1.551   0.700   0.545
  104SOL    HW2  327   1.632   0.691   0.403
  105SOL     OW  328   0.354   1.510   1.329
  105SOL    HW1  329   0.333   1.466   1.242
  105SOL    HW2  330   0.451   1.536   1.332
  106SOL     OW  331   0.402   0.751   1.598
  106SOL    HW1  332   0.470   0.806   1.551
  106SOL    HW2  333   0.442   0.663   1.625
  107SOL     OW  334   1.587   0.779   1.670
  107SOL    HW1  335   1.495   0.817   1.665
  107SOL    HW2  336   1.647   0.826   1.605
  108SOL     OW  337   1.013   0.105   1.770
  108SOL    HW1  338   1.019   0.190   1.718
  108SOL    HW2  339   1.045   0.029   1.713
  109SOL     OW  340   0.504   0.050   1.740
  109SOL    HW1  341   0.462  -0.007   1.670
  109SOL    HW2  342   0.438   0.119   1.772
  110SOL     OW  343   0.573   0.870   1.029
  110SOL    HW1  344   0.617   0.959   1.020
  110SOL    HW2  345   0.510   0.870   1.106
  111SOL     OW  346   1.360   0.862   1.045
  111SOL    HW1  347   1.285   0.862   0.979
  111SOL    HW2  348   1.397   0.770   1.054
  112SOL     OW  349   1.209   0.525   0.275
  112SOL    HW1  350   1.222   0.441   0.329
  112SOL    HW2  351   1.180   0.599   0.335
  113SOL     OW  352   0.307   0.213   1.231
  113SOL    HW1  353   0.284   0.250   1.321
  113SOL    HW2  354   0.277   0.118   1.225
  114SOL     OW  355   0.037   1.310   1.282
  114SOL    HW1  356   0.090   1.261   1.350
  114SOL    HW2  357   0.059   1.408   1.287
  115SOL     OW  358   0.732   0.634   1.064
  115SOL    HW1  359   0.791   0.608   0.988
  115SOL    HW2  360   0.704   0.730   1.053
  116SOL     OW  361   1.728   0.935   1.854
  116SOL    HW1  362   1.682   0.928   1.765
  116SOL    HW2  363   1.666   0.979   1.920
  117SOL     OW  364   0.307   0.063   0.618
  117SOL    HW1  365   0.296   0.157   0.651
  117SOL    HW2  366   0.302   0.000   0.695
  118SOL     OW  367   1.622   0.367   0.374
  118SOL    HW1  368   1.624   0.291   0.438
  118SOL    HW2  369   1.574   0.444   0.414
  119SOL     OW  370   1.023   0.766   0.966
  119SOL    HW1  371   1.038   0.787   1.062
  119SOL    HW2  372   0.993   0.671   0.957
  120SOL     OW  373   0.980   1.573   1.700
  120SOL    HW1  374   0.960   1.617   1.612
  120SOL    HW2  375   1.019   1.482   1.684
  121SOL     OW  376   1.859   1.518   1.605
  121SOL    HW1  377   1.873   1.545   1.510
  121SOL    HW2  378   1.942   1.540   1.658
  122SOL     OW  379   0.350   0.898   1.804
  122SOL    HW1  380   0.426   0.942   1.852
  122SOL    HW2  381   0.385   0.851   1.722
  123SOL     OW  382   1.540   0.274   0.125
  123SOL    HW1  383   1.479   0.199   0.148
  123SOL    HW2  384   1.562   0.326   0.208
  124SOL     OW  385   1.303   0.838   0.042
  124SOL    HW1  386   1.337   0.745   0.057
  124SOL    HW2  387   1.321   0.865  -0.053
  125SOL     OW  388   1.068   1.333   0.849
  125SOL    HW1  389   1.075   1.249   0.794
  125SOL    HW2  390   1.130   1.402   0.813
  126SOL     OW  391   0.319   0.810   0.949
  126SOL    HW1  392   0.412   0.846   0.954
  126SOL    HW2  393   0.313   0.725   1.001
  127SOL     OW  394   0.339   0.509   1.006
  127SOL    HW1  395   0.287   0.426   0.989
  127SOL    HW2  396   0.416   0.514   0.942
  128SOL     OW  397   1.138   0.380   1.678
  128SOL    HW1  398   1.093   0.443   1.742
  128SOL    HW2  399   1.231   0.411   1.661
  129SOL     OW  400   1.160   0.207   1.477
  129SOL    HW1  401   1.160   0.271   1.554
  129SOL    HW2  402   1.188   0.255   1.394
  130SOL     OW  403   0.008   1.326   0.200
  130SOL    HW1  404  -0.085   1.347   0.169
  130SOL    HW2  405   0.018   1.227   0.213
  131SOL     OW  406   0.088   1.801   0.927
  131SOL    HW1  407   0.046   1.715   0.900
  131SOL    HW2  408   0.182   1.804   0.893
  132SOL     OW  409   0.504   1.568   0.910
  132SOL    HW1  410   0.570   1.642   0.919
  132SOL    HW2  411   0.548   1.489   0.868
  133SOL     OW  412   1.002   0.796   1.238
  133SOL    HW1  413   1.043   0.764   1.324
  133SOL    HW2  414   0.906   0.769   1.235
  134SOL     OW  415   0.040   0.544   1.114
  134SOL    HW1  416   0.125   0.511   1.073
  134SOL    HW2  417   0.053   0.559   1.212
  135SOL     OW  418   0.189   0.520   1.722
  135SOL    HW1  419   0.248   0.480   1.652
  135SOL    HW2  420   0.131   0.591   1.681
  136SOL     OW  421   1.369   0.950   1.660
  136SOL    HW1  422   1.408   1.039   1.680
  136SOL    HW2  423   1.379   0.930   1.563
  137SOL     OW  424   0.815   0.572   0.325
  137SOL    HW1  425   0.822   0.483   0.279
  137SOL    HW2  426   0.721   0.606   0.317
  138SOL     OW  427   1.657   0.604   1.206
  138SOL    HW1  428   1.619   0.535   1.268
  138SOL    HW2  429   1.739   0.568   1.162
  139SOL     OW  430   0.252   1.564   1.744
  139SOL    HW1  431   0.222   1.621   1.820
  139SOL    HW2  432   0.245   1.467   1.770
  140SOL     OW  433   0.671   0.464   1.269
  140SOL    HW1  434   0.637   0.375   1.239
  140SOL    HW2  435   0.697   0.518   1.189
  141SOL     OW  436   0.930   1.678   1.465
  141SOL    HW1  437   0.906   1.660   1.370
  141SOL    HW2  438   0.960   1.772   1.475
  142SOL     OW  439   0.473   0.500   0.191
  142SOL    HW1  440   0.534   0.580   0.195
  142SOL    HW2  441   0.378   0.531   0.198
  143SOL     OW  442   0.159   1.137   1.466
  143SOL    HW1  443   0.181   1.076   1.542
  143SOL    HW2  444   0.169   1.088   1.380
  144SOL     OW  445   1.302   0.855   0.309
  144SOL    HW1  446   1.216   0.824   0.351
  144SOL    HW2  447   1.298   0.841   0.210
  145SOL     OW  448   1.759   1.747   1.154
  145SOL    HW1  449   1.820   1.777   1.081
  145SOL    HW2  450   1.721   1.658   1.132
  146SOL     OW  451   1.252   1.731   1.128
  146SOL    HW1  452   1.336   1.736   1.074
  146SOL    HW2  453   1.229   1.635   1.146
  147SOL     OW  454   0.083   1.258   1.022
  147SOL    HW1  455   0.078   1.257   1.122
  147SOL    HW2  456   0.000   1.217   0.984
  148SOL     OW  457   0.688   1.662   1.716
  148SOL    HW1  458   0.632   1.743   1.725
  148SOL    HW2  459   0.740   1.666   1.630
  149SOL     OW  460   0.903   0.086   0.133
  149SOL    HW1  461   0.954   0.087   0.047
  149SOL    HW2  462   0.959   0.044   0.204
  150SOL     OW  463   1.726   0.135   0.523
  150SOL    HW1  464   1.799   0.118   0.456
  150SOL    HW2  465   1.695   0.048   0.561
  151SOL     OW  466   1.388   1.573   0.477
  151SOL    HW1  467   1.455   1.585   0.403
  151SOL    HW2  468   1.348   1.662   0.500
  152SOL     OW  469   0.130   1.794   1.851
  152SOL    HW1  470   0.089   1.720   1.904
  152SOL    HW2  471   0.194   1.845   1.909
  153SOL     OW  472   1.280   0.927   0.672
  153SOL    HW1  473   1.340   0.846   0.674
  153SOL    HW2  474   1.320   0.996   0.612
  154SOL     OW  475   0.830   1.273   1.422
  154SOL    HW1  476   0.825   1.306   1.517
  154SOL    HW2  477   0.744   1.292   1.376
  155SOL     OW  478   0.672   1.616   0.154
  155SOL    HW1  479   0.681   1.626   0.055
  155SOL    HW2  480   0.632   1.527   0.175
  156SOL     OW  481   1.650   1.720   1.394
  156SOL    HW1  482   1.703   1.730   1.310
  156SOL    HW2  483   1.623   1.810   1.428
  157SOL     OW  484   1.841   0.175   0.963
  157SOL    HW1  485   1.880   0.090   0.927
  157SOL    HW2  486   1.743   0.177   0.944
  158SOL     OW  487   0.263   0.326   0.720
  158SOL    HW1  488   0.184   0.377   0.686
  158SOL    HW2  489   0.254   0.311   0.818
  159SOL     OW  490   1.194   1.612   0.031
  159SOL    HW1  491   1.200   1.519   0.068
  159SOL    HW2  492   1.135   1.612  -0.049
  160SOL     OW  493   0.822   1.002   1.372
  160SOL    HW1  494   0.862   1.001   1.280
  160SOL    HW2  495   0.832   1.094   1.412
  161SOL     OW  496   0.916   0.910   0.291
  161SOL    HW1  497   0.979   0.948   0.223
  161SOL    HW2  498   0.956   0.827   0.330
  162SOL     OW  499   1.504   1.607   0.044
  162SOL    HW1  500   1.412   1.644   0.051
  162SOL    HW2  501   1.542   1.627  -0.046
  163SOL     OW  502   0.372   1.288   1.490
  163SOL    HW1  503   0.359   1.381   1.456
  163SOL    HW2  504   0.288   1.236   1.477
  164SOL     OW  505   1.039   1.098   0.696
  164SOL    HW1  506   0.969   1.051   0.750
  164SOL    HW2  507   1.098   1.030   0.653
  165SOL     OW  508   1.014   0.236   0.971
  165SOL    HW1  509   1.006   0.200   0.878
  165SOL    HW2  510   1.012   0.160   1.036
  166SOL     OW  511   0.590   1.487   0.491
  166SOL    HW1  512   0.632   1.429   0.421
  166SOL    HW2  513   0.546   1.566   0.447
  167SOL     OW  514   1.709   0.385   1.381
  167SOL    HW1  515   1.782   0.454   1.385
  167SOL    HW2  516   1.737   0.310   1.322
  168SOL     OW  517   0.255   1.348   0.290
  168SOL    HW1  518   0.159   1.349   0.263
  168SOL    HW2  519   0.267   1.401   0.374
  169SOL     OW  520   0.105   1.013   1.726
  169SOL    HW1  521   0.028   0.980   1.780
  169SOL    HW2  522   0.190   0.983   1.768
  170SOL     OW  523   0.672   0.203   1.489
  170SOL    HW1  524   0.762   0.187   1.449
  170SOL    HW2  525   0.680   0.208   1.588
  171SOL     OW  526   0.075   0.345   0.033
  171SOL    HW1  527  -0.017   0.317   0.004
  171SOL    HW2  528   0.106   0.422  -0.023
  172SOL     OW  529   1.440   0.856   1.398
  172SOL    HW1  530   1.383   0.908   1.335
  172SOL    HW2  531   1.536   0.868   1.374
  173SOL     OW  532   0.072   0.166   0.318
  173SOL    HW1  533   0.055   0.249   0.264
  173SOL    HW2  534   0.162   0.129   0.296
  174SOL     OW  535   1.183   1.335   0.119
  174SOL    HW1  536   1.084   1.324   0.121
  174SOL    HW2  537   1.217   1.350   0.212
  175SOL     OW  538   0.613   0.842   1.431
  175SOL    HW1  539   0.669   0.923   1.414
  175SOL    HW2  540   0.672   0.762   1.434
  176SOL     OW  541   1.493   1.767   0.959
  176SOL    HW1  542   1.526   1.831   0.890
  176SOL    HW2  543   1.559   1.761   1.034
  177SOL     OW  544   0.716   0.565   1.708
  177SOL    HW1  545   0.735   0.630   1.782
  177SOL    HW2  546   0.776   0.485   1.717
  178SOL     OW  547   1.450   1.220   1.633
  178SOL    HW1  548   1.441   1.210   1.732
  178SOL    HW2  549   1.546   1.213   1.607
  179SOL     OW  550   0.390   1.741   1.560
  179SOL    HW1  551   0.299   1.782   1.558
  179SOL    HW2  552   0.383   1.647   1.592
  180SOL     OW  553   1.674   0.883   1.254
  180SOL    HW1  554   1.647   0.794   1.217
  180SOL    HW2  555   1.675   0.951   1.181
  181SOL     OW  556   1.225   0.325   0.449
  181SOL    HW1  557   1.290   0.251   0.438
  181SOL    HW2  558   1.245   0.375   0.533
  182SOL     OW  559   0.594   0.745   0.652
  182SOL    HW1  560   0.644   0.830   0.633
  182SOL    HW2  561   0.506   0.747   0.604
  183SOL     OW  562   1.777   0.342   1.642
  183SOL    HW1  563   1.760   0.373   1.548
  183SOL    HW2  564   1.693   0.305   1.680
  184SOL     OW  565   1.730   0.934   1.517
  184SOL    HW1  566   1.768   1.025   1.532
  184SOL    HW2  567   1.722   0.917   1.418
  185SOL     OW  568   0.859   1.374   0.016
  185SOL    HW1  569   0.813   1.389   0.104
  185SOL    HW2  570   0.903   1.459  -0.014
  186SOL     OW  571   0.661   1.790   0.953
  186SOL    HW1  572   0.615   1.878   0.940
  186SOL    HW2  573   0.760   1.802   0.946
  187SOL     OW  574   0.859   0.956   0.861
  187SOL    HW1  575   0.913   0.887   0.909
  187SOL    HW2  576   0.827   1.025   0.927
  188SOL     OW  577   1.083   0.984   0.087
  188SOL    HW1  578   1.060   1.037   0.005
  188SOL    HW2  579   1.164   0.928   0.068
  189SOL     OW  580   1.861   1.569   0.851
  189SOL    HW1  581   1.790   1.557   0.781
  189SOL    HW2  582   1.862   1.490   0.911
  190SOL     OW  583   0.221   1.314   1.844
  190SOL    HW1  584   0.156   1.241   1.823
  190SOL    HW2  585   0.225   1.328   1.942
  191SOL     OW  586   0.079   1.240   0.653
  191SOL    HW1  587   0.078   1.193   0.741
  191SOL    HW2  588   0.161   1.212   0.602
  192SOL     OW  589   0.672   1.391   1.624
  192SOL    HW1  590   0.594   1.341   1.662
  192SOL    HW2  591   0.669   1.486   1.655
  193SOL     OW  592   1.824   0.192   1.227
  193SOL    HW1  593   1.820   0.102   1.271
  193SOL    HW2  594   1.827   0.181   1.128
  194SOL     OW  595   0.428   0.424   0.520
  194SOL    HW1  596   0.458   0.352   0.458
  194SOL    HW2  597   0.389   0.384   0.603
  195SOL     OW  598   1.705   1.487   1.104
  195SOL    HW1  599   1.612   1.462   1.077
  195SOL    HW2  600   1.731   1.437   1.186
  196SOL     OW  601   0.317   0.547   1.280
  196SOL    HW1  602   0.355   0.488   1.352
  196SOL    HW2  603   0.357   0.521   1.192
  197SOL     OW  604   0.812   1.586   0.687
  197SOL    HW1  605   0.844   1.596   0.593
  197SOL    HW2  606   0.733   1.524   0.689
  198SOL     OW  607   1.424   0.214   1.112
  198SOL    HW1  608   1.476   0.149   1.167
  198SOL    HW2  609   1.375   0.277   1.173
  199SOL     OW  610   1.001   0.034   1.154
  199SOL    HW1  611   0.938  -0.038   1.123
  199SOL    HW2  612   1.094  -0.002   1.154
  200SOL     OW  613   0.770   1.330   0.301
  200SOL    HW1  614   0.724   1.243   0.318
  200SOL    HW2  615   0.861   1.327   0.342
  201SOL     OW  616   0.618   1.567   1.284
  201SOL    HW1  617   0.613   1.649   1.341
  201SOL    HW2  618   0.707   1.564   1.239
  202SOL     OW  619   1.352   0.052   0.168
  202SOL    HW1  620   1.387   0.011   0.084
  202SOL    HW2  621   1.262   0.014   0.188
  203SOL     OW  622   1.300   0.453   0.691
  203SOL    HW1  623   1.241   0.533   0.695
  203SOL    HW2  624   1.315   0.418   0.784
  204SOL     OW  625   1.593   0.221   0.882
  204SOL    HW1  626   1.509   0.220   0.936
  204SOL    HW2  627   1.595   0.304   0.826
  205SOL     OW  628   0.039   1.077   0.300
  205SOL    HW1  629   0.138   1.066   0.291
  205SOL    HW2  630  -0.001   0.991   0.332
  206SOL     OW  631   0.875   1.646   0.337
  206SOL    HW1  632   0.798   1.611   0.283
  206SOL    HW2  633   0.843   1.717   0.399
  207SOL     OW  634   0.230   0.628   1.975
  207SOL    HW1  635   0.137   0.626   2.012
  207SOL    HW2  636   0.231   0.589   1.883
  208SOL     OW  637   0.019   0.368   2.509
  208SOL    HW1  638  -0.063   0.411   2.548
  208SOL    HW2  639  -0.009   0.295   2.446
  209SOL     OW  640   1.755   0.607   2.093
  209SOL    HW1  641   1.743   0.594   1.994
  209SOL    HW2  642   1.725   0.526   2.142
  210SOL     OW  643   0.685   1.012   2.527
  210SOL    HW1  644   0.754   0.996   2.597
  210SOL    HW2  645   0.612   1.069   2.565
  211SOL     OW  646   1.603   0.447   2.599
  211SOL    HW1  647   1.529   0.493   2.549
  211SOL    HW2  648   1.654   0.515   2.652
  212SOL     OW  649   0.231   1.713   2.345
  212SOL    HW1  650   0.265   1.790   2.399
  212SOL    HW2  651   0.275   1.713   2.255
  213SOL     OW  652   0.230   1.434   2.400
  213SOL    HW1  653   0.204   1.530   2.400
  213SOL    HW2  654   0.159   1.380   2.445
  214SOL     OW  655   0.240   1.091   2.748
  214SOL    HW1  656   0.254   1.007   2.800
  214SOL    HW2  657   0.185   1.155   2.803
  215SOL     OW  658   0.606   0.964   1.985
  215SOL    HW1  659   0.613   1.048   1.931
  215SOL    HW2  660   0.652   0.977   2.073
  216SOL     OW  661   0.122   0.643   2.425
  216SOL    HW1  662   0.077   0.555   2.442
  216SOL    HW2  663   0.121   0.697   2.509
  217SOL     OW  664   1.842   1.767   2.221
  217SOL    HW1  665   1.896   1.738   2.301
  217SOL    HW2  666   1.872   1.857   2.192
  218SOL     OW  667   0.027   1.596   1.979
  218SOL    HW1  668   0.008   1.500   2.000
  218SOL    HW2  669  -0.006   1.654   2.054
  219SOL     OW  670   1.689   0.922   2.474
  219SOL    HW1  671   1.784   0.893   2.482
  219SOL    HW2  672   1.681   0.987   2.399
  220SOL     OW  673   1.641   1.108   2.294
  220SOL    HW1  674   1.727   1.110   2.242
  220SOL    HW2  675   1.655   1.155   2.382
  221SOL     OW  676   0.613   1.365   2.588
  221SOL    HW1  677   0.564   1.278   2.597
  221SOL    HW2  678   0.590   1.408   2.501
  222SOL     OW  679   0.809   0.004   2.364
  222SOL    HW1  680   0.849   0.095   2.355
  222SOL    HW2  681   0.709   0.012   2.370
  223SOL     OW  682   1.525   0.999   2.052
  223SOL    HW1  683   1.462   0.923   2.065
  223SOL    HW2  684   1.573   1.017   2.138
  224SOL     OW  685   1.667   1.714   2.434
  224SOL    HW1  686   1.626   1.691   2.346
  224SOL    HW2  687   1.649   1.640   2.499
  225SOL     OW  688   0.598   0.729   2.132
  225SOL    HW1  689   0.622   0.798   2.064
  225SOL    HW2  690   0.520   0.762   2.186
  226SOL     OW  691   1.281   0.345   2.806
  226SOL    HW1  692   1.195   0.295   2.793
  226SOL    HW2  693   1.343   0.291   2.862
  227SOL     OW  694   1.576   1.662   2.169
  227SOL    HW1  695   1.665   1.708   2.172
  227SOL    HW2  696   1.555   1.638   2.074
  228SOL     OW  697   1.041   0.701   2.291
  228SOL    HW1  698   1.067   0.697   2.387
  228SOL    HW2  699   0.956   0.650   2.277
  229SOL     OW  700   0.076   0.811   2.651
  229SOL    HW1  701   0.175   0.799   2.660
  229SOL    HW2  702   0.052   0.906   2.672
  230SOL     OW  703   0.865   0.348   2.057
  230SOL    HW1  704   0.924   0.411   2.008
  230SOL    HW2  705   0.884   0.254   2.028
  231SOL     OW  706   1.362   1.144   2.407
  231SOL    HW1  707   1.445   1.115   2.359
  231SOL    HW2  708   1.313   1.211   2.351
  232SOL     OW  709   1.008   1.456   2.339
  232SOL    HW1  710   0.962   1.528   2.287
  232SOL    HW2  711   1.004   1.476   2.437
  233SOL     OW  712   0.351   1.801   2.715
  233SOL    HW1  713   0.401   1.715   2.721
  233SOL    HW2  714   0.416   1.878   2.712
  234SOL     OW  715   1.795   1.066   2.735
  234SOL    HW1  716   1.733   1.051   2.659
  234SOL    HW2  717   1.743   1.077   2.820
  235SOL     OW  718   0.321   0.943   2.104
  235SOL    HW1  719   0.403   0.982   2.062
  235SOL    HW2  720   0.294   0.861   2.055
  236SOL     OW  721   1.111   1.776   2.099
  236SOL    HW1  722   1.051   1.714   2.149
  236SOL    HW2  723   1.142   1.732   2.014
  237SOL     OW  724   1.632   1.377   1.943
  237SOL    HW1  725   1.600   1.471   1.933
  237SOL    HW2  726   1.556   1.314   1.931
  238SOL     OW  727   0.464   1.743   2.185
  238SOL    HW1  728   0.497   1.782   2.271
  238SOL    HW2  729   0.540   1.736   2.120
  239SOL     OW  730   1.400   0.107   2.288
  239SOL    HW1  731   1.376   0.070   2.198
  239SOL    HW2  732   1.499   0.123   2.292
  240SOL     OW  733   0.940   1.698   2.766
  240SOL    HW1  734   1.020   1.641   2.787
  240SOL    HW2  735   0.891   1.658   2.689
  241SOL     OW  736   0.382   0.700   2.342
  241SOL    HW1  737   0.427   0.610   2.339
  241SOL    HW2  738   0.288   0.689   2.375
  242SOL     OW  739   0.614   0.122   1.979
  242SOL    HW1  740   0.712   0.100   1.986
  242SOL    HW2  741   0.583   0.105   1.886
  243SOL     OW  742   0.539   0.064   2.374
  243SOL    HW1  743   0.458   0.065   2.432
  243SOL    HW2  744   0.542   0.147   2.319
  244SOL     OW  745   1.434   1.188   1.903
  244SOL    HW1  746   1.466   1.112   1.960
  244SOL    HW2  747   1.342   1.215   1.933
  245SOL     OW  748   0.297   0.035   2.033
  245SOL    HW1  749   0.346   0.119   2.012
  245SOL    HW2  750   0.359  -0.030   2.078
  246SOL     OW  751   0.935   0.236   2.342
  246SOL    HW1  752   0.887   0.277   2.264
  246SOL    HW2  753   1.034   0.234   2.323
  247SOL     OW  754   0.459   1.152   2.603
  247SOL    HW1  755   0.388   1.125   2.668
  247SOL    HW2  756   0.433   1.124   2.510
  248SOL     OW  757   1.271   1.797   2.453
  248SOL    HW1  758   1.315   1.861   2.389
  248SOL    HW2  759   1.221   1.849   2.523
  249SOL     OW  760   1.032   0.549   1.878
  249SOL    HW1  761   0.991   0.631   1.839
  249SOL    HW2  762   1.096   0.575   1.951
  250SOL     OW  763   0.866   0.454   2.504
  250SOL    HW1  764   0.834   0.526   2.442
  250SOL    HW2  765   0.890   0.373   2.451
  251SOL     OW  766   1.857   0.833   2.239
  251SOL    HW1  767   1.899   0.769   2.303
  251SOL    HW2  768   1.819   0.782   2.161
  252SOL     OW  769   0.488   1.385   2.036
  252SOL    HW1  770   0.401   1.370   2.083
  252SOL    HW2  771   0.471   1.411   1.941
  253SOL     OW  772   1.664   1.280   2.519
  253SOL    HW1  773   1.763   1.288   2.533
  253SOL    HW2  774   1.619   1.364   2.550
  254SOL     OW  775   1.390   0.575   1.940
  254SOL    HW1  776   1.336   0.554   2.021
  254SOL    HW2  777   1.481   0.534   1.949
  255SOL     OW  778   0.527   0.256   2.190
  255SOL    HW1  779   0.554   0.197   2.115
  255SOL    HW2  780   0.527   0.351   2.159
  256SOL     OW  781   0.705   1.050   2.230
  256SOL    HW1  782   0.691   1.057   2.329
  256SOL    HW2  783   0.789   0.999   2.212
  257SOL     OW  784   0.367   1.100   2.363
  257SOL    HW1  785   0.360   1.183   2.307
  257SOL    HW2  786   0.371   1.020   2.303
  258SOL     OW  787   1.252   1.348   2.250
  258SOL    HW1  788   1.302   1.425   2.290
  258SOL    HW2  789   1.157   1.350   2.282
  259SOL     OW  790   1.582   0.639   2.334
  259SOL    HW1  791   1.551   0.700   2.407
  259SOL    HW2  792   1.632   0.691   2.265
  260SOL     OW  793   1.209   0.525   2.137
  260SOL    HW1  794   1.222   0.441   2.191
  260SOL    HW2  795   1.180   0.599   2.197
  261SOL     OW  796   0.307   0.063   2.480
  261SOL    HW1  797   0.296   0.157   2.513
  261SOL    HW2  798   0.302   0.000   2.557
  262SOL     OW  799   1.622   0.367   2.236
  262SOL    HW1  800   1.624   0.291   2.300
  262SOL    HW2  801   1.574   0.444   2.276
  263SOL     OW  802   1.540   0.274   1.987
  263SOL    HW1  803   1.479   0.199   2.010
  263SOL    HW2  804   1.562   0.326   2.070
  264SOL     OW  805   1.303   0.838   1.904
  264SOL    HW1  806   1.337   0.745   1.919
  264SOL    HW2  807   1.321   0.865   1.809
  265SOL     OW  808   0.008   1.326   2.062
  265SOL    HW1  809  -0.085   1.347   2.031
  265SOL    HW2  810   0.018   1.227   2.075
  266SOL     OW  811   0.040   0.544   2.976
  266SOL    HW1  812   0.125   0.511   2.935
  266SOL    HW2  813   0.053   0.559   3.074
  267SOL     OW  814   0.815   0.572   2.187
  267SOL    HW1  815   0.822   0.483   2.141
  267SOL    HW2  816   0.721   0.606   2.179
  268SOL     OW  817   0.473   0.500   2.053
  268SOL    HW1  818   0.534   0.580   2.057
  268SOL    HW2  819   0.378   0.531   2.060
  269SOL     OW  820   1.302   0.855   2.171
  269SOL    HW1  821   1.216   0.824   2.213
  269SOL    HW2  822   1.298   0.841   2.072
  270SOL     OW  823   1.726   0.135   2.385
  270SOL    HW1  824   1.799   0.118   2.318
  270SOL    HW2  825   1.695   0.048   2.423
  271SOL     OW  826   1.388   1.573   2.339
  271SOL    HW1  827   1.455   1.585   2.265
  271SOL    HW2  828   1.348   1.662   2.362
  272SOL     OW  829   0.672   1.616   2.016
  272SOL    HW1  830   0.681   1.626   1.917
  272SOL    HW2  831   0.632   1.527   2.037
  273SOL     OW  832   1.841   0.175   2.825
  273SOL    HW1  833   1.880   0.090   2.789
  273SOL    HW2  834   1.743   0.177   2.806
  274SOL     OW  835   0.263   0.326   2.582
  274SOL    HW1  836   0.184   0.377   2.548
  274SOL    HW2  837   0.254   0.311   2.680
  275SOL     OW  838   1.194   1.612   1.893
  275SOL    HW1  839   1.200   1.519   1.930
  275SOL    HW2  840   1.135   1.612   1.813
  276SOL     OW  841   0.916   0.910   2.153
  276SOL    HW1  842   0.979   0.948   2.085
  276SOL    HW2  843   0.956   0.827   2.192
  277SOL     OW  844   1.504   1.607   1.906
  277SOL    HW1  845   1.412   1.644   1.913
  277SOL    HW2  846   1.542   1.627   1.816
  278SOL     OW  847   0.590   1.487   2.353
  278SOL    HW1  848   0.632   1.429   2.283
  278SOL    HW2  849   0.546   1.566   2.309
  279SOL     OW  850   0.255   1.348   2.152
  279SOL    HW1  851   0.159   1.349   2.125
  279SOL    HW2  852   0.267   1.401   2.236
  280SOL     OW  853   0.075   0.345   1.895
  280SOL    HW1  854  -0.017   0.317   1.866
  280SOL    HW2  855   0.106   0.422   1.839
  281SOL     OW  856   0.072   0.166   2.180
  281SOL    HW1  857   0.055   0.249   2.126
  281SOL    HW2  858   0.162   0.129   2.158
  282SOL     OW  859   1.183   1.335   1.981
  282SOL    HW1  860   1.084   1.324   1.983
  282SOL    HW2  861   1.217   1.350   2.074
  283SOL     OW  862   1.225   0.325   2.311
  283SOL    HW1  863   1.290   0.251   2.300
  283SOL    HW2  864   1.245   0.375   2.395
  284SOL     OW  865   0.594   0.745   2.514
  284SOL    HW1  866   0.644   0.830   2.495
  284SOL    HW2  867   0.506   0.747   2.466
  285SOL     OW  868   0.859   1.374   1.878
  285SOL    HW1  869   0.813   1.389   1.966
  285SOL    HW2  870   0.903   1.459   1.848
  286SOL     OW  871   0.661   1.790   2.815
  286SOL    HW1  872   0.615   1.878   2.802
  286SOL    HW2  873   0.760   1.802   2.808
  287SOL     OW  874   0.859   0.956   2.723
  287SOL    HW1  875   0.913   0.887   2.771
  287SOL    HW2  876   0.827   1.025   2.789
  288SOL     OW  877   1.083   0.984   1.949
  288SOL    HW1  878   1.060   1.037   1.867
  288SOL    HW2  879   1.164   0.928   1.930
  289SOL     OW  880   0.079   1.240   2.515
  289SOL    HW1  881   0.078   1.193   2.603
  289SOL    HW2  882   0.161   1.212   2.464
  290SOL     OW  883   0.428   0.424   2.382
  290SOL    HW1  884   0.458   0.352   2.320
  290SOL    HW2  885   0.389   0.384   2.465
  291SOL     OW  886   1.705   1.487   2.966
  291SOL    HW1  887   1.612   1.462   2.939
  291SOL    HW2  888   1.731   1.437   3.048
  292SOL     OW  889   0.812   1.586   2.549
  292SOL    HW1  890   0.844   1.596   2.455
  292SOL    HW2  891   0.733   1.524   2.551
  293SOL     OW  892   0.770   1.330   2.163
  293SOL    HW1  893   0.724   1.243   2.180
  293SOL    HW2  894   0.861   1.327   2.204
  294SOL     OW  895   1.352   0.052   2.030
  294SOL    HW1  896   1.387   0.011   1.946
  294SOL    HW2  897   1.262   0.014   2.050
  295SOL     OW  898   1.300   0.453   2.553
  295SOL    HW1  899   1.241   0.533   2.557
  295SOL    HW2  900   1.315   0.418   2.646
  296SOL     OW  901   0.039   1.077   2.162
  296SOL    HW1  902   0.138   1.066   2.153
  296SOL    HW2  903  -0.001   0.991   2.194
  297SOL     OW  904   0.875   1.646   2.199
  297SOL    HW1  905   0.798   1.611   2.145
  297SOL    HW2  906   0.843   1.717   2.261
  298SOL     OW  907   0.230   2.490   0.113
  298SOL    HW1  908   0.137   2.488   0.150
  298SOL    HW2  909   0.231   2.451   0.021
  299SOL     OW  910   0.225   2.137   0.996
  299SOL    HW1  911   0.260   2.120   1.088
  299SOL    HW2  912   0.137   2.092   0.984
  300SOL     OW  913   0.019   2.230   0.647
  300SOL    HW1  914  -0.063   2.273   0.686
  300SOL    HW2  915  -0.009   2.157   0.584
  301SOL     OW  916   1.755   2.469   0.231
  301SOL    HW1  917   1.743   2.456   0.132
  301SOL    HW2  918   1.725   2.388   0.280
  302SOL     OW  919   0.850   2.660   1.823
  302SOL    HW1  920   0.846   2.736   1.888
  302SOL    HW2  921   0.872   2.696   1.732
  303SOL     OW  922   0.685   2.874   0.665
  303SOL    HW1  923   0.754   2.858   0.735
  303SOL    HW2  924   0.612   2.931   0.703
  304SOL     OW  925   0.438   2.254   1.499
  304SOL    HW1  926   0.520   2.198   1.508
  304SOL    HW2  927   0.357   2.196   1.503
  305SOL     OW  928   1.603   2.309   0.737
  305SOL    HW1  929   1.529   2.355   0.687
  305SOL    HW2  930   1.654   2.377   0.790
  306SOL     OW  931   1.594   1.976   1.480
  306SOL    HW1  932   1.576   2.043   1.408
  306SOL    HW2  933   1.591   2.022   1.569
  307SOL     OW  934   0.122   2.505   0.563
  307SOL    HW1  935   0.077   2.417   0.580
  307SOL    HW2  936   0.121   2.559   0.647
  308SOL     OW  937   0.113   2.599   1.597
  308SOL    HW1  938   0.201   2.586   1.642
  308SOL    HW2  939   0.100   2.696   1.575
  309SOL     OW  940   0.809   1.866   0.502
  309SOL    HW1  941   0.849   1.957   0.493
  309SOL    HW2  942   0.709   1.874   0.508
  310SOL     OW  943   0.317   2.113   1.801
  310SOL    HW1  944   0.388   2.184   1.807
  310SOL    HW2  945   0.229   2.152   1.829
  311SOL     OW  946   0.598   2.591   0.270
  311SOL    HW1  947   0.622   2.660   0.202
  311SOL    HW2  948   0.520   2.624   0.324
  312SOL     OW  949   1.281   2.207   0.944
  312SOL    HW1  950   1.195   2.157   0.931
  312SOL    HW2  951   1.343   2.153   1.000
  313SOL     OW  952   0.807   2.467   1.465
  313SOL    HW1  953   0.760   2.464   1.554
  313SOL    HW2  954   0.756   2.412   1.399
  314SOL     OW  955   1.394   2.331   1.674
  314SOL    HW1  956   1.374   2.374   1.762
  314SOL    HW2  957   1.472   2.269   1.683
  315SOL     OW  958   0.991   2.272   1.242
  315SOL    HW1  959   0.914   2.306   1.296
  315SOL    HW2  960   0.957   2.221   1.163
  316SOL     OW  961   1.041   2.563   0.429
  316SOL    HW1  962   1.067   2.559   0.525
  316SOL    HW2  963   0.956   2.512   0.415
  317SOL     OW  964   0.076   2.673   0.789
  317SOL    HW1  965   0.175   2.661   0.798
  317SOL    HW2  966   0.052   2.768   0.810
  318SOL     OW  967   0.865   2.210   0.195
  318SOL    HW1  968   0.924   2.273   0.146
  318SOL    HW2  969   0.884   2.116   0.166
  319SOL     OW  970   1.719   2.447   1.831
  319SOL    HW1  971   1.693   2.536   1.795
  319SOL    HW2  972   1.717   2.379   1.758
  320SOL     OW  973   0.550   2.058   0.885
  320SOL    HW1  974   0.545   2.053   0.985
  320SOL    HW2  975   0.552   2.154   0.856
  321SOL     OW  976   1.458   2.597   0.728
  321SOL    HW1  977   1.453   2.532   0.803
  321SOL    HW2  978   1.538   2.656   0.741
  322SOL     OW  979   0.202   2.147   1.498
  322SOL    HW1  980   0.122   2.207   1.485
  322SOL    HW2  981   0.192   2.098   1.584
  323SOL     OW  982   1.400   1.969   0.426
  323SOL    HW1  983   1.376   1.932   0.336
  323SOL    HW2  984   1.499   1.985   0.430
  324SOL     OW  985   0.382   2.562   0.480
  324SOL    HW1  986   0.427   2.472   0.477
  324SOL    HW2  987   0.288   2.551   0.513
  325SOL     OW  988   1.547   2.084   1.729
  325SOL    HW1  989   1.542   2.121   1.821
  325SOL    HW2  990   1.475   2.015   1.717
  326SOL     OW  991   0.781   2.126   1.749
  326SOL    HW1  992   0.848   2.065   1.792
  326SOL    HW2  993   0.708   2.145   1.814
  327SOL     OW  994   1.351   2.452   1.433
  327SOL    HW1  995   1.379   2.409   1.518
  327SOL    HW2  996   1.376   2.548   1.434
  328SOL     OW  997   0.922   2.365   0.899
  328SOL    HW1  998   0.897   2.356   0.803
  328SOL    HW2  999   0.970   2.283   0.930
  329SOL     OW 1000   0.539   1.926   0.512
  329SOL    HW1 1001   0.458   1.927   0.570
  329SOL    HW2 1002   0.542   2.009   0.457
  330SOL     OW 1003   0.297   1.897   0.171
  330SOL    HW1 1004   0.346   1.981   0.150
  330SOL    HW2 1005   0.359   1.832   0.216
  331SOL     OW 1006   0.935   2.098   0.480
  331SOL    HW1 1007   0.887   2.139   0.402
  331SOL    HW2 1008   1.034   2.096   0.461
  332SOL     OW 1009   1.076   2.545   1.464
  332SOL    HW1 1010   0.996   2.484   1.467
  332SOL    HW2 1011   1.157   2.492   1.440
  333SOL     OW 1012   1.032   2.411   0.016
  333SOL    HW1 1013   0.991   2.493  -0.023
  333SOL    HW2 1014   1.096   2.437   0.089
  334SOL     OW 1015   0.078   2.418   1.386
  334SOL    HW1 1016   0.170   2.417   1.345
  334SOL    HW2 1017   0.072   2.492   1.453
  335SOL     OW 1018   0.561   2.084   1.147
  335SOL    HW1 1019   0.599   2.000   1.184
  335SOL    HW2 1020   0.473   2.103   1.191
  336SOL     OW 1021   0.866   2.316   0.642
  336SOL    HW1 1022   0.834   2.388   0.580
  336SOL    HW2 1023   0.890   2.235   0.589
  337SOL     OW 1024   1.017   1.901   0.753
  337SOL    HW1 1025   0.945   1.906   0.684
  337SOL    HW2 1026   0.993   1.832   0.822
  338SOL     OW 1027   1.466   2.452   0.992
  338SOL    HW1 1028   1.436   2.357   0.999
  338SOL    HW2 1029   1.539   2.468   1.058
  339SOL     OW 1030   1.390   2.437   0.078
  339SOL    HW1 1031   1.336   2.416   0.159
  339SOL    HW2 1032   1.481   2.396   0.087
  340SOL     OW 1033   0.527   2.118   0.328
  340SOL    HW1 1034   0.554   2.059   0.253
  340SOL    HW2 1035   0.527   2.213   0.297
  341SOL     OW 1036   0.915   1.951   1.402
  341SOL    HW1 1037   0.940   1.931   1.307
  341SOL    HW2 1038   0.987   2.007   1.444
  342SOL     OW 1039   0.705   2.912   0.368
  342SOL    HW1 1040   0.691   2.919   0.467
  342SOL    HW2 1041   0.789   2.861   0.350
  343SOL     OW 1042   0.410   2.675   1.251
  343SOL    HW1 1043   0.496   2.687   1.301
  343SOL    HW2 1044   0.368   2.588   1.278
  344SOL     OW 1045   1.274   2.248   1.262
  344SOL    HW1 1046   1.295   2.322   1.326
  344SOL    HW2 1047   1.185   2.265   1.219
  345SOL     OW 1048   0.566   2.399   0.865
  345SOL    HW1 1049   0.578   2.465   0.791
  345SOL    HW2 1050   0.612   2.433   0.948
  346SOL     OW 1051   1.582   2.501   0.472
  346SOL    HW1 1052   1.551   2.562   0.545
  346SOL    HW2 1053   1.632   2.553   0.403
  347SOL     OW 1054   1.587   2.641   1.670
  347SOL    HW1 1055   1.495   2.679   1.665
  347SOL    HW2 1056   1.647   2.688   1.605
  348SOL     OW 1057   1.013   1.967   1.770
  348SOL    HW1 1058   1.019   2.052   1.718
  348SOL    HW2 1059   1.045   1.891   1.713
  349SOL     OW 1060   0.504   1.912   1.740
  349SOL    HW1 1061   0.462   1.855   1.670
  349SOL    HW2 1062   0.438   1.981   1.772
  350SOL     OW 1063   1.360   2.724   1.045
  350SOL    HW1 1064   1.285   2.724   0.979
  350SOL    HW2 1065   1.397   2.632   1.054
  351SOL     OW 1066   1.209   2.387   0.275
  351SOL    HW1 1067   1.222   2.303   0.329
  351SOL    HW2 1068   1.180   2.461   0.335
  352SOL     OW 1069   0.307   2.075   1.231
  352SOL    HW1 1070   0.284   2.112   1.321
  352SOL    HW2 1071   0.277   1.980   1.225
  353SOL     OW 1072   0.732   2.496   1.064
  353SOL    HW1 1073   0.791   2.470   0.988
  353SOL    HW2 1074   0.704   2.592   1.053
  354SOL     OW 1075   1.728   2.797   1.854
  354SOL    HW1 1076   1.682   2.790   1.765
  354SOL    HW2 1077   1.666   2.841   1.920
  355SOL     OW 1078   0.307   1.925   0.618
  355SOL    HW1 1079   0.296   2.019   0.651
  355SOL    HW2 1080   0.302   1.862   0.695
  356SOL     OW 1081   1.622   2.229   0.374
  356SOL    HW1 1082   1.624   2.153   0.438
  356SOL    HW2 1083   1.574   2.306   0.414
  357SOL     OW 1084   1.540   2.136   0.125
  357SOL    HW1 1085   1.479   2.061   0.148
  357SOL    HW2 1086   1.562   2.188   0.208
  358SOL     OW 1087   0.319   2.672   0.949
  358SOL    HW1 1088   0.412   2.708   0.954
  358SOL    HW2 1089   0.313   2.587   1.001
  359SOL     OW 1090   0.339   2.371   1.006
  359SOL    HW1 1091   0.287   2.288   0.989
  359SOL    HW2 1092   0.416   2.376   0.942
  360SOL     OW 1093   1.138   2.242   1.678
  360SOL    HW1 1094   1.093   2.305   1.742
  360SOL    HW2 1095   1.231   2.273   1.661
  361SOL     OW 1096   1.160   2.069   1.477
  361SOL    HW1 1097   1.160   2.133   1.554
  361SOL    HW2 1098   1.188   2.117   1.394
  362SOL     OW 1099   0.040   2.406   1.114
  362SOL    HW1 1100   0.125   2.373   1.073
  362SOL    HW2 1101   0.053   2.421   1.212
  363SOL     OW 1102   0.189   2.382   1.722
  363SOL    HW1 1103   0.248   2.342   1.652
  363SOL    HW2 1104   0.131   2.453   1.681
  364SOL     OW 1105   0.815   2.434   0.325
  364SOL    HW1 1106   0.822   2.345   0.279
  364SOL    HW2 1107   0.721   2.468   0.317
  365SOL     OW 1108   1.657   2.466   1.206
  365SOL    HW1 1109   1.619   2.397   1.268
  365SOL    HW2 1110   1.739   2.430   1.162
  366SOL     OW 1111   0.671   2.326   1.269
  366SOL    HW1 1112   0.637   2.237   1.239
  366SOL    HW2 1113   0.697   2.380   1.189
  367SOL     OW 1114   0.473   2.362   0.191
  367SOL    HW1 1115   0.534   2.442   0.195
  367SOL    HW2 1116   0.378   2.393   0.198
  368SOL     OW 1117   0.903   1.948   0.133
  368SOL    HW1 1118   0.954   1.949   0.047
  368SOL    HW2 1119   0.959   1.906   0.204
  369SOL     OW 1120   1.726   1.997   0.523
  369SOL    HW1 1121   1.799   1.980   0.456
  369SOL    HW2 1122   1.695   1.910   0.561
  370SOL     OW 1123   1.280   2.789   0.672
  370SOL    HW1 1124   1.340   2.708   0.674
  370SOL    HW2 1125   1.320   2.858   0.612
  371SOL     OW 1126   1.841   2.037   0.963
  371SOL    HW1 1127   1.880   1.952   0.927
  371SOL    HW2 1128   1.743   2.039   0.944
  372SOL     OW 1129   0.263   2.188   0.720
  372SOL    HW1 1130   0.184   2.239   0.686
  372SOL    HW2 1131   0.254   2.173   0.818
  373SOL     OW 1132   1.014   2.098   0.971
  373SOL    HW1 1133   1.006   2.062   0.878
  373SOL    HW2 1134   1.012   2.022   1.036
  374SOL     OW 1135   1.709   2.247   1.381
  374SOL    HW1 1136   1.782   2.316   1.385
  374SOL    HW2 1137   1.737   2.172   1.322
  375SOL     OW 1138   0.105   2.875   1.726
  375SOL    HW1 1139   0.028   2.842   1.780
  375SOL    HW2 1140   0.190   2.845   1.768
  376SOL     OW 1141   0.672   2.065   1.489
  376SOL    HW1 1142   0.762   2.049   1.449
  376SOL    HW2 1143   0.680   2.070   1.588
  377SOL     OW 1144   0.075   2.207   0.033
  377SOL    HW1 1145  -0.017   2.179   0.004
  377SOL    HW2 1146   0.106   2.284  -0.023
  378SOL     OW 1147   0.072   2.028   0.318
  378SOL    HW1 1148   0.055   2.111   0.264
  378SOL    HW2 1149   0.162   1.991   0.296
  379SOL     OW 1150   0.716   2.427   1.708
  379SOL    HW1 1151   0.735   2.492   1.782
  379SOL    HW2 1152   0.776   2.347   1.717
  380SOL     OW 1153   1.225   2.187   0.449
  380SOL    HW1 1154   1.290   2.113   0.438
  380SOL    HW2 1155   1.245   2.237   0.533
  381SOL     OW 1156   0.594   2.607   0.652
  381SOL    HW1 1157   0.644   2.692   0.633
  381SOL    HW2 1158   0.506   2.609   0.604
  382SOL     OW 1159   1.777   2.204   1.642
  382SOL    HW1 1160   1.760   2.235   1.548
  382SOL    HW2 1161   1.693   2.167   1.680
  383SOL     OW 1162   0.859   2.818   0.861
  383SOL    HW1 1163   0.913   2.749   0.909
  383SOL    HW2 1164   0.827   2.887   0.927
  384SOL     OW 1165   1.824   2.054   1.227
  384SOL    HW1 1166   1.820   1.964   1.271
  384SOL    HW2 1167   1.827   2.043   1.128
  385SOL     OW 1168   0.428   2.286   0.520
  385SOL    HW1 1169   0.458   2.214   0.458
  385SOL    HW2 1170   0.389   2.246   0.603
  386SOL     OW 1171   0.317   2.409   1.280
  386SOL    HW1 1172   0.355   2.350   1.352
  386SOL    HW2 1173   0.357   2.383   1.192
  387SOL     OW 1174   1.424   2.076   1.112
  387SOL    HW1 1175   1.476   2.011   1.167
  387SOL    HW2 1176   1.375   2.139   1.173
  388SOL     OW 1177   1.001   1.896   1.154
  388SOL    HW1 1178   0.938   1.824   1.123
  388SOL    HW2 1179   1.094   1.860   1.154
  389SOL     OW 1180   1.352   1.914   0.168
  389SOL    HW1 1181   1.387   1.873   0.084
  389SOL    HW2 1182   1.262   1.876   0.188
  390SOL     OW 1183   1.300   2.315   0.691
  390SOL    HW1 1184   1.241   2.395   0.695
  390SOL    HW2 1185   1.315   2.280   0.784
  391SOL     OW 1186   1.593   2.083   0.882
  391SOL    HW1 1187   1.509   2.082   0.936
  391SOL    HW2 1188   1.595   2.166   0.826
  392SOL     OW 1189   0.230   2.490   1.975
  392SOL    HW1 1190   0.137   2.488   2.012
  392SOL    HW2 1191   0.231   2.451   1.883
  393SOL     OW 1192   0.019   2.230   2.509
  393SOL    HW1 1193  -0.063   2.273   2.548
  393SOL    HW2 1194  -0.009   2.157   2.446
  394SOL     OW 1195   1.755   2.469   2.093
  394SOL    HW1 1196   1.743   2.456   1.994
  394SOL    HW2 1197   1.725   2.388   2.142
  395SOL     OW 1198   0.685   2.874   2.527
  395SOL    HW1 1199   0.754   2.858   2.597
  395SOL    HW2 1200   0.612   2.931   2.565
  396SOL     OW 1201   1.603   2.309   2.599
  396SOL    HW1 1202   1.529   2.355   2.549
  396SOL    HW2 1203   1.654   2.377   2.652
  397SOL     OW 1204   0.122   2.505   2.425
  397SOL    HW1 1205   0.077   2.417   2.442
  397SOL    HW2 1206   0.121   2.559   2.509
  398SOL     OW 1207   0.809   1.866   2.364
  398SOL    HW1 1208   0.849   1.957   2.355
  398SOL    HW2 1209   0.709   1.874   2.370
  399SOL     OW 1210   0.598   2.591   2.132
  399SOL    HW1 1211   0.622   2.660   2.064
  399SOL    HW2 1212   0.520   2.624   2.186
  400SOL     OW 1213   1.281   2.207   2.806
  400SOL    HW1 1214   1.195   2.157   2.793
  400SOL    HW2 1215   1.343   2.153   2.862
  401SOL     OW 1216   1.041   2.563   2.291
  401SOL    HW1 1217   1.067   2.559   2.387
  401SOL    HW2 1218   0.956   2.512   2.277
  402SOL     OW 1219   0.076   2.673   2.651
  402SOL    HW1 1220   0.175   2.661   2.660
  402SOL    HW2 1221   0.052   2.768   2.672
  403SOL     OW 1222   0.865   2.210   2.057
  403SOL    HW1 1223   0.924   2.273   2.008
  403SOL    HW2 1224   0.884   2.116   2.028
  404SOL     OW 1225   1.400   1.969   2.288
  404SOL    HW1 1226   1.376   1.932   2.198
  404SOL    HW2 1227   1.499   1.985   2.292
  405SOL     OW 1228   0.382   2.562   2.342
  405SOL    HW1 1229   0.427   2.472   2.339
  405SOL    HW2 1230   0.288   2.551   2.375
  406SOL     OW 1231   0.614   1.984   1.979
  406SOL    HW1 1232   0.712   1.962   1.986
  406SOL    HW2 1233   0.583   1.967   1.886
  407SOL     OW 1234   0.539   1.926   2.374
  407SOL    HW1 1235   0.458   1.927   2.432
  407SOL    HW2 1236   0.542   2.009   2.319
  408SOL     OW 1237   0.297   1.897   2.033
  408SOL    HW1 1238   0.346   1.981   2.012
  408SOL    HW2 1239   0.359   1.832   2.078
  409SOL     OW 1240   0.935   2.098   2.342
  409SOL    HW1 1241   0.887   2.139   2.264
  409SOL    HW2 1242   1.034   2.096   2.323
  410SOL     OW 1243   1.032   2.411   1.878
  410SOL    HW1 1244   0.991   2.493   1.839
  410SOL    HW2 1245   1.096   2.437   1.951
  411SOL     OW 1246   0.866   2.316   2.504
  411SOL    HW1 1247   0.834   2.388   2.442
  411SOL    HW2 1248   0.890   2.235   2.451
  412SOL     OW 1249   1.390   2.437   1.940
  412SOL    HW1 1250   1.336   2.416   2.021
  412SOL    HW2 1251   1.481   2.396   1.949
  413SOL     OW 1252   0.527   2.118   2.190
  413SOL    HW1 1253   0.554   2.059   2.115
  413SOL    HW2 1254   0.527   2.213   2.159
  414SOL     OW 1255   0.705   2.912   2.230
  414SOL    HW1 1256   0.691   2.919   2.329
  414SOL    HW2 1257   0.789   2.861   2.212
  415SOL     OW 1258   1.582   2.501   2.334
  415SOL    HW1 1259   1.551   2.562   2.407
  415SOL    HW2 1260   1.632   2.553   2.265
  416SOL     OW 1261   1.209   2.387   2.137
  416SOL    HW1 1262   1.222   2.303   2.191
  416SOL    HW2 1263   1.180   2.461   2.197
  417SOL     OW 1264   0.307   1.925   2.480
  417SOL    HW1 1265   0.296   2.019   2.513
  417SOL    HW2 1266   0.302   1.862   2.557
  418SOL     OW 1267   1.622   2.229   2.236
  418SOL    HW1 1268   1.624   2.153   2.300
  418SOL    HW2 1269   1.574   2.306   2.276
  419SOL     OW 1270   1.540   2.136   1.987
  419SOL    HW1 1271   1.479   2.061   2.010
  419SOL    HW2 1272   1.562   2.188   2.070
  420SOL     OW 1273   0.040   2.406   2.976
  420SOL    HW1 1274   0.125   2.373   2.935
  420SOL    HW2 1275   0.053   2.421   3.074
  421SOL     OW 1276   0.815   2.434   2.187
  421SOL    HW1 1277   0.822   2.345   2.141
  421SOL    HW2 1278   0.721   2.468   2.179
  422SOL     OW 1279   0.473   2.362   2.053
  422SOL    HW1 1280   0.534   2.442   2.057
  422SOL    HW2 1281   0.378   2.393   2.060
  423SOL     OW 1282   1.726   1.997   2.385
  423SOL    HW1 1283   1.799   1.980   2.318
  423SOL    HW2 1284   1.695   1.910   2.423
  424SOL     OW 1285   1.280   2.789   2.534
  424SOL    HW1 1286   1.340   2.708   2.536
  424SOL    HW2 1287   1.320   2.858   2.474
  425SOL     OW 1288   1.841   2.037   2.825
  425SOL    HW1 1289   1.880   1.952   2.789
  425SOL    HW2 1290   1.743   2.039   2.806
  426SOL     OW 1291   0.263   2.188   2.582
  426SOL    HW1 1292   0.184   2.239   2.548
  426SOL    HW2 1293   0.254   2.173   2.680
  427SOL     OW 1294   0.916   2.772   2.153
  427SOL    HW1 1295   0.979   2.810   2.085
  427SOL    HW2 1296   0.956   2.689   2.192
  428SOL     OW 1297   1.039   2.960   2.558
  428SOL    HW1 1298   0.969   2.913   2.612
  428SOL    HW2 1299   1.098   2.892   2.515
  429SOL     OW 1300   0.075   2.207   1.895
  429SOL    HW1 1301  -0.017   2.179   1.866
  429SOL    HW2 1302   0.106   2.284   1.839
  430SOL     OW 1303   0.072   2.028   2.180
  430SOL    HW1 1304   0.055   2.111   2.126
  430SOL    HW2 1305   0.162   1.991   2.158
  431SOL     OW 1306   1.225   2.187   2.311
  431SOL    HW1 1307   1.290   2.113   2.300
  431SOL    HW2 1308   1.245   2.237   2.395
  432SOL     OW 1309   0.594   2.607   2.514
  432SOL    HW1 1310   0.644   2.692   2.495
  432SOL    HW2 1311   0.506   2.609   2.466
  433SOL     OW 1312   0.428   2.286   2.382
  433SOL    HW1 1313   0.458   2.214   2.320
  433SOL    HW2 1314   0.389   2.246   2.465
  434SOL     OW 1315   1.352   1.914   2.030
  434SOL    HW1 1316   1.387   1.873   1.946
  434SOL    HW2 1317   1.262   1.876   2.050
  435SOL     OW 1318   1.300   2.315   2.553
  435SOL    HW1 1319   1.241   2.395   2.557
  435SOL    HW2 1320   1.315   2.280   2.646
  436SOL     OW 1321   2.092   0.628   0.113
  436SOL    HW1 1322   1.999   0.626   0.150
  436SOL    HW2 1323   2.093   0.589   0.021
  437SOL     OW 1324   2.087   0.275   0.996
  437SOL    HW1 1325   2.122   0.258   1.088
  437SOL    HW2 1326   1.999   0.230   0.984
  438SOL     OW 1327   1.881   0.368   0.647
  438SOL    HW1 1328   1.799   0.411   0.686
  438SOL    HW2 1329   1.853   0.295   0.584
  439SOL     OW 1330   2.431   1.275   1.165
  439SOL    HW1 1331   2.338   1.268   1.128
  439SOL    HW2 1332   2.442   1.364   1.209
  440SOL     OW 1333   2.712   0.798   1.823
  440SOL    HW1 1334   2.708   0.874   1.888
  440SOL    HW2 1335   2.734   0.834   1.732
  441SOL     OW 1336   2.547   1.012   0.665
  441SOL    HW1 1337   2.616   0.996   0.735
  441SOL    HW2 1338   2.474   1.069   0.703
  442SOL     OW 1339   2.548   1.161   1.803
  442SOL    HW1 1340   2.608   1.240   1.817
  442SOL    HW2 1341   2.462   1.192   1.762
  443SOL     OW 1342   2.197   1.435   1.061
  443SOL    HW1 1343   2.119   1.404   1.008
  443SOL    HW2 1344   2.255   1.493   1.004
  444SOL     OW 1345   2.300   0.392   1.499
  444SOL    HW1 1346   2.382   0.336   1.508
  444SOL    HW2 1347   2.219   0.334   1.503
  445SOL     OW 1348   2.093   1.713   0.483
  445SOL    HW1 1349   2.127   1.790   0.537
  445SOL    HW2 1350   2.137   1.713   0.393
  446SOL     OW 1351   2.092   1.434   0.538
  446SOL    HW1 1352   2.066   1.530   0.538
  446SOL    HW2 1353   2.021   1.380   0.583
  447SOL     OW 1354   2.102   1.091   0.886
  447SOL    HW1 1355   2.116   1.007   0.938
  447SOL    HW2 1356   2.047   1.155   0.941
  448SOL     OW 1357   2.482   1.786   1.439
  448SOL    HW1 1358   2.390   1.769   1.474
  448SOL    HW2 1359   2.510   1.878   1.465
  449SOL     OW 1360   2.468   0.964   0.123
  449SOL    HW1 1361   2.475   1.048   0.069
  449SOL    HW2 1362   2.514   0.977   0.211
  450SOL     OW 1363   1.984   0.643   0.563
  450SOL    HW1 1364   1.939   0.555   0.580
  450SOL    HW2 1365   1.983   0.697   0.647
  451SOL     OW 1366   1.889   1.596   0.117
  451SOL    HW1 1367   1.870   1.500   0.138
  451SOL    HW2 1368   1.856   1.654   0.192
  452SOL     OW 1369   1.975   0.737   1.597
  452SOL    HW1 1370   2.063   0.724   1.642
  452SOL    HW2 1371   1.962   0.834   1.575
  453SOL     OW 1372   2.475   1.365   0.726
  453SOL    HW1 1373   2.426   1.278   0.735
  453SOL    HW2 1374   2.452   1.408   0.639
  454SOL     OW 1375   2.671   0.004   0.502
  454SOL    HW1 1376   2.711   0.095   0.493
  454SOL    HW2 1377   2.571   0.012   0.508
  455SOL     OW 1378   2.059   0.976   1.264
  455SOL    HW1 1379   2.148   0.931   1.250
  455SOL    HW2 1380   1.986   0.911   1.245
  456SOL     OW 1381   2.179   0.251   1.801
  456SOL    HW1 1382   2.250   0.322   1.807
  456SOL    HW2 1383   2.091   0.290   1.829
  457SOL     OW 1384   2.460   0.729   0.270
  457SOL    HW1 1385   2.484   0.798   0.202
  457SOL    HW2 1386   2.382   0.762   0.324
  458SOL     OW 1387   1.938   0.811   0.789
  458SOL    HW1 1388   2.037   0.799   0.798
  458SOL    HW2 1389   1.914   0.906   0.810
  459SOL     OW 1390   1.992   1.821   1.571
  459SOL    HW1 1391   1.982   1.806   1.670
  459SOL    HW2 1392   1.906   1.857   1.535
  460SOL     OW 1393   2.412   0.196   0.885
  460SOL    HW1 1394   2.407   0.191   0.985
  460SOL    HW2 1395   2.414   0.292   0.856
  461SOL     OW 1396   2.213   1.801   0.853
  461SOL    HW1 1397   2.263   1.715   0.859
  461SOL    HW2 1398   2.278   1.878   0.850
  462SOL     OW 1399   2.183   0.943   0.242
  462SOL    HW1 1400   2.265   0.982   0.200
  462SOL    HW2 1401   2.156   0.861   0.193
  463SOL     OW 1402   2.323   1.266   1.727
  463SOL    HW1 1403   2.273   1.267   1.641
  463SOL    HW2 1404   2.260   1.248   1.803
  464SOL     OW 1405   2.064   0.285   1.498
  464SOL    HW1 1406   1.984   0.345   1.485
  464SOL    HW2 1407   2.054   0.236   1.584
  465SOL     OW 1408   2.326   1.743   0.323
  465SOL    HW1 1409   2.359   1.782   0.409
  465SOL    HW2 1410   2.402   1.736   0.258
  466SOL     OW 1411   2.111   1.785   1.241
  466SOL    HW1 1412   2.168   1.720   1.291
  466SOL    HW2 1413   2.095   1.752   1.148
  467SOL     OW 1414   2.244   0.700   0.480
  467SOL    HW1 1415   2.289   0.610   0.477
  467SOL    HW2 1416   2.150   0.689   0.513
  468SOL     OW 1417   2.476   0.122   0.117
  468SOL    HW1 1418   2.574   0.100   0.124
  468SOL    HW2 1419   2.445   0.105   0.024
  469SOL     OW 1420   2.665   1.402   0.924
  469SOL    HW1 1421   2.755   1.416   0.882
  469SOL    HW2 1422   2.594   1.404   0.853
  470SOL     OW 1423   2.784   0.503   0.899
  470SOL    HW1 1424   2.759   0.494   0.803
  470SOL    HW2 1425   2.832   0.421   0.930
  471SOL     OW 1426   2.401   0.064   0.512
  471SOL    HW1 1427   2.320   0.065   0.570
  471SOL    HW2 1428   2.404   0.147   0.457
  472SOL     OW 1429   2.159   0.035   0.171
  472SOL    HW1 1430   2.208   0.119   0.150
  472SOL    HW2 1431   2.221  -0.030   0.216
  473SOL     OW 1432   2.321   1.152   0.741
  473SOL    HW1 1433   2.250   1.125   0.806
  473SOL    HW2 1434   2.295   1.124   0.648
  474SOL     OW 1435   1.940   0.556   1.386
  474SOL    HW1 1436   2.032   0.555   1.345
  474SOL    HW2 1437   1.934   0.630   1.453
  475SOL     OW 1438   2.423   0.222   1.147
  475SOL    HW1 1439   2.461   0.138   1.184
  475SOL    HW2 1440   2.335   0.241   1.191
  476SOL     OW 1441   2.350   1.385   0.174
  476SOL    HW1 1442   2.263   1.370   0.221
  476SOL    HW2 1443   2.333   1.411   0.079
  477SOL     OW 1444   2.389   0.256   0.328
  477SOL    HW1 1445   2.416   0.197   0.253
  477SOL    HW2 1446   2.389   0.351   0.297
  478SOL     OW 1447   2.777   0.089   1.402
  478SOL    HW1 1448   2.802   0.069   1.307
  478SOL    HW2 1449   2.849   0.145   1.444
  479SOL     OW 1450   2.272   0.813   1.251
  479SOL    HW1 1451   2.358   0.825   1.301
  479SOL    HW2 1452   2.230   0.726   1.278
  480SOL     OW 1453   1.926   1.564   1.331
  480SOL    HW1 1454   1.880   1.646   1.297
  480SOL    HW2 1455   2.024   1.583   1.340
  481SOL     OW 1456   2.229   1.100   0.501
  481SOL    HW1 1457   2.222   1.183   0.445
  481SOL    HW2 1458   2.233   1.020   0.441
  482SOL     OW 1459   2.428   0.537   0.865
  482SOL    HW1 1460   2.440   0.603   0.791
  482SOL    HW2 1461   2.474   0.571   0.948
  483SOL     OW 1462   2.216   1.510   1.329
  483SOL    HW1 1463   2.195   1.466   1.242
  483SOL    HW2 1464   2.313   1.536   1.332
  484SOL     OW 1465   2.264   0.751   1.598
  484SOL    HW1 1466   2.332   0.806   1.551
  484SOL    HW2 1467   2.304   0.663   1.625
  485SOL     OW 1468   2.366   0.050   1.740
  485SOL    HW1 1469   2.324  -0.007   1.670
  485SOL    HW2 1470   2.300   0.119   1.772
  486SOL     OW 1471   2.435   0.870   1.029
  486SOL    HW1 1472   2.479   0.959   1.020
  486SOL    HW2 1473   2.372   0.870   1.106
  487SOL     OW 1474   2.169   0.213   1.231
  487SOL    HW1 1475   2.146   0.250   1.321
  487SOL    HW2 1476   2.139   0.118   1.225
  488SOL     OW 1477   1.899   1.310   1.282
  488SOL    HW1 1478   1.952   1.261   1.350
  488SOL    HW2 1479   1.921   1.408   1.287
  489SOL     OW 1480   2.169   0.063   0.618
  489SOL    HW1 1481   2.158   0.157   0.651
  489SOL    HW2 1482   2.164   0.000   0.695
  490SOL     OW 1483   2.212   0.898   1.804
  490SOL    HW1 1484   2.288   0.942   1.852
  490SOL    HW2 1485   2.247   0.851   1.722
  491SOL     OW 1486   2.930   1.333   0.849
  491SOL    HW1 1487   2.937   1.249   0.794
  491SOL    HW2 1488   2.992   1.402   0.813
  492SOL     OW 1489   2.181   0.810   0.949
  492SOL    HW1 1490   2.274   0.846   0.954
  492SOL    HW2 1491   2.175   0.725   1.001
  493SOL     OW 1492   2.201   0.509   1.006
  493SOL    HW1 1493   2.149   0.426   0.989
  493SOL    HW2 1494   2.278   0.514   0.942
  494SOL     OW 1495   1.870   1.326   0.200
  494SOL    HW1 1496   1.777   1.347   0.169
  494SOL    HW2 1497   1.880   1.227   0.213
  495SOL     OW 1498   1.950   1.801   0.927
  495SOL    HW1 1499   1.908   1.715   0.900
  495SOL    HW2 1500   2.044   1.804   0.893
  496SOL     OW 1501   2.366   1.568   0.910
  496SOL    HW1 1502   2.432   1.642   0.919
  496SOL    HW2 1503   2.410   1.489   0.868
  497SOL     OW 1504   1.902   0.544   1.114
  497SOL    HW1 1505   1.987   0.511   1.073
  497SOL    HW2 1506   1.915   0.559   1.212
  498SOL     OW 1507   2.051   0.520   1.722
  498SOL    HW1 1508   2.110   0.480   1.652
  498SOL    HW2 1509   1.993   0.591   1.681
  499SOL     OW 1510   2.114   1.564   1.744
  499SOL    HW1 1511   2.084   1.621   1.820
  499SOL    HW2 1512   2.107   1.467   1.770
  500SOL     OW 1513   2.533   0.464   1.269
  500SOL    HW1 1514   2.499   0.375   1.239
  500SOL    HW2 1515   2.559   0.518   1.189
  501SOL     OW 1516   2.335   0.500   0.191
  501SOL    HW1 1517   2.396   0.580   0.195
  501SOL    HW2 1518   2.240   0.531   0.198
  502SOL     OW 1519   2.021   1.137   1.466
  502SOL    HW1 1520   2.043   1.076   1.542
  502SOL    HW2 1521   2.031   1.088   1.380
  503SOL     OW 1522   1.945   1.258   1.022
  503SOL    HW1 1523   1.940   1.257   1.122
  503SOL    HW2 1524   1.862   1.217   0.984
  504SOL     OW 1525   2.550   1.662   1.716
  504SOL    HW1 1526   2.494   1.743   1.725
  504SOL    HW2 1527   2.602   1.666   1.630
  505SOL     OW 1528   1.992   1.794   1.851
  505SOL    HW1 1529   1.951   1.720   1.904
  505SOL    HW2 1530   2.056   1.845   1.909
  506SOL     OW 1531   2.534   1.616   0.154
  506SOL    HW1 1532   2.543   1.626   0.055
  506SOL    HW2 1533   2.494   1.527   0.175
  507SOL     OW 1534   2.125   0.326   0.720
  507SOL    HW1 1535   2.046   0.377   0.686
  507SOL    HW2 1536   2.116   0.311   0.818
  508SOL     OW 1537   2.234   1.288   1.490
  508SOL    HW1 1538   2.221   1.381   1.456
  508SOL    HW2 1539   2.150   1.236   1.477
  509SOL     OW 1540   2.901   1.098   0.696
  509SOL    HW1 1541   2.831   1.051   0.750
  509SOL    HW2 1542   2.960   1.030   0.653
  510SOL     OW 1543   2.452   1.487   0.491
  510SOL    HW1 1544   2.494   1.429   0.421
  510SOL    HW2 1545   2.408   1.566   0.447
  511SOL     OW 1546   2.117   1.348   0.290
  511SOL    HW1 1547   2.021   1.349   0.263
  511SOL    HW2 1548   2.129   1.401   0.374
  512SOL     OW 1549   1.967   1.013   1.726
  512SOL    HW1 1550   1.890   0.980   1.780
  512SOL    HW2 1551   2.052   0.983   1.768
  513SOL     OW 1552   2.534   0.203   1.489
  513SOL    HW1 1553   2.624   0.187   1.449
  513SOL    HW2 1554   2.542   0.208   1.588
  514SOL     OW 1555   1.937   0.345   0.033
  514SOL    HW1 1556   1.845   0.317   0.004
  514SOL    HW2 1557   1.968   0.422  -0.023
  515SOL     OW 1558   1.934   0.166   0.318
  515SOL    HW1 1559   1.917   0.249   0.264
  515SOL    HW2 1560   2.024   0.129   0.296
  516SOL     OW 1561   2.475   0.842   1.431
  516SOL    HW1 1562   2.531   0.923   1.414
  516SOL    HW2 1563   2.534   0.762   1.434
  517SOL     OW 1564   2.578   0.565   1.708
  517SOL    HW1 1565   2.597   0.630   1.782
  517SOL    HW2 1566   2.638   0.485   1.717
  518SOL     OW 1567   2.252   1.741   1.560
  518SOL    HW1 1568   2.161   1.782   1.558
  518SOL    HW2 1569   2.245   1.647   1.592
  519SOL     OW 1570   2.456   0.745   0.652
  519SOL    HW1 1571   2.506   0.830   0.633
  519SOL    HW2 1572   2.368   0.747   0.604
  520SOL     OW 1573   2.523   1.790   0.953
  520SOL    HW1 1574   2.477   1.878   0.940
  520SOL    HW2 1575   2.622   1.802   0.946
  521SOL     OW 1576   2.083   1.314   1.844
  521SOL    HW1 1577   2.018   1.241   1.823
  521SOL    HW2 1578   2.087   1.328   1.942
  522SOL     OW 1579   1.941   1.240   0.653
  522SOL    HW1 1580   1.940   1.193   0.741
  522SOL    HW2 1581   2.023   1.212   0.602
  523SOL     OW 1582   2.534   1.391   1.624
  523SOL    HW1 1583   2.456   1.341   1.662
  523SOL    HW2 1584   2.531   1.486   1.655
  524SOL     OW 1585   2.290   0.424   0.520
  524SOL    HW1 1586   2.320   0.352   0.458
  524SOL    HW2 1587   2.251   0.384   0.603
  525SOL     OW 1588   2.179   0.547   1.280
  525SOL    HW1 1589   2.217   0.488   1.352
  525SOL    HW2 1590   2.219   0.521   1.192
  526SOL     OW 1591   2.674   1.586   0.687
  526SOL    HW1 1592   2.706   1.596   0.593
  526SOL    HW2 1593   2.595   1.524   0.689
  527SOL     OW 1594   2.480   1.567   1.284
  527SOL    HW1 1595   2.475   1.649   1.341
  527SOL    HW2 1596   2.569   1.564   1.239
  528SOL     OW 1597   1.901   1.077   0.300
  528SOL    HW1 1598   2.000   1.066   0.291
  528SOL    HW2 1599   1.861   0.991   0.332
  529SOL     OW 1600   2.092   0.628   1.975
  529SOL    HW1 1601   1.999   0.626   2.012
  529SOL    HW2 1602   2.093   0.589   1.883
  530SOL     OW 1603   1.881   0.368   2.509
  530SOL    HW1 1604   1.799   0.411   2.548
  530SOL    HW2 1605   1.853   0.295   2.446
  531SOL     OW 1606   2.547   1.012   2.527
  531SOL    HW1 1607   2.616   0.996   2.597
  531SOL    HW2 1608   2.474   1.069   2.565
  532SOL     OW 1609   2.093   1.713   2.345
  532SOL    HW1 1610   2.127   1.790   2.399
  532SOL    HW2 1611   2.137   1.713   2.255
  533SOL     OW 1612   2.092   1.434   2.400
  533SOL    HW1 1613   2.066   1.530   2.400
  533SOL    HW2 1614   2.021   1.380   2.445
  534SOL     OW 1615   2.102   1.091   2.748
  534SOL    HW1 1616   2.116   1.007   2.800
  534SOL    HW2 1617   2.047   1.155   2.803
  535SOL     OW 1618   2.468   0.964   1.985
  535SOL    HW1 1619   2.475   1.048   1.931
  535SOL    HW2 1620   2.514   0.977   2.073
  536SOL     OW 1621   1.984   0.643   2.425
  536SOL    HW1 1622   1.939   0.555   2.442
  536SOL    HW2 1623   1.983   0.697   2.509
  537SOL     OW 1624   1.889   1.596   1.979
  537SOL    HW1 1625   1.870   1.500   2.000
  537SOL    HW2 1626   1.856   1.654   2.054
  538SOL     OW 1627   2.475   1.365   2.588
  538SOL    HW1 1628   2.426   1.278   2.597
  538SOL    HW2 1629   2.452   1.408   2.501
  539SOL     OW 1630   2.671   0.004   2.364
  539SOL    HW1 1631   2.711   0.095   2.355
  539SOL    HW2 1632   2.571   0.012   2.370
  540SOL     OW 1633   2.460   0.729   2.132
  540SOL    HW1 1634   2.484   0.798   2.064
  540SOL    HW2 1635   2.382   0.762   2.186
  541SOL     OW 1636   1.938   0.811   2.651
  541SOL    HW1 1637   2.037   0.799   2.660
  541SOL    HW2 1638   1.914   0.906   2.672
  542SOL     OW 1639   2.213   1.801   2.715
  542SOL    HW1 1640   2.263   1.715   2.721
  542SOL    HW2 1641   2.278   1.878   2.712
  543SOL     OW 1642   2.183   0.943   2.104
  543SOL    HW1 1643   2.265   0.982   2.062
  543SOL    HW2 1644   2.156   0.861   2.055
  544SOL     OW 1645   2.326   1.743   2.185
  544SOL    HW1 1646   2.359   1.782   2.271
  544SOL    HW2 1647   2.402   1.736   2.120
  545SOL     OW 1648   2.244   0.700   2.342
  545SOL    HW1 1649   2.289   0.610   2.339
  545SOL    HW2 1650   2.150   0.689   2.375
  546SOL     OW 1651   2.476   0.122   1.979
  546SOL    HW1 1652   2.574   0.100   1.986
  546SOL    HW2 1653   2.445   0.105   1.886
  547SOL     OW 1654   2.401   0.064   2.374
  547SOL    HW1 1655   2.320   0.065   2.432
  547SOL    HW2 1656   2.404   0.147   2.319
  548SOL     OW 1657   2.159   0.035   2.033
  548SOL    HW1 1658   2.208   0.119   2.012
  548SOL    HW2 1659   2.221  -0.030   2.078
  549SOL     OW 1660   2.321   1.152   2.603
  549SOL    HW1 1661   2.250   1.125   2.668
  549SOL    HW2 1662   2.295   1.124   2.510
  550SOL     OW 1663   2.350   1.385   2.036
  550SOL    HW1 1664   2.263   1.370   2.083
  550SOL    HW2 1665   2.333   1.411   1.941
  551SOL     OW 1666   2.389   0.256   2.190
  551SOL    HW1 1667   2.416   0.197   2.115
  551SOL    HW2 1668   2.389   0.351   2.159
  552SOL     OW 1669   2.229   1.100   2.363
  552SOL    HW1 1670   2.222   1.183   2.307
  552SOL    HW2 1671   2.233   1.020   2.303
  553SOL     OW 1672   2.169   0.063   2.480
  553SOL    HW1 1673   2.158   0.157   2.513
  553SOL    HW2 1674   2.164   0.000   2.557
  554SOL     OW 1675   2.930   1.333   2.711
  554SOL    HW1 1676   2.937   1.249   2.656
  554SOL    HW2 1677   2.992   1.402   2.675
  555SOL     OW 1678   1.870   1.326   2.062
  555SOL    HW1 1679   1.777   1.347   2.031
  555SOL    HW2 1680   1.880   1.227   2.075
  556SOL     OW 1681   2.677   0.572   2.187
  556SOL    HW1 1682   2.684   0.483   2.141
  556SOL    HW2 1683   2.583   0.606   2.179
  557SOL     OW 1684   2.335   0.500   2.053
  557SOL    HW1 1685   2.396   0.580   2.057
  557SOL    HW2 1686   2.240   0.531   2.060
  558SOL     OW 1687   2.534   1.616   2.016
  558SOL    HW1 1688   2.543   1.626   1.917
  558SOL    HW2 1689   2.494   1.527   2.037
  559SOL     OW 1690   2.125   0.326   2.582
  559SOL    HW1 1691   2.046   0.377   2.548
  559SOL    HW2 1692   2.116   0.311   2.680
  560SOL     OW 1693   2.901   1.098   2.558
  560SOL    HW1 1694   2.831   1.051   2.612
  560SOL    HW2 1695   2.960   1.030   2.515
  561SOL     OW 1696   2.452   1.487   2.353
  561SOL    HW1 1697   2.494   1.429   2.283
  561SOL    HW2 1698   2.408   1.566   2.309
  562SOL     OW 1699   2.117   1.348   2.152
  562SOL    HW1 1700   2.021   1.349   2.125
  562SOL    HW2 1701   2.129   1.401   2.236
  563SOL     OW 1702   1.937   0.345   1.895
  563SOL    HW1 1703   1.845   0.317   1.866
  563SOL    HW2 1704   1.968   0.422   1.839
  564SOL     OW 1705   1.934   0.166   2.180
  564SOL    HW1 1706   1.917   0.249   2.126
  564SOL    HW2 1707   2.024   0.129   2.158
  565SOL     OW 1708   2.456   0.745   2.514
  565SOL    HW1 1709   2.506   0.830   2.495
  565SOL    HW2 1710   2.368   0.747   2.466
  566SOL     OW 1711   2.523   1.790   2.815
  566SOL    HW1 1712   2.477   1.878   2.802
  566SOL    HW2 1713   2.622   1.802   2.808
  567SOL     OW 1714   1.941   1.240   2.515
  567SOL    HW1 1715   1.940   1.193   2.603
  567SOL    HW2 1716   2.023   1.212   2.464
  568SOL     OW 1717   2.290   0.424   2.382
  568SOL    HW1 1718   2.320   0.352   2.320
  568SOL    HW2 1719   2.251   0.384   2.465
  569SOL     OW 1720   2.674   1.586   2.549
  569SOL    HW1 1721   2.706   1.596   2.455
  569SOL    HW2 1722   2.595   1.524   2.551
  570SOL     OW 1723   1.901   1.077   2.162
  570SOL    HW1 1724   2.000   1.066   2.153
  570SOL    HW2 1725   1.861   0.991   2.194
  571SOL     OW 1726   2.092   2.490   0.113
  571SOL    HW1 1727   1.999   2.488   0.150
  571SOL    HW2 1728   2.093   2.451   0.021
  572SOL     OW 1729   2.087   2.137   0.996
  572SOL    HW1 1730   2.122   2.120   1.088
  572SOL    HW2 1731   1.999   2.092   0.984
  573SOL     OW 1732   1.881   2.230   0.647
  573SOL    HW1 1733   1.799   2.273   0.686
  573SOL    HW2 1734   1.853   2.157   0.584
  574SOL     OW 1735   2.712   2.660   1.823
  574SOL    HW1 1736   2.708   2.736   1.888
  574SOL    HW2 1737   2.734   2.696   1.732
  575SOL     OW 1738   2.547   2.874   0.665
  575SOL    HW1 1739   2.616   2.858   0.735
  575SOL    HW2 1740   2.474   2.931   0.703
  576SOL     OW 1741   2.300   2.254   1.499
  576SOL    HW1 1742   2.382   2.198   1.508
  576SOL    HW2 1743   2.219   2.196   1.503
  577SOL     OW 1744   1.984   2.505   0.563
  577SOL    HW1 1745   1.939   2.417   0.580
  577SOL    HW2 1746   1.983   2.559   0.647
  578SOL     OW 1747   1.975   2.599   1.597
  578SOL    HW1 1748   2.063   2.586   1.642
  578SOL    HW2 1749   1.962   2.696   1.575
  579SOL     OW 1750   2.671   1.866   0.502
  579SOL    HW1 1751   2.711   1.957   0.493
  579SOL    HW2 1752   2.571   1.874   0.508
  580SOL     OW 1753   2.179   2.113   1.801
  580SOL    HW1 1754   2.250   2.184   1.807
  580SOL    HW2 1755   2.091   2.152   1.829
  581SOL     OW 1756   2.460   2.591   0.270
  581SOL    HW1 1757   2.484   2.660   0.202
  581SOL    HW2 1758   2.382   2.624   0.324
  582SOL     OW 1759   2.412   2.058   0.885
  582SOL    HW1 1760   2.407   2.053   0.985
  582SOL    HW2 1761   2.414   2.154   0.856
  583SOL     OW 1762   2.064   2.147   1.498
  583SOL    HW1 1763   1.984   2.207   1.485
  583SOL    HW2 1764   2.054   2.098   1.584
  584SOL     OW 1765   2.244   2.562   0.480
  584SOL    HW1 1766   2.289   2.472   0.477
  584SOL    HW2 1767   2.150   2.551   0.513
  585SOL     OW 1768   2.784   2.365   0.899
  585SOL    HW1 1769   2.759   2.356   0.803
  585SOL    HW2 1770   2.832   2.283   0.930
  586SOL     OW 1771   2.401   1.926   0.512
  586SOL    HW1 1772   2.320   1.927   0.570
  586SOL    HW2 1773   2.404   2.009   0.457
  587SOL     OW 1774   2.159   1.897   0.171
  587SOL    HW1 1775   2.208   1.981   0.150
  587SOL    HW2 1776   2.221   1.832   0.216
  588SOL     OW 1777   1.940   2.418   1.386
  588SOL    HW1 1778   2.032   2.417   1.345
  588SOL    HW2 1779   1.934   2.492   1.453
  589SOL     OW 1780   2.423   2.084   1.147
  589SOL    HW1 1781   2.461   2.000   1.184
  589SOL    HW2 1782   2.335   2.103   1.191
  590SOL     OW 1783   2.389   2.118   0.328
  590SOL    HW1 1784   2.416   2.059   0.253
  590SOL    HW2 1785   2.389   2.213   0.297
  591SOL     OW 1786   2.777   1.951   1.402
  591SOL    HW1 1787   2.802   1.931   1.307
  591SOL    HW2 1788   2.849   2.007   1.444
  592SOL     OW 1789   2.272   2.675   1.251
  592SOL    HW1 1790   2.358   2.687   1.301
  592SOL    HW2 1791   2.230   2.588   1.278
  593SOL     OW 1792   2.428   2.399   0.865
  593SOL    HW1 1793   2.440   2.465   0.791
  593SOL    HW2 1794   2.474   2.433   0.948
  594SOL     OW 1795   2.875   1.967   1.770
  594SOL    HW1 1796   2.881   2.052   1.718
  594SOL    HW2 1797   2.907   1.891   1.713
  595SOL     OW 1798   2.366   1.912   1.740
  595SOL    HW1 1799   2.324   1.855   1.670
  595SOL    HW2 1800   2.300   1.981   1.772
  596SOL     OW 1801   2.169   2.075   1.231
  596SOL    HW1 1802   2.146   2.112   1.321
  596SOL    HW2 1803   2.139   1.980   1.225
  597SOL     OW 1804   2.169   1.925   0.618
  597SOL    HW1 1805   2.158   2.019   0.651
  597SOL    HW2 1806   2.164   1.862   0.695
  598SOL     OW 1807   2.181   2.672   0.949
  598SOL    HW1 1808   2.274   2.708   0.954
  598SOL    HW2 1809   2.175   2.587   1.001
  599SOL     OW 1810   2.201   2.371   1.006
  599SOL    HW1 1811   2.149   2.288   0.989
  599SOL    HW2 1812   2.278   2.376   0.942
  600SOL     OW 1813   1.902   2.406   1.114
  600SOL    HW1 1814   1.987   2.373   1.073
  600SOL    HW2 1815   1.915   2.421   1.212
  601SOL     OW 1816   2.051   2.382   1.722
  601SOL    HW1 1817   2.110   2.342   1.652
  601SOL    HW2 1818   1.993   2.453   1.681
  602SOL     OW 1819   2.533   2.326   1.269
  602SOL    HW1 1820   2.499   2.237   1.239
  602SOL    HW2 1821   2.559   2.380   1.189
  603SOL     OW 1822   2.335   2.362   0.191
  603SOL    HW1 1823   2.396   2.442   0.195
  603SOL    HW2 1824   2.240   2.393   0.198
  604SOL     OW 1825   2.125   2.188   0.720
  604SOL    HW1 1826   2.046   2.239   0.686
  604SOL    HW2 1827   2.116   2.173   0.818
  605SOL     OW 1828   1.967   2.875   1.726
  605SOL    HW1 1829   1.890   2.842   1.780
  605SOL    HW2 1830   2.052   2.845   1.768
  606SOL     OW 1831   2.534   2.065   1.489
  606SOL    HW1 1832   2.624   2.049   1.449
  606SOL    HW2 1833   2.542   2.070   1.588
  607SOL     OW 1834   1.937   2.207   0.033
  607SOL    HW1 1835   1.845   2.179   0.004
  607SOL    HW2 1836   1.968   2.284  -0.023
  608SOL     OW 1837   1.934   2.028   0.318
  608SOL    HW1 1838   1.917   2.111   0.264
  608SOL    HW2 1839   2.024   1.991   0.296
  609SOL     OW 1840   2.578   2.427   1.708
  609SOL    HW1 1841   2.597   2.492   1.782
  609SOL    HW2 1842   2.638   2.347   1.717
  610SOL     OW 1843   2.456   2.607   0.652
  610SOL    HW1 1844   2.506   2.692   0.633
  610SOL    HW2 1845   2.368   2.609   0.604
  611SOL     OW 1846   2.290   2.286   0.520
  611SOL    HW1 1847   2.320   2.214   0.458
  611SOL    HW2 1848   2.251   2.246   0.603
  612SOL     OW 1849   2.179   2.409   1.280
  612SOL    HW1 1850   2.217   2.350   1.352
  612SOL    HW2 1851   2.219   2.383   1.192
  613SOL     OW 1852   2.092   2.490   1.975
  613SOL    HW1 1853   1.999   2.488   2.012
  613SOL    HW2 1854   2.093   2.451   1.883
  614SOL     OW 1855   1.881   2.230   2.509
  614SOL    HW1 1856   1.799   2.273   2.548
  614SOL    HW2 1857   1.853   2.157   2.446
  615SOL     OW 1858   2.547   2.874   2.527
  615SOL    HW1 1859   2.616   2.858   2.597
  615SOL    HW2 1860   2.474   2.931   2.565
  616SOL     OW 1861   1.984   2.505   2.425
  616SOL    HW1 1862   1.939   2.417   2.442
  616SOL    HW2 1863   1.983   2.559   2.509
  617SOL     OW 1864   2.671   1.866   2.364
  617SOL    HW1 1865   2.711   1.957   2.355
  617SOL    HW2 1866   2.571   1.874   2.370
  618SOL     OW 1867   2.460   2.591   2.132
  618SOL    HW1 1868   2.484   2.660   2.064
  618SOL    HW2 1869   2.382   2.624   2.186
  619SOL     OW 1870   2.244   2.562   2.342
  619SOL    HW1 1871   2.289   2.472   2.339
  619SOL    HW2 1872   2.150   2.551   2.375
  620SOL     OW 1873   2.476   1.984   1.979
  620SOL    HW1 1874   2.574   1.962   1.986
  620SOL    HW2 1875   2.445   1.967   1.886
  621SOL     OW 1876   2.401   1.926   2.374
  621SOL    HW1 1877   2.320   1.927   2.432
  621SOL    HW2 1878   2.404   2.009   2.319
  622SOL     OW 1879   2.159   1.897   2.033
  622SOL    HW1 1880   2.208   1.981   2.012
  622SOL    HW2 1881   2.221   1.832   2.078
  623SOL     OW 1882   2.389   2.118   2.190
  623SOL    HW1 1883   2.416   2.059   2.115
  623SOL    HW2 1884   2.389   2.213   2.159
  624SOL     OW 1885   2.169   1.925   2.480
  624SOL    HW1 1886   2.158   2.019   2.513
  624SOL    HW2 1887   2.164   1.862   2.557
  625SOL     OW 1888   2.677   2.434   2.187
  625SOL    HW1 1889   2.684   2.345   2.141
  625SOL    HW2 1890   2.583   2.468   2.179
  626SOL     OW 1891   2.335   2.362   2.053
  626SOL    HW1 1892   2.396   2.442   2.057
  626SOL    HW2 1893   2.240   2.393   2.060
  627SOL     OW 1894   2.125   2.188   2.582
  627SOL    HW1 1895   2.046   2.239   2.548
  627SOL    HW2 1896   2.116   2.173   2.680
  628SOL     OW 1897   1.937   2.207   1.895
  628SOL    HW1 1898   1.845   2.179   1.866
  628SOL    HW2 1899   1.968   2.284   1.839
  629SOL     OW 1900   1.934   2.028   2.180
  629SOL    HW1 1901   1.917   2.111   2.126
  629SOL    HW2 1902   2.024   1.991   2.158
  630SOL     OW 1903   2.456   2.607   2.514
  630SOL    HW1 1904   2.506   2.692   2.495
  630SOL    HW2 1905   2.368   2.609   2.466
  631SOL     OW 1906   2.290   2.286   2.382
  631SOL    HW1 1907   2.320   2.214   2.320
  631SOL    HW2 1908   2.251   2.246   2.465
   2.68798   2.68798   2.68798
