; mobley_6416775_GMX.itp created by acpype (v: 2023.10.27) on Thu May 14 13:44:40 2026

[ atomtypes ]
;name   bond_type     mass     charge   ptype   sigma         epsilon       Amb
 c5       c5          0.00000  0.00000   A     3.39771e-01   4.51035e-01 ; 1.91  0.1078
 c3       c3          0.00000  0.00000   A     3.39771e-01   4.51035e-01 ; 1.91  0.1078
 hc       hc          0.00000  0.00000   A     2.60018e-01   8.70272e-02 ; 1.46  0.0208

[ moleculetype ]
;name            nrexcl
 mobley_6416775   3

[ atoms ]
;   nr  type  resi  res  atom  cgnr     charge      mass       ; qtot   bond_type
     1   c5     1   MOL    C1    1    -0.078400     12.01000 ; qtot -0.078
     2   c5     1   MOL    C2    2    -0.078400     12.01000 ; qtot -0.157
     3   c5     1   MOL    C3    3    -0.076900     12.01000 ; qtot -0.234
     4   c5     1   MOL    C4    4    -0.076900     12.01000 ; qtot -0.311
     5   c5     1   MOL    C5    5    -0.066700     12.01000 ; qtot -0.377
     6   c3     1   MOL    C6    6    -0.095100     12.01000 ; qtot -0.472
     7   c3     1   MOL    C7    7    -0.072400     12.01000 ; qtot -0.545
     8   c3     1   MOL    C8    8    -0.081400     12.01000 ; qtot -0.626
     9   hc     1   MOL    H1    9     0.039200      1.00800 ; qtot -0.587
    10   hc     1   MOL    H2   10     0.039200      1.00800 ; qtot -0.548
    11   hc     1   MOL    H3   11     0.039200      1.00800 ; qtot -0.509
    12   hc     1   MOL    H4   12     0.039200      1.00800 ; qtot -0.469
    13   hc     1   MOL    H5   13     0.040950      1.00800 ; qtot -0.428
    14   hc     1   MOL    H6   14     0.040950      1.00800 ; qtot -0.388
    15   hc     1   MOL    H7   15     0.040950      1.00800 ; qtot -0.347
    16   hc     1   MOL    H8   16     0.040950      1.00800 ; qtot -0.306
    17   hc     1   MOL    H9   17     0.047700      1.00800 ; qtot -0.258
    18   hc     1   MOL   H10   18     0.032700      1.00800 ; qtot -0.225
    19   hc     1   MOL   H11   19     0.032700      1.00800 ; qtot -0.193
    20   hc     1   MOL   H12   20     0.032700      1.00800 ; qtot -0.160
    21   hc     1   MOL   H13   21     0.040700      1.00800 ; qtot -0.119
    22   hc     1   MOL   H14   22     0.040700      1.00800 ; qtot -0.078
    23   hc     1   MOL   H15   23     0.039200      1.00800 ; qtot -0.039
    24   hc     1   MOL   H16   24     0.039200      1.00800 ; qtot -0.000

[ bonds ]
;   ai     aj funct   r             k
     1      2   1    1.5483e-01    1.8418e+05 ;     C1 - C2    
     1      3   1    1.5483e-01    1.8418e+05 ;     C1 - C3    
     1      9   1    1.0954e-01    2.8989e+05 ;     C1 - H1    
     1     10   1    1.0954e-01    2.8989e+05 ;     C1 - H2    
     2      4   1    1.5483e-01    1.8418e+05 ;     C2 - C4    
     2     11   1    1.0954e-01    2.8989e+05 ;     C2 - H3    
     2     12   1    1.0954e-01    2.8989e+05 ;     C2 - H4    
     3      5   1    1.5483e-01    1.8418e+05 ;     C3 - C5    
     3     13   1    1.0954e-01    2.8989e+05 ;     C3 - H5    
     3     14   1    1.0954e-01    2.8989e+05 ;     C3 - H6    
     4      5   1    1.5483e-01    1.8418e+05 ;     C4 - C5    
     4     15   1    1.0954e-01    2.8989e+05 ;     C4 - H7    
     4     16   1    1.0954e-01    2.8989e+05 ;     C4 - H8    
     5      7   1    1.5372e-01    1.9049e+05 ;     C5 - C7    
     5     17   1    1.0954e-01    2.8989e+05 ;     C5 - H9    
     6      8   1    1.5354e-01    1.9154e+05 ;     C6 - C8    
     6     18   1    1.0962e-01    2.8891e+05 ;     C6 - H10   
     6     19   1    1.0962e-01    2.8891e+05 ;     C6 - H11   
     6     20   1    1.0962e-01    2.8891e+05 ;     C6 - H12   
     7      8   1    1.5354e-01    1.9154e+05 ;     C7 - C8    
     7     21   1    1.0962e-01    2.8891e+05 ;     C7 - H13   
     7     22   1    1.0962e-01    2.8891e+05 ;     C7 - H14   
     8     23   1    1.0962e-01    2.8891e+05 ;     C8 - H15   
     8     24   1    1.0962e-01    2.8891e+05 ;     C8 - H16   

[ pairs ]
;   ai     aj    funct
     1      7      1 ;     C1 - C7    
     1     15      1 ;     C1 - H7    
     1     16      1 ;     C1 - H8    
     1     17      1 ;     C1 - H9    
     2      7      1 ;     C2 - C7    
     2     13      1 ;     C2 - H5    
     2     14      1 ;     C2 - H6    
     2     17      1 ;     C2 - H9    
     3      8      1 ;     C3 - C8    
     3     11      1 ;     C3 - H3    
     3     12      1 ;     C3 - H4    
     3     15      1 ;     C3 - H7    
     3     16      1 ;     C3 - H8    
     3     21      1 ;     C3 - H13   
     3     22      1 ;     C3 - H14   
     4      8      1 ;     C4 - C8    
     4     13      1 ;     C4 - H5    
     4     14      1 ;     C4 - H6    
     4     21      1 ;     C4 - H13   
     4     22      1 ;     C4 - H14   
     5      6      1 ;     C5 - C6    
     5     11      1 ;     C5 - H3    
     5     12      1 ;     C5 - H4    
     5     23      1 ;     C5 - H15   
     5     24      1 ;     C5 - H16   
     6     21      1 ;     C6 - H13   
     6     22      1 ;     C6 - H14   
     7     13      1 ;     C7 - H5    
     7     14      1 ;     C7 - H6    
     7     15      1 ;     C7 - H7    
     7     16      1 ;     C7 - H8    
     7     18      1 ;     C7 - H10   
     7     19      1 ;     C7 - H11   
     7     20      1 ;     C7 - H12   
     8     17      1 ;     C8 - H9    
     9      4      1 ;     H1 - C4    
     9      5      1 ;     H1 - C5    
     9     11      1 ;     H1 - H3    
     9     12      1 ;     H1 - H4    
     9     13      1 ;     H1 - H5    
     9     14      1 ;     H1 - H6    
    10      4      1 ;     H2 - C4    
    10      5      1 ;     H2 - C5    
    10     11      1 ;     H2 - H3    
    10     12      1 ;     H2 - H4    
    10     13      1 ;     H2 - H5    
    10     14      1 ;     H2 - H6    
    11     15      1 ;     H3 - H7    
    11     16      1 ;     H3 - H8    
    12     15      1 ;     H4 - H7    
    12     16      1 ;     H4 - H8    
    13     17      1 ;     H5 - H9    
    14     17      1 ;     H6 - H9    
    15     17      1 ;     H7 - H9    
    16     17      1 ;     H8 - H9    
    17     21      1 ;     H9 - H13   
    17     22      1 ;     H9 - H14   
    18     23      1 ;    H10 - H15   
    18     24      1 ;    H10 - H16   
    19     23      1 ;    H11 - H15   
    19     24      1 ;    H11 - H16   
    20     23      1 ;    H12 - H15   
    20     24      1 ;    H12 - H16   
    21     23      1 ;    H13 - H15   
    21     24      1 ;    H13 - H16   
    22     23      1 ;    H14 - H15   
    22     24      1 ;    H14 - H16   

[ angles ]
;   ai     aj     ak    funct   theta         cth
     1      2      4      1    1.0383e+02    5.1748e+02 ;     C1 - C2     - C4    
     1      2     11      1    1.1117e+02    3.5690e+02 ;     C1 - C2     - H3    
     1      2     12      1    1.1117e+02    3.5690e+02 ;     C1 - C2     - H4    
     1      3      5      1    1.0383e+02    5.1748e+02 ;     C1 - C3     - C5    
     1      3     13      1    1.1117e+02    3.5690e+02 ;     C1 - C3     - H5    
     1      3     14      1    1.1117e+02    3.5690e+02 ;     C1 - C3     - H6    
     2      1      3      1    1.0383e+02    5.1748e+02 ;     C2 - C1     - C3    
     2      1      9      1    1.1117e+02    3.5690e+02 ;     C2 - C1     - H1    
     2      1     10      1    1.1117e+02    3.5690e+02 ;     C2 - C1     - H2    
     2      4      5      1    1.0383e+02    5.1748e+02 ;     C2 - C4     - C5    
     2      4     15      1    1.1117e+02    3.5690e+02 ;     C2 - C4     - H7    
     2      4     16      1    1.1117e+02    3.5690e+02 ;     C2 - C4     - H8    
     3      1      9      1    1.1117e+02    3.5690e+02 ;     C3 - C1     - H1    
     3      1     10      1    1.1117e+02    3.5690e+02 ;     C3 - C1     - H2    
     3      5      4      1    1.0383e+02    5.1748e+02 ;     C3 - C5     - C4    
     3      5      7      1    1.1360e+02    4.9647e+02 ;     C3 - C5     - C7    
     3      5     17      1    1.1117e+02    3.5690e+02 ;     C3 - C5     - H9    
     4      2     11      1    1.1117e+02    3.5690e+02 ;     C4 - C2     - H3    
     4      2     12      1    1.1117e+02    3.5690e+02 ;     C4 - C2     - H4    
     4      5      7      1    1.1360e+02    4.9647e+02 ;     C4 - C5     - C7    
     4      5     17      1    1.1117e+02    3.5690e+02 ;     C4 - C5     - H9    
     5      3     13      1    1.1117e+02    3.5690e+02 ;     C5 - C3     - H5    
     5      3     14      1    1.1117e+02    3.5690e+02 ;     C5 - C3     - H6    
     5      4     15      1    1.1117e+02    3.5690e+02 ;     C5 - C4     - H7    
     5      4     16      1    1.1117e+02    3.5690e+02 ;     C5 - C4     - H8    
     5      7      8      1    1.1370e+02    4.9840e+02 ;     C5 - C7     - C8    
     5      7     21      1    1.1053e+02    3.6033e+02 ;     C5 - C7     - H13   
     5      7     22      1    1.1053e+02    3.6033e+02 ;     C5 - C7     - H14   
     6      8      7      1    1.1263e+02    5.0099e+02 ;     C6 - C8     - C7    
     6      8     23      1    1.0968e+02    3.6208e+02 ;     C6 - C8     - H15   
     6      8     24      1    1.0968e+02    3.6208e+02 ;     C6 - C8     - H16   
     7      5     17      1    1.0779e+02    3.6484e+02 ;     C7 - C5     - H9    
     7      8     23      1    1.0968e+02    3.6208e+02 ;     C7 - C8     - H15   
     7      8     24      1    1.0968e+02    3.6208e+02 ;     C7 - C8     - H16   
     8      6     18      1    1.0968e+02    3.6208e+02 ;     C8 - C6     - H10   
     8      6     19      1    1.0968e+02    3.6208e+02 ;     C8 - C6     - H11   
     8      6     20      1    1.0968e+02    3.6208e+02 ;     C8 - C6     - H12   
     8      7     21      1    1.0968e+02    3.6208e+02 ;     C8 - C7     - H13   
     8      7     22      1    1.0968e+02    3.6208e+02 ;     C8 - C7     - H14   
     9      1     10      1    1.0722e+02    3.0049e+02 ;     H1 - C1     - H2    
    11      2     12      1    1.0722e+02    3.0049e+02 ;     H3 - C2     - H4    
    13      3     14      1    1.0722e+02    3.0049e+02 ;     H5 - C3     - H6    
    15      4     16      1    1.0722e+02    3.0049e+02 ;     H7 - C4     - H8    
    18      6     19      1    1.0773e+02    2.9957e+02 ;    H10 - C6     - H11   
    18      6     20      1    1.0773e+02    2.9957e+02 ;    H10 - C6     - H12   
    19      6     20      1    1.0773e+02    2.9957e+02 ;    H11 - C6     - H12   
    21      7     22      1    1.0773e+02    2.9957e+02 ;    H13 - C7     - H14   
    23      8     24      1    1.0773e+02    2.9957e+02 ;    H15 - C8     - H16   

[ dihedrals ] ; propers
; for gromacs 4.5 or higher, using funct 9
;    i      j      k      l   func   phase     kd      pn
     1      2      4      5      9     0.00   2.17568   3 ;     C1-    C2-    C4-    C5
     1      2      4     15      9     0.00   0.54392   3 ;     C1-    C2-    C4-    H7
     1      2      4     16      9     0.00   0.54392   3 ;     C1-    C2-    C4-    H8
     1      3      5      4      9     0.00   2.17568   3 ;     C1-    C3-    C5-    C4
     1      3      5      7      9     0.00   2.17568   3 ;     C1-    C3-    C5-    C7
     1      3      5     17      9     0.00   0.54392   3 ;     C1-    C3-    C5-    H9
     2      1      3      5      9     0.00   2.17568   3 ;     C2-    C1-    C3-    C5
     2      1      3     13      9     0.00   0.54392   3 ;     C2-    C1-    C3-    H5
     2      1      3     14      9     0.00   0.54392   3 ;     C2-    C1-    C3-    H6
     2      4      5      3      9     0.00   2.17568   3 ;     C2-    C4-    C5-    C3
     2      4      5      7      9     0.00   2.17568   3 ;     C2-    C4-    C5-    C7
     2      4      5     17      9     0.00   0.54392   3 ;     C2-    C4-    C5-    H9
     3      1      2      4      9     0.00   2.17568   3 ;     C3-    C1-    C2-    C4
     3      1      2     11      9     0.00   0.54392   3 ;     C3-    C1-    C2-    H3
     3      1      2     12      9     0.00   0.54392   3 ;     C3-    C1-    C2-    H4
     3      5      4     15      9     0.00   0.54392   3 ;     C3-    C5-    C4-    H7
     3      5      4     16      9     0.00   0.54392   3 ;     C3-    C5-    C4-    H8
     3      5      7      8      9     0.00   2.17568   3 ;     C3-    C5-    C7-    C8
     3      5      7     21      9     0.00   0.54392   3 ;     C3-    C5-    C7-   H13
     3      5      7     22      9     0.00   0.54392   3 ;     C3-    C5-    C7-   H14
     4      5      3     13      9     0.00   0.54392   3 ;     C4-    C5-    C3-    H5
     4      5      3     14      9     0.00   0.54392   3 ;     C4-    C5-    C3-    H6
     4      5      7      8      9     0.00   2.17568   3 ;     C4-    C5-    C7-    C8
     4      5      7     21      9     0.00   0.54392   3 ;     C4-    C5-    C7-   H13
     4      5      7     22      9     0.00   0.54392   3 ;     C4-    C5-    C7-   H14
     5      4      2     11      9     0.00   0.54392   3 ;     C5-    C4-    C2-    H3
     5      4      2     12      9     0.00   0.54392   3 ;     C5-    C4-    C2-    H4
     5      7      8      6      9     0.00   2.17568   3 ;     C5-    C7-    C8-    C6
     5      7      8     23      9     0.00   0.54392   3 ;     C5-    C7-    C8-   H15
     5      7      8     24      9     0.00   0.54392   3 ;     C5-    C7-    C8-   H16
     6      8      7     21      9     0.00   0.54392   3 ;     C6-    C8-    C7-   H13
     6      8      7     22      9     0.00   0.54392   3 ;     C6-    C8-    C7-   H14
     7      5      3     13      9     0.00   0.54392   3 ;     C7-    C5-    C3-    H5
     7      5      3     14      9     0.00   0.54392   3 ;     C7-    C5-    C3-    H6
     7      5      4     15      9     0.00   0.54392   3 ;     C7-    C5-    C4-    H7
     7      5      4     16      9     0.00   0.54392   3 ;     C7-    C5-    C4-    H8
     7      8      6     18      9     0.00   0.54392   3 ;     C7-    C8-    C6-   H10
     7      8      6     19      9     0.00   0.54392   3 ;     C7-    C8-    C6-   H11
     7      8      6     20      9     0.00   0.54392   3 ;     C7-    C8-    C6-   H12
     8      7      5     17      9     0.00   0.54392   3 ;     C8-    C7-    C5-    H9
     9      1      2      4      9     0.00   0.54392   3 ;     H1-    C1-    C2-    C4
     9      1      2     11      9     0.00   0.50208   3 ;     H1-    C1-    C2-    H3
     9      1      2     12      9     0.00   0.50208   3 ;     H1-    C1-    C2-    H4
     9      1      3      5      9     0.00   0.54392   3 ;     H1-    C1-    C3-    C5
     9      1      3     13      9     0.00   0.50208   3 ;     H1-    C1-    C3-    H5
     9      1      3     14      9     0.00   0.50208   3 ;     H1-    C1-    C3-    H6
    10      1      2      4      9     0.00   0.54392   3 ;     H2-    C1-    C2-    C4
    10      1      2     11      9     0.00   0.50208   3 ;     H2-    C1-    C2-    H3
    10      1      2     12      9     0.00   0.50208   3 ;     H2-    C1-    C2-    H4
    10      1      3      5      9     0.00   0.54392   3 ;     H2-    C1-    C3-    C5
    10      1      3     13      9     0.00   0.50208   3 ;     H2-    C1-    C3-    H5
    10      1      3     14      9     0.00   0.50208   3 ;     H2-    C1-    C3-    H6
    11      2      4     15      9     0.00   0.50208   3 ;     H3-    C2-    C4-    H7
    11      2      4     16      9     0.00   0.50208   3 ;     H3-    C2-    C4-    H8
    12      2      4     15      9     0.00   0.50208   3 ;     H4-    C2-    C4-    H7
    12      2      4     16      9     0.00   0.50208   3 ;     H4-    C2-    C4-    H8
    13      3      5     17      9     0.00   0.50208   3 ;     H5-    C3-    C5-    H9
    14      3      5     17      9     0.00   0.50208   3 ;     H6-    C3-    C5-    H9
    15      4      5     17      9     0.00   0.50208   3 ;     H7-    C4-    C5-    H9
    16      4      5     17      9     0.00   0.50208   3 ;     H8-    C4-    C5-    H9
    17      5      7     21      9     0.00   0.50208   3 ;     H9-    C5-    C7-   H13
    17      5      7     22      9     0.00   0.50208   3 ;     H9-    C5-    C7-   H14
    18      6      8     23      9     0.00   0.50208   3 ;    H10-    C6-    C8-   H15
    18      6      8     24      9     0.00   0.50208   3 ;    H10-    C6-    C8-   H16
    19      6      8     23      9     0.00   0.50208   3 ;    H11-    C6-    C8-   H15
    19      6      8     24      9     0.00   0.50208   3 ;    H11-    C6-    C8-   H16
    20      6      8     23      9     0.00   0.50208   3 ;    H12-    C6-    C8-   H15
    20      6      8     24      9     0.00   0.50208   3 ;    H12-    C6-    C8-   H16
    21      7      8     23      9     0.00   0.50208   3 ;    H13-    C7-    C8-   H15
    21      7      8     24      9     0.00   0.50208   3 ;    H13-    C7-    C8-   H16
    22      7      8     23      9     0.00   0.50208   3 ;    H14-    C7-    C8-   H15
    22      7      8     24      9     0.00   0.50208   3 ;    H14-    C7-    C8-   H16
