; mobley_1396156_GMX.itp created by acpype (v: 2023.10.27) on Thu May 14 13:49:05 2026

[ atomtypes ]
;name   bond_type     mass     charge   ptype   sigma         epsilon       Amb
 ca       ca          0.00000  0.00000   A     3.31521e-01   4.13379e-01 ; 1.86  0.0988
 no       no          0.00000  0.00000   A     3.36510e-01   3.58987e-01 ; 1.89  0.0858
 o        o           0.00000  0.00000   A     3.04812e-01   6.12119e-01 ; 1.71  0.1463
 cl       cl          0.00000  0.00000   A     3.46595e-01   1.10374e+00 ; 1.95  0.2638

[ moleculetype ]
;name            nrexcl
 mobley_1396156   3

[ atoms ]
;   nr  type  resi  res  atom  cgnr     charge      mass       ; qtot   bond_type
     1   ca     1   MOL    C1    1    -0.145200     12.01000 ; qtot -0.145
     2   ca     1   MOL    C2    2     0.061400     12.01000 ; qtot -0.084
     3   ca     1   MOL    C3    3     0.061400     12.01000 ; qtot -0.022
     4   ca     1   MOL    C4    4     0.015400     12.01000 ; qtot -0.007
     5   ca     1   MOL    C5    5     0.015400     12.01000 ; qtot 0.008
     6   ca     1   MOL    C6    6     0.049400     12.01000 ; qtot 0.058
     7   no     1   MOL    N1    7     0.320200     14.01000 ; qtot 0.378
     8    o     1   MOL    O1    8    -0.168000     16.00000 ; qtot 0.210
     9    o     1   MOL    O2    9    -0.168000     16.00000 ; qtot 0.042
    10   cl     1   MOL   CL1   10    -0.004400     35.45000 ; qtot 0.038
    11   cl     1   MOL   CL2   11    -0.004400     35.45000 ; qtot 0.033
    12   cl     1   MOL   CL3   12    -0.011400     35.45000 ; qtot 0.022
    13   cl     1   MOL   CL4   13    -0.011400     35.45000 ; qtot 0.010
    14   cl     1   MOL   CL5   14    -0.010400     35.45000 ; qtot 0.000

[ bonds ]
;   ai     aj funct   r             k
     1      2   1    1.3986e-01    2.9644e+05 ;     C1 - C2    
     1      3   1    1.3986e-01    2.9644e+05 ;     C1 - C3    
     1      7   1    1.4696e-01    2.0937e+05 ;     C1 - N1    
     2      4   1    1.3986e-01    2.9644e+05 ;     C2 - C4    
     2     10   1    1.7572e-01    1.5730e+05 ;     C2 - CL1   
     3      5   1    1.3986e-01    2.9644e+05 ;     C3 - C5    
     3     11   1    1.7572e-01    1.5730e+05 ;     C3 - CL2   
     4      6   1    1.3986e-01    2.9644e+05 ;     C4 - C6    
     4     12   1    1.7572e-01    1.5730e+05 ;     C4 - CL3   
     5      6   1    1.3986e-01    2.9644e+05 ;     C5 - C6    
     5     13   1    1.7572e-01    1.5730e+05 ;     C5 - CL4   
     6     14   1    1.7572e-01    1.5730e+05 ;     C6 - CL5   
     7      8   1    1.2311e-01    3.0270e+05 ;     N1 - O1    
     7      9   1    1.2311e-01    3.0270e+05 ;     N1 - O2    

[ pairs ]
;   ai     aj    funct
     1      6      1 ;     C1 - C6    
     1     12      1 ;     C1 - CL3   
     1     13      1 ;     C1 - CL4   
     2      5      1 ;     C2 - C5    
     2      8      1 ;     C2 - O1    
     2      9      1 ;     C2 - O2    
     2     11      1 ;     C2 - CL2   
     2     14      1 ;     C2 - CL5   
     3      4      1 ;     C3 - C4    
     3      8      1 ;     C3 - O1    
     3      9      1 ;     C3 - O2    
     3     10      1 ;     C3 - CL1   
     3     14      1 ;     C3 - CL5   
     4     13      1 ;     C4 - CL4   
     5     12      1 ;     C5 - CL3   
     6     10      1 ;     C6 - CL1   
     6     11      1 ;     C6 - CL2   
     7      4      1 ;     N1 - C4    
     7      5      1 ;     N1 - C5    
     7     10      1 ;     N1 - CL1   
     7     11      1 ;     N1 - CL2   
    10     12      1 ;    CL1 - CL3   
    11     13      1 ;    CL2 - CL4   
    12     14      1 ;    CL3 - CL5   
    13     14      1 ;    CL4 - CL5   

[ angles ]
;   ai     aj     ak    funct   theta         cth
     1      2      4      1    1.2002e+02    5.3279e+02 ;     C1 - C2     - C4    
     1      2     10      1    1.1938e+02    5.3605e+02 ;     C1 - C2     - CL1   
     1      3      5      1    1.2002e+02    5.3279e+02 ;     C1 - C3     - C5    
     1      3     11      1    1.1938e+02    5.3605e+02 ;     C1 - C3     - CL2   
     1      7      8      1    1.1776e+02    8.2910e+02 ;     C1 - N1     - O1    
     1      7      9      1    1.1776e+02    8.2910e+02 ;     C1 - N1     - O2    
     2      1      3      1    1.2002e+02    5.3279e+02 ;     C2 - C1     - C3    
     2      1      7      1    1.1900e+02    5.5329e+02 ;     C2 - C1     - N1    
     2      4      6      1    1.2002e+02    5.3279e+02 ;     C2 - C4     - C6    
     2      4     12      1    1.1938e+02    5.3605e+02 ;     C2 - C4     - CL3   
     3      1      7      1    1.1900e+02    5.5329e+02 ;     C3 - C1     - N1    
     3      5      6      1    1.2002e+02    5.3279e+02 ;     C3 - C5     - C6    
     3      5     13      1    1.1938e+02    5.3605e+02 ;     C3 - C5     - CL4   
     4      2     10      1    1.1938e+02    5.3605e+02 ;     C4 - C2     - CL1   
     4      6      5      1    1.2002e+02    5.3279e+02 ;     C4 - C6     - C5    
     4      6     14      1    1.1938e+02    5.3605e+02 ;     C4 - C6     - CL5   
     5      3     11      1    1.1938e+02    5.3605e+02 ;     C5 - C3     - CL2   
     5      6     14      1    1.1938e+02    5.3605e+02 ;     C5 - C6     - CL5   
     6      4     12      1    1.1938e+02    5.3605e+02 ;     C6 - C4     - CL3   
     6      5     13      1    1.1938e+02    5.3605e+02 ;     C6 - C5     - CL4   
     8      7      9      1    1.2505e+02    1.0964e+03 ;     O1 - N1     - O2    

[ dihedrals ] ; propers
; for gromacs 4.5 or higher, using funct 9
;    i      j      k      l   func   phase     kd      pn
     1      2      4      6      9   180.00  15.16700   2 ;     C1-    C2-    C4-    C6
     1      2      4     12      9   180.00  15.16700   2 ;     C1-    C2-    C4-   CL3
     1      3      5      6      9   180.00  15.16700   2 ;     C1-    C3-    C5-    C6
     1      3      5     13      9   180.00  15.16700   2 ;     C1-    C3-    C5-   CL4
     2      1      3      5      9   180.00  15.16700   2 ;     C2-    C1-    C3-    C5
     2      1      3     11      9   180.00  15.16700   2 ;     C2-    C1-    C3-   CL2
     2      1      7      8      9   180.00   3.01248   2 ;     C2-    C1-    N1-    O1
     2      1      7      9      9   180.00   3.01248   2 ;     C2-    C1-    N1-    O2
     2      4      6      5      9   180.00  15.16700   2 ;     C2-    C4-    C6-    C5
     2      4      6     14      9   180.00  15.16700   2 ;     C2-    C4-    C6-   CL5
     3      1      2      4      9   180.00  15.16700   2 ;     C3-    C1-    C2-    C4
     3      1      2     10      9   180.00  15.16700   2 ;     C3-    C1-    C2-   CL1
     3      1      7      8      9   180.00   3.01248   2 ;     C3-    C1-    N1-    O1
     3      1      7      9      9   180.00   3.01248   2 ;     C3-    C1-    N1-    O2
     3      5      6      4      9   180.00  15.16700   2 ;     C3-    C5-    C6-    C4
     3      5      6     14      9   180.00  15.16700   2 ;     C3-    C5-    C6-   CL5
     4      6      5     13      9   180.00  15.16700   2 ;     C4-    C6-    C5-   CL4
     5      6      4     12      9   180.00  15.16700   2 ;     C5-    C6-    C4-   CL3
     6      4      2     10      9   180.00  15.16700   2 ;     C6-    C4-    C2-   CL1
     6      5      3     11      9   180.00  15.16700   2 ;     C6-    C5-    C3-   CL2
     7      1      2      4      9   180.00  15.16700   2 ;     N1-    C1-    C2-    C4
     7      1      2     10      9   180.00  15.16700   2 ;     N1-    C1-    C2-   CL1
     7      1      3      5      9   180.00  15.16700   2 ;     N1-    C1-    C3-    C5
     7      1      3     11      9   180.00  15.16700   2 ;     N1-    C1-    C3-   CL2
    10      2      4     12      9   180.00  15.16700   2 ;    CL1-    C2-    C4-   CL3
    11      3      5     13      9   180.00  15.16700   2 ;    CL2-    C3-    C5-   CL4
    12      4      6     14      9   180.00  15.16700   2 ;    CL3-    C4-    C6-   CL5
    13      5      6     14      9   180.00  15.16700   2 ;    CL4-    C5-    C6-   CL5

[ dihedrals ] ; impropers
; treated as propers in GROMACS to use correct AMBER analytical function
;    i      j      k      l   func   phase     kd      pn
     1      4      2     10      4   180.00   4.60240   2 ;     C1-    C4-    C2-   CL1
     1      5      3     11      4   180.00   4.60240   2 ;     C1-    C5-    C3-   CL2
     1      8      7      9      4   180.00   4.60240   2 ;     C1-    O1-    N1-    O2
     2      6      4     12      4   180.00   4.60240   2 ;     C2-    C6-    C4-   CL3
     3      6      5     13      4   180.00   4.60240   2 ;     C3-    C6-    C5-   CL4
     4      5      6     14      4   180.00   4.60240   2 ;     C4-    C5-    C6-   CL5
     7      1      3      2      4   180.00   4.60240   2 ;     N1-    C1-    C3-    C2
