mobley_1139153_GMX.gro created by acpype (v: 2023.10.27) on Thu May 14 13:40:13 2026
 1931
    1MOL     C1    1   1.498   1.480   1.345
    1MOL     C2    2   1.372   1.548   1.141
    1MOL     C3    3   1.191   1.142   1.390
    1MOL     C4    4   1.268   1.344   1.517
    1MOL     C5    5   1.435   1.186   1.421
    1MOL     C6    6   1.307   1.335   1.266
    1MOL     C7    7   1.360   1.480   1.278
    1MOL     C8    8   1.298   1.252   1.397
    1MOL     H1    9   1.571   1.421   1.287
    1MOL     H2   10   1.537   1.582   1.354
    1MOL     H3   11   1.492   1.438   1.446
    1MOL     H4   12   1.442   1.493   1.075
    1MOL     H5   13   1.410   1.650   1.151
    1MOL     H6   14   1.276   1.553   1.089
    1MOL     H7   15   1.090   1.184   1.383
    1MOL     H8   16   1.194   1.079   1.479
    1MOL     H9   17   1.208   1.077   1.303
    1MOL    H10   18   1.271   1.288   1.611
    1MOL    H11   19   1.341   1.425   1.524
    1MOL    H12   20   1.168   1.389   1.510
    1MOL    H13   21   1.515   1.260   1.429
    1MOL    H14   22   1.435   1.127   1.514
    1MOL    H15   23   1.461   1.118   1.339
    1MOL    H16   24   1.209   1.337   1.218
    1MOL    H17   25   1.372   1.279   1.197
    1MOL    H18   26   1.294   1.540   1.340
    2SOL     OW   27   0.230   0.628   0.113
    2SOL    HW1   28   0.137   0.626   0.150
    2SOL    HW2   29   0.231   0.589   0.021
    3SOL     OW   30   0.225   0.275   0.996
    3SOL    HW1   31   0.260   0.258   1.088
    3SOL    HW2   32   0.137   0.230   0.984
    4SOL     OW   33   0.019   0.368   0.647
    4SOL    HW1   34  -0.063   0.411   0.686
    4SOL    HW2   35  -0.009   0.295   0.584
    5SOL     OW   36   0.569   1.275   1.165
    5SOL    HW1   37   0.476   1.268   1.128
    5SOL    HW2   38   0.580   1.364   1.209
    6SOL     OW   39   1.555   1.511   0.703
    6SOL    HW1   40   1.498   1.495   0.784
    6SOL    HW2   41   1.496   1.521   0.623
    7SOL     OW   42   1.135   0.703   0.717
    7SOL    HW1   43   1.192   0.781   0.692
    7SOL    HW2   44   1.075   0.729   0.793
    8SOL     OW   45   1.755   0.607   0.231
    8SOL    HW1   46   1.743   0.594   0.132
    8SOL    HW2   47   1.725   0.526   0.280
    9SOL     OW   48   0.768   1.144   1.023
    9SOL    HW1   49   0.690   1.161   1.083
    9SOL    HW2   50   0.802   1.231   0.987
   10SOL     OW   51   0.850   0.798   1.823
   10SOL    HW1   52   0.846   0.874   1.888
   10SOL    HW2   53   0.872   0.834   1.732
   11SOL     OW   54   0.685   1.012   0.665
   11SOL    HW1   55   0.754   0.996   0.735
   11SOL    HW2   56   0.612   1.069   0.703
   12SOL     OW   57   0.686   1.161   1.803
   12SOL    HW1   58   0.746   1.240   1.817
   12SOL    HW2   59   0.600   1.192   1.762
   13SOL     OW   60   0.335   1.435   1.061
   13SOL    HW1   61   0.257   1.404   1.008
   13SOL    HW2   62   0.393   1.493   1.004
   14SOL     OW   63   0.438   0.392   1.499
   14SOL    HW1   64   0.520   0.336   1.508
   14SOL    HW2   65   0.357   0.334   1.503
   15SOL     OW   66   1.603   0.447   0.737
   15SOL    HW1   67   1.529   0.493   0.687
   15SOL    HW2   68   1.654   0.515   0.790
   16SOL     OW   69   0.231   1.713   0.483
   16SOL    HW1   70   0.265   1.790   0.537
   16SOL    HW2   71   0.275   1.713   0.393
   17SOL     OW   72   1.127   1.341   1.690
   17SOL    HW1   73   1.174   1.341   1.778
   17SOL    HW2   74   1.079   1.254   1.679
   18SOL     OW   75   0.230   1.434   0.538
   18SOL    HW1   76   0.204   1.530   0.538
   18SOL    HW2   77   0.159   1.380   0.583
   19SOL     OW   78   0.240   1.091   0.886
   19SOL    HW1   79   0.254   1.007   0.938
   19SOL    HW2   80   0.185   1.155   0.941
   20SOL     OW   81   0.620   1.786   1.439
   20SOL    HW1   82   0.528   1.769   1.474
   20SOL    HW2   83   0.648   1.878   1.465
   21SOL     OW   84   0.606   0.964   0.123
   21SOL    HW1   85   0.613   1.048   0.069
   21SOL    HW2   86   0.652   0.977   0.211
   22SOL     OW   87   1.594   0.114   1.480
   22SOL    HW1   88   1.576   0.181   1.408
   22SOL    HW2   89   1.591   0.160   1.569
   23SOL     OW   90   0.122   0.643   0.563
   23SOL    HW1   91   0.077   0.555   0.580
   23SOL    HW2   92   0.121   0.697   0.647
   24SOL     OW   93   1.842   1.767   0.359
   24SOL    HW1   94   1.896   1.738   0.439
   24SOL    HW2   95   1.872   1.857   0.330
   25SOL     OW   96   0.027   1.596   0.117
   25SOL    HW1   97   0.008   1.500   0.138
   25SOL    HW2   98  -0.006   1.654   0.192
   26SOL     OW   99   1.689   0.922   0.612
   26SOL    HW1  100   1.784   0.893   0.620
   26SOL    HW2  101   1.681   0.987   0.537
   27SOL     OW  102   1.641   1.108   0.432
   27SOL    HW1  103   1.727   1.110   0.380
   27SOL    HW2  104   1.655   1.155   0.520
   28SOL     OW  105   0.113   0.737   1.597
   28SOL    HW1  106   0.201   0.724   1.642
   28SOL    HW2  107   0.100   0.834   1.575
   29SOL     OW  108   0.613   1.365   0.726
   29SOL    HW1  109   0.564   1.278   0.735
   29SOL    HW2  110   0.590   1.408   0.639
   30SOL     OW  111   0.809   0.004   0.502
   30SOL    HW1  112   0.849   0.095   0.493
   30SOL    HW2  113   0.709   0.012   0.508
   31SOL     OW  114   0.197   0.976   1.264
   31SOL    HW1  115   0.286   0.931   1.250
   31SOL    HW2  116   0.124   0.911   1.245
   32SOL     OW  117   1.525   0.999   0.190
   32SOL    HW1  118   1.462   0.923   0.203
   32SOL    HW2  119   1.573   1.017   0.276
   33SOL     OW  120   1.187   1.792   1.616
   33SOL    HW1  121   1.211   1.852   1.540
   33SOL    HW2  122   1.194   1.697   1.586
   34SOL     OW  123   0.317   0.251   1.801
   34SOL    HW1  124   0.388   0.322   1.807
   34SOL    HW2  125   0.229   0.290   1.829
   35SOL     OW  126   1.667   1.714   0.572
   35SOL    HW1  127   1.626   1.691   0.484
   35SOL    HW2  128   1.649   1.640   0.637
   36SOL     OW  129   0.598   0.729   0.270
   36SOL    HW1  130   0.622   0.798   0.202
   36SOL    HW2  131   0.520   0.762   0.324
   37SOL     OW  132   1.281   0.345   0.944
   37SOL    HW1  133   1.195   0.295   0.931
   37SOL    HW2  134   1.343   0.291   1.000
   38SOL     OW  135   1.576   1.662   0.307
   38SOL    HW1  136   1.665   1.708   0.310
   38SOL    HW2  137   1.555   1.638   0.212
   39SOL     OW  138   0.807   0.605   1.465
   39SOL    HW1  139   0.760   0.602   1.554
   39SOL    HW2  140   0.756   0.550   1.399
   40SOL     OW  141   1.394   0.469   1.674
   40SOL    HW1  142   1.374   0.512   1.762
   40SOL    HW2  143   1.472   0.407   1.683
   41SOL     OW  144   0.973   0.890   1.572
   41SOL    HW1  145   1.019   0.806   1.543
   41SOL    HW2  146   0.917   0.924   1.497
   42SOL     OW  147   0.991   0.410   1.242
   42SOL    HW1  148   0.914   0.444   1.296
   42SOL    HW2  149   0.957   0.359   1.163
   43SOL     OW  150   1.041   0.701   0.429
   43SOL    HW1  151   1.067   0.697   0.525
   43SOL    HW2  152   0.956   0.650   0.415
   44SOL     OW  153   0.076   0.811   0.789
   44SOL    HW1  154   0.175   0.799   0.798
   44SOL    HW2  155   0.052   0.906   0.810
   45SOL     OW  156   0.130   1.821   1.571
   45SOL    HW1  157   0.120   1.806   1.670
   45SOL    HW2  158   0.044   1.857   1.535
   46SOL     OW  159   0.865   0.348   0.195
   46SOL    HW1  160   0.924   0.411   0.146
   46SOL    HW2  161   0.884   0.254   0.166
   47SOL     OW  162   1.719   0.585   1.831
   47SOL    HW1  163   1.693   0.674   1.795
   47SOL    HW2  164   1.717   0.517   1.758
   48SOL     OW  165   1.362   1.144   0.545
   48SOL    HW1  166   1.445   1.115   0.497
   48SOL    HW2  167   1.313   1.211   0.489
   49SOL     OW  168   0.550   0.196   0.885
   49SOL    HW1  169   0.545   0.191   0.985
   49SOL    HW2  170   0.552   0.292   0.856
   50SOL     OW  171   1.008   1.456   0.477
   50SOL    HW1  172   0.962   1.528   0.425
   50SOL    HW2  173   1.004   1.476   0.575
   51SOL     OW  174   0.351   1.801   0.853
   51SOL    HW1  175   0.401   1.715   0.859
   51SOL    HW2  176   0.416   1.878   0.850
   52SOL     OW  177   1.795   1.066   0.873
   52SOL    HW1  178   1.733   1.051   0.797
   52SOL    HW2  179   1.743   1.077   0.958
   53SOL     OW  180   0.321   0.943   0.242
   53SOL    HW1  181   0.403   0.982   0.200
   53SOL    HW2  182   0.294   0.861   0.193
   54SOL     OW  183   1.458   0.735   0.728
   54SOL    HW1  184   1.453   0.670   0.803
   54SOL    HW2  185   1.538   0.794   0.741
   55SOL     OW  186   0.461   1.266   1.727
   55SOL    HW1  187   0.411   1.267   1.641
   55SOL    HW2  188   0.398   1.248   1.803
   56SOL     OW  189   1.111   1.776   0.237
   56SOL    HW1  190   1.051   1.714   0.287
   56SOL    HW2  191   1.142   1.732   0.152
   57SOL     OW  192   0.202   0.285   1.498
   57SOL    HW1  193   0.122   0.345   1.485
   57SOL    HW2  194   0.192   0.236   1.584
   58SOL     OW  195   1.632   1.377   0.081
   58SOL    HW1  196   1.600   1.471   0.071
   58SOL    HW2  197   1.556   1.314   0.069
   59SOL     OW  198   0.464   1.743   0.323
   59SOL    HW1  199   0.497   1.782   0.409
   59SOL    HW2  200   0.540   1.736   0.258
   60SOL     OW  201   1.400   0.107   0.426
   60SOL    HW1  202   1.376   0.070   0.336
   60SOL    HW2  203   1.499   0.123   0.430
   61SOL     OW  204   0.249   1.785   1.241
   61SOL    HW1  205   0.306   1.720   1.291
   61SOL    HW2  206   0.233   1.752   1.148
   62SOL     OW  207   0.940   1.698   0.904
   62SOL    HW1  208   1.020   1.641   0.925
   62SOL    HW2  209   0.891   1.658   0.827
   63SOL     OW  210   0.382   0.700   0.480
   63SOL    HW1  211   0.427   0.610   0.477
   63SOL    HW2  212   0.288   0.689   0.513
   64SOL     OW  213   1.547   0.222   1.729
   64SOL    HW1  214   1.542   0.259   1.821
   64SOL    HW2  215   1.475   0.153   1.717
   65SOL     OW  216   0.614   0.122   0.117
   65SOL    HW1  217   0.712   0.100   0.124
   65SOL    HW2  218   0.583   0.105   0.024
   66SOL     OW  219   0.781   0.264   1.749
   66SOL    HW1  220   0.848   0.203   1.792
   66SOL    HW2  221   0.708   0.283   1.814
   67SOL     OW  222   0.888   1.514   1.195
   67SOL    HW1  223   0.865   1.489   1.101
   67SOL    HW2  224   0.949   1.445   1.234
   68SOL     OW  225   1.351   0.590   1.433
   68SOL    HW1  226   1.379   0.547   1.518
   68SOL    HW2  227   1.376   0.686   1.434
   69SOL     OW  228   0.803   1.402   0.924
   69SOL    HW1  229   0.893   1.416   0.882
   69SOL    HW2  230   0.732   1.404   0.853
   70SOL     OW  231   0.922   0.503   0.899
   70SOL    HW1  232   0.897   0.494   0.803
   70SOL    HW2  233   0.970   0.421   0.930
   71SOL     OW  234   0.539   0.064   0.512
   71SOL    HW1  235   0.458   0.065   0.570
   71SOL    HW2  236   0.542   0.147   0.457
   72SOL     OW  237   1.434   1.188   0.041
   72SOL    HW1  238   1.466   1.112   0.098
   72SOL    HW2  239   1.342   1.215   0.071
   73SOL     OW  240   0.297   0.035   0.171
   73SOL    HW1  241   0.346   0.119   0.150
   73SOL    HW2  242   0.359  -0.030   0.216
   74SOL     OW  243   0.935   0.236   0.480
   74SOL    HW1  244   0.887   0.277   0.402
   74SOL    HW2  245   1.034   0.234   0.461
   75SOL     OW  246   1.076   0.683   1.464
   75SOL    HW1  247   0.996   0.622   1.467
   75SOL    HW2  248   1.157   0.630   1.440
   76SOL     OW  249   1.227   1.570   0.793
   76SOL    HW1  250   1.248   1.644   0.728
   76SOL    HW2  251   1.295   1.570   0.866
   77SOL     OW  252   0.459   1.152   0.741
   77SOL    HW1  253   0.388   1.125   0.806
   77SOL    HW2  254   0.433   1.124   0.648
   78SOL     OW  255   1.271   1.797   0.591
   78SOL    HW1  256   1.315   1.861   0.527
   78SOL    HW2  257   1.221   1.849   0.661
   79SOL     OW  258   1.032   0.549   0.016
   79SOL    HW1  259   0.991   0.631  -0.023
   79SOL    HW2  260   1.096   0.575   0.089
   80SOL     OW  261   0.078   0.556   1.386
   80SOL    HW1  262   0.170   0.555   1.345
   80SOL    HW2  263   0.072   0.630   1.453
   81SOL     OW  264   0.561   0.222   1.147
   81SOL    HW1  265   0.599   0.138   1.184
   81SOL    HW2  266   0.473   0.241   1.191
   82SOL     OW  267   0.866   0.454   0.642
   82SOL    HW1  268   0.834   0.526   0.580
   82SOL    HW2  269   0.890   0.373   0.589
   83SOL     OW  270   1.017   0.039   0.753
   83SOL    HW1  271   0.945   0.044   0.684
   83SOL    HW2  272   0.993  -0.030   0.822
   84SOL     OW  273   1.429   1.173   0.867
   84SOL    HW1  274   1.374   1.089   0.860
   84SOL    HW2  275   1.455   1.202   0.775
   85SOL     OW  276   1.466   0.590   0.992
   85SOL    HW1  277   1.436   0.495   0.999
   85SOL    HW2  278   1.539   0.606   1.058
   86SOL     OW  279   1.857   0.833   0.377
   86SOL    HW1  280   1.899   0.769   0.441
   86SOL    HW2  281   1.819   0.782   0.299
   87SOL     OW  282   0.488   1.385   0.174
   87SOL    HW1  283   0.401   1.370   0.221
   87SOL    HW2  284   0.471   1.411   0.079
   88SOL     OW  285   1.664   1.280   0.657
   88SOL    HW1  286   1.763   1.288   0.671
   88SOL    HW2  287   1.619   1.364   0.688
   89SOL     OW  288   1.390   0.575   0.078
   89SOL    HW1  289   1.336   0.554   0.159
   89SOL    HW2  290   1.481   0.534   0.087
   90SOL     OW  291   0.527   0.256   0.328
   90SOL    HW1  292   0.554   0.197   0.253
   90SOL    HW2  293   0.527   0.351   0.297
   91SOL     OW  294   1.754   1.223   1.588
   91SOL    HW1  295   1.845   1.184   1.575
   91SOL    HW2  296   1.762   1.319   1.612
   92SOL     OW  297   1.064   1.347   1.340
   92SOL    HW1  298   0.984   1.324   1.395
   92SOL    HW2  299   1.147   1.321   1.389
   93SOL     OW  300   1.592   1.629   1.625
   93SOL    HW1  301   1.619   1.663   1.535
   93SOL    HW2  302   1.671   1.591   1.671
   94SOL     OW  303   1.111   1.195   1.100
   94SOL    HW1  304   1.071   1.239   1.181
   94SOL    HW2  305   1.070   1.232   1.017
   95SOL     OW  306   1.638   1.099   1.079
   95SOL    HW1  307   1.643   1.180   1.138
   95SOL    HW2  308   1.552   1.101   1.028
   96SOL     OW  309   0.915   0.089   1.402
   96SOL    HW1  310   0.940   0.069   1.307
   96SOL    HW2  311   0.987   0.145   1.444
   97SOL     OW  312   0.980   1.116   1.719
   97SOL    HW1  313   0.881   1.122   1.729
   97SOL    HW2  314   1.003   1.036   1.663
   98SOL     OW  315   0.705   1.050   0.368
   98SOL    HW1  316   0.691   1.057   0.467
   98SOL    HW2  317   0.789   0.999   0.350
   99SOL     OW  318   0.410   0.813   1.251
   99SOL    HW1  319   0.496   0.825   1.301
   99SOL    HW2  320   0.368   0.726   1.278
  100SOL     OW  321   1.274   0.386   1.262
  100SOL    HW1  322   1.295   0.460   1.326
  100SOL    HW2  323   1.185   0.403   1.219
  101SOL     OW  324   0.064   1.564   1.331
  101SOL    HW1  325   0.018   1.646   1.297
  101SOL    HW2  326   0.162   1.583   1.340
  102SOL     OW  327   0.367   1.100   0.501
  102SOL    HW1  328   0.360   1.183   0.445
  102SOL    HW2  329   0.371   1.020   0.441
  103SOL     OW  330   0.566   0.537   0.865
  103SOL    HW1  331   0.578   0.603   0.791
  103SOL    HW2  332   0.612   0.571   0.948
  104SOL     OW  333   1.252   1.348   0.388
  104SOL    HW1  334   1.302   1.425   0.428
  104SOL    HW2  335   1.157   1.350   0.420
  105SOL     OW  336   1.582   0.639   0.472
  105SOL    HW1  337   1.551   0.700   0.545
  105SOL    HW2  338   1.632   0.691   0.403
  106SOL     OW  339   0.354   1.510   1.329
  106SOL    HW1  340   0.333   1.466   1.242
  106SOL    HW2  341   0.451   1.536   1.332
  107SOL     OW  342   0.402   0.751   1.598
  107SOL    HW1  343   0.470   0.806   1.551
  107SOL    HW2  344   0.442   0.663   1.625
  108SOL     OW  345   1.587   0.779   1.670
  108SOL    HW1  346   1.495   0.817   1.665
  108SOL    HW2  347   1.647   0.826   1.605
  109SOL     OW  348   1.013   0.105   1.770
  109SOL    HW1  349   1.019   0.190   1.718
  109SOL    HW2  350   1.045   0.029   1.713
  110SOL     OW  351   0.504   0.050   1.740
  110SOL    HW1  352   0.462  -0.007   1.670
  110SOL    HW2  353   0.438   0.119   1.772
  111SOL     OW  354   0.573   0.870   1.029
  111SOL    HW1  355   0.617   0.959   1.020
  111SOL    HW2  356   0.510   0.870   1.106
  112SOL     OW  357   1.360   0.862   1.045
  112SOL    HW1  358   1.285   0.862   0.979
  112SOL    HW2  359   1.397   0.770   1.054
  113SOL     OW  360   1.209   0.525   0.275
  113SOL    HW1  361   1.222   0.441   0.329
  113SOL    HW2  362   1.180   0.599   0.335
  114SOL     OW  363   0.307   0.213   1.231
  114SOL    HW1  364   0.284   0.250   1.321
  114SOL    HW2  365   0.277   0.118   1.225
  115SOL     OW  366   0.037   1.310   1.282
  115SOL    HW1  367   0.090   1.261   1.350
  115SOL    HW2  368   0.059   1.408   1.287
  116SOL     OW  369   0.732   0.634   1.064
  116SOL    HW1  370   0.791   0.608   0.988
  116SOL    HW2  371   0.704   0.730   1.053
  117SOL     OW  372   1.728   0.935   1.854
  117SOL    HW1  373   1.682   0.928   1.765
  117SOL    HW2  374   1.666   0.979   1.920
  118SOL     OW  375   0.307   0.063   0.618
  118SOL    HW1  376   0.296   0.157   0.651
  118SOL    HW2  377   0.302   0.000   0.695
  119SOL     OW  378   1.622   0.367   0.374
  119SOL    HW1  379   1.624   0.291   0.438
  119SOL    HW2  380   1.574   0.444   0.414
  120SOL     OW  381   1.023   0.766   0.966
  120SOL    HW1  382   1.038   0.787   1.062
  120SOL    HW2  383   0.993   0.671   0.957
  121SOL     OW  384   0.980   1.573   1.700
  121SOL    HW1  385   0.960   1.617   1.612
  121SOL    HW2  386   1.019   1.482   1.684
  122SOL     OW  387   1.859   1.518   1.605
  122SOL    HW1  388   1.873   1.545   1.510
  122SOL    HW2  389   1.942   1.540   1.658
  123SOL     OW  390   0.350   0.898   1.804
  123SOL    HW1  391   0.426   0.942   1.852
  123SOL    HW2  392   0.385   0.851   1.722
  124SOL     OW  393   1.540   0.274   0.125
  124SOL    HW1  394   1.479   0.199   0.148
  124SOL    HW2  395   1.562   0.326   0.208
  125SOL     OW  396   1.303   0.838   0.042
  125SOL    HW1  397   1.337   0.745   0.057
  125SOL    HW2  398   1.321   0.865  -0.053
  126SOL     OW  399   1.068   1.333   0.849
  126SOL    HW1  400   1.075   1.249   0.794
  126SOL    HW2  401   1.130   1.402   0.813
  127SOL     OW  402   0.319   0.810   0.949
  127SOL    HW1  403   0.412   0.846   0.954
  127SOL    HW2  404   0.313   0.725   1.001
  128SOL     OW  405   0.339   0.509   1.006
  128SOL    HW1  406   0.287   0.426   0.989
  128SOL    HW2  407   0.416   0.514   0.942
  129SOL     OW  408   1.138   0.380   1.678
  129SOL    HW1  409   1.093   0.443   1.742
  129SOL    HW2  410   1.231   0.411   1.661
  130SOL     OW  411   1.160   0.207   1.477
  130SOL    HW1  412   1.160   0.271   1.554
  130SOL    HW2  413   1.188   0.255   1.394
  131SOL     OW  414   0.008   1.326   0.200
  131SOL    HW1  415  -0.085   1.347   0.169
  131SOL    HW2  416   0.018   1.227   0.213
  132SOL     OW  417   0.088   1.801   0.927
  132SOL    HW1  418   0.046   1.715   0.900
  132SOL    HW2  419   0.182   1.804   0.893
  133SOL     OW  420   0.504   1.568   0.910
  133SOL    HW1  421   0.570   1.642   0.919
  133SOL    HW2  422   0.548   1.489   0.868
  134SOL     OW  423   1.002   0.796   1.238
  134SOL    HW1  424   1.043   0.764   1.324
  134SOL    HW2  425   0.906   0.769   1.235
  135SOL     OW  426   0.040   0.544   1.114
  135SOL    HW1  427   0.125   0.511   1.073
  135SOL    HW2  428   0.053   0.559   1.212
  136SOL     OW  429   0.189   0.520   1.722
  136SOL    HW1  430   0.248   0.480   1.652
  136SOL    HW2  431   0.131   0.591   1.681
  137SOL     OW  432   1.369   0.950   1.660
  137SOL    HW1  433   1.408   1.039   1.680
  137SOL    HW2  434   1.379   0.930   1.563
  138SOL     OW  435   0.815   0.572   0.325
  138SOL    HW1  436   0.822   0.483   0.279
  138SOL    HW2  437   0.721   0.606   0.317
  139SOL     OW  438   1.657   0.604   1.206
  139SOL    HW1  439   1.619   0.535   1.268
  139SOL    HW2  440   1.739   0.568   1.162
  140SOL     OW  441   0.252   1.564   1.744
  140SOL    HW1  442   0.222   1.621   1.820
  140SOL    HW2  443   0.245   1.467   1.770
  141SOL     OW  444   0.671   0.464   1.269
  141SOL    HW1  445   0.637   0.375   1.239
  141SOL    HW2  446   0.697   0.518   1.189
  142SOL     OW  447   0.930   1.678   1.465
  142SOL    HW1  448   0.906   1.660   1.370
  142SOL    HW2  449   0.960   1.772   1.475
  143SOL     OW  450   0.473   0.500   0.191
  143SOL    HW1  451   0.534   0.580   0.195
  143SOL    HW2  452   0.378   0.531   0.198
  144SOL     OW  453   0.159   1.137   1.466
  144SOL    HW1  454   0.181   1.076   1.542
  144SOL    HW2  455   0.169   1.088   1.380
  145SOL     OW  456   1.302   0.855   0.309
  145SOL    HW1  457   1.216   0.824   0.351
  145SOL    HW2  458   1.298   0.841   0.210
  146SOL     OW  459   1.759   1.747   1.154
  146SOL    HW1  460   1.820   1.777   1.081
  146SOL    HW2  461   1.721   1.658   1.132
  147SOL     OW  462   0.083   1.258   1.022
  147SOL    HW1  463   0.078   1.257   1.122
  147SOL    HW2  464   0.000   1.217   0.984
  148SOL     OW  465   0.688   1.662   1.716
  148SOL    HW1  466   0.632   1.743   1.725
  148SOL    HW2  467   0.740   1.666   1.630
  149SOL     OW  468   0.903   0.086   0.133
  149SOL    HW1  469   0.954   0.087   0.047
  149SOL    HW2  470   0.959   0.044   0.204
  150SOL     OW  471   1.726   0.135   0.523
  150SOL    HW1  472   1.799   0.118   0.456
  150SOL    HW2  473   1.695   0.048   0.561
  151SOL     OW  474   1.388   1.573   0.477
  151SOL    HW1  475   1.455   1.585   0.403
  151SOL    HW2  476   1.348   1.662   0.500
  152SOL     OW  477   0.130   1.794   1.851
  152SOL    HW1  478   0.089   1.720   1.904
  152SOL    HW2  479   0.194   1.845   1.909
  153SOL     OW  480   1.280   0.927   0.672
  153SOL    HW1  481   1.340   0.846   0.674
  153SOL    HW2  482   1.320   0.996   0.612
  154SOL     OW  483   0.830   1.273   1.422
  154SOL    HW1  484   0.825   1.306   1.517
  154SOL    HW2  485   0.744   1.292   1.376
  155SOL     OW  486   0.672   1.616   0.154
  155SOL    HW1  487   0.681   1.626   0.055
  155SOL    HW2  488   0.632   1.527   0.175
  156SOL     OW  489   1.650   1.720   1.394
  156SOL    HW1  490   1.703   1.730   1.310
  156SOL    HW2  491   1.623   1.810   1.428
  157SOL     OW  492   1.841   0.175   0.963
  157SOL    HW1  493   1.880   0.090   0.927
  157SOL    HW2  494   1.743   0.177   0.944
  158SOL     OW  495   0.263   0.326   0.720
  158SOL    HW1  496   0.184   0.377   0.686
  158SOL    HW2  497   0.254   0.311   0.818
  159SOL     OW  498   1.194   1.612   0.031
  159SOL    HW1  499   1.200   1.519   0.068
  159SOL    HW2  500   1.135   1.612  -0.049
  160SOL     OW  501   0.822   1.002   1.372
  160SOL    HW1  502   0.862   1.001   1.280
  160SOL    HW2  503   0.832   1.094   1.412
  161SOL     OW  504   0.916   0.910   0.291
  161SOL    HW1  505   0.979   0.948   0.223
  161SOL    HW2  506   0.956   0.827   0.330
  162SOL     OW  507   1.504   1.607   0.044
  162SOL    HW1  508   1.412   1.644   0.051
  162SOL    HW2  509   1.542   1.627  -0.046
  163SOL     OW  510   0.372   1.288   1.490
  163SOL    HW1  511   0.359   1.381   1.456
  163SOL    HW2  512   0.288   1.236   1.477
  164SOL     OW  513   1.039   1.098   0.696
  164SOL    HW1  514   0.969   1.051   0.750
  164SOL    HW2  515   1.098   1.030   0.653
  165SOL     OW  516   1.014   0.236   0.971
  165SOL    HW1  517   1.006   0.200   0.878
  165SOL    HW2  518   1.012   0.160   1.036
  166SOL     OW  519   0.590   1.487   0.491
  166SOL    HW1  520   0.632   1.429   0.421
  166SOL    HW2  521   0.546   1.566   0.447
  167SOL     OW  522   1.709   0.385   1.381
  167SOL    HW1  523   1.782   0.454   1.385
  167SOL    HW2  524   1.737   0.310   1.322
  168SOL     OW  525   0.255   1.348   0.290
  168SOL    HW1  526   0.159   1.349   0.263
  168SOL    HW2  527   0.267   1.401   0.374
  169SOL     OW  528   0.105   1.013   1.726
  169SOL    HW1  529   0.028   0.980   1.780
  169SOL    HW2  530   0.190   0.983   1.768
  170SOL     OW  531   0.672   0.203   1.489
  170SOL    HW1  532   0.762   0.187   1.449
  170SOL    HW2  533   0.680   0.208   1.588
  171SOL     OW  534   0.075   0.345   0.033
  171SOL    HW1  535  -0.017   0.317   0.004
  171SOL    HW2  536   0.106   0.422  -0.023
  172SOL     OW  537   1.440   0.856   1.398
  172SOL    HW1  538   1.383   0.908   1.335
  172SOL    HW2  539   1.536   0.868   1.374
  173SOL     OW  540   0.072   0.166   0.318
  173SOL    HW1  541   0.055   0.249   0.264
  173SOL    HW2  542   0.162   0.129   0.296
  174SOL     OW  543   1.183   1.335   0.119
  174SOL    HW1  544   1.084   1.324   0.121
  174SOL    HW2  545   1.217   1.350   0.212
  175SOL     OW  546   0.613   0.842   1.431
  175SOL    HW1  547   0.669   0.923   1.414
  175SOL    HW2  548   0.672   0.762   1.434
  176SOL     OW  549   1.493   1.767   0.959
  176SOL    HW1  550   1.526   1.831   0.890
  176SOL    HW2  551   1.559   1.761   1.034
  177SOL     OW  552   0.716   0.565   1.708
  177SOL    HW1  553   0.735   0.630   1.782
  177SOL    HW2  554   0.776   0.485   1.717
  178SOL     OW  555   0.390   1.741   1.560
  178SOL    HW1  556   0.299   1.782   1.558
  178SOL    HW2  557   0.383   1.647   1.592
  179SOL     OW  558   1.674   0.883   1.254
  179SOL    HW1  559   1.647   0.794   1.217
  179SOL    HW2  560   1.675   0.951   1.181
  180SOL     OW  561   1.225   0.325   0.449
  180SOL    HW1  562   1.290   0.251   0.438
  180SOL    HW2  563   1.245   0.375   0.533
  181SOL     OW  564   0.594   0.745   0.652
  181SOL    HW1  565   0.644   0.830   0.633
  181SOL    HW2  566   0.506   0.747   0.604
  182SOL     OW  567   1.777   0.342   1.642
  182SOL    HW1  568   1.760   0.373   1.548
  182SOL    HW2  569   1.693   0.305   1.680
  183SOL     OW  570   1.730   0.934   1.517
  183SOL    HW1  571   1.768   1.025   1.532
  183SOL    HW2  572   1.722   0.917   1.418
  184SOL     OW  573   0.859   1.374   0.016
  184SOL    HW1  574   0.813   1.389   0.104
  184SOL    HW2  575   0.903   1.459  -0.014
  185SOL     OW  576   0.661   1.790   0.953
  185SOL    HW1  577   0.615   1.878   0.940
  185SOL    HW2  578   0.760   1.802   0.946
  186SOL     OW  579   0.859   0.956   0.861
  186SOL    HW1  580   0.913   0.887   0.909
  186SOL    HW2  581   0.827   1.025   0.927
  187SOL     OW  582   1.083   0.984   0.087
  187SOL    HW1  583   1.060   1.037   0.005
  187SOL    HW2  584   1.164   0.928   0.068
  188SOL     OW  585   1.861   1.569   0.851
  188SOL    HW1  586   1.790   1.557   0.781
  188SOL    HW2  587   1.862   1.490   0.911
  189SOL     OW  588   0.221   1.314   1.844
  189SOL    HW1  589   0.156   1.241   1.823
  189SOL    HW2  590   0.225   1.328   1.942
  190SOL     OW  591   0.079   1.240   0.653
  190SOL    HW1  592   0.078   1.193   0.741
  190SOL    HW2  593   0.161   1.212   0.602
  191SOL     OW  594   0.672   1.391   1.624
  191SOL    HW1  595   0.594   1.341   1.662
  191SOL    HW2  596   0.669   1.486   1.655
  192SOL     OW  597   1.824   0.192   1.227
  192SOL    HW1  598   1.820   0.102   1.271
  192SOL    HW2  599   1.827   0.181   1.128
  193SOL     OW  600   0.428   0.424   0.520
  193SOL    HW1  601   0.458   0.352   0.458
  193SOL    HW2  602   0.389   0.384   0.603
  194SOL     OW  603   1.705   1.487   1.104
  194SOL    HW1  604   1.612   1.462   1.077
  194SOL    HW2  605   1.731   1.437   1.186
  195SOL     OW  606   0.317   0.547   1.280
  195SOL    HW1  607   0.355   0.488   1.352
  195SOL    HW2  608   0.357   0.521   1.192
  196SOL     OW  609   0.812   1.586   0.687
  196SOL    HW1  610   0.844   1.596   0.593
  196SOL    HW2  611   0.733   1.524   0.689
  197SOL     OW  612   1.424   0.214   1.112
  197SOL    HW1  613   1.476   0.149   1.167
  197SOL    HW2  614   1.375   0.277   1.173
  198SOL     OW  615   1.001   0.034   1.154
  198SOL    HW1  616   0.938  -0.038   1.123
  198SOL    HW2  617   1.094  -0.002   1.154
  199SOL     OW  618   0.770   1.330   0.301
  199SOL    HW1  619   0.724   1.243   0.318
  199SOL    HW2  620   0.861   1.327   0.342
  200SOL     OW  621   0.618   1.567   1.284
  200SOL    HW1  622   0.613   1.649   1.341
  200SOL    HW2  623   0.707   1.564   1.239
  201SOL     OW  624   1.352   0.052   0.168
  201SOL    HW1  625   1.387   0.011   0.084
  201SOL    HW2  626   1.262   0.014   0.188
  202SOL     OW  627   1.300   0.453   0.691
  202SOL    HW1  628   1.241   0.533   0.695
  202SOL    HW2  629   1.315   0.418   0.784
  203SOL     OW  630   1.593   0.221   0.882
  203SOL    HW1  631   1.509   0.220   0.936
  203SOL    HW2  632   1.595   0.304   0.826
  204SOL     OW  633   0.039   1.077   0.300
  204SOL    HW1  634   0.138   1.066   0.291
  204SOL    HW2  635  -0.001   0.991   0.332
  205SOL     OW  636   0.875   1.646   0.337
  205SOL    HW1  637   0.798   1.611   0.283
  205SOL    HW2  638   0.843   1.717   0.399
  206SOL     OW  639   0.230   0.628   1.975
  206SOL    HW1  640   0.137   0.626   2.012
  206SOL    HW2  641   0.231   0.589   1.883
  207SOL     OW  642   0.225   0.275   2.858
  207SOL    HW1  643   0.260   0.258   2.950
  207SOL    HW2  644   0.137   0.230   2.846
  208SOL     OW  645   0.019   0.368   2.509
  208SOL    HW1  646  -0.063   0.411   2.548
  208SOL    HW2  647  -0.009   0.295   2.446
  209SOL     OW  648   1.755   0.607   2.093
  209SOL    HW1  649   1.743   0.594   1.994
  209SOL    HW2  650   1.725   0.526   2.142
  210SOL     OW  651   0.685   1.012   2.527
  210SOL    HW1  652   0.754   0.996   2.597
  210SOL    HW2  653   0.612   1.069   2.565
  211SOL     OW  654   1.603   0.447   2.599
  211SOL    HW1  655   1.529   0.493   2.549
  211SOL    HW2  656   1.654   0.515   2.652
  212SOL     OW  657   0.231   1.713   2.345
  212SOL    HW1  658   0.265   1.790   2.399
  212SOL    HW2  659   0.275   1.713   2.255
  213SOL     OW  660   0.230   1.434   2.400
  213SOL    HW1  661   0.204   1.530   2.400
  213SOL    HW2  662   0.159   1.380   2.445
  214SOL     OW  663   0.240   1.091   2.748
  214SOL    HW1  664   0.254   1.007   2.800
  214SOL    HW2  665   0.185   1.155   2.803
  215SOL     OW  666   0.606   0.964   1.985
  215SOL    HW1  667   0.613   1.048   1.931
  215SOL    HW2  668   0.652   0.977   2.073
  216SOL     OW  669   0.122   0.643   2.425
  216SOL    HW1  670   0.077   0.555   2.442
  216SOL    HW2  671   0.121   0.697   2.509
  217SOL     OW  672   1.842   1.767   2.221
  217SOL    HW1  673   1.896   1.738   2.301
  217SOL    HW2  674   1.872   1.857   2.192
  218SOL     OW  675   0.027   1.596   1.979
  218SOL    HW1  676   0.008   1.500   2.000
  218SOL    HW2  677  -0.006   1.654   2.054
  219SOL     OW  678   1.689   0.922   2.474
  219SOL    HW1  679   1.784   0.893   2.482
  219SOL    HW2  680   1.681   0.987   2.399
  220SOL     OW  681   1.641   1.108   2.294
  220SOL    HW1  682   1.727   1.110   2.242
  220SOL    HW2  683   1.655   1.155   2.382
  221SOL     OW  684   0.613   1.365   2.588
  221SOL    HW1  685   0.564   1.278   2.597
  221SOL    HW2  686   0.590   1.408   2.501
  222SOL     OW  687   0.809   0.004   2.364
  222SOL    HW1  688   0.849   0.095   2.355
  222SOL    HW2  689   0.709   0.012   2.370
  223SOL     OW  690   1.525   0.999   2.052
  223SOL    HW1  691   1.462   0.923   2.065
  223SOL    HW2  692   1.573   1.017   2.138
  224SOL     OW  693   1.667   1.714   2.434
  224SOL    HW1  694   1.626   1.691   2.346
  224SOL    HW2  695   1.649   1.640   2.499
  225SOL     OW  696   0.598   0.729   2.132
  225SOL    HW1  697   0.622   0.798   2.064
  225SOL    HW2  698   0.520   0.762   2.186
  226SOL     OW  699   1.281   0.345   2.806
  226SOL    HW1  700   1.195   0.295   2.793
  226SOL    HW2  701   1.343   0.291   2.862
  227SOL     OW  702   1.576   1.662   2.169
  227SOL    HW1  703   1.665   1.708   2.172
  227SOL    HW2  704   1.555   1.638   2.074
  228SOL     OW  705   1.041   0.701   2.291
  228SOL    HW1  706   1.067   0.697   2.387
  228SOL    HW2  707   0.956   0.650   2.277
  229SOL     OW  708   0.076   0.811   2.651
  229SOL    HW1  709   0.175   0.799   2.660
  229SOL    HW2  710   0.052   0.906   2.672
  230SOL     OW  711   0.865   0.348   2.057
  230SOL    HW1  712   0.924   0.411   2.008
  230SOL    HW2  713   0.884   0.254   2.028
  231SOL     OW  714   1.362   1.144   2.407
  231SOL    HW1  715   1.445   1.115   2.359
  231SOL    HW2  716   1.313   1.211   2.351
  232SOL     OW  717   1.008   1.456   2.339
  232SOL    HW1  718   0.962   1.528   2.287
  232SOL    HW2  719   1.004   1.476   2.437
  233SOL     OW  720   0.351   1.801   2.715
  233SOL    HW1  721   0.401   1.715   2.721
  233SOL    HW2  722   0.416   1.878   2.712
  234SOL     OW  723   1.795   1.066   2.735
  234SOL    HW1  724   1.733   1.051   2.659
  234SOL    HW2  725   1.743   1.077   2.820
  235SOL     OW  726   0.321   0.943   2.104
  235SOL    HW1  727   0.403   0.982   2.062
  235SOL    HW2  728   0.294   0.861   2.055
  236SOL     OW  729   1.458   0.735   2.590
  236SOL    HW1  730   1.453   0.670   2.665
  236SOL    HW2  731   1.538   0.794   2.603
  237SOL     OW  732   1.111   1.776   2.099
  237SOL    HW1  733   1.051   1.714   2.149
  237SOL    HW2  734   1.142   1.732   2.014
  238SOL     OW  735   1.632   1.377   1.943
  238SOL    HW1  736   1.600   1.471   1.933
  238SOL    HW2  737   1.556   1.314   1.931
  239SOL     OW  738   0.464   1.743   2.185
  239SOL    HW1  739   0.497   1.782   2.271
  239SOL    HW2  740   0.540   1.736   2.120
  240SOL     OW  741   1.400   0.107   2.288
  240SOL    HW1  742   1.376   0.070   2.198
  240SOL    HW2  743   1.499   0.123   2.292
  241SOL     OW  744   0.940   1.698   2.766
  241SOL    HW1  745   1.020   1.641   2.787
  241SOL    HW2  746   0.891   1.658   2.689
  242SOL     OW  747   0.382   0.700   2.342
  242SOL    HW1  748   0.427   0.610   2.339
  242SOL    HW2  749   0.288   0.689   2.375
  243SOL     OW  750   0.614   0.122   1.979
  243SOL    HW1  751   0.712   0.100   1.986
  243SOL    HW2  752   0.583   0.105   1.886
  244SOL     OW  753   0.539   0.064   2.374
  244SOL    HW1  754   0.458   0.065   2.432
  244SOL    HW2  755   0.542   0.147   2.319
  245SOL     OW  756   1.434   1.188   1.903
  245SOL    HW1  757   1.466   1.112   1.960
  245SOL    HW2  758   1.342   1.215   1.933
  246SOL     OW  759   0.297   0.035   2.033
  246SOL    HW1  760   0.346   0.119   2.012
  246SOL    HW2  761   0.359  -0.030   2.078
  247SOL     OW  762   0.935   0.236   2.342
  247SOL    HW1  763   0.887   0.277   2.264
  247SOL    HW2  764   1.034   0.234   2.323
  248SOL     OW  765   0.459   1.152   2.603
  248SOL    HW1  766   0.388   1.125   2.668
  248SOL    HW2  767   0.433   1.124   2.510
  249SOL     OW  768   1.271   1.797   2.453
  249SOL    HW1  769   1.315   1.861   2.389
  249SOL    HW2  770   1.221   1.849   2.523
  250SOL     OW  771   1.032   0.549   1.878
  250SOL    HW1  772   0.991   0.631   1.839
  250SOL    HW2  773   1.096   0.575   1.951
  251SOL     OW  774   0.866   0.454   2.504
  251SOL    HW1  775   0.834   0.526   2.442
  251SOL    HW2  776   0.890   0.373   2.451
  252SOL     OW  777   1.857   0.833   2.239
  252SOL    HW1  778   1.899   0.769   2.303
  252SOL    HW2  779   1.819   0.782   2.161
  253SOL     OW  780   0.488   1.385   2.036
  253SOL    HW1  781   0.401   1.370   2.083
  253SOL    HW2  782   0.471   1.411   1.941
  254SOL     OW  783   1.664   1.280   2.519
  254SOL    HW1  784   1.763   1.288   2.533
  254SOL    HW2  785   1.619   1.364   2.550
  255SOL     OW  786   1.390   0.575   1.940
  255SOL    HW1  787   1.336   0.554   2.021
  255SOL    HW2  788   1.481   0.534   1.949
  256SOL     OW  789   0.527   0.256   2.190
  256SOL    HW1  790   0.554   0.197   2.115
  256SOL    HW2  791   0.527   0.351   2.159
  257SOL     OW  792   0.705   1.050   2.230
  257SOL    HW1  793   0.691   1.057   2.329
  257SOL    HW2  794   0.789   0.999   2.212
  258SOL     OW  795   0.367   1.100   2.363
  258SOL    HW1  796   0.360   1.183   2.307
  258SOL    HW2  797   0.371   1.020   2.303
  259SOL     OW  798   1.252   1.348   2.250
  259SOL    HW1  799   1.302   1.425   2.290
  259SOL    HW2  800   1.157   1.350   2.282
  260SOL     OW  801   1.582   0.639   2.334
  260SOL    HW1  802   1.551   0.700   2.407
  260SOL    HW2  803   1.632   0.691   2.265
  261SOL     OW  804   1.209   0.525   2.137
  261SOL    HW1  805   1.222   0.441   2.191
  261SOL    HW2  806   1.180   0.599   2.197
  262SOL     OW  807   0.307   0.063   2.480
  262SOL    HW1  808   0.296   0.157   2.513
  262SOL    HW2  809   0.302   0.000   2.557
  263SOL     OW  810   1.622   0.367   2.236
  263SOL    HW1  811   1.624   0.291   2.300
  263SOL    HW2  812   1.574   0.444   2.276
  264SOL     OW  813   1.540   0.274   1.987
  264SOL    HW1  814   1.479   0.199   2.010
  264SOL    HW2  815   1.562   0.326   2.070
  265SOL     OW  816   1.303   0.838   1.904
  265SOL    HW1  817   1.337   0.745   1.919
  265SOL    HW2  818   1.321   0.865   1.809
  266SOL     OW  819   0.008   1.326   2.062
  266SOL    HW1  820  -0.085   1.347   2.031
  266SOL    HW2  821   0.018   1.227   2.075
  267SOL     OW  822   0.040   0.544   2.976
  267SOL    HW1  823   0.125   0.511   2.935
  267SOL    HW2  824   0.053   0.559   3.074
  268SOL     OW  825   0.815   0.572   2.187
  268SOL    HW1  826   0.822   0.483   2.141
  268SOL    HW2  827   0.721   0.606   2.179
  269SOL     OW  828   0.473   0.500   2.053
  269SOL    HW1  829   0.534   0.580   2.057
  269SOL    HW2  830   0.378   0.531   2.060
  270SOL     OW  831   1.302   0.855   2.171
  270SOL    HW1  832   1.216   0.824   2.213
  270SOL    HW2  833   1.298   0.841   2.072
  271SOL     OW  834   1.726   0.135   2.385
  271SOL    HW1  835   1.799   0.118   2.318
  271SOL    HW2  836   1.695   0.048   2.423
  272SOL     OW  837   1.388   1.573   2.339
  272SOL    HW1  838   1.455   1.585   2.265
  272SOL    HW2  839   1.348   1.662   2.362
  273SOL     OW  840   0.672   1.616   2.016
  273SOL    HW1  841   0.681   1.626   1.917
  273SOL    HW2  842   0.632   1.527   2.037
  274SOL     OW  843   1.841   0.175   2.825
  274SOL    HW1  844   1.880   0.090   2.789
  274SOL    HW2  845   1.743   0.177   2.806
  275SOL     OW  846   0.263   0.326   2.582
  275SOL    HW1  847   0.184   0.377   2.548
  275SOL    HW2  848   0.254   0.311   2.680
  276SOL     OW  849   1.194   1.612   1.893
  276SOL    HW1  850   1.200   1.519   1.930
  276SOL    HW2  851   1.135   1.612   1.813
  277SOL     OW  852   0.916   0.910   2.153
  277SOL    HW1  853   0.979   0.948   2.085
  277SOL    HW2  854   0.956   0.827   2.192
  278SOL     OW  855   1.504   1.607   1.906
  278SOL    HW1  856   1.412   1.644   1.913
  278SOL    HW2  857   1.542   1.627   1.816
  279SOL     OW  858   0.590   1.487   2.353
  279SOL    HW1  859   0.632   1.429   2.283
  279SOL    HW2  860   0.546   1.566   2.309
  280SOL     OW  861   0.255   1.348   2.152
  280SOL    HW1  862   0.159   1.349   2.125
  280SOL    HW2  863   0.267   1.401   2.236
  281SOL     OW  864   0.075   0.345   1.895
  281SOL    HW1  865  -0.017   0.317   1.866
  281SOL    HW2  866   0.106   0.422   1.839
  282SOL     OW  867   0.072   0.166   2.180
  282SOL    HW1  868   0.055   0.249   2.126
  282SOL    HW2  869   0.162   0.129   2.158
  283SOL     OW  870   1.183   1.335   1.981
  283SOL    HW1  871   1.084   1.324   1.983
  283SOL    HW2  872   1.217   1.350   2.074
  284SOL     OW  873   1.225   0.325   2.311
  284SOL    HW1  874   1.290   0.251   2.300
  284SOL    HW2  875   1.245   0.375   2.395
  285SOL     OW  876   0.594   0.745   2.514
  285SOL    HW1  877   0.644   0.830   2.495
  285SOL    HW2  878   0.506   0.747   2.466
  286SOL     OW  879   0.859   1.374   1.878
  286SOL    HW1  880   0.813   1.389   1.966
  286SOL    HW2  881   0.903   1.459   1.848
  287SOL     OW  882   0.661   1.790   2.815
  287SOL    HW1  883   0.615   1.878   2.802
  287SOL    HW2  884   0.760   1.802   2.808
  288SOL     OW  885   0.859   0.956   2.723
  288SOL    HW1  886   0.913   0.887   2.771
  288SOL    HW2  887   0.827   1.025   2.789
  289SOL     OW  888   1.083   0.984   1.949
  289SOL    HW1  889   1.060   1.037   1.867
  289SOL    HW2  890   1.164   0.928   1.930
  290SOL     OW  891   0.079   1.240   2.515
  290SOL    HW1  892   0.078   1.193   2.603
  290SOL    HW2  893   0.161   1.212   2.464
  291SOL     OW  894   0.428   0.424   2.382
  291SOL    HW1  895   0.458   0.352   2.320
  291SOL    HW2  896   0.389   0.384   2.465
  292SOL     OW  897   1.705   1.487   2.966
  292SOL    HW1  898   1.612   1.462   2.939
  292SOL    HW2  899   1.731   1.437   3.048
  293SOL     OW  900   0.812   1.586   2.549
  293SOL    HW1  901   0.844   1.596   2.455
  293SOL    HW2  902   0.733   1.524   2.551
  294SOL     OW  903   0.770   1.330   2.163
  294SOL    HW1  904   0.724   1.243   2.180
  294SOL    HW2  905   0.861   1.327   2.204
  295SOL     OW  906   1.352   0.052   2.030
  295SOL    HW1  907   1.387   0.011   1.946
  295SOL    HW2  908   1.262   0.014   2.050
  296SOL     OW  909   1.300   0.453   2.553
  296SOL    HW1  910   1.241   0.533   2.557
  296SOL    HW2  911   1.315   0.418   2.646
  297SOL     OW  912   0.039   1.077   2.162
  297SOL    HW1  913   0.138   1.066   2.153
  297SOL    HW2  914  -0.001   0.991   2.194
  298SOL     OW  915   0.875   1.646   2.199
  298SOL    HW1  916   0.798   1.611   2.145
  298SOL    HW2  917   0.843   1.717   2.261
  299SOL     OW  918   0.230   2.490   0.113
  299SOL    HW1  919   0.137   2.488   0.150
  299SOL    HW2  920   0.231   2.451   0.021
  300SOL     OW  921   0.225   2.137   0.996
  300SOL    HW1  922   0.260   2.120   1.088
  300SOL    HW2  923   0.137   2.092   0.984
  301SOL     OW  924   0.019   2.230   0.647
  301SOL    HW1  925  -0.063   2.273   0.686
  301SOL    HW2  926  -0.009   2.157   0.584
  302SOL     OW  927   1.755   2.469   0.231
  302SOL    HW1  928   1.743   2.456   0.132
  302SOL    HW2  929   1.725   2.388   0.280
  303SOL     OW  930   0.850   2.660   1.823
  303SOL    HW1  931   0.846   2.736   1.888
  303SOL    HW2  932   0.872   2.696   1.732
  304SOL     OW  933   0.685   2.874   0.665
  304SOL    HW1  934   0.754   2.858   0.735
  304SOL    HW2  935   0.612   2.931   0.703
  305SOL     OW  936   0.438   2.254   1.499
  305SOL    HW1  937   0.520   2.198   1.508
  305SOL    HW2  938   0.357   2.196   1.503
  306SOL     OW  939   1.603   2.309   0.737
  306SOL    HW1  940   1.529   2.355   0.687
  306SOL    HW2  941   1.654   2.377   0.790
  307SOL     OW  942   1.594   1.976   1.480
  307SOL    HW1  943   1.576   2.043   1.408
  307SOL    HW2  944   1.591   2.022   1.569
  308SOL     OW  945   0.122   2.505   0.563
  308SOL    HW1  946   0.077   2.417   0.580
  308SOL    HW2  947   0.121   2.559   0.647
  309SOL     OW  948   0.113   2.599   1.597
  309SOL    HW1  949   0.201   2.586   1.642
  309SOL    HW2  950   0.100   2.696   1.575
  310SOL     OW  951   0.809   1.866   0.502
  310SOL    HW1  952   0.849   1.957   0.493
  310SOL    HW2  953   0.709   1.874   0.508
  311SOL     OW  954   0.317   2.113   1.801
  311SOL    HW1  955   0.388   2.184   1.807
  311SOL    HW2  956   0.229   2.152   1.829
  312SOL     OW  957   0.598   2.591   0.270
  312SOL    HW1  958   0.622   2.660   0.202
  312SOL    HW2  959   0.520   2.624   0.324
  313SOL     OW  960   1.281   2.207   0.944
  313SOL    HW1  961   1.195   2.157   0.931
  313SOL    HW2  962   1.343   2.153   1.000
  314SOL     OW  963   0.807   2.467   1.465
  314SOL    HW1  964   0.760   2.464   1.554
  314SOL    HW2  965   0.756   2.412   1.399
  315SOL     OW  966   1.394   2.331   1.674
  315SOL    HW1  967   1.374   2.374   1.762
  315SOL    HW2  968   1.472   2.269   1.683
  316SOL     OW  969   0.991   2.272   1.242
  316SOL    HW1  970   0.914   2.306   1.296
  316SOL    HW2  971   0.957   2.221   1.163
  317SOL     OW  972   1.041   2.563   0.429
  317SOL    HW1  973   1.067   2.559   0.525
  317SOL    HW2  974   0.956   2.512   0.415
  318SOL     OW  975   0.076   2.673   0.789
  318SOL    HW1  976   0.175   2.661   0.798
  318SOL    HW2  977   0.052   2.768   0.810
  319SOL     OW  978   0.865   2.210   0.195
  319SOL    HW1  979   0.924   2.273   0.146
  319SOL    HW2  980   0.884   2.116   0.166
  320SOL     OW  981   1.719   2.447   1.831
  320SOL    HW1  982   1.693   2.536   1.795
  320SOL    HW2  983   1.717   2.379   1.758
  321SOL     OW  984   0.550   2.058   0.885
  321SOL    HW1  985   0.545   2.053   0.985
  321SOL    HW2  986   0.552   2.154   0.856
  322SOL     OW  987   1.458   2.597   0.728
  322SOL    HW1  988   1.453   2.532   0.803
  322SOL    HW2  989   1.538   2.656   0.741
  323SOL     OW  990   0.202   2.147   1.498
  323SOL    HW1  991   0.122   2.207   1.485
  323SOL    HW2  992   0.192   2.098   1.584
  324SOL     OW  993   1.400   1.969   0.426
  324SOL    HW1  994   1.376   1.932   0.336
  324SOL    HW2  995   1.499   1.985   0.430
  325SOL     OW  996   0.382   2.562   0.480
  325SOL    HW1  997   0.427   2.472   0.477
  325SOL    HW2  998   0.288   2.551   0.513
  326SOL     OW  999   1.547   2.084   1.729
  326SOL    HW1 1000   1.542   2.121   1.821
  326SOL    HW2 1001   1.475   2.015   1.717
  327SOL     OW 1002   0.781   2.126   1.749
  327SOL    HW1 1003   0.848   2.065   1.792
  327SOL    HW2 1004   0.708   2.145   1.814
  328SOL     OW 1005   1.351   2.452   1.433
  328SOL    HW1 1006   1.379   2.409   1.518
  328SOL    HW2 1007   1.376   2.548   1.434
  329SOL     OW 1008   0.922   2.365   0.899
  329SOL    HW1 1009   0.897   2.356   0.803
  329SOL    HW2 1010   0.970   2.283   0.930
  330SOL     OW 1011   0.539   1.926   0.512
  330SOL    HW1 1012   0.458   1.927   0.570
  330SOL    HW2 1013   0.542   2.009   0.457
  331SOL     OW 1014   0.297   1.897   0.171
  331SOL    HW1 1015   0.346   1.981   0.150
  331SOL    HW2 1016   0.359   1.832   0.216
  332SOL     OW 1017   0.935   2.098   0.480
  332SOL    HW1 1018   0.887   2.139   0.402
  332SOL    HW2 1019   1.034   2.096   0.461
  333SOL     OW 1020   1.076   2.545   1.464
  333SOL    HW1 1021   0.996   2.484   1.467
  333SOL    HW2 1022   1.157   2.492   1.440
  334SOL     OW 1023   1.032   2.411   0.016
  334SOL    HW1 1024   0.991   2.493  -0.023
  334SOL    HW2 1025   1.096   2.437   0.089
  335SOL     OW 1026   0.078   2.418   1.386
  335SOL    HW1 1027   0.170   2.417   1.345
  335SOL    HW2 1028   0.072   2.492   1.453
  336SOL     OW 1029   0.561   2.084   1.147
  336SOL    HW1 1030   0.599   2.000   1.184
  336SOL    HW2 1031   0.473   2.103   1.191
  337SOL     OW 1032   0.866   2.316   0.642
  337SOL    HW1 1033   0.834   2.388   0.580
  337SOL    HW2 1034   0.890   2.235   0.589
  338SOL     OW 1035   1.017   1.901   0.753
  338SOL    HW1 1036   0.945   1.906   0.684
  338SOL    HW2 1037   0.993   1.832   0.822
  339SOL     OW 1038   1.466   2.452   0.992
  339SOL    HW1 1039   1.436   2.357   0.999
  339SOL    HW2 1040   1.539   2.468   1.058
  340SOL     OW 1041   1.390   2.437   0.078
  340SOL    HW1 1042   1.336   2.416   0.159
  340SOL    HW2 1043   1.481   2.396   0.087
  341SOL     OW 1044   0.527   2.118   0.328
  341SOL    HW1 1045   0.554   2.059   0.253
  341SOL    HW2 1046   0.527   2.213   0.297
  342SOL     OW 1047   0.915   1.951   1.402
  342SOL    HW1 1048   0.940   1.931   1.307
  342SOL    HW2 1049   0.987   2.007   1.444
  343SOL     OW 1050   0.705   2.912   0.368
  343SOL    HW1 1051   0.691   2.919   0.467
  343SOL    HW2 1052   0.789   2.861   0.350
  344SOL     OW 1053   0.410   2.675   1.251
  344SOL    HW1 1054   0.496   2.687   1.301
  344SOL    HW2 1055   0.368   2.588   1.278
  345SOL     OW 1056   1.274   2.248   1.262
  345SOL    HW1 1057   1.295   2.322   1.326
  345SOL    HW2 1058   1.185   2.265   1.219
  346SOL     OW 1059   0.566   2.399   0.865
  346SOL    HW1 1060   0.578   2.465   0.791
  346SOL    HW2 1061   0.612   2.433   0.948
  347SOL     OW 1062   1.582   2.501   0.472
  347SOL    HW1 1063   1.551   2.562   0.545
  347SOL    HW2 1064   1.632   2.553   0.403
  348SOL     OW 1065   1.587   2.641   1.670
  348SOL    HW1 1066   1.495   2.679   1.665
  348SOL    HW2 1067   1.647   2.688   1.605
  349SOL     OW 1068   1.013   1.967   1.770
  349SOL    HW1 1069   1.019   2.052   1.718
  349SOL    HW2 1070   1.045   1.891   1.713
  350SOL     OW 1071   0.504   1.912   1.740
  350SOL    HW1 1072   0.462   1.855   1.670
  350SOL    HW2 1073   0.438   1.981   1.772
  351SOL     OW 1074   1.360   2.724   1.045
  351SOL    HW1 1075   1.285   2.724   0.979
  351SOL    HW2 1076   1.397   2.632   1.054
  352SOL     OW 1077   1.209   2.387   0.275
  352SOL    HW1 1078   1.222   2.303   0.329
  352SOL    HW2 1079   1.180   2.461   0.335
  353SOL     OW 1080   0.307   2.075   1.231
  353SOL    HW1 1081   0.284   2.112   1.321
  353SOL    HW2 1082   0.277   1.980   1.225
  354SOL     OW 1083   0.732   2.496   1.064
  354SOL    HW1 1084   0.791   2.470   0.988
  354SOL    HW2 1085   0.704   2.592   1.053
  355SOL     OW 1086   1.728   2.797   1.854
  355SOL    HW1 1087   1.682   2.790   1.765
  355SOL    HW2 1088   1.666   2.841   1.920
  356SOL     OW 1089   0.307   1.925   0.618
  356SOL    HW1 1090   0.296   2.019   0.651
  356SOL    HW2 1091   0.302   1.862   0.695
  357SOL     OW 1092   1.622   2.229   0.374
  357SOL    HW1 1093   1.624   2.153   0.438
  357SOL    HW2 1094   1.574   2.306   0.414
  358SOL     OW 1095   1.540   2.136   0.125
  358SOL    HW1 1096   1.479   2.061   0.148
  358SOL    HW2 1097   1.562   2.188   0.208
  359SOL     OW 1098   0.319   2.672   0.949
  359SOL    HW1 1099   0.412   2.708   0.954
  359SOL    HW2 1100   0.313   2.587   1.001
  360SOL     OW 1101   0.339   2.371   1.006
  360SOL    HW1 1102   0.287   2.288   0.989
  360SOL    HW2 1103   0.416   2.376   0.942
  361SOL     OW 1104   1.138   2.242   1.678
  361SOL    HW1 1105   1.093   2.305   1.742
  361SOL    HW2 1106   1.231   2.273   1.661
  362SOL     OW 1107   1.160   2.069   1.477
  362SOL    HW1 1108   1.160   2.133   1.554
  362SOL    HW2 1109   1.188   2.117   1.394
  363SOL     OW 1110   0.040   2.406   1.114
  363SOL    HW1 1111   0.125   2.373   1.073
  363SOL    HW2 1112   0.053   2.421   1.212
  364SOL     OW 1113   0.189   2.382   1.722
  364SOL    HW1 1114   0.248   2.342   1.652
  364SOL    HW2 1115   0.131   2.453   1.681
  365SOL     OW 1116   0.815   2.434   0.325
  365SOL    HW1 1117   0.822   2.345   0.279
  365SOL    HW2 1118   0.721   2.468   0.317
  366SOL     OW 1119   1.657   2.466   1.206
  366SOL    HW1 1120   1.619   2.397   1.268
  366SOL    HW2 1121   1.739   2.430   1.162
  367SOL     OW 1122   0.671   2.326   1.269
  367SOL    HW1 1123   0.637   2.237   1.239
  367SOL    HW2 1124   0.697   2.380   1.189
  368SOL     OW 1125   0.473   2.362   0.191
  368SOL    HW1 1126   0.534   2.442   0.195
  368SOL    HW2 1127   0.378   2.393   0.198
  369SOL     OW 1128   0.903   1.948   0.133
  369SOL    HW1 1129   0.954   1.949   0.047
  369SOL    HW2 1130   0.959   1.906   0.204
  370SOL     OW 1131   1.726   1.997   0.523
  370SOL    HW1 1132   1.799   1.980   0.456
  370SOL    HW2 1133   1.695   1.910   0.561
  371SOL     OW 1134   1.280   2.789   0.672
  371SOL    HW1 1135   1.340   2.708   0.674
  371SOL    HW2 1136   1.320   2.858   0.612
  372SOL     OW 1137   1.841   2.037   0.963
  372SOL    HW1 1138   1.880   1.952   0.927
  372SOL    HW2 1139   1.743   2.039   0.944
  373SOL     OW 1140   0.263   2.188   0.720
  373SOL    HW1 1141   0.184   2.239   0.686
  373SOL    HW2 1142   0.254   2.173   0.818
  374SOL     OW 1143   1.014   2.098   0.971
  374SOL    HW1 1144   1.006   2.062   0.878
  374SOL    HW2 1145   1.012   2.022   1.036
  375SOL     OW 1146   1.709   2.247   1.381
  375SOL    HW1 1147   1.782   2.316   1.385
  375SOL    HW2 1148   1.737   2.172   1.322
  376SOL     OW 1149   0.105   2.875   1.726
  376SOL    HW1 1150   0.028   2.842   1.780
  376SOL    HW2 1151   0.190   2.845   1.768
  377SOL     OW 1152   0.672   2.065   1.489
  377SOL    HW1 1153   0.762   2.049   1.449
  377SOL    HW2 1154   0.680   2.070   1.588
  378SOL     OW 1155   0.075   2.207   0.033
  378SOL    HW1 1156  -0.017   2.179   0.004
  378SOL    HW2 1157   0.106   2.284  -0.023
  379SOL     OW 1158   0.072   2.028   0.318
  379SOL    HW1 1159   0.055   2.111   0.264
  379SOL    HW2 1160   0.162   1.991   0.296
  380SOL     OW 1161   0.716   2.427   1.708
  380SOL    HW1 1162   0.735   2.492   1.782
  380SOL    HW2 1163   0.776   2.347   1.717
  381SOL     OW 1164   1.674   2.745   1.254
  381SOL    HW1 1165   1.647   2.656   1.217
  381SOL    HW2 1166   1.675   2.813   1.181
  382SOL     OW 1167   1.225   2.187   0.449
  382SOL    HW1 1168   1.290   2.113   0.438
  382SOL    HW2 1169   1.245   2.237   0.533
  383SOL     OW 1170   0.594   2.607   0.652
  383SOL    HW1 1171   0.644   2.692   0.633
  383SOL    HW2 1172   0.506   2.609   0.604
  384SOL     OW 1173   1.777   2.204   1.642
  384SOL    HW1 1174   1.760   2.235   1.548
  384SOL    HW2 1175   1.693   2.167   1.680
  385SOL     OW 1176   0.859   2.818   0.861
  385SOL    HW1 1177   0.913   2.749   0.909
  385SOL    HW2 1178   0.827   2.887   0.927
  386SOL     OW 1179   1.824   2.054   1.227
  386SOL    HW1 1180   1.820   1.964   1.271
  386SOL    HW2 1181   1.827   2.043   1.128
  387SOL     OW 1182   0.428   2.286   0.520
  387SOL    HW1 1183   0.458   2.214   0.458
  387SOL    HW2 1184   0.389   2.246   0.603
  388SOL     OW 1185   0.317   2.409   1.280
  388SOL    HW1 1186   0.355   2.350   1.352
  388SOL    HW2 1187   0.357   2.383   1.192
  389SOL     OW 1188   1.424   2.076   1.112
  389SOL    HW1 1189   1.476   2.011   1.167
  389SOL    HW2 1190   1.375   2.139   1.173
  390SOL     OW 1191   1.001   1.896   1.154
  390SOL    HW1 1192   0.938   1.824   1.123
  390SOL    HW2 1193   1.094   1.860   1.154
  391SOL     OW 1194   1.352   1.914   0.168
  391SOL    HW1 1195   1.387   1.873   0.084
  391SOL    HW2 1196   1.262   1.876   0.188
  392SOL     OW 1197   1.300   2.315   0.691
  392SOL    HW1 1198   1.241   2.395   0.695
  392SOL    HW2 1199   1.315   2.280   0.784
  393SOL     OW 1200   1.593   2.083   0.882
  393SOL    HW1 1201   1.509   2.082   0.936
  393SOL    HW2 1202   1.595   2.166   0.826
  394SOL     OW 1203   0.230   2.490   1.975
  394SOL    HW1 1204   0.137   2.488   2.012
  394SOL    HW2 1205   0.231   2.451   1.883
  395SOL     OW 1206   0.225   2.137   2.858
  395SOL    HW1 1207   0.260   2.120   2.950
  395SOL    HW2 1208   0.137   2.092   2.846
  396SOL     OW 1209   0.019   2.230   2.509
  396SOL    HW1 1210  -0.063   2.273   2.548
  396SOL    HW2 1211  -0.009   2.157   2.446
  397SOL     OW 1212   1.755   2.469   2.093
  397SOL    HW1 1213   1.743   2.456   1.994
  397SOL    HW2 1214   1.725   2.388   2.142
  398SOL     OW 1215   0.685   2.874   2.527
  398SOL    HW1 1216   0.754   2.858   2.597
  398SOL    HW2 1217   0.612   2.931   2.565
  399SOL     OW 1218   1.603   2.309   2.599
  399SOL    HW1 1219   1.529   2.355   2.549
  399SOL    HW2 1220   1.654   2.377   2.652
  400SOL     OW 1221   0.122   2.505   2.425
  400SOL    HW1 1222   0.077   2.417   2.442
  400SOL    HW2 1223   0.121   2.559   2.509
  401SOL     OW 1224   0.809   1.866   2.364
  401SOL    HW1 1225   0.849   1.957   2.355
  401SOL    HW2 1226   0.709   1.874   2.370
  402SOL     OW 1227   0.598   2.591   2.132
  402SOL    HW1 1228   0.622   2.660   2.064
  402SOL    HW2 1229   0.520   2.624   2.186
  403SOL     OW 1230   1.281   2.207   2.806
  403SOL    HW1 1231   1.195   2.157   2.793
  403SOL    HW2 1232   1.343   2.153   2.862
  404SOL     OW 1233   1.041   2.563   2.291
  404SOL    HW1 1234   1.067   2.559   2.387
  404SOL    HW2 1235   0.956   2.512   2.277
  405SOL     OW 1236   0.076   2.673   2.651
  405SOL    HW1 1237   0.175   2.661   2.660
  405SOL    HW2 1238   0.052   2.768   2.672
  406SOL     OW 1239   0.865   2.210   2.057
  406SOL    HW1 1240   0.924   2.273   2.008
  406SOL    HW2 1241   0.884   2.116   2.028
  407SOL     OW 1242   1.458   2.597   2.590
  407SOL    HW1 1243   1.453   2.532   2.665
  407SOL    HW2 1244   1.538   2.656   2.603
  408SOL     OW 1245   1.400   1.969   2.288
  408SOL    HW1 1246   1.376   1.932   2.198
  408SOL    HW2 1247   1.499   1.985   2.292
  409SOL     OW 1248   0.382   2.562   2.342
  409SOL    HW1 1249   0.427   2.472   2.339
  409SOL    HW2 1250   0.288   2.551   2.375
  410SOL     OW 1251   0.614   1.984   1.979
  410SOL    HW1 1252   0.712   1.962   1.986
  410SOL    HW2 1253   0.583   1.967   1.886
  411SOL     OW 1254   0.539   1.926   2.374
  411SOL    HW1 1255   0.458   1.927   2.432
  411SOL    HW2 1256   0.542   2.009   2.319
  412SOL     OW 1257   0.297   1.897   2.033
  412SOL    HW1 1258   0.346   1.981   2.012
  412SOL    HW2 1259   0.359   1.832   2.078
  413SOL     OW 1260   0.935   2.098   2.342
  413SOL    HW1 1261   0.887   2.139   2.264
  413SOL    HW2 1262   1.034   2.096   2.323
  414SOL     OW 1263   1.032   2.411   1.878
  414SOL    HW1 1264   0.991   2.493   1.839
  414SOL    HW2 1265   1.096   2.437   1.951
  415SOL     OW 1266   0.866   2.316   2.504
  415SOL    HW1 1267   0.834   2.388   2.442
  415SOL    HW2 1268   0.890   2.235   2.451
  416SOL     OW 1269   1.390   2.437   1.940
  416SOL    HW1 1270   1.336   2.416   2.021
  416SOL    HW2 1271   1.481   2.396   1.949
  417SOL     OW 1272   0.527   2.118   2.190
  417SOL    HW1 1273   0.554   2.059   2.115
  417SOL    HW2 1274   0.527   2.213   2.159
  418SOL     OW 1275   0.705   2.912   2.230
  418SOL    HW1 1276   0.691   2.919   2.329
  418SOL    HW2 1277   0.789   2.861   2.212
  419SOL     OW 1278   1.582   2.501   2.334
  419SOL    HW1 1279   1.551   2.562   2.407
  419SOL    HW2 1280   1.632   2.553   2.265
  420SOL     OW 1281   1.209   2.387   2.137
  420SOL    HW1 1282   1.222   2.303   2.191
  420SOL    HW2 1283   1.180   2.461   2.197
  421SOL     OW 1284   0.307   1.925   2.480
  421SOL    HW1 1285   0.296   2.019   2.513
  421SOL    HW2 1286   0.302   1.862   2.557
  422SOL     OW 1287   1.622   2.229   2.236
  422SOL    HW1 1288   1.624   2.153   2.300
  422SOL    HW2 1289   1.574   2.306   2.276
  423SOL     OW 1290   1.540   2.136   1.987
  423SOL    HW1 1291   1.479   2.061   2.010
  423SOL    HW2 1292   1.562   2.188   2.070
  424SOL     OW 1293   0.040   2.406   2.976
  424SOL    HW1 1294   0.125   2.373   2.935
  424SOL    HW2 1295   0.053   2.421   3.074
  425SOL     OW 1296   0.815   2.434   2.187
  425SOL    HW1 1297   0.822   2.345   2.141
  425SOL    HW2 1298   0.721   2.468   2.179
  426SOL     OW 1299   0.473   2.362   2.053
  426SOL    HW1 1300   0.534   2.442   2.057
  426SOL    HW2 1301   0.378   2.393   2.060
  427SOL     OW 1302   1.726   1.997   2.385
  427SOL    HW1 1303   1.799   1.980   2.318
  427SOL    HW2 1304   1.695   1.910   2.423
  428SOL     OW 1305   1.280   2.789   2.534
  428SOL    HW1 1306   1.340   2.708   2.536
  428SOL    HW2 1307   1.320   2.858   2.474
  429SOL     OW 1308   1.841   2.037   2.825
  429SOL    HW1 1309   1.880   1.952   2.789
  429SOL    HW2 1310   1.743   2.039   2.806
  430SOL     OW 1311   0.263   2.188   2.582
  430SOL    HW1 1312   0.184   2.239   2.548
  430SOL    HW2 1313   0.254   2.173   2.680
  431SOL     OW 1314   0.916   2.772   2.153
  431SOL    HW1 1315   0.979   2.810   2.085
  431SOL    HW2 1316   0.956   2.689   2.192
  432SOL     OW 1317   1.039   2.960   2.558
  432SOL    HW1 1318   0.969   2.913   2.612
  432SOL    HW2 1319   1.098   2.892   2.515
  433SOL     OW 1320   0.075   2.207   1.895
  433SOL    HW1 1321  -0.017   2.179   1.866
  433SOL    HW2 1322   0.106   2.284   1.839
  434SOL     OW 1323   0.072   2.028   2.180
  434SOL    HW1 1324   0.055   2.111   2.126
  434SOL    HW2 1325   0.162   1.991   2.158
  435SOL     OW 1326   1.225   2.187   2.311
  435SOL    HW1 1327   1.290   2.113   2.300
  435SOL    HW2 1328   1.245   2.237   2.395
  436SOL     OW 1329   0.594   2.607   2.514
  436SOL    HW1 1330   0.644   2.692   2.495
  436SOL    HW2 1331   0.506   2.609   2.466
  437SOL     OW 1332   0.428   2.286   2.382
  437SOL    HW1 1333   0.458   2.214   2.320
  437SOL    HW2 1334   0.389   2.246   2.465
  438SOL     OW 1335   1.352   1.914   2.030
  438SOL    HW1 1336   1.387   1.873   1.946
  438SOL    HW2 1337   1.262   1.876   2.050
  439SOL     OW 1338   1.300   2.315   2.553
  439SOL    HW1 1339   1.241   2.395   2.557
  439SOL    HW2 1340   1.315   2.280   2.646
  440SOL     OW 1341   2.092   0.628   0.113
  440SOL    HW1 1342   1.999   0.626   0.150
  440SOL    HW2 1343   2.093   0.589   0.021
  441SOL     OW 1344   2.087   0.275   0.996
  441SOL    HW1 1345   2.122   0.258   1.088
  441SOL    HW2 1346   1.999   0.230   0.984
  442SOL     OW 1347   1.881   0.368   0.647
  442SOL    HW1 1348   1.799   0.411   0.686
  442SOL    HW2 1349   1.853   0.295   0.584
  443SOL     OW 1350   2.431   1.275   1.165
  443SOL    HW1 1351   2.338   1.268   1.128
  443SOL    HW2 1352   2.442   1.364   1.209
  444SOL     OW 1353   2.712   0.798   1.823
  444SOL    HW1 1354   2.708   0.874   1.888
  444SOL    HW2 1355   2.734   0.834   1.732
  445SOL     OW 1356   2.547   1.012   0.665
  445SOL    HW1 1357   2.616   0.996   0.735
  445SOL    HW2 1358   2.474   1.069   0.703
  446SOL     OW 1359   2.548   1.161   1.803
  446SOL    HW1 1360   2.608   1.240   1.817
  446SOL    HW2 1361   2.462   1.192   1.762
  447SOL     OW 1362   2.197   1.435   1.061
  447SOL    HW1 1363   2.119   1.404   1.008
  447SOL    HW2 1364   2.255   1.493   1.004
  448SOL     OW 1365   2.300   0.392   1.499
  448SOL    HW1 1366   2.382   0.336   1.508
  448SOL    HW2 1367   2.219   0.334   1.503
  449SOL     OW 1368   2.093   1.713   0.483
  449SOL    HW1 1369   2.127   1.790   0.537
  449SOL    HW2 1370   2.137   1.713   0.393
  450SOL     OW 1371   2.092   1.434   0.538
  450SOL    HW1 1372   2.066   1.530   0.538
  450SOL    HW2 1373   2.021   1.380   0.583
  451SOL     OW 1374   2.102   1.091   0.886
  451SOL    HW1 1375   2.116   1.007   0.938
  451SOL    HW2 1376   2.047   1.155   0.941
  452SOL     OW 1377   2.482   1.786   1.439
  452SOL    HW1 1378   2.390   1.769   1.474
  452SOL    HW2 1379   2.510   1.878   1.465
  453SOL     OW 1380   2.468   0.964   0.123
  453SOL    HW1 1381   2.475   1.048   0.069
  453SOL    HW2 1382   2.514   0.977   0.211
  454SOL     OW 1383   1.984   0.643   0.563
  454SOL    HW1 1384   1.939   0.555   0.580
  454SOL    HW2 1385   1.983   0.697   0.647
  455SOL     OW 1386   1.889   1.596   0.117
  455SOL    HW1 1387   1.870   1.500   0.138
  455SOL    HW2 1388   1.856   1.654   0.192
  456SOL     OW 1389   1.975   0.737   1.597
  456SOL    HW1 1390   2.063   0.724   1.642
  456SOL    HW2 1391   1.962   0.834   1.575
  457SOL     OW 1392   2.475   1.365   0.726
  457SOL    HW1 1393   2.426   1.278   0.735
  457SOL    HW2 1394   2.452   1.408   0.639
  458SOL     OW 1395   2.671   0.004   0.502
  458SOL    HW1 1396   2.711   0.095   0.493
  458SOL    HW2 1397   2.571   0.012   0.508
  459SOL     OW 1398   2.059   0.976   1.264
  459SOL    HW1 1399   2.148   0.931   1.250
  459SOL    HW2 1400   1.986   0.911   1.245
  460SOL     OW 1401   2.179   0.251   1.801
  460SOL    HW1 1402   2.250   0.322   1.807
  460SOL    HW2 1403   2.091   0.290   1.829
  461SOL     OW 1404   2.460   0.729   0.270
  461SOL    HW1 1405   2.484   0.798   0.202
  461SOL    HW2 1406   2.382   0.762   0.324
  462SOL     OW 1407   1.938   0.811   0.789
  462SOL    HW1 1408   2.037   0.799   0.798
  462SOL    HW2 1409   1.914   0.906   0.810
  463SOL     OW 1410   1.992   1.821   1.571
  463SOL    HW1 1411   1.982   1.806   1.670
  463SOL    HW2 1412   1.906   1.857   1.535
  464SOL     OW 1413   2.412   0.196   0.885
  464SOL    HW1 1414   2.407   0.191   0.985
  464SOL    HW2 1415   2.414   0.292   0.856
  465SOL     OW 1416   2.213   1.801   0.853
  465SOL    HW1 1417   2.263   1.715   0.859
  465SOL    HW2 1418   2.278   1.878   0.850
  466SOL     OW 1419   2.183   0.943   0.242
  466SOL    HW1 1420   2.265   0.982   0.200
  466SOL    HW2 1421   2.156   0.861   0.193
  467SOL     OW 1422   2.323   1.266   1.727
  467SOL    HW1 1423   2.273   1.267   1.641
  467SOL    HW2 1424   2.260   1.248   1.803
  468SOL     OW 1425   2.064   0.285   1.498
  468SOL    HW1 1426   1.984   0.345   1.485
  468SOL    HW2 1427   2.054   0.236   1.584
  469SOL     OW 1428   2.326   1.743   0.323
  469SOL    HW1 1429   2.359   1.782   0.409
  469SOL    HW2 1430   2.402   1.736   0.258
  470SOL     OW 1431   2.111   1.785   1.241
  470SOL    HW1 1432   2.168   1.720   1.291
  470SOL    HW2 1433   2.095   1.752   1.148
  471SOL     OW 1434   2.244   0.700   0.480
  471SOL    HW1 1435   2.289   0.610   0.477
  471SOL    HW2 1436   2.150   0.689   0.513
  472SOL     OW 1437   2.476   0.122   0.117
  472SOL    HW1 1438   2.574   0.100   0.124
  472SOL    HW2 1439   2.445   0.105   0.024
  473SOL     OW 1440   2.665   1.402   0.924
  473SOL    HW1 1441   2.755   1.416   0.882
  473SOL    HW2 1442   2.594   1.404   0.853
  474SOL     OW 1443   2.784   0.503   0.899
  474SOL    HW1 1444   2.759   0.494   0.803
  474SOL    HW2 1445   2.832   0.421   0.930
  475SOL     OW 1446   2.401   0.064   0.512
  475SOL    HW1 1447   2.320   0.065   0.570
  475SOL    HW2 1448   2.404   0.147   0.457
  476SOL     OW 1449   2.159   0.035   0.171
  476SOL    HW1 1450   2.208   0.119   0.150
  476SOL    HW2 1451   2.221  -0.030   0.216
  477SOL     OW 1452   2.321   1.152   0.741
  477SOL    HW1 1453   2.250   1.125   0.806
  477SOL    HW2 1454   2.295   1.124   0.648
  478SOL     OW 1455   1.940   0.556   1.386
  478SOL    HW1 1456   2.032   0.555   1.345
  478SOL    HW2 1457   1.934   0.630   1.453
  479SOL     OW 1458   2.423   0.222   1.147
  479SOL    HW1 1459   2.461   0.138   1.184
  479SOL    HW2 1460   2.335   0.241   1.191
  480SOL     OW 1461   2.350   1.385   0.174
  480SOL    HW1 1462   2.263   1.370   0.221
  480SOL    HW2 1463   2.333   1.411   0.079
  481SOL     OW 1464   2.389   0.256   0.328
  481SOL    HW1 1465   2.416   0.197   0.253
  481SOL    HW2 1466   2.389   0.351   0.297
  482SOL     OW 1467   2.777   0.089   1.402
  482SOL    HW1 1468   2.802   0.069   1.307
  482SOL    HW2 1469   2.849   0.145   1.444
  483SOL     OW 1470   2.272   0.813   1.251
  483SOL    HW1 1471   2.358   0.825   1.301
  483SOL    HW2 1472   2.230   0.726   1.278
  484SOL     OW 1473   1.926   1.564   1.331
  484SOL    HW1 1474   1.880   1.646   1.297
  484SOL    HW2 1475   2.024   1.583   1.340
  485SOL     OW 1476   2.229   1.100   0.501
  485SOL    HW1 1477   2.222   1.183   0.445
  485SOL    HW2 1478   2.233   1.020   0.441
  486SOL     OW 1479   2.428   0.537   0.865
  486SOL    HW1 1480   2.440   0.603   0.791
  486SOL    HW2 1481   2.474   0.571   0.948
  487SOL     OW 1482   2.216   1.510   1.329
  487SOL    HW1 1483   2.195   1.466   1.242
  487SOL    HW2 1484   2.313   1.536   1.332
  488SOL     OW 1485   2.264   0.751   1.598
  488SOL    HW1 1486   2.332   0.806   1.551
  488SOL    HW2 1487   2.304   0.663   1.625
  489SOL     OW 1488   2.366   0.050   1.740
  489SOL    HW1 1489   2.324  -0.007   1.670
  489SOL    HW2 1490   2.300   0.119   1.772
  490SOL     OW 1491   2.435   0.870   1.029
  490SOL    HW1 1492   2.479   0.959   1.020
  490SOL    HW2 1493   2.372   0.870   1.106
  491SOL     OW 1494   2.169   0.213   1.231
  491SOL    HW1 1495   2.146   0.250   1.321
  491SOL    HW2 1496   2.139   0.118   1.225
  492SOL     OW 1497   1.899   1.310   1.282
  492SOL    HW1 1498   1.952   1.261   1.350
  492SOL    HW2 1499   1.921   1.408   1.287
  493SOL     OW 1500   2.169   0.063   0.618
  493SOL    HW1 1501   2.158   0.157   0.651
  493SOL    HW2 1502   2.164   0.000   0.695
  494SOL     OW 1503   2.212   0.898   1.804
  494SOL    HW1 1504   2.288   0.942   1.852
  494SOL    HW2 1505   2.247   0.851   1.722
  495SOL     OW 1506   2.930   1.333   0.849
  495SOL    HW1 1507   2.937   1.249   0.794
  495SOL    HW2 1508   2.992   1.402   0.813
  496SOL     OW 1509   2.181   0.810   0.949
  496SOL    HW1 1510   2.274   0.846   0.954
  496SOL    HW2 1511   2.175   0.725   1.001
  497SOL     OW 1512   2.201   0.509   1.006
  497SOL    HW1 1513   2.149   0.426   0.989
  497SOL    HW2 1514   2.278   0.514   0.942
  498SOL     OW 1515   1.870   1.326   0.200
  498SOL    HW1 1516   1.777   1.347   0.169
  498SOL    HW2 1517   1.880   1.227   0.213
  499SOL     OW 1518   1.950   1.801   0.927
  499SOL    HW1 1519   1.908   1.715   0.900
  499SOL    HW2 1520   2.044   1.804   0.893
  500SOL     OW 1521   2.366   1.568   0.910
  500SOL    HW1 1522   2.432   1.642   0.919
  500SOL    HW2 1523   2.410   1.489   0.868
  501SOL     OW 1524   1.902   0.544   1.114
  501SOL    HW1 1525   1.987   0.511   1.073
  501SOL    HW2 1526   1.915   0.559   1.212
  502SOL     OW 1527   2.051   0.520   1.722
  502SOL    HW1 1528   2.110   0.480   1.652
  502SOL    HW2 1529   1.993   0.591   1.681
  503SOL     OW 1530   2.114   1.564   1.744
  503SOL    HW1 1531   2.084   1.621   1.820
  503SOL    HW2 1532   2.107   1.467   1.770
  504SOL     OW 1533   2.533   0.464   1.269
  504SOL    HW1 1534   2.499   0.375   1.239
  504SOL    HW2 1535   2.559   0.518   1.189
  505SOL     OW 1536   2.335   0.500   0.191
  505SOL    HW1 1537   2.396   0.580   0.195
  505SOL    HW2 1538   2.240   0.531   0.198
  506SOL     OW 1539   2.021   1.137   1.466
  506SOL    HW1 1540   2.043   1.076   1.542
  506SOL    HW2 1541   2.031   1.088   1.380
  507SOL     OW 1542   1.945   1.258   1.022
  507SOL    HW1 1543   1.940   1.257   1.122
  507SOL    HW2 1544   1.862   1.217   0.984
  508SOL     OW 1545   2.550   1.662   1.716
  508SOL    HW1 1546   2.494   1.743   1.725
  508SOL    HW2 1547   2.602   1.666   1.630
  509SOL     OW 1548   1.992   1.794   1.851
  509SOL    HW1 1549   1.951   1.720   1.904
  509SOL    HW2 1550   2.056   1.845   1.909
  510SOL     OW 1551   2.534   1.616   0.154
  510SOL    HW1 1552   2.543   1.626   0.055
  510SOL    HW2 1553   2.494   1.527   0.175
  511SOL     OW 1554   2.125   0.326   0.720
  511SOL    HW1 1555   2.046   0.377   0.686
  511SOL    HW2 1556   2.116   0.311   0.818
  512SOL     OW 1557   2.234   1.288   1.490
  512SOL    HW1 1558   2.221   1.381   1.456
  512SOL    HW2 1559   2.150   1.236   1.477
  513SOL     OW 1560   2.901   1.098   0.696
  513SOL    HW1 1561   2.831   1.051   0.750
  513SOL    HW2 1562   2.960   1.030   0.653
  514SOL     OW 1563   2.452   1.487   0.491
  514SOL    HW1 1564   2.494   1.429   0.421
  514SOL    HW2 1565   2.408   1.566   0.447
  515SOL     OW 1566   2.117   1.348   0.290
  515SOL    HW1 1567   2.021   1.349   0.263
  515SOL    HW2 1568   2.129   1.401   0.374
  516SOL     OW 1569   1.967   1.013   1.726
  516SOL    HW1 1570   1.890   0.980   1.780
  516SOL    HW2 1571   2.052   0.983   1.768
  517SOL     OW 1572   2.534   0.203   1.489
  517SOL    HW1 1573   2.624   0.187   1.449
  517SOL    HW2 1574   2.542   0.208   1.588
  518SOL     OW 1575   1.937   0.345   0.033
  518SOL    HW1 1576   1.845   0.317   0.004
  518SOL    HW2 1577   1.968   0.422  -0.023
  519SOL     OW 1578   1.934   0.166   0.318
  519SOL    HW1 1579   1.917   0.249   0.264
  519SOL    HW2 1580   2.024   0.129   0.296
  520SOL     OW 1581   2.475   0.842   1.431
  520SOL    HW1 1582   2.531   0.923   1.414
  520SOL    HW2 1583   2.534   0.762   1.434
  521SOL     OW 1584   2.578   0.565   1.708
  521SOL    HW1 1585   2.597   0.630   1.782
  521SOL    HW2 1586   2.638   0.485   1.717
  522SOL     OW 1587   2.252   1.741   1.560
  522SOL    HW1 1588   2.161   1.782   1.558
  522SOL    HW2 1589   2.245   1.647   1.592
  523SOL     OW 1590   2.456   0.745   0.652
  523SOL    HW1 1591   2.506   0.830   0.633
  523SOL    HW2 1592   2.368   0.747   0.604
  524SOL     OW 1593   2.523   1.790   0.953
  524SOL    HW1 1594   2.477   1.878   0.940
  524SOL    HW2 1595   2.622   1.802   0.946
  525SOL     OW 1596   2.083   1.314   1.844
  525SOL    HW1 1597   2.018   1.241   1.823
  525SOL    HW2 1598   2.087   1.328   1.942
  526SOL     OW 1599   1.941   1.240   0.653
  526SOL    HW1 1600   1.940   1.193   0.741
  526SOL    HW2 1601   2.023   1.212   0.602
  527SOL     OW 1602   2.534   1.391   1.624
  527SOL    HW1 1603   2.456   1.341   1.662
  527SOL    HW2 1604   2.531   1.486   1.655
  528SOL     OW 1605   2.290   0.424   0.520
  528SOL    HW1 1606   2.320   0.352   0.458
  528SOL    HW2 1607   2.251   0.384   0.603
  529SOL     OW 1608   2.179   0.547   1.280
  529SOL    HW1 1609   2.217   0.488   1.352
  529SOL    HW2 1610   2.219   0.521   1.192
  530SOL     OW 1611   2.674   1.586   0.687
  530SOL    HW1 1612   2.706   1.596   0.593
  530SOL    HW2 1613   2.595   1.524   0.689
  531SOL     OW 1614   2.480   1.567   1.284
  531SOL    HW1 1615   2.475   1.649   1.341
  531SOL    HW2 1616   2.569   1.564   1.239
  532SOL     OW 1617   1.901   1.077   0.300
  532SOL    HW1 1618   2.000   1.066   0.291
  532SOL    HW2 1619   1.861   0.991   0.332
  533SOL     OW 1620   2.092   0.628   1.975
  533SOL    HW1 1621   1.999   0.626   2.012
  533SOL    HW2 1622   2.093   0.589   1.883
  534SOL     OW 1623   2.087   0.275   2.858
  534SOL    HW1 1624   2.122   0.258   2.950
  534SOL    HW2 1625   1.999   0.230   2.846
  535SOL     OW 1626   1.881   0.368   2.509
  535SOL    HW1 1627   1.799   0.411   2.548
  535SOL    HW2 1628   1.853   0.295   2.446
  536SOL     OW 1629   2.547   1.012   2.527
  536SOL    HW1 1630   2.616   0.996   2.597
  536SOL    HW2 1631   2.474   1.069   2.565
  537SOL     OW 1632   2.093   1.713   2.345
  537SOL    HW1 1633   2.127   1.790   2.399
  537SOL    HW2 1634   2.137   1.713   2.255
  538SOL     OW 1635   2.092   1.434   2.400
  538SOL    HW1 1636   2.066   1.530   2.400
  538SOL    HW2 1637   2.021   1.380   2.445
  539SOL     OW 1638   2.102   1.091   2.748
  539SOL    HW1 1639   2.116   1.007   2.800
  539SOL    HW2 1640   2.047   1.155   2.803
  540SOL     OW 1641   2.468   0.964   1.985
  540SOL    HW1 1642   2.475   1.048   1.931
  540SOL    HW2 1643   2.514   0.977   2.073
  541SOL     OW 1644   1.984   0.643   2.425
  541SOL    HW1 1645   1.939   0.555   2.442
  541SOL    HW2 1646   1.983   0.697   2.509
  542SOL     OW 1647   1.889   1.596   1.979
  542SOL    HW1 1648   1.870   1.500   2.000
  542SOL    HW2 1649   1.856   1.654   2.054
  543SOL     OW 1650   2.475   1.365   2.588
  543SOL    HW1 1651   2.426   1.278   2.597
  543SOL    HW2 1652   2.452   1.408   2.501
  544SOL     OW 1653   2.671   0.004   2.364
  544SOL    HW1 1654   2.711   0.095   2.355
  544SOL    HW2 1655   2.571   0.012   2.370
  545SOL     OW 1656   2.460   0.729   2.132
  545SOL    HW1 1657   2.484   0.798   2.064
  545SOL    HW2 1658   2.382   0.762   2.186
  546SOL     OW 1659   1.938   0.811   2.651
  546SOL    HW1 1660   2.037   0.799   2.660
  546SOL    HW2 1661   1.914   0.906   2.672
  547SOL     OW 1662   2.213   1.801   2.715
  547SOL    HW1 1663   2.263   1.715   2.721
  547SOL    HW2 1664   2.278   1.878   2.712
  548SOL     OW 1665   2.183   0.943   2.104
  548SOL    HW1 1666   2.265   0.982   2.062
  548SOL    HW2 1667   2.156   0.861   2.055
  549SOL     OW 1668   2.326   1.743   2.185
  549SOL    HW1 1669   2.359   1.782   2.271
  549SOL    HW2 1670   2.402   1.736   2.120
  550SOL     OW 1671   2.244   0.700   2.342
  550SOL    HW1 1672   2.289   0.610   2.339
  550SOL    HW2 1673   2.150   0.689   2.375
  551SOL     OW 1674   2.476   0.122   1.979
  551SOL    HW1 1675   2.574   0.100   1.986
  551SOL    HW2 1676   2.445   0.105   1.886
  552SOL     OW 1677   2.401   0.064   2.374
  552SOL    HW1 1678   2.320   0.065   2.432
  552SOL    HW2 1679   2.404   0.147   2.319
  553SOL     OW 1680   2.159   0.035   2.033
  553SOL    HW1 1681   2.208   0.119   2.012
  553SOL    HW2 1682   2.221  -0.030   2.078
  554SOL     OW 1683   2.321   1.152   2.603
  554SOL    HW1 1684   2.250   1.125   2.668
  554SOL    HW2 1685   2.295   1.124   2.510
  555SOL     OW 1686   2.350   1.385   2.036
  555SOL    HW1 1687   2.263   1.370   2.083
  555SOL    HW2 1688   2.333   1.411   1.941
  556SOL     OW 1689   2.389   0.256   2.190
  556SOL    HW1 1690   2.416   0.197   2.115
  556SOL    HW2 1691   2.389   0.351   2.159
  557SOL     OW 1692   2.229   1.100   2.363
  557SOL    HW1 1693   2.222   1.183   2.307
  557SOL    HW2 1694   2.233   1.020   2.303
  558SOL     OW 1695   2.169   0.063   2.480
  558SOL    HW1 1696   2.158   0.157   2.513
  558SOL    HW2 1697   2.164   0.000   2.557
  559SOL     OW 1698   2.930   1.333   2.711
  559SOL    HW1 1699   2.937   1.249   2.656
  559SOL    HW2 1700   2.992   1.402   2.675
  560SOL     OW 1701   1.870   1.326   2.062
  560SOL    HW1 1702   1.777   1.347   2.031
  560SOL    HW2 1703   1.880   1.227   2.075
  561SOL     OW 1704   2.677   0.572   2.187
  561SOL    HW1 1705   2.684   0.483   2.141
  561SOL    HW2 1706   2.583   0.606   2.179
  562SOL     OW 1707   2.335   0.500   2.053
  562SOL    HW1 1708   2.396   0.580   2.057
  562SOL    HW2 1709   2.240   0.531   2.060
  563SOL     OW 1710   2.534   1.616   2.016
  563SOL    HW1 1711   2.543   1.626   1.917
  563SOL    HW2 1712   2.494   1.527   2.037
  564SOL     OW 1713   2.125   0.326   2.582
  564SOL    HW1 1714   2.046   0.377   2.548
  564SOL    HW2 1715   2.116   0.311   2.680
  565SOL     OW 1716   2.901   1.098   2.558
  565SOL    HW1 1717   2.831   1.051   2.612
  565SOL    HW2 1718   2.960   1.030   2.515
  566SOL     OW 1719   2.452   1.487   2.353
  566SOL    HW1 1720   2.494   1.429   2.283
  566SOL    HW2 1721   2.408   1.566   2.309
  567SOL     OW 1722   2.117   1.348   2.152
  567SOL    HW1 1723   2.021   1.349   2.125
  567SOL    HW2 1724   2.129   1.401   2.236
  568SOL     OW 1725   1.937   0.345   1.895
  568SOL    HW1 1726   1.845   0.317   1.866
  568SOL    HW2 1727   1.968   0.422   1.839
  569SOL     OW 1728   1.934   0.166   2.180
  569SOL    HW1 1729   1.917   0.249   2.126
  569SOL    HW2 1730   2.024   0.129   2.158
  570SOL     OW 1731   2.456   0.745   2.514
  570SOL    HW1 1732   2.506   0.830   2.495
  570SOL    HW2 1733   2.368   0.747   2.466
  571SOL     OW 1734   2.523   1.790   2.815
  571SOL    HW1 1735   2.477   1.878   2.802
  571SOL    HW2 1736   2.622   1.802   2.808
  572SOL     OW 1737   1.941   1.240   2.515
  572SOL    HW1 1738   1.940   1.193   2.603
  572SOL    HW2 1739   2.023   1.212   2.464
  573SOL     OW 1740   2.290   0.424   2.382
  573SOL    HW1 1741   2.320   0.352   2.320
  573SOL    HW2 1742   2.251   0.384   2.465
  574SOL     OW 1743   2.674   1.586   2.549
  574SOL    HW1 1744   2.706   1.596   2.455
  574SOL    HW2 1745   2.595   1.524   2.551
  575SOL     OW 1746   1.901   1.077   2.162
  575SOL    HW1 1747   2.000   1.066   2.153
  575SOL    HW2 1748   1.861   0.991   2.194
  576SOL     OW 1749   2.092   2.490   0.113
  576SOL    HW1 1750   1.999   2.488   0.150
  576SOL    HW2 1751   2.093   2.451   0.021
  577SOL     OW 1752   2.087   2.137   0.996
  577SOL    HW1 1753   2.122   2.120   1.088
  577SOL    HW2 1754   1.999   2.092   0.984
  578SOL     OW 1755   1.881   2.230   0.647
  578SOL    HW1 1756   1.799   2.273   0.686
  578SOL    HW2 1757   1.853   2.157   0.584
  579SOL     OW 1758   2.712   2.660   1.823
  579SOL    HW1 1759   2.708   2.736   1.888
  579SOL    HW2 1760   2.734   2.696   1.732
  580SOL     OW 1761   2.547   2.874   0.665
  580SOL    HW1 1762   2.616   2.858   0.735
  580SOL    HW2 1763   2.474   2.931   0.703
  581SOL     OW 1764   2.300   2.254   1.499
  581SOL    HW1 1765   2.382   2.198   1.508
  581SOL    HW2 1766   2.219   2.196   1.503
  582SOL     OW 1767   1.984   2.505   0.563
  582SOL    HW1 1768   1.939   2.417   0.580
  582SOL    HW2 1769   1.983   2.559   0.647
  583SOL     OW 1770   1.975   2.599   1.597
  583SOL    HW1 1771   2.063   2.586   1.642
  583SOL    HW2 1772   1.962   2.696   1.575
  584SOL     OW 1773   2.671   1.866   0.502
  584SOL    HW1 1774   2.711   1.957   0.493
  584SOL    HW2 1775   2.571   1.874   0.508
  585SOL     OW 1776   2.179   2.113   1.801
  585SOL    HW1 1777   2.250   2.184   1.807
  585SOL    HW2 1778   2.091   2.152   1.829
  586SOL     OW 1779   2.460   2.591   0.270
  586SOL    HW1 1780   2.484   2.660   0.202
  586SOL    HW2 1781   2.382   2.624   0.324
  587SOL     OW 1782   2.412   2.058   0.885
  587SOL    HW1 1783   2.407   2.053   0.985
  587SOL    HW2 1784   2.414   2.154   0.856
  588SOL     OW 1785   2.064   2.147   1.498
  588SOL    HW1 1786   1.984   2.207   1.485
  588SOL    HW2 1787   2.054   2.098   1.584
  589SOL     OW 1788   2.244   2.562   0.480
  589SOL    HW1 1789   2.289   2.472   0.477
  589SOL    HW2 1790   2.150   2.551   0.513
  590SOL     OW 1791   2.784   2.365   0.899
  590SOL    HW1 1792   2.759   2.356   0.803
  590SOL    HW2 1793   2.832   2.283   0.930
  591SOL     OW 1794   2.401   1.926   0.512
  591SOL    HW1 1795   2.320   1.927   0.570
  591SOL    HW2 1796   2.404   2.009   0.457
  592SOL     OW 1797   2.159   1.897   0.171
  592SOL    HW1 1798   2.208   1.981   0.150
  592SOL    HW2 1799   2.221   1.832   0.216
  593SOL     OW 1800   1.940   2.418   1.386
  593SOL    HW1 1801   2.032   2.417   1.345
  593SOL    HW2 1802   1.934   2.492   1.453
  594SOL     OW 1803   2.423   2.084   1.147
  594SOL    HW1 1804   2.461   2.000   1.184
  594SOL    HW2 1805   2.335   2.103   1.191
  595SOL     OW 1806   2.389   2.118   0.328
  595SOL    HW1 1807   2.416   2.059   0.253
  595SOL    HW2 1808   2.389   2.213   0.297
  596SOL     OW 1809   2.777   1.951   1.402
  596SOL    HW1 1810   2.802   1.931   1.307
  596SOL    HW2 1811   2.849   2.007   1.444
  597SOL     OW 1812   2.272   2.675   1.251
  597SOL    HW1 1813   2.358   2.687   1.301
  597SOL    HW2 1814   2.230   2.588   1.278
  598SOL     OW 1815   2.428   2.399   0.865
  598SOL    HW1 1816   2.440   2.465   0.791
  598SOL    HW2 1817   2.474   2.433   0.948
  599SOL     OW 1818   2.366   1.912   1.740
  599SOL    HW1 1819   2.324   1.855   1.670
  599SOL    HW2 1820   2.300   1.981   1.772
  600SOL     OW 1821   2.169   2.075   1.231
  600SOL    HW1 1822   2.146   2.112   1.321
  600SOL    HW2 1823   2.139   1.980   1.225
  601SOL     OW 1824   2.169   1.925   0.618
  601SOL    HW1 1825   2.158   2.019   0.651
  601SOL    HW2 1826   2.164   1.862   0.695
  602SOL     OW 1827   2.181   2.672   0.949
  602SOL    HW1 1828   2.274   2.708   0.954
  602SOL    HW2 1829   2.175   2.587   1.001
  603SOL     OW 1830   2.201   2.371   1.006
  603SOL    HW1 1831   2.149   2.288   0.989
  603SOL    HW2 1832   2.278   2.376   0.942
  604SOL     OW 1833   1.902   2.406   1.114
  604SOL    HW1 1834   1.987   2.373   1.073
  604SOL    HW2 1835   1.915   2.421   1.212
  605SOL     OW 1836   2.051   2.382   1.722
  605SOL    HW1 1837   2.110   2.342   1.652
  605SOL    HW2 1838   1.993   2.453   1.681
  606SOL     OW 1839   2.533   2.326   1.269
  606SOL    HW1 1840   2.499   2.237   1.239
  606SOL    HW2 1841   2.559   2.380   1.189
  607SOL     OW 1842   2.335   2.362   0.191
  607SOL    HW1 1843   2.396   2.442   0.195
  607SOL    HW2 1844   2.240   2.393   0.198
  608SOL     OW 1845   2.125   2.188   0.720
  608SOL    HW1 1846   2.046   2.239   0.686
  608SOL    HW2 1847   2.116   2.173   0.818
  609SOL     OW 1848   1.967   2.875   1.726
  609SOL    HW1 1849   1.890   2.842   1.780
  609SOL    HW2 1850   2.052   2.845   1.768
  610SOL     OW 1851   2.534   2.065   1.489
  610SOL    HW1 1852   2.624   2.049   1.449
  610SOL    HW2 1853   2.542   2.070   1.588
  611SOL     OW 1854   1.937   2.207   0.033
  611SOL    HW1 1855   1.845   2.179   0.004
  611SOL    HW2 1856   1.968   2.284  -0.023
  612SOL     OW 1857   1.934   2.028   0.318
  612SOL    HW1 1858   1.917   2.111   0.264
  612SOL    HW2 1859   2.024   1.991   0.296
  613SOL     OW 1860   2.578   2.427   1.708
  613SOL    HW1 1861   2.597   2.492   1.782
  613SOL    HW2 1862   2.638   2.347   1.717
  614SOL     OW 1863   2.456   2.607   0.652
  614SOL    HW1 1864   2.506   2.692   0.633
  614SOL    HW2 1865   2.368   2.609   0.604
  615SOL     OW 1866   2.290   2.286   0.520
  615SOL    HW1 1867   2.320   2.214   0.458
  615SOL    HW2 1868   2.251   2.246   0.603
  616SOL     OW 1869   2.179   2.409   1.280
  616SOL    HW1 1870   2.217   2.350   1.352
  616SOL    HW2 1871   2.219   2.383   1.192
  617SOL     OW 1872   2.092   2.490   1.975
  617SOL    HW1 1873   1.999   2.488   2.012
  617SOL    HW2 1874   2.093   2.451   1.883
  618SOL     OW 1875   2.087   2.137   2.858
  618SOL    HW1 1876   2.122   2.120   2.950
  618SOL    HW2 1877   1.999   2.092   2.846
  619SOL     OW 1878   1.881   2.230   2.509
  619SOL    HW1 1879   1.799   2.273   2.548
  619SOL    HW2 1880   1.853   2.157   2.446
  620SOL     OW 1881   2.547   2.874   2.527
  620SOL    HW1 1882   2.616   2.858   2.597
  620SOL    HW2 1883   2.474   2.931   2.565
  621SOL     OW 1884   1.984   2.505   2.425
  621SOL    HW1 1885   1.939   2.417   2.442
  621SOL    HW2 1886   1.983   2.559   2.509
  622SOL     OW 1887   2.671   1.866   2.364
  622SOL    HW1 1888   2.711   1.957   2.355
  622SOL    HW2 1889   2.571   1.874   2.370
  623SOL     OW 1890   2.460   2.591   2.132
  623SOL    HW1 1891   2.484   2.660   2.064
  623SOL    HW2 1892   2.382   2.624   2.186
  624SOL     OW 1893   2.244   2.562   2.342
  624SOL    HW1 1894   2.289   2.472   2.339
  624SOL    HW2 1895   2.150   2.551   2.375
  625SOL     OW 1896   2.476   1.984   1.979
  625SOL    HW1 1897   2.574   1.962   1.986
  625SOL    HW2 1898   2.445   1.967   1.886
  626SOL     OW 1899   2.401   1.926   2.374
  626SOL    HW1 1900   2.320   1.927   2.432
  626SOL    HW2 1901   2.404   2.009   2.319
  627SOL     OW 1902   2.159   1.897   2.033
  627SOL    HW1 1903   2.208   1.981   2.012
  627SOL    HW2 1904   2.221   1.832   2.078
  628SOL     OW 1905   2.389   2.118   2.190
  628SOL    HW1 1906   2.416   2.059   2.115
  628SOL    HW2 1907   2.389   2.213   2.159
  629SOL     OW 1908   2.169   1.925   2.480
  629SOL    HW1 1909   2.158   2.019   2.513
  629SOL    HW2 1910   2.164   1.862   2.557
  630SOL     OW 1911   2.677   2.434   2.187
  630SOL    HW1 1912   2.684   2.345   2.141
  630SOL    HW2 1913   2.583   2.468   2.179
  631SOL     OW 1914   2.335   2.362   2.053
  631SOL    HW1 1915   2.396   2.442   2.057
  631SOL    HW2 1916   2.240   2.393   2.060
  632SOL     OW 1917   2.125   2.188   2.582
  632SOL    HW1 1918   2.046   2.239   2.548
  632SOL    HW2 1919   2.116   2.173   2.680
  633SOL     OW 1920   1.937   2.207   1.895
  633SOL    HW1 1921   1.845   2.179   1.866
  633SOL    HW2 1922   1.968   2.284   1.839
  634SOL     OW 1923   1.934   2.028   2.180
  634SOL    HW1 1924   1.917   2.111   2.126
  634SOL    HW2 1925   2.024   1.991   2.158
  635SOL     OW 1926   2.456   2.607   2.514
  635SOL    HW1 1927   2.506   2.692   2.495
  635SOL    HW2 1928   2.368   2.609   2.466
  636SOL     OW 1929   2.290   2.286   2.382
  636SOL    HW1 1930   2.320   2.214   2.320
  636SOL    HW2 1931   2.251   2.246   2.465
   2.69302   2.69302   2.69302
