; mobley_4609460_GMX.itp created by acpype (v: 2023.10.27) on Thu May 14 13:43:50 2026

[ atomtypes ]
;name   bond_type     mass     charge   ptype   sigma         epsilon       Amb
 ca       ca          0.00000  0.00000   A     3.31521e-01   4.13379e-01 ; 1.86  0.0988
 c        c           0.00000  0.00000   A     3.31521e-01   4.13379e-01 ; 1.86  0.0988
 c3       c3          0.00000  0.00000   A     3.39771e-01   4.51035e-01 ; 1.91  0.1078
 o        o           0.00000  0.00000   A     3.04812e-01   6.12119e-01 ; 1.71  0.1463
 oh       oh          0.00000  0.00000   A     3.24287e-01   3.89112e-01 ; 1.82  0.0930
 os       os          0.00000  0.00000   A     3.15610e-01   3.03758e-01 ; 1.77  0.0726
 ha       ha          0.00000  0.00000   A     2.62548e-01   6.73624e-02 ; 1.47  0.0161
 hc       hc          0.00000  0.00000   A     2.60018e-01   8.70272e-02 ; 1.46  0.0208
 h1       h1          0.00000  0.00000   A     2.42200e-01   8.70272e-02 ; 1.36  0.0208
 ho       ho          0.00000  0.00000   A     5.37925e-02   1.96648e-02 ; 0.30  0.0047

[ moleculetype ]
;name            nrexcl
 mobley_4609460   3

[ atoms ]
;   nr  type  resi  res  atom  cgnr     charge      mass       ; qtot   bond_type
     1   ca     1   MOL    C1    1    -0.034000     12.01000 ; qtot -0.034
     2   ca     1   MOL    C2    2    -0.034000     12.01000 ; qtot -0.068
     3   ca     1   MOL    C3    3    -0.205000     12.01000 ; qtot -0.273
     4   ca     1   MOL    C4    4    -0.205000     12.01000 ; qtot -0.478
     5   ca     1   MOL    C5    5    -0.173600     12.01000 ; qtot -0.652
     6   ca     1   MOL    C6    6     0.158100     12.01000 ; qtot -0.493
     7    c     1   MOL    C7    7     0.651700     12.01000 ; qtot 0.158
     8   c3     1   MOL    C8    8    -0.101100     12.01000 ; qtot 0.057
     9   c3     1   MOL    C9    9     0.140400     12.01000 ; qtot 0.197
    10    o     1   MOL    O1   10    -0.550000     16.00000 ; qtot -0.353
    11   oh     1   MOL    O2   11    -0.491100     16.00000 ; qtot -0.844
    12   os     1   MOL    O3   12    -0.444900     16.00000 ; qtot -1.288
    13   ha     1   MOL    H1   13     0.159000      1.00800 ; qtot -1.129
    14   ha     1   MOL    H2   14     0.159000      1.00800 ; qtot -0.970
    15   ha     1   MOL    H3   15     0.149000      1.00800 ; qtot -0.821
    16   ha     1   MOL    H4   16     0.149000      1.00800 ; qtot -0.672
    17   hc     1   MOL    H5   17     0.047700      1.00800 ; qtot -0.625
    18   hc     1   MOL    H6   18     0.047700      1.00800 ; qtot -0.577
    19   hc     1   MOL    H7   19     0.047700      1.00800 ; qtot -0.529
    20   h1     1   MOL    H8   20     0.052700      1.00800 ; qtot -0.477
    21   h1     1   MOL    H9   21     0.052700      1.00800 ; qtot -0.424
    22   ho     1   MOL   H10   22     0.424000      1.00800 ; qtot -0.000

[ bonds ]
;   ai     aj funct   r             k
     1      3   1    1.3986e-01    2.9644e+05 ;     C1 - C3    
     1      5   1    1.3986e-01    2.9644e+05 ;     C1 - C5    
     1     13   1    1.0860e-01    3.0183e+05 ;     C1 - H1    
     2      4   1    1.3986e-01    2.9644e+05 ;     C2 - C4    
     2      5   1    1.3986e-01    2.9644e+05 ;     C2 - C5    
     2     14   1    1.0860e-01    3.0183e+05 ;     C2 - H2    
     3      6   1    1.3986e-01    2.9644e+05 ;     C3 - C6    
     3     15   1    1.0860e-01    3.0183e+05 ;     C3 - H3    
     4      6   1    1.3986e-01    2.9644e+05 ;     C4 - C6    
     4     16   1    1.0860e-01    3.0183e+05 ;     C4 - H4    
     5      7   1    1.4907e-01    2.1994e+05 ;     C5 - C7    
     6     11   1    1.3644e-01    2.9167e+05 ;     C6 - O2    
     7     10   1    1.2190e-01    4.9421e+05 ;     C7 - O1    
     7     12   1    1.3621e-01    2.9398e+05 ;     C7 - O3    
     8      9   1    1.5354e-01    1.9154e+05 ;     C8 - C9    
     8     17   1    1.0962e-01    2.8891e+05 ;     C8 - H5    
     8     18   1    1.0962e-01    2.8891e+05 ;     C8 - H6    
     8     19   1    1.0962e-01    2.8891e+05 ;     C8 - H7    
     9     12   1    1.4273e-01    2.3620e+05 ;     C9 - O3    
     9     20   1    1.0969e-01    2.8804e+05 ;     C9 - H8    
     9     21   1    1.0969e-01    2.8804e+05 ;     C9 - H9    
    11     22   1    9.7250e-02    4.4811e+05 ;     O2 - H10   

[ pairs ]
;   ai     aj    funct
     1      4      1 ;     C1 - C4    
     1     10      1 ;     C1 - O1    
     1     11      1 ;     C1 - O2    
     1     12      1 ;     C1 - O3    
     1     14      1 ;     C1 - H2    
     2      3      1 ;     C2 - C3    
     2     10      1 ;     C2 - O1    
     2     11      1 ;     C2 - O2    
     2     12      1 ;     C2 - O3    
     3      7      1 ;     C3 - C7    
     3     16      1 ;     C3 - H4    
     3     22      1 ;     C3 - H10   
     4      7      1 ;     C4 - C7    
     4     15      1 ;     C4 - H3    
     4     22      1 ;     C4 - H10   
     5      6      1 ;     C5 - C6    
     5      9      1 ;     C5 - C9    
     5     15      1 ;     C5 - H3    
     5     16      1 ;     C5 - H4    
     6     14      1 ;     C6 - H2    
     7      8      1 ;     C7 - C8    
     7     14      1 ;     C7 - H2    
     7     20      1 ;     C7 - H8    
     7     21      1 ;     C7 - H9    
     9     10      1 ;     C9 - O1    
    11     15      1 ;     O2 - H3    
    11     16      1 ;     O2 - H4    
    12     17      1 ;     O3 - H5    
    12     18      1 ;     O3 - H6    
    12     19      1 ;     O3 - H7    
    13      2      1 ;     H1 - C2    
    13      6      1 ;     H1 - C6    
    13      7      1 ;     H1 - C7    
    13     15      1 ;     H1 - H3    
    14     16      1 ;     H2 - H4    
    17     20      1 ;     H5 - H8    
    17     21      1 ;     H5 - H9    
    18     20      1 ;     H6 - H8    
    18     21      1 ;     H6 - H9    
    19     20      1 ;     H7 - H8    
    19     21      1 ;     H7 - H9    

[ angles ]
;   ai     aj     ak    funct   theta         cth
     1      3      6      1    1.2002e+02    5.3279e+02 ;     C1 - C3     - C6    
     1      3     15      1    1.1988e+02    3.7572e+02 ;     C1 - C3     - H3    
     1      5      2      1    1.2002e+02    5.3279e+02 ;     C1 - C5     - C2    
     1      5      7      1    1.2033e+02    5.1413e+02 ;     C1 - C5     - C7    
     2      4      6      1    1.2002e+02    5.3279e+02 ;     C2 - C4     - C6    
     2      4     16      1    1.1988e+02    3.7572e+02 ;     C2 - C4     - H4    
     2      5      7      1    1.2033e+02    5.1413e+02 ;     C2 - C5     - C7    
     3      1      5      1    1.2002e+02    5.3279e+02 ;     C3 - C1     - C5    
     3      1     13      1    1.1988e+02    3.7572e+02 ;     C3 - C1     - H1    
     3      6      4      1    1.2002e+02    5.3279e+02 ;     C3 - C6     - C4    
     3      6     11      1    1.1990e+02    6.5990e+02 ;     C3 - C6     - O2    
     4      2      5      1    1.2002e+02    5.3279e+02 ;     C4 - C2     - C5    
     4      2     14      1    1.1988e+02    3.7572e+02 ;     C4 - C2     - H2    
     4      6     11      1    1.1990e+02    6.5990e+02 ;     C4 - C6     - O2    
     5      1     13      1    1.1988e+02    3.7572e+02 ;     C5 - C1     - H1    
     5      2     14      1    1.1988e+02    3.7572e+02 ;     C5 - C2     - H2    
     5      7     10      1    1.2260e+02    6.5237e+02 ;     C5 - C7     - O1    
     5      7     12      1    1.1241e+02    6.5756e+02 ;     C5 - C7     - O3    
     6      3     15      1    1.1988e+02    3.7572e+02 ;     C6 - C3     - H3    
     6      4     16      1    1.1988e+02    3.7572e+02 ;     C6 - C4     - H4    
     6     11     22      1    1.0858e+02    5.6409e+02 ;     C6 - O2     - H10   
     7     12      9      1    1.1582e+02    7.4835e+02 ;     C7 - O3     - C9    
     8      9     12      1    1.0762e+02    6.4802e+02 ;     C8 - C9     - O3    
     8      9     20      1    1.0959e+02    3.6217e+02 ;     C8 - C9     - H8    
     8      9     21      1    1.0959e+02    3.6217e+02 ;     C8 - C9     - H9    
     9      8     17      1    1.0968e+02    3.6208e+02 ;     C9 - C8     - H5    
     9      8     18      1    1.0968e+02    3.6208e+02 ;     C9 - C8     - H6    
     9      8     19      1    1.0968e+02    3.6208e+02 ;     C9 - C8     - H7    
    10      7     12      1    1.2320e+02    8.4734e+02 ;     O1 - C7     - O3    
    12      9     20      1    1.1034e+02    4.7028e+02 ;     O3 - C9     - H8    
    12      9     21      1    1.1034e+02    4.7028e+02 ;     O3 - C9     - H9    
    17      8     18      1    1.0773e+02    2.9957e+02 ;     H5 - C8     - H6    
    17      8     19      1    1.0773e+02    2.9957e+02 ;     H5 - C8     - H7    
    18      8     19      1    1.0773e+02    2.9957e+02 ;     H6 - C8     - H7    
    20      9     21      1    1.0855e+02    2.9824e+02 ;     H8 - C9     - H9    

[ dihedrals ] ; propers
; for gromacs 4.5 or higher, using funct 9
;    i      j      k      l   func   phase     kd      pn
     1      3      6      4      9   180.00  15.16700   2 ;     C1-    C3-    C6-    C4
     1      3      6     11      9   180.00  15.16700   2 ;     C1-    C3-    C6-    O2
     1      5      2      4      9   180.00  15.16700   2 ;     C1-    C5-    C2-    C4
     1      5      2     14      9   180.00  15.16700   2 ;     C1-    C5-    C2-    H2
     1      5      7     10      9   180.00   2.42672   2 ;     C1-    C5-    C7-    O1
     1      5      7     12      9   180.00   4.18400   2 ;     C1-    C5-    C7-    O3
     2      4      6      3      9   180.00  15.16700   2 ;     C2-    C4-    C6-    C3
     2      4      6     11      9   180.00  15.16700   2 ;     C2-    C4-    C6-    O2
     2      5      7     10      9   180.00   2.42672   2 ;     C2-    C5-    C7-    O1
     2      5      7     12      9   180.00   4.18400   2 ;     C2-    C5-    C7-    O3
     3      1      5      2      9   180.00  15.16700   2 ;     C3-    C1-    C5-    C2
     3      1      5      7      9   180.00  15.16700   2 ;     C3-    C1-    C5-    C7
     3      6      4     16      9   180.00  15.16700   2 ;     C3-    C6-    C4-    H4
     3      6     11     22      9   180.00   3.57732   2 ;     C3-    C6-    O2-   H10
     4      2      5      7      9   180.00  15.16700   2 ;     C4-    C2-    C5-    C7
     4      6      3     15      9   180.00  15.16700   2 ;     C4-    C6-    C3-    H3
     4      6     11     22      9   180.00   3.57732   2 ;     C4-    C6-    O2-   H10
     5      1      3      6      9   180.00  15.16700   2 ;     C5-    C1-    C3-    C6
     5      1      3     15      9   180.00  15.16700   2 ;     C5-    C1-    C3-    H3
     5      2      4      6      9   180.00  15.16700   2 ;     C5-    C2-    C4-    C6
     5      2      4     16      9   180.00  15.16700   2 ;     C5-    C2-    C4-    H4
     5      7     12      9      9     0.00   1.29704   3 ;     C5-    C7-    O3-    C9
     5      7     12      9      9   180.00   6.69440   1 ;     C5-    C7-    O3-    C9
     5      7     12      9      9   180.00  15.35528   2 ;     C5-    C7-    O3-    C9
     6      4      2     14      9   180.00  15.16700   2 ;     C6-    C4-    C2-    H2
     7      5      2     14      9   180.00  15.16700   2 ;     C7-    C5-    C2-    H2
     7     12      9      8      9     0.00   1.60247   3 ;     C7-    O3-    C9-    C8
     7     12      9      8      9   180.00   3.34720   1 ;     C7-    O3-    C9-    C8
     7     12      9     20      9     0.00   1.60387   3 ;     C7-    O3-    C9-    H8
     7     12      9     21      9     0.00   1.60387   3 ;     C7-    O3-    C9-    H9
     9     12      7     10      9   180.00   5.85760   1 ;     C9-    O3-    C7-    O1
     9     12      7     10      9   180.00  11.29680   2 ;     C9-    O3-    C7-    O1
    11      6      3     15      9   180.00  15.16700   2 ;     O2-    C6-    C3-    H3
    11      6      4     16      9   180.00  15.16700   2 ;     O2-    C6-    C4-    H4
    12      9      8     17      9     0.00   0.00000   0 ;     O3-    C9-    C8-    H5
    12      9      8     17      9     0.00   1.04600   1 ;     O3-    C9-    C8-    H5
    12      9      8     18      9     0.00   0.00000   0 ;     O3-    C9-    C8-    H6
    12      9      8     18      9     0.00   1.04600   1 ;     O3-    C9-    C8-    H6
    12      9      8     19      9     0.00   0.00000   0 ;     O3-    C9-    C8-    H7
    12      9      8     19      9     0.00   1.04600   1 ;     O3-    C9-    C8-    H7
    13      1      3      6      9   180.00  15.16700   2 ;     H1-    C1-    C3-    C6
    13      1      3     15      9   180.00  15.16700   2 ;     H1-    C1-    C3-    H3
    13      1      5      2      9   180.00  15.16700   2 ;     H1-    C1-    C5-    C2
    13      1      5      7      9   180.00  15.16700   2 ;     H1-    C1-    C5-    C7
    14      2      4     16      9   180.00  15.16700   2 ;     H2-    C2-    C4-    H4
    17      8      9     20      9     0.00   0.65084   3 ;     H5-    C8-    C9-    H8
    17      8      9     21      9     0.00   0.65084   3 ;     H5-    C8-    C9-    H9
    18      8      9     20      9     0.00   0.65084   3 ;     H6-    C8-    C9-    H8
    18      8      9     21      9     0.00   0.65084   3 ;     H6-    C8-    C9-    H9
    19      8      9     20      9     0.00   0.65084   3 ;     H7-    C8-    C9-    H8
    19      8      9     21      9     0.00   0.65084   3 ;     H7-    C8-    C9-    H9

[ dihedrals ] ; impropers
; treated as propers in GROMACS to use correct AMBER analytical function
;    i      j      k      l   func   phase     kd      pn
     1      6      3     15      4   180.00   4.60240   2 ;     C1-    C6-    C3-    H3
     2      6      4     16      4   180.00   4.60240   2 ;     C2-    C6-    C4-    H4
     3      4      6     11      4   180.00   4.60240   2 ;     C3-    C4-    C6-    O2
     4      5      2     14      4   180.00   4.60240   2 ;     C4-    C5-    C2-    H2
     5     10      7     12      4   180.00   4.60240   2 ;     C5-    O1-    C7-    O3
     7      1      5      2      4   180.00   4.60240   2 ;     C7-    C1-    C5-    C2
    13      1      5      3      4   180.00   4.60240   2 ;     H1-    C1-    C5-    C3
