; mobley_9246351_GMX.itp created by acpype (v: 2023.10.27) on Thu May 14 13:31:34 2026

[ atomtypes ]
;name   bond_type     mass     charge   ptype   sigma         epsilon       Amb
 c3       c3          0.00000  0.00000   A     3.39771e-01   4.51035e-01 ; 1.91  0.1078
 br       br          0.00000  0.00000   A     3.61259e-01   1.64515e+00 ; 2.03  0.3932
 h2       h2          0.00000  0.00000   A     2.24382e-01   8.70272e-02 ; 1.26  0.0208

[ moleculetype ]
;name            nrexcl
 mobley_9246351   3

[ atoms ]
;   nr  type  resi  res  atom  cgnr     charge      mass       ; qtot   bond_type
     1   c3     1   MOL    C1    1     0.009400     12.01000 ; qtot 0.009
     2   br     1   MOL   BR1    2    -0.108400     79.90000 ; qtot -0.099
     3   br     1   MOL   BR2    3    -0.108400     79.90000 ; qtot -0.207
     4   h2     1   MOL    H1    4     0.103700      1.00800 ; qtot -0.104
     5   h2     1   MOL    H2    5     0.103700      1.00800 ; qtot 0.000

[ bonds ]
;   ai     aj funct   r             k
     1      2   1    1.9805e-01    1.0319e+05 ;     C1 - BR1   
     1      3   1    1.9805e-01    1.0319e+05 ;     C1 - BR2   
     1      4   1    1.0950e-01    2.9039e+05 ;     C1 - H1    
     1      5   1    1.0950e-01    2.9039e+05 ;     C1 - H2    

[ angles ]
;   ai     aj     ak    funct   theta         cth
     2      1      3      1    1.0991e+02    5.5898e+02 ;    BR1 - C1     - BR2   
     2      1      4      1    1.0695e+02    3.3505e+02 ;    BR1 - C1     - H1    
     2      1      5      1    1.0695e+02    3.3505e+02 ;    BR1 - C1     - H2    
     3      1      4      1    1.0695e+02    3.3505e+02 ;    BR2 - C1     - H1    
     3      1      5      1    1.0695e+02    3.3505e+02 ;    BR2 - C1     - H2    
     4      1      5      1    1.0951e+02    2.9748e+02 ;     H1 - C1     - H2    
