; mobley_766666_GMX.itp created by acpype (v: 2023.10.27) on Thu May 14 13:40:08 2026

[ atomtypes ]
;name   bond_type     mass     charge   ptype   sigma         epsilon       Amb
 c2       c2          0.00000  0.00000   A     3.31521e-01   4.13379e-01 ; 1.86  0.0988
 cl       cl          0.00000  0.00000   A     3.46595e-01   1.10374e+00 ; 1.95  0.2638
 h4       h4          0.00000  0.00000   A     2.53639e-01   6.73624e-02 ; 1.42  0.0161

[ moleculetype ]
;name            nrexcl
 mobley_766666    3

[ atoms ]
;   nr  type  resi  res  atom  cgnr     charge      mass       ; qtot   bond_type
     1   c2     1   MOL    C1    1    -0.068600     12.01000 ; qtot -0.069
     2   c2     1   MOL    C2    2     0.062800     12.01000 ; qtot -0.006
     3   cl     1   MOL   CL1    3    -0.065400     35.45000 ; qtot -0.071
     4   cl     1   MOL   CL2    4    -0.051400     35.45000 ; qtot -0.123
     5   cl     1   MOL   CL3    5    -0.051400     35.45000 ; qtot -0.174
     6   h4     1   MOL    H1    6     0.174000      1.00800 ; qtot -0.000

[ bonds ]
;   ai     aj funct   r             k
     1      2   1    1.3379e-01    3.6484e+05 ;     C1 - C2    
     1      3   1    1.7415e-01    1.6405e+05 ;     C1 - CL1   
     1      6   1    1.0865e-01    3.0117e+05 ;     C1 - H1    
     2      4   1    1.7415e-01    1.6405e+05 ;     C2 - CL2   
     2      5   1    1.7415e-01    1.6405e+05 ;     C2 - CL3   

[ pairs ]
;   ai     aj    funct
     3      4      1 ;    CL1 - CL2   
     3      5      1 ;    CL1 - CL3   
     6      4      1 ;     H1 - CL2   
     6      5      1 ;     H1 - CL3   

[ angles ]
;   ai     aj     ak    funct   theta         cth
     1      2      4      1    1.2318e+02    5.3622e+02 ;     C1 - C2     - CL2   
     1      2      5      1    1.2318e+02    5.3622e+02 ;     C1 - C2     - CL3   
     2      1      3      1    1.2318e+02    5.3622e+02 ;     C2 - C1     - CL1   
     2      1      6      1    1.2272e+02    3.8451e+02 ;     C2 - C1     - H1    
     3      1      6      1    1.1346e+02    3.6543e+02 ;    CL1 - C1     - H1    
     4      2      5      1    1.1438e+02    5.9137e+02 ;    CL2 - C2     - CL3   

[ dihedrals ] ; propers
; for gromacs 4.5 or higher, using funct 9
;    i      j      k      l   func   phase     kd      pn
     3      1      2      4      9   180.00  27.82360   2 ;    CL1-    C1-    C2-   CL2
     3      1      2      5      9   180.00  27.82360   2 ;    CL1-    C1-    C2-   CL3
     6      1      2      4      9   180.00  27.82360   2 ;     H1-    C1-    C2-   CL2
     6      1      2      5      9   180.00  27.82360   2 ;     H1-    C1-    C2-   CL3

[ dihedrals ] ; impropers
; treated as propers in GROMACS to use correct AMBER analytical function
;    i      j      k      l   func   phase     kd      pn
     1      4      2      5      4   180.00   4.60240   2 ;     C1-   CL2-    C2-   CL3
     6      1      3      2      4   180.00   4.60240   2 ;     H1-    C1-   CL1-    C2
