mobley_1743409_GMX.gro created by acpype (v: 2023.10.27) on Thu May 14 13:54:25 2026
 3425
    1MOL     C1    1   1.745   1.636   1.475
    1MOL     C2    2   1.519   1.627   1.790
    1MOL     C3    3   1.823   1.794   1.154
    1MOL     C4    4   1.453   1.483   2.121
    1MOL     C5    5   1.630   1.671   1.567
    1MOL     C6    6   1.632   1.590   1.696
    1MOL     C7    7   1.842   1.697   1.268
    1MOL     C8    8   1.428   1.574   2.002
    1MOL     O1    9   1.828   1.548   1.495
    1MOL     O2   10   1.433   1.711   1.768
    1MOL     O3   11   1.740   1.718   1.365
    1MOL     O4   12   1.529   1.551   1.904
    1MOL     H1   13   1.900   1.781   1.077
    1MOL     H2   14   1.724   1.781   1.108
    1MOL     H3   15   1.827   1.897   1.190
    1MOL     H4   16   1.377   1.499   2.198
    1MOL     H5   17   1.451   1.378   2.089
    1MOL     H6   18   1.552   1.502   2.163
    1MOL     H7   19   1.536   1.656   1.513
    1MOL     H8   20   1.640   1.777   1.593
    1MOL     H9   21   1.726   1.610   1.749
    1MOL    H10   22   1.626   1.482   1.676
    1MOL    H11   23   1.940   1.712   1.315
    1MOL    H12   24   1.836   1.593   1.231
    1MOL    H13   25   1.433   1.679   2.033
    1MOL    H14   26   1.330   1.554   1.958
    2SOL     OW   27   0.230   0.628   0.113
    2SOL    HW1   28   0.137   0.626   0.150
    2SOL    HW2   29   0.231   0.589   0.021
    3SOL     OW   30   0.225   0.275   0.996
    3SOL    HW1   31   0.260   0.258   1.088
    3SOL    HW2   32   0.137   0.230   0.984
    4SOL     OW   33   0.019   0.368   0.647
    4SOL    HW1   34  -0.063   0.411   0.686
    4SOL    HW2   35  -0.009   0.295   0.584
    5SOL     OW   36   0.569   1.275   1.165
    5SOL    HW1   37   0.476   1.268   1.128
    5SOL    HW2   38   0.580   1.364   1.209
    6SOL     OW   39   1.555   1.511   0.703
    6SOL    HW1   40   1.498   1.495   0.784
    6SOL    HW2   41   1.496   1.521   0.623
    7SOL     OW   42   1.135   0.703   0.717
    7SOL    HW1   43   1.192   0.781   0.692
    7SOL    HW2   44   1.075   0.729   0.793
    8SOL     OW   45   1.755   0.607   0.231
    8SOL    HW1   46   1.743   0.594   0.132
    8SOL    HW2   47   1.725   0.526   0.280
    9SOL     OW   48   0.768   1.144   1.023
    9SOL    HW1   49   0.690   1.161   1.083
    9SOL    HW2   50   0.802   1.231   0.987
   10SOL     OW   51   0.850   0.798   1.823
   10SOL    HW1   52   0.846   0.874   1.888
   10SOL    HW2   53   0.872   0.834   1.732
   11SOL     OW   54   0.685   1.012   0.665
   11SOL    HW1   55   0.754   0.996   0.735
   11SOL    HW2   56   0.612   1.069   0.703
   12SOL     OW   57   0.686   1.161   1.803
   12SOL    HW1   58   0.746   1.240   1.817
   12SOL    HW2   59   0.600   1.192   1.762
   13SOL     OW   60   0.335   1.435   1.061
   13SOL    HW1   61   0.257   1.404   1.008
   13SOL    HW2   62   0.393   1.493   1.004
   14SOL     OW   63   1.460   1.505   1.339
   14SOL    HW1   64   1.484   1.599   1.365
   14SOL    HW2   65   1.444   1.451   1.421
   15SOL     OW   66   0.438   0.392   1.499
   15SOL    HW1   67   0.520   0.336   1.508
   15SOL    HW2   68   0.357   0.334   1.503
   16SOL     OW   69   1.603   0.447   0.737
   16SOL    HW1   70   1.529   0.493   0.687
   16SOL    HW2   71   1.654   0.515   0.790
   17SOL     OW   72   0.231   1.713   0.483
   17SOL    HW1   73   0.265   1.790   0.537
   17SOL    HW2   74   0.275   1.713   0.393
   18SOL     OW   75   1.127   1.341   1.690
   18SOL    HW1   76   1.174   1.341   1.778
   18SOL    HW2   77   1.079   1.254   1.679
   19SOL     OW   78   0.230   1.434   0.538
   19SOL    HW1   79   0.204   1.530   0.538
   19SOL    HW2   80   0.159   1.380   0.583
   20SOL     OW   81   0.240   1.091   0.886
   20SOL    HW1   82   0.254   1.007   0.938
   20SOL    HW2   83   0.185   1.155   0.941
   21SOL     OW   84   0.620   1.786   1.439
   21SOL    HW1   85   0.528   1.769   1.474
   21SOL    HW2   86   0.648   1.878   1.465
   22SOL     OW   87   0.606   0.964   0.123
   22SOL    HW1   88   0.613   1.048   0.069
   22SOL    HW2   89   0.652   0.977   0.211
   23SOL     OW   90   1.594   0.114   1.480
   23SOL    HW1   91   1.576   0.181   1.408
   23SOL    HW2   92   1.591   0.160   1.569
   24SOL     OW   93   0.122   0.643   0.563
   24SOL    HW1   94   0.077   0.555   0.580
   24SOL    HW2   95   0.121   0.697   0.647
   25SOL     OW   96   1.842   1.767   0.359
   25SOL    HW1   97   1.896   1.738   0.439
   25SOL    HW2   98   1.872   1.857   0.330
   26SOL     OW   99   0.027   1.596   0.117
   26SOL    HW1  100   0.008   1.500   0.138
   26SOL    HW2  101  -0.006   1.654   0.192
   27SOL     OW  102   1.689   0.922   0.612
   27SOL    HW1  103   1.784   0.893   0.620
   27SOL    HW2  104   1.681   0.987   0.537
   28SOL     OW  105   1.641   1.108   0.432
   28SOL    HW1  106   1.727   1.110   0.380
   28SOL    HW2  107   1.655   1.155   0.520
   29SOL     OW  108   0.113   0.737   1.597
   29SOL    HW1  109   0.201   0.724   1.642
   29SOL    HW2  110   0.100   0.834   1.575
   30SOL     OW  111   0.613   1.365   0.726
   30SOL    HW1  112   0.564   1.278   0.735
   30SOL    HW2  113   0.590   1.408   0.639
   31SOL     OW  114   1.293   1.228   1.423
   31SOL    HW1  115   1.330   1.155   1.365
   31SOL    HW2  116   1.345   1.233   1.508
   32SOL     OW  117   0.809   0.004   0.502
   32SOL    HW1  118   0.849   0.095   0.493
   32SOL    HW2  119   0.709   0.012   0.508
   33SOL     OW  120   0.197   0.976   1.264
   33SOL    HW1  121   0.286   0.931   1.250
   33SOL    HW2  122   0.124   0.911   1.245
   34SOL     OW  123   1.525   0.999   0.190
   34SOL    HW1  124   1.462   0.923   0.203
   34SOL    HW2  125   1.573   1.017   0.276
   35SOL     OW  126   1.187   1.792   1.616
   35SOL    HW1  127   1.211   1.852   1.540
   35SOL    HW2  128   1.194   1.697   1.586
   36SOL     OW  129   0.317   0.251   1.801
   36SOL    HW1  130   0.388   0.322   1.807
   36SOL    HW2  131   0.229   0.290   1.829
   37SOL     OW  132   1.466   1.417   0.953
   37SOL    HW1  133   1.407   1.423   1.033
   37SOL    HW2  134   1.451   1.329   0.907
   38SOL     OW  135   1.667   1.714   0.572
   38SOL    HW1  136   1.626   1.691   0.484
   38SOL    HW2  137   1.649   1.640   0.637
   39SOL     OW  138   0.598   0.729   0.270
   39SOL    HW1  139   0.622   0.798   0.202
   39SOL    HW2  140   0.520   0.762   0.324
   40SOL     OW  141   1.281   0.345   0.944
   40SOL    HW1  142   1.195   0.295   0.931
   40SOL    HW2  143   1.343   0.291   1.000
   41SOL     OW  144   1.576   1.662   0.307
   41SOL    HW1  145   1.665   1.708   0.310
   41SOL    HW2  146   1.555   1.638   0.212
   42SOL     OW  147   0.807   0.605   1.465
   42SOL    HW1  148   0.760   0.602   1.554
   42SOL    HW2  149   0.756   0.550   1.399
   43SOL     OW  150   1.394   0.469   1.674
   43SOL    HW1  151   1.374   0.512   1.762
   43SOL    HW2  152   1.472   0.407   1.683
   44SOL     OW  153   0.973   0.890   1.572
   44SOL    HW1  154   1.019   0.806   1.543
   44SOL    HW2  155   0.917   0.924   1.497
   45SOL     OW  156   0.991   0.410   1.242
   45SOL    HW1  157   0.914   0.444   1.296
   45SOL    HW2  158   0.957   0.359   1.163
   46SOL     OW  159   1.041   0.701   0.429
   46SOL    HW1  160   1.067   0.697   0.525
   46SOL    HW2  161   0.956   0.650   0.415
   47SOL     OW  162   0.076   0.811   0.789
   47SOL    HW1  163   0.175   0.799   0.798
   47SOL    HW2  164   0.052   0.906   0.810
   48SOL     OW  165   0.130   1.821   1.571
   48SOL    HW1  166   0.120   1.806   1.670
   48SOL    HW2  167   0.044   1.857   1.535
   49SOL     OW  168   0.865   0.348   0.195
   49SOL    HW1  169   0.924   0.411   0.146
   49SOL    HW2  170   0.884   0.254   0.166
   50SOL     OW  171   1.719   0.585   1.831
   50SOL    HW1  172   1.693   0.674   1.795
   50SOL    HW2  173   1.717   0.517   1.758
   51SOL     OW  174   1.362   1.144   0.545
   51SOL    HW1  175   1.445   1.115   0.497
   51SOL    HW2  176   1.313   1.211   0.489
   52SOL     OW  177   0.550   0.196   0.885
   52SOL    HW1  178   0.545   0.191   0.985
   52SOL    HW2  179   0.552   0.292   0.856
   53SOL     OW  180   1.008   1.456   0.477
   53SOL    HW1  181   0.962   1.528   0.425
   53SOL    HW2  182   1.004   1.476   0.575
   54SOL     OW  183   0.351   1.801   0.853
   54SOL    HW1  184   0.401   1.715   0.859
   54SOL    HW2  185   0.416   1.878   0.850
   55SOL     OW  186   1.795   1.066   0.873
   55SOL    HW1  187   1.733   1.051   0.797
   55SOL    HW2  188   1.743   1.077   0.958
   56SOL     OW  189   1.227   1.550   1.506
   56SOL    HW1  190   1.233   1.473   1.570
   56SOL    HW2  191   1.175   1.524   1.426
   57SOL     OW  192   0.321   0.943   0.242
   57SOL    HW1  193   0.403   0.982   0.200
   57SOL    HW2  194   0.294   0.861   0.193
   58SOL     OW  195   1.458   0.735   0.728
   58SOL    HW1  196   1.453   0.670   0.803
   58SOL    HW2  197   1.538   0.794   0.741
   59SOL     OW  198   0.461   1.266   1.727
   59SOL    HW1  199   0.411   1.267   1.641
   59SOL    HW2  200   0.398   1.248   1.803
   60SOL     OW  201   1.111   1.776   0.237
   60SOL    HW1  202   1.051   1.714   0.287
   60SOL    HW2  203   1.142   1.732   0.152
   61SOL     OW  204   0.202   0.285   1.498
   61SOL    HW1  205   0.122   0.345   1.485
   61SOL    HW2  206   0.192   0.236   1.584
   62SOL     OW  207   1.632   1.377   0.081
   62SOL    HW1  208   1.600   1.471   0.071
   62SOL    HW2  209   1.556   1.314   0.069
   63SOL     OW  210   0.464   1.743   0.323
   63SOL    HW1  211   0.497   1.782   0.409
   63SOL    HW2  212   0.540   1.736   0.258
   64SOL     OW  213   1.400   0.107   0.426
   64SOL    HW1  214   1.376   0.070   0.336
   64SOL    HW2  215   1.499   0.123   0.430
   65SOL     OW  216   0.249   1.785   1.241
   65SOL    HW1  217   0.306   1.720   1.291
   65SOL    HW2  218   0.233   1.752   1.148
   66SOL     OW  219   0.940   1.698   0.904
   66SOL    HW1  220   1.020   1.641   0.925
   66SOL    HW2  221   0.891   1.658   0.827
   67SOL     OW  222   0.382   0.700   0.480
   67SOL    HW1  223   0.427   0.610   0.477
   67SOL    HW2  224   0.288   0.689   0.513
   68SOL     OW  225   1.547   0.222   1.729
   68SOL    HW1  226   1.542   0.259   1.821
   68SOL    HW2  227   1.475   0.153   1.717
   69SOL     OW  228   0.614   0.122   0.117
   69SOL    HW1  229   0.712   0.100   0.124
   69SOL    HW2  230   0.583   0.105   0.024
   70SOL     OW  231   0.781   0.264   1.749
   70SOL    HW1  232   0.848   0.203   1.792
   70SOL    HW2  233   0.708   0.283   1.814
   71SOL     OW  234   0.888   1.514   1.195
   71SOL    HW1  235   0.865   1.489   1.101
   71SOL    HW2  236   0.949   1.445   1.234
   72SOL     OW  237   1.351   0.590   1.433
   72SOL    HW1  238   1.379   0.547   1.518
   72SOL    HW2  239   1.376   0.686   1.434
   73SOL     OW  240   0.803   1.402   0.924
   73SOL    HW1  241   0.893   1.416   0.882
   73SOL    HW2  242   0.732   1.404   0.853
   74SOL     OW  243   0.922   0.503   0.899
   74SOL    HW1  244   0.897   0.494   0.803
   74SOL    HW2  245   0.970   0.421   0.930
   75SOL     OW  246   0.539   0.064   0.512
   75SOL    HW1  247   0.458   0.065   0.570
   75SOL    HW2  248   0.542   0.147   0.457
   76SOL     OW  249   1.434   1.188   0.041
   76SOL    HW1  250   1.466   1.112   0.098
   76SOL    HW2  251   1.342   1.215   0.071
   77SOL     OW  252   0.297   0.035   0.171
   77SOL    HW1  253   0.346   0.119   0.150
   77SOL    HW2  254   0.359  -0.030   0.216
   78SOL     OW  255   0.935   0.236   0.480
   78SOL    HW1  256   0.887   0.277   0.402
   78SOL    HW2  257   1.034   0.234   0.461
   79SOL     OW  258   1.076   0.683   1.464
   79SOL    HW1  259   0.996   0.622   1.467
   79SOL    HW2  260   1.157   0.630   1.440
   80SOL     OW  261   1.227   1.570   0.793
   80SOL    HW1  262   1.248   1.644   0.728
   80SOL    HW2  263   1.295   1.570   0.866
   81SOL     OW  264   0.459   1.152   0.741
   81SOL    HW1  265   0.388   1.125   0.806
   81SOL    HW2  266   0.433   1.124   0.648
   82SOL     OW  267   1.271   1.797   0.591
   82SOL    HW1  268   1.315   1.861   0.527
   82SOL    HW2  269   1.221   1.849   0.661
   83SOL     OW  270   1.032   0.549   0.016
   83SOL    HW1  271   0.991   0.631  -0.023
   83SOL    HW2  272   1.096   0.575   0.089
   84SOL     OW  273   0.078   0.556   1.386
   84SOL    HW1  274   0.170   0.555   1.345
   84SOL    HW2  275   0.072   0.630   1.453
   85SOL     OW  276   0.561   0.222   1.147
   85SOL    HW1  277   0.599   0.138   1.184
   85SOL    HW2  278   0.473   0.241   1.191
   86SOL     OW  279   0.866   0.454   0.642
   86SOL    HW1  280   0.834   0.526   0.580
   86SOL    HW2  281   0.890   0.373   0.589
   87SOL     OW  282   1.017   0.039   0.753
   87SOL    HW1  283   0.945   0.044   0.684
   87SOL    HW2  284   0.993  -0.030   0.822
   88SOL     OW  285   1.429   1.173   0.867
   88SOL    HW1  286   1.374   1.089   0.860
   88SOL    HW2  287   1.455   1.202   0.775
   89SOL     OW  288   1.466   0.590   0.992
   89SOL    HW1  289   1.436   0.495   0.999
   89SOL    HW2  290   1.539   0.606   1.058
   90SOL     OW  291   1.857   0.833   0.377
   90SOL    HW1  292   1.899   0.769   0.441
   90SOL    HW2  293   1.819   0.782   0.299
   91SOL     OW  294   0.488   1.385   0.174
   91SOL    HW1  295   0.401   1.370   0.221
   91SOL    HW2  296   0.471   1.411   0.079
   92SOL     OW  297   1.664   1.280   0.657
   92SOL    HW1  298   1.763   1.288   0.671
   92SOL    HW2  299   1.619   1.364   0.688
   93SOL     OW  300   1.390   0.575   0.078
   93SOL    HW1  301   1.336   0.554   0.159
   93SOL    HW2  302   1.481   0.534   0.087
   94SOL     OW  303   0.527   0.256   0.328
   94SOL    HW1  304   0.554   0.197   0.253
   94SOL    HW2  305   0.527   0.351   0.297
   95SOL     OW  306   1.754   1.223   1.588
   95SOL    HW1  307   1.845   1.184   1.575
   95SOL    HW2  308   1.762   1.319   1.612
   96SOL     OW  309   1.064   1.347   1.340
   96SOL    HW1  310   0.984   1.324   1.395
   96SOL    HW2  311   1.147   1.321   1.389
   97SOL     OW  312   1.111   1.195   1.100
   97SOL    HW1  313   1.071   1.239   1.181
   97SOL    HW2  314   1.070   1.232   1.017
   98SOL     OW  315   1.638   1.099   1.079
   98SOL    HW1  316   1.643   1.180   1.138
   98SOL    HW2  317   1.552   1.101   1.028
   99SOL     OW  318   0.915   0.089   1.402
   99SOL    HW1  319   0.940   0.069   1.307
   99SOL    HW2  320   0.987   0.145   1.444
  100SOL     OW  321   0.980   1.116   1.719
  100SOL    HW1  322   0.881   1.122   1.729
  100SOL    HW2  323   1.003   1.036   1.663
  101SOL     OW  324   0.705   1.050   0.368
  101SOL    HW1  325   0.691   1.057   0.467
  101SOL    HW2  326   0.789   0.999   0.350
  102SOL     OW  327   0.410   0.813   1.251
  102SOL    HW1  328   0.496   0.825   1.301
  102SOL    HW2  329   0.368   0.726   1.278
  103SOL     OW  330   1.274   0.386   1.262
  103SOL    HW1  331   1.295   0.460   1.326
  103SOL    HW2  332   1.185   0.403   1.219
  104SOL     OW  333   0.064   1.564   1.331
  104SOL    HW1  334   0.018   1.646   1.297
  104SOL    HW2  335   0.162   1.583   1.340
  105SOL     OW  336   0.367   1.100   0.501
  105SOL    HW1  337   0.360   1.183   0.445
  105SOL    HW2  338   0.371   1.020   0.441
  106SOL     OW  339   0.566   0.537   0.865
  106SOL    HW1  340   0.578   0.603   0.791
  106SOL    HW2  341   0.612   0.571   0.948
  107SOL     OW  342   1.252   1.348   0.388
  107SOL    HW1  343   1.302   1.425   0.428
  107SOL    HW2  344   1.157   1.350   0.420
  108SOL     OW  345   1.272   1.445   1.142
  108SOL    HW1  346   1.319   1.458   1.229
  108SOL    HW2  347   1.206   1.371   1.151
  109SOL     OW  348   1.582   0.639   0.472
  109SOL    HW1  349   1.551   0.700   0.545
  109SOL    HW2  350   1.632   0.691   0.403
  110SOL     OW  351   0.354   1.510   1.329
  110SOL    HW1  352   0.333   1.466   1.242
  110SOL    HW2  353   0.451   1.536   1.332
  111SOL     OW  354   0.402   0.751   1.598
  111SOL    HW1  355   0.470   0.806   1.551
  111SOL    HW2  356   0.442   0.663   1.625
  112SOL     OW  357   1.587   0.779   1.670
  112SOL    HW1  358   1.495   0.817   1.665
  112SOL    HW2  359   1.647   0.826   1.605
  113SOL     OW  360   1.013   0.105   1.770
  113SOL    HW1  361   1.019   0.190   1.718
  113SOL    HW2  362   1.045   0.029   1.713
  114SOL     OW  363   0.504   0.050   1.740
  114SOL    HW1  364   0.462  -0.007   1.670
  114SOL    HW2  365   0.438   0.119   1.772
  115SOL     OW  366   0.573   0.870   1.029
  115SOL    HW1  367   0.617   0.959   1.020
  115SOL    HW2  368   0.510   0.870   1.106
  116SOL     OW  369   1.360   0.862   1.045
  116SOL    HW1  370   1.285   0.862   0.979
  116SOL    HW2  371   1.397   0.770   1.054
  117SOL     OW  372   1.209   0.525   0.275
  117SOL    HW1  373   1.222   0.441   0.329
  117SOL    HW2  374   1.180   0.599   0.335
  118SOL     OW  375   0.307   0.213   1.231
  118SOL    HW1  376   0.284   0.250   1.321
  118SOL    HW2  377   0.277   0.118   1.225
  119SOL     OW  378   0.037   1.310   1.282
  119SOL    HW1  379   0.090   1.261   1.350
  119SOL    HW2  380   0.059   1.408   1.287
  120SOL     OW  381   0.732   0.634   1.064
  120SOL    HW1  382   0.791   0.608   0.988
  120SOL    HW2  383   0.704   0.730   1.053
  121SOL     OW  384   1.728   0.935   1.854
  121SOL    HW1  385   1.682   0.928   1.765
  121SOL    HW2  386   1.666   0.979   1.920
  122SOL     OW  387   0.307   0.063   0.618
  122SOL    HW1  388   0.296   0.157   0.651
  122SOL    HW2  389   0.302   0.000   0.695
  123SOL     OW  390   1.622   0.367   0.374
  123SOL    HW1  391   1.624   0.291   0.438
  123SOL    HW2  392   1.574   0.444   0.414
  124SOL     OW  393   1.023   0.766   0.966
  124SOL    HW1  394   1.038   0.787   1.062
  124SOL    HW2  395   0.993   0.671   0.957
  125SOL     OW  396   0.980   1.573   1.700
  125SOL    HW1  397   0.960   1.617   1.612
  125SOL    HW2  398   1.019   1.482   1.684
  126SOL     OW  399   0.350   0.898   1.804
  126SOL    HW1  400   0.426   0.942   1.852
  126SOL    HW2  401   0.385   0.851   1.722
  127SOL     OW  402   1.540   0.274   0.125
  127SOL    HW1  403   1.479   0.199   0.148
  127SOL    HW2  404   1.562   0.326   0.208
  128SOL     OW  405   1.303   0.838   0.042
  128SOL    HW1  406   1.337   0.745   0.057
  128SOL    HW2  407   1.321   0.865  -0.053
  129SOL     OW  408   1.068   1.333   0.849
  129SOL    HW1  409   1.075   1.249   0.794
  129SOL    HW2  410   1.130   1.402   0.813
  130SOL     OW  411   0.319   0.810   0.949
  130SOL    HW1  412   0.412   0.846   0.954
  130SOL    HW2  413   0.313   0.725   1.001
  131SOL     OW  414   0.339   0.509   1.006
  131SOL    HW1  415   0.287   0.426   0.989
  131SOL    HW2  416   0.416   0.514   0.942
  132SOL     OW  417   1.138   0.380   1.678
  132SOL    HW1  418   1.093   0.443   1.742
  132SOL    HW2  419   1.231   0.411   1.661
  133SOL     OW  420   1.160   0.207   1.477
  133SOL    HW1  421   1.160   0.271   1.554
  133SOL    HW2  422   1.188   0.255   1.394
  134SOL     OW  423   0.008   1.326   0.200
  134SOL    HW1  424  -0.085   1.347   0.169
  134SOL    HW2  425   0.018   1.227   0.213
  135SOL     OW  426   0.088   1.801   0.927
  135SOL    HW1  427   0.046   1.715   0.900
  135SOL    HW2  428   0.182   1.804   0.893
  136SOL     OW  429   0.504   1.568   0.910
  136SOL    HW1  430   0.570   1.642   0.919
  136SOL    HW2  431   0.548   1.489   0.868
  137SOL     OW  432   1.002   0.796   1.238
  137SOL    HW1  433   1.043   0.764   1.324
  137SOL    HW2  434   0.906   0.769   1.235
  138SOL     OW  435   0.040   0.544   1.114
  138SOL    HW1  436   0.125   0.511   1.073
  138SOL    HW2  437   0.053   0.559   1.212
  139SOL     OW  438   0.189   0.520   1.722
  139SOL    HW1  439   0.248   0.480   1.652
  139SOL    HW2  440   0.131   0.591   1.681
  140SOL     OW  441   1.369   0.950   1.660
  140SOL    HW1  442   1.408   1.039   1.680
  140SOL    HW2  443   1.379   0.930   1.563
  141SOL     OW  444   0.815   0.572   0.325
  141SOL    HW1  445   0.822   0.483   0.279
  141SOL    HW2  446   0.721   0.606   0.317
  142SOL     OW  447   1.657   0.604   1.206
  142SOL    HW1  448   1.619   0.535   1.268
  142SOL    HW2  449   1.739   0.568   1.162
  143SOL     OW  450   0.252   1.564   1.744
  143SOL    HW1  451   0.222   1.621   1.820
  143SOL    HW2  452   0.245   1.467   1.770
  144SOL     OW  453   0.671   0.464   1.269
  144SOL    HW1  454   0.637   0.375   1.239
  144SOL    HW2  455   0.697   0.518   1.189
  145SOL     OW  456   0.930   1.678   1.465
  145SOL    HW1  457   0.906   1.660   1.370
  145SOL    HW2  458   0.960   1.772   1.475
  146SOL     OW  459   0.473   0.500   0.191
  146SOL    HW1  460   0.534   0.580   0.195
  146SOL    HW2  461   0.378   0.531   0.198
  147SOL     OW  462   0.159   1.137   1.466
  147SOL    HW1  463   0.181   1.076   1.542
  147SOL    HW2  464   0.169   1.088   1.380
  148SOL     OW  465   1.347   1.059   1.234
  148SOL    HW1  466   1.371   0.996   1.160
  148SOL    HW2  467   1.257   1.099   1.216
  149SOL     OW  468   1.302   0.855   0.309
  149SOL    HW1  469   1.216   0.824   0.351
  149SOL    HW2  470   1.298   0.841   0.210
  150SOL     OW  471   1.252   1.731   1.128
  150SOL    HW1  472   1.336   1.736   1.074
  150SOL    HW2  473   1.229   1.635   1.146
  151SOL     OW  474   0.083   1.258   1.022
  151SOL    HW1  475   0.078   1.257   1.122
  151SOL    HW2  476   0.000   1.217   0.984
  152SOL     OW  477   0.688   1.662   1.716
  152SOL    HW1  478   0.632   1.743   1.725
  152SOL    HW2  479   0.740   1.666   1.630
  153SOL     OW  480   0.903   0.086   0.133
  153SOL    HW1  481   0.954   0.087   0.047
  153SOL    HW2  482   0.959   0.044   0.204
  154SOL     OW  483   1.726   0.135   0.523
  154SOL    HW1  484   1.799   0.118   0.456
  154SOL    HW2  485   1.695   0.048   0.561
  155SOL     OW  486   1.388   1.573   0.477
  155SOL    HW1  487   1.455   1.585   0.403
  155SOL    HW2  488   1.348   1.662   0.500
  156SOL     OW  489   0.130   1.794   1.851
  156SOL    HW1  490   0.089   1.720   1.904
  156SOL    HW2  491   0.194   1.845   1.909
  157SOL     OW  492   1.280   0.927   0.672
  157SOL    HW1  493   1.340   0.846   0.674
  157SOL    HW2  494   1.320   0.996   0.612
  158SOL     OW  495   0.830   1.273   1.422
  158SOL    HW1  496   0.825   1.306   1.517
  158SOL    HW2  497   0.744   1.292   1.376
  159SOL     OW  498   0.672   1.616   0.154
  159SOL    HW1  499   0.681   1.626   0.055
  159SOL    HW2  500   0.632   1.527   0.175
  160SOL     OW  501   1.841   0.175   0.963
  160SOL    HW1  502   1.880   0.090   0.927
  160SOL    HW2  503   1.743   0.177   0.944
  161SOL     OW  504   0.263   0.326   0.720
  161SOL    HW1  505   0.184   0.377   0.686
  161SOL    HW2  506   0.254   0.311   0.818
  162SOL     OW  507   1.194   1.612   0.031
  162SOL    HW1  508   1.200   1.519   0.068
  162SOL    HW2  509   1.135   1.612  -0.049
  163SOL     OW  510   0.822   1.002   1.372
  163SOL    HW1  511   0.862   1.001   1.280
  163SOL    HW2  512   0.832   1.094   1.412
  164SOL     OW  513   0.916   0.910   0.291
  164SOL    HW1  514   0.979   0.948   0.223
  164SOL    HW2  515   0.956   0.827   0.330
  165SOL     OW  516   1.504   1.607   0.044
  165SOL    HW1  517   1.412   1.644   0.051
  165SOL    HW2  518   1.542   1.627  -0.046
  166SOL     OW  519   0.372   1.288   1.490
  166SOL    HW1  520   0.359   1.381   1.456
  166SOL    HW2  521   0.288   1.236   1.477
  167SOL     OW  522   1.614   1.292   1.289
  167SOL    HW1  523   1.674   1.295   1.369
  167SOL    HW2  524   1.539   1.356   1.302
  168SOL     OW  525   1.039   1.098   0.696
  168SOL    HW1  526   0.969   1.051   0.750
  168SOL    HW2  527   1.098   1.030   0.653
  169SOL     OW  528   1.014   0.236   0.971
  169SOL    HW1  529   1.006   0.200   0.878
  169SOL    HW2  530   1.012   0.160   1.036
  170SOL     OW  531   0.590   1.487   0.491
  170SOL    HW1  532   0.632   1.429   0.421
  170SOL    HW2  533   0.546   1.566   0.447
  171SOL     OW  534   1.709   0.385   1.381
  171SOL    HW1  535   1.782   0.454   1.385
  171SOL    HW2  536   1.737   0.310   1.322
  172SOL     OW  537   0.255   1.348   0.290
  172SOL    HW1  538   0.159   1.349   0.263
  172SOL    HW2  539   0.267   1.401   0.374
  173SOL     OW  540   0.105   1.013   1.726
  173SOL    HW1  541   0.028   0.980   1.780
  173SOL    HW2  542   0.190   0.983   1.768
  174SOL     OW  543   0.672   0.203   1.489
  174SOL    HW1  544   0.762   0.187   1.449
  174SOL    HW2  545   0.680   0.208   1.588
  175SOL     OW  546   0.075   0.345   0.033
  175SOL    HW1  547  -0.017   0.317   0.004
  175SOL    HW2  548   0.106   0.422  -0.023
  176SOL     OW  549   1.440   0.856   1.398
  176SOL    HW1  550   1.383   0.908   1.335
  176SOL    HW2  551   1.536   0.868   1.374
  177SOL     OW  552   0.072   0.166   0.318
  177SOL    HW1  553   0.055   0.249   0.264
  177SOL    HW2  554   0.162   0.129   0.296
  178SOL     OW  555   1.183   1.335   0.119
  178SOL    HW1  556   1.084   1.324   0.121
  178SOL    HW2  557   1.217   1.350   0.212
  179SOL     OW  558   0.613   0.842   1.431
  179SOL    HW1  559   0.669   0.923   1.414
  179SOL    HW2  560   0.672   0.762   1.434
  180SOL     OW  561   1.493   1.767   0.959
  180SOL    HW1  562   1.526   1.831   0.890
  180SOL    HW2  563   1.559   1.761   1.034
  181SOL     OW  564   0.716   0.565   1.708
  181SOL    HW1  565   0.735   0.630   1.782
  181SOL    HW2  566   0.776   0.485   1.717
  182SOL     OW  567   1.450   1.220   1.633
  182SOL    HW1  568   1.441   1.210   1.732
  182SOL    HW2  569   1.546   1.213   1.607
  183SOL     OW  570   0.390   1.741   1.560
  183SOL    HW1  571   0.299   1.782   1.558
  183SOL    HW2  572   0.383   1.647   1.592
  184SOL     OW  573   1.674   0.883   1.254
  184SOL    HW1  574   1.647   0.794   1.217
  184SOL    HW2  575   1.675   0.951   1.181
  185SOL     OW  576   1.225   0.325   0.449
  185SOL    HW1  577   1.290   0.251   0.438
  185SOL    HW2  578   1.245   0.375   0.533
  186SOL     OW  579   0.594   0.745   0.652
  186SOL    HW1  580   0.644   0.830   0.633
  186SOL    HW2  581   0.506   0.747   0.604
  187SOL     OW  582   1.777   0.342   1.642
  187SOL    HW1  583   1.760   0.373   1.548
  187SOL    HW2  584   1.693   0.305   1.680
  188SOL     OW  585   1.730   0.934   1.517
  188SOL    HW1  586   1.768   1.025   1.532
  188SOL    HW2  587   1.722   0.917   1.418
  189SOL     OW  588   0.859   1.374   0.016
  189SOL    HW1  589   0.813   1.389   0.104
  189SOL    HW2  590   0.903   1.459  -0.014
  190SOL     OW  591   0.661   1.790   0.953
  190SOL    HW1  592   0.615   1.878   0.940
  190SOL    HW2  593   0.760   1.802   0.946
  191SOL     OW  594   0.859   0.956   0.861
  191SOL    HW1  595   0.913   0.887   0.909
  191SOL    HW2  596   0.827   1.025   0.927
  192SOL     OW  597   1.083   0.984   0.087
  192SOL    HW1  598   1.060   1.037   0.005
  192SOL    HW2  599   1.164   0.928   0.068
  193SOL     OW  600   1.861   1.569   0.851
  193SOL    HW1  601   1.790   1.557   0.781
  193SOL    HW2  602   1.862   1.490   0.911
  194SOL     OW  603   0.221   1.314   1.844
  194SOL    HW1  604   0.156   1.241   1.823
  194SOL    HW2  605   0.225   1.328   1.942
  195SOL     OW  606   0.079   1.240   0.653
  195SOL    HW1  607   0.078   1.193   0.741
  195SOL    HW2  608   0.161   1.212   0.602
  196SOL     OW  609   0.672   1.391   1.624
  196SOL    HW1  610   0.594   1.341   1.662
  196SOL    HW2  611   0.669   1.486   1.655
  197SOL     OW  612   1.824   0.192   1.227
  197SOL    HW1  613   1.820   0.102   1.271
  197SOL    HW2  614   1.827   0.181   1.128
  198SOL     OW  615   0.428   0.424   0.520
  198SOL    HW1  616   0.458   0.352   0.458
  198SOL    HW2  617   0.389   0.384   0.603
  199SOL     OW  618   1.705   1.487   1.104
  199SOL    HW1  619   1.612   1.462   1.077
  199SOL    HW2  620   1.731   1.437   1.186
  200SOL     OW  621   0.317   0.547   1.280
  200SOL    HW1  622   0.355   0.488   1.352
  200SOL    HW2  623   0.357   0.521   1.192
  201SOL     OW  624   0.812   1.586   0.687
  201SOL    HW1  625   0.844   1.596   0.593
  201SOL    HW2  626   0.733   1.524   0.689
  202SOL     OW  627   1.424   0.214   1.112
  202SOL    HW1  628   1.476   0.149   1.167
  202SOL    HW2  629   1.375   0.277   1.173
  203SOL     OW  630   1.001   0.034   1.154
  203SOL    HW1  631   0.938  -0.038   1.123
  203SOL    HW2  632   1.094  -0.002   1.154
  204SOL     OW  633   0.770   1.330   0.301
  204SOL    HW1  634   0.724   1.243   0.318
  204SOL    HW2  635   0.861   1.327   0.342
  205SOL     OW  636   0.618   1.567   1.284
  205SOL    HW1  637   0.613   1.649   1.341
  205SOL    HW2  638   0.707   1.564   1.239
  206SOL     OW  639   1.352   0.052   0.168
  206SOL    HW1  640   1.387   0.011   0.084
  206SOL    HW2  641   1.262   0.014   0.188
  207SOL     OW  642   1.300   0.453   0.691
  207SOL    HW1  643   1.241   0.533   0.695
  207SOL    HW2  644   1.315   0.418   0.784
  208SOL     OW  645   1.593   0.221   0.882
  208SOL    HW1  646   1.509   0.220   0.936
  208SOL    HW2  647   1.595   0.304   0.826
  209SOL     OW  648   0.039   1.077   0.300
  209SOL    HW1  649   0.138   1.066   0.291
  209SOL    HW2  650  -0.001   0.991   0.332
  210SOL     OW  651   0.875   1.646   0.337
  210SOL    HW1  652   0.798   1.611   0.283
  210SOL    HW2  653   0.843   1.717   0.399
  211SOL     OW  654   0.230   0.628   1.975
  211SOL    HW1  655   0.137   0.626   2.012
  211SOL    HW2  656   0.231   0.589   1.883
  212SOL     OW  657   0.225   0.275   2.858
  212SOL    HW1  658   0.260   0.258   2.950
  212SOL    HW2  659   0.137   0.230   2.846
  213SOL     OW  660   0.019   0.368   2.509
  213SOL    HW1  661  -0.063   0.411   2.548
  213SOL    HW2  662  -0.009   0.295   2.446
  214SOL     OW  663   0.569   1.275   3.027
  214SOL    HW1  664   0.476   1.268   2.990
  214SOL    HW2  665   0.580   1.364   3.071
  215SOL     OW  666   1.555   1.511   2.565
  215SOL    HW1  667   1.498   1.495   2.646
  215SOL    HW2  668   1.496   1.521   2.485
  216SOL     OW  669   1.135   0.703   2.579
  216SOL    HW1  670   1.192   0.781   2.554
  216SOL    HW2  671   1.075   0.729   2.655
  217SOL     OW  672   1.755   0.607   2.093
  217SOL    HW1  673   1.743   0.594   1.994
  217SOL    HW2  674   1.725   0.526   2.142
  218SOL     OW  675   0.768   1.144   2.885
  218SOL    HW1  676   0.690   1.161   2.945
  218SOL    HW2  677   0.802   1.231   2.849
  219SOL     OW  678   0.685   1.012   2.527
  219SOL    HW1  679   0.754   0.996   2.597
  219SOL    HW2  680   0.612   1.069   2.565
  220SOL     OW  681   0.335   1.435   2.923
  220SOL    HW1  682   0.257   1.404   2.870
  220SOL    HW2  683   0.393   1.493   2.866
  221SOL     OW  684   1.603   0.447   2.599
  221SOL    HW1  685   1.529   0.493   2.549
  221SOL    HW2  686   1.654   0.515   2.652
  222SOL     OW  687   0.231   1.713   2.345
  222SOL    HW1  688   0.265   1.790   2.399
  222SOL    HW2  689   0.275   1.713   2.255
  223SOL     OW  690   0.230   1.434   2.400
  223SOL    HW1  691   0.204   1.530   2.400
  223SOL    HW2  692   0.159   1.380   2.445
  224SOL     OW  693   0.240   1.091   2.748
  224SOL    HW1  694   0.254   1.007   2.800
  224SOL    HW2  695   0.185   1.155   2.803
  225SOL     OW  696   0.620   1.786   3.301
  225SOL    HW1  697   0.528   1.769   3.336
  225SOL    HW2  698   0.648   1.878   3.327
  226SOL     OW  699   0.606   0.964   1.985
  226SOL    HW1  700   0.613   1.048   1.931
  226SOL    HW2  701   0.652   0.977   2.073
  227SOL     OW  702   0.122   0.643   2.425
  227SOL    HW1  703   0.077   0.555   2.442
  227SOL    HW2  704   0.121   0.697   2.509
  228SOL     OW  705   1.842   1.767   2.221
  228SOL    HW1  706   1.896   1.738   2.301
  228SOL    HW2  707   1.872   1.857   2.192
  229SOL     OW  708   0.027   1.596   1.979
  229SOL    HW1  709   0.008   1.500   2.000
  229SOL    HW2  710  -0.006   1.654   2.054
  230SOL     OW  711   1.689   0.922   2.474
  230SOL    HW1  712   1.784   0.893   2.482
  230SOL    HW2  713   1.681   0.987   2.399
  231SOL     OW  714   1.641   1.108   2.294
  231SOL    HW1  715   1.727   1.110   2.242
  231SOL    HW2  716   1.655   1.155   2.382
  232SOL     OW  717   0.613   1.365   2.588
  232SOL    HW1  718   0.564   1.278   2.597
  232SOL    HW2  719   0.590   1.408   2.501
  233SOL     OW  720   0.809   0.004   2.364
  233SOL    HW1  721   0.849   0.095   2.355
  233SOL    HW2  722   0.709   0.012   2.370
  234SOL     OW  723   0.197   0.976   3.126
  234SOL    HW1  724   0.286   0.931   3.112
  234SOL    HW2  725   0.124   0.911   3.107
  235SOL     OW  726   1.525   0.999   2.052
  235SOL    HW1  727   1.462   0.923   2.065
  235SOL    HW2  728   1.573   1.017   2.138
  236SOL     OW  729   1.466   1.417   2.815
  236SOL    HW1  730   1.407   1.423   2.895
  236SOL    HW2  731   1.451   1.329   2.769
  237SOL     OW  732   1.667   1.714   2.434
  237SOL    HW1  733   1.626   1.691   2.346
  237SOL    HW2  734   1.649   1.640   2.499
  238SOL     OW  735   0.598   0.729   2.132
  238SOL    HW1  736   0.622   0.798   2.064
  238SOL    HW2  737   0.520   0.762   2.186
  239SOL     OW  738   1.281   0.345   2.806
  239SOL    HW1  739   1.195   0.295   2.793
  239SOL    HW2  740   1.343   0.291   2.862
  240SOL     OW  741   0.807   0.605   3.327
  240SOL    HW1  742   0.760   0.602   3.416
  240SOL    HW2  743   0.756   0.550   3.261
  241SOL     OW  744   0.991   0.410   3.104
  241SOL    HW1  745   0.914   0.444   3.158
  241SOL    HW2  746   0.957   0.359   3.025
  242SOL     OW  747   1.041   0.701   2.291
  242SOL    HW1  748   1.067   0.697   2.387
  242SOL    HW2  749   0.956   0.650   2.277
  243SOL     OW  750   0.076   0.811   2.651
  243SOL    HW1  751   0.175   0.799   2.660
  243SOL    HW2  752   0.052   0.906   2.672
  244SOL     OW  753   0.130   1.821   3.433
  244SOL    HW1  754   0.120   1.806   3.532
  244SOL    HW2  755   0.044   1.857   3.397
  245SOL     OW  756   0.865   0.348   2.057
  245SOL    HW1  757   0.924   0.411   2.008
  245SOL    HW2  758   0.884   0.254   2.028
  246SOL     OW  759   1.362   1.144   2.407
  246SOL    HW1  760   1.445   1.115   2.359
  246SOL    HW2  761   1.313   1.211   2.351
  247SOL     OW  762   0.550   0.196   2.747
  247SOL    HW1  763   0.545   0.191   2.847
  247SOL    HW2  764   0.552   0.292   2.718
  248SOL     OW  765   1.008   1.456   2.339
  248SOL    HW1  766   0.962   1.528   2.287
  248SOL    HW2  767   1.004   1.476   2.437
  249SOL     OW  768   0.351   1.801   2.715
  249SOL    HW1  769   0.401   1.715   2.721
  249SOL    HW2  770   0.416   1.878   2.712
  250SOL     OW  771   1.795   1.066   2.735
  250SOL    HW1  772   1.733   1.051   2.659
  250SOL    HW2  773   1.743   1.077   2.820
  251SOL     OW  774   0.321   0.943   2.104
  251SOL    HW1  775   0.403   0.982   2.062
  251SOL    HW2  776   0.294   0.861   2.055
  252SOL     OW  777   1.458   0.735   2.590
  252SOL    HW1  778   1.453   0.670   2.665
  252SOL    HW2  779   1.538   0.794   2.603
  253SOL     OW  780   1.111   1.776   2.099
  253SOL    HW1  781   1.051   1.714   2.149
  253SOL    HW2  782   1.142   1.732   2.014
  254SOL     OW  783   0.464   1.743   2.185
  254SOL    HW1  784   0.497   1.782   2.271
  254SOL    HW2  785   0.540   1.736   2.120
  255SOL     OW  786   1.400   0.107   2.288
  255SOL    HW1  787   1.376   0.070   2.198
  255SOL    HW2  788   1.499   0.123   2.292
  256SOL     OW  789   0.249   1.785   3.103
  256SOL    HW1  790   0.306   1.720   3.153
  256SOL    HW2  791   0.233   1.752   3.010
  257SOL     OW  792   0.940   1.698   2.766
  257SOL    HW1  793   1.020   1.641   2.787
  257SOL    HW2  794   0.891   1.658   2.689
  258SOL     OW  795   0.382   0.700   2.342
  258SOL    HW1  796   0.427   0.610   2.339
  258SOL    HW2  797   0.288   0.689   2.375
  259SOL     OW  798   0.614   0.122   1.979
  259SOL    HW1  799   0.712   0.100   1.986
  259SOL    HW2  800   0.583   0.105   1.886
  260SOL     OW  801   0.888   1.514   3.057
  260SOL    HW1  802   0.865   1.489   2.963
  260SOL    HW2  803   0.949   1.445   3.096
  261SOL     OW  804   0.803   1.402   2.786
  261SOL    HW1  805   0.893   1.416   2.744
  261SOL    HW2  806   0.732   1.404   2.715
  262SOL     OW  807   0.922   0.503   2.761
  262SOL    HW1  808   0.897   0.494   2.665
  262SOL    HW2  809   0.970   0.421   2.792
  263SOL     OW  810   0.539   0.064   2.374
  263SOL    HW1  811   0.458   0.065   2.432
  263SOL    HW2  812   0.542   0.147   2.319
  264SOL     OW  813   1.434   1.188   1.903
  264SOL    HW1  814   1.466   1.112   1.960
  264SOL    HW2  815   1.342   1.215   1.933
  265SOL     OW  816   0.297   0.035   2.033
  265SOL    HW1  817   0.346   0.119   2.012
  265SOL    HW2  818   0.359  -0.030   2.078
  266SOL     OW  819   0.935   0.236   2.342
  266SOL    HW1  820   0.887   0.277   2.264
  266SOL    HW2  821   1.034   0.234   2.323
  267SOL     OW  822   1.227   1.570   2.655
  267SOL    HW1  823   1.248   1.644   2.590
  267SOL    HW2  824   1.295   1.570   2.728
  268SOL     OW  825   0.459   1.152   2.603
  268SOL    HW1  826   0.388   1.125   2.668
  268SOL    HW2  827   0.433   1.124   2.510
  269SOL     OW  828   1.271   1.797   2.453
  269SOL    HW1  829   1.315   1.861   2.389
  269SOL    HW2  830   1.221   1.849   2.523
  270SOL     OW  831   1.032   0.549   1.878
  270SOL    HW1  832   0.991   0.631   1.839
  270SOL    HW2  833   1.096   0.575   1.951
  271SOL     OW  834   0.561   0.222   3.009
  271SOL    HW1  835   0.599   0.138   3.046
  271SOL    HW2  836   0.473   0.241   3.053
  272SOL     OW  837   0.866   0.454   2.504
  272SOL    HW1  838   0.834   0.526   2.442
  272SOL    HW2  839   0.890   0.373   2.451
  273SOL     OW  840   1.017   0.039   2.615
  273SOL    HW1  841   0.945   0.044   2.546
  273SOL    HW2  842   0.993  -0.030   2.684
  274SOL     OW  843   1.429   1.173   2.729
  274SOL    HW1  844   1.374   1.089   2.722
  274SOL    HW2  845   1.455   1.202   2.637
  275SOL     OW  846   1.466   0.590   2.854
  275SOL    HW1  847   1.436   0.495   2.861
  275SOL    HW2  848   1.539   0.606   2.920
  276SOL     OW  849   1.857   0.833   2.239
  276SOL    HW1  850   1.899   0.769   2.303
  276SOL    HW2  851   1.819   0.782   2.161
  277SOL     OW  852   0.488   1.385   2.036
  277SOL    HW1  853   0.401   1.370   2.083
  277SOL    HW2  854   0.471   1.411   1.941
  278SOL     OW  855   1.664   1.280   2.519
  278SOL    HW1  856   1.763   1.288   2.533
  278SOL    HW2  857   1.619   1.364   2.550
  279SOL     OW  858   1.390   0.575   1.940
  279SOL    HW1  859   1.336   0.554   2.021
  279SOL    HW2  860   1.481   0.534   1.949
  280SOL     OW  861   0.527   0.256   2.190
  280SOL    HW1  862   0.554   0.197   2.115
  280SOL    HW2  863   0.527   0.351   2.159
  281SOL     OW  864   1.754   1.223   3.450
  281SOL    HW1  865   1.845   1.184   3.437
  281SOL    HW2  866   1.762   1.319   3.474
  282SOL     OW  867   1.111   1.195   2.962
  282SOL    HW1  868   1.071   1.239   3.043
  282SOL    HW2  869   1.070   1.232   2.879
  283SOL     OW  870   1.638   1.099   2.941
  283SOL    HW1  871   1.643   1.180   3.000
  283SOL    HW2  872   1.552   1.101   2.890
  284SOL     OW  873   0.705   1.050   2.230
  284SOL    HW1  874   0.691   1.057   2.329
  284SOL    HW2  875   0.789   0.999   2.212
  285SOL     OW  876   0.410   0.813   3.113
  285SOL    HW1  877   0.496   0.825   3.163
  285SOL    HW2  878   0.368   0.726   3.140
  286SOL     OW  879   1.274   0.386   3.124
  286SOL    HW1  880   1.295   0.460   3.188
  286SOL    HW2  881   1.185   0.403   3.081
  287SOL     OW  882   0.064   1.564   3.193
  287SOL    HW1  883   0.018   1.646   3.159
  287SOL    HW2  884   0.162   1.583   3.202
  288SOL     OW  885   0.367   1.100   2.363
  288SOL    HW1  886   0.360   1.183   2.307
  288SOL    HW2  887   0.371   1.020   2.303
  289SOL     OW  888   0.566   0.537   2.727
  289SOL    HW1  889   0.578   0.603   2.653
  289SOL    HW2  890   0.612   0.571   2.810
  290SOL     OW  891   1.252   1.348   2.250
  290SOL    HW1  892   1.302   1.425   2.290
  290SOL    HW2  893   1.157   1.350   2.282
  291SOL     OW  894   1.272   1.445   3.004
  291SOL    HW1  895   1.319   1.458   3.091
  291SOL    HW2  896   1.206   1.371   3.013
  292SOL     OW  897   1.582   0.639   2.334
  292SOL    HW1  898   1.551   0.700   2.407
  292SOL    HW2  899   1.632   0.691   2.265
  293SOL     OW  900   0.354   1.510   3.191
  293SOL    HW1  901   0.333   1.466   3.104
  293SOL    HW2  902   0.451   1.536   3.194
  294SOL     OW  903   0.573   0.870   2.891
  294SOL    HW1  904   0.617   0.959   2.882
  294SOL    HW2  905   0.510   0.870   2.968
  295SOL     OW  906   1.360   0.862   2.907
  295SOL    HW1  907   1.285   0.862   2.841
  295SOL    HW2  908   1.397   0.770   2.916
  296SOL     OW  909   1.209   0.525   2.137
  296SOL    HW1  910   1.222   0.441   2.191
  296SOL    HW2  911   1.180   0.599   2.197
  297SOL     OW  912   0.307   0.213   3.093
  297SOL    HW1  913   0.284   0.250   3.183
  297SOL    HW2  914   0.277   0.118   3.087
  298SOL     OW  915   0.037   1.310   3.144
  298SOL    HW1  916   0.090   1.261   3.212
  298SOL    HW2  917   0.059   1.408   3.149
  299SOL     OW  918   0.732   0.634   2.926
  299SOL    HW1  919   0.791   0.608   2.850
  299SOL    HW2  920   0.704   0.730   2.915
  300SOL     OW  921   0.307   0.063   2.480
  300SOL    HW1  922   0.296   0.157   2.513
  300SOL    HW2  923   0.302   0.000   2.557
  301SOL     OW  924   1.622   0.367   2.236
  301SOL    HW1  925   1.624   0.291   2.300
  301SOL    HW2  926   1.574   0.444   2.276
  302SOL     OW  927   1.023   0.766   2.828
  302SOL    HW1  928   1.038   0.787   2.924
  302SOL    HW2  929   0.993   0.671   2.819
  303SOL     OW  930   1.859   1.518   3.467
  303SOL    HW1  931   1.873   1.545   3.372
  303SOL    HW2  932   1.942   1.540   3.520
  304SOL     OW  933   1.540   0.274   1.987
  304SOL    HW1  934   1.479   0.199   2.010
  304SOL    HW2  935   1.562   0.326   2.070
  305SOL     OW  936   1.303   0.838   1.904
  305SOL    HW1  937   1.337   0.745   1.919
  305SOL    HW2  938   1.321   0.865   1.809
  306SOL     OW  939   1.068   1.333   2.711
  306SOL    HW1  940   1.075   1.249   2.656
  306SOL    HW2  941   1.130   1.402   2.675
  307SOL     OW  942   0.319   0.810   2.811
  307SOL    HW1  943   0.412   0.846   2.816
  307SOL    HW2  944   0.313   0.725   2.863
  308SOL     OW  945   0.339   0.509   2.868
  308SOL    HW1  946   0.287   0.426   2.851
  308SOL    HW2  947   0.416   0.514   2.804
  309SOL     OW  948   1.160   0.207   3.339
  309SOL    HW1  949   1.160   0.271   3.416
  309SOL    HW2  950   1.188   0.255   3.256
  310SOL     OW  951   0.008   1.326   2.062
  310SOL    HW1  952  -0.085   1.347   2.031
  310SOL    HW2  953   0.018   1.227   2.075
  311SOL     OW  954   0.088   1.801   2.789
  311SOL    HW1  955   0.046   1.715   2.762
  311SOL    HW2  956   0.182   1.804   2.755
  312SOL     OW  957   0.504   1.568   2.772
  312SOL    HW1  958   0.570   1.642   2.781
  312SOL    HW2  959   0.548   1.489   2.730
  313SOL     OW  960   1.002   0.796   3.100
  313SOL    HW1  961   1.043   0.764   3.186
  313SOL    HW2  962   0.906   0.769   3.097
  314SOL     OW  963   0.040   0.544   2.976
  314SOL    HW1  964   0.125   0.511   2.935
  314SOL    HW2  965   0.053   0.559   3.074
  315SOL     OW  966   0.815   0.572   2.187
  315SOL    HW1  967   0.822   0.483   2.141
  315SOL    HW2  968   0.721   0.606   2.179
  316SOL     OW  969   1.657   0.604   3.068
  316SOL    HW1  970   1.619   0.535   3.130
  316SOL    HW2  971   1.739   0.568   3.024
  317SOL     OW  972   0.671   0.464   3.131
  317SOL    HW1  973   0.637   0.375   3.101
  317SOL    HW2  974   0.697   0.518   3.051
  318SOL     OW  975   0.930   1.678   3.327
  318SOL    HW1  976   0.906   1.660   3.232
  318SOL    HW2  977   0.960   1.772   3.337
  319SOL     OW  978   0.473   0.500   2.053
  319SOL    HW1  979   0.534   0.580   2.057
  319SOL    HW2  980   0.378   0.531   2.060
  320SOL     OW  981   0.159   1.137   3.328
  320SOL    HW1  982   0.181   1.076   3.404
  320SOL    HW2  983   0.169   1.088   3.242
  321SOL     OW  984   1.347   1.059   3.096
  321SOL    HW1  985   1.371   0.996   3.022
  321SOL    HW2  986   1.257   1.099   3.078
  322SOL     OW  987   1.302   0.855   2.171
  322SOL    HW1  988   1.216   0.824   2.213
  322SOL    HW2  989   1.298   0.841   2.072
  323SOL     OW  990   1.759   1.747   3.016
  323SOL    HW1  991   1.820   1.777   2.943
  323SOL    HW2  992   1.721   1.658   2.994
  324SOL     OW  993   1.252   1.731   2.990
  324SOL    HW1  994   1.336   1.736   2.936
  324SOL    HW2  995   1.229   1.635   3.008
  325SOL     OW  996   0.083   1.258   2.884
  325SOL    HW1  997   0.078   1.257   2.984
  325SOL    HW2  998   0.000   1.217   2.846
  326SOL     OW  999   1.726   0.135   2.385
  326SOL    HW1 1000   1.799   0.118   2.318
  326SOL    HW2 1001   1.695   0.048   2.423
  327SOL     OW 1002   1.280   0.927   2.534
  327SOL    HW1 1003   1.340   0.846   2.536
  327SOL    HW2 1004   1.320   0.996   2.474
  328SOL     OW 1005   0.672   1.616   2.016
  328SOL    HW1 1006   0.681   1.626   1.917
  328SOL    HW2 1007   0.632   1.527   2.037
  329SOL     OW 1008   1.841   0.175   2.825
  329SOL    HW1 1009   1.880   0.090   2.789
  329SOL    HW2 1010   1.743   0.177   2.806
  330SOL     OW 1011   0.263   0.326   2.582
  330SOL    HW1 1012   0.184   0.377   2.548
  330SOL    HW2 1013   0.254   0.311   2.680
  331SOL     OW 1014   1.194   1.612   1.893
  331SOL    HW1 1015   1.200   1.519   1.930
  331SOL    HW2 1016   1.135   1.612   1.813
  332SOL     OW 1017   0.822   1.002   3.234
  332SOL    HW1 1018   0.862   1.001   3.142
  332SOL    HW2 1019   0.832   1.094   3.274
  333SOL     OW 1020   0.916   0.910   2.153
  333SOL    HW1 1021   0.979   0.948   2.085
  333SOL    HW2 1022   0.956   0.827   2.192
  334SOL     OW 1023   1.039   1.098   2.558
  334SOL    HW1 1024   0.969   1.051   2.612
  334SOL    HW2 1025   1.098   1.030   2.515
  335SOL     OW 1026   1.014   0.236   2.833
  335SOL    HW1 1027   1.006   0.200   2.740
  335SOL    HW2 1028   1.012   0.160   2.898
  336SOL     OW 1029   0.590   1.487   2.353
  336SOL    HW1 1030   0.632   1.429   2.283
  336SOL    HW2 1031   0.546   1.566   2.309
  337SOL     OW 1032   1.709   0.385   3.243
  337SOL    HW1 1033   1.782   0.454   3.247
  337SOL    HW2 1034   1.737   0.310   3.184
  338SOL     OW 1035   0.255   1.348   2.152
  338SOL    HW1 1036   0.159   1.349   2.125
  338SOL    HW2 1037   0.267   1.401   2.236
  339SOL     OW 1038   0.075   0.345   1.895
  339SOL    HW1 1039  -0.017   0.317   1.866
  339SOL    HW2 1040   0.106   0.422   1.839
  340SOL     OW 1041   0.072   0.166   2.180
  340SOL    HW1 1042   0.055   0.249   2.126
  340SOL    HW2 1043   0.162   0.129   2.158
  341SOL     OW 1044   1.183   1.335   1.981
  341SOL    HW1 1045   1.084   1.324   1.983
  341SOL    HW2 1046   1.217   1.350   2.074
  342SOL     OW 1047   1.493   1.767   2.821
  342SOL    HW1 1048   1.526   1.831   2.752
  342SOL    HW2 1049   1.559   1.761   2.896
  343SOL     OW 1050   1.450   1.220   3.495
  343SOL    HW1 1051   1.441   1.210   3.594
  343SOL    HW2 1052   1.546   1.213   3.469
  344SOL     OW 1053   0.390   1.741   3.422
  344SOL    HW1 1054   0.299   1.782   3.420
  344SOL    HW2 1055   0.383   1.647   3.454
  345SOL     OW 1056   1.674   0.883   3.116
  345SOL    HW1 1057   1.647   0.794   3.079
  345SOL    HW2 1058   1.675   0.951   3.043
  346SOL     OW 1059   1.225   0.325   2.311
  346SOL    HW1 1060   1.290   0.251   2.300
  346SOL    HW2 1061   1.245   0.375   2.395
  347SOL     OW 1062   0.594   0.745   2.514
  347SOL    HW1 1063   0.644   0.830   2.495
  347SOL    HW2 1064   0.506   0.747   2.466
  348SOL     OW 1065   1.730   0.934   3.379
  348SOL    HW1 1066   1.768   1.025   3.394
  348SOL    HW2 1067   1.722   0.917   3.280
  349SOL     OW 1068   0.859   1.374   1.878
  349SOL    HW1 1069   0.813   1.389   1.966
  349SOL    HW2 1070   0.903   1.459   1.848
  350SOL     OW 1071   0.661   1.790   2.815
  350SOL    HW1 1072   0.615   1.878   2.802
  350SOL    HW2 1073   0.760   1.802   2.808
  351SOL     OW 1074   0.859   0.956   2.723
  351SOL    HW1 1075   0.913   0.887   2.771
  351SOL    HW2 1076   0.827   1.025   2.789
  352SOL     OW 1077   1.083   0.984   1.949
  352SOL    HW1 1078   1.060   1.037   1.867
  352SOL    HW2 1079   1.164   0.928   1.930
  353SOL     OW 1080   1.861   1.569   2.713
  353SOL    HW1 1081   1.790   1.557   2.643
  353SOL    HW2 1082   1.862   1.490   2.773
  354SOL     OW 1083   0.079   1.240   2.515
  354SOL    HW1 1084   0.078   1.193   2.603
  354SOL    HW2 1085   0.161   1.212   2.464
  355SOL     OW 1086   1.824   0.192   3.089
  355SOL    HW1 1087   1.820   0.102   3.133
  355SOL    HW2 1088   1.827   0.181   2.990
  356SOL     OW 1089   0.428   0.424   2.382
  356SOL    HW1 1090   0.458   0.352   2.320
  356SOL    HW2 1091   0.389   0.384   2.465
  357SOL     OW 1092   1.705   1.487   2.966
  357SOL    HW1 1093   1.612   1.462   2.939
  357SOL    HW2 1094   1.731   1.437   3.048
  358SOL     OW 1095   0.317   0.547   3.142
  358SOL    HW1 1096   0.355   0.488   3.214
  358SOL    HW2 1097   0.357   0.521   3.054
  359SOL     OW 1098   0.812   1.586   2.549
  359SOL    HW1 1099   0.844   1.596   2.455
  359SOL    HW2 1100   0.733   1.524   2.551
  360SOL     OW 1101   1.424   0.214   2.974
  360SOL    HW1 1102   1.476   0.149   3.029
  360SOL    HW2 1103   1.375   0.277   3.035
  361SOL     OW 1104   1.001   0.034   3.016
  361SOL    HW1 1105   0.938  -0.038   2.985
  361SOL    HW2 1106   1.094  -0.002   3.016
  362SOL     OW 1107   0.770   1.330   2.163
  362SOL    HW1 1108   0.724   1.243   2.180
  362SOL    HW2 1109   0.861   1.327   2.204
  363SOL     OW 1110   0.618   1.567   3.146
  363SOL    HW1 1111   0.613   1.649   3.203
  363SOL    HW2 1112   0.707   1.564   3.101
  364SOL     OW 1113   1.352   0.052   2.030
  364SOL    HW1 1114   1.387   0.011   1.946
  364SOL    HW2 1115   1.262   0.014   2.050
  365SOL     OW 1116   1.300   0.453   2.553
  365SOL    HW1 1117   1.241   0.533   2.557
  365SOL    HW2 1118   1.315   0.418   2.646
  366SOL     OW 1119   1.593   0.221   2.744
  366SOL    HW1 1120   1.509   0.220   2.798
  366SOL    HW2 1121   1.595   0.304   2.688
  367SOL     OW 1122   0.039   1.077   2.162
  367SOL    HW1 1123   0.138   1.066   2.153
  367SOL    HW2 1124  -0.001   0.991   2.194
  368SOL     OW 1125   0.875   1.646   2.199
  368SOL    HW1 1126   0.798   1.611   2.145
  368SOL    HW2 1127   0.843   1.717   2.261
  369SOL     OW 1128   0.230   2.490   0.113
  369SOL    HW1 1129   0.137   2.488   0.150
  369SOL    HW2 1130   0.231   2.451   0.021
  370SOL     OW 1131   0.225   2.137   0.996
  370SOL    HW1 1132   0.260   2.120   1.088
  370SOL    HW2 1133   0.137   2.092   0.984
  371SOL     OW 1134   0.019   2.230   0.647
  371SOL    HW1 1135  -0.063   2.273   0.686
  371SOL    HW2 1136  -0.009   2.157   0.584
  372SOL     OW 1137   0.569   3.137   1.165
  372SOL    HW1 1138   0.476   3.130   1.128
  372SOL    HW2 1139   0.580   3.226   1.209
  373SOL     OW 1140   1.555   3.373   0.703
  373SOL    HW1 1141   1.498   3.357   0.784
  373SOL    HW2 1142   1.496   3.383   0.623
  374SOL     OW 1143   1.135   2.565   0.717
  374SOL    HW1 1144   1.192   2.643   0.692
  374SOL    HW2 1145   1.075   2.591   0.793
  375SOL     OW 1146   1.755   2.469   0.231
  375SOL    HW1 1147   1.743   2.456   0.132
  375SOL    HW2 1148   1.725   2.388   0.280
  376SOL     OW 1149   0.768   3.006   1.023
  376SOL    HW1 1150   0.690   3.023   1.083
  376SOL    HW2 1151   0.802   3.093   0.987
  377SOL     OW 1152   0.850   2.660   1.823
  377SOL    HW1 1153   0.846   2.736   1.888
  377SOL    HW2 1154   0.872   2.696   1.732
  378SOL     OW 1155   0.685   2.874   0.665
  378SOL    HW1 1156   0.754   2.858   0.735
  378SOL    HW2 1157   0.612   2.931   0.703
  379SOL     OW 1158   0.686   3.023   1.803
  379SOL    HW1 1159   0.746   3.102   1.817
  379SOL    HW2 1160   0.600   3.054   1.762
  380SOL     OW 1161   0.335   3.297   1.061
  380SOL    HW1 1162   0.257   3.266   1.008
  380SOL    HW2 1163   0.393   3.355   1.004
  381SOL     OW 1164   0.438   2.254   1.499
  381SOL    HW1 1165   0.520   2.198   1.508
  381SOL    HW2 1166   0.357   2.196   1.503
  382SOL     OW 1167   1.603   2.309   0.737
  382SOL    HW1 1168   1.529   2.355   0.687
  382SOL    HW2 1169   1.654   2.377   0.790
  383SOL     OW 1170   0.240   2.953   0.886
  383SOL    HW1 1171   0.254   2.869   0.938
  383SOL    HW2 1172   0.185   3.017   0.941
  384SOL     OW 1173   0.606   2.826   0.123
  384SOL    HW1 1174   0.613   2.910   0.069
  384SOL    HW2 1175   0.652   2.839   0.211
  385SOL     OW 1176   1.594   1.976   1.480
  385SOL    HW1 1177   1.576   2.043   1.408
  385SOL    HW2 1178   1.591   2.022   1.569
  386SOL     OW 1179   0.122   2.505   0.563
  386SOL    HW1 1180   0.077   2.417   0.580
  386SOL    HW2 1181   0.121   2.559   0.647
  387SOL     OW 1182   1.689   2.784   0.612
  387SOL    HW1 1183   1.784   2.755   0.620
  387SOL    HW2 1184   1.681   2.849   0.537
  388SOL     OW 1185   1.641   2.970   0.432
  388SOL    HW1 1186   1.727   2.972   0.380
  388SOL    HW2 1187   1.655   3.017   0.520
  389SOL     OW 1188   0.113   2.599   1.597
  389SOL    HW1 1189   0.201   2.586   1.642
  389SOL    HW2 1190   0.100   2.696   1.575
  390SOL     OW 1191   1.293   3.090   1.423
  390SOL    HW1 1192   1.330   3.017   1.365
  390SOL    HW2 1193   1.345   3.095   1.508
  391SOL     OW 1194   0.809   1.866   0.502
  391SOL    HW1 1195   0.849   1.957   0.493
  391SOL    HW2 1196   0.709   1.874   0.508
  392SOL     OW 1197   0.197   2.838   1.264
  392SOL    HW1 1198   0.286   2.793   1.250
  392SOL    HW2 1199   0.124   2.773   1.245
  393SOL     OW 1200   1.525   2.861   0.190
  393SOL    HW1 1201   1.462   2.785   0.203
  393SOL    HW2 1202   1.573   2.879   0.276
  394SOL     OW 1203   0.317   2.113   1.801
  394SOL    HW1 1204   0.388   2.184   1.807
  394SOL    HW2 1205   0.229   2.152   1.829
  395SOL     OW 1206   1.466   3.279   0.953
  395SOL    HW1 1207   1.407   3.285   1.033
  395SOL    HW2 1208   1.451   3.191   0.907
  396SOL     OW 1209   0.598   2.591   0.270
  396SOL    HW1 1210   0.622   2.660   0.202
  396SOL    HW2 1211   0.520   2.624   0.324
  397SOL     OW 1212   1.281   2.207   0.944
  397SOL    HW1 1213   1.195   2.157   0.931
  397SOL    HW2 1214   1.343   2.153   1.000
  398SOL     OW 1215   0.807   2.467   1.465
  398SOL    HW1 1216   0.760   2.464   1.554
  398SOL    HW2 1217   0.756   2.412   1.399
  399SOL     OW 1218   1.394   2.331   1.674
  399SOL    HW1 1219   1.374   2.374   1.762
  399SOL    HW2 1220   1.472   2.269   1.683
  400SOL     OW 1221   0.973   2.752   1.572
  400SOL    HW1 1222   1.019   2.668   1.543
  400SOL    HW2 1223   0.917   2.786   1.497
  401SOL     OW 1224   0.991   2.272   1.242
  401SOL    HW1 1225   0.914   2.306   1.296
  401SOL    HW2 1226   0.957   2.221   1.163
  402SOL     OW 1227   1.041   2.563   0.429
  402SOL    HW1 1228   1.067   2.559   0.525
  402SOL    HW2 1229   0.956   2.512   0.415
  403SOL     OW 1230   0.076   2.673   0.789
  403SOL    HW1 1231   0.175   2.661   0.798
  403SOL    HW2 1232   0.052   2.768   0.810
  404SOL     OW 1233   0.865   2.210   0.195
  404SOL    HW1 1234   0.924   2.273   0.146
  404SOL    HW2 1235   0.884   2.116   0.166
  405SOL     OW 1236   1.719   2.447   1.831
  405SOL    HW1 1237   1.693   2.536   1.795
  405SOL    HW2 1238   1.717   2.379   1.758
  406SOL     OW 1239   1.362   3.006   0.545
  406SOL    HW1 1240   1.445   2.977   0.497
  406SOL    HW2 1241   1.313   3.073   0.489
  407SOL     OW 1242   0.550   2.058   0.885
  407SOL    HW1 1243   0.545   2.053   0.985
  407SOL    HW2 1244   0.552   2.154   0.856
  408SOL     OW 1245   1.795   2.928   0.873
  408SOL    HW1 1246   1.733   2.913   0.797
  408SOL    HW2 1247   1.743   2.939   0.958
  409SOL     OW 1248   0.321   2.805   0.242
  409SOL    HW1 1249   0.403   2.844   0.200
  409SOL    HW2 1250   0.294   2.723   0.193
  410SOL     OW 1251   1.458   2.597   0.728
  410SOL    HW1 1252   1.453   2.532   0.803
  410SOL    HW2 1253   1.538   2.656   0.741
  411SOL     OW 1254   0.202   2.147   1.498
  411SOL    HW1 1255   0.122   2.207   1.485
  411SOL    HW2 1256   0.192   2.098   1.584
  412SOL     OW 1257   1.632   3.239   0.081
  412SOL    HW1 1258   1.600   3.333   0.071
  412SOL    HW2 1259   1.556   3.176   0.069
  413SOL     OW 1260   1.400   1.969   0.426
  413SOL    HW1 1261   1.376   1.932   0.336
  413SOL    HW2 1262   1.499   1.985   0.430
  414SOL     OW 1263   0.382   2.562   0.480
  414SOL    HW1 1264   0.427   2.472   0.477
  414SOL    HW2 1265   0.288   2.551   0.513
  415SOL     OW 1266   1.547   2.084   1.729
  415SOL    HW1 1267   1.542   2.121   1.821
  415SOL    HW2 1268   1.475   2.015   1.717
  416SOL     OW 1269   0.781   2.126   1.749
  416SOL    HW1 1270   0.848   2.065   1.792
  416SOL    HW2 1271   0.708   2.145   1.814
  417SOL     OW 1272   1.351   2.452   1.433
  417SOL    HW1 1273   1.379   2.409   1.518
  417SOL    HW2 1274   1.376   2.548   1.434
  418SOL     OW 1275   0.922   2.365   0.899
  418SOL    HW1 1276   0.897   2.356   0.803
  418SOL    HW2 1277   0.970   2.283   0.930
  419SOL     OW 1278   0.539   1.926   0.512
  419SOL    HW1 1279   0.458   1.927   0.570
  419SOL    HW2 1280   0.542   2.009   0.457
  420SOL     OW 1281   1.434   3.050   0.041
  420SOL    HW1 1282   1.466   2.974   0.098
  420SOL    HW2 1283   1.342   3.077   0.071
  421SOL     OW 1284   0.935   2.098   0.480
  421SOL    HW1 1285   0.887   2.139   0.402
  421SOL    HW2 1286   1.034   2.096   0.461
  422SOL     OW 1287   1.076   2.545   1.464
  422SOL    HW1 1288   0.996   2.484   1.467
  422SOL    HW2 1289   1.157   2.492   1.440
  423SOL     OW 1290   1.227   3.432   0.793
  423SOL    HW1 1291   1.248   3.506   0.728
  423SOL    HW2 1292   1.295   3.432   0.866
  424SOL     OW 1293   0.459   3.014   0.741
  424SOL    HW1 1294   0.388   2.987   0.806
  424SOL    HW2 1295   0.433   2.986   0.648
  425SOL     OW 1296   1.032   2.411   0.016
  425SOL    HW1 1297   0.991   2.493  -0.023
  425SOL    HW2 1298   1.096   2.437   0.089
  426SOL     OW 1299   0.078   2.418   1.386
  426SOL    HW1 1300   0.170   2.417   1.345
  426SOL    HW2 1301   0.072   2.492   1.453
  427SOL     OW 1302   0.561   2.084   1.147
  427SOL    HW1 1303   0.599   2.000   1.184
  427SOL    HW2 1304   0.473   2.103   1.191
  428SOL     OW 1305   0.866   2.316   0.642
  428SOL    HW1 1306   0.834   2.388   0.580
  428SOL    HW2 1307   0.890   2.235   0.589
  429SOL     OW 1308   1.017   1.901   0.753
  429SOL    HW1 1309   0.945   1.906   0.684
  429SOL    HW2 1310   0.993   1.832   0.822
  430SOL     OW 1311   1.429   3.035   0.867
  430SOL    HW1 1312   1.374   2.951   0.860
  430SOL    HW2 1313   1.455   3.064   0.775
  431SOL     OW 1314   1.466   2.452   0.992
  431SOL    HW1 1315   1.436   2.357   0.999
  431SOL    HW2 1316   1.539   2.468   1.058
  432SOL     OW 1317   1.857   2.695   0.377
  432SOL    HW1 1318   1.899   2.631   0.441
  432SOL    HW2 1319   1.819   2.644   0.299
  433SOL     OW 1320   1.664   3.142   0.657
  433SOL    HW1 1321   1.763   3.150   0.671
  433SOL    HW2 1322   1.619   3.226   0.688
  434SOL     OW 1323   1.390   2.437   0.078
  434SOL    HW1 1324   1.336   2.416   0.159
  434SOL    HW2 1325   1.481   2.396   0.087
  435SOL     OW 1326   0.527   2.118   0.328
  435SOL    HW1 1327   0.554   2.059   0.253
  435SOL    HW2 1328   0.527   2.213   0.297
  436SOL     OW 1329   1.754   3.085   1.588
  436SOL    HW1 1330   1.845   3.046   1.575
  436SOL    HW2 1331   1.762   3.181   1.612
  437SOL     OW 1332   1.064   3.209   1.340
  437SOL    HW1 1333   0.984   3.186   1.395
  437SOL    HW2 1334   1.147   3.183   1.389
  438SOL     OW 1335   1.111   3.057   1.100
  438SOL    HW1 1336   1.071   3.101   1.181
  438SOL    HW2 1337   1.070   3.094   1.017
  439SOL     OW 1338   1.638   2.961   1.079
  439SOL    HW1 1339   1.643   3.042   1.138
  439SOL    HW2 1340   1.552   2.963   1.028
  440SOL     OW 1341   0.915   1.951   1.402
  440SOL    HW1 1342   0.940   1.931   1.307
  440SOL    HW2 1343   0.987   2.007   1.444
  441SOL     OW 1344   0.980   2.978   1.719
  441SOL    HW1 1345   0.881   2.984   1.729
  441SOL    HW2 1346   1.003   2.898   1.663
  442SOL     OW 1347   0.705   2.912   0.368
  442SOL    HW1 1348   0.691   2.919   0.467
  442SOL    HW2 1349   0.789   2.861   0.350
  443SOL     OW 1350   0.410   2.675   1.251
  443SOL    HW1 1351   0.496   2.687   1.301
  443SOL    HW2 1352   0.368   2.588   1.278
  444SOL     OW 1353   1.274   2.248   1.262
  444SOL    HW1 1354   1.295   2.322   1.326
  444SOL    HW2 1355   1.185   2.265   1.219
  445SOL     OW 1356   0.064   3.426   1.331
  445SOL    HW1 1357   0.018   3.508   1.297
  445SOL    HW2 1358   0.162   3.445   1.340
  446SOL     OW 1359   0.367   2.962   0.501
  446SOL    HW1 1360   0.360   3.045   0.445
  446SOL    HW2 1361   0.371   2.882   0.441
  447SOL     OW 1362   0.566   2.399   0.865
  447SOL    HW1 1363   0.578   2.465   0.791
  447SOL    HW2 1364   0.612   2.433   0.948
  448SOL     OW 1365   1.582   2.501   0.472
  448SOL    HW1 1366   1.551   2.562   0.545
  448SOL    HW2 1367   1.632   2.553   0.403
  449SOL     OW 1368   0.402   2.613   1.598
  449SOL    HW1 1369   0.470   2.668   1.551
  449SOL    HW2 1370   0.442   2.525   1.625
  450SOL     OW 1371   1.587   2.641   1.670
  450SOL    HW1 1372   1.495   2.679   1.665
  450SOL    HW2 1373   1.647   2.688   1.605
  451SOL     OW 1374   1.013   1.967   1.770
  451SOL    HW1 1375   1.019   2.052   1.718
  451SOL    HW2 1376   1.045   1.891   1.713
  452SOL     OW 1377   0.504   1.912   1.740
  452SOL    HW1 1378   0.462   1.855   1.670
  452SOL    HW2 1379   0.438   1.981   1.772
  453SOL     OW 1380   0.573   2.732   1.029
  453SOL    HW1 1381   0.617   2.821   1.020
  453SOL    HW2 1382   0.510   2.732   1.106
  454SOL     OW 1383   1.360   2.724   1.045
  454SOL    HW1 1384   1.285   2.724   0.979
  454SOL    HW2 1385   1.397   2.632   1.054
  455SOL     OW 1386   1.209   2.387   0.275
  455SOL    HW1 1387   1.222   2.303   0.329
  455SOL    HW2 1388   1.180   2.461   0.335
  456SOL     OW 1389   0.307   2.075   1.231
  456SOL    HW1 1390   0.284   2.112   1.321
  456SOL    HW2 1391   0.277   1.980   1.225
  457SOL     OW 1392   0.037   3.172   1.282
  457SOL    HW1 1393   0.090   3.123   1.350
  457SOL    HW2 1394   0.059   3.270   1.287
  458SOL     OW 1395   0.732   2.496   1.064
  458SOL    HW1 1396   0.791   2.470   0.988
  458SOL    HW2 1397   0.704   2.592   1.053
  459SOL     OW 1398   1.728   2.797   1.854
  459SOL    HW1 1399   1.682   2.790   1.765
  459SOL    HW2 1400   1.666   2.841   1.920
  460SOL     OW 1401   0.307   1.925   0.618
  460SOL    HW1 1402   0.296   2.019   0.651
  460SOL    HW2 1403   0.302   1.862   0.695
  461SOL     OW 1404   1.622   2.229   0.374
  461SOL    HW1 1405   1.624   2.153   0.438
  461SOL    HW2 1406   1.574   2.306   0.414
  462SOL     OW 1407   1.023   2.628   0.966
  462SOL    HW1 1408   1.038   2.649   1.062
  462SOL    HW2 1409   0.993   2.533   0.957
  463SOL     OW 1410   1.859   3.380   1.605
  463SOL    HW1 1411   1.873   3.407   1.510
  463SOL    HW2 1412   1.942   3.402   1.658
  464SOL     OW 1413   0.350   2.760   1.804
  464SOL    HW1 1414   0.426   2.804   1.852
  464SOL    HW2 1415   0.385   2.713   1.722
  465SOL     OW 1416   1.540   2.136   0.125
  465SOL    HW1 1417   1.479   2.061   0.148
  465SOL    HW2 1418   1.562   2.188   0.208
  466SOL     OW 1419   1.303   2.700   0.042
  466SOL    HW1 1420   1.337   2.607   0.057
  466SOL    HW2 1421   1.321   2.727  -0.053
  467SOL     OW 1422   0.319   2.672   0.949
  467SOL    HW1 1423   0.412   2.708   0.954
  467SOL    HW2 1424   0.313   2.587   1.001
  468SOL     OW 1425   0.339   2.371   1.006
  468SOL    HW1 1426   0.287   2.288   0.989
  468SOL    HW2 1427   0.416   2.376   0.942
  469SOL     OW 1428   1.138   2.242   1.678
  469SOL    HW1 1429   1.093   2.305   1.742
  469SOL    HW2 1430   1.231   2.273   1.661
  470SOL     OW 1431   1.160   2.069   1.477
  470SOL    HW1 1432   1.160   2.133   1.554
  470SOL    HW2 1433   1.188   2.117   1.394
  471SOL     OW 1434   0.008   3.188   0.200
  471SOL    HW1 1435  -0.085   3.209   0.169
  471SOL    HW2 1436   0.018   3.089   0.213
  472SOL     OW 1437   1.002   2.658   1.238
  472SOL    HW1 1438   1.043   2.626   1.324
  472SOL    HW2 1439   0.906   2.631   1.235
  473SOL     OW 1440   0.040   2.406   1.114
  473SOL    HW1 1441   0.125   2.373   1.073
  473SOL    HW2 1442   0.053   2.421   1.212
  474SOL     OW 1443   0.189   2.382   1.722
  474SOL    HW1 1444   0.248   2.342   1.652
  474SOL    HW2 1445   0.131   2.453   1.681
  475SOL     OW 1446   1.369   2.812   1.660
  475SOL    HW1 1447   1.408   2.901   1.680
  475SOL    HW2 1448   1.379   2.792   1.563
  476SOL     OW 1449   0.815   2.434   0.325
  476SOL    HW1 1450   0.822   2.345   0.279
  476SOL    HW2 1451   0.721   2.468   0.317
  477SOL     OW 1452   1.657   2.466   1.206
  477SOL    HW1 1453   1.619   2.397   1.268
  477SOL    HW2 1454   1.739   2.430   1.162
  478SOL     OW 1455   0.671   2.326   1.269
  478SOL    HW1 1456   0.637   2.237   1.239
  478SOL    HW2 1457   0.697   2.380   1.189
  479SOL     OW 1458   0.473   2.362   0.191
  479SOL    HW1 1459   0.534   2.442   0.195
  479SOL    HW2 1460   0.378   2.393   0.198
  480SOL     OW 1461   0.159   2.999   1.466
  480SOL    HW1 1462   0.181   2.938   1.542
  480SOL    HW2 1463   0.169   2.950   1.380
  481SOL     OW 1464   1.347   2.921   1.234
  481SOL    HW1 1465   1.371   2.858   1.160
  481SOL    HW2 1466   1.257   2.961   1.216
  482SOL     OW 1467   1.302   2.717   0.309
  482SOL    HW1 1468   1.216   2.686   0.351
  482SOL    HW2 1469   1.298   2.703   0.210
  483SOL     OW 1470   0.083   3.120   1.022
  483SOL    HW1 1471   0.078   3.119   1.122
  483SOL    HW2 1472   0.000   3.079   0.984
  484SOL     OW 1473   0.903   1.948   0.133
  484SOL    HW1 1474   0.954   1.949   0.047
  484SOL    HW2 1475   0.959   1.906   0.204
  485SOL     OW 1476   1.726   1.997   0.523
  485SOL    HW1 1477   1.799   1.980   0.456
  485SOL    HW2 1478   1.695   1.910   0.561
  486SOL     OW 1479   1.280   2.789   0.672
  486SOL    HW1 1480   1.340   2.708   0.674
  486SOL    HW2 1481   1.320   2.858   0.612
  487SOL     OW 1482   0.830   3.135   1.422
  487SOL    HW1 1483   0.825   3.168   1.517
  487SOL    HW2 1484   0.744   3.154   1.376
  488SOL     OW 1485   1.841   2.037   0.963
  488SOL    HW1 1486   1.880   1.952   0.927
  488SOL    HW2 1487   1.743   2.039   0.944
  489SOL     OW 1488   0.263   2.188   0.720
  489SOL    HW1 1489   0.184   2.239   0.686
  489SOL    HW2 1490   0.254   2.173   0.818
  490SOL     OW 1491   0.822   2.864   1.372
  490SOL    HW1 1492   0.862   2.863   1.280
  490SOL    HW2 1493   0.832   2.956   1.412
  491SOL     OW 1494   0.916   2.772   0.291
  491SOL    HW1 1495   0.979   2.810   0.223
  491SOL    HW2 1496   0.956   2.689   0.330
  492SOL     OW 1497   0.372   3.150   1.490
  492SOL    HW1 1498   0.359   3.243   1.456
  492SOL    HW2 1499   0.288   3.098   1.477
  493SOL     OW 1500   1.614   3.154   1.289
  493SOL    HW1 1501   1.674   3.157   1.369
  493SOL    HW2 1502   1.539   3.218   1.302
  494SOL     OW 1503   1.039   2.960   0.696
  494SOL    HW1 1504   0.969   2.913   0.750
  494SOL    HW2 1505   1.098   2.892   0.653
  495SOL     OW 1506   1.014   2.098   0.971
  495SOL    HW1 1507   1.006   2.062   0.878
  495SOL    HW2 1508   1.012   2.022   1.036
  496SOL     OW 1509   1.709   2.247   1.381
  496SOL    HW1 1510   1.782   2.316   1.385
  496SOL    HW2 1511   1.737   2.172   1.322
  497SOL     OW 1512   0.105   2.875   1.726
  497SOL    HW1 1513   0.028   2.842   1.780
  497SOL    HW2 1514   0.190   2.845   1.768
  498SOL     OW 1515   0.672   2.065   1.489
  498SOL    HW1 1516   0.762   2.049   1.449
  498SOL    HW2 1517   0.680   2.070   1.588
  499SOL     OW 1518   0.075   2.207   0.033
  499SOL    HW1 1519  -0.017   2.179   0.004
  499SOL    HW2 1520   0.106   2.284  -0.023
  500SOL     OW 1521   1.440   2.718   1.398
  500SOL    HW1 1522   1.383   2.770   1.335
  500SOL    HW2 1523   1.536   2.730   1.374
  501SOL     OW 1524   0.072   2.028   0.318
  501SOL    HW1 1525   0.055   2.111   0.264
  501SOL    HW2 1526   0.162   1.991   0.296
  502SOL     OW 1527   0.613   2.704   1.431
  502SOL    HW1 1528   0.669   2.785   1.414
  502SOL    HW2 1529   0.672   2.624   1.434
  503SOL     OW 1530   0.716   2.427   1.708
  503SOL    HW1 1531   0.735   2.492   1.782
  503SOL    HW2 1532   0.776   2.347   1.717
  504SOL     OW 1533   1.450   3.082   1.633
  504SOL    HW1 1534   1.441   3.072   1.732
  504SOL    HW2 1535   1.546   3.075   1.607
  505SOL     OW 1536   1.674   2.745   1.254
  505SOL    HW1 1537   1.647   2.656   1.217
  505SOL    HW2 1538   1.675   2.813   1.181
  506SOL     OW 1539   1.225   2.187   0.449
  506SOL    HW1 1540   1.290   2.113   0.438
  506SOL    HW2 1541   1.245   2.237   0.533
  507SOL     OW 1542   0.594   2.607   0.652
  507SOL    HW1 1543   0.644   2.692   0.633
  507SOL    HW2 1544   0.506   2.609   0.604
  508SOL     OW 1545   1.777   2.204   1.642
  508SOL    HW1 1546   1.760   2.235   1.548
  508SOL    HW2 1547   1.693   2.167   1.680
  509SOL     OW 1548   1.730   2.796   1.517
  509SOL    HW1 1549   1.768   2.887   1.532
  509SOL    HW2 1550   1.722   2.779   1.418
  510SOL     OW 1551   0.859   2.818   0.861
  510SOL    HW1 1552   0.913   2.749   0.909
  510SOL    HW2 1553   0.827   2.887   0.927
  511SOL     OW 1554   1.083   2.846   0.087
  511SOL    HW1 1555   1.060   2.899   0.005
  511SOL    HW2 1556   1.164   2.790   0.068
  512SOL     OW 1557   0.221   3.176   1.844
  512SOL    HW1 1558   0.156   3.103   1.823
  512SOL    HW2 1559   0.225   3.190   1.942
  513SOL     OW 1560   0.079   3.102   0.653
  513SOL    HW1 1561   0.078   3.055   0.741
  513SOL    HW2 1562   0.161   3.074   0.602
  514SOL     OW 1563   0.672   3.253   1.624
  514SOL    HW1 1564   0.594   3.203   1.662
  514SOL    HW2 1565   0.669   3.348   1.655
  515SOL     OW 1566   0.428   2.286   0.520
  515SOL    HW1 1567   0.458   2.214   0.458
  515SOL    HW2 1568   0.389   2.246   0.603
  516SOL     OW 1569   1.705   3.349   1.104
  516SOL    HW1 1570   1.612   3.324   1.077
  516SOL    HW2 1571   1.731   3.299   1.186
  517SOL     OW 1572   0.317   2.409   1.280
  517SOL    HW1 1573   0.355   2.350   1.352
  517SOL    HW2 1574   0.357   2.383   1.192
  518SOL     OW 1575   1.424   2.076   1.112
  518SOL    HW1 1576   1.476   2.011   1.167
  518SOL    HW2 1577   1.375   2.139   1.173
  519SOL     OW 1578   1.001   1.896   1.154
  519SOL    HW1 1579   0.938   1.824   1.123
  519SOL    HW2 1580   1.094   1.860   1.154
  520SOL     OW 1581   0.770   3.192   0.301
  520SOL    HW1 1582   0.724   3.105   0.318
  520SOL    HW2 1583   0.861   3.189   0.342
  521SOL     OW 1584   1.352   1.914   0.168
  521SOL    HW1 1585   1.387   1.873   0.084
  521SOL    HW2 1586   1.262   1.876   0.188
  522SOL     OW 1587   1.300   2.315   0.691
  522SOL    HW1 1588   1.241   2.395   0.695
  522SOL    HW2 1589   1.315   2.280   0.784
  523SOL     OW 1590   1.593   2.083   0.882
  523SOL    HW1 1591   1.509   2.082   0.936
  523SOL    HW2 1592   1.595   2.166   0.826
  524SOL     OW 1593   0.039   2.939   0.300
  524SOL    HW1 1594   0.138   2.928   0.291
  524SOL    HW2 1595  -0.001   2.853   0.332
  525SOL     OW 1596   0.230   2.490   1.975
  525SOL    HW1 1597   0.137   2.488   2.012
  525SOL    HW2 1598   0.231   2.451   1.883
  526SOL     OW 1599   0.225   2.137   2.858
  526SOL    HW1 1600   0.260   2.120   2.950
  526SOL    HW2 1601   0.137   2.092   2.846
  527SOL     OW 1602   0.019   2.230   2.509
  527SOL    HW1 1603  -0.063   2.273   2.548
  527SOL    HW2 1604  -0.009   2.157   2.446
  528SOL     OW 1605   0.569   3.137   3.027
  528SOL    HW1 1606   0.476   3.130   2.990
  528SOL    HW2 1607   0.580   3.226   3.071
  529SOL     OW 1608   1.555   3.373   2.565
  529SOL    HW1 1609   1.498   3.357   2.646
  529SOL    HW2 1610   1.496   3.383   2.485
  530SOL     OW 1611   1.135   2.565   2.579
  530SOL    HW1 1612   1.192   2.643   2.554
  530SOL    HW2 1613   1.075   2.591   2.655
  531SOL     OW 1614   1.755   2.469   2.093
  531SOL    HW1 1615   1.743   2.456   1.994
  531SOL    HW2 1616   1.725   2.388   2.142
  532SOL     OW 1617   0.768   3.006   2.885
  532SOL    HW1 1618   0.690   3.023   2.945
  532SOL    HW2 1619   0.802   3.093   2.849
  533SOL     OW 1620   0.685   2.874   2.527
  533SOL    HW1 1621   0.754   2.858   2.597
  533SOL    HW2 1622   0.612   2.931   2.565
  534SOL     OW 1623   0.335   3.297   2.923
  534SOL    HW1 1624   0.257   3.266   2.870
  534SOL    HW2 1625   0.393   3.355   2.866
  535SOL     OW 1626   1.603   2.309   2.599
  535SOL    HW1 1627   1.529   2.355   2.549
  535SOL    HW2 1628   1.654   2.377   2.652
  536SOL     OW 1629   0.240   2.953   2.748
  536SOL    HW1 1630   0.254   2.869   2.800
  536SOL    HW2 1631   0.185   3.017   2.803
  537SOL     OW 1632   0.606   2.826   1.985
  537SOL    HW1 1633   0.613   2.910   1.931
  537SOL    HW2 1634   0.652   2.839   2.073
  538SOL     OW 1635   0.122   2.505   2.425
  538SOL    HW1 1636   0.077   2.417   2.442
  538SOL    HW2 1637   0.121   2.559   2.509
  539SOL     OW 1638   1.689   2.784   2.474
  539SOL    HW1 1639   1.784   2.755   2.482
  539SOL    HW2 1640   1.681   2.849   2.399
  540SOL     OW 1641   1.641   2.970   2.294
  540SOL    HW1 1642   1.727   2.972   2.242
  540SOL    HW2 1643   1.655   3.017   2.382
  541SOL     OW 1644   0.809   1.866   2.364
  541SOL    HW1 1645   0.849   1.957   2.355
  541SOL    HW2 1646   0.709   1.874   2.370
  542SOL     OW 1647   0.197   2.838   3.126
  542SOL    HW1 1648   0.286   2.793   3.112
  542SOL    HW2 1649   0.124   2.773   3.107
  543SOL     OW 1650   1.525   2.861   2.052
  543SOL    HW1 1651   1.462   2.785   2.065
  543SOL    HW2 1652   1.573   2.879   2.138
  544SOL     OW 1653   1.466   3.279   2.815
  544SOL    HW1 1654   1.407   3.285   2.895
  544SOL    HW2 1655   1.451   3.191   2.769
  545SOL     OW 1656   0.598   2.591   2.132
  545SOL    HW1 1657   0.622   2.660   2.064
  545SOL    HW2 1658   0.520   2.624   2.186
  546SOL     OW 1659   1.281   2.207   2.806
  546SOL    HW1 1660   1.195   2.157   2.793
  546SOL    HW2 1661   1.343   2.153   2.862
  547SOL     OW 1662   0.807   2.467   3.327
  547SOL    HW1 1663   0.760   2.464   3.416
  547SOL    HW2 1664   0.756   2.412   3.261
  548SOL     OW 1665   0.991   2.272   3.104
  548SOL    HW1 1666   0.914   2.306   3.158
  548SOL    HW2 1667   0.957   2.221   3.025
  549SOL     OW 1668   1.041   2.563   2.291
  549SOL    HW1 1669   1.067   2.559   2.387
  549SOL    HW2 1670   0.956   2.512   2.277
  550SOL     OW 1671   0.076   2.673   2.651
  550SOL    HW1 1672   0.175   2.661   2.660
  550SOL    HW2 1673   0.052   2.768   2.672
  551SOL     OW 1674   0.865   2.210   2.057
  551SOL    HW1 1675   0.924   2.273   2.008
  551SOL    HW2 1676   0.884   2.116   2.028
  552SOL     OW 1677   1.362   3.006   2.407
  552SOL    HW1 1678   1.445   2.977   2.359
  552SOL    HW2 1679   1.313   3.073   2.351
  553SOL     OW 1680   0.550   2.058   2.747
  553SOL    HW1 1681   0.545   2.053   2.847
  553SOL    HW2 1682   0.552   2.154   2.718
  554SOL     OW 1683   1.795   2.928   2.735
  554SOL    HW1 1684   1.733   2.913   2.659
  554SOL    HW2 1685   1.743   2.939   2.820
  555SOL     OW 1686   0.321   2.805   2.104
  555SOL    HW1 1687   0.403   2.844   2.062
  555SOL    HW2 1688   0.294   2.723   2.055
  556SOL     OW 1689   1.458   2.597   2.590
  556SOL    HW1 1690   1.453   2.532   2.665
  556SOL    HW2 1691   1.538   2.656   2.603
  557SOL     OW 1692   1.632   3.239   1.943
  557SOL    HW1 1693   1.600   3.333   1.933
  557SOL    HW2 1694   1.556   3.176   1.931
  558SOL     OW 1695   1.400   1.969   2.288
  558SOL    HW1 1696   1.376   1.932   2.198
  558SOL    HW2 1697   1.499   1.985   2.292
  559SOL     OW 1698   0.382   2.562   2.342
  559SOL    HW1 1699   0.427   2.472   2.339
  559SOL    HW2 1700   0.288   2.551   2.375
  560SOL     OW 1701   0.614   1.984   1.979
  560SOL    HW1 1702   0.712   1.962   1.986
  560SOL    HW2 1703   0.583   1.967   1.886
  561SOL     OW 1704   0.922   2.365   2.761
  561SOL    HW1 1705   0.897   2.356   2.665
  561SOL    HW2 1706   0.970   2.283   2.792
  562SOL     OW 1707   0.539   1.926   2.374
  562SOL    HW1 1708   0.458   1.927   2.432
  562SOL    HW2 1709   0.542   2.009   2.319
  563SOL     OW 1710   1.434   3.050   1.903
  563SOL    HW1 1711   1.466   2.974   1.960
  563SOL    HW2 1712   1.342   3.077   1.933
  564SOL     OW 1713   0.297   1.897   2.033
  564SOL    HW1 1714   0.346   1.981   2.012
  564SOL    HW2 1715   0.359   1.832   2.078
  565SOL     OW 1716   0.935   2.098   2.342
  565SOL    HW1 1717   0.887   2.139   2.264
  565SOL    HW2 1718   1.034   2.096   2.323
  566SOL     OW 1719   1.227   3.432   2.655
  566SOL    HW1 1720   1.248   3.506   2.590
  566SOL    HW2 1721   1.295   3.432   2.728
  567SOL     OW 1722   0.459   3.014   2.603
  567SOL    HW1 1723   0.388   2.987   2.668
  567SOL    HW2 1724   0.433   2.986   2.510
  568SOL     OW 1725   1.032   2.411   1.878
  568SOL    HW1 1726   0.991   2.493   1.839
  568SOL    HW2 1727   1.096   2.437   1.951
  569SOL     OW 1728   0.561   2.084   3.009
  569SOL    HW1 1729   0.599   2.000   3.046
  569SOL    HW2 1730   0.473   2.103   3.053
  570SOL     OW 1731   0.866   2.316   2.504
  570SOL    HW1 1732   0.834   2.388   2.442
  570SOL    HW2 1733   0.890   2.235   2.451
  571SOL     OW 1734   1.017   1.901   2.615
  571SOL    HW1 1735   0.945   1.906   2.546
  571SOL    HW2 1736   0.993   1.832   2.684
  572SOL     OW 1737   1.429   3.035   2.729
  572SOL    HW1 1738   1.374   2.951   2.722
  572SOL    HW2 1739   1.455   3.064   2.637
  573SOL     OW 1740   1.466   2.452   2.854
  573SOL    HW1 1741   1.436   2.357   2.861
  573SOL    HW2 1742   1.539   2.468   2.920
  574SOL     OW 1743   1.857   2.695   2.239
  574SOL    HW1 1744   1.899   2.631   2.303
  574SOL    HW2 1745   1.819   2.644   2.161
  575SOL     OW 1746   1.664   3.142   2.519
  575SOL    HW1 1747   1.763   3.150   2.533
  575SOL    HW2 1748   1.619   3.226   2.550
  576SOL     OW 1749   1.390   2.437   1.940
  576SOL    HW1 1750   1.336   2.416   2.021
  576SOL    HW2 1751   1.481   2.396   1.949
  577SOL     OW 1752   0.527   2.118   2.190
  577SOL    HW1 1753   0.554   2.059   2.115
  577SOL    HW2 1754   0.527   2.213   2.159
  578SOL     OW 1755   1.754   3.085   3.450
  578SOL    HW1 1756   1.845   3.046   3.437
  578SOL    HW2 1757   1.762   3.181   3.474
  579SOL     OW 1758   1.064   3.209   3.202
  579SOL    HW1 1759   0.984   3.186   3.257
  579SOL    HW2 1760   1.147   3.183   3.251
  580SOL     OW 1761   1.111   3.057   2.962
  580SOL    HW1 1762   1.071   3.101   3.043
  580SOL    HW2 1763   1.070   3.094   2.879
  581SOL     OW 1764   1.638   2.961   2.941
  581SOL    HW1 1765   1.643   3.042   3.000
  581SOL    HW2 1766   1.552   2.963   2.890
  582SOL     OW 1767   0.705   2.912   2.230
  582SOL    HW1 1768   0.691   2.919   2.329
  582SOL    HW2 1769   0.789   2.861   2.212
  583SOL     OW 1770   0.410   2.675   3.113
  583SOL    HW1 1771   0.496   2.687   3.163
  583SOL    HW2 1772   0.368   2.588   3.140
  584SOL     OW 1773   1.274   2.248   3.124
  584SOL    HW1 1774   1.295   2.322   3.188
  584SOL    HW2 1775   1.185   2.265   3.081
  585SOL     OW 1776   0.064   3.426   3.193
  585SOL    HW1 1777   0.018   3.508   3.159
  585SOL    HW2 1778   0.162   3.445   3.202
  586SOL     OW 1779   0.367   2.962   2.363
  586SOL    HW1 1780   0.360   3.045   2.307
  586SOL    HW2 1781   0.371   2.882   2.303
  587SOL     OW 1782   0.566   2.399   2.727
  587SOL    HW1 1783   0.578   2.465   2.653
  587SOL    HW2 1784   0.612   2.433   2.810
  588SOL     OW 1785   1.582   2.501   2.334
  588SOL    HW1 1786   1.551   2.562   2.407
  588SOL    HW2 1787   1.632   2.553   2.265
  589SOL     OW 1788   0.573   2.732   2.891
  589SOL    HW1 1789   0.617   2.821   2.882
  589SOL    HW2 1790   0.510   2.732   2.968
  590SOL     OW 1791   1.360   2.724   2.907
  590SOL    HW1 1792   1.285   2.724   2.841
  590SOL    HW2 1793   1.397   2.632   2.916
  591SOL     OW 1794   1.209   2.387   2.137
  591SOL    HW1 1795   1.222   2.303   2.191
  591SOL    HW2 1796   1.180   2.461   2.197
  592SOL     OW 1797   0.307   2.075   3.093
  592SOL    HW1 1798   0.284   2.112   3.183
  592SOL    HW2 1799   0.277   1.980   3.087
  593SOL     OW 1800   0.037   3.172   3.144
  593SOL    HW1 1801   0.090   3.123   3.212
  593SOL    HW2 1802   0.059   3.270   3.149
  594SOL     OW 1803   0.732   2.496   2.926
  594SOL    HW1 1804   0.791   2.470   2.850
  594SOL    HW2 1805   0.704   2.592   2.915
  595SOL     OW 1806   0.307   1.925   2.480
  595SOL    HW1 1807   0.296   2.019   2.513
  595SOL    HW2 1808   0.302   1.862   2.557
  596SOL     OW 1809   1.622   2.229   2.236
  596SOL    HW1 1810   1.624   2.153   2.300
  596SOL    HW2 1811   1.574   2.306   2.276
  597SOL     OW 1812   1.023   2.628   2.828
  597SOL    HW1 1813   1.038   2.649   2.924
  597SOL    HW2 1814   0.993   2.533   2.819
  598SOL     OW 1815   1.540   2.136   1.987
  598SOL    HW1 1816   1.479   2.061   2.010
  598SOL    HW2 1817   1.562   2.188   2.070
  599SOL     OW 1818   1.303   2.700   1.904
  599SOL    HW1 1819   1.337   2.607   1.919
  599SOL    HW2 1820   1.321   2.727   1.809
  600SOL     OW 1821   0.319   2.672   2.811
  600SOL    HW1 1822   0.412   2.708   2.816
  600SOL    HW2 1823   0.313   2.587   2.863
  601SOL     OW 1824   0.339   2.371   2.868
  601SOL    HW1 1825   0.287   2.288   2.851
  601SOL    HW2 1826   0.416   2.376   2.804
  602SOL     OW 1827   1.160   2.069   3.339
  602SOL    HW1 1828   1.160   2.133   3.416
  602SOL    HW2 1829   1.188   2.117   3.256
  603SOL     OW 1830   0.008   3.188   2.062
  603SOL    HW1 1831  -0.085   3.209   2.031
  603SOL    HW2 1832   0.018   3.089   2.075
  604SOL     OW 1833   1.002   2.658   3.100
  604SOL    HW1 1834   1.043   2.626   3.186
  604SOL    HW2 1835   0.906   2.631   3.097
  605SOL     OW 1836   0.040   2.406   2.976
  605SOL    HW1 1837   0.125   2.373   2.935
  605SOL    HW2 1838   0.053   2.421   3.074
  606SOL     OW 1839   0.815   2.434   2.187
  606SOL    HW1 1840   0.822   2.345   2.141
  606SOL    HW2 1841   0.721   2.468   2.179
  607SOL     OW 1842   1.657   2.466   3.068
  607SOL    HW1 1843   1.619   2.397   3.130
  607SOL    HW2 1844   1.739   2.430   3.024
  608SOL     OW 1845   0.671   2.326   3.131
  608SOL    HW1 1846   0.637   2.237   3.101
  608SOL    HW2 1847   0.697   2.380   3.051
  609SOL     OW 1848   0.473   2.362   2.053
  609SOL    HW1 1849   0.534   2.442   2.057
  609SOL    HW2 1850   0.378   2.393   2.060
  610SOL     OW 1851   0.159   2.999   3.328
  610SOL    HW1 1852   0.181   2.938   3.404
  610SOL    HW2 1853   0.169   2.950   3.242
  611SOL     OW 1854   1.347   2.921   3.096
  611SOL    HW1 1855   1.371   2.858   3.022
  611SOL    HW2 1856   1.257   2.961   3.078
  612SOL     OW 1857   1.302   2.717   2.171
  612SOL    HW1 1858   1.216   2.686   2.213
  612SOL    HW2 1859   1.298   2.703   2.072
  613SOL     OW 1860   0.083   3.120   2.884
  613SOL    HW1 1861   0.078   3.119   2.984
  613SOL    HW2 1862   0.000   3.079   2.846
  614SOL     OW 1863   1.726   1.997   2.385
  614SOL    HW1 1864   1.799   1.980   2.318
  614SOL    HW2 1865   1.695   1.910   2.423
  615SOL     OW 1866   1.280   2.789   2.534
  615SOL    HW1 1867   1.340   2.708   2.536
  615SOL    HW2 1868   1.320   2.858   2.474
  616SOL     OW 1869   0.830   3.135   3.284
  616SOL    HW1 1870   0.825   3.168   3.379
  616SOL    HW2 1871   0.744   3.154   3.238
  617SOL     OW 1872   1.841   2.037   2.825
  617SOL    HW1 1873   1.880   1.952   2.789
  617SOL    HW2 1874   1.743   2.039   2.806
  618SOL     OW 1875   0.263   2.188   2.582
  618SOL    HW1 1876   0.184   2.239   2.548
  618SOL    HW2 1877   0.254   2.173   2.680
  619SOL     OW 1878   1.194   3.474   1.893
  619SOL    HW1 1879   1.200   3.381   1.930
  619SOL    HW2 1880   1.135   3.474   1.813
  620SOL     OW 1881   0.822   2.864   3.234
  620SOL    HW1 1882   0.862   2.863   3.142
  620SOL    HW2 1883   0.832   2.956   3.274
  621SOL     OW 1884   0.916   2.772   2.153
  621SOL    HW1 1885   0.979   2.810   2.085
  621SOL    HW2 1886   0.956   2.689   2.192
  622SOL     OW 1887   1.039   2.960   2.558
  622SOL    HW1 1888   0.969   2.913   2.612
  622SOL    HW2 1889   1.098   2.892   2.515
  623SOL     OW 1890   1.014   2.098   2.833
  623SOL    HW1 1891   1.006   2.062   2.740
  623SOL    HW2 1892   1.012   2.022   2.898
  624SOL     OW 1893   1.709   2.247   3.243
  624SOL    HW1 1894   1.782   2.316   3.247
  624SOL    HW2 1895   1.737   2.172   3.184
  625SOL     OW 1896   0.672   2.065   3.351
  625SOL    HW1 1897   0.762   2.049   3.311
  625SOL    HW2 1898   0.680   2.070   3.450
  626SOL     OW 1899   0.075   2.207   1.895
  626SOL    HW1 1900  -0.017   2.179   1.866
  626SOL    HW2 1901   0.106   2.284   1.839
  627SOL     OW 1902   0.072   2.028   2.180
  627SOL    HW1 1903   0.055   2.111   2.126
  627SOL    HW2 1904   0.162   1.991   2.158
  628SOL     OW 1905   1.450   3.082   3.495
  628SOL    HW1 1906   1.441   3.072   3.594
  628SOL    HW2 1907   1.546   3.075   3.469
  629SOL     OW 1908   1.674   2.745   3.116
  629SOL    HW1 1909   1.647   2.656   3.079
  629SOL    HW2 1910   1.675   2.813   3.043
  630SOL     OW 1911   1.225   2.187   2.311
  630SOL    HW1 1912   1.290   2.113   2.300
  630SOL    HW2 1913   1.245   2.237   2.395
  631SOL     OW 1914   0.594   2.607   2.514
  631SOL    HW1 1915   0.644   2.692   2.495
  631SOL    HW2 1916   0.506   2.609   2.466
  632SOL     OW 1917   1.730   2.796   3.379
  632SOL    HW1 1918   1.768   2.887   3.394
  632SOL    HW2 1919   1.722   2.779   3.280
  633SOL     OW 1920   0.859   2.818   2.723
  633SOL    HW1 1921   0.913   2.749   2.771
  633SOL    HW2 1922   0.827   2.887   2.789
  634SOL     OW 1923   1.083   2.846   1.949
  634SOL    HW1 1924   1.060   2.899   1.867
  634SOL    HW2 1925   1.164   2.790   1.930
  635SOL     OW 1926   0.079   3.102   2.515
  635SOL    HW1 1927   0.078   3.055   2.603
  635SOL    HW2 1928   0.161   3.074   2.464
  636SOL     OW 1929   1.824   2.054   3.089
  636SOL    HW1 1930   1.820   1.964   3.133
  636SOL    HW2 1931   1.827   2.043   2.990
  637SOL     OW 1932   0.428   2.286   2.382
  637SOL    HW1 1933   0.458   2.214   2.320
  637SOL    HW2 1934   0.389   2.246   2.465
  638SOL     OW 1935   1.705   3.349   2.966
  638SOL    HW1 1936   1.612   3.324   2.939
  638SOL    HW2 1937   1.731   3.299   3.048
  639SOL     OW 1938   0.317   2.409   3.142
  639SOL    HW1 1939   0.355   2.350   3.214
  639SOL    HW2 1940   0.357   2.383   3.054
  640SOL     OW 1941   1.424   2.076   2.974
  640SOL    HW1 1942   1.476   2.011   3.029
  640SOL    HW2 1943   1.375   2.139   3.035
  641SOL     OW 1944   1.001   1.896   3.016
  641SOL    HW1 1945   0.938   1.824   2.985
  641SOL    HW2 1946   1.094   1.860   3.016
  642SOL     OW 1947   0.770   3.192   2.163
  642SOL    HW1 1948   0.724   3.105   2.180
  642SOL    HW2 1949   0.861   3.189   2.204
  643SOL     OW 1950   1.352   1.914   2.030
  643SOL    HW1 1951   1.387   1.873   1.946
  643SOL    HW2 1952   1.262   1.876   2.050
  644SOL     OW 1953   1.300   2.315   2.553
  644SOL    HW1 1954   1.241   2.395   2.557
  644SOL    HW2 1955   1.315   2.280   2.646
  645SOL     OW 1956   1.593   2.083   2.744
  645SOL    HW1 1957   1.509   2.082   2.798
  645SOL    HW2 1958   1.595   2.166   2.688
  646SOL     OW 1959   0.039   2.939   2.162
  646SOL    HW1 1960   0.138   2.928   2.153
  646SOL    HW2 1961  -0.001   2.853   2.194
  647SOL     OW 1962   2.092   0.628   0.113
  647SOL    HW1 1963   1.999   0.626   0.150
  647SOL    HW2 1964   2.093   0.589   0.021
  648SOL     OW 1965   2.087   0.275   0.996
  648SOL    HW1 1966   2.122   0.258   1.088
  648SOL    HW2 1967   1.999   0.230   0.984
  649SOL     OW 1968   1.881   0.368   0.647
  649SOL    HW1 1969   1.799   0.411   0.686
  649SOL    HW2 1970   1.853   0.295   0.584
  650SOL     OW 1971   2.431   1.275   1.165
  650SOL    HW1 1972   2.338   1.268   1.128
  650SOL    HW2 1973   2.442   1.364   1.209
  651SOL     OW 1974   3.417   1.511   0.703
  651SOL    HW1 1975   3.360   1.495   0.784
  651SOL    HW2 1976   3.358   1.521   0.623
  652SOL     OW 1977   2.997   0.703   0.717
  652SOL    HW1 1978   3.054   0.781   0.692
  652SOL    HW2 1979   2.937   0.729   0.793
  653SOL     OW 1980   2.630   1.144   1.023
  653SOL    HW1 1981   2.552   1.161   1.083
  653SOL    HW2 1982   2.664   1.231   0.987
  654SOL     OW 1983   2.712   0.798   1.823
  654SOL    HW1 1984   2.708   0.874   1.888
  654SOL    HW2 1985   2.734   0.834   1.732
  655SOL     OW 1986   2.547   1.012   0.665
  655SOL    HW1 1987   2.616   0.996   0.735
  655SOL    HW2 1988   2.474   1.069   0.703
  656SOL     OW 1989   2.548   1.161   1.803
  656SOL    HW1 1990   2.608   1.240   1.817
  656SOL    HW2 1991   2.462   1.192   1.762
  657SOL     OW 1992   2.197   1.435   1.061
  657SOL    HW1 1993   2.119   1.404   1.008
  657SOL    HW2 1994   2.255   1.493   1.004
  658SOL     OW 1995   2.300   0.392   1.499
  658SOL    HW1 1996   2.382   0.336   1.508
  658SOL    HW2 1997   2.219   0.334   1.503
  659SOL     OW 1998   2.093   1.713   0.483
  659SOL    HW1 1999   2.127   1.790   0.537
  659SOL    HW2 2000   2.137   1.713   0.393
  660SOL     OW 2001   2.989   1.341   1.690
  660SOL    HW1 2002   3.036   1.341   1.778
  660SOL    HW2 2003   2.941   1.254   1.679
  661SOL     OW 2004   2.092   1.434   0.538
  661SOL    HW1 2005   2.066   1.530   0.538
  661SOL    HW2 2006   2.021   1.380   0.583
  662SOL     OW 2007   2.102   1.091   0.886
  662SOL    HW1 2008   2.116   1.007   0.938
  662SOL    HW2 2009   2.047   1.155   0.941
  663SOL     OW 2010   2.482   1.786   1.439
  663SOL    HW1 2011   2.390   1.769   1.474
  663SOL    HW2 2012   2.510   1.878   1.465
  664SOL     OW 2013   2.468   0.964   0.123
  664SOL    HW1 2014   2.475   1.048   0.069
  664SOL    HW2 2015   2.514   0.977   0.211
  665SOL     OW 2016   1.984   0.643   0.563
  665SOL    HW1 2017   1.939   0.555   0.580
  665SOL    HW2 2018   1.983   0.697   0.647
  666SOL     OW 2019   1.975   0.737   1.597
  666SOL    HW1 2020   2.063   0.724   1.642
  666SOL    HW2 2021   1.962   0.834   1.575
  667SOL     OW 2022   2.475   1.365   0.726
  667SOL    HW1 2023   2.426   1.278   0.735
  667SOL    HW2 2024   2.452   1.408   0.639
  668SOL     OW 2025   3.155   1.228   1.423
  668SOL    HW1 2026   3.192   1.155   1.365
  668SOL    HW2 2027   3.207   1.233   1.508
  669SOL     OW 2028   2.671   0.004   0.502
  669SOL    HW1 2029   2.711   0.095   0.493
  669SOL    HW2 2030   2.571   0.012   0.508
  670SOL     OW 2031   2.059   0.976   1.264
  670SOL    HW1 2032   2.148   0.931   1.250
  670SOL    HW2 2033   1.986   0.911   1.245
  671SOL     OW 2034   3.049   1.792   1.616
  671SOL    HW1 2035   3.073   1.852   1.540
  671SOL    HW2 2036   3.056   1.697   1.586
  672SOL     OW 2037   2.179   0.251   1.801
  672SOL    HW1 2038   2.250   0.322   1.807
  672SOL    HW2 2039   2.091   0.290   1.829
  673SOL     OW 2040   2.460   0.729   0.270
  673SOL    HW1 2041   2.484   0.798   0.202
  673SOL    HW2 2042   2.382   0.762   0.324
  674SOL     OW 2043   3.143   0.345   0.944
  674SOL    HW1 2044   3.057   0.295   0.931
  674SOL    HW2 2045   3.205   0.291   1.000
  675SOL     OW 2046   2.669   0.605   1.465
  675SOL    HW1 2047   2.622   0.602   1.554
  675SOL    HW2 2048   2.618   0.550   1.399
  676SOL     OW 2049   3.256   0.469   1.674
  676SOL    HW1 2050   3.236   0.512   1.762
  676SOL    HW2 2051   3.334   0.407   1.683
  677SOL     OW 2052   2.835   0.890   1.572
  677SOL    HW1 2053   2.881   0.806   1.543
  677SOL    HW2 2054   2.779   0.924   1.497
  678SOL     OW 2055   2.853   0.410   1.242
  678SOL    HW1 2056   2.776   0.444   1.296
  678SOL    HW2 2057   2.819   0.359   1.163
  679SOL     OW 2058   2.903   0.701   0.429
  679SOL    HW1 2059   2.929   0.697   0.525
  679SOL    HW2 2060   2.818   0.650   0.415
  680SOL     OW 2061   1.938   0.811   0.789
  680SOL    HW1 2062   2.037   0.799   0.798
  680SOL    HW2 2063   1.914   0.906   0.810
  681SOL     OW 2064   1.992   1.821   1.571
  681SOL    HW1 2065   1.982   1.806   1.670
  681SOL    HW2 2066   1.906   1.857   1.535
  682SOL     OW 2067   2.727   0.348   0.195
  682SOL    HW1 2068   2.786   0.411   0.146
  682SOL    HW2 2069   2.746   0.254   0.166
  683SOL     OW 2070   3.224   1.144   0.545
  683SOL    HW1 2071   3.307   1.115   0.497
  683SOL    HW2 2072   3.175   1.211   0.489
  684SOL     OW 2073   2.412   0.196   0.885
  684SOL    HW1 2074   2.407   0.191   0.985
  684SOL    HW2 2075   2.414   0.292   0.856
  685SOL     OW 2076   2.870   1.456   0.477
  685SOL    HW1 2077   2.824   1.528   0.425
  685SOL    HW2 2078   2.866   1.476   0.575
  686SOL     OW 2079   2.213   1.801   0.853
  686SOL    HW1 2080   2.263   1.715   0.859
  686SOL    HW2 2081   2.278   1.878   0.850
  687SOL     OW 2082   3.089   1.550   1.506
  687SOL    HW1 2083   3.095   1.473   1.570
  687SOL    HW2 2084   3.037   1.524   1.426
  688SOL     OW 2085   2.183   0.943   0.242
  688SOL    HW1 2086   2.265   0.982   0.200
  688SOL    HW2 2087   2.156   0.861   0.193
  689SOL     OW 2088   2.323   1.266   1.727
  689SOL    HW1 2089   2.273   1.267   1.641
  689SOL    HW2 2090   2.260   1.248   1.803
  690SOL     OW 2091   2.973   1.776   0.237
  690SOL    HW1 2092   2.913   1.714   0.287
  690SOL    HW2 2093   3.004   1.732   0.152
  691SOL     OW 2094   2.064   0.285   1.498
  691SOL    HW1 2095   1.984   0.345   1.485
  691SOL    HW2 2096   2.054   0.236   1.584
  692SOL     OW 2097   3.494   1.377   0.081
  692SOL    HW1 2098   3.462   1.471   0.071
  692SOL    HW2 2099   3.418   1.314   0.069
  693SOL     OW 2100   2.326   1.743   0.323
  693SOL    HW1 2101   2.359   1.782   0.409
  693SOL    HW2 2102   2.402   1.736   0.258
  694SOL     OW 2103   2.111   1.785   1.241
  694SOL    HW1 2104   2.168   1.720   1.291
  694SOL    HW2 2105   2.095   1.752   1.148
  695SOL     OW 2106   2.802   1.698   0.904
  695SOL    HW1 2107   2.882   1.641   0.925
  695SOL    HW2 2108   2.753   1.658   0.827
  696SOL     OW 2109   2.244   0.700   0.480
  696SOL    HW1 2110   2.289   0.610   0.477
  696SOL    HW2 2111   2.150   0.689   0.513
  697SOL     OW 2112   2.476   0.122   0.117
  697SOL    HW1 2113   2.574   0.100   0.124
  697SOL    HW2 2114   2.445   0.105   0.024
  698SOL     OW 2115   2.643   0.264   1.749
  698SOL    HW1 2116   2.710   0.203   1.792
  698SOL    HW2 2117   2.570   0.283   1.814
  699SOL     OW 2118   2.750   1.514   1.195
  699SOL    HW1 2119   2.727   1.489   1.101
  699SOL    HW2 2120   2.811   1.445   1.234
  700SOL     OW 2121   2.665   1.402   0.924
  700SOL    HW1 2122   2.755   1.416   0.882
  700SOL    HW2 2123   2.594   1.404   0.853
  701SOL     OW 2124   2.784   0.503   0.899
  701SOL    HW1 2125   2.759   0.494   0.803
  701SOL    HW2 2126   2.832   0.421   0.930
  702SOL     OW 2127   2.401   0.064   0.512
  702SOL    HW1 2128   2.320   0.065   0.570
  702SOL    HW2 2129   2.404   0.147   0.457
  703SOL     OW 2130   2.159   0.035   0.171
  703SOL    HW1 2131   2.208   0.119   0.150
  703SOL    HW2 2132   2.221  -0.030   0.216
  704SOL     OW 2133   2.797   0.236   0.480
  704SOL    HW1 2134   2.749   0.277   0.402
  704SOL    HW2 2135   2.896   0.234   0.461
  705SOL     OW 2136   2.938   0.683   1.464
  705SOL    HW1 2137   2.858   0.622   1.467
  705SOL    HW2 2138   3.019   0.630   1.440
  706SOL     OW 2139   3.089   1.570   0.793
  706SOL    HW1 2140   3.110   1.644   0.728
  706SOL    HW2 2141   3.157   1.570   0.866
  707SOL     OW 2142   2.321   1.152   0.741
  707SOL    HW1 2143   2.250   1.125   0.806
  707SOL    HW2 2144   2.295   1.124   0.648
  708SOL     OW 2145   3.133   1.797   0.591
  708SOL    HW1 2146   3.177   1.861   0.527
  708SOL    HW2 2147   3.083   1.849   0.661
  709SOL     OW 2148   2.894   0.549   0.016
  709SOL    HW1 2149   2.853   0.631  -0.023
  709SOL    HW2 2150   2.958   0.575   0.089
  710SOL     OW 2151   1.940   0.556   1.386
  710SOL    HW1 2152   2.032   0.555   1.345
  710SOL    HW2 2153   1.934   0.630   1.453
  711SOL     OW 2154   2.423   0.222   1.147
  711SOL    HW1 2155   2.461   0.138   1.184
  711SOL    HW2 2156   2.335   0.241   1.191
  712SOL     OW 2157   2.728   0.454   0.642
  712SOL    HW1 2158   2.696   0.526   0.580
  712SOL    HW2 2159   2.752   0.373   0.589
  713SOL     OW 2160   2.879   0.039   0.753
  713SOL    HW1 2161   2.807   0.044   0.684
  713SOL    HW2 2162   2.855  -0.030   0.822
  714SOL     OW 2163   2.350   1.385   0.174
  714SOL    HW1 2164   2.263   1.370   0.221
  714SOL    HW2 2165   2.333   1.411   0.079
  715SOL     OW 2166   2.389   0.256   0.328
  715SOL    HW1 2167   2.416   0.197   0.253
  715SOL    HW2 2168   2.389   0.351   0.297
  716SOL     OW 2169   2.926   1.347   1.340
  716SOL    HW1 2170   2.846   1.324   1.395
  716SOL    HW2 2171   3.009   1.321   1.389
  717SOL     OW 2172   2.973   1.195   1.100
  717SOL    HW1 2173   2.933   1.239   1.181
  717SOL    HW2 2174   2.932   1.232   1.017
  718SOL     OW 2175   2.777   0.089   1.402
  718SOL    HW1 2176   2.802   0.069   1.307
  718SOL    HW2 2177   2.849   0.145   1.444
  719SOL     OW 2178   2.842   1.116   1.719
  719SOL    HW1 2179   2.743   1.122   1.729
  719SOL    HW2 2180   2.865   1.036   1.663
  720SOL     OW 2181   2.567   1.050   0.368
  720SOL    HW1 2182   2.553   1.057   0.467
  720SOL    HW2 2183   2.651   0.999   0.350
  721SOL     OW 2184   2.272   0.813   1.251
  721SOL    HW1 2185   2.358   0.825   1.301
  721SOL    HW2 2186   2.230   0.726   1.278
  722SOL     OW 2187   3.136   0.386   1.262
  722SOL    HW1 2188   3.157   0.460   1.326
  722SOL    HW2 2189   3.047   0.403   1.219
  723SOL     OW 2190   2.229   1.100   0.501
  723SOL    HW1 2191   2.222   1.183   0.445
  723SOL    HW2 2192   2.233   1.020   0.441
  724SOL     OW 2193   2.428   0.537   0.865
  724SOL    HW1 2194   2.440   0.603   0.791
  724SOL    HW2 2195   2.474   0.571   0.948
  725SOL     OW 2196   3.114   1.348   0.388
  725SOL    HW1 2197   3.164   1.425   0.428
  725SOL    HW2 2198   3.019   1.350   0.420
  726SOL     OW 2199   3.134   1.445   1.142
  726SOL    HW1 2200   3.181   1.458   1.229
  726SOL    HW2 2201   3.068   1.371   1.151
  727SOL     OW 2202   2.216   1.510   1.329
  727SOL    HW1 2203   2.195   1.466   1.242
  727SOL    HW2 2204   2.313   1.536   1.332
  728SOL     OW 2205   2.264   0.751   1.598
  728SOL    HW1 2206   2.332   0.806   1.551
  728SOL    HW2 2207   2.304   0.663   1.625
  729SOL     OW 2208   2.875   0.105   1.770
  729SOL    HW1 2209   2.881   0.190   1.718
  729SOL    HW2 2210   2.907   0.029   1.713
  730SOL     OW 2211   2.366   0.050   1.740
  730SOL    HW1 2212   2.324  -0.007   1.670
  730SOL    HW2 2213   2.300   0.119   1.772
  731SOL     OW 2214   2.435   0.870   1.029
  731SOL    HW1 2215   2.479   0.959   1.020
  731SOL    HW2 2216   2.372   0.870   1.106
  732SOL     OW 2217   3.222   0.862   1.045
  732SOL    HW1 2218   3.147   0.862   0.979
  732SOL    HW2 2219   3.259   0.770   1.054
  733SOL     OW 2220   3.071   0.525   0.275
  733SOL    HW1 2221   3.084   0.441   0.329
  733SOL    HW2 2222   3.042   0.599   0.335
  734SOL     OW 2223   2.169   0.213   1.231
  734SOL    HW1 2224   2.146   0.250   1.321
  734SOL    HW2 2225   2.139   0.118   1.225
  735SOL     OW 2226   1.899   1.310   1.282
  735SOL    HW1 2227   1.952   1.261   1.350
  735SOL    HW2 2228   1.921   1.408   1.287
  736SOL     OW 2229   2.594   0.634   1.064
  736SOL    HW1 2230   2.653   0.608   0.988
  736SOL    HW2 2231   2.566   0.730   1.053
  737SOL     OW 2232   2.169   0.063   0.618
  737SOL    HW1 2233   2.158   0.157   0.651
  737SOL    HW2 2234   2.164   0.000   0.695
  738SOL     OW 2235   3.484   0.367   0.374
  738SOL    HW1 2236   3.486   0.291   0.438
  738SOL    HW2 2237   3.436   0.444   0.414
  739SOL     OW 2238   2.885   0.766   0.966
  739SOL    HW1 2239   2.900   0.787   1.062
  739SOL    HW2 2240   2.855   0.671   0.957
  740SOL     OW 2241   2.842   1.573   1.700
  740SOL    HW1 2242   2.822   1.617   1.612
  740SOL    HW2 2243   2.881   1.482   1.684
  741SOL     OW 2244   2.212   0.898   1.804
  741SOL    HW1 2245   2.288   0.942   1.852
  741SOL    HW2 2246   2.247   0.851   1.722
  742SOL     OW 2247   3.165   0.838   0.042
  742SOL    HW1 2248   3.199   0.745   0.057
  742SOL    HW2 2249   3.183   0.865  -0.053
  743SOL     OW 2250   2.930   1.333   0.849
  743SOL    HW1 2251   2.937   1.249   0.794
  743SOL    HW2 2252   2.992   1.402   0.813
  744SOL     OW 2253   2.181   0.810   0.949
  744SOL    HW1 2254   2.274   0.846   0.954
  744SOL    HW2 2255   2.175   0.725   1.001
  745SOL     OW 2256   2.201   0.509   1.006
  745SOL    HW1 2257   2.149   0.426   0.989
  745SOL    HW2 2258   2.278   0.514   0.942
  746SOL     OW 2259   3.000   0.380   1.678
  746SOL    HW1 2260   2.955   0.443   1.742
  746SOL    HW2 2261   3.093   0.411   1.661
  747SOL     OW 2262   3.022   0.207   1.477
  747SOL    HW1 2263   3.022   0.271   1.554
  747SOL    HW2 2264   3.050   0.255   1.394
  748SOL     OW 2265   1.950   1.801   0.927
  748SOL    HW1 2266   1.908   1.715   0.900
  748SOL    HW2 2267   2.044   1.804   0.893
  749SOL     OW 2268   2.366   1.568   0.910
  749SOL    HW1 2269   2.432   1.642   0.919
  749SOL    HW2 2270   2.410   1.489   0.868
  750SOL     OW 2271   2.864   0.796   1.238
  750SOL    HW1 2272   2.905   0.764   1.324
  750SOL    HW2 2273   2.768   0.769   1.235
  751SOL     OW 2274   1.902   0.544   1.114
  751SOL    HW1 2275   1.987   0.511   1.073
  751SOL    HW2 2276   1.915   0.559   1.212
  752SOL     OW 2277   2.051   0.520   1.722
  752SOL    HW1 2278   2.110   0.480   1.652
  752SOL    HW2 2279   1.993   0.591   1.681
  753SOL     OW 2280   2.677   0.572   0.325
  753SOL    HW1 2281   2.684   0.483   0.279
  753SOL    HW2 2282   2.583   0.606   0.317
  754SOL     OW 2283   2.114   1.564   1.744
  754SOL    HW1 2284   2.084   1.621   1.820
  754SOL    HW2 2285   2.107   1.467   1.770
  755SOL     OW 2286   2.533   0.464   1.269
  755SOL    HW1 2287   2.499   0.375   1.239
  755SOL    HW2 2288   2.559   0.518   1.189
  756SOL     OW 2289   2.792   1.678   1.465
  756SOL    HW1 2290   2.768   1.660   1.370
  756SOL    HW2 2291   2.822   1.772   1.475
  757SOL     OW 2292   2.335   0.500   0.191
  757SOL    HW1 2293   2.396   0.580   0.195
  757SOL    HW2 2294   2.240   0.531   0.198
  758SOL     OW 2295   2.021   1.137   1.466
  758SOL    HW1 2296   2.043   1.076   1.542
  758SOL    HW2 2297   2.031   1.088   1.380
  759SOL     OW 2298   3.209   1.059   1.234
  759SOL    HW1 2299   3.233   0.996   1.160
  759SOL    HW2 2300   3.119   1.099   1.216
  760SOL     OW 2301   3.164   0.855   0.309
  760SOL    HW1 2302   3.078   0.824   0.351
  760SOL    HW2 2303   3.160   0.841   0.210
  761SOL     OW 2304   3.114   1.731   1.128
  761SOL    HW1 2305   3.198   1.736   1.074
  761SOL    HW2 2306   3.091   1.635   1.146
  762SOL     OW 2307   1.945   1.258   1.022
  762SOL    HW1 2308   1.940   1.257   1.122
  762SOL    HW2 2309   1.862   1.217   0.984
  763SOL     OW 2310   2.550   1.662   1.716
  763SOL    HW1 2311   2.494   1.743   1.725
  763SOL    HW2 2312   2.602   1.666   1.630
  764SOL     OW 2313   2.765   0.086   0.133
  764SOL    HW1 2314   2.816   0.087   0.047
  764SOL    HW2 2315   2.821   0.044   0.204
  765SOL     OW 2316   3.250   1.573   0.477
  765SOL    HW1 2317   3.317   1.585   0.403
  765SOL    HW2 2318   3.210   1.662   0.500
  766SOL     OW 2319   1.992   1.794   1.851
  766SOL    HW1 2320   1.951   1.720   1.904
  766SOL    HW2 2321   2.056   1.845   1.909
  767SOL     OW 2322   3.142   0.927   0.672
  767SOL    HW1 2323   3.202   0.846   0.674
  767SOL    HW2 2324   3.182   0.996   0.612
  768SOL     OW 2325   2.692   1.273   1.422
  768SOL    HW1 2326   2.687   1.306   1.517
  768SOL    HW2 2327   2.606   1.292   1.376
  769SOL     OW 2328   2.534   1.616   0.154
  769SOL    HW1 2329   2.543   1.626   0.055
  769SOL    HW2 2330   2.494   1.527   0.175
  770SOL     OW 2331   2.125   0.326   0.720
  770SOL    HW1 2332   2.046   0.377   0.686
  770SOL    HW2 2333   2.116   0.311   0.818
  771SOL     OW 2334   3.056   1.612   0.031
  771SOL    HW1 2335   3.062   1.519   0.068
  771SOL    HW2 2336   2.997   1.612  -0.049
  772SOL     OW 2337   2.684   1.002   1.372
  772SOL    HW1 2338   2.724   1.001   1.280
  772SOL    HW2 2339   2.694   1.094   1.412
  773SOL     OW 2340   2.778   0.910   0.291
  773SOL    HW1 2341   2.841   0.948   0.223
  773SOL    HW2 2342   2.818   0.827   0.330
  774SOL     OW 2343   2.234   1.288   1.490
  774SOL    HW1 2344   2.221   1.381   1.456
  774SOL    HW2 2345   2.150   1.236   1.477
  775SOL     OW 2346   2.901   1.098   0.696
  775SOL    HW1 2347   2.831   1.051   0.750
  775SOL    HW2 2348   2.960   1.030   0.653
  776SOL     OW 2349   2.876   0.236   0.971
  776SOL    HW1 2350   2.868   0.200   0.878
  776SOL    HW2 2351   2.874   0.160   1.036
  777SOL     OW 2352   2.452   1.487   0.491
  777SOL    HW1 2353   2.494   1.429   0.421
  777SOL    HW2 2354   2.408   1.566   0.447
  778SOL     OW 2355   2.117   1.348   0.290
  778SOL    HW1 2356   2.021   1.349   0.263
  778SOL    HW2 2357   2.129   1.401   0.374
  779SOL     OW 2358   1.967   1.013   1.726
  779SOL    HW1 2359   1.890   0.980   1.780
  779SOL    HW2 2360   2.052   0.983   1.768
  780SOL     OW 2361   2.534   0.203   1.489
  780SOL    HW1 2362   2.624   0.187   1.449
  780SOL    HW2 2363   2.542   0.208   1.588
  781SOL     OW 2364   1.934   0.166   0.318
  781SOL    HW1 2365   1.917   0.249   0.264
  781SOL    HW2 2366   2.024   0.129   0.296
  782SOL     OW 2367   2.475   0.842   1.431
  782SOL    HW1 2368   2.531   0.923   1.414
  782SOL    HW2 2369   2.534   0.762   1.434
  783SOL     OW 2370   2.578   0.565   1.708
  783SOL    HW1 2371   2.597   0.630   1.782
  783SOL    HW2 2372   2.638   0.485   1.717
  784SOL     OW 2373   3.312   1.220   1.633
  784SOL    HW1 2374   3.303   1.210   1.732
  784SOL    HW2 2375   3.408   1.213   1.607
  785SOL     OW 2376   2.252   1.741   1.560
  785SOL    HW1 2377   2.161   1.782   1.558
  785SOL    HW2 2378   2.245   1.647   1.592
  786SOL     OW 2379   3.087   0.325   0.449
  786SOL    HW1 2380   3.152   0.251   0.438
  786SOL    HW2 2381   3.107   0.375   0.533
  787SOL     OW 2382   2.456   0.745   0.652
  787SOL    HW1 2383   2.506   0.830   0.633
  787SOL    HW2 2384   2.368   0.747   0.604
  788SOL     OW 2385   2.721   1.374   0.016
  788SOL    HW1 2386   2.675   1.389   0.104
  788SOL    HW2 2387   2.765   1.459  -0.014
  789SOL     OW 2388   2.523   1.790   0.953
  789SOL    HW1 2389   2.477   1.878   0.940
  789SOL    HW2 2390   2.622   1.802   0.946
  790SOL     OW 2391   2.721   0.956   0.861
  790SOL    HW1 2392   2.775   0.887   0.909
  790SOL    HW2 2393   2.689   1.025   0.927
  791SOL     OW 2394   2.945   0.984   0.087
  791SOL    HW1 2395   2.922   1.037   0.005
  791SOL    HW2 2396   3.026   0.928   0.068
  792SOL     OW 2397   2.083   1.314   1.844
  792SOL    HW1 2398   2.018   1.241   1.823
  792SOL    HW2 2399   2.087   1.328   1.942
  793SOL     OW 2400   1.941   1.240   0.653
  793SOL    HW1 2401   1.940   1.193   0.741
  793SOL    HW2 2402   2.023   1.212   0.602
  794SOL     OW 2403   2.534   1.391   1.624
  794SOL    HW1 2404   2.456   1.341   1.662
  794SOL    HW2 2405   2.531   1.486   1.655
  795SOL     OW 2406   2.290   0.424   0.520
  795SOL    HW1 2407   2.320   0.352   0.458
  795SOL    HW2 2408   2.251   0.384   0.603
  796SOL     OW 2409   2.179   0.547   1.280
  796SOL    HW1 2410   2.217   0.488   1.352
  796SOL    HW2 2411   2.219   0.521   1.192
  797SOL     OW 2412   2.674   1.586   0.687
  797SOL    HW1 2413   2.706   1.596   0.593
  797SOL    HW2 2414   2.595   1.524   0.689
  798SOL     OW 2415   3.286   0.214   1.112
  798SOL    HW1 2416   3.338   0.149   1.167
  798SOL    HW2 2417   3.237   0.277   1.173
  799SOL     OW 2418   2.863   0.034   1.154
  799SOL    HW1 2419   2.800  -0.038   1.123
  799SOL    HW2 2420   2.956  -0.002   1.154
  800SOL     OW 2421   2.632   1.330   0.301
  800SOL    HW1 2422   2.586   1.243   0.318
  800SOL    HW2 2423   2.723   1.327   0.342
  801SOL     OW 2424   2.480   1.567   1.284
  801SOL    HW1 2425   2.475   1.649   1.341
  801SOL    HW2 2426   2.569   1.564   1.239
  802SOL     OW 2427   1.901   1.077   0.300
  802SOL    HW1 2428   2.000   1.066   0.291
  802SOL    HW2 2429   1.861   0.991   0.332
  803SOL     OW 2430   2.737   1.646   0.337
  803SOL    HW1 2431   2.660   1.611   0.283
  803SOL    HW2 2432   2.705   1.717   0.399
  804SOL     OW 2433   2.092   0.628   1.975
  804SOL    HW1 2434   1.999   0.626   2.012
  804SOL    HW2 2435   2.093   0.589   1.883
  805SOL     OW 2436   2.087   0.275   2.858
  805SOL    HW1 2437   2.122   0.258   2.950
  805SOL    HW2 2438   1.999   0.230   2.846
  806SOL     OW 2439   1.881   0.368   2.509
  806SOL    HW1 2440   1.799   0.411   2.548
  806SOL    HW2 2441   1.853   0.295   2.446
  807SOL     OW 2442   2.431   1.275   3.027
  807SOL    HW1 2443   2.338   1.268   2.990
  807SOL    HW2 2444   2.442   1.364   3.071
  808SOL     OW 2445   3.417   1.511   2.565
  808SOL    HW1 2446   3.360   1.495   2.646
  808SOL    HW2 2447   3.358   1.521   2.485
  809SOL     OW 2448   2.997   0.703   2.579
  809SOL    HW1 2449   3.054   0.781   2.554
  809SOL    HW2 2450   2.937   0.729   2.655
  810SOL     OW 2451   2.630   1.144   2.885
  810SOL    HW1 2452   2.552   1.161   2.945
  810SOL    HW2 2453   2.664   1.231   2.849
  811SOL     OW 2454   2.547   1.012   2.527
  811SOL    HW1 2455   2.616   0.996   2.597
  811SOL    HW2 2456   2.474   1.069   2.565
  812SOL     OW 2457   2.197   1.435   2.923
  812SOL    HW1 2458   2.119   1.404   2.870
  812SOL    HW2 2459   2.255   1.493   2.866
  813SOL     OW 2460   2.093   1.713   2.345
  813SOL    HW1 2461   2.127   1.790   2.399
  813SOL    HW2 2462   2.137   1.713   2.255
  814SOL     OW 2463   2.092   1.434   2.400
  814SOL    HW1 2464   2.066   1.530   2.400
  814SOL    HW2 2465   2.021   1.380   2.445
  815SOL     OW 2466   2.102   1.091   2.748
  815SOL    HW1 2467   2.116   1.007   2.800
  815SOL    HW2 2468   2.047   1.155   2.803
  816SOL     OW 2469   2.482   1.786   3.301
  816SOL    HW1 2470   2.390   1.769   3.336
  816SOL    HW2 2471   2.510   1.878   3.327
  817SOL     OW 2472   2.468   0.964   1.985
  817SOL    HW1 2473   2.475   1.048   1.931
  817SOL    HW2 2474   2.514   0.977   2.073
  818SOL     OW 2475   1.984   0.643   2.425
  818SOL    HW1 2476   1.939   0.555   2.442
  818SOL    HW2 2477   1.983   0.697   2.509
  819SOL     OW 2478   1.889   1.596   1.979
  819SOL    HW1 2479   1.870   1.500   2.000
  819SOL    HW2 2480   1.856   1.654   2.054
  820SOL     OW 2481   2.475   1.365   2.588
  820SOL    HW1 2482   2.426   1.278   2.597
  820SOL    HW2 2483   2.452   1.408   2.501
  821SOL     OW 2484   2.671   0.004   2.364
  821SOL    HW1 2485   2.711   0.095   2.355
  821SOL    HW2 2486   2.571   0.012   2.370
  822SOL     OW 2487   2.059   0.976   3.126
  822SOL    HW1 2488   2.148   0.931   3.112
  822SOL    HW2 2489   1.986   0.911   3.107
  823SOL     OW 2490   2.460   0.729   2.132
  823SOL    HW1 2491   2.484   0.798   2.064
  823SOL    HW2 2492   2.382   0.762   2.186
  824SOL     OW 2493   3.143   0.345   2.806
  824SOL    HW1 2494   3.057   0.295   2.793
  824SOL    HW2 2495   3.205   0.291   2.862
  825SOL     OW 2496   2.669   0.605   3.327
  825SOL    HW1 2497   2.622   0.602   3.416
  825SOL    HW2 2498   2.618   0.550   3.261
  826SOL     OW 2499   2.853   0.410   3.104
  826SOL    HW1 2500   2.776   0.444   3.158
  826SOL    HW2 2501   2.819   0.359   3.025
  827SOL     OW 2502   2.903   0.701   2.291
  827SOL    HW1 2503   2.929   0.697   2.387
  827SOL    HW2 2504   2.818   0.650   2.277
  828SOL     OW 2505   1.938   0.811   2.651
  828SOL    HW1 2506   2.037   0.799   2.660
  828SOL    HW2 2507   1.914   0.906   2.672
  829SOL     OW 2508   1.992   1.821   3.433
  829SOL    HW1 2509   1.982   1.806   3.532
  829SOL    HW2 2510   1.906   1.857   3.397
  830SOL     OW 2511   2.727   0.348   2.057
  830SOL    HW1 2512   2.786   0.411   2.008
  830SOL    HW2 2513   2.746   0.254   2.028
  831SOL     OW 2514   3.224   1.144   2.407
  831SOL    HW1 2515   3.307   1.115   2.359
  831SOL    HW2 2516   3.175   1.211   2.351
  832SOL     OW 2517   2.412   0.196   2.747
  832SOL    HW1 2518   2.407   0.191   2.847
  832SOL    HW2 2519   2.414   0.292   2.718
  833SOL     OW 2520   2.870   1.456   2.339
  833SOL    HW1 2521   2.824   1.528   2.287
  833SOL    HW2 2522   2.866   1.476   2.437
  834SOL     OW 2523   2.213   1.801   2.715
  834SOL    HW1 2524   2.263   1.715   2.721
  834SOL    HW2 2525   2.278   1.878   2.712
  835SOL     OW 2526   2.183   0.943   2.104
  835SOL    HW1 2527   2.265   0.982   2.062
  835SOL    HW2 2528   2.156   0.861   2.055
  836SOL     OW 2529   2.973   1.776   2.099
  836SOL    HW1 2530   2.913   1.714   2.149
  836SOL    HW2 2531   3.004   1.732   2.014
  837SOL     OW 2532   2.064   0.285   3.360
  837SOL    HW1 2533   1.984   0.345   3.347
  837SOL    HW2 2534   2.054   0.236   3.446
  838SOL     OW 2535   2.326   1.743   2.185
  838SOL    HW1 2536   2.359   1.782   2.271
  838SOL    HW2 2537   2.402   1.736   2.120
  839SOL     OW 2538   2.111   1.785   3.103
  839SOL    HW1 2539   2.168   1.720   3.153
  839SOL    HW2 2540   2.095   1.752   3.010
  840SOL     OW 2541   2.802   1.698   2.766
  840SOL    HW1 2542   2.882   1.641   2.787
  840SOL    HW2 2543   2.753   1.658   2.689
  841SOL     OW 2544   2.244   0.700   2.342
  841SOL    HW1 2545   2.289   0.610   2.339
  841SOL    HW2 2546   2.150   0.689   2.375
  842SOL     OW 2547   2.476   0.122   1.979
  842SOL    HW1 2548   2.574   0.100   1.986
  842SOL    HW2 2549   2.445   0.105   1.886
  843SOL     OW 2550   2.750   1.514   3.057
  843SOL    HW1 2551   2.727   1.489   2.963
  843SOL    HW2 2552   2.811   1.445   3.096
  844SOL     OW 2553   2.665   1.402   2.786
  844SOL    HW1 2554   2.755   1.416   2.744
  844SOL    HW2 2555   2.594   1.404   2.715
  845SOL     OW 2556   2.784   0.503   2.761
  845SOL    HW1 2557   2.759   0.494   2.665
  845SOL    HW2 2558   2.832   0.421   2.792
  846SOL     OW 2559   2.401   0.064   2.374
  846SOL    HW1 2560   2.320   0.065   2.432
  846SOL    HW2 2561   2.404   0.147   2.319
  847SOL     OW 2562   3.296   1.188   1.903
  847SOL    HW1 2563   3.328   1.112   1.960
  847SOL    HW2 2564   3.204   1.215   1.933
  848SOL     OW 2565   2.159   0.035   2.033
  848SOL    HW1 2566   2.208   0.119   2.012
  848SOL    HW2 2567   2.221  -0.030   2.078
  849SOL     OW 2568   2.797   0.236   2.342
  849SOL    HW1 2569   2.749   0.277   2.264
  849SOL    HW2 2570   2.896   0.234   2.323
  850SOL     OW 2571   3.089   1.570   2.655
  850SOL    HW1 2572   3.110   1.644   2.590
  850SOL    HW2 2573   3.157   1.570   2.728
  851SOL     OW 2574   2.321   1.152   2.603
  851SOL    HW1 2575   2.250   1.125   2.668
  851SOL    HW2 2576   2.295   1.124   2.510
  852SOL     OW 2577   3.133   1.797   2.453
  852SOL    HW1 2578   3.177   1.861   2.389
  852SOL    HW2 2579   3.083   1.849   2.523
  853SOL     OW 2580   2.894   0.549   1.878
  853SOL    HW1 2581   2.853   0.631   1.839
  853SOL    HW2 2582   2.958   0.575   1.951
  854SOL     OW 2583   2.423   0.222   3.009
  854SOL    HW1 2584   2.461   0.138   3.046
  854SOL    HW2 2585   2.335   0.241   3.053
  855SOL     OW 2586   2.728   0.454   2.504
  855SOL    HW1 2587   2.696   0.526   2.442
  855SOL    HW2 2588   2.752   0.373   2.451
  856SOL     OW 2589   2.879   0.039   2.615
  856SOL    HW1 2590   2.807   0.044   2.546
  856SOL    HW2 2591   2.855  -0.030   2.684
  857SOL     OW 2592   2.350   1.385   2.036
  857SOL    HW1 2593   2.263   1.370   2.083
  857SOL    HW2 2594   2.333   1.411   1.941
  858SOL     OW 2595   2.389   0.256   2.190
  858SOL    HW1 2596   2.416   0.197   2.115
  858SOL    HW2 2597   2.389   0.351   2.159
  859SOL     OW 2598   3.454   1.629   3.487
  859SOL    HW1 2599   3.481   1.663   3.397
  859SOL    HW2 2600   3.533   1.591   3.533
  860SOL     OW 2601   2.973   1.195   2.962
  860SOL    HW1 2602   2.933   1.239   3.043
  860SOL    HW2 2603   2.932   1.232   2.879
  861SOL     OW 2604   2.567   1.050   2.230
  861SOL    HW1 2605   2.553   1.057   2.329
  861SOL    HW2 2606   2.651   0.999   2.212
  862SOL     OW 2607   2.272   0.813   3.113
  862SOL    HW1 2608   2.358   0.825   3.163
  862SOL    HW2 2609   2.230   0.726   3.140
  863SOL     OW 2610   3.136   0.386   3.124
  863SOL    HW1 2611   3.157   0.460   3.188
  863SOL    HW2 2612   3.047   0.403   3.081
  864SOL     OW 2613   1.926   1.564   3.193
  864SOL    HW1 2614   1.880   1.646   3.159
  864SOL    HW2 2615   2.024   1.583   3.202
  865SOL     OW 2616   2.229   1.100   2.363
  865SOL    HW1 2617   2.222   1.183   2.307
  865SOL    HW2 2618   2.233   1.020   2.303
  866SOL     OW 2619   2.428   0.537   2.727
  866SOL    HW1 2620   2.440   0.603   2.653
  866SOL    HW2 2621   2.474   0.571   2.810
  867SOL     OW 2622   3.114   1.348   2.250
  867SOL    HW1 2623   3.164   1.425   2.290
  867SOL    HW2 2624   3.019   1.350   2.282
  868SOL     OW 2625   3.134   1.445   3.004
  868SOL    HW1 2626   3.181   1.458   3.091
  868SOL    HW2 2627   3.068   1.371   3.013
  869SOL     OW 2628   2.216   1.510   3.191
  869SOL    HW1 2629   2.195   1.466   3.104
  869SOL    HW2 2630   2.313   1.536   3.194
  870SOL     OW 2631   2.435   0.870   2.891
  870SOL    HW1 2632   2.479   0.959   2.882
  870SOL    HW2 2633   2.372   0.870   2.968
  871SOL     OW 2634   3.222   0.862   2.907
  871SOL    HW1 2635   3.147   0.862   2.841
  871SOL    HW2 2636   3.259   0.770   2.916
  872SOL     OW 2637   3.071   0.525   2.137
  872SOL    HW1 2638   3.084   0.441   2.191
  872SOL    HW2 2639   3.042   0.599   2.197
  873SOL     OW 2640   2.169   0.213   3.093
  873SOL    HW1 2641   2.146   0.250   3.183
  873SOL    HW2 2642   2.139   0.118   3.087
  874SOL     OW 2643   1.899   1.310   3.144
  874SOL    HW1 2644   1.952   1.261   3.212
  874SOL    HW2 2645   1.921   1.408   3.149
  875SOL     OW 2646   2.594   0.634   2.926
  875SOL    HW1 2647   2.653   0.608   2.850
  875SOL    HW2 2648   2.566   0.730   2.915
  876SOL     OW 2649   2.169   0.063   2.480
  876SOL    HW1 2650   2.158   0.157   2.513
  876SOL    HW2 2651   2.164   0.000   2.557
  877SOL     OW 2652   3.484   0.367   2.236
  877SOL    HW1 2653   3.486   0.291   2.300
  877SOL    HW2 2654   3.436   0.444   2.276
  878SOL     OW 2655   2.885   0.766   2.828
  878SOL    HW1 2656   2.900   0.787   2.924
  878SOL    HW2 2657   2.855   0.671   2.819
  879SOL     OW 2658   3.165   0.838   1.904
  879SOL    HW1 2659   3.199   0.745   1.919
  879SOL    HW2 2660   3.183   0.865   1.809
  880SOL     OW 2661   2.930   1.333   2.711
  880SOL    HW1 2662   2.937   1.249   2.656
  880SOL    HW2 2663   2.992   1.402   2.675
  881SOL     OW 2664   2.181   0.810   2.811
  881SOL    HW1 2665   2.274   0.846   2.816
  881SOL    HW2 2666   2.175   0.725   2.863
  882SOL     OW 2667   2.201   0.509   2.868
  882SOL    HW1 2668   2.149   0.426   2.851
  882SOL    HW2 2669   2.278   0.514   2.804
  883SOL     OW 2670   3.022   0.207   3.339
  883SOL    HW1 2671   3.022   0.271   3.416
  883SOL    HW2 2672   3.050   0.255   3.256
  884SOL     OW 2673   1.870   1.326   2.062
  884SOL    HW1 2674   1.777   1.347   2.031
  884SOL    HW2 2675   1.880   1.227   2.075
  885SOL     OW 2676   1.950   1.801   2.789
  885SOL    HW1 2677   1.908   1.715   2.762
  885SOL    HW2 2678   2.044   1.804   2.755
  886SOL     OW 2679   2.366   1.568   2.772
  886SOL    HW1 2680   2.432   1.642   2.781
  886SOL    HW2 2681   2.410   1.489   2.730
  887SOL     OW 2682   2.864   0.796   3.100
  887SOL    HW1 2683   2.905   0.764   3.186
  887SOL    HW2 2684   2.768   0.769   3.097
  888SOL     OW 2685   1.902   0.544   2.976
  888SOL    HW1 2686   1.987   0.511   2.935
  888SOL    HW2 2687   1.915   0.559   3.074
  889SOL     OW 2688   2.677   0.572   2.187
  889SOL    HW1 2689   2.684   0.483   2.141
  889SOL    HW2 2690   2.583   0.606   2.179
  890SOL     OW 2691   2.533   0.464   3.131
  890SOL    HW1 2692   2.499   0.375   3.101
  890SOL    HW2 2693   2.559   0.518   3.051
  891SOL     OW 2694   2.792   1.678   3.327
  891SOL    HW1 2695   2.768   1.660   3.232
  891SOL    HW2 2696   2.822   1.772   3.337
  892SOL     OW 2697   2.335   0.500   2.053
  892SOL    HW1 2698   2.396   0.580   2.057
  892SOL    HW2 2699   2.240   0.531   2.060
  893SOL     OW 2700   2.021   1.137   3.328
  893SOL    HW1 2701   2.043   1.076   3.404
  893SOL    HW2 2702   2.031   1.088   3.242
  894SOL     OW 2703   3.209   1.059   3.096
  894SOL    HW1 2704   3.233   0.996   3.022
  894SOL    HW2 2705   3.119   1.099   3.078
  895SOL     OW 2706   3.164   0.855   2.171
  895SOL    HW1 2707   3.078   0.824   2.213
  895SOL    HW2 2708   3.160   0.841   2.072
  896SOL     OW 2709   3.114   1.731   2.990
  896SOL    HW1 2710   3.198   1.736   2.936
  896SOL    HW2 2711   3.091   1.635   3.008
  897SOL     OW 2712   1.945   1.258   2.884
  897SOL    HW1 2713   1.940   1.257   2.984
  897SOL    HW2 2714   1.862   1.217   2.846
  898SOL     OW 2715   3.250   1.573   2.339
  898SOL    HW1 2716   3.317   1.585   2.265
  898SOL    HW2 2717   3.210   1.662   2.362
  899SOL     OW 2718   3.142   0.927   2.534
  899SOL    HW1 2719   3.202   0.846   2.536
  899SOL    HW2 2720   3.182   0.996   2.474
  900SOL     OW 2721   2.534   1.616   2.016
  900SOL    HW1 2722   2.543   1.626   1.917
  900SOL    HW2 2723   2.494   1.527   2.037
  901SOL     OW 2724   2.125   0.326   2.582
  901SOL    HW1 2725   2.046   0.377   2.548
  901SOL    HW2 2726   2.116   0.311   2.680
  902SOL     OW 2727   3.056   1.612   1.893
  902SOL    HW1 2728   3.062   1.519   1.930
  902SOL    HW2 2729   2.997   1.612   1.813
  903SOL     OW 2730   2.684   1.002   3.234
  903SOL    HW1 2731   2.724   1.001   3.142
  903SOL    HW2 2732   2.694   1.094   3.274
  904SOL     OW 2733   2.778   0.910   2.153
  904SOL    HW1 2734   2.841   0.948   2.085
  904SOL    HW2 2735   2.818   0.827   2.192
  905SOL     OW 2736   2.901   1.098   2.558
  905SOL    HW1 2737   2.831   1.051   2.612
  905SOL    HW2 2738   2.960   1.030   2.515
  906SOL     OW 2739   2.876   0.236   2.833
  906SOL    HW1 2740   2.868   0.200   2.740
  906SOL    HW2 2741   2.874   0.160   2.898
  907SOL     OW 2742   2.452   1.487   2.353
  907SOL    HW1 2743   2.494   1.429   2.283
  907SOL    HW2 2744   2.408   1.566   2.309
  908SOL     OW 2745   2.117   1.348   2.152
  908SOL    HW1 2746   2.021   1.349   2.125
  908SOL    HW2 2747   2.129   1.401   2.236
  909SOL     OW 2748   1.937   0.345   1.895
  909SOL    HW1 2749   1.845   0.317   1.866
  909SOL    HW2 2750   1.968   0.422   1.839
  910SOL     OW 2751   1.934   0.166   2.180
  910SOL    HW1 2752   1.917   0.249   2.126
  910SOL    HW2 2753   2.024   0.129   2.158
  911SOL     OW 2754   2.252   1.741   3.422
  911SOL    HW1 2755   2.161   1.782   3.420
  911SOL    HW2 2756   2.245   1.647   3.454
  912SOL     OW 2757   3.087   0.325   2.311
  912SOL    HW1 2758   3.152   0.251   2.300
  912SOL    HW2 2759   3.107   0.375   2.395
  913SOL     OW 2760   2.456   0.745   2.514
  913SOL    HW1 2761   2.506   0.830   2.495
  913SOL    HW2 2762   2.368   0.747   2.466
  914SOL     OW 2763   2.721   1.374   1.878
  914SOL    HW1 2764   2.675   1.389   1.966
  914SOL    HW2 2765   2.765   1.459   1.848
  915SOL     OW 2766   2.523   1.790   2.815
  915SOL    HW1 2767   2.477   1.878   2.802
  915SOL    HW2 2768   2.622   1.802   2.808
  916SOL     OW 2769   2.721   0.956   2.723
  916SOL    HW1 2770   2.775   0.887   2.771
  916SOL    HW2 2771   2.689   1.025   2.789
  917SOL     OW 2772   2.945   0.984   1.949
  917SOL    HW1 2773   2.922   1.037   1.867
  917SOL    HW2 2774   3.026   0.928   1.930
  918SOL     OW 2775   1.941   1.240   2.515
  918SOL    HW1 2776   1.940   1.193   2.603
  918SOL    HW2 2777   2.023   1.212   2.464
  919SOL     OW 2778   2.290   0.424   2.382
  919SOL    HW1 2779   2.320   0.352   2.320
  919SOL    HW2 2780   2.251   0.384   2.465
  920SOL     OW 2781   2.179   0.547   3.142
  920SOL    HW1 2782   2.217   0.488   3.214
  920SOL    HW2 2783   2.219   0.521   3.054
  921SOL     OW 2784   2.674   1.586   2.549
  921SOL    HW1 2785   2.706   1.596   2.455
  921SOL    HW2 2786   2.595   1.524   2.551
  922SOL     OW 2787   3.286   0.214   2.974
  922SOL    HW1 2788   3.338   0.149   3.029
  922SOL    HW2 2789   3.237   0.277   3.035
  923SOL     OW 2790   2.863   0.034   3.016
  923SOL    HW1 2791   2.800  -0.038   2.985
  923SOL    HW2 2792   2.956  -0.002   3.016
  924SOL     OW 2793   2.632   1.330   2.163
  924SOL    HW1 2794   2.586   1.243   2.180
  924SOL    HW2 2795   2.723   1.327   2.204
  925SOL     OW 2796   2.480   1.567   3.146
  925SOL    HW1 2797   2.475   1.649   3.203
  925SOL    HW2 2798   2.569   1.564   3.101
  926SOL     OW 2799   1.901   1.077   2.162
  926SOL    HW1 2800   2.000   1.066   2.153
  926SOL    HW2 2801   1.861   0.991   2.194
  927SOL     OW 2802   2.737   1.646   2.199
  927SOL    HW1 2803   2.660   1.611   2.145
  927SOL    HW2 2804   2.705   1.717   2.261
  928SOL     OW 2805   2.092   2.490   0.113
  928SOL    HW1 2806   1.999   2.488   0.150
  928SOL    HW2 2807   2.093   2.451   0.021
  929SOL     OW 2808   2.087   2.137   0.996
  929SOL    HW1 2809   2.122   2.120   1.088
  929SOL    HW2 2810   1.999   2.092   0.984
  930SOL     OW 2811   1.881   2.230   0.647
  930SOL    HW1 2812   1.799   2.273   0.686
  930SOL    HW2 2813   1.853   2.157   0.584
  931SOL     OW 2814   2.431   3.137   1.165
  931SOL    HW1 2815   2.338   3.130   1.128
  931SOL    HW2 2816   2.442   3.226   1.209
  932SOL     OW 2817   3.417   3.373   0.703
  932SOL    HW1 2818   3.360   3.357   0.784
  932SOL    HW2 2819   3.358   3.383   0.623
  933SOL     OW 2820   2.997   2.565   0.717
  933SOL    HW1 2821   3.054   2.643   0.692
  933SOL    HW2 2822   2.937   2.591   0.793
  934SOL     OW 2823   2.630   3.006   1.023
  934SOL    HW1 2824   2.552   3.023   1.083
  934SOL    HW2 2825   2.664   3.093   0.987
  935SOL     OW 2826   2.712   2.660   1.823
  935SOL    HW1 2827   2.708   2.736   1.888
  935SOL    HW2 2828   2.734   2.696   1.732
  936SOL     OW 2829   2.547   2.874   0.665
  936SOL    HW1 2830   2.616   2.858   0.735
  936SOL    HW2 2831   2.474   2.931   0.703
  937SOL     OW 2832   2.548   3.023   1.803
  937SOL    HW1 2833   2.608   3.102   1.817
  937SOL    HW2 2834   2.462   3.054   1.762
  938SOL     OW 2835   2.197   3.297   1.061
  938SOL    HW1 2836   2.119   3.266   1.008
  938SOL    HW2 2837   2.255   3.355   1.004
  939SOL     OW 2838   2.300   2.254   1.499
  939SOL    HW1 2839   2.382   2.198   1.508
  939SOL    HW2 2840   2.219   2.196   1.503
  940SOL     OW 2841   2.102   2.953   0.886
  940SOL    HW1 2842   2.116   2.869   0.938
  940SOL    HW2 2843   2.047   3.017   0.941
  941SOL     OW 2844   2.468   2.826   0.123
  941SOL    HW1 2845   2.475   2.910   0.069
  941SOL    HW2 2846   2.514   2.839   0.211
  942SOL     OW 2847   1.984   2.505   0.563
  942SOL    HW1 2848   1.939   2.417   0.580
  942SOL    HW2 2849   1.983   2.559   0.647
  943SOL     OW 2850   1.975   2.599   1.597
  943SOL    HW1 2851   2.063   2.586   1.642
  943SOL    HW2 2852   1.962   2.696   1.575
  944SOL     OW 2853   3.155   3.090   1.423
  944SOL    HW1 2854   3.192   3.017   1.365
  944SOL    HW2 2855   3.207   3.095   1.508
  945SOL     OW 2856   2.671   1.866   0.502
  945SOL    HW1 2857   2.711   1.957   0.493
  945SOL    HW2 2858   2.571   1.874   0.508
  946SOL     OW 2859   2.059   2.838   1.264
  946SOL    HW1 2860   2.148   2.793   1.250
  946SOL    HW2 2861   1.986   2.773   1.245
  947SOL     OW 2862   2.179   2.113   1.801
  947SOL    HW1 2863   2.250   2.184   1.807
  947SOL    HW2 2864   2.091   2.152   1.829
  948SOL     OW 2865   2.460   2.591   0.270
  948SOL    HW1 2866   2.484   2.660   0.202
  948SOL    HW2 2867   2.382   2.624   0.324
  949SOL     OW 2868   3.143   2.207   0.944
  949SOL    HW1 2869   3.057   2.157   0.931
  949SOL    HW2 2870   3.205   2.153   1.000
  950SOL     OW 2871   2.669   2.467   1.465
  950SOL    HW1 2872   2.622   2.464   1.554
  950SOL    HW2 2873   2.618   2.412   1.399
  951SOL     OW 2874   3.256   2.331   1.674
  951SOL    HW1 2875   3.236   2.374   1.762
  951SOL    HW2 2876   3.334   2.269   1.683
  952SOL     OW 2877   2.835   2.752   1.572
  952SOL    HW1 2878   2.881   2.668   1.543
  952SOL    HW2 2879   2.779   2.786   1.497
  953SOL     OW 2880   2.853   2.272   1.242
  953SOL    HW1 2881   2.776   2.306   1.296
  953SOL    HW2 2882   2.819   2.221   1.163
  954SOL     OW 2883   2.903   2.563   0.429
  954SOL    HW1 2884   2.929   2.559   0.525
  954SOL    HW2 2885   2.818   2.512   0.415
  955SOL     OW 2886   1.938   2.673   0.789
  955SOL    HW1 2887   2.037   2.661   0.798
  955SOL    HW2 2888   1.914   2.768   0.810
  956SOL     OW 2889   2.727   2.210   0.195
  956SOL    HW1 2890   2.786   2.273   0.146
  956SOL    HW2 2891   2.746   2.116   0.166
  957SOL     OW 2892   3.224   3.006   0.545
  957SOL    HW1 2893   3.307   2.977   0.497
  957SOL    HW2 2894   3.175   3.073   0.489
  958SOL     OW 2895   2.412   2.058   0.885
  958SOL    HW1 2896   2.407   2.053   0.985
  958SOL    HW2 2897   2.414   2.154   0.856
  959SOL     OW 2898   2.183   2.805   0.242
  959SOL    HW1 2899   2.265   2.844   0.200
  959SOL    HW2 2900   2.156   2.723   0.193
  960SOL     OW 2901   2.064   2.147   1.498
  960SOL    HW1 2902   1.984   2.207   1.485
  960SOL    HW2 2903   2.054   2.098   1.584
  961SOL     OW 2904   2.244   2.562   0.480
  961SOL    HW1 2905   2.289   2.472   0.477
  961SOL    HW2 2906   2.150   2.551   0.513
  962SOL     OW 2907   2.643   2.126   1.749
  962SOL    HW1 2908   2.710   2.065   1.792
  962SOL    HW2 2909   2.570   2.145   1.814
  963SOL     OW 2910   2.784   2.365   0.899
  963SOL    HW1 2911   2.759   2.356   0.803
  963SOL    HW2 2912   2.832   2.283   0.930
  964SOL     OW 2913   2.401   1.926   0.512
  964SOL    HW1 2914   2.320   1.927   0.570
  964SOL    HW2 2915   2.404   2.009   0.457
  965SOL     OW 2916   2.797   2.098   0.480
  965SOL    HW1 2917   2.749   2.139   0.402
  965SOL    HW2 2918   2.896   2.096   0.461
  966SOL     OW 2919   2.938   2.545   1.464
  966SOL    HW1 2920   2.858   2.484   1.467
  966SOL    HW2 2921   3.019   2.492   1.440
  967SOL     OW 2922   3.089   3.432   0.793
  967SOL    HW1 2923   3.110   3.506   0.728
  967SOL    HW2 2924   3.157   3.432   0.866
  968SOL     OW 2925   2.321   3.014   0.741
  968SOL    HW1 2926   2.250   2.987   0.806
  968SOL    HW2 2927   2.295   2.986   0.648
  969SOL     OW 2928   2.894   2.411   0.016
  969SOL    HW1 2929   2.853   2.493  -0.023
  969SOL    HW2 2930   2.958   2.437   0.089
  970SOL     OW 2931   1.940   2.418   1.386
  970SOL    HW1 2932   2.032   2.417   1.345
  970SOL    HW2 2933   1.934   2.492   1.453
  971SOL     OW 2934   2.423   2.084   1.147
  971SOL    HW1 2935   2.461   2.000   1.184
  971SOL    HW2 2936   2.335   2.103   1.191
  972SOL     OW 2937   2.728   2.316   0.642
  972SOL    HW1 2938   2.696   2.388   0.580
  972SOL    HW2 2939   2.752   2.235   0.589
  973SOL     OW 2940   2.879   1.901   0.753
  973SOL    HW1 2941   2.807   1.906   0.684
  973SOL    HW2 2942   2.855   1.832   0.822
  974SOL     OW 2943   2.389   2.118   0.328
  974SOL    HW1 2944   2.416   2.059   0.253
  974SOL    HW2 2945   2.389   2.213   0.297
  975SOL     OW 2946   2.926   3.209   1.340
  975SOL    HW1 2947   2.846   3.186   1.395
  975SOL    HW2 2948   3.009   3.183   1.389
  976SOL     OW 2949   2.973   3.057   1.100
  976SOL    HW1 2950   2.933   3.101   1.181
  976SOL    HW2 2951   2.932   3.094   1.017
  977SOL     OW 2952   2.777   1.951   1.402
  977SOL    HW1 2953   2.802   1.931   1.307
  977SOL    HW2 2954   2.849   2.007   1.444
  978SOL     OW 2955   2.842   2.978   1.719
  978SOL    HW1 2956   2.743   2.984   1.729
  978SOL    HW2 2957   2.865   2.898   1.663
  979SOL     OW 2958   2.567   2.912   0.368
  979SOL    HW1 2959   2.553   2.919   0.467
  979SOL    HW2 2960   2.651   2.861   0.350
  980SOL     OW 2961   2.272   2.675   1.251
  980SOL    HW1 2962   2.358   2.687   1.301
  980SOL    HW2 2963   2.230   2.588   1.278
  981SOL     OW 2964   3.136   2.248   1.262
  981SOL    HW1 2965   3.157   2.322   1.326
  981SOL    HW2 2966   3.047   2.265   1.219
  982SOL     OW 2967   2.229   2.962   0.501
  982SOL    HW1 2968   2.222   3.045   0.445
  982SOL    HW2 2969   2.233   2.882   0.441
  983SOL     OW 2970   2.428   2.399   0.865
  983SOL    HW1 2971   2.440   2.465   0.791
  983SOL    HW2 2972   2.474   2.433   0.948
  984SOL     OW 2973   3.114   3.210   0.388
  984SOL    HW1 2974   3.164   3.287   0.428
  984SOL    HW2 2975   3.019   3.212   0.420
  985SOL     OW 2976   2.264   2.613   1.598
  985SOL    HW1 2977   2.332   2.668   1.551
  985SOL    HW2 2978   2.304   2.525   1.625
  986SOL     OW 2979   2.875   1.967   1.770
  986SOL    HW1 2980   2.881   2.052   1.718
  986SOL    HW2 2981   2.907   1.891   1.713
  987SOL     OW 2982   2.366   1.912   1.740
  987SOL    HW1 2983   2.324   1.855   1.670
  987SOL    HW2 2984   2.300   1.981   1.772
  988SOL     OW 2985   2.435   2.732   1.029
  988SOL    HW1 2986   2.479   2.821   1.020
  988SOL    HW2 2987   2.372   2.732   1.106
  989SOL     OW 2988   3.222   2.724   1.045
  989SOL    HW1 2989   3.147   2.724   0.979
  989SOL    HW2 2990   3.259   2.632   1.054
  990SOL     OW 2991   3.071   2.387   0.275
  990SOL    HW1 2992   3.084   2.303   0.329
  990SOL    HW2 2993   3.042   2.461   0.335
  991SOL     OW 2994   2.169   2.075   1.231
  991SOL    HW1 2995   2.146   2.112   1.321
  991SOL    HW2 2996   2.139   1.980   1.225
  992SOL     OW 2997   1.899   3.172   1.282
  992SOL    HW1 2998   1.952   3.123   1.350
  992SOL    HW2 2999   1.921   3.270   1.287
  993SOL     OW 3000   2.594   2.496   1.064
  993SOL    HW1 3001   2.653   2.470   0.988
  993SOL    HW2 3002   2.566   2.592   1.053
  994SOL     OW 3003   2.169   1.925   0.618
  994SOL    HW1 3004   2.158   2.019   0.651
  994SOL    HW2 3005   2.164   1.862   0.695
  995SOL     OW 3006   3.484   2.229   0.374
  995SOL    HW1 3007   3.486   2.153   0.438
  995SOL    HW2 3008   3.436   2.306   0.414
  996SOL     OW 3009   2.885   2.628   0.966
  996SOL    HW1 3010   2.900   2.649   1.062
  996SOL    HW2 3011   2.855   2.533   0.957
  997SOL     OW 3012   2.212   2.760   1.804
  997SOL    HW1 3013   2.288   2.804   1.852
  997SOL    HW2 3014   2.247   2.713   1.722
  998SOL     OW 3015   3.165   2.700   0.042
  998SOL    HW1 3016   3.199   2.607   0.057
  998SOL    HW2 3017   3.183   2.727  -0.053
  999SOL     OW 3018   2.181   2.672   0.949
  999SOL    HW1 3019   2.274   2.708   0.954
  999SOL    HW2 3020   2.175   2.587   1.001
 1000SOL     OW 3021   2.201   2.371   1.006
 1000SOL    HW1 3022   2.149   2.288   0.989
 1000SOL    HW2 3023   2.278   2.376   0.942
 1001SOL     OW 3024   3.000   2.242   1.678
 1001SOL    HW1 3025   2.955   2.305   1.742
 1001SOL    HW2 3026   3.093   2.273   1.661
 1002SOL     OW 3027   3.022   2.069   1.477
 1002SOL    HW1 3028   3.022   2.133   1.554
 1002SOL    HW2 3029   3.050   2.117   1.394
 1003SOL     OW 3030   2.864   2.658   1.238
 1003SOL    HW1 3031   2.905   2.626   1.324
 1003SOL    HW2 3032   2.768   2.631   1.235
 1004SOL     OW 3033   1.902   2.406   1.114
 1004SOL    HW1 3034   1.987   2.373   1.073
 1004SOL    HW2 3035   1.915   2.421   1.212
 1005SOL     OW 3036   2.051   2.382   1.722
 1005SOL    HW1 3037   2.110   2.342   1.652
 1005SOL    HW2 3038   1.993   2.453   1.681
 1006SOL     OW 3039   2.677   2.434   0.325
 1006SOL    HW1 3040   2.684   2.345   0.279
 1006SOL    HW2 3041   2.583   2.468   0.317
 1007SOL     OW 3042   2.533   2.326   1.269
 1007SOL    HW1 3043   2.499   2.237   1.239
 1007SOL    HW2 3044   2.559   2.380   1.189
 1008SOL     OW 3045   2.335   2.362   0.191
 1008SOL    HW1 3046   2.396   2.442   0.195
 1008SOL    HW2 3047   2.240   2.393   0.198
 1009SOL     OW 3048   2.021   2.999   1.466
 1009SOL    HW1 3049   2.043   2.938   1.542
 1009SOL    HW2 3050   2.031   2.950   1.380
 1010SOL     OW 3051   3.209   2.921   1.234
 1010SOL    HW1 3052   3.233   2.858   1.160
 1010SOL    HW2 3053   3.119   2.961   1.216
 1011SOL     OW 3054   3.164   2.717   0.309
 1011SOL    HW1 3055   3.078   2.686   0.351
 1011SOL    HW2 3056   3.160   2.703   0.210
 1012SOL     OW 3057   1.945   3.120   1.022
 1012SOL    HW1 3058   1.940   3.119   1.122
 1012SOL    HW2 3059   1.862   3.079   0.984
 1013SOL     OW 3060   2.765   1.948   0.133
 1013SOL    HW1 3061   2.816   1.949   0.047
 1013SOL    HW2 3062   2.821   1.906   0.204
 1014SOL     OW 3063   3.142   2.789   0.672
 1014SOL    HW1 3064   3.202   2.708   0.674
 1014SOL    HW2 3065   3.182   2.858   0.612
 1015SOL     OW 3066   2.692   3.135   1.422
 1015SOL    HW1 3067   2.687   3.168   1.517
 1015SOL    HW2 3068   2.606   3.154   1.376
 1016SOL     OW 3069   2.125   2.188   0.720
 1016SOL    HW1 3070   2.046   2.239   0.686
 1016SOL    HW2 3071   2.116   2.173   0.818
 1017SOL     OW 3072   2.684   2.864   1.372
 1017SOL    HW1 3073   2.724   2.863   1.280
 1017SOL    HW2 3074   2.694   2.956   1.412
 1018SOL     OW 3075   2.778   2.772   0.291
 1018SOL    HW1 3076   2.841   2.810   0.223
 1018SOL    HW2 3077   2.818   2.689   0.330
 1019SOL     OW 3078   2.234   3.150   1.490
 1019SOL    HW1 3079   2.221   3.243   1.456
 1019SOL    HW2 3080   2.150   3.098   1.477
 1020SOL     OW 3081   2.901   2.960   0.696
 1020SOL    HW1 3082   2.831   2.913   0.750
 1020SOL    HW2 3083   2.960   2.892   0.653
 1021SOL     OW 3084   2.876   2.098   0.971
 1021SOL    HW1 3085   2.868   2.062   0.878
 1021SOL    HW2 3086   2.874   2.022   1.036
 1022SOL     OW 3087   1.967   2.875   1.726
 1022SOL    HW1 3088   1.890   2.842   1.780
 1022SOL    HW2 3089   2.052   2.845   1.768
 1023SOL     OW 3090   2.534   2.065   1.489
 1023SOL    HW1 3091   2.624   2.049   1.449
 1023SOL    HW2 3092   2.542   2.070   1.588
 1024SOL     OW 3093   1.934   2.028   0.318
 1024SOL    HW1 3094   1.917   2.111   0.264
 1024SOL    HW2 3095   2.024   1.991   0.296
 1025SOL     OW 3096   2.475   2.704   1.431
 1025SOL    HW1 3097   2.531   2.785   1.414
 1025SOL    HW2 3098   2.534   2.624   1.434
 1026SOL     OW 3099   2.578   2.427   1.708
 1026SOL    HW1 3100   2.597   2.492   1.782
 1026SOL    HW2 3101   2.638   2.347   1.717
 1027SOL     OW 3102   3.312   3.082   1.633
 1027SOL    HW1 3103   3.303   3.072   1.732
 1027SOL    HW2 3104   3.408   3.075   1.607
 1028SOL     OW 3105   3.087   2.187   0.449
 1028SOL    HW1 3106   3.152   2.113   0.438
 1028SOL    HW2 3107   3.107   2.237   0.533
 1029SOL     OW 3108   2.456   2.607   0.652
 1029SOL    HW1 3109   2.506   2.692   0.633
 1029SOL    HW2 3110   2.368   2.609   0.604
 1030SOL     OW 3111   2.721   2.818   0.861
 1030SOL    HW1 3112   2.775   2.749   0.909
 1030SOL    HW2 3113   2.689   2.887   0.927
 1031SOL     OW 3114   2.945   2.846   0.087
 1031SOL    HW1 3115   2.922   2.899   0.005
 1031SOL    HW2 3116   3.026   2.790   0.068
 1032SOL     OW 3117   2.083   3.176   1.844
 1032SOL    HW1 3118   2.018   3.103   1.823
 1032SOL    HW2 3119   2.087   3.190   1.942
 1033SOL     OW 3120   1.941   3.102   0.653
 1033SOL    HW1 3121   1.940   3.055   0.741
 1033SOL    HW2 3122   2.023   3.074   0.602
 1034SOL     OW 3123   2.534   3.253   1.624
 1034SOL    HW1 3124   2.456   3.203   1.662
 1034SOL    HW2 3125   2.531   3.348   1.655
 1035SOL     OW 3126   2.290   2.286   0.520
 1035SOL    HW1 3127   2.320   2.214   0.458
 1035SOL    HW2 3128   2.251   2.246   0.603
 1036SOL     OW 3129   2.179   2.409   1.280
 1036SOL    HW1 3130   2.217   2.350   1.352
 1036SOL    HW2 3131   2.219   2.383   1.192
 1037SOL     OW 3132   3.286   2.076   1.112
 1037SOL    HW1 3133   3.338   2.011   1.167
 1037SOL    HW2 3134   3.237   2.139   1.173
 1038SOL     OW 3135   2.863   1.896   1.154
 1038SOL    HW1 3136   2.800   1.824   1.123
 1038SOL    HW2 3137   2.956   1.860   1.154
 1039SOL     OW 3138   2.632   3.192   0.301
 1039SOL    HW1 3139   2.586   3.105   0.318
 1039SOL    HW2 3140   2.723   3.189   0.342
 1040SOL     OW 3141   1.901   2.939   0.300
 1040SOL    HW1 3142   2.000   2.928   0.291
 1040SOL    HW2 3143   1.861   2.853   0.332
 1041SOL     OW 3144   2.092   2.490   1.975
 1041SOL    HW1 3145   1.999   2.488   2.012
 1041SOL    HW2 3146   2.093   2.451   1.883
 1042SOL     OW 3147   2.087   2.137   2.858
 1042SOL    HW1 3148   2.122   2.120   2.950
 1042SOL    HW2 3149   1.999   2.092   2.846
 1043SOL     OW 3150   1.881   2.230   2.509
 1043SOL    HW1 3151   1.799   2.273   2.548
 1043SOL    HW2 3152   1.853   2.157   2.446
 1044SOL     OW 3153   2.431   3.137   3.027
 1044SOL    HW1 3154   2.338   3.130   2.990
 1044SOL    HW2 3155   2.442   3.226   3.071
 1045SOL     OW 3156   3.417   3.373   2.565
 1045SOL    HW1 3157   3.360   3.357   2.646
 1045SOL    HW2 3158   3.358   3.383   2.485
 1046SOL     OW 3159   2.997   2.565   2.579
 1046SOL    HW1 3160   3.054   2.643   2.554
 1046SOL    HW2 3161   2.937   2.591   2.655
 1047SOL     OW 3162   2.630   3.006   2.885
 1047SOL    HW1 3163   2.552   3.023   2.945
 1047SOL    HW2 3164   2.664   3.093   2.849
 1048SOL     OW 3165   2.547   2.874   2.527
 1048SOL    HW1 3166   2.616   2.858   2.597
 1048SOL    HW2 3167   2.474   2.931   2.565
 1049SOL     OW 3168   2.197   3.297   2.923
 1049SOL    HW1 3169   2.119   3.266   2.870
 1049SOL    HW2 3170   2.255   3.355   2.866
 1050SOL     OW 3171   2.102   2.953   2.748
 1050SOL    HW1 3172   2.116   2.869   2.800
 1050SOL    HW2 3173   2.047   3.017   2.803
 1051SOL     OW 3174   2.468   2.826   1.985
 1051SOL    HW1 3175   2.475   2.910   1.931
 1051SOL    HW2 3176   2.514   2.839   2.073
 1052SOL     OW 3177   3.456   1.976   3.342
 1052SOL    HW1 3178   3.438   2.043   3.270
 1052SOL    HW2 3179   3.453   2.022   3.431
 1053SOL     OW 3180   1.984   2.505   2.425
 1053SOL    HW1 3181   1.939   2.417   2.442
 1053SOL    HW2 3182   1.983   2.559   2.509
 1054SOL     OW 3183   2.671   1.866   2.364
 1054SOL    HW1 3184   2.711   1.957   2.355
 1054SOL    HW2 3185   2.571   1.874   2.370
 1055SOL     OW 3186   2.059   2.838   3.126
 1055SOL    HW1 3187   2.148   2.793   3.112
 1055SOL    HW2 3188   1.986   2.773   3.107
 1056SOL     OW 3189   2.460   2.591   2.132
 1056SOL    HW1 3190   2.484   2.660   2.064
 1056SOL    HW2 3191   2.382   2.624   2.186
 1057SOL     OW 3192   3.143   2.207   2.806
 1057SOL    HW1 3193   3.057   2.157   2.793
 1057SOL    HW2 3194   3.205   2.153   2.862
 1058SOL     OW 3195   2.669   2.467   3.327
 1058SOL    HW1 3196   2.622   2.464   3.416
 1058SOL    HW2 3197   2.618   2.412   3.261
 1059SOL     OW 3198   2.853   2.272   3.104
 1059SOL    HW1 3199   2.776   2.306   3.158
 1059SOL    HW2 3200   2.819   2.221   3.025
 1060SOL     OW 3201   2.903   2.563   2.291
 1060SOL    HW1 3202   2.929   2.559   2.387
 1060SOL    HW2 3203   2.818   2.512   2.277
 1061SOL     OW 3204   1.938   2.673   2.651
 1061SOL    HW1 3205   2.037   2.661   2.660
 1061SOL    HW2 3206   1.914   2.768   2.672
 1062SOL     OW 3207   2.727   2.210   2.057
 1062SOL    HW1 3208   2.786   2.273   2.008
 1062SOL    HW2 3209   2.746   2.116   2.028
 1063SOL     OW 3210   3.224   3.006   2.407
 1063SOL    HW1 3211   3.307   2.977   2.359
 1063SOL    HW2 3212   3.175   3.073   2.351
 1064SOL     OW 3213   2.412   2.058   2.747
 1064SOL    HW1 3214   2.407   2.053   2.847
 1064SOL    HW2 3215   2.414   2.154   2.718
 1065SOL     OW 3216   2.183   2.805   2.104
 1065SOL    HW1 3217   2.265   2.844   2.062
 1065SOL    HW2 3218   2.156   2.723   2.055
 1066SOL     OW 3219   2.064   2.147   3.360
 1066SOL    HW1 3220   1.984   2.207   3.347
 1066SOL    HW2 3221   2.054   2.098   3.446
 1067SOL     OW 3222   2.244   2.562   2.342
 1067SOL    HW1 3223   2.289   2.472   2.339
 1067SOL    HW2 3224   2.150   2.551   2.375
 1068SOL     OW 3225   2.476   1.984   1.979
 1068SOL    HW1 3226   2.574   1.962   1.986
 1068SOL    HW2 3227   2.445   1.967   1.886
 1069SOL     OW 3228   2.784   2.365   2.761
 1069SOL    HW1 3229   2.759   2.356   2.665
 1069SOL    HW2 3230   2.832   2.283   2.792
 1070SOL     OW 3231   2.401   1.926   2.374
 1070SOL    HW1 3232   2.320   1.927   2.432
 1070SOL    HW2 3233   2.404   2.009   2.319
 1071SOL     OW 3234   3.296   3.050   1.903
 1071SOL    HW1 3235   3.328   2.974   1.960
 1071SOL    HW2 3236   3.204   3.077   1.933
 1072SOL     OW 3237   2.159   1.897   2.033
 1072SOL    HW1 3238   2.208   1.981   2.012
 1072SOL    HW2 3239   2.221   1.832   2.078
 1073SOL     OW 3240   2.797   2.098   2.342
 1073SOL    HW1 3241   2.749   2.139   2.264
 1073SOL    HW2 3242   2.896   2.096   2.323
 1074SOL     OW 3243   3.089   3.432   2.655
 1074SOL    HW1 3244   3.110   3.506   2.590
 1074SOL    HW2 3245   3.157   3.432   2.728
 1075SOL     OW 3246   2.321   3.014   2.603
 1075SOL    HW1 3247   2.250   2.987   2.668
 1075SOL    HW2 3248   2.295   2.986   2.510
 1076SOL     OW 3249   2.894   2.411   1.878
 1076SOL    HW1 3250   2.853   2.493   1.839
 1076SOL    HW2 3251   2.958   2.437   1.951
 1077SOL     OW 3252   2.423   2.084   3.009
 1077SOL    HW1 3253   2.461   2.000   3.046
 1077SOL    HW2 3254   2.335   2.103   3.053
 1078SOL     OW 3255   2.728   2.316   2.504
 1078SOL    HW1 3256   2.696   2.388   2.442
 1078SOL    HW2 3257   2.752   2.235   2.451
 1079SOL     OW 3258   2.879   1.901   2.615
 1079SOL    HW1 3259   2.807   1.906   2.546
 1079SOL    HW2 3260   2.855   1.832   2.684
 1080SOL     OW 3261   2.389   2.118   2.190
 1080SOL    HW1 3262   2.416   2.059   2.115
 1080SOL    HW2 3263   2.389   2.213   2.159
 1081SOL     OW 3264   2.926   3.209   3.202
 1081SOL    HW1 3265   2.846   3.186   3.257
 1081SOL    HW2 3266   3.009   3.183   3.251
 1082SOL     OW 3267   2.973   3.057   2.962
 1082SOL    HW1 3268   2.933   3.101   3.043
 1082SOL    HW2 3269   2.932   3.094   2.879
 1083SOL     OW 3270   2.567   2.912   2.230
 1083SOL    HW1 3271   2.553   2.919   2.329
 1083SOL    HW2 3272   2.651   2.861   2.212
 1084SOL     OW 3273   2.272   2.675   3.113
 1084SOL    HW1 3274   2.358   2.687   3.163
 1084SOL    HW2 3275   2.230   2.588   3.140
 1085SOL     OW 3276   3.136   2.248   3.124
 1085SOL    HW1 3277   3.157   2.322   3.188
 1085SOL    HW2 3278   3.047   2.265   3.081
 1086SOL     OW 3279   2.229   2.962   2.363
 1086SOL    HW1 3280   2.222   3.045   2.307
 1086SOL    HW2 3281   2.233   2.882   2.303
 1087SOL     OW 3282   2.428   2.399   2.727
 1087SOL    HW1 3283   2.440   2.465   2.653
 1087SOL    HW2 3284   2.474   2.433   2.810
 1088SOL     OW 3285   3.114   3.210   2.250
 1088SOL    HW1 3286   3.164   3.287   2.290
 1088SOL    HW2 3287   3.019   3.212   2.282
 1089SOL     OW 3288   2.435   2.732   2.891
 1089SOL    HW1 3289   2.479   2.821   2.882
 1089SOL    HW2 3290   2.372   2.732   2.968
 1090SOL     OW 3291   3.222   2.724   2.907
 1090SOL    HW1 3292   3.147   2.724   2.841
 1090SOL    HW2 3293   3.259   2.632   2.916
 1091SOL     OW 3294   3.071   2.387   2.137
 1091SOL    HW1 3295   3.084   2.303   2.191
 1091SOL    HW2 3296   3.042   2.461   2.197
 1092SOL     OW 3297   2.169   2.075   3.093
 1092SOL    HW1 3298   2.146   2.112   3.183
 1092SOL    HW2 3299   2.139   1.980   3.087
 1093SOL     OW 3300   1.899   3.172   3.144
 1093SOL    HW1 3301   1.952   3.123   3.212
 1093SOL    HW2 3302   1.921   3.270   3.149
 1094SOL     OW 3303   2.594   2.496   2.926
 1094SOL    HW1 3304   2.653   2.470   2.850
 1094SOL    HW2 3305   2.566   2.592   2.915
 1095SOL     OW 3306   2.169   1.925   2.480
 1095SOL    HW1 3307   2.158   2.019   2.513
 1095SOL    HW2 3308   2.164   1.862   2.557
 1096SOL     OW 3309   3.484   2.229   2.236
 1096SOL    HW1 3310   3.486   2.153   2.300
 1096SOL    HW2 3311   3.436   2.306   2.276
 1097SOL     OW 3312   2.885   2.628   2.828
 1097SOL    HW1 3313   2.900   2.649   2.924
 1097SOL    HW2 3314   2.855   2.533   2.819
 1098SOL     OW 3315   3.165   2.700   1.904
 1098SOL    HW1 3316   3.199   2.607   1.919
 1098SOL    HW2 3317   3.183   2.727   1.809
 1099SOL     OW 3318   2.181   2.672   2.811
 1099SOL    HW1 3319   2.274   2.708   2.816
 1099SOL    HW2 3320   2.175   2.587   2.863
 1100SOL     OW 3321   2.201   2.371   2.868
 1100SOL    HW1 3322   2.149   2.288   2.851
 1100SOL    HW2 3323   2.278   2.376   2.804
 1101SOL     OW 3324   3.022   2.069   3.339
 1101SOL    HW1 3325   3.022   2.133   3.416
 1101SOL    HW2 3326   3.050   2.117   3.256
 1102SOL     OW 3327   1.870   3.188   2.062
 1102SOL    HW1 3328   1.777   3.209   2.031
 1102SOL    HW2 3329   1.880   3.089   2.075
 1103SOL     OW 3330   2.864   2.658   3.100
 1103SOL    HW1 3331   2.905   2.626   3.186
 1103SOL    HW2 3332   2.768   2.631   3.097
 1104SOL     OW 3333   1.902   2.406   2.976
 1104SOL    HW1 3334   1.987   2.373   2.935
 1104SOL    HW2 3335   1.915   2.421   3.074
 1105SOL     OW 3336   2.677   2.434   2.187
 1105SOL    HW1 3337   2.684   2.345   2.141
 1105SOL    HW2 3338   2.583   2.468   2.179
 1106SOL     OW 3339   2.533   2.326   3.131
 1106SOL    HW1 3340   2.499   2.237   3.101
 1106SOL    HW2 3341   2.559   2.380   3.051
 1107SOL     OW 3342   2.335   2.362   2.053
 1107SOL    HW1 3343   2.396   2.442   2.057
 1107SOL    HW2 3344   2.240   2.393   2.060
 1108SOL     OW 3345   2.021   2.999   3.328
 1108SOL    HW1 3346   2.043   2.938   3.404
 1108SOL    HW2 3347   2.031   2.950   3.242
 1109SOL     OW 3348   3.209   2.921   3.096
 1109SOL    HW1 3349   3.233   2.858   3.022
 1109SOL    HW2 3350   3.119   2.961   3.078
 1110SOL     OW 3351   3.164   2.717   2.171
 1110SOL    HW1 3352   3.078   2.686   2.213
 1110SOL    HW2 3353   3.160   2.703   2.072
 1111SOL     OW 3354   1.945   3.120   2.884
 1111SOL    HW1 3355   1.940   3.119   2.984
 1111SOL    HW2 3356   1.862   3.079   2.846
 1112SOL     OW 3357   3.142   2.789   2.534
 1112SOL    HW1 3358   3.202   2.708   2.536
 1112SOL    HW2 3359   3.182   2.858   2.474
 1113SOL     OW 3360   2.692   3.135   3.284
 1113SOL    HW1 3361   2.687   3.168   3.379
 1113SOL    HW2 3362   2.606   3.154   3.238
 1114SOL     OW 3363   2.125   2.188   2.582
 1114SOL    HW1 3364   2.046   2.239   2.548
 1114SOL    HW2 3365   2.116   2.173   2.680
 1115SOL     OW 3366   3.056   3.474   1.893
 1115SOL    HW1 3367   3.062   3.381   1.930
 1115SOL    HW2 3368   2.997   3.474   1.813
 1116SOL     OW 3369   2.684   2.864   3.234
 1116SOL    HW1 3370   2.724   2.863   3.142
 1116SOL    HW2 3371   2.694   2.956   3.274
 1117SOL     OW 3372   2.778   2.772   2.153
 1117SOL    HW1 3373   2.841   2.810   2.085
 1117SOL    HW2 3374   2.818   2.689   2.192
 1118SOL     OW 3375   2.901   2.960   2.558
 1118SOL    HW1 3376   2.831   2.913   2.612
 1118SOL    HW2 3377   2.960   2.892   2.515
 1119SOL     OW 3378   2.876   2.098   2.833
 1119SOL    HW1 3379   2.868   2.062   2.740
 1119SOL    HW2 3380   2.874   2.022   2.898
 1120SOL     OW 3381   2.534   2.065   3.351
 1120SOL    HW1 3382   2.624   2.049   3.311
 1120SOL    HW2 3383   2.542   2.070   3.450
 1121SOL     OW 3384   1.937   2.207   1.895
 1121SOL    HW1 3385   1.845   2.179   1.866
 1121SOL    HW2 3386   1.968   2.284   1.839
 1122SOL     OW 3387   1.934   2.028   2.180
 1122SOL    HW1 3388   1.917   2.111   2.126
 1122SOL    HW2 3389   2.024   1.991   2.158
 1123SOL     OW 3390   3.087   2.187   2.311
 1123SOL    HW1 3391   3.152   2.113   2.300
 1123SOL    HW2 3392   3.107   2.237   2.395
 1124SOL     OW 3393   2.456   2.607   2.514
 1124SOL    HW1 3394   2.506   2.692   2.495
 1124SOL    HW2 3395   2.368   2.609   2.466
 1125SOL     OW 3396   2.721   2.818   2.723
 1125SOL    HW1 3397   2.775   2.749   2.771
 1125SOL    HW2 3398   2.689   2.887   2.789
 1126SOL     OW 3399   2.945   2.846   1.949
 1126SOL    HW1 3400   2.922   2.899   1.867
 1126SOL    HW2 3401   3.026   2.790   1.930
 1127SOL     OW 3402   1.941   3.102   2.515
 1127SOL    HW1 3403   1.940   3.055   2.603
 1127SOL    HW2 3404   2.023   3.074   2.464
 1128SOL     OW 3405   2.290   2.286   2.382
 1128SOL    HW1 3406   2.320   2.214   2.320
 1128SOL    HW2 3407   2.251   2.246   2.465
 1129SOL     OW 3408   2.179   2.409   3.142
 1129SOL    HW1 3409   2.217   2.350   3.214
 1129SOL    HW2 3410   2.219   2.383   3.054
 1130SOL     OW 3411   3.286   2.076   2.974
 1130SOL    HW1 3412   3.338   2.011   3.029
 1130SOL    HW2 3413   3.237   2.139   3.035
 1131SOL     OW 3414   2.863   1.896   3.016
 1131SOL    HW1 3415   2.800   1.824   2.985
 1131SOL    HW2 3416   2.956   1.860   3.016
 1132SOL     OW 3417   2.632   3.192   2.163
 1132SOL    HW1 3418   2.586   3.105   2.180
 1132SOL    HW2 3419   2.723   3.189   2.204
 1133SOL     OW 3420   3.214   1.914   2.030
 1133SOL    HW1 3421   3.249   1.873   1.946
 1133SOL    HW2 3422   3.124   1.876   2.050
 1134SOL     OW 3423   1.901   2.939   2.162
 1134SOL    HW1 3424   2.000   2.928   2.153
 1134SOL    HW2 3425   1.861   2.853   2.194
   3.26874   3.26874   3.26874
