; mobley_9028462_GMX.top created by acpype (v: 2023.10.27) on Thu May 14 14:01:34 2026

[ defaults ]
; nbfunc        comb-rule       gen-pairs       fudgeLJ fudgeQQ
1               2               yes             0.5     0.8333333333

; Include mobley_9028462_GMX.itp topology
#include "mobley_9028462_GMX.itp"

; Ligand position restraints
#ifdef POSRES_LIG
#include "posre_mobley_9028462.itp"
#endif

#include "../common/SOL.TIP3P.itp"

[ system ]
mobley_9028462 in water

[ molecules ]
; Compound        nmols
 mobley_9028462   1     
SOL               529
