; mobley_1636752_GMX.itp created by acpype (v: 2023.10.27) on Thu May 14 13:16:56 2026

[ atomtypes ]
;name   bond_type     mass     charge   ptype   sigma         epsilon       Amb
 c3       c3          0.00000  0.00000   A     3.39771e-01   4.51035e-01 ; 1.91  0.1078
 oh       oh          0.00000  0.00000   A     3.24287e-01   3.89112e-01 ; 1.82  0.0930
 h1       h1          0.00000  0.00000   A     2.42200e-01   8.70272e-02 ; 1.36  0.0208
 ho       ho          0.00000  0.00000   A     5.37925e-02   1.96648e-02 ; 0.30  0.0047

[ moleculetype ]
;name            nrexcl
 mobley_1636752   3

[ atoms ]
;   nr  type  resi  res  atom  cgnr     charge      mass       ; qtot   bond_type
     1   c3     1   MOL    C1    1     0.116700     12.01000 ; qtot 0.117
     2   oh     1   MOL    O1    2    -0.598800     16.00000 ; qtot -0.482
     3   h1     1   MOL    H1    3     0.028700      1.00800 ; qtot -0.453
     4   h1     1   MOL    H2    4     0.028700      1.00800 ; qtot -0.425
     5   h1     1   MOL    H3    5     0.028700      1.00800 ; qtot -0.396
     6   ho     1   MOL    H4    6     0.396000      1.00800 ; qtot -0.000

[ bonds ]
;   ai     aj funct   r             k
     1      2   1    1.4242e-01    2.3861e+05 ;     C1 - O1    
     1      3   1    1.0969e-01    2.8804e+05 ;     C1 - H1    
     1      4   1    1.0969e-01    2.8804e+05 ;     C1 - H2    
     1      5   1    1.0969e-01    2.8804e+05 ;     C1 - H3    
     2      6   1    9.7250e-02    4.4811e+05 ;     O1 - H4    

[ pairs ]
;   ai     aj    funct
     3      6      1 ;     H1 - H4    
     4      6      1 ;     H2 - H4    
     5      6      1 ;     H3 - H4    

[ angles ]
;   ai     aj     ak    funct   theta         cth
     1      2      6      1    1.0739e+02    5.4501e+02 ;     C1 - O1     - H4    
     2      1      3      1    1.1038e+02    4.7103e+02 ;     O1 - C1     - H1    
     2      1      4      1    1.1038e+02    4.7103e+02 ;     O1 - C1     - H2    
     2      1      5      1    1.1038e+02    4.7103e+02 ;     O1 - C1     - H3    
     3      1      4      1    1.0855e+02    2.9824e+02 ;     H1 - C1     - H2    
     3      1      5      1    1.0855e+02    2.9824e+02 ;     H1 - C1     - H3    
     4      1      5      1    1.0855e+02    2.9824e+02 ;     H2 - C1     - H3    

[ dihedrals ] ; propers
; for gromacs 4.5 or higher, using funct 9
;    i      j      k      l   func   phase     kd      pn
     3      1      2      6      9     0.00   0.51463   3 ;     H1-    C1-    O1-    H4
     4      1      2      6      9     0.00   0.51463   3 ;     H2-    C1-    O1-    H4
     5      1      2      6      9     0.00   0.51463   3 ;     H3-    C1-    O1-    H4
