; mobley_8809274_GMX.itp created by acpype (v: 2023.10.27) on Thu May 14 13:56:32 2026

[ atomtypes ]
;name   bond_type     mass     charge   ptype   sigma         epsilon       Amb
 ca       ca          0.00000  0.00000   A     3.31521e-01   4.13379e-01 ; 1.86  0.0988
 c3       c3          0.00000  0.00000   A     3.39771e-01   4.51035e-01 ; 1.91  0.1078
 f        f           0.00000  0.00000   A     3.03422e-01   3.48109e-01 ; 1.70  0.0832
 ha       ha          0.00000  0.00000   A     2.62548e-01   6.73624e-02 ; 1.47  0.0161

[ moleculetype ]
;name            nrexcl
 mobley_8809274   3

[ atoms ]
;   nr  type  resi  res  atom  cgnr     charge      mass       ; qtot   bond_type
     1   ca     1   MOL    C1    1    -0.100000     12.01000 ; qtot -0.100
     2   ca     1   MOL    C2    2    -0.134500     12.01000 ; qtot -0.234
     3   ca     1   MOL    C3    3    -0.134500     12.01000 ; qtot -0.369
     4   ca     1   MOL    C4    4    -0.081500     12.01000 ; qtot -0.451
     5   ca     1   MOL    C5    5    -0.081500     12.01000 ; qtot -0.532
     6   ca     1   MOL    C6    6    -0.168300     12.01000 ; qtot -0.700
     7   c3     1   MOL    C7    7     0.688199     12.01000 ; qtot -0.012
     8    f     1   MOL    F1    8    -0.237633     19.00000 ; qtot -0.250
     9    f     1   MOL    F2    9    -0.237633     19.00000 ; qtot -0.487
    10    f     1   MOL    F3   10    -0.237633     19.00000 ; qtot -0.725
    11   ha     1   MOL    H1   11     0.139000      1.00800 ; qtot -0.586
    12   ha     1   MOL    H2   12     0.142000      1.00800 ; qtot -0.444
    13   ha     1   MOL    H3   13     0.142000      1.00800 ; qtot -0.302
    14   ha     1   MOL    H4   14     0.151000      1.00800 ; qtot -0.151
    15   ha     1   MOL    H5   15     0.151000      1.00800 ; qtot 0.000

[ bonds ]
;   ai     aj funct   r             k
     1      2   1    1.3986e-01    2.9644e+05 ;     C1 - C2    
     1      3   1    1.3986e-01    2.9644e+05 ;     C1 - C3    
     1     11   1    1.0860e-01    3.0183e+05 ;     C1 - H1    
     2      4   1    1.3986e-01    2.9644e+05 ;     C2 - C4    
     2     12   1    1.0860e-01    3.0183e+05 ;     C2 - H2    
     3      5   1    1.3986e-01    2.9644e+05 ;     C3 - C5    
     3     13   1    1.0860e-01    3.0183e+05 ;     C3 - H3    
     4      6   1    1.3986e-01    2.9644e+05 ;     C4 - C6    
     4     14   1    1.0860e-01    3.0183e+05 ;     C4 - H4    
     5      6   1    1.3986e-01    2.9644e+05 ;     C5 - C6    
     5     15   1    1.0860e-01    3.0183e+05 ;     C5 - H5    
     6      7   1    1.5147e-01    2.0410e+05 ;     C6 - C7    
     7      8   1    1.3512e-01    2.7973e+05 ;     C7 - F1    
     7      9   1    1.3512e-01    2.7973e+05 ;     C7 - F2    
     7     10   1    1.3512e-01    2.7973e+05 ;     C7 - F3    

[ pairs ]
;   ai     aj    funct
     1      6      1 ;     C1 - C6    
     1     14      1 ;     C1 - H4    
     1     15      1 ;     C1 - H5    
     2      5      1 ;     C2 - C5    
     2      7      1 ;     C2 - C7    
     2     13      1 ;     C2 - H3    
     3      4      1 ;     C3 - C4    
     3      7      1 ;     C3 - C7    
     3     12      1 ;     C3 - H2    
     4      8      1 ;     C4 - F1    
     4      9      1 ;     C4 - F2    
     4     10      1 ;     C4 - F3    
     4     15      1 ;     C4 - H5    
     5      8      1 ;     C5 - F1    
     5      9      1 ;     C5 - F2    
     5     10      1 ;     C5 - F3    
     5     14      1 ;     C5 - H4    
     6     12      1 ;     C6 - H2    
     6     13      1 ;     C6 - H3    
     7     14      1 ;     C7 - H4    
     7     15      1 ;     C7 - H5    
    11      4      1 ;     H1 - C4    
    11      5      1 ;     H1 - C5    
    11     12      1 ;     H1 - H2    
    11     13      1 ;     H1 - H3    
    12     14      1 ;     H2 - H4    
    13     15      1 ;     H3 - H5    

[ angles ]
;   ai     aj     ak    funct   theta         cth
     1      2      4      1    1.2002e+02    5.3279e+02 ;     C1 - C2     - C4    
     1      2     12      1    1.1988e+02    3.7572e+02 ;     C1 - C2     - H2    
     1      3      5      1    1.2002e+02    5.3279e+02 ;     C1 - C3     - C5    
     1      3     13      1    1.1988e+02    3.7572e+02 ;     C1 - C3     - H3    
     2      1      3      1    1.2002e+02    5.3279e+02 ;     C2 - C1     - C3    
     2      1     11      1    1.1988e+02    3.7572e+02 ;     C2 - C1     - H1    
     2      4      6      1    1.2002e+02    5.3279e+02 ;     C2 - C4     - C6    
     2      4     14      1    1.1988e+02    3.7572e+02 ;     C2 - C4     - H4    
     3      1     11      1    1.1988e+02    3.7572e+02 ;     C3 - C1     - H1    
     3      5      6      1    1.2002e+02    5.3279e+02 ;     C3 - C5     - C6    
     3      5     15      1    1.1988e+02    3.7572e+02 ;     C3 - C5     - H5    
     4      2     12      1    1.1988e+02    3.7572e+02 ;     C4 - C2     - H2    
     4      6      5      1    1.2002e+02    5.3279e+02 ;     C4 - C6     - C5    
     4      6      7      1    1.2083e+02    5.0827e+02 ;     C4 - C6     - C7    
     5      3     13      1    1.1988e+02    3.7572e+02 ;     C5 - C3     - H3    
     5      6      7      1    1.2083e+02    5.0827e+02 ;     C5 - C6     - C7    
     6      4     14      1    1.1988e+02    3.7572e+02 ;     C6 - C4     - H4    
     6      5     15      1    1.1988e+02    3.7572e+02 ;     C6 - C5     - H5    
     6      7      8      1    1.1178e+02    6.6308e+02 ;     C6 - C7     - F1    
     6      7      9      1    1.1178e+02    6.6308e+02 ;     C6 - C7     - F2    
     6      7     10      1    1.1178e+02    6.6308e+02 ;     C6 - C7     - F3    
     8      7      9      1    1.0737e+02    8.9437e+02 ;     F1 - C7     - F2    
     8      7     10      1    1.0737e+02    8.9437e+02 ;     F1 - C7     - F3    
     9      7     10      1    1.0737e+02    8.9437e+02 ;     F2 - C7     - F3    

[ dihedrals ] ; propers
; for gromacs 4.5 or higher, using funct 9
;    i      j      k      l   func   phase     kd      pn
     1      2      4      6      9   180.00  15.16700   2 ;     C1-    C2-    C4-    C6
     1      2      4     14      9   180.00  15.16700   2 ;     C1-    C2-    C4-    H4
     1      3      5      6      9   180.00  15.16700   2 ;     C1-    C3-    C5-    C6
     1      3      5     15      9   180.00  15.16700   2 ;     C1-    C3-    C5-    H5
     2      1      3      5      9   180.00  15.16700   2 ;     C2-    C1-    C3-    C5
     2      1      3     13      9   180.00  15.16700   2 ;     C2-    C1-    C3-    H3
     2      4      6      5      9   180.00  15.16700   2 ;     C2-    C4-    C6-    C5
     2      4      6      7      9   180.00  15.16700   2 ;     C2-    C4-    C6-    C7
     3      1      2      4      9   180.00  15.16700   2 ;     C3-    C1-    C2-    C4
     3      1      2     12      9   180.00  15.16700   2 ;     C3-    C1-    C2-    H2
     3      5      6      4      9   180.00  15.16700   2 ;     C3-    C5-    C6-    C4
     3      5      6      7      9   180.00  15.16700   2 ;     C3-    C5-    C6-    C7
     4      6      5     15      9   180.00  15.16700   2 ;     C4-    C6-    C5-    H5
     4      6      7      8      9     0.00   0.00000   0 ;     C4-    C6-    C7-    F1
     4      6      7      9      9     0.00   0.00000   0 ;     C4-    C6-    C7-    F2
     4      6      7     10      9     0.00   0.00000   0 ;     C4-    C6-    C7-    F3
     5      6      4     14      9   180.00  15.16700   2 ;     C5-    C6-    C4-    H4
     5      6      7      8      9     0.00   0.00000   0 ;     C5-    C6-    C7-    F1
     5      6      7      9      9     0.00   0.00000   0 ;     C5-    C6-    C7-    F2
     5      6      7     10      9     0.00   0.00000   0 ;     C5-    C6-    C7-    F3
     6      4      2     12      9   180.00  15.16700   2 ;     C6-    C4-    C2-    H2
     6      5      3     13      9   180.00  15.16700   2 ;     C6-    C5-    C3-    H3
     7      6      4     14      9   180.00  15.16700   2 ;     C7-    C6-    C4-    H4
     7      6      5     15      9   180.00  15.16700   2 ;     C7-    C6-    C5-    H5
    11      1      2      4      9   180.00  15.16700   2 ;     H1-    C1-    C2-    C4
    11      1      2     12      9   180.00  15.16700   2 ;     H1-    C1-    C2-    H2
    11      1      3      5      9   180.00  15.16700   2 ;     H1-    C1-    C3-    C5
    11      1      3     13      9   180.00  15.16700   2 ;     H1-    C1-    C3-    H3
    12      2      4     14      9   180.00  15.16700   2 ;     H2-    C2-    C4-    H4
    13      3      5     15      9   180.00  15.16700   2 ;     H3-    C3-    C5-    H5

[ dihedrals ] ; impropers
; treated as propers in GROMACS to use correct AMBER analytical function
;    i      j      k      l   func   phase     kd      pn
     1      4      2     12      4   180.00   4.60240   2 ;     C1-    C4-    C2-    H2
     1      5      3     13      4   180.00   4.60240   2 ;     C1-    C5-    C3-    H3
     2      6      4     14      4   180.00   4.60240   2 ;     C2-    C6-    C4-    H4
     3      6      5     15      4   180.00   4.60240   2 ;     C3-    C6-    C5-    H5
     4      5      6      7      4   180.00   4.60240   2 ;     C4-    C5-    C6-    C7
    11      1      3      2      4   180.00   4.60240   2 ;     H1-    C1-    C3-    C2
