; mobley_6571751_GMX.itp created by acpype (v: 2023.10.27) on Thu May 14 13:27:49 2026

[ atomtypes ]
;name   bond_type     mass     charge   ptype   sigma         epsilon       Amb
 c2       c2          0.00000  0.00000   A     3.31521e-01   4.13379e-01 ; 1.86  0.0988
 c6       c6          0.00000  0.00000   A     3.39771e-01   4.51035e-01 ; 1.91  0.1078
 c3       c3          0.00000  0.00000   A     3.39771e-01   4.51035e-01 ; 1.91  0.1078
 ha       ha          0.00000  0.00000   A     2.62548e-01   6.73624e-02 ; 1.47  0.0161
 hc       hc          0.00000  0.00000   A     2.60018e-01   8.70272e-02 ; 1.46  0.0208

[ moleculetype ]
;name            nrexcl
 mobley_6571751   3

[ atoms ]
;   nr  type  resi  res  atom  cgnr     charge      mass       ; qtot   bond_type
     1   c2     1   MOL    C1    1    -0.172200     12.01000 ; qtot -0.172
     2   c2     1   MOL    C2    2    -0.119400     12.01000 ; qtot -0.292
     3   c6     1   MOL    C3    3    -0.043200     12.01000 ; qtot -0.335
     4   c6     1   MOL    C4    4    -0.041200     12.01000 ; qtot -0.376
     5   c6     1   MOL    C5    5    -0.075400     12.01000 ; qtot -0.451
     6   c6     1   MOL    C6    6    -0.075400     12.01000 ; qtot -0.527
     7   c3     1   MOL    C7    7    -0.056900     12.01000 ; qtot -0.584
     8   ha     1   MOL    H1    8     0.120000      1.00800 ; qtot -0.464
     9   hc     1   MOL    H2    9     0.045700      1.00800 ; qtot -0.418
    10   hc     1   MOL    H3   10     0.045700      1.00800 ; qtot -0.372
    11   hc     1   MOL    H4   11     0.046200      1.00800 ; qtot -0.326
    12   hc     1   MOL    H5   12     0.046200      1.00800 ; qtot -0.280
    13   hc     1   MOL    H6   13     0.040200      1.00800 ; qtot -0.240
    14   hc     1   MOL    H7   14     0.040200      1.00800 ; qtot -0.199
    15   hc     1   MOL    H8   15     0.040200      1.00800 ; qtot -0.159
    16   hc     1   MOL    H9   16     0.040200      1.00800 ; qtot -0.119
    17   hc     1   MOL   H10   17     0.039700      1.00800 ; qtot -0.079
    18   hc     1   MOL   H11   18     0.039700      1.00800 ; qtot -0.040
    19   hc     1   MOL   H12   19     0.039700      1.00800 ; qtot 0.000

[ bonds ]
;   ai     aj funct   r             k
     1      2   1    1.3379e-01    3.6484e+05 ;     C1 - C2    
     1      3   1    1.5133e-01    2.0498e+05 ;     C1 - C3    
     1      8   1    1.0882e-01    2.9898e+05 ;     C1 - H1    
     2      4   1    1.5133e-01    2.0498e+05 ;     C2 - C4    
     2      7   1    1.5088e-01    2.0786e+05 ;     C2 - C7    
     3      5   1    1.5384e-01    1.8979e+05 ;     C3 - C5    
     3      9   1    1.0979e-01    2.8681e+05 ;     C3 - H2    
     3     10   1    1.0979e-01    2.8681e+05 ;     C3 - H3    
     4      6   1    1.5384e-01    1.8979e+05 ;     C4 - C6    
     4     11   1    1.0979e-01    2.8681e+05 ;     C4 - H4    
     4     12   1    1.0979e-01    2.8681e+05 ;     C4 - H5    
     5      6   1    1.5384e-01    1.8979e+05 ;     C5 - C6    
     5     13   1    1.0979e-01    2.8681e+05 ;     C5 - H6    
     5     14   1    1.0979e-01    2.8681e+05 ;     C5 - H7    
     6     15   1    1.0979e-01    2.8681e+05 ;     C6 - H8    
     6     16   1    1.0979e-01    2.8681e+05 ;     C6 - H9    
     7     17   1    1.0962e-01    2.8891e+05 ;     C7 - H10   
     7     18   1    1.0962e-01    2.8891e+05 ;     C7 - H11   
     7     19   1    1.0962e-01    2.8891e+05 ;     C7 - H12   

[ pairs ]
;   ai     aj    funct
     1      6      1 ;     C1 - C6    
     1     11      1 ;     C1 - H4    
     1     12      1 ;     C1 - H5    
     1     13      1 ;     C1 - H6    
     1     14      1 ;     C1 - H7    
     1     17      1 ;     C1 - H10   
     1     18      1 ;     C1 - H11   
     1     19      1 ;     C1 - H12   
     2      5      1 ;     C2 - C5    
     2      9      1 ;     C2 - H2    
     2     10      1 ;     C2 - H3    
     2     15      1 ;     C2 - H8    
     2     16      1 ;     C2 - H9    
     3      4      1 ;     C3 - C4    
     3      7      1 ;     C3 - C7    
     3     15      1 ;     C3 - H8    
     3     16      1 ;     C3 - H9    
     4     13      1 ;     C4 - H6    
     4     14      1 ;     C4 - H7    
     4     17      1 ;     C4 - H10   
     4     18      1 ;     C4 - H11   
     4     19      1 ;     C4 - H12   
     5     11      1 ;     C5 - H4    
     5     12      1 ;     C5 - H5    
     6      7      1 ;     C6 - C7    
     6      9      1 ;     C6 - H2    
     6     10      1 ;     C6 - H3    
     7     11      1 ;     C7 - H4    
     7     12      1 ;     C7 - H5    
     8      4      1 ;     H1 - C4    
     8      5      1 ;     H1 - C5    
     8      7      1 ;     H1 - C7    
     8      9      1 ;     H1 - H2    
     8     10      1 ;     H1 - H3    
     9     13      1 ;     H2 - H6    
     9     14      1 ;     H2 - H7    
    10     13      1 ;     H3 - H6    
    10     14      1 ;     H3 - H7    
    11     15      1 ;     H4 - H8    
    11     16      1 ;     H4 - H9    
    12     15      1 ;     H5 - H8    
    12     16      1 ;     H5 - H9    
    13     15      1 ;     H6 - H8    
    13     16      1 ;     H6 - H9    
    14     15      1 ;     H7 - H8    
    14     16      1 ;     H7 - H9    

[ angles ]
;   ai     aj     ak    funct   theta         cth
     1      2      4      1    1.2302e+02    5.1246e+02 ;     C1 - C2     - C4    
     1      2      7      1    1.2495e+02    5.0944e+02 ;     C1 - C2     - C7    
     1      3      5      1    1.1141e+02    5.0685e+02 ;     C1 - C3     - C5    
     1      3      9      1    1.0931e+02    3.6736e+02 ;     C1 - C3     - H2    
     1      3     10      1    1.0931e+02    3.6736e+02 ;     C1 - C3     - H3    
     2      1      3      1    1.2302e+02    5.1246e+02 ;     C2 - C1     - C3    
     2      1      8      1    1.2039e+02    3.8802e+02 ;     C2 - C1     - H1    
     2      4      6      1    1.1141e+02    5.0685e+02 ;     C2 - C4     - C6    
     2      4     11      1    1.0931e+02    3.6736e+02 ;     C2 - C4     - H4    
     2      4     12      1    1.0931e+02    3.6736e+02 ;     C2 - C4     - H5    
     2      7     17      1    1.1065e+02    3.6618e+02 ;     C2 - C7     - H10   
     2      7     18      1    1.1065e+02    3.6618e+02 ;     C2 - C7     - H11   
     2      7     19      1    1.1065e+02    3.6618e+02 ;     C2 - C7     - H12   
     3      1      8      1    1.1657e+02    3.5606e+02 ;     C3 - C1     - H1    
     3      5      6      1    1.1106e+02    5.0359e+02 ;     C3 - C5     - C6    
     3      5     13      1    1.0945e+02    3.6175e+02 ;     C3 - C5     - H6    
     3      5     14      1    1.0945e+02    3.6175e+02 ;     C3 - C5     - H7    
     4      2      7      1    1.1671e+02    5.0016e+02 ;     C4 - C2     - C7    
     4      6      5      1    1.1106e+02    5.0359e+02 ;     C4 - C6     - C5    
     4      6     15      1    1.0945e+02    3.6175e+02 ;     C4 - C6     - H8    
     4      6     16      1    1.0945e+02    3.6175e+02 ;     C4 - C6     - H9    
     5      3      9      1    1.0945e+02    3.6175e+02 ;     C5 - C3     - H2    
     5      3     10      1    1.0945e+02    3.6175e+02 ;     C5 - C3     - H3    
     5      6     15      1    1.0945e+02    3.6175e+02 ;     C5 - C6     - H8    
     5      6     16      1    1.0945e+02    3.6175e+02 ;     C5 - C6     - H9    
     6      4     11      1    1.0945e+02    3.6175e+02 ;     C6 - C4     - H4    
     6      4     12      1    1.0945e+02    3.6175e+02 ;     C6 - C4     - H5    
     6      5     13      1    1.0945e+02    3.6175e+02 ;     C6 - C5     - H6    
     6      5     14      1    1.0945e+02    3.6175e+02 ;     C6 - C5     - H7    
     9      3     10      1    1.0662e+02    3.0066e+02 ;     H2 - C3     - H3    
    11      4     12      1    1.0662e+02    3.0066e+02 ;     H4 - C4     - H5    
    13      5     14      1    1.0662e+02    3.0066e+02 ;     H6 - C5     - H7    
    15      6     16      1    1.0662e+02    3.0066e+02 ;     H8 - C6     - H9    
    17      7     18      1    1.0773e+02    2.9957e+02 ;    H10 - C7     - H11   
    17      7     19      1    1.0773e+02    2.9957e+02 ;    H10 - C7     - H12   
    18      7     19      1    1.0773e+02    2.9957e+02 ;    H11 - C7     - H12   

[ dihedrals ] ; propers
; for gromacs 4.5 or higher, using funct 9
;    i      j      k      l   func   phase     kd      pn
     1      2      4      6      9     0.00   0.00000   0 ;     C1-    C2-    C4-    C6
     1      2      4     11      9   180.00   1.08784   3 ;     C1-    C2-    C4-    H4
     1      2      4     12      9   180.00   1.08784   3 ;     C1-    C2-    C4-    H5
     1      2      7     17      9   180.00   1.08784   3 ;     C1-    C2-    C7-   H10
     1      2      7     18      9   180.00   1.08784   3 ;     C1-    C2-    C7-   H11
     1      2      7     19      9   180.00   1.08784   3 ;     C1-    C2-    C7-   H12
     1      3      5      6      9     0.00   0.65084   3 ;     C1-    C3-    C5-    C6
     1      3      5     13      9     0.00   0.65084   3 ;     C1-    C3-    C5-    H6
     1      3      5     14      9     0.00   0.65084   3 ;     C1-    C3-    C5-    H7
     2      1      3      5      9     0.00   0.00000   0 ;     C2-    C1-    C3-    C5
     2      1      3      9      9   180.00   1.08784   3 ;     C2-    C1-    C3-    H2
     2      1      3     10      9   180.00   1.08784   3 ;     C2-    C1-    C3-    H3
     2      4      6      5      9     0.00   0.65084   3 ;     C2-    C4-    C6-    C5
     2      4      6     15      9     0.00   0.65084   3 ;     C2-    C4-    C6-    H8
     2      4      6     16      9     0.00   0.65084   3 ;     C2-    C4-    C6-    H9
     3      1      2      4      9     0.00   0.62760   1 ;     C3-    C1-    C2-    C4
     3      1      2      4      9   180.00   5.56472   3 ;     C3-    C1-    C2-    C4
     3      1      2      4      9   180.00  24.18352   2 ;     C3-    C1-    C2-    C4
     3      1      2      7      9     0.00   0.62760   1 ;     C3-    C1-    C2-    C7
     3      1      2      7      9   180.00   5.56472   3 ;     C3-    C1-    C2-    C7
     3      1      2      7      9   180.00  24.18352   2 ;     C3-    C1-    C2-    C7
     3      5      6      4      9     0.00   2.17568   3 ;     C3-    C5-    C6-    C4
     3      5      6     15      9     0.00   0.54392   3 ;     C3-    C5-    C6-    H8
     3      5      6     16      9     0.00   0.54392   3 ;     C3-    C5-    C6-    H9
     4      2      7     17      9     0.00   0.62760   3 ;     C4-    C2-    C7-   H10
     4      2      7     18      9     0.00   0.62760   3 ;     C4-    C2-    C7-   H11
     4      2      7     19      9     0.00   0.62760   3 ;     C4-    C2-    C7-   H12
     4      6      5     13      9     0.00   0.54392   3 ;     C4-    C6-    C5-    H6
     4      6      5     14      9     0.00   0.54392   3 ;     C4-    C6-    C5-    H7
     5      6      4     11      9     0.00   0.54392   3 ;     C5-    C6-    C4-    H4
     5      6      4     12      9     0.00   0.54392   3 ;     C5-    C6-    C4-    H5
     6      4      2      7      9     0.00   0.00000   0 ;     C6-    C4-    C2-    C7
     6      5      3      9      9     0.00   0.54392   3 ;     C6-    C5-    C3-    H2
     6      5      3     10      9     0.00   0.54392   3 ;     C6-    C5-    C3-    H3
     7      2      4     11      9     0.00   0.62760   3 ;     C7-    C2-    C4-    H4
     7      2      4     12      9     0.00   0.62760   3 ;     C7-    C2-    C4-    H5
     8      1      2      4      9   180.00  27.82360   2 ;     H1-    C1-    C2-    C4
     8      1      2      7      9   180.00  27.82360   2 ;     H1-    C1-    C2-    C7
     8      1      3      5      9     0.00   0.00000   0 ;     H1-    C1-    C3-    C5
     8      1      3      9      9     0.00   0.00000   0 ;     H1-    C1-    C3-    H2
     8      1      3     10      9     0.00   0.00000   0 ;     H1-    C1-    C3-    H3
     9      3      5     13      9     0.00   0.50208   3 ;     H2-    C3-    C5-    H6
     9      3      5     14      9     0.00   0.50208   3 ;     H2-    C3-    C5-    H7
    10      3      5     13      9     0.00   0.50208   3 ;     H3-    C3-    C5-    H6
    10      3      5     14      9     0.00   0.50208   3 ;     H3-    C3-    C5-    H7
    11      4      6     15      9     0.00   0.50208   3 ;     H4-    C4-    C6-    H8
    11      4      6     16      9     0.00   0.50208   3 ;     H4-    C4-    C6-    H9
    12      4      6     15      9     0.00   0.50208   3 ;     H5-    C4-    C6-    H8
    12      4      6     16      9     0.00   0.50208   3 ;     H5-    C4-    C6-    H9
    13      5      6     15      9     0.00   0.50208   3 ;     H6-    C5-    C6-    H8
    13      5      6     16      9     0.00   0.50208   3 ;     H6-    C5-    C6-    H9
    14      5      6     15      9     0.00   0.50208   3 ;     H7-    C5-    C6-    H8
    14      5      6     16      9     0.00   0.50208   3 ;     H7-    C5-    C6-    H9

[ dihedrals ] ; impropers
; treated as propers in GROMACS to use correct AMBER analytical function
;    i      j      k      l   func   phase     kd      pn
     1      7      2      4      4   180.00   4.60240   2 ;     C1-    C7-    C2-    C4
     8      1      3      2      4   180.00   4.60240   2 ;     H1-    C1-    C3-    C2
