; mobley_7758918_GMX.itp created by acpype (v: 2023.10.27) on Thu May 14 13:39:09 2026

[ atomtypes ]
;name   bond_type     mass     charge   ptype   sigma         epsilon       Amb
 c        c           0.00000  0.00000   A     3.31521e-01   4.13379e-01 ; 1.86  0.0988
 c3       c3          0.00000  0.00000   A     3.39771e-01   4.51035e-01 ; 1.91  0.1078
 o        o           0.00000  0.00000   A     3.04812e-01   6.12119e-01 ; 1.71  0.1463
 oh       oh          0.00000  0.00000   A     3.24287e-01   3.89112e-01 ; 1.82  0.0930
 hc       hc          0.00000  0.00000   A     2.60018e-01   8.70272e-02 ; 1.46  0.0208
 ho       ho          0.00000  0.00000   A     5.37925e-02   1.96648e-02 ; 0.30  0.0047

[ moleculetype ]
;name            nrexcl
 mobley_7758918   3

[ atoms ]
;   nr  type  resi  res  atom  cgnr     charge      mass       ; qtot   bond_type
     1    c     1   MOL    C1    1     0.635099     12.01000 ; qtot 0.635
     2   c3     1   MOL    C2    2    -0.095100     12.01000 ; qtot 0.540
     3   c3     1   MOL    C3    3    -0.126400     12.01000 ; qtot 0.414
     4    o     1   MOL    O1    4    -0.550000     16.00000 ; qtot -0.136
     5   oh     1   MOL    O2    5    -0.612100     16.00000 ; qtot -0.749
     6   hc     1   MOL    H1    6     0.049367      1.00800 ; qtot -0.699
     7   hc     1   MOL    H2    7     0.049367      1.00800 ; qtot -0.650
     8   hc     1   MOL    H3    8     0.049367      1.00800 ; qtot -0.600
     9   hc     1   MOL    H4    9     0.078700      1.00800 ; qtot -0.522
    10   hc     1   MOL    H5   10     0.078700      1.00800 ; qtot -0.443
    11   ho     1   MOL    H6   11     0.443000      1.00800 ; qtot -0.000

[ bonds ]
;   ai     aj funct   r             k
     1      3   1    1.5270e-01    1.9652e+05 ;     C1 - C3    
     1      4   1    1.2190e-01    4.9421e+05 ;     C1 - O1    
     1      5   1    1.3556e-01    3.0064e+05 ;     C1 - O2    
     2      3   1    1.5354e-01    1.9154e+05 ;     C2 - C3    
     2      6   1    1.0962e-01    2.8891e+05 ;     C2 - H1    
     2      7   1    1.0962e-01    2.8891e+05 ;     C2 - H2    
     2      8   1    1.0962e-01    2.8891e+05 ;     C2 - H3    
     3      9   1    1.0962e-01    2.8891e+05 ;     C3 - H4    
     3     10   1    1.0962e-01    2.8891e+05 ;     C3 - H5    
     5     11   1    9.7250e-02    4.4811e+05 ;     O2 - H6    

[ pairs ]
;   ai     aj    funct
     1      6      1 ;     C1 - H1    
     1      7      1 ;     C1 - H2    
     1      8      1 ;     C1 - H3    
     3     11      1 ;     C3 - H6    
     4      2      1 ;     O1 - C2    
     4      9      1 ;     O1 - H4    
     4     10      1 ;     O1 - H5    
     4     11      1 ;     O1 - H6    
     5      2      1 ;     O2 - C2    
     5      9      1 ;     O2 - H4    
     5     10      1 ;     O2 - H5    
     6      9      1 ;     H1 - H4    
     6     10      1 ;     H1 - H5    
     7      9      1 ;     H2 - H4    
     7     10      1 ;     H2 - H5    
     8      9      1 ;     H3 - H4    
     8     10      1 ;     H3 - H5    

[ angles ]
;   ai     aj     ak    funct   theta         cth
     1      3      2      1    1.1143e+02    5.0509e+02 ;     C1 - C3     - C2    
     1      3      9      1    1.0895e+02    3.6510e+02 ;     C1 - C3     - H4    
     1      3     10      1    1.0895e+02    3.6510e+02 ;     C1 - C3     - H5    
     1      5     11      1    1.0654e+02    5.7287e+02 ;     C1 - O2     - H6    
     2      3      9      1    1.0968e+02    3.6208e+02 ;     C2 - C3     - H4    
     2      3     10      1    1.0968e+02    3.6208e+02 ;     C2 - C3     - H5    
     3      1      4      1    1.2290e+02    6.3973e+02 ;     C3 - C1     - O1    
     3      1      5      1    1.1274e+02    6.4785e+02 ;     C3 - C1     - O2    
     3      2      6      1    1.0968e+02    3.6208e+02 ;     C3 - C2     - H1    
     3      2      7      1    1.0968e+02    3.6208e+02 ;     C3 - C2     - H2    
     3      2      8      1    1.0968e+02    3.6208e+02 ;     C3 - C2     - H3    
     4      1      5      1    1.2209e+02    8.5379e+02 ;     O1 - C1     - O2    
     6      2      7      1    1.0773e+02    2.9957e+02 ;     H1 - C2     - H2    
     6      2      8      1    1.0773e+02    2.9957e+02 ;     H1 - C2     - H3    
     7      2      8      1    1.0773e+02    2.9957e+02 ;     H2 - C2     - H3    
     9      3     10      1    1.0773e+02    2.9957e+02 ;     H4 - C3     - H5    

[ dihedrals ] ; propers
; for gromacs 4.5 or higher, using funct 9
;    i      j      k      l   func   phase     kd      pn
     1      3      2      6      9     0.00   0.65084   3 ;     C1-    C3-    C2-    H1
     1      3      2      7      9     0.00   0.65084   3 ;     C1-    C3-    C2-    H2
     1      3      2      8      9     0.00   0.65084   3 ;     C1-    C3-    C2-    H3
     3      1      5     11      9   180.00   7.53120   2 ;     C3-    C1-    O2-    H6
     4      1      3      2      9     0.00   2.84512   1 ;     O1-    C1-    C3-    C2
     4      1      3      2      9   180.00   0.83680   2 ;     O1-    C1-    C3-    C2
     4      1      3      2      9   180.00   1.84096   3 ;     O1-    C1-    C3-    C2
     4      1      3      9      9     0.00  16.86152   1 ;     O1-    C1-    C3-    H4
     4      1      3      9      9   180.00  15.31344   2 ;     O1-    C1-    C3-    H4
     4      1      3     10      9     0.00  16.86152   1 ;     O1-    C1-    C3-    H5
     4      1      3     10      9   180.00  15.31344   2 ;     O1-    C1-    C3-    H5
     4      1      5     11      9     0.00   7.94960   1 ;     O1-    C1-    O2-    H6
     4      1      5     11      9   180.00   9.62320   2 ;     O1-    C1-    O2-    H6
     5      1      3      2      9   180.00   0.00000   2 ;     O2-    C1-    C3-    C2
     5      1      3      9      9   180.00   0.00000   2 ;     O2-    C1-    C3-    H4
     5      1      3     10      9   180.00   0.00000   2 ;     O2-    C1-    C3-    H5
     6      2      3      9      9     0.00   0.50208   3 ;     H1-    C2-    C3-    H4
     6      2      3     10      9     0.00   0.50208   3 ;     H1-    C2-    C3-    H5
     7      2      3      9      9     0.00   0.50208   3 ;     H2-    C2-    C3-    H4
     7      2      3     10      9     0.00   0.50208   3 ;     H2-    C2-    C3-    H5
     8      2      3      9      9     0.00   0.50208   3 ;     H3-    C2-    C3-    H4
     8      2      3     10      9     0.00   0.50208   3 ;     H3-    C2-    C3-    H5

[ dihedrals ] ; impropers
; treated as propers in GROMACS to use correct AMBER analytical function
;    i      j      k      l   func   phase     kd      pn
     5      1      4      3      4   180.00   4.60240   2 ;     O2-    C1-    O1-    C3
