; mobley_1923244_GMX.itp created by acpype (v: 2023.10.27) on Thu May 14 13:17:04 2026

[ atomtypes ]
;name   bond_type     mass     charge   ptype   sigma         epsilon       Amb
 hc       hc          0.00000  0.00000   A     2.60018e-01   8.70272e-02 ; 1.46  0.0208
 c3       c3          0.00000  0.00000   A     3.39771e-01   4.51035e-01 ; 1.91  0.1078

[ moleculetype ]
;name            nrexcl
 mobley_1923244   3

[ atoms ]
;   nr  type  resi  res  atom  cgnr     charge      mass       ; qtot   bond_type
     1   hc     1   MOL    H3    1     0.032367      1.00800 ; qtot 0.032
     2   c3     1   MOL    C1    2    -0.094101     12.01000 ; qtot -0.062
     3   hc     1   MOL    H2    3     0.032367      1.00800 ; qtot -0.029
     4   hc     1   MOL    H6    4     0.032367      1.00800 ; qtot 0.003
     5   c3     1   MOL    C3    5    -0.080400     12.01000 ; qtot -0.077
     6   hc     1   MOL    H1    6     0.038700      1.00800 ; qtot -0.039
     7   hc     1   MOL    H7    7     0.038700      1.00800 ; qtot 0.000
     8   c3     1   MOL    C5    8    -0.080400     12.01000 ; qtot -0.080
     9   hc     1   MOL   H10    9     0.038700      1.00800 ; qtot -0.042
    10   c3     1   MOL    C7   10    -0.094101     12.01000 ; qtot -0.136
    11   hc     1   MOL    H8   11     0.032367      1.00800 ; qtot -0.103
    12   hc     1   MOL    H9   12     0.032367      1.00800 ; qtot -0.071
    13   hc     1   MOL    H4   13     0.032367      1.00800 ; qtot -0.039
    14   hc     1   MOL    H5   14     0.038700      1.00800 ; qtot 0.000

[ bonds ]
;   ai     aj funct   r             k
     1      2   1    1.0962e-01    2.8891e+05 ;     H3 - C1    
     2      3   1    1.0962e-01    2.8891e+05 ;     C1 - H2    
     2      4   1    1.0962e-01    2.8891e+05 ;     C1 - H6    
     2      5   1    1.5354e-01    1.9154e+05 ;     C1 - C3    
     5      6   1    1.0962e-01    2.8891e+05 ;     C3 - H1    
     5      7   1    1.0962e-01    2.8891e+05 ;     C3 - H7    
     5      8   1    1.5354e-01    1.9154e+05 ;     C3 - C5    
     8      9   1    1.0962e-01    2.8891e+05 ;     C5 - H10   
     8     10   1    1.5354e-01    1.9154e+05 ;     C5 - C7    
     8     14   1    1.0962e-01    2.8891e+05 ;     C5 - H5    
    10     11   1    1.0962e-01    2.8891e+05 ;     C7 - H8    
    10     12   1    1.0962e-01    2.8891e+05 ;     C7 - H9    
    10     13   1    1.0962e-01    2.8891e+05 ;     C7 - H4    

[ pairs ]
;   ai     aj    funct
     1      6      1 ;     H3 - H1    
     1      7      1 ;     H3 - H7    
     1      8      1 ;     H3 - C5    
     2      9      1 ;     C1 - H10   
     2     10      1 ;     C1 - C7    
     2     14      1 ;     C1 - H5    
     3      6      1 ;     H2 - H1    
     3      7      1 ;     H2 - H7    
     3      8      1 ;     H2 - C5    
     4      6      1 ;     H6 - H1    
     4      7      1 ;     H6 - H7    
     4      8      1 ;     H6 - C5    
     5     11      1 ;     C3 - H8    
     5     12      1 ;     C3 - H9    
     5     13      1 ;     C3 - H4    
     6      9      1 ;     H1 - H10   
     6     10      1 ;     H1 - C7    
     6     14      1 ;     H1 - H5    
     7      9      1 ;     H7 - H10   
     7     10      1 ;     H7 - C7    
     7     14      1 ;     H7 - H5    
     9     11      1 ;    H10 - H8    
     9     12      1 ;    H10 - H9    
     9     13      1 ;    H10 - H4    
    11     14      1 ;     H8 - H5    
    12     14      1 ;     H9 - H5    
    13     14      1 ;     H4 - H5    

[ angles ]
;   ai     aj     ak    funct   theta         cth
     1      2      3      1    1.0773e+02    2.9957e+02 ;     H3 - C1     - H2    
     1      2      4      1    1.0773e+02    2.9957e+02 ;     H3 - C1     - H6    
     1      2      5      1    1.0968e+02    3.6208e+02 ;     H3 - C1     - C3    
     2      5      6      1    1.0968e+02    3.6208e+02 ;     C1 - C3     - H1    
     2      5      7      1    1.0968e+02    3.6208e+02 ;     C1 - C3     - H7    
     2      5      8      1    1.1263e+02    5.0099e+02 ;     C1 - C3     - C5    
     3      2      4      1    1.0773e+02    2.9957e+02 ;     H2 - C1     - H6    
     3      2      5      1    1.0968e+02    3.6208e+02 ;     H2 - C1     - C3    
     4      2      5      1    1.0968e+02    3.6208e+02 ;     H6 - C1     - C3    
     5      8      9      1    1.0968e+02    3.6208e+02 ;     C3 - C5     - H10   
     5      8     10      1    1.1263e+02    5.0099e+02 ;     C3 - C5     - C7    
     5      8     14      1    1.0968e+02    3.6208e+02 ;     C3 - C5     - H5    
     6      5      7      1    1.0773e+02    2.9957e+02 ;     H1 - C3     - H7    
     6      5      8      1    1.0968e+02    3.6208e+02 ;     H1 - C3     - C5    
     7      5      8      1    1.0968e+02    3.6208e+02 ;     H7 - C3     - C5    
     8     10     11      1    1.0968e+02    3.6208e+02 ;     C5 - C7     - H8    
     8     10     12      1    1.0968e+02    3.6208e+02 ;     C5 - C7     - H9    
     8     10     13      1    1.0968e+02    3.6208e+02 ;     C5 - C7     - H4    
     9      8     10      1    1.0968e+02    3.6208e+02 ;    H10 - C5     - C7    
     9      8     14      1    1.0773e+02    2.9957e+02 ;    H10 - C5     - H5    
    10      8     14      1    1.0968e+02    3.6208e+02 ;     C7 - C5     - H5    
    11     10     12      1    1.0773e+02    2.9957e+02 ;     H8 - C7     - H9    
    11     10     13      1    1.0773e+02    2.9957e+02 ;     H8 - C7     - H4    
    12     10     13      1    1.0773e+02    2.9957e+02 ;     H9 - C7     - H4    

[ dihedrals ] ; propers
; for gromacs 4.5 or higher, using funct 9
;    i      j      k      l   func   phase     kd      pn
     1      2      5      6      9     0.00   0.50208   3 ;     H3-    C1-    C3-    H1
     1      2      5      7      9     0.00   0.50208   3 ;     H3-    C1-    C3-    H7
     1      2      5      8      9     0.00   0.54392   3 ;     H3-    C1-    C3-    C5
     2      5      8      9      9     0.00   0.54392   3 ;     C1-    C3-    C5-   H10
     2      5      8     10      9     0.00   2.17568   3 ;     C1-    C3-    C5-    C7
     2      5      8     14      9     0.00   0.54392   3 ;     C1-    C3-    C5-    H5
     3      2      5      6      9     0.00   0.50208   3 ;     H2-    C1-    C3-    H1
     3      2      5      7      9     0.00   0.50208   3 ;     H2-    C1-    C3-    H7
     3      2      5      8      9     0.00   0.54392   3 ;     H2-    C1-    C3-    C5
     4      2      5      6      9     0.00   0.50208   3 ;     H6-    C1-    C3-    H1
     4      2      5      7      9     0.00   0.50208   3 ;     H6-    C1-    C3-    H7
     4      2      5      8      9     0.00   0.54392   3 ;     H6-    C1-    C3-    C5
     5      8     10     11      9     0.00   0.54392   3 ;     C3-    C5-    C7-    H8
     5      8     10     12      9     0.00   0.54392   3 ;     C3-    C5-    C7-    H9
     5      8     10     13      9     0.00   0.54392   3 ;     C3-    C5-    C7-    H4
     6      5      8      9      9     0.00   0.50208   3 ;     H1-    C3-    C5-   H10
     6      5      8     10      9     0.00   0.54392   3 ;     H1-    C3-    C5-    C7
     6      5      8     14      9     0.00   0.50208   3 ;     H1-    C3-    C5-    H5
     7      5      8      9      9     0.00   0.50208   3 ;     H7-    C3-    C5-   H10
     7      5      8     10      9     0.00   0.54392   3 ;     H7-    C3-    C5-    C7
     7      5      8     14      9     0.00   0.50208   3 ;     H7-    C3-    C5-    H5
     9      8     10     11      9     0.00   0.50208   3 ;    H10-    C5-    C7-    H8
     9      8     10     12      9     0.00   0.50208   3 ;    H10-    C5-    C7-    H9
     9      8     10     13      9     0.00   0.50208   3 ;    H10-    C5-    C7-    H4
    11     10      8     14      9     0.00   0.50208   3 ;     H8-    C7-    C5-    H5
    12     10      8     14      9     0.00   0.50208   3 ;     H9-    C7-    C5-    H5
    13     10      8     14      9     0.00   0.50208   3 ;     H4-    C7-    C5-    H5
