; mobley_7455579_GMX.itp created by acpype (v: 2023.10.27) on Thu May 14 13:45:58 2026

[ atomtypes ]
;name   bond_type     mass     charge   ptype   sigma         epsilon       Amb
 c        c           0.00000  0.00000   A     3.31521e-01   4.13379e-01 ; 1.86  0.0988
 c3       c3          0.00000  0.00000   A     3.39771e-01   4.51035e-01 ; 1.91  0.1078
 o        o           0.00000  0.00000   A     3.04812e-01   6.12119e-01 ; 1.71  0.1463
 os       os          0.00000  0.00000   A     3.15610e-01   3.03758e-01 ; 1.77  0.0726
 h5       h5          0.00000  0.00000   A     2.44730e-01   6.73624e-02 ; 1.37  0.0161
 hc       hc          0.00000  0.00000   A     2.60018e-01   8.70272e-02 ; 1.46  0.0208
 h1       h1          0.00000  0.00000   A     2.42200e-01   8.70272e-02 ; 1.36  0.0208

[ moleculetype ]
;name            nrexcl
 mobley_7455579   3

[ atoms ]
;   nr  type  resi  res  atom  cgnr     charge      mass       ; qtot   bond_type
     1    c     1   MOL    C1    1     0.627900     12.01000 ; qtot 0.628
     2   c3     1   MOL    C2    2    -0.091600     12.01000 ; qtot 0.536
     3   c3     1   MOL    C3    3    -0.091600     12.01000 ; qtot 0.445
     4   c3     1   MOL    C4    4     0.137400     12.01000 ; qtot 0.582
     5   c3     1   MOL    C5    5    -0.070700     12.01000 ; qtot 0.511
     6    o     1   MOL    O1    6    -0.541000     16.00000 ; qtot -0.030
     7   os     1   MOL    O2    7    -0.448900     16.00000 ; qtot -0.479
     8   h5     1   MOL    H1    8     0.079200      1.00800 ; qtot -0.399
     9   hc     1   MOL    H2    9     0.038200      1.00800 ; qtot -0.361
    10   hc     1   MOL    H3   10     0.038200      1.00800 ; qtot -0.323
    11   hc     1   MOL    H4   11     0.038200      1.00800 ; qtot -0.285
    12   hc     1   MOL    H5   12     0.038200      1.00800 ; qtot -0.246
    13   hc     1   MOL    H6   13     0.038200      1.00800 ; qtot -0.208
    14   hc     1   MOL    H7   14     0.038200      1.00800 ; qtot -0.170
    15   h1     1   MOL    H8   15     0.053200      1.00800 ; qtot -0.117
    16   h1     1   MOL    H9   16     0.053200      1.00800 ; qtot -0.064
    17   hc     1   MOL   H10   17     0.063700      1.00800 ; qtot 0.000

[ bonds ]
;   ai     aj funct   r             k
     1      6   1    1.2190e-01    4.9421e+05 ;     C1 - O1    
     1      7   1    1.3621e-01    2.9398e+05 ;     C1 - O2    
     1      8   1    1.1053e-01    2.7793e+05 ;     C1 - H1    
     2      5   1    1.5354e-01    1.9154e+05 ;     C2 - C5    
     2      9   1    1.0962e-01    2.8891e+05 ;     C2 - H2    
     2     10   1    1.0962e-01    2.8891e+05 ;     C2 - H3    
     2     11   1    1.0962e-01    2.8891e+05 ;     C2 - H4    
     3      5   1    1.5354e-01    1.9154e+05 ;     C3 - C5    
     3     12   1    1.0962e-01    2.8891e+05 ;     C3 - H5    
     3     13   1    1.0962e-01    2.8891e+05 ;     C3 - H6    
     3     14   1    1.0962e-01    2.8891e+05 ;     C3 - H7    
     4      5   1    1.5354e-01    1.9154e+05 ;     C4 - C5    
     4      7   1    1.4273e-01    2.3620e+05 ;     C4 - O2    
     4     15   1    1.0969e-01    2.8804e+05 ;     C4 - H8    
     4     16   1    1.0969e-01    2.8804e+05 ;     C4 - H9    
     5     17   1    1.0962e-01    2.8891e+05 ;     C5 - H10   

[ pairs ]
;   ai     aj    funct
     1      5      1 ;     C1 - C5    
     1     15      1 ;     C1 - H8    
     1     16      1 ;     C1 - H9    
     2      7      1 ;     C2 - O2    
     2     12      1 ;     C2 - H5    
     2     13      1 ;     C2 - H6    
     2     14      1 ;     C2 - H7    
     2     15      1 ;     C2 - H8    
     2     16      1 ;     C2 - H9    
     3      7      1 ;     C3 - O2    
     3      9      1 ;     C3 - H2    
     3     10      1 ;     C3 - H3    
     3     11      1 ;     C3 - H4    
     3     15      1 ;     C3 - H8    
     3     16      1 ;     C3 - H9    
     4      9      1 ;     C4 - H2    
     4     10      1 ;     C4 - H3    
     4     11      1 ;     C4 - H4    
     4     12      1 ;     C4 - H5    
     4     13      1 ;     C4 - H6    
     4     14      1 ;     C4 - H7    
     6      4      1 ;     O1 - C4    
     7     17      1 ;     O2 - H10   
     8      4      1 ;     H1 - C4    
     9     17      1 ;     H2 - H10   
    10     17      1 ;     H3 - H10   
    11     17      1 ;     H4 - H10   
    12     17      1 ;     H5 - H10   
    13     17      1 ;     H6 - H10   
    14     17      1 ;     H7 - H10   
    15     17      1 ;     H8 - H10   
    16     17      1 ;     H9 - H10   

[ angles ]
;   ai     aj     ak    funct   theta         cth
     1      7      4      1    1.1582e+02    7.4835e+02 ;     C1 - O2     - C4    
     2      5      3      1    1.1263e+02    5.0099e+02 ;     C2 - C5     - C3    
     2      5      4      1    1.1263e+02    5.0099e+02 ;     C2 - C5     - C4    
     2      5     17      1    1.0968e+02    3.6208e+02 ;     C2 - C5     - H10   
     3      5      4      1    1.1263e+02    5.0099e+02 ;     C3 - C5     - C4    
     3      5     17      1    1.0968e+02    3.6208e+02 ;     C3 - C5     - H10   
     4      5     17      1    1.0968e+02    3.6208e+02 ;     C4 - C5     - H10   
     5      2      9      1    1.0968e+02    3.6208e+02 ;     C5 - C2     - H2    
     5      2     10      1    1.0968e+02    3.6208e+02 ;     C5 - C2     - H3    
     5      2     11      1    1.0968e+02    3.6208e+02 ;     C5 - C2     - H4    
     5      3     12      1    1.0968e+02    3.6208e+02 ;     C5 - C3     - H5    
     5      3     13      1    1.0968e+02    3.6208e+02 ;     C5 - C3     - H6    
     5      3     14      1    1.0968e+02    3.6208e+02 ;     C5 - C3     - H7    
     5      4      7      1    1.0762e+02    6.4802e+02 ;     C5 - C4     - O2    
     5      4     15      1    1.0959e+02    3.6217e+02 ;     C5 - C4     - H8    
     5      4     16      1    1.0959e+02    3.6217e+02 ;     C5 - C4     - H9    
     6      1      7      1    1.2320e+02    8.4734e+02 ;     O1 - C1     - O2    
     6      1      8      1    1.2378e+02    4.9664e+02 ;     O1 - C1     - H1    
     7      1      8      1    1.1309e+02    4.8124e+02 ;     O2 - C1     - H1    
     7      4     15      1    1.1034e+02    4.7028e+02 ;     O2 - C4     - H8    
     7      4     16      1    1.1034e+02    4.7028e+02 ;     O2 - C4     - H9    
     9      2     10      1    1.0773e+02    2.9957e+02 ;     H2 - C2     - H3    
     9      2     11      1    1.0773e+02    2.9957e+02 ;     H2 - C2     - H4    
    10      2     11      1    1.0773e+02    2.9957e+02 ;     H3 - C2     - H4    
    12      3     13      1    1.0773e+02    2.9957e+02 ;     H5 - C3     - H6    
    12      3     14      1    1.0773e+02    2.9957e+02 ;     H5 - C3     - H7    
    13      3     14      1    1.0773e+02    2.9957e+02 ;     H6 - C3     - H7    
    15      4     16      1    1.0855e+02    2.9824e+02 ;     H8 - C4     - H9    

[ dihedrals ] ; propers
; for gromacs 4.5 or higher, using funct 9
;    i      j      k      l   func   phase     kd      pn
     1      7      4      5      9     0.00   1.60247   3 ;     C1-    O2-    C4-    C5
     1      7      4      5      9   180.00   3.34720   1 ;     C1-    O2-    C4-    C5
     1      7      4     15      9     0.00   1.60387   3 ;     C1-    O2-    C4-    H8
     1      7      4     16      9     0.00   1.60387   3 ;     C1-    O2-    C4-    H9
     2      5      3     12      9     0.00   0.54392   3 ;     C2-    C5-    C3-    H5
     2      5      3     13      9     0.00   0.54392   3 ;     C2-    C5-    C3-    H6
     2      5      3     14      9     0.00   0.54392   3 ;     C2-    C5-    C3-    H7
     2      5      4      7      9     0.00   0.65084   3 ;     C2-    C5-    C4-    O2
     2      5      4     15      9     0.00   0.65084   3 ;     C2-    C5-    C4-    H8
     2      5      4     16      9     0.00   0.65084   3 ;     C2-    C5-    C4-    H9
     3      5      2      9      9     0.00   0.54392   3 ;     C3-    C5-    C2-    H2
     3      5      2     10      9     0.00   0.54392   3 ;     C3-    C5-    C2-    H3
     3      5      2     11      9     0.00   0.54392   3 ;     C3-    C5-    C2-    H4
     3      5      4      7      9     0.00   0.65084   3 ;     C3-    C5-    C4-    O2
     3      5      4     15      9     0.00   0.65084   3 ;     C3-    C5-    C4-    H8
     3      5      4     16      9     0.00   0.65084   3 ;     C3-    C5-    C4-    H9
     4      5      2      9      9     0.00   0.54392   3 ;     C4-    C5-    C2-    H2
     4      5      2     10      9     0.00   0.54392   3 ;     C4-    C5-    C2-    H3
     4      5      2     11      9     0.00   0.54392   3 ;     C4-    C5-    C2-    H4
     4      5      3     12      9     0.00   0.54392   3 ;     C4-    C5-    C3-    H5
     4      5      3     13      9     0.00   0.54392   3 ;     C4-    C5-    C3-    H6
     4      5      3     14      9     0.00   0.54392   3 ;     C4-    C5-    C3-    H7
     6      1      7      4      9   180.00   5.85760   1 ;     O1-    C1-    O2-    C4
     6      1      7      4      9   180.00  11.29680   2 ;     O1-    C1-    O2-    C4
     7      4      5     17      9     0.00   0.00000   0 ;     O2-    C4-    C5-   H10
     7      4      5     17      9     0.00   1.04600   1 ;     O2-    C4-    C5-   H10
     8      1      7      4      9   180.00  11.29680   2 ;     H1-    C1-    O2-    C4
     9      2      5     17      9     0.00   0.50208   3 ;     H2-    C2-    C5-   H10
    10      2      5     17      9     0.00   0.50208   3 ;     H3-    C2-    C5-   H10
    11      2      5     17      9     0.00   0.50208   3 ;     H4-    C2-    C5-   H10
    12      3      5     17      9     0.00   0.50208   3 ;     H5-    C3-    C5-   H10
    13      3      5     17      9     0.00   0.50208   3 ;     H6-    C3-    C5-   H10
    14      3      5     17      9     0.00   0.50208   3 ;     H7-    C3-    C5-   H10
    15      4      5     17      9     0.00   0.65084   3 ;     H8-    C4-    C5-   H10
    16      4      5     17      9     0.00   0.65084   3 ;     H9-    C4-    C5-   H10

[ dihedrals ] ; impropers
; treated as propers in GROMACS to use correct AMBER analytical function
;    i      j      k      l   func   phase     kd      pn
     7      1      6      8      4   180.00   4.60240   2 ;     O2-    C1-    O1-    H1
