; mobley_9121449_GMX.itp created by acpype (v: 2023.10.27) on Thu May 14 14:00:55 2026

[ atomtypes ]
;name   bond_type     mass     charge   ptype   sigma         epsilon       Amb
 c1       c1          0.00000  0.00000   A     3.47896e-01   6.67766e-01 ; 1.95  0.1596
 c3       c3          0.00000  0.00000   A     3.39771e-01   4.51035e-01 ; 1.91  0.1078
 ha       ha          0.00000  0.00000   A     2.62548e-01   6.73624e-02 ; 1.47  0.0161
 hc       hc          0.00000  0.00000   A     2.60018e-01   8.70272e-02 ; 1.46  0.0208

[ moleculetype ]
;name            nrexcl
 mobley_9121449   3

[ atoms ]
;   nr  type  resi  res  atom  cgnr     charge      mass       ; qtot   bond_type
     1   c1     1   MOL    C1    1    -0.162500     12.01000 ; qtot -0.163
     2   c1     1   MOL    C2    2    -0.139100     12.01000 ; qtot -0.302
     3   c3     1   MOL    C3    3    -0.089100     12.01000 ; qtot -0.391
     4   c3     1   MOL    C4    4    -0.004300     12.01000 ; qtot -0.395
     5   ha     1   MOL    H1    5     0.162501      1.00800 ; qtot -0.232
     6   hc     1   MOL    H2    6     0.039033      1.00800 ; qtot -0.193
     7   hc     1   MOL    H3    7     0.039033      1.00800 ; qtot -0.154
     8   hc     1   MOL    H4    8     0.039033      1.00800 ; qtot -0.115
     9   hc     1   MOL    H5    9     0.057700      1.00800 ; qtot -0.058
    10   hc     1   MOL    H6   10     0.057700      1.00800 ; qtot 0.000

[ bonds ]
;   ai     aj funct   r             k
     1      2   1    1.2095e-01    5.8503e+05 ;     C1 - C2    
     1      5   1    1.0666e-01    3.2839e+05 ;     C1 - H1    
     2      4   1    1.4656e-01    2.3814e+05 ;     C2 - C4    
     3      4   1    1.5354e-01    1.9154e+05 ;     C3 - C4    
     3      6   1    1.0962e-01    2.8891e+05 ;     C3 - H2    
     3      7   1    1.0962e-01    2.8891e+05 ;     C3 - H3    
     3      8   1    1.0962e-01    2.8891e+05 ;     C3 - H4    
     4      9   1    1.0962e-01    2.8891e+05 ;     C4 - H5    
     4     10   1    1.0962e-01    2.8891e+05 ;     C4 - H6    

[ pairs ]
;   ai     aj    funct
     1      3      1 ;     C1 - C3    
     1      9      1 ;     C1 - H5    
     1     10      1 ;     C1 - H6    
     2      6      1 ;     C2 - H2    
     2      7      1 ;     C2 - H3    
     2      8      1 ;     C2 - H4    
     5      4      1 ;     H1 - C4    
     6      9      1 ;     H2 - H5    
     6     10      1 ;     H2 - H6    
     7      9      1 ;     H3 - H5    
     7     10      1 ;     H3 - H6    
     8      9      1 ;     H4 - H5    
     8     10      1 ;     H4 - H6    

[ angles ]
;   ai     aj     ak    funct   theta         cth
     1      2      4      1    1.7867e+02    4.4836e+02 ;     C1 - C2     - C4    
     2      1      5      1    1.7928e+02    3.4351e+02 ;     C2 - C1     - H1    
     2      4      3      1    1.1202e+02    5.1354e+02 ;     C2 - C4     - C3    
     2      4      9      1    1.0945e+02    3.7765e+02 ;     C2 - C4     - H5    
     2      4     10      1    1.0945e+02    3.7765e+02 ;     C2 - C4     - H6    
     3      4      9      1    1.0968e+02    3.6208e+02 ;     C3 - C4     - H5    
     3      4     10      1    1.0968e+02    3.6208e+02 ;     C3 - C4     - H6    
     4      3      6      1    1.0968e+02    3.6208e+02 ;     C4 - C3     - H2    
     4      3      7      1    1.0968e+02    3.6208e+02 ;     C4 - C3     - H3    
     4      3      8      1    1.0968e+02    3.6208e+02 ;     C4 - C3     - H4    
     6      3      7      1    1.0773e+02    2.9957e+02 ;     H2 - C3     - H3    
     6      3      8      1    1.0773e+02    2.9957e+02 ;     H2 - C3     - H4    
     7      3      8      1    1.0773e+02    2.9957e+02 ;     H3 - C3     - H4    
     9      4     10      1    1.0773e+02    2.9957e+02 ;     H5 - C4     - H6    

[ dihedrals ] ; propers
; for gromacs 4.5 or higher, using funct 9
;    i      j      k      l   func   phase     kd      pn
     1      2      4      3      9   180.00   0.00000   2 ;     C1-    C2-    C4-    C3
     1      2      4      9      9   180.00   0.00000   2 ;     C1-    C2-    C4-    H5
     1      2      4     10      9   180.00   0.00000   2 ;     C1-    C2-    C4-    H6
     2      4      3      6      9     0.00   0.65084   3 ;     C2-    C4-    C3-    H2
     2      4      3      7      9     0.00   0.65084   3 ;     C2-    C4-    C3-    H3
     2      4      3      8      9     0.00   0.65084   3 ;     C2-    C4-    C3-    H4
     5      1      2      4      9   180.00   0.00000   2 ;     H1-    C1-    C2-    C4
     6      3      4      9      9     0.00   0.50208   3 ;     H2-    C3-    C4-    H5
     6      3      4     10      9     0.00   0.50208   3 ;     H2-    C3-    C4-    H6
     7      3      4      9      9     0.00   0.50208   3 ;     H3-    C3-    C4-    H5
     7      3      4     10      9     0.00   0.50208   3 ;     H3-    C3-    C4-    H6
     8      3      4      9      9     0.00   0.50208   3 ;     H4-    C3-    C4-    H5
     8      3      4     10      9     0.00   0.50208   3 ;     H4-    C3-    C4-    H6
