; mobley_3663158_GMX.itp created by acpype (v: 2023.10.27) on Thu May 14 13:28:52 2026

[ atomtypes ]
;name   bond_type     mass     charge   ptype   sigma         epsilon       Amb
 ca       ca          0.00000  0.00000   A     3.31521e-01   4.13379e-01 ; 1.86  0.0988
 oh       oh          0.00000  0.00000   A     3.24287e-01   3.89112e-01 ; 1.82  0.0930
 ha       ha          0.00000  0.00000   A     2.62548e-01   6.73624e-02 ; 1.47  0.0161
 ho       ho          0.00000  0.00000   A     5.37925e-02   1.96648e-02 ; 0.30  0.0047

[ moleculetype ]
;name            nrexcl
 mobley_3663158   3

[ atoms ]
;   nr  type  resi  res  atom  cgnr     charge      mass       ; qtot   bond_type
     1   ca     1   MOL    C1    1    -0.137000     12.01000 ; qtot -0.137
     2   ca     1   MOL    C2    2    -0.118000     12.01000 ; qtot -0.255
     3   ca     1   MOL    C3    3    -0.107000     12.01000 ; qtot -0.362
     4   ca     1   MOL    C4    4    -0.126000     12.01000 ; qtot -0.488
     5   ca     1   MOL    C5    5    -0.080000     12.01000 ; qtot -0.568
     6   ca     1   MOL    C6    6    -0.194000     12.01000 ; qtot -0.762
     7   ca     1   MOL    C7    7    -0.159000     12.01000 ; qtot -0.921
     8   ca     1   MOL    C8    8    -0.067000     12.01000 ; qtot -0.988
     9   ca     1   MOL    C9    9    -0.003000     12.01000 ; qtot -0.991
    10   ca     1   MOL   C10   10     0.120100     12.01000 ; qtot -0.871
    11   oh     1   MOL    O1   11    -0.497100     16.00000 ; qtot -1.368
    12   ha     1   MOL    H1   12     0.132000      1.00800 ; qtot -1.236
    13   ha     1   MOL    H2   13     0.132000      1.00800 ; qtot -1.104
    14   ha     1   MOL    H3   14     0.131000      1.00800 ; qtot -0.973
    15   ha     1   MOL    H4   15     0.135000      1.00800 ; qtot -0.838
    16   ha     1   MOL    H5   16     0.135000      1.00800 ; qtot -0.703
    17   ha     1   MOL    H6   17     0.134000      1.00800 ; qtot -0.569
    18   ha     1   MOL    H7   18     0.151000      1.00800 ; qtot -0.418
    19   ho     1   MOL    H8   19     0.418000      1.00800 ; qtot -0.000

[ bonds ]
;   ai     aj funct   r             k
     1      2   1    1.3986e-01    2.9644e+05 ;     C1 - C2    
     1      3   1    1.3986e-01    2.9644e+05 ;     C1 - C3    
     1     12   1    1.0860e-01    3.0183e+05 ;     C1 - H1    
     2      4   1    1.3986e-01    2.9644e+05 ;     C2 - C4    
     2     13   1    1.0860e-01    3.0183e+05 ;     C2 - H2    
     3      8   1    1.3986e-01    2.9644e+05 ;     C3 - C8    
     3     14   1    1.0860e-01    3.0183e+05 ;     C3 - H3    
     4      9   1    1.3986e-01    2.9644e+05 ;     C4 - C9    
     4     15   1    1.0860e-01    3.0183e+05 ;     C4 - H4    
     5      6   1    1.3986e-01    2.9644e+05 ;     C5 - C6    
     5      8   1    1.3986e-01    2.9644e+05 ;     C5 - C8    
     5     16   1    1.0860e-01    3.0183e+05 ;     C5 - H5    
     6     10   1    1.3986e-01    2.9644e+05 ;     C6 - C10   
     6     17   1    1.0860e-01    3.0183e+05 ;     C6 - H6    
     7      9   1    1.3986e-01    2.9644e+05 ;     C7 - C9    
     7     10   1    1.3986e-01    2.9644e+05 ;     C7 - C10   
     7     18   1    1.0860e-01    3.0183e+05 ;     C7 - H7    
     8      9   1    1.3986e-01    2.9644e+05 ;     C8 - C9    
    10     11   1    1.3644e-01    2.9167e+05 ;    C10 - O1    
    11     19   1    9.7250e-02    4.4811e+05 ;     O1 - H8    

[ pairs ]
;   ai     aj    funct
     1      5      1 ;     C1 - C5    
     1      9      1 ;     C1 - C9    
     1     15      1 ;     C1 - H4    
     2      7      1 ;     C2 - C7    
     2      8      1 ;     C2 - C8    
     2     14      1 ;     C2 - H3    
     3      4      1 ;     C3 - C4    
     3      6      1 ;     C3 - C6    
     3      7      1 ;     C3 - C7    
     3     13      1 ;     C3 - H2    
     3     16      1 ;     C3 - H5    
     4      5      1 ;     C4 - C5    
     4     10      1 ;     C4 - C10   
     4     18      1 ;     C4 - H7    
     5      7      1 ;     C5 - C7    
     5     11      1 ;     C5 - O1    
     5     14      1 ;     C5 - H3    
     6      9      1 ;     C6 - C9    
     6     18      1 ;     C6 - H7    
     6     19      1 ;     C6 - H8    
     7     15      1 ;     C7 - H4    
     7     17      1 ;     C7 - H6    
     7     19      1 ;     C7 - H8    
     8     10      1 ;     C8 - C10   
     8     15      1 ;     C8 - H4    
     8     17      1 ;     C8 - H6    
     8     18      1 ;     C8 - H7    
     9     11      1 ;     C9 - O1    
     9     13      1 ;     C9 - H2    
     9     14      1 ;     C9 - H3    
     9     16      1 ;     C9 - H5    
    10     16      1 ;    C10 - H5    
    11     17      1 ;     O1 - H6    
    11     18      1 ;     O1 - H7    
    12      4      1 ;     H1 - C4    
    12      8      1 ;     H1 - C8    
    12     13      1 ;     H1 - H2    
    12     14      1 ;     H1 - H3    
    13     15      1 ;     H2 - H4    
    16     17      1 ;     H5 - H6    

[ angles ]
;   ai     aj     ak    funct   theta         cth
     1      2      4      1    1.2002e+02    5.3279e+02 ;     C1 - C2     - C4    
     1      2     13      1    1.1988e+02    3.7572e+02 ;     C1 - C2     - H2    
     1      3      8      1    1.2002e+02    5.3279e+02 ;     C1 - C3     - C8    
     1      3     14      1    1.1988e+02    3.7572e+02 ;     C1 - C3     - H3    
     2      1      3      1    1.2002e+02    5.3279e+02 ;     C2 - C1     - C3    
     2      1     12      1    1.1988e+02    3.7572e+02 ;     C2 - C1     - H1    
     2      4      9      1    1.2002e+02    5.3279e+02 ;     C2 - C4     - C9    
     2      4     15      1    1.1988e+02    3.7572e+02 ;     C2 - C4     - H4    
     3      1     12      1    1.1988e+02    3.7572e+02 ;     C3 - C1     - H1    
     3      8      5      1    1.2002e+02    5.3279e+02 ;     C3 - C8     - C5    
     3      8      9      1    1.2002e+02    5.3279e+02 ;     C3 - C8     - C9    
     4      2     13      1    1.1988e+02    3.7572e+02 ;     C4 - C2     - H2    
     4      9      7      1    1.2002e+02    5.3279e+02 ;     C4 - C9     - C7    
     4      9      8      1    1.2002e+02    5.3279e+02 ;     C4 - C9     - C8    
     5      6     10      1    1.2002e+02    5.3279e+02 ;     C5 - C6     - C10   
     5      6     17      1    1.1988e+02    3.7572e+02 ;     C5 - C6     - H6    
     5      8      9      1    1.2002e+02    5.3279e+02 ;     C5 - C8     - C9    
     6      5      8      1    1.2002e+02    5.3279e+02 ;     C6 - C5     - C8    
     6      5     16      1    1.1988e+02    3.7572e+02 ;     C6 - C5     - H5    
     6     10      7      1    1.2002e+02    5.3279e+02 ;     C6 - C10    - C7    
     6     10     11      1    1.1990e+02    6.5990e+02 ;     C6 - C10    - O1    
     7      9      8      1    1.2002e+02    5.3279e+02 ;     C7 - C9     - C8    
     7     10     11      1    1.1990e+02    6.5990e+02 ;     C7 - C10    - O1    
     8      3     14      1    1.1988e+02    3.7572e+02 ;     C8 - C3     - H3    
     8      5     16      1    1.1988e+02    3.7572e+02 ;     C8 - C5     - H5    
     9      4     15      1    1.1988e+02    3.7572e+02 ;     C9 - C4     - H4    
     9      7     10      1    1.2002e+02    5.3279e+02 ;     C9 - C7     - C10   
     9      7     18      1    1.1988e+02    3.7572e+02 ;     C9 - C7     - H7    
    10      6     17      1    1.1988e+02    3.7572e+02 ;    C10 - C6     - H6    
    10      7     18      1    1.1988e+02    3.7572e+02 ;    C10 - C7     - H7    
    10     11     19      1    1.0858e+02    5.6409e+02 ;    C10 - O1     - H8    

[ dihedrals ] ; propers
; for gromacs 4.5 or higher, using funct 9
;    i      j      k      l   func   phase     kd      pn
     1      2      4      9      9   180.00  15.16700   2 ;     C1-    C2-    C4-    C9
     1      2      4     15      9   180.00  15.16700   2 ;     C1-    C2-    C4-    H4
     1      3      8      5      9   180.00  15.16700   2 ;     C1-    C3-    C8-    C5
     1      3      8      9      9   180.00  15.16700   2 ;     C1-    C3-    C8-    C9
     2      1      3      8      9   180.00  15.16700   2 ;     C2-    C1-    C3-    C8
     2      1      3     14      9   180.00  15.16700   2 ;     C2-    C1-    C3-    H3
     2      4      9      7      9   180.00  15.16700   2 ;     C2-    C4-    C9-    C7
     2      4      9      8      9   180.00  15.16700   2 ;     C2-    C4-    C9-    C8
     3      1      2      4      9   180.00  15.16700   2 ;     C3-    C1-    C2-    C4
     3      1      2     13      9   180.00  15.16700   2 ;     C3-    C1-    C2-    H2
     3      8      5      6      9   180.00  15.16700   2 ;     C3-    C8-    C5-    C6
     3      8      5     16      9   180.00  15.16700   2 ;     C3-    C8-    C5-    H5
     3      8      9      4      9   180.00  15.16700   2 ;     C3-    C8-    C9-    C4
     3      8      9      7      9   180.00  15.16700   2 ;     C3-    C8-    C9-    C7
     4      9      7     10      9   180.00  15.16700   2 ;     C4-    C9-    C7-   C10
     4      9      7     18      9   180.00  15.16700   2 ;     C4-    C9-    C7-    H7
     4      9      8      5      9   180.00  15.16700   2 ;     C4-    C9-    C8-    C5
     5      6     10      7      9   180.00  15.16700   2 ;     C5-    C6-   C10-    C7
     5      6     10     11      9   180.00  15.16700   2 ;     C5-    C6-   C10-    O1
     5      8      3     14      9   180.00  15.16700   2 ;     C5-    C8-    C3-    H3
     5      8      9      7      9   180.00  15.16700   2 ;     C5-    C8-    C9-    C7
     6      5      8      9      9   180.00  15.16700   2 ;     C6-    C5-    C8-    C9
     6     10      7      9      9   180.00  15.16700   2 ;     C6-   C10-    C7-    C9
     6     10      7     18      9   180.00  15.16700   2 ;     C6-   C10-    C7-    H7
     6     10     11     19      9   180.00   3.57732   2 ;     C6-   C10-    O1-    H8
     7      9      4     15      9   180.00  15.16700   2 ;     C7-    C9-    C4-    H4
     7     10      6     17      9   180.00  15.16700   2 ;     C7-   C10-    C6-    H6
     7     10     11     19      9   180.00   3.57732   2 ;     C7-   C10-    O1-    H8
     8      5      6     10      9   180.00  15.16700   2 ;     C8-    C5-    C6-   C10
     8      5      6     17      9   180.00  15.16700   2 ;     C8-    C5-    C6-    H6
     8      9      4     15      9   180.00  15.16700   2 ;     C8-    C9-    C4-    H4
     8      9      7     10      9   180.00  15.16700   2 ;     C8-    C9-    C7-   C10
     8      9      7     18      9   180.00  15.16700   2 ;     C8-    C9-    C7-    H7
     9      4      2     13      9   180.00  15.16700   2 ;     C9-    C4-    C2-    H2
     9      7     10     11      9   180.00  15.16700   2 ;     C9-    C7-   C10-    O1
     9      8      3     14      9   180.00  15.16700   2 ;     C9-    C8-    C3-    H3
     9      8      5     16      9   180.00  15.16700   2 ;     C9-    C8-    C5-    H5
    10      6      5     16      9   180.00  15.16700   2 ;    C10-    C6-    C5-    H5
    11     10      6     17      9   180.00  15.16700   2 ;     O1-   C10-    C6-    H6
    11     10      7     18      9   180.00  15.16700   2 ;     O1-   C10-    C7-    H7
    12      1      2      4      9   180.00  15.16700   2 ;     H1-    C1-    C2-    C4
    12      1      2     13      9   180.00  15.16700   2 ;     H1-    C1-    C2-    H2
    12      1      3      8      9   180.00  15.16700   2 ;     H1-    C1-    C3-    C8
    12      1      3     14      9   180.00  15.16700   2 ;     H1-    C1-    C3-    H3
    13      2      4     15      9   180.00  15.16700   2 ;     H2-    C2-    C4-    H4
    16      5      6     17      9   180.00  15.16700   2 ;     H5-    C5-    C6-    H6

[ dihedrals ] ; impropers
; treated as propers in GROMACS to use correct AMBER analytical function
;    i      j      k      l   func   phase     kd      pn
     1      4      2     13      4   180.00   4.60240   2 ;     C1-    C4-    C2-    H2
     1      8      3     14      4   180.00   4.60240   2 ;     C1-    C8-    C3-    H3
     2      9      4     15      4   180.00   4.60240   2 ;     C2-    C9-    C4-    H4
     3      5      8      9      4   180.00   4.60240   2 ;     C3-    C5-    C8-    C9
     4      7      9      8      4   180.00   4.60240   2 ;     C4-    C7-    C9-    C8
     5     10      6     17      4   180.00   4.60240   2 ;     C5-   C10-    C6-    H6
     6      7     10     11      4   180.00   4.60240   2 ;     C6-    C7-   C10-    O1
     6      8      5     16      4   180.00   4.60240   2 ;     C6-    C8-    C5-    H5
     9     10      7     18      4   180.00   4.60240   2 ;     C9-   C10-    C7-    H7
    12      1      3      2      4   180.00   4.60240   2 ;     H1-    C1-    C3-    C2
