; mobley_6727159_GMX.itp created by acpype (v: 2023.10.27) on Thu May 14 13:49:51 2026

[ atomtypes ]
;name   bond_type     mass     charge   ptype   sigma         epsilon       Amb
 c3       c3          0.00000  0.00000   A     3.39771e-01   4.51035e-01 ; 1.91  0.1078
 no       no          0.00000  0.00000   A     3.36510e-01   3.58987e-01 ; 1.89  0.0858
 o        o           0.00000  0.00000   A     3.04812e-01   6.12119e-01 ; 1.71  0.1463
 oh       oh          0.00000  0.00000   A     3.24287e-01   3.89112e-01 ; 1.82  0.0930
 os       os          0.00000  0.00000   A     3.15610e-01   3.03758e-01 ; 1.77  0.0726
 h1       h1          0.00000  0.00000   A     2.42200e-01   8.70272e-02 ; 1.36  0.0208
 ho       ho          0.00000  0.00000   A     5.37925e-02   1.96648e-02 ; 0.30  0.0047

[ moleculetype ]
;name            nrexcl
 mobley_6727159   3

[ atoms ]
;   nr  type  resi  res  atom  cgnr     charge      mass       ; qtot   bond_type
     1   c3     1   MOL    C1    1     0.130400     12.01000 ; qtot 0.130
     2   c3     1   MOL    C2    2     0.088400     12.01000 ; qtot 0.219
     3   no     1   MOL    N1    3     0.380200     14.01000 ; qtot 0.599
     4    o     1   MOL    O1    4    -0.178500     16.00000 ; qtot 0.420
     5    o     1   MOL    O2    5    -0.178500     16.00000 ; qtot 0.242
     6   oh     1   MOL    O3    6    -0.589800     16.00000 ; qtot -0.348
     7   os     1   MOL    O4    7    -0.364000     16.00000 ; qtot -0.712
     8   h1     1   MOL    H1    8     0.069200      1.00800 ; qtot -0.643
     9   h1     1   MOL    H2    9     0.069200      1.00800 ; qtot -0.573
    10   h1     1   MOL    H3   10     0.079700      1.00800 ; qtot -0.494
    11   h1     1   MOL    H4   11     0.079700      1.00800 ; qtot -0.414
    12   ho     1   MOL    H5   12     0.414000      1.00800 ; qtot 0.000

[ bonds ]
;   ai     aj funct   r             k
     1      2   1    1.5354e-01    1.9154e+05 ;     C1 - C2    
     1      6   1    1.4242e-01    2.3861e+05 ;     C1 - O3    
     1      8   1    1.0969e-01    2.8804e+05 ;     C1 - H1    
     1      9   1    1.0969e-01    2.8804e+05 ;     C1 - H2    
     2      7   1    1.4273e-01    2.3620e+05 ;     C2 - O4    
     2     10   1    1.0969e-01    2.8804e+05 ;     C2 - H3    
     2     11   1    1.0969e-01    2.8804e+05 ;     C2 - H4    
     3      4   1    1.2311e-01    3.0270e+05 ;     N1 - O1    
     3      5   1    1.2311e-01    3.0270e+05 ;     N1 - O2    
     3      7   1    1.4202e-01    1.5509e+05 ;     N1 - O4    
     6     12   1    9.7250e-02    4.4811e+05 ;     O3 - H5    

[ pairs ]
;   ai     aj    funct
     1      3      1 ;     C1 - N1    
     2      4      1 ;     C2 - O1    
     2      5      1 ;     C2 - O2    
     2     12      1 ;     C2 - H5    
     3     10      1 ;     N1 - H3    
     3     11      1 ;     N1 - H4    
     6      7      1 ;     O3 - O4    
     6     10      1 ;     O3 - H3    
     6     11      1 ;     O3 - H4    
     8      7      1 ;     H1 - O4    
     8     10      1 ;     H1 - H3    
     8     11      1 ;     H1 - H4    
     8     12      1 ;     H1 - H5    
     9      7      1 ;     H2 - O4    
     9     10      1 ;     H2 - H3    
     9     11      1 ;     H2 - H4    
     9     12      1 ;     H2 - H5    

[ angles ]
;   ai     aj     ak    funct   theta         cth
     1      2      7      1    1.0762e+02    6.4802e+02 ;     C1 - C2     - O4    
     1      2     10      1    1.0959e+02    3.6217e+02 ;     C1 - C2     - H3    
     1      2     11      1    1.0959e+02    3.6217e+02 ;     C1 - C2     - H4    
     1      6     12      1    1.0739e+02    5.4501e+02 ;     C1 - O3     - H5    
     2      1      6      1    1.0966e+02    6.4258e+02 ;     C2 - C1     - O3    
     2      1      8      1    1.0959e+02    3.6217e+02 ;     C2 - C1     - H1    
     2      1      9      1    1.0959e+02    3.6217e+02 ;     C2 - C1     - H2    
     2      7      3      1    1.1387e+02    7.8567e+02 ;     C2 - O4     - N1    
     4      3      5      1    1.2505e+02    1.0964e+03 ;     O1 - N1     - O2    
     4      3      7      1    1.1480e+02    1.0519e+03 ;     O1 - N1     - O4    
     5      3      7      1    1.1480e+02    1.0519e+03 ;     O2 - N1     - O4    
     6      1      8      1    1.1038e+02    4.7103e+02 ;     O3 - C1     - H1    
     6      1      9      1    1.1038e+02    4.7103e+02 ;     O3 - C1     - H2    
     7      2     10      1    1.1034e+02    4.7028e+02 ;     O4 - C2     - H3    
     7      2     11      1    1.1034e+02    4.7028e+02 ;     O4 - C2     - H4    
     8      1      9      1    1.0855e+02    2.9824e+02 ;     H1 - C1     - H2    
    10      2     11      1    1.0855e+02    2.9824e+02 ;     H3 - C2     - H4    

[ dihedrals ] ; propers
; for gromacs 4.5 or higher, using funct 9
;    i      j      k      l   func   phase     kd      pn
     1      2      7      3      9     0.00   1.60387   3 ;     C1-    C2-    O4-    N1
     2      1      6     12      9     0.00   0.25104   3 ;     C2-    C1-    O3-    H5
     2      7      3      4      9   180.00  10.60644   2 ;     C2-    O4-    N1-    O1
     2      7      3      5      9   180.00  10.60644   2 ;     C2-    O4-    N1-    O2
     3      7      2     10      9     0.00   1.60387   3 ;     N1-    O4-    C2-    H3
     3      7      2     11      9     0.00   1.60387   3 ;     N1-    O4-    C2-    H4
     6      1      2      7      9     0.00   0.65084   3 ;     O3-    C1-    C2-    O4
     6      1      2     10      9     0.00   0.00000   0 ;     O3-    C1-    C2-    H3
     6      1      2     10      9     0.00   1.04600   1 ;     O3-    C1-    C2-    H3
     6      1      2     11      9     0.00   0.00000   0 ;     O3-    C1-    C2-    H4
     6      1      2     11      9     0.00   1.04600   1 ;     O3-    C1-    C2-    H4
     8      1      2      7      9     0.00   0.00000   0 ;     H1-    C1-    C2-    O4
     8      1      2      7      9     0.00   1.04600   1 ;     H1-    C1-    C2-    O4
     8      1      2     10      9     0.00   0.65084   3 ;     H1-    C1-    C2-    H3
     8      1      2     11      9     0.00   0.65084   3 ;     H1-    C1-    C2-    H4
     8      1      6     12      9     0.00   0.51463   3 ;     H1-    C1-    O3-    H5
     9      1      2      7      9     0.00   0.00000   0 ;     H2-    C1-    C2-    O4
     9      1      2      7      9     0.00   1.04600   1 ;     H2-    C1-    C2-    O4
     9      1      2     10      9     0.00   0.65084   3 ;     H2-    C1-    C2-    H3
     9      1      2     11      9     0.00   0.65084   3 ;     H2-    C1-    C2-    H4
     9      1      6     12      9     0.00   0.51463   3 ;     H2-    C1-    O3-    H5

[ dihedrals ] ; impropers
; treated as propers in GROMACS to use correct AMBER analytical function
;    i      j      k      l   func   phase     kd      pn
     4      5      3      7      4   180.00   4.60240   2 ;     O1-    O2-    N1-    O4
