; mobley_2310185_GMX.itp created by acpype (v: 2023.10.27) on Thu May 14 13:16:33 2026

[ atomtypes ]
;name   bond_type     mass     charge   ptype   sigma         epsilon       Amb
 c3       c3          0.00000  0.00000   A     3.39771e-01   4.51035e-01 ; 1.91  0.1078
 oh       oh          0.00000  0.00000   A     3.24287e-01   3.89112e-01 ; 1.82  0.0930
 hc       hc          0.00000  0.00000   A     2.60018e-01   8.70272e-02 ; 1.46  0.0208
 h1       h1          0.00000  0.00000   A     2.42200e-01   8.70272e-02 ; 1.36  0.0208
 ho       ho          0.00000  0.00000   A     5.37925e-02   1.96648e-02 ; 0.30  0.0047

[ moleculetype ]
;name            nrexcl
 mobley_2310185   3

[ atoms ]
;   nr  type  resi  res  atom  cgnr     charge      mass       ; qtot   bond_type
     1   c3     1   MOL    C1    1    -0.136100     12.01000 ; qtot -0.136
     2   c3     1   MOL    C2    2     0.126400     12.01000 ; qtot -0.010
     3   oh     1   MOL    O1    3    -0.599801     16.00000 ; qtot -0.610
     4   hc     1   MOL    H1    4     0.042367      1.00800 ; qtot -0.567
     5   hc     1   MOL    H2    5     0.042367      1.00800 ; qtot -0.525
     6   hc     1   MOL    H3    6     0.042367      1.00800 ; qtot -0.482
     7   h1     1   MOL    H4    7     0.043200      1.00800 ; qtot -0.439
     8   h1     1   MOL    H5    8     0.043200      1.00800 ; qtot -0.396
     9   ho     1   MOL    H6    9     0.396000      1.00800 ; qtot 0.000

[ bonds ]
;   ai     aj funct   r             k
     1      2   1    1.5354e-01    1.9154e+05 ;     C1 - C2    
     1      4   1    1.0962e-01    2.8891e+05 ;     C1 - H1    
     1      5   1    1.0962e-01    2.8891e+05 ;     C1 - H2    
     1      6   1    1.0962e-01    2.8891e+05 ;     C1 - H3    
     2      3   1    1.4242e-01    2.3861e+05 ;     C2 - O1    
     2      7   1    1.0969e-01    2.8804e+05 ;     C2 - H4    
     2      8   1    1.0969e-01    2.8804e+05 ;     C2 - H5    
     3      9   1    9.7250e-02    4.4811e+05 ;     O1 - H6    

[ pairs ]
;   ai     aj    funct
     1      9      1 ;     C1 - H6    
     4      3      1 ;     H1 - O1    
     4      7      1 ;     H1 - H4    
     4      8      1 ;     H1 - H5    
     5      3      1 ;     H2 - O1    
     5      7      1 ;     H2 - H4    
     5      8      1 ;     H2 - H5    
     6      3      1 ;     H3 - O1    
     6      7      1 ;     H3 - H4    
     6      8      1 ;     H3 - H5    
     7      9      1 ;     H4 - H6    
     8      9      1 ;     H5 - H6    

[ angles ]
;   ai     aj     ak    funct   theta         cth
     1      2      3      1    1.0966e+02    6.4258e+02 ;     C1 - C2     - O1    
     1      2      7      1    1.0959e+02    3.6217e+02 ;     C1 - C2     - H4    
     1      2      8      1    1.0959e+02    3.6217e+02 ;     C1 - C2     - H5    
     2      1      4      1    1.0968e+02    3.6208e+02 ;     C2 - C1     - H1    
     2      1      5      1    1.0968e+02    3.6208e+02 ;     C2 - C1     - H2    
     2      1      6      1    1.0968e+02    3.6208e+02 ;     C2 - C1     - H3    
     2      3      9      1    1.0739e+02    5.4501e+02 ;     C2 - O1     - H6    
     3      2      7      1    1.1038e+02    4.7103e+02 ;     O1 - C2     - H4    
     3      2      8      1    1.1038e+02    4.7103e+02 ;     O1 - C2     - H5    
     4      1      5      1    1.0773e+02    2.9957e+02 ;     H1 - C1     - H2    
     4      1      6      1    1.0773e+02    2.9957e+02 ;     H1 - C1     - H3    
     5      1      6      1    1.0773e+02    2.9957e+02 ;     H2 - C1     - H3    
     7      2      8      1    1.0855e+02    2.9824e+02 ;     H4 - C2     - H5    

[ dihedrals ] ; propers
; for gromacs 4.5 or higher, using funct 9
;    i      j      k      l   func   phase     kd      pn
     1      2      3      9      9     0.00   0.25104   3 ;     C1-    C2-    O1-    H6
     4      1      2      3      9     0.00   0.37656   3 ;     H1-    C1-    C2-    O1
     4      1      2      7      9     0.00   0.65084   3 ;     H1-    C1-    C2-    H4
     4      1      2      8      9     0.00   0.65084   3 ;     H1-    C1-    C2-    H5
     5      1      2      3      9     0.00   0.37656   3 ;     H2-    C1-    C2-    O1
     5      1      2      7      9     0.00   0.65084   3 ;     H2-    C1-    C2-    H4
     5      1      2      8      9     0.00   0.65084   3 ;     H2-    C1-    C2-    H5
     6      1      2      3      9     0.00   0.37656   3 ;     H3-    C1-    C2-    O1
     6      1      2      7      9     0.00   0.65084   3 ;     H3-    C1-    C2-    H4
     6      1      2      8      9     0.00   0.65084   3 ;     H3-    C1-    C2-    H5
     7      2      3      9      9     0.00   0.51463   3 ;     H4-    C2-    O1-    H6
     8      2      3      9      9     0.00   0.51463   3 ;     H5-    C2-    O1-    H6
