mobley_8614858_GMX.gro created by acpype (v: 2023.10.27) on Thu May 14 13:54:42 2026
 2549
    1MOL     C1    1   1.303   1.756   1.279
    1MOL     C2    2   1.681   1.230   1.676
    1MOL     C3    3   1.310   1.609   1.320
    1MOL     C4    4   1.560   1.257   1.588
    1MOL     C5    5   1.427   1.578   1.413
    1MOL     C6    6   1.553   1.404   1.548
    1MOL     C7    7   1.432   1.431   1.457
    1MOL     H1    8   1.223   1.770   1.205
    1MOL     H2    9   1.397   1.789   1.234
    1MOL     H3   10   1.281   1.820   1.364
    1MOL     H4   11   1.774   1.254   1.623
    1MOL     H5   12   1.677   1.289   1.768
    1MOL     H6   13   1.685   1.124   1.703
    1MOL     H7   14   1.320   1.548   1.230
    1MOL     H8   15   1.216   1.580   1.368
    1MOL     H9   16   1.469   1.229   1.642
    1MOL    H10   17   1.566   1.194   1.498
    1MOL    H11   18   1.520   1.603   1.361
    1MOL    H12   19   1.422   1.642   1.502
    1MOL    H13   20   1.545   1.467   1.638
    1MOL    H14   21   1.645   1.433   1.496
    1MOL    H15   22   1.340   1.404   1.510
    1MOL    H16   23   1.439   1.367   1.368
    2SOL     OW   24   0.230   0.628   0.113
    2SOL    HW1   25   0.137   0.626   0.150
    2SOL    HW2   26   0.231   0.589   0.021
    3SOL     OW   27   0.225   0.275   0.996
    3SOL    HW1   28   0.260   0.258   1.088
    3SOL    HW2   29   0.137   0.230   0.984
    4SOL     OW   30   0.019   0.368   0.647
    4SOL    HW1   31  -0.063   0.411   0.686
    4SOL    HW2   32  -0.009   0.295   0.584
    5SOL     OW   33   0.569   1.275   1.165
    5SOL    HW1   34   0.476   1.268   1.128
    5SOL    HW2   35   0.580   1.364   1.209
    6SOL     OW   36   1.555   1.511   0.703
    6SOL    HW1   37   1.498   1.495   0.784
    6SOL    HW2   38   1.496   1.521   0.623
    7SOL     OW   39   1.135   0.703   0.717
    7SOL    HW1   40   1.192   0.781   0.692
    7SOL    HW2   41   1.075   0.729   0.793
    8SOL     OW   42   1.755   0.607   0.231
    8SOL    HW1   43   1.743   0.594   0.132
    8SOL    HW2   44   1.725   0.526   0.280
    9SOL     OW   45   0.768   1.144   1.023
    9SOL    HW1   46   0.690   1.161   1.083
    9SOL    HW2   47   0.802   1.231   0.987
   10SOL     OW   48   0.850   0.798   1.823
   10SOL    HW1   49   0.846   0.874   1.888
   10SOL    HW2   50   0.872   0.834   1.732
   11SOL     OW   51   0.685   1.012   0.665
   11SOL    HW1   52   0.754   0.996   0.735
   11SOL    HW2   53   0.612   1.069   0.703
   12SOL     OW   54   0.686   1.161   1.803
   12SOL    HW1   55   0.746   1.240   1.817
   12SOL    HW2   56   0.600   1.192   1.762
   13SOL     OW   57   0.335   1.435   1.061
   13SOL    HW1   58   0.257   1.404   1.008
   13SOL    HW2   59   0.393   1.493   1.004
   14SOL     OW   60   0.438   0.392   1.499
   14SOL    HW1   61   0.520   0.336   1.508
   14SOL    HW2   62   0.357   0.334   1.503
   15SOL     OW   63   1.603   0.447   0.737
   15SOL    HW1   64   1.529   0.493   0.687
   15SOL    HW2   65   1.654   0.515   0.790
   16SOL     OW   66   0.231   1.713   0.483
   16SOL    HW1   67   0.265   1.790   0.537
   16SOL    HW2   68   0.275   1.713   0.393
   17SOL     OW   69   1.127   1.341   1.690
   17SOL    HW1   70   1.174   1.341   1.778
   17SOL    HW2   71   1.079   1.254   1.679
   18SOL     OW   72   0.230   1.434   0.538
   18SOL    HW1   73   0.204   1.530   0.538
   18SOL    HW2   74   0.159   1.380   0.583
   19SOL     OW   75   0.240   1.091   0.886
   19SOL    HW1   76   0.254   1.007   0.938
   19SOL    HW2   77   0.185   1.155   0.941
   20SOL     OW   78   0.620   1.786   1.439
   20SOL    HW1   79   0.528   1.769   1.474
   20SOL    HW2   80   0.648   1.878   1.465
   21SOL     OW   81   0.606   0.964   0.123
   21SOL    HW1   82   0.613   1.048   0.069
   21SOL    HW2   83   0.652   0.977   0.211
   22SOL     OW   84   1.594   0.114   1.480
   22SOL    HW1   85   1.576   0.181   1.408
   22SOL    HW2   86   1.591   0.160   1.569
   23SOL     OW   87   0.122   0.643   0.563
   23SOL    HW1   88   0.077   0.555   0.580
   23SOL    HW2   89   0.121   0.697   0.647
   24SOL     OW   90   1.842   1.767   0.359
   24SOL    HW1   91   1.896   1.738   0.439
   24SOL    HW2   92   1.872   1.857   0.330
   25SOL     OW   93   0.027   1.596   0.117
   25SOL    HW1   94   0.008   1.500   0.138
   25SOL    HW2   95  -0.006   1.654   0.192
   26SOL     OW   96   1.689   0.922   0.612
   26SOL    HW1   97   1.784   0.893   0.620
   26SOL    HW2   98   1.681   0.987   0.537
   27SOL     OW   99   1.641   1.108   0.432
   27SOL    HW1  100   1.727   1.110   0.380
   27SOL    HW2  101   1.655   1.155   0.520
   28SOL     OW  102   0.113   0.737   1.597
   28SOL    HW1  103   0.201   0.724   1.642
   28SOL    HW2  104   0.100   0.834   1.575
   29SOL     OW  105   0.613   1.365   0.726
   29SOL    HW1  106   0.564   1.278   0.735
   29SOL    HW2  107   0.590   1.408   0.639
   30SOL     OW  108   1.293   1.228   1.423
   30SOL    HW1  109   1.330   1.155   1.365
   30SOL    HW2  110   1.345   1.233   1.508
   31SOL     OW  111   0.809   0.004   0.502
   31SOL    HW1  112   0.849   0.095   0.493
   31SOL    HW2  113   0.709   0.012   0.508
   32SOL     OW  114   0.197   0.976   1.264
   32SOL    HW1  115   0.286   0.931   1.250
   32SOL    HW2  116   0.124   0.911   1.245
   33SOL     OW  117   1.525   0.999   0.190
   33SOL    HW1  118   1.462   0.923   0.203
   33SOL    HW2  119   1.573   1.017   0.276
   34SOL     OW  120   1.187   1.792   1.616
   34SOL    HW1  121   1.211   1.852   1.540
   34SOL    HW2  122   1.194   1.697   1.586
   35SOL     OW  123   0.317   0.251   1.801
   35SOL    HW1  124   0.388   0.322   1.807
   35SOL    HW2  125   0.229   0.290   1.829
   36SOL     OW  126   1.466   1.417   0.953
   36SOL    HW1  127   1.407   1.423   1.033
   36SOL    HW2  128   1.451   1.329   0.907
   37SOL     OW  129   1.667   1.714   0.572
   37SOL    HW1  130   1.626   1.691   0.484
   37SOL    HW2  131   1.649   1.640   0.637
   38SOL     OW  132   0.598   0.729   0.270
   38SOL    HW1  133   0.622   0.798   0.202
   38SOL    HW2  134   0.520   0.762   0.324
   39SOL     OW  135   1.281   0.345   0.944
   39SOL    HW1  136   1.195   0.295   0.931
   39SOL    HW2  137   1.343   0.291   1.000
   40SOL     OW  138   1.576   1.662   0.307
   40SOL    HW1  139   1.665   1.708   0.310
   40SOL    HW2  140   1.555   1.638   0.212
   41SOL     OW  141   0.807   0.605   1.465
   41SOL    HW1  142   0.760   0.602   1.554
   41SOL    HW2  143   0.756   0.550   1.399
   42SOL     OW  144   1.394   0.469   1.674
   42SOL    HW1  145   1.374   0.512   1.762
   42SOL    HW2  146   1.472   0.407   1.683
   43SOL     OW  147   0.973   0.890   1.572
   43SOL    HW1  148   1.019   0.806   1.543
   43SOL    HW2  149   0.917   0.924   1.497
   44SOL     OW  150   0.991   0.410   1.242
   44SOL    HW1  151   0.914   0.444   1.296
   44SOL    HW2  152   0.957   0.359   1.163
   45SOL     OW  153   1.041   0.701   0.429
   45SOL    HW1  154   1.067   0.697   0.525
   45SOL    HW2  155   0.956   0.650   0.415
   46SOL     OW  156   0.076   0.811   0.789
   46SOL    HW1  157   0.175   0.799   0.798
   46SOL    HW2  158   0.052   0.906   0.810
   47SOL     OW  159   0.130   1.821   1.571
   47SOL    HW1  160   0.120   1.806   1.670
   47SOL    HW2  161   0.044   1.857   1.535
   48SOL     OW  162   0.865   0.348   0.195
   48SOL    HW1  163   0.924   0.411   0.146
   48SOL    HW2  164   0.884   0.254   0.166
   49SOL     OW  165   1.719   0.585   1.831
   49SOL    HW1  166   1.693   0.674   1.795
   49SOL    HW2  167   1.717   0.517   1.758
   50SOL     OW  168   1.362   1.144   0.545
   50SOL    HW1  169   1.445   1.115   0.497
   50SOL    HW2  170   1.313   1.211   0.489
   51SOL     OW  171   0.550   0.196   0.885
   51SOL    HW1  172   0.545   0.191   0.985
   51SOL    HW2  173   0.552   0.292   0.856
   52SOL     OW  174   1.008   1.456   0.477
   52SOL    HW1  175   0.962   1.528   0.425
   52SOL    HW2  176   1.004   1.476   0.575
   53SOL     OW  177   0.351   1.801   0.853
   53SOL    HW1  178   0.401   1.715   0.859
   53SOL    HW2  179   0.416   1.878   0.850
   54SOL     OW  180   1.795   1.066   0.873
   54SOL    HW1  181   1.733   1.051   0.797
   54SOL    HW2  182   1.743   1.077   0.958
   55SOL     OW  183   0.321   0.943   0.242
   55SOL    HW1  184   0.403   0.982   0.200
   55SOL    HW2  185   0.294   0.861   0.193
   56SOL     OW  186   1.458   0.735   0.728
   56SOL    HW1  187   1.453   0.670   0.803
   56SOL    HW2  188   1.538   0.794   0.741
   57SOL     OW  189   0.461   1.266   1.727
   57SOL    HW1  190   0.411   1.267   1.641
   57SOL    HW2  191   0.398   1.248   1.803
   58SOL     OW  192   1.111   1.776   0.237
   58SOL    HW1  193   1.051   1.714   0.287
   58SOL    HW2  194   1.142   1.732   0.152
   59SOL     OW  195   0.202   0.285   1.498
   59SOL    HW1  196   0.122   0.345   1.485
   59SOL    HW2  197   0.192   0.236   1.584
   60SOL     OW  198   1.632   1.377   0.081
   60SOL    HW1  199   1.600   1.471   0.071
   60SOL    HW2  200   1.556   1.314   0.069
   61SOL     OW  201   0.464   1.743   0.323
   61SOL    HW1  202   0.497   1.782   0.409
   61SOL    HW2  203   0.540   1.736   0.258
   62SOL     OW  204   1.400   0.107   0.426
   62SOL    HW1  205   1.376   0.070   0.336
   62SOL    HW2  206   1.499   0.123   0.430
   63SOL     OW  207   0.249   1.785   1.241
   63SOL    HW1  208   0.306   1.720   1.291
   63SOL    HW2  209   0.233   1.752   1.148
   64SOL     OW  210   0.940   1.698   0.904
   64SOL    HW1  211   1.020   1.641   0.925
   64SOL    HW2  212   0.891   1.658   0.827
   65SOL     OW  213   0.382   0.700   0.480
   65SOL    HW1  214   0.427   0.610   0.477
   65SOL    HW2  215   0.288   0.689   0.513
   66SOL     OW  216   1.547   0.222   1.729
   66SOL    HW1  217   1.542   0.259   1.821
   66SOL    HW2  218   1.475   0.153   1.717
   67SOL     OW  219   0.614   0.122   0.117
   67SOL    HW1  220   0.712   0.100   0.124
   67SOL    HW2  221   0.583   0.105   0.024
   68SOL     OW  222   0.781   0.264   1.749
   68SOL    HW1  223   0.848   0.203   1.792
   68SOL    HW2  224   0.708   0.283   1.814
   69SOL     OW  225   0.888   1.514   1.195
   69SOL    HW1  226   0.865   1.489   1.101
   69SOL    HW2  227   0.949   1.445   1.234
   70SOL     OW  228   1.351   0.590   1.433
   70SOL    HW1  229   1.379   0.547   1.518
   70SOL    HW2  230   1.376   0.686   1.434
   71SOL     OW  231   0.803   1.402   0.924
   71SOL    HW1  232   0.893   1.416   0.882
   71SOL    HW2  233   0.732   1.404   0.853
   72SOL     OW  234   0.922   0.503   0.899
   72SOL    HW1  235   0.897   0.494   0.803
   72SOL    HW2  236   0.970   0.421   0.930
   73SOL     OW  237   0.539   0.064   0.512
   73SOL    HW1  238   0.458   0.065   0.570
   73SOL    HW2  239   0.542   0.147   0.457
   74SOL     OW  240   1.434   1.188   0.041
   74SOL    HW1  241   1.466   1.112   0.098
   74SOL    HW2  242   1.342   1.215   0.071
   75SOL     OW  243   0.297   0.035   0.171
   75SOL    HW1  244   0.346   0.119   0.150
   75SOL    HW2  245   0.359  -0.030   0.216
   76SOL     OW  246   0.935   0.236   0.480
   76SOL    HW1  247   0.887   0.277   0.402
   76SOL    HW2  248   1.034   0.234   0.461
   77SOL     OW  249   1.076   0.683   1.464
   77SOL    HW1  250   0.996   0.622   1.467
   77SOL    HW2  251   1.157   0.630   1.440
   78SOL     OW  252   1.227   1.570   0.793
   78SOL    HW1  253   1.248   1.644   0.728
   78SOL    HW2  254   1.295   1.570   0.866
   79SOL     OW  255   0.459   1.152   0.741
   79SOL    HW1  256   0.388   1.125   0.806
   79SOL    HW2  257   0.433   1.124   0.648
   80SOL     OW  258   1.271   1.797   0.591
   80SOL    HW1  259   1.315   1.861   0.527
   80SOL    HW2  260   1.221   1.849   0.661
   81SOL     OW  261   1.032   0.549   0.016
   81SOL    HW1  262   0.991   0.631  -0.023
   81SOL    HW2  263   1.096   0.575   0.089
   82SOL     OW  264   0.078   0.556   1.386
   82SOL    HW1  265   0.170   0.555   1.345
   82SOL    HW2  266   0.072   0.630   1.453
   83SOL     OW  267   0.561   0.222   1.147
   83SOL    HW1  268   0.599   0.138   1.184
   83SOL    HW2  269   0.473   0.241   1.191
   84SOL     OW  270   0.866   0.454   0.642
   84SOL    HW1  271   0.834   0.526   0.580
   84SOL    HW2  272   0.890   0.373   0.589
   85SOL     OW  273   1.017   0.039   0.753
   85SOL    HW1  274   0.945   0.044   0.684
   85SOL    HW2  275   0.993  -0.030   0.822
   86SOL     OW  276   1.429   1.173   0.867
   86SOL    HW1  277   1.374   1.089   0.860
   86SOL    HW2  278   1.455   1.202   0.775
   87SOL     OW  279   1.466   0.590   0.992
   87SOL    HW1  280   1.436   0.495   0.999
   87SOL    HW2  281   1.539   0.606   1.058
   88SOL     OW  282   1.857   0.833   0.377
   88SOL    HW1  283   1.899   0.769   0.441
   88SOL    HW2  284   1.819   0.782   0.299
   89SOL     OW  285   0.488   1.385   0.174
   89SOL    HW1  286   0.401   1.370   0.221
   89SOL    HW2  287   0.471   1.411   0.079
   90SOL     OW  288   1.664   1.280   0.657
   90SOL    HW1  289   1.763   1.288   0.671
   90SOL    HW2  290   1.619   1.364   0.688
   91SOL     OW  291   1.390   0.575   0.078
   91SOL    HW1  292   1.336   0.554   0.159
   91SOL    HW2  293   1.481   0.534   0.087
   92SOL     OW  294   0.527   0.256   0.328
   92SOL    HW1  295   0.554   0.197   0.253
   92SOL    HW2  296   0.527   0.351   0.297
   93SOL     OW  297   1.064   1.347   1.340
   93SOL    HW1  298   0.984   1.324   1.395
   93SOL    HW2  299   1.147   1.321   1.389
   94SOL     OW  300   1.592   1.629   1.625
   94SOL    HW1  301   1.619   1.663   1.535
   94SOL    HW2  302   1.671   1.591   1.671
   95SOL     OW  303   1.111   1.195   1.100
   95SOL    HW1  304   1.071   1.239   1.181
   95SOL    HW2  305   1.070   1.232   1.017
   96SOL     OW  306   1.638   1.099   1.079
   96SOL    HW1  307   1.643   1.180   1.138
   96SOL    HW2  308   1.552   1.101   1.028
   97SOL     OW  309   0.915   0.089   1.402
   97SOL    HW1  310   0.940   0.069   1.307
   97SOL    HW2  311   0.987   0.145   1.444
   98SOL     OW  312   0.980   1.116   1.719
   98SOL    HW1  313   0.881   1.122   1.729
   98SOL    HW2  314   1.003   1.036   1.663
   99SOL     OW  315   0.705   1.050   0.368
   99SOL    HW1  316   0.691   1.057   0.467
   99SOL    HW2  317   0.789   0.999   0.350
  100SOL     OW  318   0.410   0.813   1.251
  100SOL    HW1  319   0.496   0.825   1.301
  100SOL    HW2  320   0.368   0.726   1.278
  101SOL     OW  321   1.274   0.386   1.262
  101SOL    HW1  322   1.295   0.460   1.326
  101SOL    HW2  323   1.185   0.403   1.219
  102SOL     OW  324   0.064   1.564   1.331
  102SOL    HW1  325   0.018   1.646   1.297
  102SOL    HW2  326   0.162   1.583   1.340
  103SOL     OW  327   0.367   1.100   0.501
  103SOL    HW1  328   0.360   1.183   0.445
  103SOL    HW2  329   0.371   1.020   0.441
  104SOL     OW  330   0.566   0.537   0.865
  104SOL    HW1  331   0.578   0.603   0.791
  104SOL    HW2  332   0.612   0.571   0.948
  105SOL     OW  333   1.252   1.348   0.388
  105SOL    HW1  334   1.302   1.425   0.428
  105SOL    HW2  335   1.157   1.350   0.420
  106SOL     OW  336   1.582   0.639   0.472
  106SOL    HW1  337   1.551   0.700   0.545
  106SOL    HW2  338   1.632   0.691   0.403
  107SOL     OW  339   0.354   1.510   1.329
  107SOL    HW1  340   0.333   1.466   1.242
  107SOL    HW2  341   0.451   1.536   1.332
  108SOL     OW  342   0.402   0.751   1.598
  108SOL    HW1  343   0.470   0.806   1.551
  108SOL    HW2  344   0.442   0.663   1.625
  109SOL     OW  345   1.587   0.779   1.670
  109SOL    HW1  346   1.495   0.817   1.665
  109SOL    HW2  347   1.647   0.826   1.605
  110SOL     OW  348   1.013   0.105   1.770
  110SOL    HW1  349   1.019   0.190   1.718
  110SOL    HW2  350   1.045   0.029   1.713
  111SOL     OW  351   0.504   0.050   1.740
  111SOL    HW1  352   0.462  -0.007   1.670
  111SOL    HW2  353   0.438   0.119   1.772
  112SOL     OW  354   0.573   0.870   1.029
  112SOL    HW1  355   0.617   0.959   1.020
  112SOL    HW2  356   0.510   0.870   1.106
  113SOL     OW  357   1.360   0.862   1.045
  113SOL    HW1  358   1.285   0.862   0.979
  113SOL    HW2  359   1.397   0.770   1.054
  114SOL     OW  360   1.209   0.525   0.275
  114SOL    HW1  361   1.222   0.441   0.329
  114SOL    HW2  362   1.180   0.599   0.335
  115SOL     OW  363   0.307   0.213   1.231
  115SOL    HW1  364   0.284   0.250   1.321
  115SOL    HW2  365   0.277   0.118   1.225
  116SOL     OW  366   0.037   1.310   1.282
  116SOL    HW1  367   0.090   1.261   1.350
  116SOL    HW2  368   0.059   1.408   1.287
  117SOL     OW  369   0.732   0.634   1.064
  117SOL    HW1  370   0.791   0.608   0.988
  117SOL    HW2  371   0.704   0.730   1.053
  118SOL     OW  372   1.728   0.935   1.854
  118SOL    HW1  373   1.682   0.928   1.765
  118SOL    HW2  374   1.666   0.979   1.920
  119SOL     OW  375   0.307   0.063   0.618
  119SOL    HW1  376   0.296   0.157   0.651
  119SOL    HW2  377   0.302   0.000   0.695
  120SOL     OW  378   1.622   0.367   0.374
  120SOL    HW1  379   1.624   0.291   0.438
  120SOL    HW2  380   1.574   0.444   0.414
  121SOL     OW  381   1.023   0.766   0.966
  121SOL    HW1  382   1.038   0.787   1.062
  121SOL    HW2  383   0.993   0.671   0.957
  122SOL     OW  384   0.980   1.573   1.700
  122SOL    HW1  385   0.960   1.617   1.612
  122SOL    HW2  386   1.019   1.482   1.684
  123SOL     OW  387   1.859   1.518   1.605
  123SOL    HW1  388   1.873   1.545   1.510
  123SOL    HW2  389   1.942   1.540   1.658
  124SOL     OW  390   0.350   0.898   1.804
  124SOL    HW1  391   0.426   0.942   1.852
  124SOL    HW2  392   0.385   0.851   1.722
  125SOL     OW  393   1.540   0.274   0.125
  125SOL    HW1  394   1.479   0.199   0.148
  125SOL    HW2  395   1.562   0.326   0.208
  126SOL     OW  396   1.303   0.838   0.042
  126SOL    HW1  397   1.337   0.745   0.057
  126SOL    HW2  398   1.321   0.865  -0.053
  127SOL     OW  399   1.068   1.333   0.849
  127SOL    HW1  400   1.075   1.249   0.794
  127SOL    HW2  401   1.130   1.402   0.813
  128SOL     OW  402   0.319   0.810   0.949
  128SOL    HW1  403   0.412   0.846   0.954
  128SOL    HW2  404   0.313   0.725   1.001
  129SOL     OW  405   0.339   0.509   1.006
  129SOL    HW1  406   0.287   0.426   0.989
  129SOL    HW2  407   0.416   0.514   0.942
  130SOL     OW  408   1.138   0.380   1.678
  130SOL    HW1  409   1.093   0.443   1.742
  130SOL    HW2  410   1.231   0.411   1.661
  131SOL     OW  411   1.160   0.207   1.477
  131SOL    HW1  412   1.160   0.271   1.554
  131SOL    HW2  413   1.188   0.255   1.394
  132SOL     OW  414   0.008   1.326   0.200
  132SOL    HW1  415  -0.085   1.347   0.169
  132SOL    HW2  416   0.018   1.227   0.213
  133SOL     OW  417   0.088   1.801   0.927
  133SOL    HW1  418   0.046   1.715   0.900
  133SOL    HW2  419   0.182   1.804   0.893
  134SOL     OW  420   0.504   1.568   0.910
  134SOL    HW1  421   0.570   1.642   0.919
  134SOL    HW2  422   0.548   1.489   0.868
  135SOL     OW  423   1.002   0.796   1.238
  135SOL    HW1  424   1.043   0.764   1.324
  135SOL    HW2  425   0.906   0.769   1.235
  136SOL     OW  426   0.040   0.544   1.114
  136SOL    HW1  427   0.125   0.511   1.073
  136SOL    HW2  428   0.053   0.559   1.212
  137SOL     OW  429   0.189   0.520   1.722
  137SOL    HW1  430   0.248   0.480   1.652
  137SOL    HW2  431   0.131   0.591   1.681
  138SOL     OW  432   1.369   0.950   1.660
  138SOL    HW1  433   1.408   1.039   1.680
  138SOL    HW2  434   1.379   0.930   1.563
  139SOL     OW  435   0.815   0.572   0.325
  139SOL    HW1  436   0.822   0.483   0.279
  139SOL    HW2  437   0.721   0.606   0.317
  140SOL     OW  438   1.657   0.604   1.206
  140SOL    HW1  439   1.619   0.535   1.268
  140SOL    HW2  440   1.739   0.568   1.162
  141SOL     OW  441   0.252   1.564   1.744
  141SOL    HW1  442   0.222   1.621   1.820
  141SOL    HW2  443   0.245   1.467   1.770
  142SOL     OW  444   0.671   0.464   1.269
  142SOL    HW1  445   0.637   0.375   1.239
  142SOL    HW2  446   0.697   0.518   1.189
  143SOL     OW  447   0.930   1.678   1.465
  143SOL    HW1  448   0.906   1.660   1.370
  143SOL    HW2  449   0.960   1.772   1.475
  144SOL     OW  450   0.473   0.500   0.191
  144SOL    HW1  451   0.534   0.580   0.195
  144SOL    HW2  452   0.378   0.531   0.198
  145SOL     OW  453   0.159   1.137   1.466
  145SOL    HW1  454   0.181   1.076   1.542
  145SOL    HW2  455   0.169   1.088   1.380
  146SOL     OW  456   1.347   1.059   1.234
  146SOL    HW1  457   1.371   0.996   1.160
  146SOL    HW2  458   1.257   1.099   1.216
  147SOL     OW  459   1.302   0.855   0.309
  147SOL    HW1  460   1.216   0.824   0.351
  147SOL    HW2  461   1.298   0.841   0.210
  148SOL     OW  462   1.759   1.747   1.154
  148SOL    HW1  463   1.820   1.777   1.081
  148SOL    HW2  464   1.721   1.658   1.132
  149SOL     OW  465   0.083   1.258   1.022
  149SOL    HW1  466   0.078   1.257   1.122
  149SOL    HW2  467   0.000   1.217   0.984
  150SOL     OW  468   0.688   1.662   1.716
  150SOL    HW1  469   0.632   1.743   1.725
  150SOL    HW2  470   0.740   1.666   1.630
  151SOL     OW  471   0.903   0.086   0.133
  151SOL    HW1  472   0.954   0.087   0.047
  151SOL    HW2  473   0.959   0.044   0.204
  152SOL     OW  474   1.726   0.135   0.523
  152SOL    HW1  475   1.799   0.118   0.456
  152SOL    HW2  476   1.695   0.048   0.561
  153SOL     OW  477   1.388   1.573   0.477
  153SOL    HW1  478   1.455   1.585   0.403
  153SOL    HW2  479   1.348   1.662   0.500
  154SOL     OW  480   0.130   1.794   1.851
  154SOL    HW1  481   0.089   1.720   1.904
  154SOL    HW2  482   0.194   1.845   1.909
  155SOL     OW  483   1.280   0.927   0.672
  155SOL    HW1  484   1.340   0.846   0.674
  155SOL    HW2  485   1.320   0.996   0.612
  156SOL     OW  486   0.830   1.273   1.422
  156SOL    HW1  487   0.825   1.306   1.517
  156SOL    HW2  488   0.744   1.292   1.376
  157SOL     OW  489   0.672   1.616   0.154
  157SOL    HW1  490   0.681   1.626   0.055
  157SOL    HW2  491   0.632   1.527   0.175
  158SOL     OW  492   1.650   1.720   1.394
  158SOL    HW1  493   1.703   1.730   1.310
  158SOL    HW2  494   1.623   1.810   1.428
  159SOL     OW  495   1.841   0.175   0.963
  159SOL    HW1  496   1.880   0.090   0.927
  159SOL    HW2  497   1.743   0.177   0.944
  160SOL     OW  498   0.263   0.326   0.720
  160SOL    HW1  499   0.184   0.377   0.686
  160SOL    HW2  500   0.254   0.311   0.818
  161SOL     OW  501   1.194   1.612   0.031
  161SOL    HW1  502   1.200   1.519   0.068
  161SOL    HW2  503   1.135   1.612  -0.049
  162SOL     OW  504   0.822   1.002   1.372
  162SOL    HW1  505   0.862   1.001   1.280
  162SOL    HW2  506   0.832   1.094   1.412
  163SOL     OW  507   0.916   0.910   0.291
  163SOL    HW1  508   0.979   0.948   0.223
  163SOL    HW2  509   0.956   0.827   0.330
  164SOL     OW  510   1.504   1.607   0.044
  164SOL    HW1  511   1.412   1.644   0.051
  164SOL    HW2  512   1.542   1.627  -0.046
  165SOL     OW  513   0.372   1.288   1.490
  165SOL    HW1  514   0.359   1.381   1.456
  165SOL    HW2  515   0.288   1.236   1.477
  166SOL     OW  516   1.039   1.098   0.696
  166SOL    HW1  517   0.969   1.051   0.750
  166SOL    HW2  518   1.098   1.030   0.653
  167SOL     OW  519   1.014   0.236   0.971
  167SOL    HW1  520   1.006   0.200   0.878
  167SOL    HW2  521   1.012   0.160   1.036
  168SOL     OW  522   0.590   1.487   0.491
  168SOL    HW1  523   0.632   1.429   0.421
  168SOL    HW2  524   0.546   1.566   0.447
  169SOL     OW  525   1.709   0.385   1.381
  169SOL    HW1  526   1.782   0.454   1.385
  169SOL    HW2  527   1.737   0.310   1.322
  170SOL     OW  528   0.255   1.348   0.290
  170SOL    HW1  529   0.159   1.349   0.263
  170SOL    HW2  530   0.267   1.401   0.374
  171SOL     OW  531   0.105   1.013   1.726
  171SOL    HW1  532   0.028   0.980   1.780
  171SOL    HW2  533   0.190   0.983   1.768
  172SOL     OW  534   0.672   0.203   1.489
  172SOL    HW1  535   0.762   0.187   1.449
  172SOL    HW2  536   0.680   0.208   1.588
  173SOL     OW  537   0.075   0.345   0.033
  173SOL    HW1  538  -0.017   0.317   0.004
  173SOL    HW2  539   0.106   0.422  -0.023
  174SOL     OW  540   1.440   0.856   1.398
  174SOL    HW1  541   1.383   0.908   1.335
  174SOL    HW2  542   1.536   0.868   1.374
  175SOL     OW  543   0.072   0.166   0.318
  175SOL    HW1  544   0.055   0.249   0.264
  175SOL    HW2  545   0.162   0.129   0.296
  176SOL     OW  546   1.183   1.335   0.119
  176SOL    HW1  547   1.084   1.324   0.121
  176SOL    HW2  548   1.217   1.350   0.212
  177SOL     OW  549   0.613   0.842   1.431
  177SOL    HW1  550   0.669   0.923   1.414
  177SOL    HW2  551   0.672   0.762   1.434
  178SOL     OW  552   1.493   1.767   0.959
  178SOL    HW1  553   1.526   1.831   0.890
  178SOL    HW2  554   1.559   1.761   1.034
  179SOL     OW  555   0.716   0.565   1.708
  179SOL    HW1  556   0.735   0.630   1.782
  179SOL    HW2  557   0.776   0.485   1.717
  180SOL     OW  558   0.390   1.741   1.560
  180SOL    HW1  559   0.299   1.782   1.558
  180SOL    HW2  560   0.383   1.647   1.592
  181SOL     OW  561   1.674   0.883   1.254
  181SOL    HW1  562   1.647   0.794   1.217
  181SOL    HW2  563   1.675   0.951   1.181
  182SOL     OW  564   1.225   0.325   0.449
  182SOL    HW1  565   1.290   0.251   0.438
  182SOL    HW2  566   1.245   0.375   0.533
  183SOL     OW  567   0.594   0.745   0.652
  183SOL    HW1  568   0.644   0.830   0.633
  183SOL    HW2  569   0.506   0.747   0.604
  184SOL     OW  570   1.777   0.342   1.642
  184SOL    HW1  571   1.760   0.373   1.548
  184SOL    HW2  572   1.693   0.305   1.680
  185SOL     OW  573   1.730   0.934   1.517
  185SOL    HW1  574   1.768   1.025   1.532
  185SOL    HW2  575   1.722   0.917   1.418
  186SOL     OW  576   0.859   1.374   0.016
  186SOL    HW1  577   0.813   1.389   0.104
  186SOL    HW2  578   0.903   1.459  -0.014
  187SOL     OW  579   0.661   1.790   0.953
  187SOL    HW1  580   0.615   1.878   0.940
  187SOL    HW2  581   0.760   1.802   0.946
  188SOL     OW  582   0.859   0.956   0.861
  188SOL    HW1  583   0.913   0.887   0.909
  188SOL    HW2  584   0.827   1.025   0.927
  189SOL     OW  585   1.083   0.984   0.087
  189SOL    HW1  586   1.060   1.037   0.005
  189SOL    HW2  587   1.164   0.928   0.068
  190SOL     OW  588   1.861   1.569   0.851
  190SOL    HW1  589   1.790   1.557   0.781
  190SOL    HW2  590   1.862   1.490   0.911
  191SOL     OW  591   0.221   1.314   1.844
  191SOL    HW1  592   0.156   1.241   1.823
  191SOL    HW2  593   0.225   1.328   1.942
  192SOL     OW  594   0.079   1.240   0.653
  192SOL    HW1  595   0.078   1.193   0.741
  192SOL    HW2  596   0.161   1.212   0.602
  193SOL     OW  597   0.672   1.391   1.624
  193SOL    HW1  598   0.594   1.341   1.662
  193SOL    HW2  599   0.669   1.486   1.655
  194SOL     OW  600   1.824   0.192   1.227
  194SOL    HW1  601   1.820   0.102   1.271
  194SOL    HW2  602   1.827   0.181   1.128
  195SOL     OW  603   0.428   0.424   0.520
  195SOL    HW1  604   0.458   0.352   0.458
  195SOL    HW2  605   0.389   0.384   0.603
  196SOL     OW  606   1.705   1.487   1.104
  196SOL    HW1  607   1.612   1.462   1.077
  196SOL    HW2  608   1.731   1.437   1.186
  197SOL     OW  609   0.317   0.547   1.280
  197SOL    HW1  610   0.355   0.488   1.352
  197SOL    HW2  611   0.357   0.521   1.192
  198SOL     OW  612   0.812   1.586   0.687
  198SOL    HW1  613   0.844   1.596   0.593
  198SOL    HW2  614   0.733   1.524   0.689
  199SOL     OW  615   1.424   0.214   1.112
  199SOL    HW1  616   1.476   0.149   1.167
  199SOL    HW2  617   1.375   0.277   1.173
  200SOL     OW  618   1.001   0.034   1.154
  200SOL    HW1  619   0.938  -0.038   1.123
  200SOL    HW2  620   1.094  -0.002   1.154
  201SOL     OW  621   0.770   1.330   0.301
  201SOL    HW1  622   0.724   1.243   0.318
  201SOL    HW2  623   0.861   1.327   0.342
  202SOL     OW  624   0.618   1.567   1.284
  202SOL    HW1  625   0.613   1.649   1.341
  202SOL    HW2  626   0.707   1.564   1.239
  203SOL     OW  627   1.352   0.052   0.168
  203SOL    HW1  628   1.387   0.011   0.084
  203SOL    HW2  629   1.262   0.014   0.188
  204SOL     OW  630   1.300   0.453   0.691
  204SOL    HW1  631   1.241   0.533   0.695
  204SOL    HW2  632   1.315   0.418   0.784
  205SOL     OW  633   1.593   0.221   0.882
  205SOL    HW1  634   1.509   0.220   0.936
  205SOL    HW2  635   1.595   0.304   0.826
  206SOL     OW  636   0.039   1.077   0.300
  206SOL    HW1  637   0.138   1.066   0.291
  206SOL    HW2  638  -0.001   0.991   0.332
  207SOL     OW  639   0.875   1.646   0.337
  207SOL    HW1  640   0.798   1.611   0.283
  207SOL    HW2  641   0.843   1.717   0.399
  208SOL     OW  642   0.230   0.628   1.975
  208SOL    HW1  643   0.137   0.626   2.012
  208SOL    HW2  644   0.231   0.589   1.883
  209SOL     OW  645   0.225   0.275   2.858
  209SOL    HW1  646   0.260   0.258   2.950
  209SOL    HW2  647   0.137   0.230   2.846
  210SOL     OW  648   0.019   0.368   2.509
  210SOL    HW1  649  -0.063   0.411   2.548
  210SOL    HW2  650  -0.009   0.295   2.446
  211SOL     OW  651   1.555   1.511   2.565
  211SOL    HW1  652   1.498   1.495   2.646
  211SOL    HW2  653   1.496   1.521   2.485
  212SOL     OW  654   1.135   0.703   2.579
  212SOL    HW1  655   1.192   0.781   2.554
  212SOL    HW2  656   1.075   0.729   2.655
  213SOL     OW  657   1.755   0.607   2.093
  213SOL    HW1  658   1.743   0.594   1.994
  213SOL    HW2  659   1.725   0.526   2.142
  214SOL     OW  660   0.768   1.144   2.885
  214SOL    HW1  661   0.690   1.161   2.945
  214SOL    HW2  662   0.802   1.231   2.849
  215SOL     OW  663   0.685   1.012   2.527
  215SOL    HW1  664   0.754   0.996   2.597
  215SOL    HW2  665   0.612   1.069   2.565
  216SOL     OW  666   0.335   1.435   2.923
  216SOL    HW1  667   0.257   1.404   2.870
  216SOL    HW2  668   0.393   1.493   2.866
  217SOL     OW  669   1.603   0.447   2.599
  217SOL    HW1  670   1.529   0.493   2.549
  217SOL    HW2  671   1.654   0.515   2.652
  218SOL     OW  672   0.231   1.713   2.345
  218SOL    HW1  673   0.265   1.790   2.399
  218SOL    HW2  674   0.275   1.713   2.255
  219SOL     OW  675   0.230   1.434   2.400
  219SOL    HW1  676   0.204   1.530   2.400
  219SOL    HW2  677   0.159   1.380   2.445
  220SOL     OW  678   0.240   1.091   2.748
  220SOL    HW1  679   0.254   1.007   2.800
  220SOL    HW2  680   0.185   1.155   2.803
  221SOL     OW  681   0.606   0.964   1.985
  221SOL    HW1  682   0.613   1.048   1.931
  221SOL    HW2  683   0.652   0.977   2.073
  222SOL     OW  684   0.122   0.643   2.425
  222SOL    HW1  685   0.077   0.555   2.442
  222SOL    HW2  686   0.121   0.697   2.509
  223SOL     OW  687   1.842   1.767   2.221
  223SOL    HW1  688   1.896   1.738   2.301
  223SOL    HW2  689   1.872   1.857   2.192
  224SOL     OW  690   0.027   1.596   1.979
  224SOL    HW1  691   0.008   1.500   2.000
  224SOL    HW2  692  -0.006   1.654   2.054
  225SOL     OW  693   1.689   0.922   2.474
  225SOL    HW1  694   1.784   0.893   2.482
  225SOL    HW2  695   1.681   0.987   2.399
  226SOL     OW  696   1.641   1.108   2.294
  226SOL    HW1  697   1.727   1.110   2.242
  226SOL    HW2  698   1.655   1.155   2.382
  227SOL     OW  699   0.613   1.365   2.588
  227SOL    HW1  700   0.564   1.278   2.597
  227SOL    HW2  701   0.590   1.408   2.501
  228SOL     OW  702   0.809   0.004   2.364
  228SOL    HW1  703   0.849   0.095   2.355
  228SOL    HW2  704   0.709   0.012   2.370
  229SOL     OW  705   1.525   0.999   2.052
  229SOL    HW1  706   1.462   0.923   2.065
  229SOL    HW2  707   1.573   1.017   2.138
  230SOL     OW  708   1.466   1.417   2.815
  230SOL    HW1  709   1.407   1.423   2.895
  230SOL    HW2  710   1.451   1.329   2.769
  231SOL     OW  711   1.667   1.714   2.434
  231SOL    HW1  712   1.626   1.691   2.346
  231SOL    HW2  713   1.649   1.640   2.499
  232SOL     OW  714   0.598   0.729   2.132
  232SOL    HW1  715   0.622   0.798   2.064
  232SOL    HW2  716   0.520   0.762   2.186
  233SOL     OW  717   1.281   0.345   2.806
  233SOL    HW1  718   1.195   0.295   2.793
  233SOL    HW2  719   1.343   0.291   2.862
  234SOL     OW  720   1.576   1.662   2.169
  234SOL    HW1  721   1.665   1.708   2.172
  234SOL    HW2  722   1.555   1.638   2.074
  235SOL     OW  723   1.041   0.701   2.291
  235SOL    HW1  724   1.067   0.697   2.387
  235SOL    HW2  725   0.956   0.650   2.277
  236SOL     OW  726   0.076   0.811   2.651
  236SOL    HW1  727   0.175   0.799   2.660
  236SOL    HW2  728   0.052   0.906   2.672
  237SOL     OW  729   0.865   0.348   2.057
  237SOL    HW1  730   0.924   0.411   2.008
  237SOL    HW2  731   0.884   0.254   2.028
  238SOL     OW  732   1.362   1.144   2.407
  238SOL    HW1  733   1.445   1.115   2.359
  238SOL    HW2  734   1.313   1.211   2.351
  239SOL     OW  735   0.550   0.196   2.747
  239SOL    HW1  736   0.545   0.191   2.847
  239SOL    HW2  737   0.552   0.292   2.718
  240SOL     OW  738   1.008   1.456   2.339
  240SOL    HW1  739   0.962   1.528   2.287
  240SOL    HW2  740   1.004   1.476   2.437
  241SOL     OW  741   0.351   1.801   2.715
  241SOL    HW1  742   0.401   1.715   2.721
  241SOL    HW2  743   0.416   1.878   2.712
  242SOL     OW  744   1.795   1.066   2.735
  242SOL    HW1  745   1.733   1.051   2.659
  242SOL    HW2  746   1.743   1.077   2.820
  243SOL     OW  747   0.321   0.943   2.104
  243SOL    HW1  748   0.403   0.982   2.062
  243SOL    HW2  749   0.294   0.861   2.055
  244SOL     OW  750   1.458   0.735   2.590
  244SOL    HW1  751   1.453   0.670   2.665
  244SOL    HW2  752   1.538   0.794   2.603
  245SOL     OW  753   1.111   1.776   2.099
  245SOL    HW1  754   1.051   1.714   2.149
  245SOL    HW2  755   1.142   1.732   2.014
  246SOL     OW  756   1.632   1.377   1.943
  246SOL    HW1  757   1.600   1.471   1.933
  246SOL    HW2  758   1.556   1.314   1.931
  247SOL     OW  759   0.464   1.743   2.185
  247SOL    HW1  760   0.497   1.782   2.271
  247SOL    HW2  761   0.540   1.736   2.120
  248SOL     OW  762   1.400   0.107   2.288
  248SOL    HW1  763   1.376   0.070   2.198
  248SOL    HW2  764   1.499   0.123   2.292
  249SOL     OW  765   0.249   1.785   3.103
  249SOL    HW1  766   0.306   1.720   3.153
  249SOL    HW2  767   0.233   1.752   3.010
  250SOL     OW  768   0.940   1.698   2.766
  250SOL    HW1  769   1.020   1.641   2.787
  250SOL    HW2  770   0.891   1.658   2.689
  251SOL     OW  771   0.382   0.700   2.342
  251SOL    HW1  772   0.427   0.610   2.339
  251SOL    HW2  773   0.288   0.689   2.375
  252SOL     OW  774   0.614   0.122   1.979
  252SOL    HW1  775   0.712   0.100   1.986
  252SOL    HW2  776   0.583   0.105   1.886
  253SOL     OW  777   0.803   1.402   2.786
  253SOL    HW1  778   0.893   1.416   2.744
  253SOL    HW2  779   0.732   1.404   2.715
  254SOL     OW  780   0.922   0.503   2.761
  254SOL    HW1  781   0.897   0.494   2.665
  254SOL    HW2  782   0.970   0.421   2.792
  255SOL     OW  783   0.539   0.064   2.374
  255SOL    HW1  784   0.458   0.065   2.432
  255SOL    HW2  785   0.542   0.147   2.319
  256SOL     OW  786   1.434   1.188   1.903
  256SOL    HW1  787   1.466   1.112   1.960
  256SOL    HW2  788   1.342   1.215   1.933
  257SOL     OW  789   0.297   0.035   2.033
  257SOL    HW1  790   0.346   0.119   2.012
  257SOL    HW2  791   0.359  -0.030   2.078
  258SOL     OW  792   0.935   0.236   2.342
  258SOL    HW1  793   0.887   0.277   2.264
  258SOL    HW2  794   1.034   0.234   2.323
  259SOL     OW  795   1.227   1.570   2.655
  259SOL    HW1  796   1.248   1.644   2.590
  259SOL    HW2  797   1.295   1.570   2.728
  260SOL     OW  798   0.459   1.152   2.603
  260SOL    HW1  799   0.388   1.125   2.668
  260SOL    HW2  800   0.433   1.124   2.510
  261SOL     OW  801   1.271   1.797   2.453
  261SOL    HW1  802   1.315   1.861   2.389
  261SOL    HW2  803   1.221   1.849   2.523
  262SOL     OW  804   1.032   0.549   1.878
  262SOL    HW1  805   0.991   0.631   1.839
  262SOL    HW2  806   1.096   0.575   1.951
  263SOL     OW  807   0.866   0.454   2.504
  263SOL    HW1  808   0.834   0.526   2.442
  263SOL    HW2  809   0.890   0.373   2.451
  264SOL     OW  810   1.017   0.039   2.615
  264SOL    HW1  811   0.945   0.044   2.546
  264SOL    HW2  812   0.993  -0.030   2.684
  265SOL     OW  813   1.429   1.173   2.729
  265SOL    HW1  814   1.374   1.089   2.722
  265SOL    HW2  815   1.455   1.202   2.637
  266SOL     OW  816   1.466   0.590   2.854
  266SOL    HW1  817   1.436   0.495   2.861
  266SOL    HW2  818   1.539   0.606   2.920
  267SOL     OW  819   1.857   0.833   2.239
  267SOL    HW1  820   1.899   0.769   2.303
  267SOL    HW2  821   1.819   0.782   2.161
  268SOL     OW  822   0.488   1.385   2.036
  268SOL    HW1  823   0.401   1.370   2.083
  268SOL    HW2  824   0.471   1.411   1.941
  269SOL     OW  825   1.664   1.280   2.519
  269SOL    HW1  826   1.763   1.288   2.533
  269SOL    HW2  827   1.619   1.364   2.550
  270SOL     OW  828   1.390   0.575   1.940
  270SOL    HW1  829   1.336   0.554   2.021
  270SOL    HW2  830   1.481   0.534   1.949
  271SOL     OW  831   0.527   0.256   2.190
  271SOL    HW1  832   0.554   0.197   2.115
  271SOL    HW2  833   0.527   0.351   2.159
  272SOL     OW  834   1.638   1.099   2.941
  272SOL    HW1  835   1.643   1.180   3.000
  272SOL    HW2  836   1.552   1.101   2.890
  273SOL     OW  837   0.705   1.050   2.230
  273SOL    HW1  838   0.691   1.057   2.329
  273SOL    HW2  839   0.789   0.999   2.212
  274SOL     OW  840   0.367   1.100   2.363
  274SOL    HW1  841   0.360   1.183   2.307
  274SOL    HW2  842   0.371   1.020   2.303
  275SOL     OW  843   0.566   0.537   2.727
  275SOL    HW1  844   0.578   0.603   2.653
  275SOL    HW2  845   0.612   0.571   2.810
  276SOL     OW  846   1.252   1.348   2.250
  276SOL    HW1  847   1.302   1.425   2.290
  276SOL    HW2  848   1.157   1.350   2.282
  277SOL     OW  849   1.582   0.639   2.334
  277SOL    HW1  850   1.551   0.700   2.407
  277SOL    HW2  851   1.632   0.691   2.265
  278SOL     OW  852   0.573   0.870   2.891
  278SOL    HW1  853   0.617   0.959   2.882
  278SOL    HW2  854   0.510   0.870   2.968
  279SOL     OW  855   1.209   0.525   2.137
  279SOL    HW1  856   1.222   0.441   2.191
  279SOL    HW2  857   1.180   0.599   2.197
  280SOL     OW  858   0.732   0.634   2.926
  280SOL    HW1  859   0.791   0.608   2.850
  280SOL    HW2  860   0.704   0.730   2.915
  281SOL     OW  861   0.307   0.063   2.480
  281SOL    HW1  862   0.296   0.157   2.513
  281SOL    HW2  863   0.302   0.000   2.557
  282SOL     OW  864   1.622   0.367   2.236
  282SOL    HW1  865   1.624   0.291   2.300
  282SOL    HW2  866   1.574   0.444   2.276
  283SOL     OW  867   1.540   0.274   1.987
  283SOL    HW1  868   1.479   0.199   2.010
  283SOL    HW2  869   1.562   0.326   2.070
  284SOL     OW  870   1.303   0.838   1.904
  284SOL    HW1  871   1.337   0.745   1.919
  284SOL    HW2  872   1.321   0.865   1.809
  285SOL     OW  873   1.068   1.333   2.711
  285SOL    HW1  874   1.075   1.249   2.656
  285SOL    HW2  875   1.130   1.402   2.675
  286SOL     OW  876   0.319   0.810   2.811
  286SOL    HW1  877   0.412   0.846   2.816
  286SOL    HW2  878   0.313   0.725   2.863
  287SOL     OW  879   0.339   0.509   2.868
  287SOL    HW1  880   0.287   0.426   2.851
  287SOL    HW2  881   0.416   0.514   2.804
  288SOL     OW  882   0.008   1.326   2.062
  288SOL    HW1  883  -0.085   1.347   2.031
  288SOL    HW2  884   0.018   1.227   2.075
  289SOL     OW  885   0.088   1.801   2.789
  289SOL    HW1  886   0.046   1.715   2.762
  289SOL    HW2  887   0.182   1.804   2.755
  290SOL     OW  888   0.504   1.568   2.772
  290SOL    HW1  889   0.570   1.642   2.781
  290SOL    HW2  890   0.548   1.489   2.730
  291SOL     OW  891   0.815   0.572   2.187
  291SOL    HW1  892   0.822   0.483   2.141
  291SOL    HW2  893   0.721   0.606   2.179
  292SOL     OW  894   0.671   0.464   3.131
  292SOL    HW1  895   0.637   0.375   3.101
  292SOL    HW2  896   0.697   0.518   3.051
  293SOL     OW  897   0.473   0.500   2.053
  293SOL    HW1  898   0.534   0.580   2.057
  293SOL    HW2  899   0.378   0.531   2.060
  294SOL     OW  900   1.302   0.855   2.171
  294SOL    HW1  901   1.216   0.824   2.213
  294SOL    HW2  902   1.298   0.841   2.072
  295SOL     OW  903   1.759   1.747   3.016
  295SOL    HW1  904   1.820   1.777   2.943
  295SOL    HW2  905   1.721   1.658   2.994
  296SOL     OW  906   0.083   1.258   2.884
  296SOL    HW1  907   0.078   1.257   2.984
  296SOL    HW2  908   0.000   1.217   2.846
  297SOL     OW  909   1.726   0.135   2.385
  297SOL    HW1  910   1.799   0.118   2.318
  297SOL    HW2  911   1.695   0.048   2.423
  298SOL     OW  912   1.388   1.573   2.339
  298SOL    HW1  913   1.455   1.585   2.265
  298SOL    HW2  914   1.348   1.662   2.362
  299SOL     OW  915   1.280   0.927   2.534
  299SOL    HW1  916   1.340   0.846   2.536
  299SOL    HW2  917   1.320   0.996   2.474
  300SOL     OW  918   0.672   1.616   2.016
  300SOL    HW1  919   0.681   1.626   1.917
  300SOL    HW2  920   0.632   1.527   2.037
  301SOL     OW  921   1.841   0.175   2.825
  301SOL    HW1  922   1.880   0.090   2.789
  301SOL    HW2  923   1.743   0.177   2.806
  302SOL     OW  924   0.263   0.326   2.582
  302SOL    HW1  925   0.184   0.377   2.548
  302SOL    HW2  926   0.254   0.311   2.680
  303SOL     OW  927   1.194   1.612   1.893
  303SOL    HW1  928   1.200   1.519   1.930
  303SOL    HW2  929   1.135   1.612   1.813
  304SOL     OW  930   0.916   0.910   2.153
  304SOL    HW1  931   0.979   0.948   2.085
  304SOL    HW2  932   0.956   0.827   2.192
  305SOL     OW  933   1.504   1.607   1.906
  305SOL    HW1  934   1.412   1.644   1.913
  305SOL    HW2  935   1.542   1.627   1.816
  306SOL     OW  936   1.039   1.098   2.558
  306SOL    HW1  937   0.969   1.051   2.612
  306SOL    HW2  938   1.098   1.030   2.515
  307SOL     OW  939   0.590   1.487   2.353
  307SOL    HW1  940   0.632   1.429   2.283
  307SOL    HW2  941   0.546   1.566   2.309
  308SOL     OW  942   0.255   1.348   2.152
  308SOL    HW1  943   0.159   1.349   2.125
  308SOL    HW2  944   0.267   1.401   2.236
  309SOL     OW  945   0.075   0.345   1.895
  309SOL    HW1  946  -0.017   0.317   1.866
  309SOL    HW2  947   0.106   0.422   1.839
  310SOL     OW  948   0.072   0.166   2.180
  310SOL    HW1  949   0.055   0.249   2.126
  310SOL    HW2  950   0.162   0.129   2.158
  311SOL     OW  951   1.183   1.335   1.981
  311SOL    HW1  952   1.084   1.324   1.983
  311SOL    HW2  953   1.217   1.350   2.074
  312SOL     OW  954   1.674   0.883   3.116
  312SOL    HW1  955   1.647   0.794   3.079
  312SOL    HW2  956   1.675   0.951   3.043
  313SOL     OW  957   1.225   0.325   2.311
  313SOL    HW1  958   1.290   0.251   2.300
  313SOL    HW2  959   1.245   0.375   2.395
  314SOL     OW  960   0.594   0.745   2.514
  314SOL    HW1  961   0.644   0.830   2.495
  314SOL    HW2  962   0.506   0.747   2.466
  315SOL     OW  963   0.859   1.374   1.878
  315SOL    HW1  964   0.813   1.389   1.966
  315SOL    HW2  965   0.903   1.459   1.848
  316SOL     OW  966   0.661   1.790   2.815
  316SOL    HW1  967   0.615   1.878   2.802
  316SOL    HW2  968   0.760   1.802   2.808
  317SOL     OW  969   0.859   0.956   2.723
  317SOL    HW1  970   0.913   0.887   2.771
  317SOL    HW2  971   0.827   1.025   2.789
  318SOL     OW  972   1.083   0.984   1.949
  318SOL    HW1  973   1.060   1.037   1.867
  318SOL    HW2  974   1.164   0.928   1.930
  319SOL     OW  975   1.861   1.569   2.713
  319SOL    HW1  976   1.790   1.557   2.643
  319SOL    HW2  977   1.862   1.490   2.773
  320SOL     OW  978   0.079   1.240   2.515
  320SOL    HW1  979   0.078   1.193   2.603
  320SOL    HW2  980   0.161   1.212   2.464
  321SOL     OW  981   1.824   0.192   3.089
  321SOL    HW1  982   1.820   0.102   3.133
  321SOL    HW2  983   1.827   0.181   2.990
  322SOL     OW  984   0.428   0.424   2.382
  322SOL    HW1  985   0.458   0.352   2.320
  322SOL    HW2  986   0.389   0.384   2.465
  323SOL     OW  987   0.812   1.586   2.549
  323SOL    HW1  988   0.844   1.596   2.455
  323SOL    HW2  989   0.733   1.524   2.551
  324SOL     OW  990   0.770   1.330   2.163
  324SOL    HW1  991   0.724   1.243   2.180
  324SOL    HW2  992   0.861   1.327   2.204
  325SOL     OW  993   1.352   0.052   2.030
  325SOL    HW1  994   1.387   0.011   1.946
  325SOL    HW2  995   1.262   0.014   2.050
  326SOL     OW  996   1.300   0.453   2.553
  326SOL    HW1  997   1.241   0.533   2.557
  326SOL    HW2  998   1.315   0.418   2.646
  327SOL     OW  999   1.593   0.221   2.744
  327SOL    HW1 1000   1.509   0.220   2.798
  327SOL    HW2 1001   1.595   0.304   2.688
  328SOL     OW 1002   0.039   1.077   2.162
  328SOL    HW1 1003   0.138   1.066   2.153
  328SOL    HW2 1004  -0.001   0.991   2.194
  329SOL     OW 1005   0.875   1.646   2.199
  329SOL    HW1 1006   0.798   1.611   2.145
  329SOL    HW2 1007   0.843   1.717   2.261
  330SOL     OW 1008   0.230   2.490   0.113
  330SOL    HW1 1009   0.137   2.488   0.150
  330SOL    HW2 1010   0.231   2.451   0.021
  331SOL     OW 1011   0.225   2.137   0.996
  331SOL    HW1 1012   0.260   2.120   1.088
  331SOL    HW2 1013   0.137   2.092   0.984
  332SOL     OW 1014   0.019   2.230   0.647
  332SOL    HW1 1015  -0.063   2.273   0.686
  332SOL    HW2 1016  -0.009   2.157   0.584
  333SOL     OW 1017   1.135   2.565   0.717
  333SOL    HW1 1018   1.192   2.643   0.692
  333SOL    HW2 1019   1.075   2.591   0.793
  334SOL     OW 1020   1.755   2.469   0.231
  334SOL    HW1 1021   1.743   2.456   0.132
  334SOL    HW2 1022   1.725   2.388   0.280
  335SOL     OW 1023   0.768   3.006   1.023
  335SOL    HW1 1024   0.690   3.023   1.083
  335SOL    HW2 1025   0.802   3.093   0.987
  336SOL     OW 1026   0.850   2.660   1.823
  336SOL    HW1 1027   0.846   2.736   1.888
  336SOL    HW2 1028   0.872   2.696   1.732
  337SOL     OW 1029   0.685   2.874   0.665
  337SOL    HW1 1030   0.754   2.858   0.735
  337SOL    HW2 1031   0.612   2.931   0.703
  338SOL     OW 1032   0.438   2.254   1.499
  338SOL    HW1 1033   0.520   2.198   1.508
  338SOL    HW2 1034   0.357   2.196   1.503
  339SOL     OW 1035   1.603   2.309   0.737
  339SOL    HW1 1036   1.529   2.355   0.687
  339SOL    HW2 1037   1.654   2.377   0.790
  340SOL     OW 1038   0.240   2.953   0.886
  340SOL    HW1 1039   0.254   2.869   0.938
  340SOL    HW2 1040   0.185   3.017   0.941
  341SOL     OW 1041   0.606   2.826   0.123
  341SOL    HW1 1042   0.613   2.910   0.069
  341SOL    HW2 1043   0.652   2.839   0.211
  342SOL     OW 1044   1.594   1.976   1.480
  342SOL    HW1 1045   1.576   2.043   1.408
  342SOL    HW2 1046   1.591   2.022   1.569
  343SOL     OW 1047   0.122   2.505   0.563
  343SOL    HW1 1048   0.077   2.417   0.580
  343SOL    HW2 1049   0.121   2.559   0.647
  344SOL     OW 1050   1.689   2.784   0.612
  344SOL    HW1 1051   1.784   2.755   0.620
  344SOL    HW2 1052   1.681   2.849   0.537
  345SOL     OW 1053   0.113   2.599   1.597
  345SOL    HW1 1054   0.201   2.586   1.642
  345SOL    HW2 1055   0.100   2.696   1.575
  346SOL     OW 1056   0.809   1.866   0.502
  346SOL    HW1 1057   0.849   1.957   0.493
  346SOL    HW2 1058   0.709   1.874   0.508
  347SOL     OW 1059   0.197   2.838   1.264
  347SOL    HW1 1060   0.286   2.793   1.250
  347SOL    HW2 1061   0.124   2.773   1.245
  348SOL     OW 1062   1.525   2.861   0.190
  348SOL    HW1 1063   1.462   2.785   0.203
  348SOL    HW2 1064   1.573   2.879   0.276
  349SOL     OW 1065   0.317   2.113   1.801
  349SOL    HW1 1066   0.388   2.184   1.807
  349SOL    HW2 1067   0.229   2.152   1.829
  350SOL     OW 1068   0.598   2.591   0.270
  350SOL    HW1 1069   0.622   2.660   0.202
  350SOL    HW2 1070   0.520   2.624   0.324
  351SOL     OW 1071   1.281   2.207   0.944
  351SOL    HW1 1072   1.195   2.157   0.931
  351SOL    HW2 1073   1.343   2.153   1.000
  352SOL     OW 1074   0.807   2.467   1.465
  352SOL    HW1 1075   0.760   2.464   1.554
  352SOL    HW2 1076   0.756   2.412   1.399
  353SOL     OW 1077   1.394   2.331   1.674
  353SOL    HW1 1078   1.374   2.374   1.762
  353SOL    HW2 1079   1.472   2.269   1.683
  354SOL     OW 1080   0.973   2.752   1.572
  354SOL    HW1 1081   1.019   2.668   1.543
  354SOL    HW2 1082   0.917   2.786   1.497
  355SOL     OW 1083   0.991   2.272   1.242
  355SOL    HW1 1084   0.914   2.306   1.296
  355SOL    HW2 1085   0.957   2.221   1.163
  356SOL     OW 1086   1.041   2.563   0.429
  356SOL    HW1 1087   1.067   2.559   0.525
  356SOL    HW2 1088   0.956   2.512   0.415
  357SOL     OW 1089   0.076   2.673   0.789
  357SOL    HW1 1090   0.175   2.661   0.798
  357SOL    HW2 1091   0.052   2.768   0.810
  358SOL     OW 1092   0.865   2.210   0.195
  358SOL    HW1 1093   0.924   2.273   0.146
  358SOL    HW2 1094   0.884   2.116   0.166
  359SOL     OW 1095   1.719   2.447   1.831
  359SOL    HW1 1096   1.693   2.536   1.795
  359SOL    HW2 1097   1.717   2.379   1.758
  360SOL     OW 1098   0.550   2.058   0.885
  360SOL    HW1 1099   0.545   2.053   0.985
  360SOL    HW2 1100   0.552   2.154   0.856
  361SOL     OW 1101   1.458   2.597   0.728
  361SOL    HW1 1102   1.453   2.532   0.803
  361SOL    HW2 1103   1.538   2.656   0.741
  362SOL     OW 1104   0.202   2.147   1.498
  362SOL    HW1 1105   0.122   2.207   1.485
  362SOL    HW2 1106   0.192   2.098   1.584
  363SOL     OW 1107   1.400   1.969   0.426
  363SOL    HW1 1108   1.376   1.932   0.336
  363SOL    HW2 1109   1.499   1.985   0.430
  364SOL     OW 1110   0.382   2.562   0.480
  364SOL    HW1 1111   0.427   2.472   0.477
  364SOL    HW2 1112   0.288   2.551   0.513
  365SOL     OW 1113   1.547   2.084   1.729
  365SOL    HW1 1114   1.542   2.121   1.821
  365SOL    HW2 1115   1.475   2.015   1.717
  366SOL     OW 1116   0.614   1.984   0.117
  366SOL    HW1 1117   0.712   1.962   0.124
  366SOL    HW2 1118   0.583   1.967   0.024
  367SOL     OW 1119   0.781   2.126   1.749
  367SOL    HW1 1120   0.848   2.065   1.792
  367SOL    HW2 1121   0.708   2.145   1.814
  368SOL     OW 1122   1.351   2.452   1.433
  368SOL    HW1 1123   1.379   2.409   1.518
  368SOL    HW2 1124   1.376   2.548   1.434
  369SOL     OW 1125   0.922   2.365   0.899
  369SOL    HW1 1126   0.897   2.356   0.803
  369SOL    HW2 1127   0.970   2.283   0.930
  370SOL     OW 1128   0.539   1.926   0.512
  370SOL    HW1 1129   0.458   1.927   0.570
  370SOL    HW2 1130   0.542   2.009   0.457
  371SOL     OW 1131   0.935   2.098   0.480
  371SOL    HW1 1132   0.887   2.139   0.402
  371SOL    HW2 1133   1.034   2.096   0.461
  372SOL     OW 1134   1.076   2.545   1.464
  372SOL    HW1 1135   0.996   2.484   1.467
  372SOL    HW2 1136   1.157   2.492   1.440
  373SOL     OW 1137   1.032   2.411   0.016
  373SOL    HW1 1138   0.991   2.493  -0.023
  373SOL    HW2 1139   1.096   2.437   0.089
  374SOL     OW 1140   0.078   2.418   1.386
  374SOL    HW1 1141   0.170   2.417   1.345
  374SOL    HW2 1142   0.072   2.492   1.453
  375SOL     OW 1143   0.561   2.084   1.147
  375SOL    HW1 1144   0.599   2.000   1.184
  375SOL    HW2 1145   0.473   2.103   1.191
  376SOL     OW 1146   0.866   2.316   0.642
  376SOL    HW1 1147   0.834   2.388   0.580
  376SOL    HW2 1148   0.890   2.235   0.589
  377SOL     OW 1149   1.017   1.901   0.753
  377SOL    HW1 1150   0.945   1.906   0.684
  377SOL    HW2 1151   0.993   1.832   0.822
  378SOL     OW 1152   1.429   3.035   0.867
  378SOL    HW1 1153   1.374   2.951   0.860
  378SOL    HW2 1154   1.455   3.064   0.775
  379SOL     OW 1155   1.466   2.452   0.992
  379SOL    HW1 1156   1.436   2.357   0.999
  379SOL    HW2 1157   1.539   2.468   1.058
  380SOL     OW 1158   1.857   2.695   0.377
  380SOL    HW1 1159   1.899   2.631   0.441
  380SOL    HW2 1160   1.819   2.644   0.299
  381SOL     OW 1161   1.390   2.437   0.078
  381SOL    HW1 1162   1.336   2.416   0.159
  381SOL    HW2 1163   1.481   2.396   0.087
  382SOL     OW 1164   0.527   2.118   0.328
  382SOL    HW1 1165   0.554   2.059   0.253
  382SOL    HW2 1166   0.527   2.213   0.297
  383SOL     OW 1167   1.638   2.961   1.079
  383SOL    HW1 1168   1.643   3.042   1.138
  383SOL    HW2 1169   1.552   2.963   1.028
  384SOL     OW 1170   0.915   1.951   1.402
  384SOL    HW1 1171   0.940   1.931   1.307
  384SOL    HW2 1172   0.987   2.007   1.444
  385SOL     OW 1173   0.410   2.675   1.251
  385SOL    HW1 1174   0.496   2.687   1.301
  385SOL    HW2 1175   0.368   2.588   1.278
  386SOL     OW 1176   1.274   2.248   1.262
  386SOL    HW1 1177   1.295   2.322   1.326
  386SOL    HW2 1178   1.185   2.265   1.219
  387SOL     OW 1179   0.566   2.399   0.865
  387SOL    HW1 1180   0.578   2.465   0.791
  387SOL    HW2 1181   0.612   2.433   0.948
  388SOL     OW 1182   1.582   2.501   0.472
  388SOL    HW1 1183   1.551   2.562   0.545
  388SOL    HW2 1184   1.632   2.553   0.403
  389SOL     OW 1185   0.402   2.613   1.598
  389SOL    HW1 1186   0.470   2.668   1.551
  389SOL    HW2 1187   0.442   2.525   1.625
  390SOL     OW 1188   1.587   2.641   1.670
  390SOL    HW1 1189   1.495   2.679   1.665
  390SOL    HW2 1190   1.647   2.688   1.605
  391SOL     OW 1191   1.013   1.967   1.770
  391SOL    HW1 1192   1.019   2.052   1.718
  391SOL    HW2 1193   1.045   1.891   1.713
  392SOL     OW 1194   0.504   1.912   1.740
  392SOL    HW1 1195   0.462   1.855   1.670
  392SOL    HW2 1196   0.438   1.981   1.772
  393SOL     OW 1197   0.573   2.732   1.029
  393SOL    HW1 1198   0.617   2.821   1.020
  393SOL    HW2 1199   0.510   2.732   1.106
  394SOL     OW 1200   1.360   2.724   1.045
  394SOL    HW1 1201   1.285   2.724   0.979
  394SOL    HW2 1202   1.397   2.632   1.054
  395SOL     OW 1203   1.209   2.387   0.275
  395SOL    HW1 1204   1.222   2.303   0.329
  395SOL    HW2 1205   1.180   2.461   0.335
  396SOL     OW 1206   0.307   2.075   1.231
  396SOL    HW1 1207   0.284   2.112   1.321
  396SOL    HW2 1208   0.277   1.980   1.225
  397SOL     OW 1209   0.037   3.172   1.282
  397SOL    HW1 1210   0.090   3.123   1.350
  397SOL    HW2 1211   0.059   3.270   1.287
  398SOL     OW 1212   0.732   2.496   1.064
  398SOL    HW1 1213   0.791   2.470   0.988
  398SOL    HW2 1214   0.704   2.592   1.053
  399SOL     OW 1215   1.728   2.797   1.854
  399SOL    HW1 1216   1.682   2.790   1.765
  399SOL    HW2 1217   1.666   2.841   1.920
  400SOL     OW 1218   0.307   1.925   0.618
  400SOL    HW1 1219   0.296   2.019   0.651
  400SOL    HW2 1220   0.302   1.862   0.695
  401SOL     OW 1221   1.622   2.229   0.374
  401SOL    HW1 1222   1.624   2.153   0.438
  401SOL    HW2 1223   1.574   2.306   0.414
  402SOL     OW 1224   1.023   2.628   0.966
  402SOL    HW1 1225   1.038   2.649   1.062
  402SOL    HW2 1226   0.993   2.533   0.957
  403SOL     OW 1227   0.350   2.760   1.804
  403SOL    HW1 1228   0.426   2.804   1.852
  403SOL    HW2 1229   0.385   2.713   1.722
  404SOL     OW 1230   1.540   2.136   0.125
  404SOL    HW1 1231   1.479   2.061   0.148
  404SOL    HW2 1232   1.562   2.188   0.208
  405SOL     OW 1233   1.303   2.700   0.042
  405SOL    HW1 1234   1.337   2.607   0.057
  405SOL    HW2 1235   1.321   2.727  -0.053
  406SOL     OW 1236   0.319   2.672   0.949
  406SOL    HW1 1237   0.412   2.708   0.954
  406SOL    HW2 1238   0.313   2.587   1.001
  407SOL     OW 1239   0.339   2.371   1.006
  407SOL    HW1 1240   0.287   2.288   0.989
  407SOL    HW2 1241   0.416   2.376   0.942
  408SOL     OW 1242   1.138   2.242   1.678
  408SOL    HW1 1243   1.093   2.305   1.742
  408SOL    HW2 1244   1.231   2.273   1.661
  409SOL     OW 1245   1.160   2.069   1.477
  409SOL    HW1 1246   1.160   2.133   1.554
  409SOL    HW2 1247   1.188   2.117   1.394
  410SOL     OW 1248   1.002   2.658   1.238
  410SOL    HW1 1249   1.043   2.626   1.324
  410SOL    HW2 1250   0.906   2.631   1.235
  411SOL     OW 1251   0.040   2.406   1.114
  411SOL    HW1 1252   0.125   2.373   1.073
  411SOL    HW2 1253   0.053   2.421   1.212
  412SOL     OW 1254   0.189   2.382   1.722
  412SOL    HW1 1255   0.248   2.342   1.652
  412SOL    HW2 1256   0.131   2.453   1.681
  413SOL     OW 1257   1.369   2.812   1.660
  413SOL    HW1 1258   1.408   2.901   1.680
  413SOL    HW2 1259   1.379   2.792   1.563
  414SOL     OW 1260   0.815   2.434   0.325
  414SOL    HW1 1261   0.822   2.345   0.279
  414SOL    HW2 1262   0.721   2.468   0.317
  415SOL     OW 1263   1.657   2.466   1.206
  415SOL    HW1 1264   1.619   2.397   1.268
  415SOL    HW2 1265   1.739   2.430   1.162
  416SOL     OW 1266   0.671   2.326   1.269
  416SOL    HW1 1267   0.637   2.237   1.239
  416SOL    HW2 1268   0.697   2.380   1.189
  417SOL     OW 1269   0.473   2.362   0.191
  417SOL    HW1 1270   0.534   2.442   0.195
  417SOL    HW2 1271   0.378   2.393   0.198
  418SOL     OW 1272   0.159   2.999   1.466
  418SOL    HW1 1273   0.181   2.938   1.542
  418SOL    HW2 1274   0.169   2.950   1.380
  419SOL     OW 1275   1.347   2.921   1.234
  419SOL    HW1 1276   1.371   2.858   1.160
  419SOL    HW2 1277   1.257   2.961   1.216
  420SOL     OW 1278   1.302   2.717   0.309
  420SOL    HW1 1279   1.216   2.686   0.351
  420SOL    HW2 1280   1.298   2.703   0.210
  421SOL     OW 1281   0.903   1.948   0.133
  421SOL    HW1 1282   0.954   1.949   0.047
  421SOL    HW2 1283   0.959   1.906   0.204
  422SOL     OW 1284   1.726   1.997   0.523
  422SOL    HW1 1285   1.799   1.980   0.456
  422SOL    HW2 1286   1.695   1.910   0.561
  423SOL     OW 1287   1.280   2.789   0.672
  423SOL    HW1 1288   1.340   2.708   0.674
  423SOL    HW2 1289   1.320   2.858   0.612
  424SOL     OW 1290   1.841   2.037   0.963
  424SOL    HW1 1291   1.880   1.952   0.927
  424SOL    HW2 1292   1.743   2.039   0.944
  425SOL     OW 1293   0.263   2.188   0.720
  425SOL    HW1 1294   0.184   2.239   0.686
  425SOL    HW2 1295   0.254   2.173   0.818
  426SOL     OW 1296   0.916   2.772   0.291
  426SOL    HW1 1297   0.979   2.810   0.223
  426SOL    HW2 1298   0.956   2.689   0.330
  427SOL     OW 1299   1.014   2.098   0.971
  427SOL    HW1 1300   1.006   2.062   0.878
  427SOL    HW2 1301   1.012   2.022   1.036
  428SOL     OW 1302   1.709   2.247   1.381
  428SOL    HW1 1303   1.782   2.316   1.385
  428SOL    HW2 1304   1.737   2.172   1.322
  429SOL     OW 1305   0.105   2.875   1.726
  429SOL    HW1 1306   0.028   2.842   1.780
  429SOL    HW2 1307   0.190   2.845   1.768
  430SOL     OW 1308   0.672   2.065   1.489
  430SOL    HW1 1309   0.762   2.049   1.449
  430SOL    HW2 1310   0.680   2.070   1.588
  431SOL     OW 1311   0.075   2.207   0.033
  431SOL    HW1 1312  -0.017   2.179   0.004
  431SOL    HW2 1313   0.106   2.284  -0.023
  432SOL     OW 1314   1.440   2.718   1.398
  432SOL    HW1 1315   1.383   2.770   1.335
  432SOL    HW2 1316   1.536   2.730   1.374
  433SOL     OW 1317   0.072   2.028   0.318
  433SOL    HW1 1318   0.055   2.111   0.264
  433SOL    HW2 1319   0.162   1.991   0.296
  434SOL     OW 1320   1.183   3.197   0.119
  434SOL    HW1 1321   1.084   3.186   0.121
  434SOL    HW2 1322   1.217   3.212   0.212
  435SOL     OW 1323   0.613   2.704   1.431
  435SOL    HW1 1324   0.669   2.785   1.414
  435SOL    HW2 1325   0.672   2.624   1.434
  436SOL     OW 1326   0.716   2.427   1.708
  436SOL    HW1 1327   0.735   2.492   1.782
  436SOL    HW2 1328   0.776   2.347   1.717
  437SOL     OW 1329   1.674   2.745   1.254
  437SOL    HW1 1330   1.647   2.656   1.217
  437SOL    HW2 1331   1.675   2.813   1.181
  438SOL     OW 1332   1.225   2.187   0.449
  438SOL    HW1 1333   1.290   2.113   0.438
  438SOL    HW2 1334   1.245   2.237   0.533
  439SOL     OW 1335   0.594   2.607   0.652
  439SOL    HW1 1336   0.644   2.692   0.633
  439SOL    HW2 1337   0.506   2.609   0.604
  440SOL     OW 1338   1.777   2.204   1.642
  440SOL    HW1 1339   1.760   2.235   1.548
  440SOL    HW2 1340   1.693   2.167   1.680
  441SOL     OW 1341   1.730   2.796   1.517
  441SOL    HW1 1342   1.768   2.887   1.532
  441SOL    HW2 1343   1.722   2.779   1.418
  442SOL     OW 1344   0.859   2.818   0.861
  442SOL    HW1 1345   0.913   2.749   0.909
  442SOL    HW2 1346   0.827   2.887   0.927
  443SOL     OW 1347   1.083   2.846   0.087
  443SOL    HW1 1348   1.060   2.899   0.005
  443SOL    HW2 1349   1.164   2.790   0.068
  444SOL     OW 1350   0.079   3.102   0.653
  444SOL    HW1 1351   0.078   3.055   0.741
  444SOL    HW2 1352   0.161   3.074   0.602
  445SOL     OW 1353   1.824   2.054   1.227
  445SOL    HW1 1354   1.820   1.964   1.271
  445SOL    HW2 1355   1.827   2.043   1.128
  446SOL     OW 1356   0.428   2.286   0.520
  446SOL    HW1 1357   0.458   2.214   0.458
  446SOL    HW2 1358   0.389   2.246   0.603
  447SOL     OW 1359   0.317   2.409   1.280
  447SOL    HW1 1360   0.355   2.350   1.352
  447SOL    HW2 1361   0.357   2.383   1.192
  448SOL     OW 1362   1.424   2.076   1.112
  448SOL    HW1 1363   1.476   2.011   1.167
  448SOL    HW2 1364   1.375   2.139   1.173
  449SOL     OW 1365   1.001   1.896   1.154
  449SOL    HW1 1366   0.938   1.824   1.123
  449SOL    HW2 1367   1.094   1.860   1.154
  450SOL     OW 1368   1.352   1.914   0.168
  450SOL    HW1 1369   1.387   1.873   0.084
  450SOL    HW2 1370   1.262   1.876   0.188
  451SOL     OW 1371   1.300   2.315   0.691
  451SOL    HW1 1372   1.241   2.395   0.695
  451SOL    HW2 1373   1.315   2.280   0.784
  452SOL     OW 1374   1.593   2.083   0.882
  452SOL    HW1 1375   1.509   2.082   0.936
  452SOL    HW2 1376   1.595   2.166   0.826
  453SOL     OW 1377   0.230   2.490   1.975
  453SOL    HW1 1378   0.137   2.488   2.012
  453SOL    HW2 1379   0.231   2.451   1.883
  454SOL     OW 1380   0.225   2.137   2.858
  454SOL    HW1 1381   0.260   2.120   2.950
  454SOL    HW2 1382   0.137   2.092   2.846
  455SOL     OW 1383   0.019   2.230   2.509
  455SOL    HW1 1384  -0.063   2.273   2.548
  455SOL    HW2 1385  -0.009   2.157   2.446
  456SOL     OW 1386   1.135   2.565   2.579
  456SOL    HW1 1387   1.192   2.643   2.554
  456SOL    HW2 1388   1.075   2.591   2.655
  457SOL     OW 1389   1.755   2.469   2.093
  457SOL    HW1 1390   1.743   2.456   1.994
  457SOL    HW2 1391   1.725   2.388   2.142
  458SOL     OW 1392   0.685   2.874   2.527
  458SOL    HW1 1393   0.754   2.858   2.597
  458SOL    HW2 1394   0.612   2.931   2.565
  459SOL     OW 1395   1.603   2.309   2.599
  459SOL    HW1 1396   1.529   2.355   2.549
  459SOL    HW2 1397   1.654   2.377   2.652
  460SOL     OW 1398   0.240   2.953   2.748
  460SOL    HW1 1399   0.254   2.869   2.800
  460SOL    HW2 1400   0.185   3.017   2.803
  461SOL     OW 1401   0.606   2.826   1.985
  461SOL    HW1 1402   0.613   2.910   1.931
  461SOL    HW2 1403   0.652   2.839   2.073
  462SOL     OW 1404   0.122   2.505   2.425
  462SOL    HW1 1405   0.077   2.417   2.442
  462SOL    HW2 1406   0.121   2.559   2.509
  463SOL     OW 1407   1.689   2.784   2.474
  463SOL    HW1 1408   1.784   2.755   2.482
  463SOL    HW2 1409   1.681   2.849   2.399
  464SOL     OW 1410   0.809   1.866   2.364
  464SOL    HW1 1411   0.849   1.957   2.355
  464SOL    HW2 1412   0.709   1.874   2.370
  465SOL     OW 1413   1.525   2.861   2.052
  465SOL    HW1 1414   1.462   2.785   2.065
  465SOL    HW2 1415   1.573   2.879   2.138
  466SOL     OW 1416   0.598   2.591   2.132
  466SOL    HW1 1417   0.622   2.660   2.064
  466SOL    HW2 1418   0.520   2.624   2.186
  467SOL     OW 1419   1.281   2.207   2.806
  467SOL    HW1 1420   1.195   2.157   2.793
  467SOL    HW2 1421   1.343   2.153   2.862
  468SOL     OW 1422   1.041   2.563   2.291
  468SOL    HW1 1423   1.067   2.559   2.387
  468SOL    HW2 1424   0.956   2.512   2.277
  469SOL     OW 1425   0.076   2.673   2.651
  469SOL    HW1 1426   0.175   2.661   2.660
  469SOL    HW2 1427   0.052   2.768   2.672
  470SOL     OW 1428   0.865   2.210   2.057
  470SOL    HW1 1429   0.924   2.273   2.008
  470SOL    HW2 1430   0.884   2.116   2.028
  471SOL     OW 1431   0.550   2.058   2.747
  471SOL    HW1 1432   0.545   2.053   2.847
  471SOL    HW2 1433   0.552   2.154   2.718
  472SOL     OW 1434   1.458   2.597   2.590
  472SOL    HW1 1435   1.453   2.532   2.665
  472SOL    HW2 1436   1.538   2.656   2.603
  473SOL     OW 1437   1.400   1.969   2.288
  473SOL    HW1 1438   1.376   1.932   2.198
  473SOL    HW2 1439   1.499   1.985   2.292
  474SOL     OW 1440   0.382   2.562   2.342
  474SOL    HW1 1441   0.427   2.472   2.339
  474SOL    HW2 1442   0.288   2.551   2.375
  475SOL     OW 1443   0.614   1.984   1.979
  475SOL    HW1 1444   0.712   1.962   1.986
  475SOL    HW2 1445   0.583   1.967   1.886
  476SOL     OW 1446   0.922   2.365   2.761
  476SOL    HW1 1447   0.897   2.356   2.665
  476SOL    HW2 1448   0.970   2.283   2.792
  477SOL     OW 1449   0.539   1.926   2.374
  477SOL    HW1 1450   0.458   1.927   2.432
  477SOL    HW2 1451   0.542   2.009   2.319
  478SOL     OW 1452   0.297   1.897   2.033
  478SOL    HW1 1453   0.346   1.981   2.012
  478SOL    HW2 1454   0.359   1.832   2.078
  479SOL     OW 1455   0.935   2.098   2.342
  479SOL    HW1 1456   0.887   2.139   2.264
  479SOL    HW2 1457   1.034   2.096   2.323
  480SOL     OW 1458   1.032   2.411   1.878
  480SOL    HW1 1459   0.991   2.493   1.839
  480SOL    HW2 1460   1.096   2.437   1.951
  481SOL     OW 1461   0.866   2.316   2.504
  481SOL    HW1 1462   0.834   2.388   2.442
  481SOL    HW2 1463   0.890   2.235   2.451
  482SOL     OW 1464   1.017   1.901   2.615
  482SOL    HW1 1465   0.945   1.906   2.546
  482SOL    HW2 1466   0.993   1.832   2.684
  483SOL     OW 1467   1.429   3.035   2.729
  483SOL    HW1 1468   1.374   2.951   2.722
  483SOL    HW2 1469   1.455   3.064   2.637
  484SOL     OW 1470   1.466   2.452   2.854
  484SOL    HW1 1471   1.436   2.357   2.861
  484SOL    HW2 1472   1.539   2.468   2.920
  485SOL     OW 1473   1.857   2.695   2.239
  485SOL    HW1 1474   1.899   2.631   2.303
  485SOL    HW2 1475   1.819   2.644   2.161
  486SOL     OW 1476   1.390   2.437   1.940
  486SOL    HW1 1477   1.336   2.416   2.021
  486SOL    HW2 1478   1.481   2.396   1.949
  487SOL     OW 1479   0.527   2.118   2.190
  487SOL    HW1 1480   0.554   2.059   2.115
  487SOL    HW2 1481   0.527   2.213   2.159
  488SOL     OW 1482   1.638   2.961   2.941
  488SOL    HW1 1483   1.643   3.042   3.000
  488SOL    HW2 1484   1.552   2.963   2.890
  489SOL     OW 1485   0.566   2.399   2.727
  489SOL    HW1 1486   0.578   2.465   2.653
  489SOL    HW2 1487   0.612   2.433   2.810
  490SOL     OW 1488   1.582   2.501   2.334
  490SOL    HW1 1489   1.551   2.562   2.407
  490SOL    HW2 1490   1.632   2.553   2.265
  491SOL     OW 1491   0.573   2.732   2.891
  491SOL    HW1 1492   0.617   2.821   2.882
  491SOL    HW2 1493   0.510   2.732   2.968
  492SOL     OW 1494   1.209   2.387   2.137
  492SOL    HW1 1495   1.222   2.303   2.191
  492SOL    HW2 1496   1.180   2.461   2.197
  493SOL     OW 1497   0.307   2.075   3.093
  493SOL    HW1 1498   0.284   2.112   3.183
  493SOL    HW2 1499   0.277   1.980   3.087
  494SOL     OW 1500   0.732   2.496   2.926
  494SOL    HW1 1501   0.791   2.470   2.850
  494SOL    HW2 1502   0.704   2.592   2.915
  495SOL     OW 1503   0.307   1.925   2.480
  495SOL    HW1 1504   0.296   2.019   2.513
  495SOL    HW2 1505   0.302   1.862   2.557
  496SOL     OW 1506   1.622   2.229   2.236
  496SOL    HW1 1507   1.624   2.153   2.300
  496SOL    HW2 1508   1.574   2.306   2.276
  497SOL     OW 1509   1.540   2.136   1.987
  497SOL    HW1 1510   1.479   2.061   2.010
  497SOL    HW2 1511   1.562   2.188   2.070
  498SOL     OW 1512   1.303   2.700   1.904
  498SOL    HW1 1513   1.337   2.607   1.919
  498SOL    HW2 1514   1.321   2.727   1.809
  499SOL     OW 1515   0.319   2.672   2.811
  499SOL    HW1 1516   0.412   2.708   2.816
  499SOL    HW2 1517   0.313   2.587   2.863
  500SOL     OW 1518   0.339   2.371   2.868
  500SOL    HW1 1519   0.287   2.288   2.851
  500SOL    HW2 1520   0.416   2.376   2.804
  501SOL     OW 1521   0.815   2.434   2.187
  501SOL    HW1 1522   0.822   2.345   2.141
  501SOL    HW2 1523   0.721   2.468   2.179
  502SOL     OW 1524   0.671   2.326   3.131
  502SOL    HW1 1525   0.637   2.237   3.101
  502SOL    HW2 1526   0.697   2.380   3.051
  503SOL     OW 1527   0.473   2.362   2.053
  503SOL    HW1 1528   0.534   2.442   2.057
  503SOL    HW2 1529   0.378   2.393   2.060
  504SOL     OW 1530   1.302   2.717   2.171
  504SOL    HW1 1531   1.216   2.686   2.213
  504SOL    HW2 1532   1.298   2.703   2.072
  505SOL     OW 1533   1.726   1.997   2.385
  505SOL    HW1 1534   1.799   1.980   2.318
  505SOL    HW2 1535   1.695   1.910   2.423
  506SOL     OW 1536   1.280   2.789   2.534
  506SOL    HW1 1537   1.340   2.708   2.536
  506SOL    HW2 1538   1.320   2.858   2.474
  507SOL     OW 1539   1.841   2.037   2.825
  507SOL    HW1 1540   1.880   1.952   2.789
  507SOL    HW2 1541   1.743   2.039   2.806
  508SOL     OW 1542   0.263   2.188   2.582
  508SOL    HW1 1543   0.184   2.239   2.548
  508SOL    HW2 1544   0.254   2.173   2.680
  509SOL     OW 1545   0.916   2.772   2.153
  509SOL    HW1 1546   0.979   2.810   2.085
  509SOL    HW2 1547   0.956   2.689   2.192
  510SOL     OW 1548   0.075   2.207   1.895
  510SOL    HW1 1549  -0.017   2.179   1.866
  510SOL    HW2 1550   0.106   2.284   1.839
  511SOL     OW 1551   0.072   2.028   2.180
  511SOL    HW1 1552   0.055   2.111   2.126
  511SOL    HW2 1553   0.162   1.991   2.158
  512SOL     OW 1554   1.183   3.197   1.981
  512SOL    HW1 1555   1.084   3.186   1.983
  512SOL    HW2 1556   1.217   3.212   2.074
  513SOL     OW 1557   1.674   2.745   3.116
  513SOL    HW1 1558   1.647   2.656   3.079
  513SOL    HW2 1559   1.675   2.813   3.043
  514SOL     OW 1560   1.225   2.187   2.311
  514SOL    HW1 1561   1.290   2.113   2.300
  514SOL    HW2 1562   1.245   2.237   2.395
  515SOL     OW 1563   0.594   2.607   2.514
  515SOL    HW1 1564   0.644   2.692   2.495
  515SOL    HW2 1565   0.506   2.609   2.466
  516SOL     OW 1566   0.859   2.818   2.723
  516SOL    HW1 1567   0.913   2.749   2.771
  516SOL    HW2 1568   0.827   2.887   2.789
  517SOL     OW 1569   1.083   2.846   1.949
  517SOL    HW1 1570   1.060   2.899   1.867
  517SOL    HW2 1571   1.164   2.790   1.930
  518SOL     OW 1572   0.079   3.102   2.515
  518SOL    HW1 1573   0.078   3.055   2.603
  518SOL    HW2 1574   0.161   3.074   2.464
  519SOL     OW 1575   1.824   2.054   3.089
  519SOL    HW1 1576   1.820   1.964   3.133
  519SOL    HW2 1577   1.827   2.043   2.990
  520SOL     OW 1578   0.428   2.286   2.382
  520SOL    HW1 1579   0.458   2.214   2.320
  520SOL    HW2 1580   0.389   2.246   2.465
  521SOL     OW 1581   1.352   1.914   2.030
  521SOL    HW1 1582   1.387   1.873   1.946
  521SOL    HW2 1583   1.262   1.876   2.050
  522SOL     OW 1584   1.300   2.315   2.553
  522SOL    HW1 1585   1.241   2.395   2.557
  522SOL    HW2 1586   1.315   2.280   2.646
  523SOL     OW 1587   1.593   2.083   2.744
  523SOL    HW1 1588   1.509   2.082   2.798
  523SOL    HW2 1589   1.595   2.166   2.688
  524SOL     OW 1590   2.092   0.628   0.113
  524SOL    HW1 1591   1.999   0.626   0.150
  524SOL    HW2 1592   2.093   0.589   0.021
  525SOL     OW 1593   2.087   0.275   0.996
  525SOL    HW1 1594   2.122   0.258   1.088
  525SOL    HW2 1595   1.999   0.230   0.984
  526SOL     OW 1596   1.881   0.368   0.647
  526SOL    HW1 1597   1.799   0.411   0.686
  526SOL    HW2 1598   1.853   0.295   0.584
  527SOL     OW 1599   2.431   1.275   1.165
  527SOL    HW1 1600   2.338   1.268   1.128
  527SOL    HW2 1601   2.442   1.364   1.209
  528SOL     OW 1602   2.630   1.144   1.023
  528SOL    HW1 1603   2.552   1.161   1.083
  528SOL    HW2 1604   2.664   1.231   0.987
  529SOL     OW 1605   2.712   0.798   1.823
  529SOL    HW1 1606   2.708   0.874   1.888
  529SOL    HW2 1607   2.734   0.834   1.732
  530SOL     OW 1608   2.547   1.012   0.665
  530SOL    HW1 1609   2.616   0.996   0.735
  530SOL    HW2 1610   2.474   1.069   0.703
  531SOL     OW 1611   2.548   1.161   1.803
  531SOL    HW1 1612   2.608   1.240   1.817
  531SOL    HW2 1613   2.462   1.192   1.762
  532SOL     OW 1614   2.197   1.435   1.061
  532SOL    HW1 1615   2.119   1.404   1.008
  532SOL    HW2 1616   2.255   1.493   1.004
  533SOL     OW 1617   2.300   0.392   1.499
  533SOL    HW1 1618   2.382   0.336   1.508
  533SOL    HW2 1619   2.219   0.334   1.503
  534SOL     OW 1620   2.093   1.713   0.483
  534SOL    HW1 1621   2.127   1.790   0.537
  534SOL    HW2 1622   2.137   1.713   0.393
  535SOL     OW 1623   2.092   1.434   0.538
  535SOL    HW1 1624   2.066   1.530   0.538
  535SOL    HW2 1625   2.021   1.380   0.583
  536SOL     OW 1626   2.102   1.091   0.886
  536SOL    HW1 1627   2.116   1.007   0.938
  536SOL    HW2 1628   2.047   1.155   0.941
  537SOL     OW 1629   2.482   1.786   1.439
  537SOL    HW1 1630   2.390   1.769   1.474
  537SOL    HW2 1631   2.510   1.878   1.465
  538SOL     OW 1632   2.468   0.964   0.123
  538SOL    HW1 1633   2.475   1.048   0.069
  538SOL    HW2 1634   2.514   0.977   0.211
  539SOL     OW 1635   1.984   0.643   0.563
  539SOL    HW1 1636   1.939   0.555   0.580
  539SOL    HW2 1637   1.983   0.697   0.647
  540SOL     OW 1638   1.889   1.596   0.117
  540SOL    HW1 1639   1.870   1.500   0.138
  540SOL    HW2 1640   1.856   1.654   0.192
  541SOL     OW 1641   1.975   0.737   1.597
  541SOL    HW1 1642   2.063   0.724   1.642
  541SOL    HW2 1643   1.962   0.834   1.575
  542SOL     OW 1644   2.475   1.365   0.726
  542SOL    HW1 1645   2.426   1.278   0.735
  542SOL    HW2 1646   2.452   1.408   0.639
  543SOL     OW 1647   2.671   0.004   0.502
  543SOL    HW1 1648   2.711   0.095   0.493
  543SOL    HW2 1649   2.571   0.012   0.508
  544SOL     OW 1650   2.059   0.976   1.264
  544SOL    HW1 1651   2.148   0.931   1.250
  544SOL    HW2 1652   1.986   0.911   1.245
  545SOL     OW 1653   2.179   0.251   1.801
  545SOL    HW1 1654   2.250   0.322   1.807
  545SOL    HW2 1655   2.091   0.290   1.829
  546SOL     OW 1656   2.460   0.729   0.270
  546SOL    HW1 1657   2.484   0.798   0.202
  546SOL    HW2 1658   2.382   0.762   0.324
  547SOL     OW 1659   2.669   0.605   1.465
  547SOL    HW1 1660   2.622   0.602   1.554
  547SOL    HW2 1661   2.618   0.550   1.399
  548SOL     OW 1662   2.835   0.890   1.572
  548SOL    HW1 1663   2.881   0.806   1.543
  548SOL    HW2 1664   2.779   0.924   1.497
  549SOL     OW 1665   2.853   0.410   1.242
  549SOL    HW1 1666   2.776   0.444   1.296
  549SOL    HW2 1667   2.819   0.359   1.163
  550SOL     OW 1668   1.938   0.811   0.789
  550SOL    HW1 1669   2.037   0.799   0.798
  550SOL    HW2 1670   1.914   0.906   0.810
  551SOL     OW 1671   1.992   1.821   1.571
  551SOL    HW1 1672   1.982   1.806   1.670
  551SOL    HW2 1673   1.906   1.857   1.535
  552SOL     OW 1674   2.727   0.348   0.195
  552SOL    HW1 1675   2.786   0.411   0.146
  552SOL    HW2 1676   2.746   0.254   0.166
  553SOL     OW 1677   2.412   0.196   0.885
  553SOL    HW1 1678   2.407   0.191   0.985
  553SOL    HW2 1679   2.414   0.292   0.856
  554SOL     OW 1680   2.870   1.456   0.477
  554SOL    HW1 1681   2.824   1.528   0.425
  554SOL    HW2 1682   2.866   1.476   0.575
  555SOL     OW 1683   2.213   1.801   0.853
  555SOL    HW1 1684   2.263   1.715   0.859
  555SOL    HW2 1685   2.278   1.878   0.850
  556SOL     OW 1686   2.183   0.943   0.242
  556SOL    HW1 1687   2.265   0.982   0.200
  556SOL    HW2 1688   2.156   0.861   0.193
  557SOL     OW 1689   2.323   1.266   1.727
  557SOL    HW1 1690   2.273   1.267   1.641
  557SOL    HW2 1691   2.260   1.248   1.803
  558SOL     OW 1692   2.064   0.285   1.498
  558SOL    HW1 1693   1.984   0.345   1.485
  558SOL    HW2 1694   2.054   0.236   1.584
  559SOL     OW 1695   2.326   1.743   0.323
  559SOL    HW1 1696   2.359   1.782   0.409
  559SOL    HW2 1697   2.402   1.736   0.258
  560SOL     OW 1698   2.111   1.785   1.241
  560SOL    HW1 1699   2.168   1.720   1.291
  560SOL    HW2 1700   2.095   1.752   1.148
  561SOL     OW 1701   2.244   0.700   0.480
  561SOL    HW1 1702   2.289   0.610   0.477
  561SOL    HW2 1703   2.150   0.689   0.513
  562SOL     OW 1704   2.476   0.122   0.117
  562SOL    HW1 1705   2.574   0.100   0.124
  562SOL    HW2 1706   2.445   0.105   0.024
  563SOL     OW 1707   2.643   0.264   1.749
  563SOL    HW1 1708   2.710   0.203   1.792
  563SOL    HW2 1709   2.570   0.283   1.814
  564SOL     OW 1710   2.750   1.514   1.195
  564SOL    HW1 1711   2.727   1.489   1.101
  564SOL    HW2 1712   2.811   1.445   1.234
  565SOL     OW 1713   2.665   1.402   0.924
  565SOL    HW1 1714   2.755   1.416   0.882
  565SOL    HW2 1715   2.594   1.404   0.853
  566SOL     OW 1716   2.784   0.503   0.899
  566SOL    HW1 1717   2.759   0.494   0.803
  566SOL    HW2 1718   2.832   0.421   0.930
  567SOL     OW 1719   2.401   0.064   0.512
  567SOL    HW1 1720   2.320   0.065   0.570
  567SOL    HW2 1721   2.404   0.147   0.457
  568SOL     OW 1722   2.159   0.035   0.171
  568SOL    HW1 1723   2.208   0.119   0.150
  568SOL    HW2 1724   2.221  -0.030   0.216
  569SOL     OW 1725   2.797   0.236   0.480
  569SOL    HW1 1726   2.749   0.277   0.402
  569SOL    HW2 1727   2.896   0.234   0.461
  570SOL     OW 1728   3.089   1.570   0.793
  570SOL    HW1 1729   3.110   1.644   0.728
  570SOL    HW2 1730   3.157   1.570   0.866
  571SOL     OW 1731   2.321   1.152   0.741
  571SOL    HW1 1732   2.250   1.125   0.806
  571SOL    HW2 1733   2.295   1.124   0.648
  572SOL     OW 1734   2.894   0.549   0.016
  572SOL    HW1 1735   2.853   0.631  -0.023
  572SOL    HW2 1736   2.958   0.575   0.089
  573SOL     OW 1737   1.940   0.556   1.386
  573SOL    HW1 1738   2.032   0.555   1.345
  573SOL    HW2 1739   1.934   0.630   1.453
  574SOL     OW 1740   2.423   0.222   1.147
  574SOL    HW1 1741   2.461   0.138   1.184
  574SOL    HW2 1742   2.335   0.241   1.191
  575SOL     OW 1743   2.728   0.454   0.642
  575SOL    HW1 1744   2.696   0.526   0.580
  575SOL    HW2 1745   2.752   0.373   0.589
  576SOL     OW 1746   2.879   0.039   0.753
  576SOL    HW1 1747   2.807   0.044   0.684
  576SOL    HW2 1748   2.855  -0.030   0.822
  577SOL     OW 1749   2.350   1.385   0.174
  577SOL    HW1 1750   2.263   1.370   0.221
  577SOL    HW2 1751   2.333   1.411   0.079
  578SOL     OW 1752   2.389   0.256   0.328
  578SOL    HW1 1753   2.416   0.197   0.253
  578SOL    HW2 1754   2.389   0.351   0.297
  579SOL     OW 1755   2.777   0.089   1.402
  579SOL    HW1 1756   2.802   0.069   1.307
  579SOL    HW2 1757   2.849   0.145   1.444
  580SOL     OW 1758   2.842   1.116   1.719
  580SOL    HW1 1759   2.743   1.122   1.729
  580SOL    HW2 1760   2.865   1.036   1.663
  581SOL     OW 1761   2.567   1.050   0.368
  581SOL    HW1 1762   2.553   1.057   0.467
  581SOL    HW2 1763   2.651   0.999   0.350
  582SOL     OW 1764   2.272   0.813   1.251
  582SOL    HW1 1765   2.358   0.825   1.301
  582SOL    HW2 1766   2.230   0.726   1.278
  583SOL     OW 1767   1.926   1.564   1.331
  583SOL    HW1 1768   1.880   1.646   1.297
  583SOL    HW2 1769   2.024   1.583   1.340
  584SOL     OW 1770   2.229   1.100   0.501
  584SOL    HW1 1771   2.222   1.183   0.445
  584SOL    HW2 1772   2.233   1.020   0.441
  585SOL     OW 1773   2.428   0.537   0.865
  585SOL    HW1 1774   2.440   0.603   0.791
  585SOL    HW2 1775   2.474   0.571   0.948
  586SOL     OW 1776   2.216   1.510   1.329
  586SOL    HW1 1777   2.195   1.466   1.242
  586SOL    HW2 1778   2.313   1.536   1.332
  587SOL     OW 1779   2.264   0.751   1.598
  587SOL    HW1 1780   2.332   0.806   1.551
  587SOL    HW2 1781   2.304   0.663   1.625
  588SOL     OW 1782   2.875   0.105   1.770
  588SOL    HW1 1783   2.881   0.190   1.718
  588SOL    HW2 1784   2.907   0.029   1.713
  589SOL     OW 1785   2.366   0.050   1.740
  589SOL    HW1 1786   2.324  -0.007   1.670
  589SOL    HW2 1787   2.300   0.119   1.772
  590SOL     OW 1788   2.435   0.870   1.029
  590SOL    HW1 1789   2.479   0.959   1.020
  590SOL    HW2 1790   2.372   0.870   1.106
  591SOL     OW 1791   3.071   0.525   0.275
  591SOL    HW1 1792   3.084   0.441   0.329
  591SOL    HW2 1793   3.042   0.599   0.335
  592SOL     OW 1794   2.169   0.213   1.231
  592SOL    HW1 1795   2.146   0.250   1.321
  592SOL    HW2 1796   2.139   0.118   1.225
  593SOL     OW 1797   1.899   1.310   1.282
  593SOL    HW1 1798   1.952   1.261   1.350
  593SOL    HW2 1799   1.921   1.408   1.287
  594SOL     OW 1800   2.594   0.634   1.064
  594SOL    HW1 1801   2.653   0.608   0.988
  594SOL    HW2 1802   2.566   0.730   1.053
  595SOL     OW 1803   2.169   0.063   0.618
  595SOL    HW1 1804   2.158   0.157   0.651
  595SOL    HW2 1805   2.164   0.000   0.695
  596SOL     OW 1806   2.885   0.766   0.966
  596SOL    HW1 1807   2.900   0.787   1.062
  596SOL    HW2 1808   2.855   0.671   0.957
  597SOL     OW 1809   2.842   1.573   1.700
  597SOL    HW1 1810   2.822   1.617   1.612
  597SOL    HW2 1811   2.881   1.482   1.684
  598SOL     OW 1812   2.212   0.898   1.804
  598SOL    HW1 1813   2.288   0.942   1.852
  598SOL    HW2 1814   2.247   0.851   1.722
  599SOL     OW 1815   2.181   0.810   0.949
  599SOL    HW1 1816   2.274   0.846   0.954
  599SOL    HW2 1817   2.175   0.725   1.001
  600SOL     OW 1818   2.201   0.509   1.006
  600SOL    HW1 1819   2.149   0.426   0.989
  600SOL    HW2 1820   2.278   0.514   0.942
  601SOL     OW 1821   1.870   1.326   0.200
  601SOL    HW1 1822   1.777   1.347   0.169
  601SOL    HW2 1823   1.880   1.227   0.213
  602SOL     OW 1824   1.950   1.801   0.927
  602SOL    HW1 1825   1.908   1.715   0.900
  602SOL    HW2 1826   2.044   1.804   0.893
  603SOL     OW 1827   2.366   1.568   0.910
  603SOL    HW1 1828   2.432   1.642   0.919
  603SOL    HW2 1829   2.410   1.489   0.868
  604SOL     OW 1830   2.864   0.796   1.238
  604SOL    HW1 1831   2.905   0.764   1.324
  604SOL    HW2 1832   2.768   0.769   1.235
  605SOL     OW 1833   1.902   0.544   1.114
  605SOL    HW1 1834   1.987   0.511   1.073
  605SOL    HW2 1835   1.915   0.559   1.212
  606SOL     OW 1836   2.051   0.520   1.722
  606SOL    HW1 1837   2.110   0.480   1.652
  606SOL    HW2 1838   1.993   0.591   1.681
  607SOL     OW 1839   2.677   0.572   0.325
  607SOL    HW1 1840   2.684   0.483   0.279
  607SOL    HW2 1841   2.583   0.606   0.317
  608SOL     OW 1842   2.114   1.564   1.744
  608SOL    HW1 1843   2.084   1.621   1.820
  608SOL    HW2 1844   2.107   1.467   1.770
  609SOL     OW 1845   2.533   0.464   1.269
  609SOL    HW1 1846   2.499   0.375   1.239
  609SOL    HW2 1847   2.559   0.518   1.189
  610SOL     OW 1848   2.792   1.678   1.465
  610SOL    HW1 1849   2.768   1.660   1.370
  610SOL    HW2 1850   2.822   1.772   1.475
  611SOL     OW 1851   2.335   0.500   0.191
  611SOL    HW1 1852   2.396   0.580   0.195
  611SOL    HW2 1853   2.240   0.531   0.198
  612SOL     OW 1854   2.021   1.137   1.466
  612SOL    HW1 1855   2.043   1.076   1.542
  612SOL    HW2 1856   2.031   1.088   1.380
  613SOL     OW 1857   1.945   1.258   1.022
  613SOL    HW1 1858   1.940   1.257   1.122
  613SOL    HW2 1859   1.862   1.217   0.984
  614SOL     OW 1860   2.550   1.662   1.716
  614SOL    HW1 1861   2.494   1.743   1.725
  614SOL    HW2 1862   2.602   1.666   1.630
  615SOL     OW 1863   2.765   0.086   0.133
  615SOL    HW1 1864   2.816   0.087   0.047
  615SOL    HW2 1865   2.821   0.044   0.204
  616SOL     OW 1866   1.992   1.794   1.851
  616SOL    HW1 1867   1.951   1.720   1.904
  616SOL    HW2 1868   2.056   1.845   1.909
  617SOL     OW 1869   3.142   0.927   0.672
  617SOL    HW1 1870   3.202   0.846   0.674
  617SOL    HW2 1871   3.182   0.996   0.612
  618SOL     OW 1872   2.692   1.273   1.422
  618SOL    HW1 1873   2.687   1.306   1.517
  618SOL    HW2 1874   2.606   1.292   1.376
  619SOL     OW 1875   2.534   1.616   0.154
  619SOL    HW1 1876   2.543   1.626   0.055
  619SOL    HW2 1877   2.494   1.527   0.175
  620SOL     OW 1878   2.125   0.326   0.720
  620SOL    HW1 1879   2.046   0.377   0.686
  620SOL    HW2 1880   2.116   0.311   0.818
  621SOL     OW 1881   2.684   1.002   1.372
  621SOL    HW1 1882   2.724   1.001   1.280
  621SOL    HW2 1883   2.694   1.094   1.412
  622SOL     OW 1884   2.778   0.910   0.291
  622SOL    HW1 1885   2.841   0.948   0.223
  622SOL    HW2 1886   2.818   0.827   0.330
  623SOL     OW 1887   2.234   1.288   1.490
  623SOL    HW1 1888   2.221   1.381   1.456
  623SOL    HW2 1889   2.150   1.236   1.477
  624SOL     OW 1890   2.901   1.098   0.696
  624SOL    HW1 1891   2.831   1.051   0.750
  624SOL    HW2 1892   2.960   1.030   0.653
  625SOL     OW 1893   2.876   0.236   0.971
  625SOL    HW1 1894   2.868   0.200   0.878
  625SOL    HW2 1895   2.874   0.160   1.036
  626SOL     OW 1896   2.452   1.487   0.491
  626SOL    HW1 1897   2.494   1.429   0.421
  626SOL    HW2 1898   2.408   1.566   0.447
  627SOL     OW 1899   2.117   1.348   0.290
  627SOL    HW1 1900   2.021   1.349   0.263
  627SOL    HW2 1901   2.129   1.401   0.374
  628SOL     OW 1902   1.967   1.013   1.726
  628SOL    HW1 1903   1.890   0.980   1.780
  628SOL    HW2 1904   2.052   0.983   1.768
  629SOL     OW 1905   2.534   0.203   1.489
  629SOL    HW1 1906   2.624   0.187   1.449
  629SOL    HW2 1907   2.542   0.208   1.588
  630SOL     OW 1908   1.937   0.345   0.033
  630SOL    HW1 1909   1.845   0.317   0.004
  630SOL    HW2 1910   1.968   0.422  -0.023
  631SOL     OW 1911   1.934   0.166   0.318
  631SOL    HW1 1912   1.917   0.249   0.264
  631SOL    HW2 1913   2.024   0.129   0.296
  632SOL     OW 1914   2.475   0.842   1.431
  632SOL    HW1 1915   2.531   0.923   1.414
  632SOL    HW2 1916   2.534   0.762   1.434
  633SOL     OW 1917   2.578   0.565   1.708
  633SOL    HW1 1918   2.597   0.630   1.782
  633SOL    HW2 1919   2.638   0.485   1.717
  634SOL     OW 1920   2.252   1.741   1.560
  634SOL    HW1 1921   2.161   1.782   1.558
  634SOL    HW2 1922   2.245   1.647   1.592
  635SOL     OW 1923   3.087   0.325   0.449
  635SOL    HW1 1924   3.152   0.251   0.438
  635SOL    HW2 1925   3.107   0.375   0.533
  636SOL     OW 1926   2.456   0.745   0.652
  636SOL    HW1 1927   2.506   0.830   0.633
  636SOL    HW2 1928   2.368   0.747   0.604
  637SOL     OW 1929   2.721   1.374   0.016
  637SOL    HW1 1930   2.675   1.389   0.104
  637SOL    HW2 1931   2.765   1.459  -0.014
  638SOL     OW 1932   2.523   1.790   0.953
  638SOL    HW1 1933   2.477   1.878   0.940
  638SOL    HW2 1934   2.622   1.802   0.946
  639SOL     OW 1935   2.721   0.956   0.861
  639SOL    HW1 1936   2.775   0.887   0.909
  639SOL    HW2 1937   2.689   1.025   0.927
  640SOL     OW 1938   2.945   0.984   0.087
  640SOL    HW1 1939   2.922   1.037   0.005
  640SOL    HW2 1940   3.026   0.928   0.068
  641SOL     OW 1941   2.083   1.314   1.844
  641SOL    HW1 1942   2.018   1.241   1.823
  641SOL    HW2 1943   2.087   1.328   1.942
  642SOL     OW 1944   1.941   1.240   0.653
  642SOL    HW1 1945   1.940   1.193   0.741
  642SOL    HW2 1946   2.023   1.212   0.602
  643SOL     OW 1947   2.534   1.391   1.624
  643SOL    HW1 1948   2.456   1.341   1.662
  643SOL    HW2 1949   2.531   1.486   1.655
  644SOL     OW 1950   2.290   0.424   0.520
  644SOL    HW1 1951   2.320   0.352   0.458
  644SOL    HW2 1952   2.251   0.384   0.603
  645SOL     OW 1953   2.179   0.547   1.280
  645SOL    HW1 1954   2.217   0.488   1.352
  645SOL    HW2 1955   2.219   0.521   1.192
  646SOL     OW 1956   2.674   1.586   0.687
  646SOL    HW1 1957   2.706   1.596   0.593
  646SOL    HW2 1958   2.595   1.524   0.689
  647SOL     OW 1959   2.863   0.034   1.154
  647SOL    HW1 1960   2.800  -0.038   1.123
  647SOL    HW2 1961   2.956  -0.002   1.154
  648SOL     OW 1962   2.632   1.330   0.301
  648SOL    HW1 1963   2.586   1.243   0.318
  648SOL    HW2 1964   2.723   1.327   0.342
  649SOL     OW 1965   2.480   1.567   1.284
  649SOL    HW1 1966   2.475   1.649   1.341
  649SOL    HW2 1967   2.569   1.564   1.239
  650SOL     OW 1968   1.901   1.077   0.300
  650SOL    HW1 1969   2.000   1.066   0.291
  650SOL    HW2 1970   1.861   0.991   0.332
  651SOL     OW 1971   2.737   1.646   0.337
  651SOL    HW1 1972   2.660   1.611   0.283
  651SOL    HW2 1973   2.705   1.717   0.399
  652SOL     OW 1974   2.092   0.628   1.975
  652SOL    HW1 1975   1.999   0.626   2.012
  652SOL    HW2 1976   2.093   0.589   1.883
  653SOL     OW 1977   2.087   0.275   2.858
  653SOL    HW1 1978   2.122   0.258   2.950
  653SOL    HW2 1979   1.999   0.230   2.846
  654SOL     OW 1980   1.881   0.368   2.509
  654SOL    HW1 1981   1.799   0.411   2.548
  654SOL    HW2 1982   1.853   0.295   2.446
  655SOL     OW 1983   2.630   1.144   2.885
  655SOL    HW1 1984   2.552   1.161   2.945
  655SOL    HW2 1985   2.664   1.231   2.849
  656SOL     OW 1986   2.547   1.012   2.527
  656SOL    HW1 1987   2.616   0.996   2.597
  656SOL    HW2 1988   2.474   1.069   2.565
  657SOL     OW 1989   2.197   1.435   2.923
  657SOL    HW1 1990   2.119   1.404   2.870
  657SOL    HW2 1991   2.255   1.493   2.866
  658SOL     OW 1992   2.093   1.713   2.345
  658SOL    HW1 1993   2.127   1.790   2.399
  658SOL    HW2 1994   2.137   1.713   2.255
  659SOL     OW 1995   2.092   1.434   2.400
  659SOL    HW1 1996   2.066   1.530   2.400
  659SOL    HW2 1997   2.021   1.380   2.445
  660SOL     OW 1998   2.102   1.091   2.748
  660SOL    HW1 1999   2.116   1.007   2.800
  660SOL    HW2 2000   2.047   1.155   2.803
  661SOL     OW 2001   2.468   0.964   1.985
  661SOL    HW1 2002   2.475   1.048   1.931
  661SOL    HW2 2003   2.514   0.977   2.073
  662SOL     OW 2004   1.984   0.643   2.425
  662SOL    HW1 2005   1.939   0.555   2.442
  662SOL    HW2 2006   1.983   0.697   2.509
  663SOL     OW 2007   1.889   1.596   1.979
  663SOL    HW1 2008   1.870   1.500   2.000
  663SOL    HW2 2009   1.856   1.654   2.054
  664SOL     OW 2010   2.475   1.365   2.588
  664SOL    HW1 2011   2.426   1.278   2.597
  664SOL    HW2 2012   2.452   1.408   2.501
  665SOL     OW 2013   2.671   0.004   2.364
  665SOL    HW1 2014   2.711   0.095   2.355
  665SOL    HW2 2015   2.571   0.012   2.370
  666SOL     OW 2016   2.460   0.729   2.132
  666SOL    HW1 2017   2.484   0.798   2.064
  666SOL    HW2 2018   2.382   0.762   2.186
  667SOL     OW 2019   1.938   0.811   2.651
  667SOL    HW1 2020   2.037   0.799   2.660
  667SOL    HW2 2021   1.914   0.906   2.672
  668SOL     OW 2022   2.727   0.348   2.057
  668SOL    HW1 2023   2.786   0.411   2.008
  668SOL    HW2 2024   2.746   0.254   2.028
  669SOL     OW 2025   2.412   0.196   2.747
  669SOL    HW1 2026   2.407   0.191   2.847
  669SOL    HW2 2027   2.414   0.292   2.718
  670SOL     OW 2028   2.870   1.456   2.339
  670SOL    HW1 2029   2.824   1.528   2.287
  670SOL    HW2 2030   2.866   1.476   2.437
  671SOL     OW 2031   2.213   1.801   2.715
  671SOL    HW1 2032   2.263   1.715   2.721
  671SOL    HW2 2033   2.278   1.878   2.712
  672SOL     OW 2034   2.183   0.943   2.104
  672SOL    HW1 2035   2.265   0.982   2.062
  672SOL    HW2 2036   2.156   0.861   2.055
  673SOL     OW 2037   2.326   1.743   2.185
  673SOL    HW1 2038   2.359   1.782   2.271
  673SOL    HW2 2039   2.402   1.736   2.120
  674SOL     OW 2040   2.111   1.785   3.103
  674SOL    HW1 2041   2.168   1.720   3.153
  674SOL    HW2 2042   2.095   1.752   3.010
  675SOL     OW 2043   2.244   0.700   2.342
  675SOL    HW1 2044   2.289   0.610   2.339
  675SOL    HW2 2045   2.150   0.689   2.375
  676SOL     OW 2046   2.476   0.122   1.979
  676SOL    HW1 2047   2.574   0.100   1.986
  676SOL    HW2 2048   2.445   0.105   1.886
  677SOL     OW 2049   2.665   1.402   2.786
  677SOL    HW1 2050   2.755   1.416   2.744
  677SOL    HW2 2051   2.594   1.404   2.715
  678SOL     OW 2052   2.784   0.503   2.761
  678SOL    HW1 2053   2.759   0.494   2.665
  678SOL    HW2 2054   2.832   0.421   2.792
  679SOL     OW 2055   2.401   0.064   2.374
  679SOL    HW1 2056   2.320   0.065   2.432
  679SOL    HW2 2057   2.404   0.147   2.319
  680SOL     OW 2058   2.159   0.035   2.033
  680SOL    HW1 2059   2.208   0.119   2.012
  680SOL    HW2 2060   2.221  -0.030   2.078
  681SOL     OW 2061   2.797   0.236   2.342
  681SOL    HW1 2062   2.749   0.277   2.264
  681SOL    HW2 2063   2.896   0.234   2.323
  682SOL     OW 2064   3.089   1.570   2.655
  682SOL    HW1 2065   3.110   1.644   2.590
  682SOL    HW2 2066   3.157   1.570   2.728
  683SOL     OW 2067   2.321   1.152   2.603
  683SOL    HW1 2068   2.250   1.125   2.668
  683SOL    HW2 2069   2.295   1.124   2.510
  684SOL     OW 2070   2.894   0.549   1.878
  684SOL    HW1 2071   2.853   0.631   1.839
  684SOL    HW2 2072   2.958   0.575   1.951
  685SOL     OW 2073   2.728   0.454   2.504
  685SOL    HW1 2074   2.696   0.526   2.442
  685SOL    HW2 2075   2.752   0.373   2.451
  686SOL     OW 2076   2.879   0.039   2.615
  686SOL    HW1 2077   2.807   0.044   2.546
  686SOL    HW2 2078   2.855  -0.030   2.684
  687SOL     OW 2079   2.350   1.385   2.036
  687SOL    HW1 2080   2.263   1.370   2.083
  687SOL    HW2 2081   2.333   1.411   1.941
  688SOL     OW 2082   2.389   0.256   2.190
  688SOL    HW1 2083   2.416   0.197   2.115
  688SOL    HW2 2084   2.389   0.351   2.159
  689SOL     OW 2085   2.567   1.050   2.230
  689SOL    HW1 2086   2.553   1.057   2.329
  689SOL    HW2 2087   2.651   0.999   2.212
  690SOL     OW 2088   2.229   1.100   2.363
  690SOL    HW1 2089   2.222   1.183   2.307
  690SOL    HW2 2090   2.233   1.020   2.303
  691SOL     OW 2091   2.428   0.537   2.727
  691SOL    HW1 2092   2.440   0.603   2.653
  691SOL    HW2 2093   2.474   0.571   2.810
  692SOL     OW 2094   2.435   0.870   2.891
  692SOL    HW1 2095   2.479   0.959   2.882
  692SOL    HW2 2096   2.372   0.870   2.968
  693SOL     OW 2097   3.071   0.525   2.137
  693SOL    HW1 2098   3.084   0.441   2.191
  693SOL    HW2 2099   3.042   0.599   2.197
  694SOL     OW 2100   2.594   0.634   2.926
  694SOL    HW1 2101   2.653   0.608   2.850
  694SOL    HW2 2102   2.566   0.730   2.915
  695SOL     OW 2103   2.169   0.063   2.480
  695SOL    HW1 2104   2.158   0.157   2.513
  695SOL    HW2 2105   2.164   0.000   2.557
  696SOL     OW 2106   2.181   0.810   2.811
  696SOL    HW1 2107   2.274   0.846   2.816
  696SOL    HW2 2108   2.175   0.725   2.863
  697SOL     OW 2109   2.201   0.509   2.868
  697SOL    HW1 2110   2.149   0.426   2.851
  697SOL    HW2 2111   2.278   0.514   2.804
  698SOL     OW 2112   1.870   1.326   2.062
  698SOL    HW1 2113   1.777   1.347   2.031
  698SOL    HW2 2114   1.880   1.227   2.075
  699SOL     OW 2115   1.950   1.801   2.789
  699SOL    HW1 2116   1.908   1.715   2.762
  699SOL    HW2 2117   2.044   1.804   2.755
  700SOL     OW 2118   2.366   1.568   2.772
  700SOL    HW1 2119   2.432   1.642   2.781
  700SOL    HW2 2120   2.410   1.489   2.730
  701SOL     OW 2121   2.677   0.572   2.187
  701SOL    HW1 2122   2.684   0.483   2.141
  701SOL    HW2 2123   2.583   0.606   2.179
  702SOL     OW 2124   2.533   0.464   3.131
  702SOL    HW1 2125   2.499   0.375   3.101
  702SOL    HW2 2126   2.559   0.518   3.051
  703SOL     OW 2127   2.335   0.500   2.053
  703SOL    HW1 2128   2.396   0.580   2.057
  703SOL    HW2 2129   2.240   0.531   2.060
  704SOL     OW 2130   1.945   1.258   2.884
  704SOL    HW1 2131   1.940   1.257   2.984
  704SOL    HW2 2132   1.862   1.217   2.846
  705SOL     OW 2133   3.142   0.927   2.534
  705SOL    HW1 2134   3.202   0.846   2.536
  705SOL    HW2 2135   3.182   0.996   2.474
  706SOL     OW 2136   2.534   1.616   2.016
  706SOL    HW1 2137   2.543   1.626   1.917
  706SOL    HW2 2138   2.494   1.527   2.037
  707SOL     OW 2139   2.125   0.326   2.582
  707SOL    HW1 2140   2.046   0.377   2.548
  707SOL    HW2 2141   2.116   0.311   2.680
  708SOL     OW 2142   2.778   0.910   2.153
  708SOL    HW1 2143   2.841   0.948   2.085
  708SOL    HW2 2144   2.818   0.827   2.192
  709SOL     OW 2145   2.901   1.098   2.558
  709SOL    HW1 2146   2.831   1.051   2.612
  709SOL    HW2 2147   2.960   1.030   2.515
  710SOL     OW 2148   2.452   1.487   2.353
  710SOL    HW1 2149   2.494   1.429   2.283
  710SOL    HW2 2150   2.408   1.566   2.309
  711SOL     OW 2151   2.117   1.348   2.152
  711SOL    HW1 2152   2.021   1.349   2.125
  711SOL    HW2 2153   2.129   1.401   2.236
  712SOL     OW 2154   1.937   0.345   1.895
  712SOL    HW1 2155   1.845   0.317   1.866
  712SOL    HW2 2156   1.968   0.422   1.839
  713SOL     OW 2157   1.934   0.166   2.180
  713SOL    HW1 2158   1.917   0.249   2.126
  713SOL    HW2 2159   2.024   0.129   2.158
  714SOL     OW 2160   3.087   0.325   2.311
  714SOL    HW1 2161   3.152   0.251   2.300
  714SOL    HW2 2162   3.107   0.375   2.395
  715SOL     OW 2163   2.456   0.745   2.514
  715SOL    HW1 2164   2.506   0.830   2.495
  715SOL    HW2 2165   2.368   0.747   2.466
  716SOL     OW 2166   2.721   1.374   1.878
  716SOL    HW1 2167   2.675   1.389   1.966
  716SOL    HW2 2168   2.765   1.459   1.848
  717SOL     OW 2169   2.523   1.790   2.815
  717SOL    HW1 2170   2.477   1.878   2.802
  717SOL    HW2 2171   2.622   1.802   2.808
  718SOL     OW 2172   2.721   0.956   2.723
  718SOL    HW1 2173   2.775   0.887   2.771
  718SOL    HW2 2174   2.689   1.025   2.789
  719SOL     OW 2175   1.941   1.240   2.515
  719SOL    HW1 2176   1.940   1.193   2.603
  719SOL    HW2 2177   2.023   1.212   2.464
  720SOL     OW 2178   2.290   0.424   2.382
  720SOL    HW1 2179   2.320   0.352   2.320
  720SOL    HW2 2180   2.251   0.384   2.465
  721SOL     OW 2181   2.674   1.586   2.549
  721SOL    HW1 2182   2.706   1.596   2.455
  721SOL    HW2 2183   2.595   1.524   2.551
  722SOL     OW 2184   2.632   1.330   2.163
  722SOL    HW1 2185   2.586   1.243   2.180
  722SOL    HW2 2186   2.723   1.327   2.204
  723SOL     OW 2187   1.901   1.077   2.162
  723SOL    HW1 2188   2.000   1.066   2.153
  723SOL    HW2 2189   1.861   0.991   2.194
  724SOL     OW 2190   2.737   1.646   2.199
  724SOL    HW1 2191   2.660   1.611   2.145
  724SOL    HW2 2192   2.705   1.717   2.261
  725SOL     OW 2193   2.092   2.490   0.113
  725SOL    HW1 2194   1.999   2.488   0.150
  725SOL    HW2 2195   2.093   2.451   0.021
  726SOL     OW 2196   2.087   2.137   0.996
  726SOL    HW1 2197   2.122   2.120   1.088
  726SOL    HW2 2198   1.999   2.092   0.984
  727SOL     OW 2199   1.881   2.230   0.647
  727SOL    HW1 2200   1.799   2.273   0.686
  727SOL    HW2 2201   1.853   2.157   0.584
  728SOL     OW 2202   2.630   3.006   1.023
  728SOL    HW1 2203   2.552   3.023   1.083
  728SOL    HW2 2204   2.664   3.093   0.987
  729SOL     OW 2205   2.712   2.660   1.823
  729SOL    HW1 2206   2.708   2.736   1.888
  729SOL    HW2 2207   2.734   2.696   1.732
  730SOL     OW 2208   2.547   2.874   0.665
  730SOL    HW1 2209   2.616   2.858   0.735
  730SOL    HW2 2210   2.474   2.931   0.703
  731SOL     OW 2211   2.300   2.254   1.499
  731SOL    HW1 2212   2.382   2.198   1.508
  731SOL    HW2 2213   2.219   2.196   1.503
  732SOL     OW 2214   2.102   2.953   0.886
  732SOL    HW1 2215   2.116   2.869   0.938
  732SOL    HW2 2216   2.047   3.017   0.941
  733SOL     OW 2217   2.468   2.826   0.123
  733SOL    HW1 2218   2.475   2.910   0.069
  733SOL    HW2 2219   2.514   2.839   0.211
  734SOL     OW 2220   1.984   2.505   0.563
  734SOL    HW1 2221   1.939   2.417   0.580
  734SOL    HW2 2222   1.983   2.559   0.647
  735SOL     OW 2223   1.975   2.599   1.597
  735SOL    HW1 2224   2.063   2.586   1.642
  735SOL    HW2 2225   1.962   2.696   1.575
  736SOL     OW 2226   2.671   1.866   0.502
  736SOL    HW1 2227   2.711   1.957   0.493
  736SOL    HW2 2228   2.571   1.874   0.508
  737SOL     OW 2229   2.059   2.838   1.264
  737SOL    HW1 2230   2.148   2.793   1.250
  737SOL    HW2 2231   1.986   2.773   1.245
  738SOL     OW 2232   2.179   2.113   1.801
  738SOL    HW1 2233   2.250   2.184   1.807
  738SOL    HW2 2234   2.091   2.152   1.829
  739SOL     OW 2235   2.460   2.591   0.270
  739SOL    HW1 2236   2.484   2.660   0.202
  739SOL    HW2 2237   2.382   2.624   0.324
  740SOL     OW 2238   2.669   2.467   1.465
  740SOL    HW1 2239   2.622   2.464   1.554
  740SOL    HW2 2240   2.618   2.412   1.399
  741SOL     OW 2241   2.835   2.752   1.572
  741SOL    HW1 2242   2.881   2.668   1.543
  741SOL    HW2 2243   2.779   2.786   1.497
  742SOL     OW 2244   2.853   2.272   1.242
  742SOL    HW1 2245   2.776   2.306   1.296
  742SOL    HW2 2246   2.819   2.221   1.163
  743SOL     OW 2247   1.938   2.673   0.789
  743SOL    HW1 2248   2.037   2.661   0.798
  743SOL    HW2 2249   1.914   2.768   0.810
  744SOL     OW 2250   2.727   2.210   0.195
  744SOL    HW1 2251   2.786   2.273   0.146
  744SOL    HW2 2252   2.746   2.116   0.166
  745SOL     OW 2253   2.412   2.058   0.885
  745SOL    HW1 2254   2.407   2.053   0.985
  745SOL    HW2 2255   2.414   2.154   0.856
  746SOL     OW 2256   2.064   2.147   1.498
  746SOL    HW1 2257   1.984   2.207   1.485
  746SOL    HW2 2258   2.054   2.098   1.584
  747SOL     OW 2259   2.244   2.562   0.480
  747SOL    HW1 2260   2.289   2.472   0.477
  747SOL    HW2 2261   2.150   2.551   0.513
  748SOL     OW 2262   2.476   1.984   0.117
  748SOL    HW1 2263   2.574   1.962   0.124
  748SOL    HW2 2264   2.445   1.967   0.024
  749SOL     OW 2265   2.643   2.126   1.749
  749SOL    HW1 2266   2.710   2.065   1.792
  749SOL    HW2 2267   2.570   2.145   1.814
  750SOL     OW 2268   2.784   2.365   0.899
  750SOL    HW1 2269   2.759   2.356   0.803
  750SOL    HW2 2270   2.832   2.283   0.930
  751SOL     OW 2271   2.401   1.926   0.512
  751SOL    HW1 2272   2.320   1.927   0.570
  751SOL    HW2 2273   2.404   2.009   0.457
  752SOL     OW 2274   2.797   2.098   0.480
  752SOL    HW1 2275   2.749   2.139   0.402
  752SOL    HW2 2276   2.896   2.096   0.461
  753SOL     OW 2277   2.894   2.411   0.016
  753SOL    HW1 2278   2.853   2.493  -0.023
  753SOL    HW2 2279   2.958   2.437   0.089
  754SOL     OW 2280   1.940   2.418   1.386
  754SOL    HW1 2281   2.032   2.417   1.345
  754SOL    HW2 2282   1.934   2.492   1.453
  755SOL     OW 2283   2.423   2.084   1.147
  755SOL    HW1 2284   2.461   2.000   1.184
  755SOL    HW2 2285   2.335   2.103   1.191
  756SOL     OW 2286   2.728   2.316   0.642
  756SOL    HW1 2287   2.696   2.388   0.580
  756SOL    HW2 2288   2.752   2.235   0.589
  757SOL     OW 2289   2.879   1.901   0.753
  757SOL    HW1 2290   2.807   1.906   0.684
  757SOL    HW2 2291   2.855   1.832   0.822
  758SOL     OW 2292   2.389   2.118   0.328
  758SOL    HW1 2293   2.416   2.059   0.253
  758SOL    HW2 2294   2.389   2.213   0.297
  759SOL     OW 2295   2.777   1.951   1.402
  759SOL    HW1 2296   2.802   1.931   1.307
  759SOL    HW2 2297   2.849   2.007   1.444
  760SOL     OW 2298   2.272   2.675   1.251
  760SOL    HW1 2299   2.358   2.687   1.301
  760SOL    HW2 2300   2.230   2.588   1.278
  761SOL     OW 2301   2.428   2.399   0.865
  761SOL    HW1 2302   2.440   2.465   0.791
  761SOL    HW2 2303   2.474   2.433   0.948
  762SOL     OW 2304   2.264   2.613   1.598
  762SOL    HW1 2305   2.332   2.668   1.551
  762SOL    HW2 2306   2.304   2.525   1.625
  763SOL     OW 2307   2.875   1.967   1.770
  763SOL    HW1 2308   2.881   2.052   1.718
  763SOL    HW2 2309   2.907   1.891   1.713
  764SOL     OW 2310   2.366   1.912   1.740
  764SOL    HW1 2311   2.324   1.855   1.670
  764SOL    HW2 2312   2.300   1.981   1.772
  765SOL     OW 2313   2.435   2.732   1.029
  765SOL    HW1 2314   2.479   2.821   1.020
  765SOL    HW2 2315   2.372   2.732   1.106
  766SOL     OW 2316   3.071   2.387   0.275
  766SOL    HW1 2317   3.084   2.303   0.329
  766SOL    HW2 2318   3.042   2.461   0.335
  767SOL     OW 2319   2.169   2.075   1.231
  767SOL    HW1 2320   2.146   2.112   1.321
  767SOL    HW2 2321   2.139   1.980   1.225
  768SOL     OW 2322   2.594   2.496   1.064
  768SOL    HW1 2323   2.653   2.470   0.988
  768SOL    HW2 2324   2.566   2.592   1.053
  769SOL     OW 2325   2.169   1.925   0.618
  769SOL    HW1 2326   2.158   2.019   0.651
  769SOL    HW2 2327   2.164   1.862   0.695
  770SOL     OW 2328   2.885   2.628   0.966
  770SOL    HW1 2329   2.900   2.649   1.062
  770SOL    HW2 2330   2.855   2.533   0.957
  771SOL     OW 2331   2.212   2.760   1.804
  771SOL    HW1 2332   2.288   2.804   1.852
  771SOL    HW2 2333   2.247   2.713   1.722
  772SOL     OW 2334   2.181   2.672   0.949
  772SOL    HW1 2335   2.274   2.708   0.954
  772SOL    HW2 2336   2.175   2.587   1.001
  773SOL     OW 2337   2.201   2.371   1.006
  773SOL    HW1 2338   2.149   2.288   0.989
  773SOL    HW2 2339   2.278   2.376   0.942
  774SOL     OW 2340   2.864   2.658   1.238
  774SOL    HW1 2341   2.905   2.626   1.324
  774SOL    HW2 2342   2.768   2.631   1.235
  775SOL     OW 2343   1.902   2.406   1.114
  775SOL    HW1 2344   1.987   2.373   1.073
  775SOL    HW2 2345   1.915   2.421   1.212
  776SOL     OW 2346   2.051   2.382   1.722
  776SOL    HW1 2347   2.110   2.342   1.652
  776SOL    HW2 2348   1.993   2.453   1.681
  777SOL     OW 2349   2.677   2.434   0.325
  777SOL    HW1 2350   2.684   2.345   0.279
  777SOL    HW2 2351   2.583   2.468   0.317
  778SOL     OW 2352   2.533   2.326   1.269
  778SOL    HW1 2353   2.499   2.237   1.239
  778SOL    HW2 2354   2.559   2.380   1.189
  779SOL     OW 2355   2.335   2.362   0.191
  779SOL    HW1 2356   2.396   2.442   0.195
  779SOL    HW2 2357   2.240   2.393   0.198
  780SOL     OW 2358   2.021   2.999   1.466
  780SOL    HW1 2359   2.043   2.938   1.542
  780SOL    HW2 2360   2.031   2.950   1.380
  781SOL     OW 2361   3.164   2.717   0.309
  781SOL    HW1 2362   3.078   2.686   0.351
  781SOL    HW2 2363   3.160   2.703   0.210
  782SOL     OW 2364   2.765   1.948   0.133
  782SOL    HW1 2365   2.816   1.949   0.047
  782SOL    HW2 2366   2.821   1.906   0.204
  783SOL     OW 2367   2.125   2.188   0.720
  783SOL    HW1 2368   2.046   2.239   0.686
  783SOL    HW2 2369   2.116   2.173   0.818
  784SOL     OW 2370   2.778   2.772   0.291
  784SOL    HW1 2371   2.841   2.810   0.223
  784SOL    HW2 2372   2.818   2.689   0.330
  785SOL     OW 2373   2.876   2.098   0.971
  785SOL    HW1 2374   2.868   2.062   0.878
  785SOL    HW2 2375   2.874   2.022   1.036
  786SOL     OW 2376   1.967   2.875   1.726
  786SOL    HW1 2377   1.890   2.842   1.780
  786SOL    HW2 2378   2.052   2.845   1.768
  787SOL     OW 2379   2.534   2.065   1.489
  787SOL    HW1 2380   2.624   2.049   1.449
  787SOL    HW2 2381   2.542   2.070   1.588
  788SOL     OW 2382   1.937   2.207   0.033
  788SOL    HW1 2383   1.845   2.179   0.004
  788SOL    HW2 2384   1.968   2.284  -0.023
  789SOL     OW 2385   1.934   2.028   0.318
  789SOL    HW1 2386   1.917   2.111   0.264
  789SOL    HW2 2387   2.024   1.991   0.296
  790SOL     OW 2388   2.475   2.704   1.431
  790SOL    HW1 2389   2.531   2.785   1.414
  790SOL    HW2 2390   2.534   2.624   1.434
  791SOL     OW 2391   2.578   2.427   1.708
  791SOL    HW1 2392   2.597   2.492   1.782
  791SOL    HW2 2393   2.638   2.347   1.717
  792SOL     OW 2394   3.087   2.187   0.449
  792SOL    HW1 2395   3.152   2.113   0.438
  792SOL    HW2 2396   3.107   2.237   0.533
  793SOL     OW 2397   2.456   2.607   0.652
  793SOL    HW1 2398   2.506   2.692   0.633
  793SOL    HW2 2399   2.368   2.609   0.604
  794SOL     OW 2400   2.721   2.818   0.861
  794SOL    HW1 2401   2.775   2.749   0.909
  794SOL    HW2 2402   2.689   2.887   0.927
  795SOL     OW 2403   2.945   2.846   0.087
  795SOL    HW1 2404   2.922   2.899   0.005
  795SOL    HW2 2405   3.026   2.790   0.068
  796SOL     OW 2406   1.941   3.102   0.653
  796SOL    HW1 2407   1.940   3.055   0.741
  796SOL    HW2 2408   2.023   3.074   0.602
  797SOL     OW 2409   2.290   2.286   0.520
  797SOL    HW1 2410   2.320   2.214   0.458
  797SOL    HW2 2411   2.251   2.246   0.603
  798SOL     OW 2412   2.179   2.409   1.280
  798SOL    HW1 2413   2.217   2.350   1.352
  798SOL    HW2 2414   2.219   2.383   1.192
  799SOL     OW 2415   2.863   1.896   1.154
  799SOL    HW1 2416   2.800   1.824   1.123
  799SOL    HW2 2417   2.956   1.860   1.154
  800SOL     OW 2418   2.092   2.490   1.975
  800SOL    HW1 2419   1.999   2.488   2.012
  800SOL    HW2 2420   2.093   2.451   1.883
  801SOL     OW 2421   2.087   2.137   2.858
  801SOL    HW1 2422   2.122   2.120   2.950
  801SOL    HW2 2423   1.999   2.092   2.846
  802SOL     OW 2424   1.881   2.230   2.509
  802SOL    HW1 2425   1.799   2.273   2.548
  802SOL    HW2 2426   1.853   2.157   2.446
  803SOL     OW 2427   2.547   2.874   2.527
  803SOL    HW1 2428   2.616   2.858   2.597
  803SOL    HW2 2429   2.474   2.931   2.565
  804SOL     OW 2430   2.102   2.953   2.748
  804SOL    HW1 2431   2.116   2.869   2.800
  804SOL    HW2 2432   2.047   3.017   2.803
  805SOL     OW 2433   2.468   2.826   1.985
  805SOL    HW1 2434   2.475   2.910   1.931
  805SOL    HW2 2435   2.514   2.839   2.073
  806SOL     OW 2436   1.984   2.505   2.425
  806SOL    HW1 2437   1.939   2.417   2.442
  806SOL    HW2 2438   1.983   2.559   2.509
  807SOL     OW 2439   2.671   1.866   2.364
  807SOL    HW1 2440   2.711   1.957   2.355
  807SOL    HW2 2441   2.571   1.874   2.370
  808SOL     OW 2442   2.460   2.591   2.132
  808SOL    HW1 2443   2.484   2.660   2.064
  808SOL    HW2 2444   2.382   2.624   2.186
  809SOL     OW 2445   1.938   2.673   2.651
  809SOL    HW1 2446   2.037   2.661   2.660
  809SOL    HW2 2447   1.914   2.768   2.672
  810SOL     OW 2448   2.727   2.210   2.057
  810SOL    HW1 2449   2.786   2.273   2.008
  810SOL    HW2 2450   2.746   2.116   2.028
  811SOL     OW 2451   2.412   2.058   2.747
  811SOL    HW1 2452   2.407   2.053   2.847
  811SOL    HW2 2453   2.414   2.154   2.718
  812SOL     OW 2454   2.244   2.562   2.342
  812SOL    HW1 2455   2.289   2.472   2.339
  812SOL    HW2 2456   2.150   2.551   2.375
  813SOL     OW 2457   2.476   1.984   1.979
  813SOL    HW1 2458   2.574   1.962   1.986
  813SOL    HW2 2459   2.445   1.967   1.886
  814SOL     OW 2460   2.784   2.365   2.761
  814SOL    HW1 2461   2.759   2.356   2.665
  814SOL    HW2 2462   2.832   2.283   2.792
  815SOL     OW 2463   2.401   1.926   2.374
  815SOL    HW1 2464   2.320   1.927   2.432
  815SOL    HW2 2465   2.404   2.009   2.319
  816SOL     OW 2466   2.159   1.897   2.033
  816SOL    HW1 2467   2.208   1.981   2.012
  816SOL    HW2 2468   2.221   1.832   2.078
  817SOL     OW 2469   2.797   2.098   2.342
  817SOL    HW1 2470   2.749   2.139   2.264
  817SOL    HW2 2471   2.896   2.096   2.323
  818SOL     OW 2472   2.894   2.411   1.878
  818SOL    HW1 2473   2.853   2.493   1.839
  818SOL    HW2 2474   2.958   2.437   1.951
  819SOL     OW 2475   2.728   2.316   2.504
  819SOL    HW1 2476   2.696   2.388   2.442
  819SOL    HW2 2477   2.752   2.235   2.451
  820SOL     OW 2478   2.879   1.901   2.615
  820SOL    HW1 2479   2.807   1.906   2.546
  820SOL    HW2 2480   2.855   1.832   2.684
  821SOL     OW 2481   2.389   2.118   2.190
  821SOL    HW1 2482   2.416   2.059   2.115
  821SOL    HW2 2483   2.389   2.213   2.159
  822SOL     OW 2484   2.973   3.057   2.962
  822SOL    HW1 2485   2.933   3.101   3.043
  822SOL    HW2 2486   2.932   3.094   2.879
  823SOL     OW 2487   2.428   2.399   2.727
  823SOL    HW1 2488   2.440   2.465   2.653
  823SOL    HW2 2489   2.474   2.433   2.810
  824SOL     OW 2490   2.435   2.732   2.891
  824SOL    HW1 2491   2.479   2.821   2.882
  824SOL    HW2 2492   2.372   2.732   2.968
  825SOL     OW 2493   3.071   2.387   2.137
  825SOL    HW1 2494   3.084   2.303   2.191
  825SOL    HW2 2495   3.042   2.461   2.197
  826SOL     OW 2496   2.169   2.075   3.093
  826SOL    HW1 2497   2.146   2.112   3.183
  826SOL    HW2 2498   2.139   1.980   3.087
  827SOL     OW 2499   2.594   2.496   2.926
  827SOL    HW1 2500   2.653   2.470   2.850
  827SOL    HW2 2501   2.566   2.592   2.915
  828SOL     OW 2502   2.169   1.925   2.480
  828SOL    HW1 2503   2.158   2.019   2.513
  828SOL    HW2 2504   2.164   1.862   2.557
  829SOL     OW 2505   2.181   2.672   2.811
  829SOL    HW1 2506   2.274   2.708   2.816
  829SOL    HW2 2507   2.175   2.587   2.863
  830SOL     OW 2508   2.201   2.371   2.868
  830SOL    HW1 2509   2.149   2.288   2.851
  830SOL    HW2 2510   2.278   2.376   2.804
  831SOL     OW 2511   2.677   2.434   2.187
  831SOL    HW1 2512   2.684   2.345   2.141
  831SOL    HW2 2513   2.583   2.468   2.179
  832SOL     OW 2514   2.533   2.326   3.131
  832SOL    HW1 2515   2.499   2.237   3.101
  832SOL    HW2 2516   2.559   2.380   3.051
  833SOL     OW 2517   2.335   2.362   2.053
  833SOL    HW1 2518   2.396   2.442   2.057
  833SOL    HW2 2519   2.240   2.393   2.060
  834SOL     OW 2520   3.164   2.717   2.171
  834SOL    HW1 2521   3.078   2.686   2.213
  834SOL    HW2 2522   3.160   2.703   2.072
  835SOL     OW 2523   2.125   2.188   2.582
  835SOL    HW1 2524   2.046   2.239   2.548
  835SOL    HW2 2525   2.116   2.173   2.680
  836SOL     OW 2526   2.778   2.772   2.153
  836SOL    HW1 2527   2.841   2.810   2.085
  836SOL    HW2 2528   2.818   2.689   2.192
  837SOL     OW 2529   1.937   2.207   1.895
  837SOL    HW1 2530   1.845   2.179   1.866
  837SOL    HW2 2531   1.968   2.284   1.839
  838SOL     OW 2532   1.934   2.028   2.180
  838SOL    HW1 2533   1.917   2.111   2.126
  838SOL    HW2 2534   2.024   1.991   2.158
  839SOL     OW 2535   3.087   2.187   2.311
  839SOL    HW1 2536   3.152   2.113   2.300
  839SOL    HW2 2537   3.107   2.237   2.395
  840SOL     OW 2538   2.456   2.607   2.514
  840SOL    HW1 2539   2.506   2.692   2.495
  840SOL    HW2 2540   2.368   2.609   2.466
  841SOL     OW 2541   2.721   2.818   2.723
  841SOL    HW1 2542   2.775   2.749   2.771
  841SOL    HW2 2543   2.689   2.887   2.789
  842SOL     OW 2544   1.941   3.102   2.515
  842SOL    HW1 2545   1.940   3.055   2.603
  842SOL    HW2 2546   2.023   3.074   2.464
  843SOL     OW 2547   2.290   2.286   2.382
  843SOL    HW1 2548   2.320   2.214   2.320
  843SOL    HW2 2549   2.251   2.246   2.465
   2.93742   2.93742   2.93742
